VIBRIO VULNIFICUS A-RIBOSWITCH in water
132253
   13C      O5'    1   2.452   7.213   5.734  0.1110  0.1136 -0.5594
   13C      H5T    2   2.538   7.172   5.743 -0.3977 -1.0214 -0.7124
   13C      C5'    3   2.384   7.154   5.626  0.5386 -0.3067  0.1582
   13C     H5'1    4   2.295   7.116   5.675 -0.0040  0.7291  0.0224
   13C     H5'2    5   2.439   7.076   5.574 -0.9822  0.0101 -2.0813
   13C      C4'    6   2.337   7.258   5.526  0.2848 -0.2321  0.7434
   13C      H4'    7   2.293   7.206   5.440  1.0455 -0.6442  0.5998
   13C      O4'    8   2.232   7.339   5.583 -0.3113 -0.5494  0.1430
   13C      C1'    9   2.247   7.475   5.532  0.7331  0.1662 -0.3033
   13C      H1'   10   2.156   7.514   5.486  0.2477  0.4931  0.8874
   13C       N1   11   2.291   7.565   5.644  0.1965  0.1582 -0.5455
   13C       C6   12   2.334   7.512   5.767  1.2424  0.0384  0.5756
   13C       H6   13   2.346   7.404   5.773 -1.4037 -0.3855 -0.6691
   13C       C5   14   2.350   7.587   5.878  1.0066 -0.2273  0.1138
   13C       H5   15   2.392   7.548   5.969  0.2884  0.7952  0.9044
   13C       C4   16   2.322   7.723   5.863  0.0595  0.2749 -0.2504
   13C       N4   17   2.311   7.798   5.972 -0.6142  0.0282 -0.0496
   13C      H41   18   2.301   7.763   6.066 -3.3440  1.3377  0.2448
   13C      H42   19   2.305   7.897   5.952 -2.3026  0.1176  0.7666
   13C       N3   20   2.294   7.779   5.750 -0.5247 -0.4473 -0.4753
   13C       C2   21   2.276   7.699   5.643  0.0134 -0.9919 -0.0182
   13C       O2   22   2.264   7.759   5.535  0.3619 -0.0675 -0.0919
   13C      C3'   23   2.441   7.355   5.466 -0.2073  0.8735  1.0536
   13C      H3'   24   2.517   7.370   5.542  1.9732 -1.7849 -0.4483
   13C      C2'   25   2.361   7.483   5.435  0.0352  0.1299  0.3314
   13C     H2'1   26   2.424   7.571   5.445 -0.9646  0.8076  0.8551
   13C      O2'   27   2.306   7.486   5.294 -0.0995  0.1433 -0.0924
   13C     HO'2   28   2.307   7.396   5.261  1.4929  0.1678 -0.2064
   13C      O3'   29   2.487   7.293   5.346 -0.1048  0.4689 -0.0850
   14G        P   30   2.636   7.322   5.297 -0.2565  0.3403  0.1861
   14G      O1P   31   2.652   7.275   5.153  0.2942  0.6082  0.2203
   14G      O2P   32   2.725   7.272   5.403 -0.5644  0.5883  0.5724
   14G      O5'   33   2.662   7.483   5.290 -0.3435 -0.3554  0.3777
   14G      C5'   34   2.613   7.566   5.188  0.3027  0.9840  0.0938
   14G     H5'1   35   2.505   7.555   5.173  0.1893 -1.2280  1.9778
   14G     H5'2   36   2.668   7.552   5.095  0.1941  0.7258  0.0660
   14G      C4'   37   2.636   7.711   5.234 -0.8444 -0.8153  0.3577
   14G      H4'   38   2.617   7.771   5.145  0.4913 -0.3917  0.3390
   14G      O4'   39   2.546   7.756   5.330  0.1398 -0.4258  0.1311
   14G      C1'   40   2.599   7.876   5.384 -0.1590  0.2207  0.1381
   14G      H1'   41   2.531   7.955   5.353 -0.7141  0.0339  0.8356
   14G       N9   42   2.603   7.860   5.532  0.2387 -0.2488 -0.7478
   14G       C8   43   2.618   7.749   5.605  0.5460  0.3036 -0.3880
   14G       H8   44   2.627   7.651   5.561  0.4054  0.8512 -1.6762
   14G       N7   45   2.607   7.774   5.735 -0.0650  0.3238 -0.0556
   14G       C5   46   2.594   7.912   5.744  0.5236  0.9427  0.0085
   14G       C6   47   2.590   8.000   5.856 -0.0602 -0.0470  0.3417
   14G       O6   48   2.599   7.977   5.979  0.4668  0.1513  0.2059
   14G       N1   49   2.581   8.134   5.823  0.1377 -0.4616 -0.3667
   14G       H1   50   2.595   8.200   5.899  1.2439 -0.1969 -0.7844
   14G       C2   51   2.594   8.177   5.694  0.0588 -0.4011  0.1710
   14G       N2   52   2.607   8.304   5.674  0.2582 -0.7308 -0.0295
   14G      H21   53   2.613   8.368   5.752 -0.5218  2.5359 -2.4232
   14G      H22   54   2.629   8.342   5.583 -0.6491  0.5813  0.2740
   14G       N3   55   2.595   8.104   5.589 -0.3820 -0.6300  0.0563
   14G       C4   56   2.595   7.968   5.617 -0.1004  0.5653  0.0639
   14G      C3'   57   2.777   7.760   5.275  0.7073  0.0575  0.8200
   14G      H3'   58   2.821   7.691   5.347  0.6740 -2.6125 -1.5142
   14G      C2'   59   2.743   7.901   5.330 -0.5584  0.2448 -0.2473
   14G     H2'1   60   2.808   7.927   5.414 -0.3921  0.3394 -0.4071
   14G      O2'   61   2.740   7.996   5.229 -0.5837  0.0578  0.6546
   14G     HO'2   62   2.825   8.024   5.194  0.0789 -1.3530  1.0731
   14G      O3'   63   2.853   7.754   5.155  0.1716 -0.1182 -0.2994
   15C        P   64   3.014   7.737   5.143 -0.0620 -0.3507 -0.0433
   15C      O1P   65   3.040   7.700   5.004 -0.2142 -0.4051  0.0892
   15C      O2P   66   3.058   7.647   5.250  0.3596  0.0558 -0.0741
   15C      O5'   67   3.078   7.877   5.173  0.2359 -0.0476 -0.6588
   15C      C5'   68   3.089   7.989   5.089  0.1340 -0.5466  0.6848
   15C     H5'1   69   2.997   8.002   5.034  0.2107 -4.5293 -0.6932
   15C     H5'2   70   3.163   7.970   5.012 -1.7909  2.0208 -1.9810
   15C      C4'   71   3.108   8.113   5.171  0.5611 -0.0477 -0.1137
   15C      H4'   72   3.097   8.196   5.101 -0.5736 -0.6601 -0.7025
   15C      O4'   73   2.997   8.127   5.256  0.6914 -0.2000 -0.2346
   15C      C1'   74   3.043   8.213   5.364  1.2892  0.6787  0.0882
   15C      H1'   75   2.976   8.298   5.359 -2.0996 -1.8321 -2.3581
   15C       N1   76   3.021   8.135   5.491  0.6886  0.1784  0.2140
   15C       C6   77   3.054   8.002   5.499  0.3977 -0.2499  0.1315
   15C       H6   78   3.100   7.949   5.416  1.6977  0.8496  0.1202
   15C       C5   79   3.024   7.931   5.612  0.4257  0.1807  0.3602
   15C       H5   80   3.046   7.826   5.621  3.5688  0.4608 -2.4069
   15C       C4   81   2.959   8.008   5.713  0.4677  0.5563  0.4592
   15C       N4   82   2.949   7.953   5.833  0.0005  0.1082  0.4769
   15C      H41   83   2.972   7.857   5.853 -0.3683 -0.1954 -0.5019
   15C      H42   84   2.931   8.013   5.912  0.9498  0.7418  0.2337
   15C       N3   85   2.923   8.137   5.706  0.0745 -0.0261 -0.5035
   15C       C2   86   2.961   8.205   5.598  0.4291  0.4083 -0.1795
   15C       O2   87   2.933   8.323   5.591  0.5180  0.3694  0.2776
   15C      C3'   88   3.241   8.132   5.249  0.1193  0.0436 -0.3228
   15C      H3'   89   3.262   8.040   5.304 -0.5555  0.1478  0.1318
   15C      C2'   90   3.191   8.246   5.350 -0.3277 -0.4373  0.6633
   15C     H2'1   91   3.238   8.238   5.449  1.5288  0.4475 -0.0985
   15C      O2'   92   3.211   8.376   5.286  0.3337 -0.1301  0.2791
   15C     HO'2   93   3.305   8.380   5.264  0.6148 -1.0906  1.2019
   15C      O3'   94   3.342   8.191   5.170 -0.1126  0.2830 -0.1878
   16U        P   95   3.492   8.202   5.222 -0.0401 -0.1780 -0.5165
   16U      O1P   96   3.562   8.275   5.118  0.2033 -0.1824  0.2137
   16U      O2P   97   3.529   8.064   5.249  0.1084 -0.1324 -1.0440
   16U      O5'   98   3.494   8.297   5.351 -0.8361 -0.4042  0.0463
   16U      C5'   99   3.515   8.437   5.341  0.4737 -0.1277 -0.2936
   16U     H5'1  100   3.441   8.480   5.272  0.2999  2.1593  1.2188
   16U     H5'2  101   3.614   8.470   5.310  0.3246 -0.4545 -1.1602
   16U      C4'  102   3.490   8.499   5.480  0.3266 -1.0390 -0.6888
   16U      H4'  103   3.489   8.608   5.473 -2.5683 -0.8921  0.3624
   16U      O4'  104   3.370   8.458   5.543  0.4204 -0.5297 -0.4652
   16U      C1'  105   3.384   8.476   5.684 -1.0959 -0.3208  0.1416
   16U      H1'  106   3.315   8.555   5.715  1.0054  2.0655 -0.8914
   16U       N1  107   3.359   8.346   5.764  0.1891 -0.0328 -0.5992
   16U       C6  108   3.365   8.224   5.701 -0.3582 -0.0830  0.1390
   16U       H6  109   3.399   8.228   5.599 -0.6923 -0.5713  0.0079
   16U       C5  110   3.321   8.113   5.760  0.3439  0.6833  0.5519
   16U       H5  111   3.320   8.021   5.703 -0.1526 -0.2731  2.0330
   16U       C4  112   3.271   8.111   5.897  0.2299  0.4969  0.0013
   16U       O4  113   3.235   8.016   5.964  0.4434  0.1443 -0.5373
   16U       N3  114   3.269   8.232   5.958  0.6484 -0.2362 -0.3200
   16U       H3  115   3.240   8.229   6.055 -0.7512  1.2347 -0.6617
   16U       C2  116   3.307   8.351   5.894 -0.5134  0.7641  0.3725
   16U       O2  117   3.295   8.459   5.956 -1.1905  0.0606 -0.4333
   16U      C3'  118   3.596   8.473   5.588 -0.1511 -0.9666 -0.4496
   16U      H3'  119   3.611   8.365   5.594  0.2493 -0.8805  0.1235
   16U      C2'  120   3.523   8.526   5.713 -0.1159  0.1862 -0.7152
   16U     H2'1  121   3.562   8.484   5.806  2.2142 -0.3441 -1.8485
   16U      O2'  122   3.539   8.670   5.702  0.3529  0.1692  0.7203
   16U     HO'2  123   3.632   8.690   5.690  0.3817  0.3970  1.3088
   16U      O3'  124   3.720   8.545   5.558 -0.0549 -0.0368  0.0568
   17U        P  125   3.847   8.482   5.634  0.1080 -0.4044  0.0076
   17U      O1P  126   3.958   8.576   5.613 -0.1125 -0.3076  0.2372
   17U      O2P  127   3.854   8.338   5.595  0.3259 -0.3259  0.5200
   17U      O5'  128   3.811   8.494   5.786  0.0453  0.4155 -1.0962
   17U      C5'  129   3.846   8.602   5.872  0.4197 -0.6819 -0.1987
   17U     H5'1  130   3.795   8.688   5.829  0.5679 -0.0961  0.7833
   17U     H5'2  131   3.951   8.631   5.871  0.0766  0.6891  1.1221
   17U      C4'  132   3.812   8.590   6.018 -0.4006  0.5390  0.2612
   17U      H4'  133   3.825   8.686   6.069  0.7250  0.9696 -0.7925
   17U      O4'  134   3.685   8.529   6.033 -0.2583  0.3861  0.3085
   17U      C1'  135   3.677   8.448   6.149 -0.1980  0.9904  0.2624
   17U      H1'  136   3.624   8.502   6.227  2.7021  1.0272  2.3303
   17U       N1  137   3.625   8.311   6.126 -0.2035 -0.1547  0.7075
   17U       C6  138   3.642   8.255   6.004  0.3445  1.0923  0.6487
   17U       H6  139   3.691   8.313   5.927  1.3060  1.9877  1.8904
   17U       C5  140   3.602   8.125   5.991  0.1243  0.0649  0.2742
   17U       H5  141   3.609   8.074   5.896  1.4584 -0.8542  0.8348
   17U       C4  142   3.540   8.049   6.098 -0.8571  0.2776 -0.7408
   17U       O4  143   3.494   7.940   6.094  0.1945  0.1885  0.2380
   17U       N3  144   3.539   8.116   6.218 -0.0977 -0.5200  0.5190
   17U       H3  145   3.500   8.064   6.295 -2.5744  0.9244  0.3364
   17U       C2  146   3.575   8.247   6.236 -0.0110  0.5502  0.4184
   17U       O2  147   3.572   8.300   6.345  0.0368 -0.2214 -0.2876
   17U      C3'  148   3.899   8.489   6.089  1.0084  0.2621  0.5900
   17U      H3'  149   3.908   8.402   6.024 -0.4949  1.2022 -0.9836
   17U      C2'  150   3.816   8.463   6.211 -0.4574 -0.0539 -0.0325
   17U     H2'1  151   3.850   8.372   6.260  3.0445  1.0126 -0.2023
   17U      O2'  152   3.801   8.571   6.306  0.5309 -0.0861 -0.7756
   17U     HO'2  153   3.877   8.592   6.360  0.5880  0.4663 -1.0601
   17U      O3'  154   4.024   8.548   6.119  0.1232 -0.1950  0.1825
   18C        P  155   4.144   8.444   6.136 -0.0601  0.0312  0.4903
   18C      O1P  156   4.268   8.519   6.161 -0.8462 -0.2438 -0.1273
   18C      O2P  157   4.140   8.363   6.017 -0.4267  0.3538 -0.0310
   18C      O5'  158   4.113   8.352   6.265  0.3928 -0.0808  0.1105
   18C      C5'  159   4.138   8.403   6.390  0.2254 -0.0019  0.8334
   18C     H5'1  160   4.083   8.496   6.401 -1.3666 -0.9283  1.0249
   18C     H5'2  161   4.246   8.416   6.401  0.1625  0.1516  1.2928
   18C      C4'  162   4.087   8.301   6.492 -0.6990 -0.2854 -0.1639
   18C      H4'  163   4.090   8.354   6.587  0.4202 -1.1383  0.2965
   18C      O4'  164   3.951   8.254   6.472  0.7954 -0.4390 -0.2728
   18C      C1'  165   3.931   8.132   6.543 -0.1846 -0.1509  0.0272
   18C      H1'  166   3.867   8.164   6.625  0.2390 -0.5405  0.5227
   18C       N1  167   3.856   8.036   6.457 -0.1868  0.8611  0.6813
   18C       C6  168   3.876   8.042   6.321  1.6498  0.3649 -0.7772
   18C       H6  169   3.917   8.130   6.274 -0.6337  1.9602  0.0378
   18C       C5  170   3.840   7.935   6.251 -0.5190  0.6058  0.1891
   18C       H5  171   3.858   7.946   6.145  0.3773 -1.0089  0.1346
   18C       C4  172   3.777   7.824   6.312 -0.1433  0.4234  0.5572
   18C       N4  173   3.719   7.730   6.241  0.2304 -0.4886 -0.2999
   18C      H41  174   3.706   7.757   6.144  2.0718  2.0424  0.0472
   18C      H42  175   3.655   7.664   6.282  0.0466 -0.0555  0.1213
   18C       N3  176   3.757   7.822   6.443 -0.1993  0.0378  0.1630
   18C       C2  177   3.792   7.928   6.520  0.1521  0.3681  0.2120
   18C       O2  178   3.766   7.929   6.643 -0.6211 -0.1677  0.1630
   18C      C3'  179   4.164   8.172   6.506 -0.0222  0.0250  0.0408
   18C      H3'  180   4.171   8.126   6.408 -0.2425 -0.1496  0.1061
   18C      C2'  181   4.069   8.086   6.595 -0.6782 -0.0015  0.0281
   18C     H2'1  182   4.088   7.979   6.580  0.0307 -0.5317  3.8329
   18C      O2'  183   4.083   8.111   6.736  0.0633  0.4366 -0.6131
   18C     HO'2  184   4.158   8.060   6.766 -0.0354  0.4721 -0.3039
   18C      O3'  185   4.299   8.192   6.554  0.5452 -0.4240  0.0973
   19A        P  186   4.404   8.078   6.579  0.0673  0.1019  0.1094
   19A      O1P  187   4.531   8.146   6.597 -0.7333 -0.5589 -0.0469
   19A      O2P  188   4.399   7.983   6.469  0.0658 -0.0757 -0.0558
   19A      O5'  189   4.364   7.998   6.707  0.2500 -0.7340  0.7103
   19A      C5'  190   4.387   8.051   6.839  0.3252  0.6736  0.1016
   19A     H5'1  191   4.327   8.140   6.856 -3.3557 -1.1190 -2.2982
   19A     H5'2  192   4.495   8.050   6.857  0.6754 -2.0330 -1.6108
   19A      C4'  193   4.317   7.954   6.934  0.6981  0.2245  0.1792
   19A      H4'  194   4.325   7.994   7.035  1.0950  1.4114 -0.3060
   19A      O4'  195   4.181   7.929   6.892  0.0133  0.0071 -0.2240
   19A      C1'  196   4.158   7.788   6.897  0.2388  0.2335 -0.0947
   19A      H1'  197   4.061   7.772   6.944  0.5455 -0.7249  0.2312
   19A       N9  198   4.132   7.730   6.766 -0.4170  0.3801  0.1555
   19A       C8  199   4.218   7.744   6.651  0.7489 -0.2137 -0.1057
   19A       H8  200   4.314   7.792   6.635  0.4766  0.3379 -0.1368
   19A       N7  201   4.149   7.693   6.550  0.6771 -0.1452 -0.4607
   19A       C5  202   4.032   7.631   6.598  0.3053  0.1065  0.4877
   19A       C6  203   3.940   7.550   6.541  0.1888  0.2922 -0.5865
   19A       N6  204   3.927   7.496   6.420 -0.1162 -0.1949 -0.0441
   19A      H61  205   3.997   7.514   6.350  2.3702 -0.6263  2.1835
   19A      H62  206   3.859   7.422   6.410 -1.1574  0.9048 -1.3761
   19A       N1  207   3.849   7.491   6.623  0.1147 -0.1745 -0.0221
   19A       C2  208   3.848   7.527   6.750  0.0079  0.3950  0.3099
   19A       H2  209   3.766   7.488   6.808 -0.1247 -1.1062 -0.8241
   19A       N3  210   3.925   7.610   6.817  0.4228  0.2941 -0.2965
   19A       C4  211   4.021   7.657   6.732 -0.1225 -0.4119  0.1900
   19A      C3'  212   4.389   7.818   6.939 -0.3044 -0.2062  0.0276
   19A      H3'  213   4.436   7.797   6.843 -1.7244  0.7782 -0.9274
   19A      C2'  214   4.277   7.723   6.972 -0.9602 -0.6205 -0.1621
   19A     H2'1  215   4.291   7.618   6.943 -1.5468 -1.0201  0.9589
   19A      O2'  216   4.236   7.719   7.111 -0.7245 -0.6132  0.1328
   19A     HO'2  217   4.319   7.718   7.159  1.4488 -0.9833 -3.3031
   19A      O3'  218   4.481   7.812   7.052 -0.1410  0.5058  0.2691
   20U        P  219   4.598   7.705   7.055  0.3238 -0.1261  0.0372
   20U      O1P  220   4.663   7.736   7.181 -0.1447 -0.1151  0.8711
   20U      O2P  221   4.673   7.718   6.932  0.2220  0.2456 -0.5491
   20U      O5'  222   4.531   7.558   7.058 -0.6008  0.0762  0.1960
   20U      C5'  223   4.482   7.503   7.187  0.1356  0.6139  0.8422
   20U     H5'1  224   4.399   7.564   7.222  0.1998 -0.1413  2.3806
   20U     H5'2  225   4.576   7.505   7.242  0.6301  0.1555  0.0367
   20U      C4'  226   4.449   7.356   7.168  1.2888 -0.0810  0.2215
   20U      H4'  227   4.429   7.312   7.266  1.1537  0.2849  0.3598
   20U      O4'  228   4.328   7.354   7.088 -0.6794 -0.0351  0.3123
   20U      C1'  229   4.327   7.232   7.015  0.1695 -0.0959  0.1412
   20U      H1'  230   4.247   7.170   7.055  0.5867 -1.2947 -0.8096
   20U       N1  231   4.298   7.256   6.873 -0.4837 -0.5911  0.3526
   20U       C6  232   4.358   7.359   6.802  0.1361 -0.4074 -0.1169
   20U       H6  233   4.427   7.424   6.854 -0.5570  0.1563  0.1044
   20U       C5  234   4.310   7.384   6.673 -0.0118 -0.2632 -0.0553
   20U       H5  235   4.350   7.469   6.618 -1.3690  0.3062 -0.1952
   20U       C4  236   4.204   7.308   6.606  0.1783 -0.6796 -0.1698
   20U       O4  237   4.165   7.317   6.490  0.3773  0.3116 -0.4453
   20U       N3  238   4.159   7.203   6.682  0.1295 -0.3831 -0.3299
   20U       H3  239   4.085   7.145   6.645  0.5372 -0.4924 -0.9895
   20U       C2  240   4.202   7.173   6.813  0.7792 -0.6827  0.3289
   20U       O2  241   4.147   7.073   6.862  0.7585  0.3486  0.2630
   20U      C3'  242   4.550   7.274   7.092 -0.2733 -1.1059  0.0592
   20U      H3'  243   4.602   7.328   7.013  1.4505 -2.2204  0.3824
   20U      C2'  244   4.469   7.167   7.031 -1.2158  0.0360 -0.5893
   20U     H2'1  245   4.513   7.127   6.940 -3.2317 -2.5082 -0.5727
   20U      O2'  246   4.437   7.060   7.115 -0.3128  0.0039 -0.2583
   20U     HO'2  247   4.500   6.989   7.102 -1.3992 -0.8080 -1.2169
   20U      O3'  248   4.664   7.233   7.173  0.7149 -0.5007 -0.4758
   21A        P  249   4.798   7.176   7.119 -0.7035  0.0142  0.0702
   21A      O1P  250   4.881   7.170   7.239 -0.3449 -0.3062 -0.0999
   21A      O2P  251   4.844   7.259   7.006  0.2339  0.0486 -0.2882
   21A      O5'  252   4.775   7.030   7.070 -0.0396  0.3879 -0.0046
   21A      C5'  253   4.758   6.917   7.155  0.0128  0.6156 -0.5089
   21A     H5'1  254   4.687   6.942   7.233 -0.3213  3.5428 -1.6210
   21A     H5'2  255   4.851   6.880   7.198 -0.9370 -2.6875 -0.9536
   21A      C4'  256   4.700   6.791   7.083  0.0765 -0.3876 -0.2433
   21A      H4'  257   4.678   6.718   7.160 -0.8750 -0.9907 -1.0668
   21A      O4'  258   4.582   6.829   7.019 -0.2465 -0.0811 -0.2862
   21A      C1'  259   4.565   6.757   6.895 -0.4778  0.8393  0.0210
   21A      H1'  260   4.476   6.696   6.907  0.8070 -1.0291  0.5972
   21A       N9  261   4.537   6.850   6.790  0.4010  0.3693 -0.0831
   21A       C8  262   4.610   6.958   6.752  0.8666 -0.2843  0.6304
   21A       H8  263   4.708   6.978   6.792  1.5520 -1.3917 -0.4125
   21A       N7  264   4.545   7.027   6.657 -0.1875 -0.2889  0.2186
   21A       C5  265   4.427   6.946   6.631  0.6183 -0.2949 -0.6657
   21A       C6  266   4.325   6.952   6.536  1.2535 -0.6988  0.2031
   21A       N6  267   4.318   7.034   6.434 -0.3674 -0.2136  0.9697
   21A      H61  268   4.396   7.098   6.420 -1.0889  0.3527 -0.7350
   21A      H62  269   4.243   7.025   6.367  0.3311  0.3609  0.0895
   21A       N1  270   4.232   6.855   6.529 -0.1309 -0.5628 -0.0166
   21A       C2  271   4.228   6.769   6.631  0.2469  0.3838  0.2342
   21A       H2  272   4.147   6.698   6.639  2.0538 -1.6462  1.4849
   21A       N3  273   4.313   6.756   6.732  0.5747 -0.5075 -0.1297
   21A       C4  274   4.418   6.843   6.718 -0.2230  0.4828 -0.1501
   21A      C3'  275   4.784   6.723   6.975  0.5768  0.9993  0.1509
   21A      H3'  276   4.835   6.800   6.917  0.9419  0.7117  0.0868
   21A      C2'  277   4.680   6.660   6.871 -0.3057  0.4639 -0.5753
   21A     H2'1  278   4.715   6.674   6.769  0.0487  1.2499 -0.3582
   21A      O2'  279   4.637   6.525   6.900 -0.6001  0.0205 -0.9312
   21A     HO'2  280   4.576   6.507   6.828 -0.5217 -0.1251 -0.9601
   21A      O3'  281   4.870   6.624   7.032 -0.1822 -0.5732  0.2028
   22U        P  282   5.023   6.662   7.038 -0.0380 -0.0795  0.0313
   22U      O1P  283   5.084   6.567   7.128 -0.4250 -0.6630  0.1628
   22U      O2P  284   5.039   6.811   7.058 -0.6744  0.3633  0.1594
   22U      O5'  285   5.057   6.626   6.888  0.9942 -0.2238 -0.3422
   22U      C5'  286   5.061   6.491   6.852  0.1963  0.5582  0.7098
   22U     H5'1  287   4.961   6.451   6.865  0.4359 -0.0264  0.7894
   22U     H5'2  288   5.132   6.431   6.910  0.6733 -0.0622 -0.4771
   22U      C4'  289   5.103   6.479   6.706  0.5748 -0.4311 -0.5017
   22U      H4'  290   5.201   6.524   6.690  1.8784 -1.7313  2.9948
   22U      O4'  291   5.112   6.344   6.671 -0.3370  0.1558  0.2384
   22U      C1'  292   5.013   6.311   6.574 -0.1876  0.2650 -0.3732
   22U      H1'  293   5.075   6.312   6.485  0.6989  2.5791  0.2206
   22U       N1  294   4.950   6.181   6.599  0.3746  0.4129 -0.6310
   22U       C6  295   4.891   6.149   6.720 -0.0428 -0.6007  0.1430
   22U       H6  296   4.902   6.221   6.800 -0.0897 -2.2631  1.7200
   22U       C5  297   4.801   6.044   6.732 -0.4427  0.9937  0.1775
   22U       H5  298   4.743   6.022   6.820 -1.5318 -0.6341 -0.8806
   22U       C4  299   4.780   5.951   6.617  0.3126 -0.3658 -0.1843
   22U       O4  300   4.689   5.867   6.604 -0.5103 -0.3190 -0.4444
   22U       N3  301   4.851   5.982   6.511 -0.3948  0.1278  0.7033
   22U       H3  302   4.850   5.912   6.438 -3.0204  2.3042 -1.6073
   22U       C2  303   4.934   6.092   6.493  0.9814 -0.0131  0.1887
   22U       O2  304   4.974   6.113   6.384 -0.4808  0.0017  0.0273
   22U      C3'  305   5.000   6.549   6.613 -0.3486  0.5511  0.3008
   22U      H3'  306   4.934   6.621   6.662 -0.3577  1.7990 -1.4425
   22U      C2'  307   4.911   6.425   6.573  0.4316  0.6536  0.1498
   22U     H2'1  308   4.839   6.404   6.652  0.5893  0.4724  0.2467
   22U      O2'  309   4.844   6.432   6.452  1.1756 -0.1466  0.7052
   22U     HO'2  310   4.800   6.516   6.440 -0.0906 -0.4424  2.8605
   22U      O3'  311   5.058   6.610   6.491  0.9209  0.2659 -0.1605
   23A        P  312   5.143   6.743   6.492  0.1485 -0.0800  0.0221
   23A      O1P  313   5.111   6.836   6.603 -0.2729 -0.4847  0.1320
   23A      O2P  314   5.140   6.799   6.355 -0.1522 -0.0501  0.2377
   23A      O5'  315   5.289   6.680   6.519 -0.6165 -0.0384 -0.0721
   23A      C5'  316   5.349   6.598   6.421  0.2832 -0.1915  0.2655
   23A     H5'1  317   5.367   6.664   6.337  1.6649  1.1739  1.5799
   23A     H5'2  318   5.290   6.511   6.389  1.0729  0.3181 -2.9165
   23A      C4'  319   5.479   6.538   6.465 -0.1074  0.3538  0.1494
   23A      H4'  320   5.560   6.611   6.473  1.0806 -0.7405 -1.3657
   23A      O4'  321   5.448   6.472   6.584 -0.4816  0.5378 -0.0491
   23A      C1'  322   5.551   6.385   6.618 -0.5467  0.8914  0.5793
   23A      H1'  323   5.631   6.426   6.679  0.5145 -1.5564  0.9709
   23A       N9  324   5.491   6.273   6.689 -0.1415 -0.0670  0.3745
   23A       C8  325   5.504   6.239   6.822 -0.1734  0.4004 -0.5277
   23A       H8  326   5.570   6.291   6.890 -3.4684  1.6491  1.9558
   23A       N7  327   5.421   6.145   6.861 -0.0341  0.1797 -0.3490
   23A       C5  328   5.347   6.117   6.744  0.1841  0.0101 -0.2809
   23A       C6  329   5.243   6.028   6.706  0.5501  0.0842 -0.0889
   23A       N6  330   5.161   5.979   6.800  0.3131  0.4380  0.8107
   23A      H61  331   5.197   5.970   6.894 -1.6645 -0.2666  1.5457
   23A      H62  332   5.077   5.942   6.758  0.6055  3.7727 -3.4144
   23A       N1  333   5.214   6.011   6.581  0.7505 -0.2682  0.8318
   23A       C2  334   5.272   6.091   6.490  0.3953  0.5401  0.3263
   23A       H2  335   5.243   6.065   6.389 -2.4046 -0.7613  1.3551
   23A       N3  336   5.367   6.179   6.506 -0.2580  0.1366  0.0133
   23A       C4  337   5.398   6.185   6.636 -0.4595  0.1687  0.3300
   23A      C3'  338   5.529   6.423   6.377 -0.3829 -0.0463 -0.1089
   23A      H3'  339   5.444   6.362   6.345  0.7641 -1.8001  0.0656
   23A      C2'  340   5.619   6.350   6.484  0.6209  0.0411  0.3969
   23A     H2'1  341   5.607   6.247   6.448 -1.8636  0.3758  0.1261
   23A      O2'  342   5.755   6.395   6.482  0.0925  0.1031  0.0840
   23A     HO'2  343   5.758   6.460   6.411 -1.9715  1.3905  1.0880
   23A      O3'  344   5.599   6.466   6.259  0.0743  0.6333 -0.7061
   24A        P  345   5.539   6.482   6.121  0.2414  0.2407 -0.0662
   24A      O1P  346   5.625   6.573   6.044  0.5883 -0.4767 -0.6307
   24A      O2P  347   5.391   6.507   6.123  0.3813  0.5356  0.4052
   24A      O5'  348   5.558   6.347   6.051  0.5616 -0.0990  0.0150
   24A      C5'  349   5.519   6.225   6.105  0.2430 -1.2649 -0.0555
   24A     H5'1  350   5.414   6.243   6.129  0.8138  0.0583  1.6797
   24A     H5'2  351   5.588   6.198   6.185  1.9552  0.5373 -0.8364
   24A      C4'  352   5.528   6.110   6.005  0.4033 -0.2150 -0.0158
   24A      H4'  353   5.484   6.018   6.043 -1.3396  0.9174  0.8329
   24A      O4'  354   5.454   6.153   5.888  0.2522  0.4585 -0.7451
   24A      C1'  355   5.535   6.121   5.778 -0.5069  0.1742  1.0897
   24A      H1'  356   5.525   6.014   5.761  1.9342  0.0013  0.4386
   24A       N9  357   5.485   6.196   5.659 -0.3125 -0.3332  0.0334
   24A       C8  358   5.532   6.318   5.600  0.2389  0.9431 -0.3730
   24A       H8  359   5.621   6.373   5.630  1.0423 -0.9390  0.9153
   24A       N7  360   5.458   6.348   5.497 -0.5770  1.5642 -0.5684
   24A       C5  361   5.374   6.241   5.476 -0.2845  1.0357 -0.7210
   24A       C6  362   5.270   6.207   5.387 -0.0092  0.2370  0.6475
   24A       N6  363   5.252   6.273   5.268 -0.3523  0.5185 -0.2980
   24A      H61  364   5.291   6.366   5.261  0.6491  0.1279 -0.0796
   24A      H62  365   5.207   6.225   5.191  0.0127  0.1067 -0.2554
   24A       N1  366   5.196   6.093   5.394  0.3091 -0.1318 -0.6419
   24A       C2  367   5.225   6.011   5.495  0.5730 -0.1005  0.1169
   24A       H2  368   5.170   5.919   5.508  0.0767 -0.2119 -2.2840
   24A       N3  369   5.323   6.032   5.584  0.4460  0.1790 -0.5564
   24A       C4  370   5.390   6.149   5.578  0.6302  0.5029  0.3794
   24A      C3'  371   5.672   6.089   5.964 -0.2087 -0.4775  0.4327
   24A      H3'  372   5.744   6.135   6.031  0.6591  0.7158 -1.2577
   24A      C2'  373   5.670   6.154   5.825  0.1986 -0.2175  0.0698
   24A     H2'1  374   5.684   6.262   5.826 -2.5972  0.2326 -1.1610
   24A      O2'  375   5.773   6.099   5.753  0.3137 -0.2333 -0.1805
   24A     HO'2  376   5.801   6.023   5.805  0.2788 -1.0974 -1.3813
   24A      O3'  377   5.696   5.956   5.946 -0.3673  0.4921 -0.0687
   25U        P  378   5.815   5.890   6.035  0.2124  0.1308 -0.0816
   25U      O1P  379   5.938   5.958   5.999 -0.4236  0.3822  0.1754
   25U      O2P  380   5.802   5.743   6.022  0.7380 -0.3792  0.2838
   25U      O5'  381   5.785   5.922   6.186 -0.2728  0.6024 -0.5707
   25U      C5'  382   5.851   6.020   6.255  0.4362  0.6436  0.1942
   25U     H5'1  383   5.830   6.121   6.220 -1.2793  0.5639  0.8614
   25U     H5'2  384   5.957   5.996   6.254  0.1649 -0.5887 -0.4604
   25U      C4'  385   5.813   6.017   6.409  0.1070 -0.9118  0.3150
   25U      H4'  386   5.836   6.112   6.457  0.8361 -0.8173 -0.1995
   25U      O4'  387   5.672   6.001   6.422 -0.3858  0.1231  0.1766
   25U      C1'  388   5.631   5.944   6.548 -0.5223  0.4162 -0.1947
   25U      H1'  389   5.597   6.015   6.623  0.6403 -1.1501  1.9169
   25U       N1  390   5.525   5.830   6.522 -0.5520 -0.2154 -0.2183
   25U       C6  391   5.494   5.786   6.388 -0.0141 -0.7496  0.0212
   25U       H6  392   5.551   5.829   6.307 -1.3635  2.2367  0.4875
   25U       C5  393   5.398   5.695   6.375 -0.4002  0.1423 -0.7241
   25U       H5  394   5.376   5.649   6.279 -1.5951 -3.0850  0.9425
   25U       C4  395   5.334   5.631   6.490  0.1533 -1.1606 -0.3291
   25U       O4  396   5.266   5.530   6.483  0.2499 -0.2301 -0.2151
   25U       N3  397   5.374   5.680   6.612 -0.0377 -0.0630 -0.1810
   25U       H3  398   5.333   5.641   6.696 -0.5851  1.4111  0.2797
   25U       C2  399   5.457   5.786   6.630 -0.3126  0.5944  0.1693
   25U       O2  400   5.479   5.833   6.736  0.7702  0.0190  0.1603
   25U      C3'  401   5.856   5.899   6.485  0.1695  0.0835  0.1193
   25U      H3'  402   5.822   5.824   6.414  0.1808 -0.1854  0.3986
   25U      C2'  403   5.769   5.899   6.608  1.4397  0.0604  0.3305
   25U     H2'1  404   5.763   5.799   6.650  1.9909 -0.2875 -0.4140
   25U      O2'  405   5.804   5.998   6.706 -0.1134 -0.2870  0.5681
   25U     HO'2  406   5.899   6.012   6.707 -0.4218  3.1473 -1.7015
   25U      O3'  407   5.994   5.901   6.496 -1.0210 -0.1979  0.2608
   26C        P  408   6.083   5.772   6.495 -0.2190  0.1831 -0.0958
   26C      O1P  409   6.221   5.826   6.487 -0.1120  0.2199  0.3248
   26C      O2P  410   6.034   5.677   6.398  1.2127 -0.1303 -0.0655
   26C      O5'  411   6.049   5.716   6.642  0.1271  0.0551 -0.1885
   26C      C5'  412   6.097   5.770   6.762  0.0757 -0.8762  0.3097
   26C     H5'1  413   6.077   5.875   6.743  0.9802 -0.7288  0.0985
   26C     H5'2  414   6.202   5.740   6.761 -0.5085 -3.0832 -0.3425
   26C      C4'  415   6.031   5.712   6.888  0.3243 -0.0967 -0.3007
   26C      H4'  416   6.060   5.766   6.979 -0.2657  1.6683 -1.1218
   26C      O4'  417   5.890   5.711   6.876  0.0574  0.2443  0.7866
   26C      C1'  418   5.840   5.597   6.938  0.1757 -0.9090 -0.3790
   26C      H1'  419   5.786   5.635   7.025  1.4886  2.1987 -0.7910
   26C       N1  420   5.755   5.522   6.844  0.0276  0.4544  0.6072
   26C       C6  421   5.774   5.530   6.710  0.0157 -0.3105 -0.3225
   26C       H6  422   5.861   5.586   6.679  2.6798 -2.4754  2.5812
   26C       C5  423   5.694   5.476   6.621 -0.5733 -0.2596  0.5456
   26C       H5  424   5.703   5.491   6.514 -1.8320  2.9685  0.7750
   26C       C4  425   5.582   5.403   6.673 -0.5698 -0.2138 -0.0387
   26C       N4  426   5.494   5.354   6.590  0.3813 -0.1299  0.2479
   26C      H41  427   5.506   5.385   6.495  0.5521 -1.8080 -0.3125
   26C      H42  428   5.403   5.326   6.624  1.2107 -1.8484  1.1740
   26C       N3  429   5.556   5.388   6.804  0.2713 -0.3736  0.0289
   26C       C2  430   5.639   5.453   6.888  0.1287  0.1233  0.2717
   26C       O2  431   5.618   5.453   7.009  0.6490 -0.0060  0.0875
   26C      C3'  432   6.070   5.569   6.901  0.1580 -0.9722 -0.0243
   26C      H3'  433   6.064   5.530   6.799 -0.2900  2.9819 -1.6995
   26C      C2'  434   5.956   5.518   6.991  0.2948 -0.3082 -0.1609
   26C     H2'1  435   5.939   5.412   6.972  2.3627 -0.9131  1.0600
   26C      O2'  436   5.984   5.553   7.123 -0.1704  0.1091 -0.3267
   26C     HO'2  437   6.055   5.617   7.119  1.6669 -1.7661  0.0614
   26C      O3'  438   6.204   5.543   6.948 -0.2112 -0.4161  0.3999
   27C        P  439   6.276   5.404   6.907 -0.0459  0.4796  0.5748
   27C      O1P  440   6.408   5.406   6.970 -0.6465 -0.0115  0.1089
   27C      O2P  441   6.257   5.377   6.758 -0.1654  0.5825 -0.0626
   27C      O5'  442   6.199   5.283   6.975  0.3234  0.0505  0.0863
   27C      C5'  443   6.195   5.266   7.121 -0.2953  0.1887 -0.7507
   27C     H5'1  444   6.160   5.361   7.162 -0.2420  0.3650 -1.1130
   27C     H5'2  445   6.298   5.264   7.159 -1.3194  0.0682  2.3310
   27C      C4'  446   6.118   5.152   7.184 -0.1411  0.3099 -0.1523
   27C      H4'  447   6.141   5.159   7.291 -0.1557 -0.8521 -0.0593
   27C      O4'  448   5.980   5.170   7.161 -0.5055 -0.2390 -0.2466
   27C      C1'  449   5.926   5.041   7.142  0.0727  0.2308 -0.2650
   27C      H1'  450   5.854   5.009   7.217 -1.0286 -0.1381 -1.4377
   27C       N1  451   5.856   5.036   7.013 -0.0052 -0.0618  0.6288
   27C       C6  452   5.900   5.117   6.912  0.1998  0.0034 -0.2786
   27C       H6  453   5.984   5.183   6.926  0.0474 -0.0192  0.7858
   27C       C5  454   5.837   5.115   6.789 -0.3075 -0.5041 -0.2619
   27C       H5  455   5.863   5.177   6.705 -1.2305 -0.8426 -0.8099
   27C       C4  456   5.723   5.027   6.774  0.6541  0.8769  0.6216
   27C       N4  457   5.662   5.020   6.659  1.1356 -0.2839  0.0163
   27C      H41  458   5.690   5.082   6.584 -0.2247 -0.8048 -0.9619
   27C      H42  459   5.580   4.963   6.650  0.6982  0.2566  0.5025
   27C       N3  460   5.683   4.945   6.874  0.1982  0.2857  0.2968
   27C       C2  461   5.753   4.945   6.988  0.1118  0.2646 -0.2031
   27C       O2  462   5.723   4.858   7.073 -0.0584 -0.0470 -0.1941
   27C      C3'  463   6.168   5.020   7.132  0.7864  0.0036 -0.1821
   27C      H3'  464   6.186   5.024   7.025 -0.3863 -1.8774 -0.4989
   27C      C2'  465   6.034   4.945   7.159 -0.2938 -0.5950 -0.3469
   27C     H2'1  466   6.031   4.860   7.091  0.2416 -0.5855 -0.3877
   27C      O2'  467   6.030   4.909   7.302  0.2503 -0.2073 -0.1058
   27C     HO'2  468   6.121   4.921   7.332  0.7869 -0.9913 -1.3402
   27C      O3'  469   6.266   4.953   7.207  0.3804  0.2081  0.4188
   28U        P  470   6.344   4.832   7.130  0.2682  0.2927 -0.0743
   28U      O1P  471   6.437   4.776   7.229  0.4977 -0.3406 -0.5285
   28U      O2P  472   6.400   4.885   7.006 -0.7921  0.6403  0.0398
   28U      O5'  473   6.250   4.714   7.081  0.7396  0.2510  0.0399
   28U      C5'  474   6.198   4.615   7.176  0.0693  0.3902  0.4432
   28U     H5'1  475   6.157   4.666   7.264 -2.4473 -1.8027  0.7039
   28U     H5'2  476   6.275   4.548   7.215  0.1989 -0.1979 -0.7941
   28U      C4'  477   6.086   4.536   7.119  0.5077  0.2063 -0.2087
   28U      H4'  478   6.046   4.467   7.193  0.1805  2.3082  1.7095
   28U      O4'  479   5.984   4.622   7.071 -0.2807  0.5710 -0.2493
   28U      C1'  480   5.940   4.568   6.946 -0.1808  0.1798 -0.5429
   28U      H1'  481   5.842   4.528   6.971  0.1230 -0.0054  0.3901
   28U       N1  482   5.928   4.655   6.831  0.4260  0.5196  0.1567
   28U       C6  483   6.021   4.745   6.795  0.2881  0.7189  0.6684
   28U       H6  484   6.104   4.762   6.862  1.8735  2.7104 -1.6154
   28U       C5  485   6.015   4.809   6.673 -0.3317  0.5857  0.5091
   28U       H5  486   6.089   4.882   6.643 -0.0284  0.6405  1.3733
   28U       C4  487   5.911   4.781   6.574 -0.3986 -0.4201  0.1486
   28U       O4  488   5.894   4.841   6.469  0.1149  0.0178 -0.0385
   28U       N3  489   5.833   4.676   6.613  0.6722  0.4817 -0.5295
   28U       H3  490   5.750   4.647   6.562 -0.2129  0.0972  1.0302
   28U       C2  491   5.824   4.621   6.741 -0.0853  0.0404  0.1476
   28U       O2  492   5.735   4.545   6.773  0.4893  0.0845  0.2654
   28U      C3'  493   6.144   4.453   7.006 -0.8244 -0.8009  0.7317
   28U      H3'  494   6.223   4.508   6.956 -0.6952 -0.2688  1.5056
   28U      C2'  495   6.024   4.444   6.908  0.7025  0.3427  0.9165
   28U     H2'1  496   6.064   4.453   6.807 -1.0839  1.5564  0.2814
   28U      O2'  497   5.947   4.327   6.925  0.0042 -0.2119 -0.2841
   28U     HO'2  498   5.995   4.266   6.981  1.2053  0.5578 -0.4505
   28U      O3'  499   6.201   4.331   7.046 -0.0304 -0.0316  0.4536
   29A        P  500   6.294   4.239   6.955  0.0523  0.2284 -0.2473
   29A      O1P  501   6.388   4.169   7.051  0.4519 -0.6417 -0.1704
   29A      O2P  502   6.355   4.331   6.858 -0.0400 -0.1715 -0.1487
   29A      O5'  503   6.201   4.138   6.875  0.0800 -0.8494  0.4243
   29A      C5'  504   6.164   4.014   6.928  0.7350 -0.1298 -0.3413
   29A     H5'1  505   6.108   4.016   7.022  2.2254  1.2941  0.5868
   29A     H5'2  506   6.251   3.957   6.960  0.1984  0.0367  1.5673
   29A      C4'  507   6.078   3.949   6.823 -0.5650  0.6196  0.2373
   29A      H4'  508   6.037   3.859   6.868 -1.6771  0.8365 -0.2893
   29A      O4'  509   5.983   4.042   6.784  0.3088 -0.2250  0.3142
   29A      C1'  510   5.946   4.022   6.644  0.3352 -0.0949 -0.5363
   29A      H1'  511   5.840   4.004   6.628  0.1364 -2.3829  2.4242
   29A       N9  512   5.973   4.146   6.567  0.0139 -0.6811 -0.8708
   29A       C8  513   6.046   4.263   6.596 -0.3044  0.0608  0.5915
   29A       H8  514   6.101   4.260   6.689  2.2397 -1.0734 -0.8535
   29A       N7  515   6.050   4.357   6.505  0.0177  0.3354 -0.1419
   29A       C5  516   5.968   4.297   6.411 -0.5560  0.2503  1.2111
   29A       C6  517   5.932   4.334   6.277 -0.0773 -0.4848 -0.6455
   29A       N6  518   5.958   4.448   6.218 -0.1658 -0.6375 -0.0050
   29A      H61  519   6.014   4.522   6.258 -0.7919  1.4730 -2.7530
   29A      H62  520   5.907   4.474   6.134 -1.0091 -2.0872  0.0315
   29A       N1  521   5.843   4.262   6.214 -0.2670  0.8384 -0.3678
   29A       C2  522   5.796   4.146   6.256  0.1620  0.0633 -0.7888
   29A       H2  523   5.732   4.089   6.191 -0.4358 -1.2354  0.8832
   29A       N3  524   5.838   4.091   6.375  0.1965 -0.2739 -0.5162
   29A       C4  525   5.919   4.173   6.447  0.6052  0.7474  0.9128
   29A      C3'  526   6.152   3.905   6.691  0.7799 -0.0514 -0.1876
   29A      H3'  527   6.217   3.990   6.668 -0.0841  0.4718 -0.7168
   29A      C2'  528   6.028   3.899   6.602  0.0398 -0.2999  0.3095
   29A     H2'1  529   6.049   3.909   6.496 -1.2933 -1.2616 -0.0746
   29A      O2'  530   5.941   3.792   6.638 -0.5555  0.0373  0.1435
   29A     HO'2  531   6.002   3.733   6.684  0.7722  1.7366  0.6770
   29A      O3'  532   6.224   3.786   6.708  0.1865 -0.3514  0.0948
   30A        P  533   6.332   3.744   6.603  0.4394 -0.4821  0.4608
   30A      O1P  534   6.395   3.623   6.651 -0.6395  0.2326  0.2518
   30A      O2P  535   6.409   3.864   6.558  0.0577 -0.4958 -0.0719
   30A      O5'  536   6.258   3.706   6.470 -0.1940  0.8228 -0.0835
   30A      C5'  537   6.180   3.586   6.458  0.5953  0.2855 -0.3034
   30A     H5'1  538   6.119   3.569   6.546 -0.6498 -0.6836 -1.3013
   30A     H5'2  539   6.257   3.509   6.455  1.6195  1.2916 -1.3223
   30A      C4'  540   6.102   3.583   6.325  0.3718  0.4160  0.2979
   30A      H4'  541   6.031   3.501   6.317  0.0562  0.6492  0.6919
   30A      O4'  542   6.015   3.694   6.328  0.1718  0.0078  0.4159
   30A      C1'  543   5.989   3.727   6.198 -0.1245 -0.4561 -0.0381
   30A      H1'  544   5.882   3.724   6.175  0.6743 -2.3923 -4.4592
   30A       N9  545   6.043   3.863   6.179 -0.6074  0.9046 -0.0519
   30A       C8  546   6.143   3.928   6.245  0.3302 -0.4967 -0.2825
   30A       H8  547   6.200   3.888   6.328  0.0315  0.3358  0.3393
   30A       N7  548   6.175   4.041   6.182  0.7943 -0.1216  0.5926
   30A       C5  549   6.088   4.049   6.074  0.1449  0.1960  0.2725
   30A       C6  550   6.060   4.140   5.973  0.3007  0.3626 -0.8402
   30A       N6  551   6.125   4.249   5.949  0.2257 -0.0086 -0.4606
   30A      H61  552   6.204   4.281   6.004  0.8432  0.8540 -1.8101
   30A      H62  553   6.090   4.304   5.872 -0.5218  0.0221 -0.1060
   30A       N1  554   5.955   4.127   5.887 -0.2276  0.2689  0.1229
   30A       C2  555   5.882   4.020   5.913  0.0886  0.0761  0.3935
   30A       H2  556   5.797   4.014   5.847  1.2194  0.6736 -1.1975
   30A       N3  557   5.895   3.920   5.997 -0.0989 -0.5799 -0.4562
   30A       C4  558   6.002   3.946   6.076  0.1224  0.3678  0.2854
   30A      C3'  559   6.191   3.588   6.205  0.3444  0.8873  0.2295
   30A      H3'  560   6.257   3.674   6.216  0.7128  0.7254 -0.6541
   30A      C2'  561   6.080   3.636   6.114  0.3815 -0.1193 -0.0428
   30A     H2'1  562   6.132   3.687   6.033  0.9275 -0.2856  0.1937
   30A      O2'  563   6.003   3.529   6.066  0.2818  0.9000  0.1342
   30A     HO'2  564   5.934   3.565   6.009  1.9752  5.1956  0.3932
   30A      O3'  565   6.251   3.469   6.157  0.1432 -0.3888 -0.1912
   31U        P  566   6.373   3.469   6.048 -0.0104 -0.0966  0.0638
   31U      O1P  567   6.398   3.331   5.999 -0.0293 -0.3541 -0.1662
   31U      O2P  568   6.482   3.539   6.117  0.0957 -0.1164 -0.4813
   31U      O5'  569   6.337   3.559   5.919 -0.0717 -0.0142 -0.2037
   31U      C5'  570   6.244   3.494   5.832  0.3339 -0.4525  0.2601
   31U     H5'1  571   6.163   3.444   5.884 -0.3182 -0.5627 -0.8274
   31U     H5'2  572   6.296   3.419   5.772  0.7720  0.4265 -0.4932
   31U      C4'  573   6.178   3.592   5.736 -0.3168 -0.2026  0.3599
   31U      H4'  574   6.085   3.546   5.701 -2.8044  2.9768  2.1592
   31U      O4'  575   6.144   3.713   5.795 -0.4097  0.9714 -0.2521
   31U      C1'  576   6.149   3.813   5.694 -0.2231  0.6472 -0.3108
   31U      H1'  577   6.053   3.865   5.689 -0.9567 -0.7229 -0.8377
   31U       N1  578   6.245   3.927   5.740 -0.0639  0.0693 -0.7417
   31U       C6  579   6.333   3.913   5.847 -0.7733  0.0647 -0.7117
   31U       H6  580   6.326   3.824   5.907  0.4377  0.4091 -0.0354
   31U       C5  581   6.432   4.006   5.868 -0.4962  0.6017  0.0940
   31U       H5  582   6.520   3.993   5.929  0.8777  1.1774 -1.6832
   31U       C4  583   6.443   4.120   5.782  0.0352 -0.6676 -0.1493
   31U       O4  584   6.531   4.206   5.790  0.3337  0.3500  0.1806
   31U       N3  585   6.350   4.132   5.689 -0.6464  0.3794 -0.1716
   31U       H3  586   6.348   4.225   5.648  1.2397 -0.1154 -1.5584
   31U       C2  587   6.258   4.035   5.655  0.3167  1.0178  0.2705
   31U       O2  588   6.193   4.049   5.549 -0.0572  0.8197 -0.1837
   31U      C3'  589   6.261   3.631   5.616 -0.5440 -0.1619  0.2903
   31U      H3'  590   6.363   3.658   5.644  0.2651 -2.4047 -0.2156
   31U      C2'  591   6.187   3.753   5.555 -0.3057 -0.3444 -0.4179
   31U     H2'1  592   6.247   3.821   5.494  0.3017 -0.4935  0.0149
   31U      O2'  593   6.069   3.718   5.487  0.0027  0.2766  0.4817
   31U     HO'2  594   6.068   3.622   5.490 -1.6609  0.2599  0.4848
   31U      O3'  595   6.270   3.519   5.534 -0.3698 -0.0116 -0.0994
   32G        P  596   6.407   3.481   5.474 -0.2457  0.3392  0.0732
   32G      O1P  597   6.386   3.362   5.387  0.3929  0.2012  0.7255
   32G      O2P  598   6.508   3.483   5.581  0.4123  0.0448 -0.4318
   32G      O5'  599   6.439   3.601   5.377  0.4287 -0.2126 -0.2402
   32G      C5'  600   6.370   3.612   5.245 -1.0066 -0.1988 -0.4358
   32G     H5'1  601   6.266   3.584   5.257 -0.4458 -1.4886  1.8052
   32G     H5'2  602   6.413   3.536   5.180  1.3648  0.4089  0.3389
   32G      C4'  603   6.384   3.753   5.188 -0.1710 -0.0500 -0.9274
   32G      H4'  604   6.304   3.763   5.115 -1.3889  0.7182  0.4637
   32G      O4'  605   6.377   3.853   5.292  0.1984  0.2770  0.7527
   32G      C1'  606   6.444   3.969   5.254 -0.1290  0.2123 -0.2940
   32G      H1'  607   6.390   4.063   5.250  2.2067  1.7223  1.2362
   32G       N9  608   6.543   3.998   5.355 -0.3374 -0.0199  1.0640
   32G       C8  609   6.564   3.928   5.474  0.2531 -0.4250  0.3050
   32G       H8  610   6.536   3.825   5.492  1.2984 -0.6290  0.8447
   32G       N7  611   6.638   3.995   5.560 -0.2300 -0.5235  0.1008
   32G       C5  612   6.668   4.110   5.491 -0.0503  0.0305  0.0807
   32G       C6  613   6.749   4.221   5.527 -0.5494 -0.3870  0.3544
   32G       O6  614   6.817   4.244   5.630  0.3454 -0.5959  0.4100
   32G       N1  615   6.762   4.318   5.432  0.6550  0.5903 -0.6890
   32G       H1  616   6.801   4.408   5.458 -0.2730  1.2939 -1.6040
   32G       C2  617   6.700   4.313   5.311 -0.2988  0.2622  0.5404
   32G       N2  618   6.711   4.416   5.232  0.4713  0.6032  0.6338
   32G      H21  619   6.782   4.484   5.258  2.5414 -0.8255 -0.8883
   32G      H22  620   6.670   4.404   5.140 -0.2989 -2.8695  1.3114
   32G       N3  621   6.616   4.217   5.271  0.9874  0.2807 -0.6523
   32G       C4  622   6.608   4.116   5.368  0.9016 -0.6055 -0.3086
   32G      C3'  623   6.519   3.780   5.126 -0.0257 -0.6168  0.3671
   32G      H3'  624   6.595   3.761   5.203 -0.4919  0.5687  1.1451
   32G      C2'  625   6.512   3.928   5.119 -0.0324 -0.4858  0.0011
   32G     H2'1  626   6.614   3.966   5.110  0.0550 -0.8230 -0.4831
   32G      O2'  627   6.419   3.986   5.020 -0.1405 -0.7105 -0.0806
   32G     HO'2  628   6.453   3.984   4.930  0.5829  1.1994  0.0990
   32G      O3'  629   6.523   3.703   5.004 -0.0120 -0.1532  0.0093
   33A        P  630   6.643   3.693   4.904  0.1385 -0.2927  0.0615
   33A      O1P  631   6.610   3.577   4.816 -0.5558  0.8772 -0.1604
   33A      O2P  632   6.777   3.711   4.967 -0.3883 -0.6538 -0.1163
   33A      O5'  633   6.641   3.820   4.816  0.4824  0.0513  0.2504
   33A      C5'  634   6.535   3.848   4.725 -0.6824 -0.0181 -0.6263
   33A     H5'1  635   6.443   3.843   4.784  1.1188  0.6627  2.4655
   33A     H5'2  636   6.534   3.779   4.640  2.9861 -1.1970  0.0997
   33A      C4'  637   6.558   3.990   4.684  0.4795  0.1752  0.1418
   33A      H4'  638   6.465   4.020   4.635 -0.6272  0.4912  2.3207
   33A      O4'  639   6.569   4.074   4.798 -0.1903 -0.1674 -0.1021
   33A      C1'  640   6.652   4.176   4.758 -0.1014 -0.1642  0.0021
   33A      H1'  641   6.595   4.268   4.763 -2.2897 -1.4354 -0.1025
   33A       N9  642   6.780   4.164   4.841 -0.0274  0.6605 -0.1463
   33A       C8  643   6.816   4.078   4.944 -0.7217 -0.1285 -0.1051
   33A       H8  644   6.767   3.982   4.958  0.0758 -0.4011  0.8951
   33A       N7  645   6.905   4.126   5.029 -0.4062  0.6785 -0.0283
   33A       C5  646   6.950   4.238   4.958 -0.4025 -0.1764  0.2709
   33A       C6  647   7.046   4.336   4.985  0.0257  0.1968 -0.1172
   33A       N6  648   7.112   4.350   5.097  0.2071 -0.4180 -0.4709
   33A      H61  649   7.079   4.308   5.183 -0.8917 -1.2107 -1.2406
   33A      H62  650   7.176   4.427   5.094  0.2575 -0.3245  1.6506
   33A       N1  651   7.072   4.431   4.895  0.3239 -0.3513  0.1431
   33A       C2  652   6.995   4.444   4.785 -0.0840 -0.2113 -0.1060
   33A       H2  653   7.020   4.526   4.720  0.4816 -0.5060 -0.2670
   33A       N3  654   6.897   4.356   4.747  0.2526 -0.5799 -0.9375
   33A       C4  655   6.882   4.254   4.844  0.0193  0.2065  0.1375
   33A      C3'  656   6.685   4.009   4.597 -0.1202 -0.4710  0.2987
   33A      H3'  657   6.766   3.961   4.650 -1.2835 -2.4594  0.3962
   33A      C2'  658   6.693   4.161   4.610  0.0834 -0.1453  0.1832
   33A     H2'1  659   6.798   4.188   4.597  0.2401 -0.2085  1.2061
   33A      O2'  660   6.594   4.230   4.532 -0.0299  0.6275 -0.0025
   33A     HO'2  661   6.629   4.317   4.512 -0.1022  0.2502 -2.0026
   33A      O3'  662   6.671   3.952   4.469  0.2063 -0.1340  0.1930
   34U        P  663   6.793   3.885   4.390  0.2286 -0.0471 -0.0645
   34U      O1P  664   6.734   3.825   4.267  0.2227 -0.4140  0.4982
   34U      O2P  665   6.877   3.806   4.484 -0.3085 -0.3053 -0.2997
   34U      O5'  666   6.873   4.014   4.357  0.3028 -0.0282  0.3447
   34U      C5'  667   6.816   4.119   4.274  0.1150 -0.8529 -0.1610
   34U     H5'1  668   6.725   4.145   4.326 -0.0442 -0.9480 -0.3881
   34U     H5'2  669   6.784   4.075   4.179 -2.4459 -0.5388  0.5112
   34U      C4'  670   6.915   4.233   4.254 -0.3629 -0.7840  0.0594
   34U      H4'  671   6.862   4.309   4.196  1.1255  0.6217  0.4837
   34U      O4'  672   6.960   4.284   4.375 -0.7380 -0.1298  0.0591
   34U      C1'  673   7.097   4.277   4.380 -0.2900 -0.1780  0.1247
   34U      H1'  674   7.139   4.372   4.347  0.7830 -0.8636 -0.5313
   34U       N1  675   7.132   4.236   4.515 -0.3012  0.6772  0.1440
   34U       C6  676   7.081   4.111   4.567 -0.0439  0.1501 -1.2428
   34U       H6  677   7.020   4.041   4.512 -0.0410 -0.7694 -0.1192
   34U       C5  678   7.121   4.067   4.692  0.2114  0.2210 -0.8002
   34U       H5  679   7.075   3.985   4.744  0.5072  1.4130  1.5024
   34U       C4  680   7.224   4.138   4.763 -0.7157  0.1911 -0.1786
   34U       O4  681   7.270   4.110   4.877 -0.0522  0.0681 -0.0384
   34U       N3  682   7.271   4.255   4.708  0.1104 -0.1914  1.4238
   34U       H3  683   7.323   4.316   4.769  1.8971  0.8452 -0.9771
   34U       C2  684   7.226   4.307   4.592  0.4680 -0.3419  0.0213
   34U       O2  685   7.263   4.420   4.563 -0.2724  0.5295 -0.4929
   34U      C3'  686   7.039   4.188   4.173  0.2375 -0.4179  0.6577
   34U      H3'  687   7.015   4.094   4.123  1.5899 -0.3250 -0.1945
   34U      C2'  688   7.141   4.164   4.285 -0.0589 -0.0610 -0.4439
   34U     H2'1  689   7.123   4.067   4.331  1.9314 -0.7659 -1.0828
   34U      O2'  690   7.280   4.176   4.253  0.3932 -0.0426  0.1158
   34U     HO'2  691   7.290   4.229   4.173 -2.0653 -0.5917 -0.6573
   34U      O3'  692   7.086   4.284   4.083 -0.1833 -0.2516  0.1581
   35A        P  693   7.050   4.289   3.933  0.1238 -0.2587  0.0158
   35A      O1P  694   6.922   4.221   3.902 -0.5023 -0.4827 -0.0620
   35A      O2P  695   7.171   4.240   3.874  0.2257  0.0390 -0.3095
   35A      O5'  696   7.038   4.447   3.893 -1.2024 -0.5542  0.3165
   35A      C5'  697   6.913   4.523   3.901 -0.7947 -0.4146 -0.2507
   35A     H5'1  698   6.893   4.531   4.008  1.5746 -0.2108  0.2316
   35A     H5'2  699   6.829   4.483   3.844 -1.6276  0.3565  0.4086
   35A      C4'  700   6.932   4.661   3.837  0.1020 -0.0649  0.2135
   35A      H4'  701   6.832   4.703   3.832  0.9096  1.8058 -2.2516
   35A      O4'  702   7.006   4.738   3.933  0.1661 -0.4230 -0.3171
   35A      C1'  703   7.127   4.787   3.870 -0.2287  0.7428 -0.2091
   35A      H1'  704   7.134   4.893   3.844  1.1877  0.5590 -0.6548
   35A       N9  705   7.235   4.762   3.974  0.3279  0.3205 -0.0810
   35A       C8  706   7.246   4.659   4.068  0.3828 -0.2320  0.2641
   35A       H8  707   7.165   4.589   4.083 -0.2580  0.6315  0.9703
   35A       N7  708   7.341   4.671   4.151  0.1250  0.4705 -0.3433
   35A       C5  709   7.420   4.773   4.097  0.0131 -0.2537 -0.0036
   35A       C6  710   7.552   4.825   4.119 -0.3680  0.5188  0.2222
   35A       N6  711   7.642   4.777   4.206  0.3150  0.4759 -0.0322
   35A      H61  712   7.613   4.708   4.274  2.3741  1.4650  1.9568
   35A      H62  713   7.733   4.820   4.201  1.4801 -1.9708 -2.0321
   35A       N1  714   7.596   4.927   4.045  0.2175 -0.3352  0.3290
   35A       C2  715   7.518   4.974   3.944 -0.1512 -0.0427  0.4393
   35A       H2  716   7.549   5.063   3.891  0.5224 -0.9152 -0.6762
   35A       N3  717   7.399   4.931   3.912  0.4759  0.2454 -0.2025
   35A       C4  718   7.354   4.832   3.991  0.3608  0.7073 -0.2869
   35A      C3'  719   7.004   4.656   3.701  0.1459  0.0719 -0.3529
   35A      H3'  720   7.008   4.560   3.650 -1.9193 -0.6229  0.6956
   35A      C2'  721   7.148   4.696   3.750  0.0092  0.0854  0.2002
   35A     H2'1  722   7.204   4.608   3.781  0.1887  0.2902  0.4622
   35A      O2'  723   7.218   4.752   3.645  0.5525 -0.3010 -0.6347
   35A     HO'2  724   7.204   4.698   3.567  1.3343  1.3845 -2.0110
   35A      O3'  725   6.947   4.750   3.619 -0.6615  0.1754  0.5590
   36U        P  726   6.856   4.705   3.501  0.3235 -0.3042  0.0993
   36U      O1P  727   6.925   4.602   3.423 -0.0664  1.0001 -0.1265
   36U      O2P  728   6.828   4.834   3.434  0.2040  0.0950 -0.5026
   36U      O5'  729   6.727   4.648   3.567  0.2512  0.4622 -0.7202
   36U      C5'  730   6.610   4.720   3.591 -0.0149 -0.3016 -0.0775
   36U     H5'1  731   6.576   4.763   3.496 -0.1942  0.4615  0.3192
   36U     H5'2  732   6.634   4.801   3.660 -0.1665  0.8246 -1.3093
   36U      C4'  733   6.493   4.647   3.658  0.0016 -0.3312  0.2810
   36U      H4'  734   6.425   4.725   3.691 -1.8889 -1.9560  0.4022
   36U      O4'  735   6.427   4.555   3.572 -0.4970  1.0148 -0.5603
   36U      C1'  736   6.478   4.422   3.604  0.1071 -0.1318  0.2904
   36U      H1'  737   6.397   4.351   3.620  0.7896 -1.5001 -1.8414
   36U       N1  738   6.543   4.371   3.482  0.0247 -0.2757 -0.2756
   36U       C6  739   6.581   4.454   3.379 -0.3412  0.2797  0.0969
   36U       H6  740   6.570   4.561   3.388 -3.1740  0.0061  1.0527
   36U       C5  741   6.635   4.395   3.263  0.4662  0.3914 -0.7637
   36U       H5  742   6.667   4.456   3.179  0.9437  1.0395 -0.1203
   36U       C4  743   6.661   4.255   3.251 -0.1813 -0.1801 -0.0162
   36U       O4  744   6.691   4.197   3.150 -0.3550 -0.2527  0.2155
   36U       N3  745   6.632   4.185   3.368  0.0353 -0.0155  0.3506
   36U       H3  746   6.646   4.087   3.346  0.6301  0.2452 -0.4666
   36U       C2  747   6.567   4.231   3.479 -0.0151 -0.0934  0.4221
   36U       O2  748   6.518   4.155   3.560 -0.5604  0.1471  0.3706
   36U      C3'  749   6.541   4.563   3.783 -0.4061 -0.2150  0.9978
   36U      H3'  750   6.634   4.599   3.825  0.6597 -0.7090 -0.8191
   36U      C2'  751   6.565   4.424   3.733 -0.5880  0.6102 -0.4155
   36U     H2'1  752   6.670   4.417   3.705 -0.7951  1.4023 -1.4799
   36U      O2'  753   6.537   4.315   3.825 -0.2294 -0.3716  0.2120
   36U     HO'2  754   6.463   4.344   3.878 -0.5461 -2.1176  0.7892
   36U      O3'  755   6.440   4.558   3.872 -0.3200 -0.0982 -0.4427
   37G        P  756   6.431   4.667   3.991  0.0516 -0.2482  0.0324
   37G      O1P  757   6.291   4.662   4.030  0.0559 -0.1410 -0.4383
   37G      O2P  758   6.480   4.797   3.936 -0.7469  0.4961 -0.0090
   37G      O5'  759   6.524   4.619   4.107 -0.4057  0.0373  0.0099
   37G      C5'  760   6.499   4.502   4.176  0.4626 -0.3988  0.0696
   37G     H5'1  761   6.507   4.413   4.113  1.1053 -1.5978  1.7795
   37G     H5'2  762   6.410   4.515   4.237  0.5107 -0.1662  0.0901
   37G      C4'  763   6.599   4.486   4.286 -0.2480  0.7199  0.2923
   37G      H4'  764   6.582   4.385   4.322  1.0004  1.2332  2.5627
   37G      O4'  765   6.737   4.508   4.242  0.4244  0.3759  0.9955
   37G      C1'  766   6.808   4.570   4.348  0.3544  0.0305 -0.4170
   37G      H1'  767   6.885   4.494   4.364 -1.4573 -2.0092 -0.7678
   37G       N9  768   6.860   4.702   4.305 -0.6144  0.3122 -0.8217
   37G       C8  769   6.803   4.798   4.230 -0.6067 -0.4224 -0.0917
   37G       H8  770   6.712   4.786   4.172 -0.1689 -0.7554 -0.7197
   37G       N7  771   6.890   4.893   4.202 -0.2624  0.1007  0.2475
   37G       C5  772   7.001   4.866   4.277 -0.7527 -0.1974  0.5262
   37G       C6  773   7.133   4.928   4.288  0.5378 -0.6212  0.0405
   37G       O6  774   7.172   5.028   4.233  0.4780  0.0766 -0.3520
   37G       N1  775   7.223   4.864   4.370  0.3827 -0.3135 -0.6341
   37G       H1  776   7.313   4.907   4.385 -0.2232  0.4066  1.4139
   37G       C2  777   7.198   4.737   4.412 -0.3242 -0.4130  0.3494
   37G       N2  778   7.289   4.683   4.487 -0.8913  0.5364  0.5245
   37G      H21  779   7.378   4.729   4.489 -0.5830  0.1204 -1.5216
   37G      H22  780   7.269   4.589   4.520  0.0245  0.6293  1.3958
   37G       N3  781   7.077   4.675   4.411 -0.7659  0.5871 -0.1916
   37G       C4  782   6.988   4.745   4.341  0.3005 -0.5424  0.3926
   37G      C3'  783   6.577   4.584   4.401 -0.2643  0.0294 -0.8288
   37G      H3'  784   6.546   4.685   4.374 -0.2365  0.5285  0.9027
   37G      C2'  785   6.713   4.588   4.464 -0.5514 -0.1910 -0.2925
   37G     H2'1  786   6.737   4.681   4.515  0.0421 -0.5807  0.1431
   37G      O2'  787   6.731   4.476   4.547 -0.2689 -0.3723  0.0637
   37G     HO'2  788   6.805   4.493   4.605  0.0590 -1.3549 -0.0354
   37G      O3'  789   6.475   4.528   4.485  0.0888 -0.2084  0.1108
   38G        P  790   6.417   4.619   4.598  0.0691  0.0854  0.3175
   38G      O1P  791   6.323   4.529   4.665  0.1878  0.2493  0.0559
   38G      O2P  792   6.364   4.739   4.535 -0.1779  0.2745  0.1178
   38G      O5'  793   6.532   4.660   4.699 -0.7162  0.2911  0.0018
   38G      C5'  794   6.567   4.580   4.808 -0.4257 -0.3209  0.0128
   38G     H5'1  795   6.607   4.484   4.775  0.9254  0.8147 -1.8616
   38G     H5'2  796   6.476   4.559   4.864 -0.2340 -1.3389 -0.0347
   38G      C4'  797   6.668   4.647   4.902  0.3103 -0.0846  0.2998
   38G      H4'  798   6.691   4.583   4.986  0.7569  0.4975  0.6295
   38G      O4'  799   6.783   4.662   4.830 -0.5563  0.2448 -0.2899
   38G      C1'  800   6.836   4.792   4.857  0.3914  0.4199  0.1605
   38G      H1'  801   6.940   4.791   4.889  0.4838  0.7448 -0.1270
   38G       N9  802   6.831   4.874   4.733  0.5606  0.3949 -0.1084
   38G       C8  803   6.735   4.904   4.638 -0.7768  0.5835  0.5424
   38G       H8  804   6.637   4.861   4.630 -1.0692  1.4979 -1.3782
   38G       N7  805   6.779   4.991   4.544 -0.0438 -0.3521  0.1417
   38G       C5  806   6.906   5.030   4.588  0.2764 -0.6593 -1.0715
   38G       C6  807   6.999   5.129   4.532  0.0311  0.5677 -0.2934
   38G       O6  808   6.981   5.207   4.436 -0.5510  0.5731  0.4563
   38G       N1  809   7.121   5.133   4.596  0.1690 -0.4030 -0.9543
   38G       H1  810   7.189   5.201   4.567 -0.3784  0.4836 -0.1969
   38G       C2  811   7.146   5.063   4.708  0.3751 -0.1655  0.6648
   38G       N2  812   7.260   5.084   4.766 -0.1740  0.0961  0.3181
   38G      H21  813   7.326   5.150   4.729  0.9820 -1.1310  0.1179
   38G      H22  814   7.283   5.032   4.849  0.1935  0.3263  0.3602
   38G       N3  815   7.058   4.972   4.765  0.5106 -0.0848 -0.6441
   38G       C4  816   6.937   4.958   4.701 -0.1260 -0.5773 -0.1919
   38G      C3'  817   6.614   4.782   4.954  0.7047 -0.3561  0.3317
   38G      H3'  818   6.552   4.820   4.873  0.2738 -4.3402 -1.4572
   38G      C2'  819   6.755   4.845   4.974 -0.0620  0.4882  0.3102
   38G     H2'1  820   6.759   4.953   4.962  0.6785  0.3977 -0.3050
   38G      O2'  821   6.810   4.814   5.107 -0.7110 -0.0170  0.2266
   38G     HO'2  822   6.745   4.847   5.170  0.3593  2.1740  0.2879
   38G      O3'  823   6.544   4.773   5.077 -0.1575  0.0509  0.1832
   39U        P  824   6.442   4.883   5.111  0.0976 -0.0499  0.1415
   39U      O1P  825   6.466   5.009   5.037 -0.1919 -0.0846 -0.6118
   39U      O2P  826   6.425   4.892   5.256 -0.1691  0.8798  0.0853
   39U      O5'  827   6.297   4.824   5.066 -0.1244 -0.0375 -0.7646
   39U      C5'  828   6.260   4.798   4.935  0.0955 -0.1841 -0.1509
   39U     H5'1  829   6.340   4.745   4.883 -0.0433 -1.5991  1.0067
   39U     H5'2  830   6.238   4.893   4.887  1.6771 -0.7617 -2.1750
   39U      C4'  831   6.150   4.696   4.929  0.0720  0.2566 -0.1823
   39U      H4'  832   6.122   4.692   4.823 -1.8590 -0.0239  0.2930
   39U      O4'  833   6.202   4.571   4.979  0.0022  0.8083 -0.7015
   39U      C1'  834   6.121   4.519   5.084 -0.4010  0.0797  0.4952
   39U      H1'  835   6.047   4.451   5.043  0.5790  0.4102 -2.0116
   39U       N1  836   6.209   4.469   5.196  0.1835  0.0513  0.3483
   39U       C6  837   6.314   4.546   5.244 -0.4963 -0.1200  0.2456
   39U       H6  838   6.322   4.646   5.204  0.2433 -1.0242 -2.0283
   39U       C5  839   6.394   4.495   5.342 -0.2752  0.0865 -0.1194
   39U       H5  840   6.474   4.555   5.383  0.6136 -0.9784 -0.2391
   39U       C4  841   6.359   4.369   5.410  0.3059 -0.5359  0.0071
   39U       O4  842   6.417   4.326   5.511 -0.0933 -0.7717 -0.1783
   39U       N3  843   6.254   4.295   5.352  0.3464 -0.5067  0.3716
   39U       H3  844   6.216   4.210   5.393  2.5511 -0.8724  1.8539
   39U       C2  845   6.177   4.337   5.245  0.1734 -0.0312 -0.0750
   39U       O2  846   6.096   4.262   5.195 -0.5252  0.6577 -0.2793
   39U      C3'  847   6.020   4.717   5.007  0.9493 -0.6528  0.4159
   39U      H3'  848   6.012   4.826   5.013 -1.9488 -0.4394 -3.5139
   39U      C2'  849   6.048   4.651   5.138  1.2538  0.0575  0.2779
   39U     H2'1  850   6.110   4.720   5.196 -0.4300  2.1913 -0.3015
   39U      O2'  851   5.938   4.607   5.208 -1.0621  0.0431  0.0432
   39U     HO'2  852   5.866   4.579   5.151  0.4469 -2.1538 -0.9161
   39U      O3'  853   5.902   4.682   4.937  0.2977 -0.1028 -0.2976
   40U        P  854   5.753   4.742   4.979  0.1520  0.4234  0.5418
   40U      O1P  855   5.664   4.738   4.860 -0.6631  0.5607 -0.6909
   40U      O2P  856   5.767   4.869   5.051 -0.3325  0.0584 -0.1558
   40U      O5'  857   5.701   4.629   5.087 -0.3612  0.0979 -0.2226
   40U      C5'  858   5.646   4.516   5.032 -0.3371 -0.6139  0.0776
   40U     H5'1  859   5.716   4.471   4.962  1.3433  2.5855 -0.4579
   40U     H5'2  860   5.554   4.547   4.983 -0.4632 -0.1257  0.6068
   40U      C4'  861   5.615   4.420   5.148 -0.4707  0.1200 -0.2860
   40U      H4'  862   5.580   4.326   5.107  4.2458 -2.6813  1.2991
   40U      O4'  863   5.742   4.383   5.209  0.1459 -0.2613  0.0856
   40U      C1'  864   5.707   4.333   5.334 -0.2274 -0.5735  0.1836
   40U      H1'  865   5.694   4.225   5.322  2.8302 -0.8466 -1.6999
   40U       N1  866   5.825   4.356   5.426 -0.1888 -0.0318 -0.0953
   40U       C6  867   5.862   4.477   5.479  0.0642 -0.2415  0.2421
   40U       H6  868   5.808   4.568   5.456 -0.9222 -0.4988  1.4520
   40U       C5  869   5.966   4.491   5.564 -0.1264 -0.3127  0.0031
   40U       H5  870   5.993   4.592   5.590 -1.3726 -0.3482  1.5869
   40U       C4  871   6.044   4.378   5.604  0.6931 -0.3298 -0.9545
   40U       O4  872   6.153   4.379   5.667 -0.4017 -0.5502  0.1982
   40U       N3  873   5.997   4.261   5.557  0.1975  0.1555 -0.4870
   40U       H3  874   6.041   4.174   5.584  0.6048  1.1816  2.5768
   40U       C2  875   5.894   4.243   5.468  0.8859  0.2827  0.1829
   40U       O2  876   5.867   4.134   5.428 -0.1437 -0.4236  0.4425
   40U      C3'  877   5.535   4.469   5.260  0.2999 -0.2681 -0.1822
   40U      H3'  878   5.566   4.571   5.280  0.4251 -0.1891 -0.7455
   40U      C2'  879   5.577   4.388   5.387  0.6802 -0.1054  0.1155
   40U     H2'1  880   5.598   4.463   5.463 -2.1722  2.3777 -1.3441
   40U      O2'  881   5.499   4.274   5.416  0.2654  0.8308 -0.2413
   40U     HO'2  882   5.437   4.305   5.482  1.9511  0.1255  1.7916
   40U      O3'  883   5.393   4.460   5.228 -0.1097 -0.5025  0.2628
   41U        P  884   5.293   4.553   5.299 -0.3205 -0.0753 -0.0600
   41U      O1P  885   5.158   4.552   5.236  0.2277  0.2038  0.1762
   41U      O2P  886   5.357   4.686   5.306 -0.0203 -0.1483  0.5940
   41U      O5'  887   5.288   4.490   5.443  0.0273  0.3345 -0.3574
   41U      C5'  888   5.201   4.378   5.474 -0.4291 -0.0612 -0.0462
   41U     H5'1  889   5.230   4.296   5.408  0.9736 -0.6287  1.2289
   41U     H5'2  890   5.103   4.418   5.450 -0.2160 -0.6200 -2.0854
   41U      C4'  891   5.204   4.324   5.615  0.2856  0.4946  0.4170
   41U      H4'  892   5.162   4.223   5.605  0.1514  0.7963 -3.8927
   41U      O4'  893   5.339   4.300   5.644  0.0400  0.3620 -0.4857
   41U      C1'  894   5.372   4.351   5.773 -0.7085 -0.4020  0.0572
   41U      H1'  895   5.339   4.287   5.854 -1.1521 -0.5505 -0.2395
   41U       N1  896   5.518   4.387   5.793 -0.2313 -0.2394 -0.2792
   41U       C6  897   5.574   4.507   5.751 -0.0199 -1.3589  0.1206
   41U       H6  898   5.522   4.574   5.685  1.1417 -1.4293 -0.9000
   41U       C5  899   5.706   4.535   5.783  0.3574  0.7179  0.1019
   41U       H5  900   5.752   4.625   5.743 -0.6259  1.1098 -0.1752
   41U       C4  901   5.795   4.443   5.847  0.1747  0.2862 -0.8976
   41U       O4  902   5.914   4.458   5.869 -0.7268 -0.3667 -0.2210
   41U       N3  903   5.725   4.329   5.892  0.0175  0.4709 -0.3547
   41U       H3  904   5.783   4.269   5.949 -0.3219  1.8622  1.5719
   41U       C2  905   5.592   4.301   5.873 -0.0134  0.5109  0.4250
   41U       O2  906   5.549   4.187   5.915 -0.1897  0.2821  0.2229
   41U      C3'  907   5.145   4.420   5.722 -0.0468 -0.0230  0.7380
   41U      H3'  908   5.076   4.493   5.679  0.0290 -0.3843 -0.0213
   41U      C2'  909   5.276   4.469   5.778 -0.5677  0.0167 -0.2070
   41U     H2'1  910   5.309   4.537   5.700 -1.0360 -0.9952 -1.3220
   41U      O2'  911   5.265   4.539   5.899  0.2114 -0.2934 -0.0771
   41U     HO'2  912   5.172   4.550   5.918  0.3469  0.0285  0.4127
   41U      O3'  913   5.084   4.327   5.809  0.2141 -0.0609  0.3466
   42G        P  914   4.981   4.365   5.922  0.3278  0.4785 -0.0780
   42G      O1P  915   4.850   4.313   5.884 -0.0888 -0.0665  0.3266
   42G      O2P  916   4.997   4.512   5.948  0.2167 -0.0073 -0.4295
   42G      O5'  917   5.041   4.284   6.040  0.3624 -0.1512  0.0579
   42G      C5'  918   5.041   4.148   6.042  0.6205  0.3059  0.2303
   42G     H5'1  919   5.097   4.113   5.956  1.5740 -0.9851  1.3278
   42G     H5'2  920   4.940   4.106   6.033  0.5243  0.2334  1.4654
   42G      C4'  921   5.103   4.087   6.170  0.5164  0.7561  0.0102
   42G      H4'  922   5.075   3.985   6.194  0.6551  1.0408  1.5070
   42G      O4'  923   5.246   4.080   6.169 -0.7590  0.3267 -0.5560
   42G      C1'  924   5.309   4.093   6.294  0.3587  0.1914  0.0144
   42G      H1'  925   5.359   3.998   6.315  0.9259  0.0382 -1.8560
   42G       N9  926   5.392   4.216   6.290  0.1383  0.2191 -0.2398
   42G       C8  927   5.401   4.313   6.189 -0.5439 -0.0580 -0.7019
   42G       H8  928   5.354   4.305   6.092 -1.2156  0.0908 -0.3907
   42G       N7  929   5.474   4.416   6.221 -0.0167  0.8514 -0.3853
   42G       C5  930   5.528   4.379   6.346 -0.2983 -0.0704  0.6504
   42G       C6  931   5.606   4.457   6.445 -0.1228 -0.7079  0.4463
   42G       O6  932   5.657   4.570   6.429 -0.2833  0.3875  0.5330
   42G       N1  933   5.633   4.395   6.560 -0.2220 -0.2625  0.0226
   42G       H1  934   5.674   4.449   6.635 -1.8510  2.7895 -1.0751
   42G       C2  935   5.586   4.276   6.581 -0.1124 -0.0846  0.1691
   42G       N2  936   5.615   4.228   6.701  0.0714  0.1253  0.2247
   42G      H21  937   5.667   4.286   6.765  0.2458  2.5945 -1.9443
   42G      H22  938   5.582   4.137   6.729 -0.8086  0.5848  0.7112
   42G       N3  939   5.507   4.199   6.505 -0.1144  0.2774 -0.3927
   42G       C4  940   5.490   4.251   6.381  0.1365 -0.4786 -0.0873
   42G      C3'  941   5.074   4.151   6.302  0.2683 -0.3494  0.4671
   42G      H3'  942   5.084   4.259   6.293  2.9014 -0.5660 -0.0522
   42G      C2'  943   5.186   4.105   6.393 -0.6763  0.1131 -0.7149
   42G     H2'1  944   5.202   4.173   6.477 -0.0905 -2.8623  1.7494
   42G      O2'  945   5.174   3.977   6.453  0.1859  0.3360 -0.0562
   42G     HO'2  946   5.082   3.952   6.462 -0.2214  1.2491 -1.5116
   42G      O3'  947   4.942   4.110   6.344  0.0461  0.2510  0.3636
   43G        P  948   4.849   4.219   6.411  0.2394 -0.8443  0.0690
   43G      O1P  949   4.718   4.164   6.448  0.5283 -0.2465  0.3636
   43G      O2P  950   4.850   4.337   6.322 -0.1511 -0.5471  0.6160
   43G      O5'  951   4.937   4.240   6.541 -0.3182 -0.1545 -0.3587
   43G      C5'  952   4.931   4.146   6.651 -0.4372  0.5037 -0.0177
   43G     H5'1  953   4.961   4.047   6.619 -1.2576 -0.3143  1.6055
   43G     H5'2  954   4.829   4.140   6.690 -1.1389  1.8212 -1.5101
   43G      C4'  955   5.022   4.184   6.765 -0.0668  0.8565 -0.1893
   43G      H4'  956   5.026   4.106   6.841  0.6656  0.0421 -1.0419
   43G      O4'  957   5.155   4.209   6.725  0.1128  0.4614 -0.5559
   43G      C1'  958   5.210   4.312   6.802 -0.2628  0.0577 -0.4492
   43G      H1'  959   5.298   4.277   6.857 -0.4629  2.5522  1.6534
   43G       N9  960   5.252   4.422   6.717  0.4152 -0.2201  0.1697
   43G       C8  961   5.246   4.430   6.583  0.2449  0.8559 -0.2377
   43G       H8  962   5.190   4.365   6.517  1.0856  0.4852 -0.5973
   43G       N7  963   5.299   4.541   6.534  0.7123  0.4418 -0.4882
   43G       C5  964   5.359   4.601   6.648  0.1977 -0.2324 -0.0520
   43G       C6  965   5.438   4.721   6.663 -0.0920 -0.0058  0.4835
   43G       O6  966   5.467   4.803   6.580  0.0674 -0.1439 -0.2592
   43G       N1  967   5.494   4.740   6.790 -0.6129  0.1829 -0.7564
   43G       H1  968   5.537   4.824   6.826  0.5020 -1.2001  1.3699
   43G       C2  969   5.474   4.647   6.893  0.2075 -0.5240  0.6274
   43G       N2  970   5.520   4.675   7.010  0.8392 -0.0014  0.0859
   43G      H21  971   5.577   4.757   7.027  1.6846 -0.1947 -1.5843
   43G      H22  972   5.501   4.608   7.083  0.3054  1.1984  1.0868
   43G       N3  973   5.386   4.543   6.885  0.5601 -0.0212 -0.3272
   43G       C4  974   5.341   4.523   6.760  0.2278 -0.3461 -0.1500
   43G      C3'  975   4.974   4.309   6.835 -0.6254 -0.4160  0.0699
   43G      H3'  976   4.941   4.378   6.758 -2.1990 -0.3423  0.7795
   43G      C2'  977   5.108   4.359   6.901  0.7768 -0.2745  0.0363
   43G     H2'1  978   5.110   4.466   6.918  1.1895 -0.0999 -1.0494
   43G      O2'  979   5.145   4.297   7.021 -0.1445  0.2777 -0.5151
   43G     HO'2  980   5.065   4.260   7.059 -1.6062  2.2742 -1.4281
   43G      O3'  981   4.870   4.291   6.930 -0.5284  0.0133 -0.3996
   44G        P  982   4.773   4.402   6.970  0.0741 -0.0594 -0.1233
   44G      O1P  983   4.686   4.339   7.072 -0.7966  0.2680 -1.0294
   44G      O2P  984   4.708   4.457   6.848 -0.3072  0.3179 -0.3230
   44G      O5'  985   4.857   4.521   7.030 -0.1002  0.2361 -0.7101
   44G      C5'  986   4.897   4.516   7.169 -0.1784  0.4957  0.6217
   44G     H5'1  987   4.943   4.422   7.199 -0.0962  0.6626  1.0266
   44G     H5'2  988   4.805   4.531   7.225 -1.1293 -0.3303 -0.6594
   44G      C4'  989   4.995   4.619   7.209  0.7691 -0.6656 -0.5233
   44G      H4'  990   5.034   4.597   7.308 -0.4564 -3.2611 -0.5452
   44G      O4'  991   5.106   4.624   7.119  0.4816 -0.0993  0.1007
   44G      C1'  992   5.169   4.753   7.124 -0.8163 -0.1512  0.3905
   44G      H1'  993   5.266   4.738   7.171 -0.3539 -1.8548 -0.9895
   44G       N9  994   5.173   4.812   6.986 -0.0288  0.4486  0.3557
   44G       C8  995   5.106   4.771   6.874  0.3632 -0.1767 -0.1747
   44G       H8  996   5.033   4.691   6.874 -1.8786  1.7750 -0.5627
   44G       N7  997   5.131   4.847   6.770  0.2726  0.1488  0.8103
   44G       C5  998   5.232   4.936   6.821 -0.2615  0.3905 -0.4671
   44G       C6  999   5.311   5.037   6.759  0.4287  0.1852  0.6784
   44G       O6 1000   5.314   5.072   6.643  1.2398  0.1502  0.1111
   44G       N1 1001   5.390   5.110   6.842  0.0781  0.0860 -0.7517
   44G       H1 1002   5.421   5.200   6.806 -3.5708  1.6168 -0.5103
   44G       C2 1003   5.405   5.087   6.974 -0.1965  0.2244  0.4273
   44G       N2 1004   5.474   5.176   7.039 -0.0603 -0.5554 -0.3077
   44G      H21 1005   5.522   5.250   6.989 -0.3920  1.0970  1.6808
   44G      H22 1006   5.497   5.150   7.134 -0.7495  0.8642  0.2717
   44G       N3 1007   5.340   4.985   7.033  0.2328 -0.0631 -0.0361
   44G       C4 1008   5.257   4.917   6.953 -0.3098  0.1211 -0.2635
   44G      C3' 1009   4.950   4.761   7.213  0.5323  0.6116  0.4819
   44G      H3' 1010   4.894   4.788   7.123 -0.6276  0.1570  1.0426
   44G      C2' 1011   5.083   4.835   7.215  0.4022  0.1562 -0.0279
   44G     H2'1 1012   5.070   4.937   7.180  0.3987  0.2357  0.2032
   44G      O2' 1013   5.147   4.838   7.341  0.0482  0.3290  0.0188
   44G     HO'2 1014   5.233   4.878   7.329 -0.3491  1.3967  0.6527
   44G      O3' 1015   4.866   4.796   7.323  0.0183  0.0776 -0.4506
   45A        P 1016   4.786   4.931   7.322  0.2927  0.0724 -0.0596
   45A      O1P 1017   4.700   4.924   7.443 -0.0924 -0.1887  0.1947
   45A      O2P 1018   4.717   4.939   7.196 -0.4802  0.6027  0.0505
   45A      O5' 1019   4.882   5.063   7.332  0.0504 -1.0456 -0.4580
   45A      C5' 1020   4.930   5.104   7.452  0.1249  0.7727 -0.3497
   45A     H5'1 1021   4.981   5.021   7.501 -1.9631 -1.8040 -2.2452
   45A     H5'2 1022   4.852   5.141   7.519 -1.0864 -1.2940 -0.5553
   45A      C4' 1023   5.032   5.223   7.443 -0.8196  0.3331  0.3748
   45A      H4' 1024   5.070   5.238   7.544  0.7879 -1.2031  0.0480
   45A      O4' 1025   5.143   5.195   7.363  0.0689 -0.1877 -0.5072
   45A      C1' 1026   5.181   5.313   7.288  0.2932  0.8537  0.3966
   45A      H1' 1027   5.284   5.337   7.313  0.3696  1.4256 -0.4155
   45A       N9 1028   5.141   5.293   7.143 -0.7612 -0.5519 -0.3778
   45A       C8 1029   5.071   5.191   7.082 -0.1668 -0.4521  0.3918
   45A       H8 1030   5.011   5.122   7.140 -1.4608  0.1952 -0.1459
   45A       N7 1031   5.072   5.196   6.952 -0.6802  0.5835  0.3356
   45A       C5 1032   5.152   5.309   6.925  0.1132 -0.1802 -0.0840
   45A       C6 1033   5.195   5.384   6.816  0.0491 -0.0799 -0.1018
   45A       N6 1034   5.179   5.344   6.695 -0.9051 -0.2860  0.2972
   45A      H61 1035   5.135   5.258   6.667 -0.5539 -0.0658 -1.0198
   45A      H62 1036   5.218   5.405   6.625 -0.5114  1.0718  1.6428
   45A       N1 1037   5.268   5.498   6.822 -0.1829  0.3936 -0.1021
   45A       C2 1038   5.294   5.549   6.944 -1.1275  0.7139 -0.1193
   45A       H2 1039   5.338   5.647   6.950  0.3200 -0.0210  2.2723
   45A       N3 1040   5.261   5.492   7.054  0.0508  0.3509  0.2352
   45A       C4 1041   5.187   5.375   7.041  0.2628  0.2736 -0.6205
   45A      C3' 1042   4.967   5.345   7.392  0.2898  0.1976  0.3699
   45A      H3' 1043   4.914   5.315   7.302  1.7301 -0.8002 -0.1933
   45A      C2' 1044   5.093   5.422   7.348  0.1612 -0.2862 -0.3377
   45A     H2'1 1045   5.061   5.499   7.278 -0.4618 -0.3137 -0.0884
   45A      O2' 1046   5.169   5.473   7.456  0.2575 -0.5853  0.6493
   45A     HO'2 1047   5.112   5.539   7.497 -0.4934 -0.3742 -0.6886
   45A      O3' 1048   4.884   5.404   7.490 -0.2421 -0.5465 -0.1730
   46G        P 1049   4.749   5.477   7.435 -0.1425  0.1745 -0.6670
   46G      O1P 1050   4.691   5.546   7.552 -0.2720 -0.1661 -0.7490
   46G      O2P 1051   4.678   5.376   7.362  0.0006  0.3134  0.0975
   46G      O5' 1052   4.806   5.587   7.336  0.1629 -0.2745  0.0461
   46G      C5' 1053   4.876   5.700   7.374 -0.2318 -0.1093  0.2142
   46G     H5'1 1054   4.964   5.678   7.435 -0.6115 -2.3840  0.0384
   46G     H5'2 1055   4.814   5.756   7.444  1.0888  1.7138 -0.0045
   46G      C4' 1056   4.904   5.795   7.262 -0.2519  0.3072 -0.1873
   46G      H4' 1057   4.955   5.884   7.298  1.2297 -1.2665  1.8344
   46G      O4' 1058   4.993   5.720   7.175  0.3803  0.4002 -0.2492
   46G      C1' 1059   4.967   5.747   7.040  0.5703 -0.5020  0.2124
   46G      H1' 1060   5.057   5.788   6.994 -1.1826  1.5241 -1.6163
   46G       N9 1061   4.922   5.631   6.960  0.0789  0.1352  0.1193
   46G       C8 1062   4.859   5.514   6.997 -1.1321 -0.6705  0.4494
   46G       H8 1063   4.841   5.482   7.098  1.5846  0.2507  1.3143
   46G       N7 1064   4.836   5.437   6.894 -0.4513 -0.2631  0.0089
   46G       C5 1065   4.874   5.514   6.787 -0.3334 -0.0362 -0.3480
   46G       C6 1066   4.867   5.488   6.643  0.1924 -0.1630  0.6054
   46G       O6 1067   4.826   5.388   6.582  0.2282  0.9453 -0.0714
   46G       N1 1068   4.923   5.582   6.560  0.2055 -0.2912 -0.4066
   46G       H1 1069   4.932   5.563   6.461 -2.1052  1.0013 -0.9323
   46G       C2 1070   4.988   5.687   6.612  0.4470 -0.3873 -0.1439
   46G       N2 1071   5.050   5.755   6.518 -0.2384  0.2205 -0.0749
   46G      H21 1072   5.039   5.721   6.423 -2.9719 -0.8481  0.5259
   46G      H22 1073   5.107   5.835   6.543 -0.2486  0.8346 -1.8696
   46G       N3 1074   4.998   5.723   6.744  0.0846  0.2930  0.4332
   46G       C4 1075   4.940   5.627   6.823  0.3158 -0.8155 -0.1339
   46G      C3' 1076   4.789   5.839   7.178  0.4032 -0.0885 -0.8752
   46G      H3' 1077   4.720   5.756   7.163  1.8347 -1.3139 -0.8972
   46G      C2' 1078   4.863   5.851   7.041  0.6286 -0.3086 -0.5030
   46G     H2'1 1079   4.799   5.833   6.955  2.5503  1.0953 -2.3592
   46G      O2' 1080   4.922   5.986   7.024  0.1394  0.0991  0.0685
   46G     HO'2 1081   4.875   6.048   7.080 -1.3913 -0.0750 -0.9878
   46G      O3' 1082   4.732   5.971   7.200 -0.3669  0.1899 -0.2232
   47U        P 1083   4.637   6.015   7.321  0.1137 -0.0126 -0.1274
   47U      O1P 1084   4.690   6.144   7.375  0.0242  0.9043 -0.4226
   47U      O2P 1085   4.621   5.897   7.411  0.0796 -0.7162 -0.2863
   47U      O5' 1086   4.489   6.038   7.250 -0.5408 -0.2052  0.0324
   47U      C5' 1087   4.468   6.161   7.183 -0.4554  0.8003 -0.2124
   47U     H5'1 1088   4.556   6.190   7.125  0.8902  1.2043  1.9142
   47U     H5'2 1089   4.459   6.239   7.258  0.4283  0.2936  0.4416
   47U      C4' 1090   4.341   6.148   7.102  0.0705 -0.4685 -0.1948
   47U      H4' 1091   4.311   6.252   7.092  0.2363 -0.2545  1.2701
   47U      O4' 1092   4.374   6.106   6.978  0.1908 -0.2015  0.3763
   47U      C1' 1093   4.289   5.993   6.951  0.0926 -0.3163  0.2946
   47U      H1' 1094   4.213   6.028   6.882 -0.1107 -2.1803 -0.5023
   47U       N1 1095   4.370   5.894   6.881 -0.0296 -0.4634  0.1063
   47U       C6 1096   4.469   5.833   6.949 -0.5371 -0.0231 -0.1421
   47U       H6 1097   4.485   5.864   7.051  0.9814 -1.1535 -0.0001
   47U       C5 1098   4.532   5.721   6.898  0.7873 -0.0632  0.0460
   47U       H5 1099   4.592   5.654   6.957  1.3368 -2.0476 -2.6064
   47U       C4 1100   4.483   5.666   6.771  0.1725  0.3158 -0.4429
   47U       O4 1101   4.519   5.562   6.716  0.3715  0.2144  0.4972
   47U       N3 1102   4.394   5.747   6.704 -0.3557  0.2523  0.5733
   47U       H3 1103   4.357   5.703   6.621  2.0318 -0.8351  0.0103
   47U       C2 1104   4.326   5.858   6.755  0.1442  1.0796 -0.4009
   47U       O2 1105   4.237   5.916   6.690 -0.5095 -0.6822 -0.1012
   47U      C3' 1106   4.219   6.076   7.166  0.5607  0.5388 -0.0787
   47U      H3' 1107   4.231   6.046   7.270  2.0627 -0.8801 -0.6087
   47U      C2' 1108   4.213   5.946   7.083 -0.3963 -0.3120  0.1524
   47U     H2'1 1109   4.270   5.867   7.132 -0.1491 -0.0966  0.2173
   47U      O2' 1110   4.082   5.901   7.044  0.5848  0.0333  0.4045
   47U     HO'2 1111   4.034   5.899   7.127  1.1125 -0.0479  0.7067
   47U      O3' 1112   4.099   6.157   7.136  0.0397 -0.3707 -0.8909
   48U        P 1113   4.063   6.287   7.216 -0.1262  0.4724  0.2820
   48U      O1P 1114   4.023   6.392   7.119 -0.5105  0.0876  0.1268
   48U      O2P 1115   4.170   6.315   7.304  0.0002 -0.6264 -0.0951
   48U      O5' 1116   3.934   6.232   7.298 -0.2547 -0.3753  0.2260
   48U      C5' 1117   3.934   6.139   7.405  0.8375  0.5693 -0.0538
   48U     H5'1 1118   3.970   6.181   7.499 -0.4427 -1.5819  1.4975
   48U     H5'2 1119   3.980   6.043   7.380 -2.6253 -1.5936  1.0442
   48U      C4' 1120   3.787   6.104   7.423  0.5854  0.5168 -0.1931
   48U      H4' 1121   3.779   6.025   7.498  0.2776 -0.7939 -1.5559
   48U      O4' 1122   3.713   6.218   7.471 -0.7030  0.2045  1.2495
   48U      C1' 1123   3.589   6.228   7.408 -0.2266 -0.2010 -0.4525
   48U      H1' 1124   3.516   6.159   7.451 -2.1188  2.1921  0.4362
   48U       N1 1125   3.536   6.368   7.402 -0.3066 -0.1367 -0.0298
   48U       C6 1126   3.605   6.476   7.348  0.0593  0.0122 -0.0738
   48U       H6 1127   3.701   6.460   7.302  1.0207 -0.1487  1.8693
   48U       C5 1128   3.560   6.603   7.376 -0.2433 -0.1452  0.2876
   48U       H5 1129   3.604   6.693   7.336  0.2422 -0.0502  1.0385
   48U       C4 1130   3.441   6.635   7.445 -0.0780  0.2369 -0.2130
   48U       O4 1131   3.382   6.745   7.457  0.1786  0.2318 -0.1033
   48U       N3 1132   3.370   6.521   7.479 -0.1079  0.1392 -0.0703
   48U       H3 1133   3.272   6.530   7.501  0.1522 -0.3786  1.3796
   48U       C2 1134   3.417   6.393   7.471  0.2511 -0.4828  0.2120
   48U       O2 1135   3.349   6.302   7.524  0.4061 -0.2909  0.1699
   48U      C3' 1136   3.717   6.064   7.295 -0.5921  0.0363  0.5668
   48U      H3' 1137   3.789   6.071   7.212  0.5358 -0.6162  1.4608
   48U      C2' 1138   3.616   6.173   7.267  0.2162 -0.9473  0.2155
   48U     H2'1 1139   3.660   6.247   7.201 -1.9097  0.7988  0.6316
   48U      O2' 1140   3.495   6.134   7.210  0.0366 -0.6413 -0.3105
   48U     HO'2 1141   3.459   6.056   7.252  1.4236 -1.5078 -0.6647
   48U      O3' 1142   3.665   5.933   7.296 -0.2307 -0.1450 -0.9566
   49U        P 1143   3.755   5.807   7.244  0.0540 -0.0241 -0.0768
   49U      O1P 1144   3.693   5.683   7.284  0.2394  0.2095  0.5301
   49U      O2P 1145   3.895   5.831   7.278  0.0222 -0.9015 -0.7093
   49U      O5' 1146   3.733   5.817   7.087 -0.5662 -0.4575 -0.3896
   49U      C5' 1147   3.602   5.794   7.038 -0.4565 -0.1130 -0.8405
   49U     H5'1 1148   3.540   5.878   7.071 -2.5226 -1.2875 -1.5793
   49U     H5'2 1149   3.552   5.711   7.088  1.3686  1.2875  3.8976
   49U      C4' 1150   3.602   5.780   6.887  0.0498 -0.4004  0.4136
   49U      H4' 1151   3.506   5.737   6.857  0.6136  0.1384 -2.5313
   49U      O4' 1152   3.636   5.899   6.814 -0.1881 -0.2688 -0.1758
   49U      C1' 1153   3.748   5.880   6.732 -0.4098 -0.6811  0.0889
   49U      H1' 1154   3.722   5.846   6.632  1.3392 -0.7099 -0.3825
   49U       N1 1155   3.819   6.018   6.718  0.8241 -0.0742  0.5877
   49U       C6 1156   3.887   6.066   6.824  0.5207 -0.8587  0.2924
   49U       H6 1157   3.874   6.010   6.915 -0.1372 -1.8828 -0.3992
   49U       C5 1158   3.968   6.175   6.807  0.9951 -0.4723  0.2768
   49U       H5 1159   4.036   6.197   6.888  2.1250 -1.4523 -0.3715
   49U       C4 1160   3.981   6.246   6.684 -0.5371  1.0992  0.4671
   49U       O4 1161   4.050   6.345   6.663  0.6998  0.0957  1.2530
   49U       N3 1162   3.901   6.192   6.579 -0.0393  0.5957 -0.3879
   49U       H3 1163   3.915   6.239   6.491 -0.0684 -1.5554 -1.6050
   49U       C2 1164   3.812   6.084   6.596  0.0345 -0.0949 -0.2895
   49U       O2 1165   3.730   6.051   6.507 -0.1797  0.1708  0.7451
   49U      C3' 1166   3.702   5.681   6.846 -0.5904 -0.1375  1.1088
   49U      H3' 1167   3.737   5.618   6.928 -0.1338  2.5780  3.1131
   49U      C2' 1168   3.823   5.770   6.806  0.8284  0.0730  0.0621
   49U     H2'1 1169   3.868   5.793   6.902  0.8567 -2.2039  0.6475
   49U      O2' 1170   3.921   5.707   6.729  0.8915  0.3278 -0.4137
   49U     HO'2 1171   3.874   5.637   6.681 -1.0044  1.4491 -0.2973
   49U      O3' 1172   3.643   5.606   6.742 -0.2313  0.0311 -0.0713
   50C        P 1173   3.699   5.484   6.671 -0.4146  0.1406  0.1053
   50C      O1P 1174   3.598   5.382   6.678 -0.0579  0.0323 -0.0734
   50C      O2P 1175   3.831   5.436   6.717  0.7613  0.3770  0.1521
   50C      O5' 1176   3.705   5.541   6.528  0.1261 -0.4046 -0.3544
   50C      C5' 1177   3.586   5.539   6.444 -0.2156 -0.5077  0.2698
   50C     H5'1 1178   3.502   5.575   6.504  0.3441  1.9366 -0.3294
   50C     H5'2 1179   3.567   5.436   6.415 -2.3331  0.1695 -0.9367
   50C      C4' 1180   3.597   5.630   6.324 -0.0271 -0.0869  0.4457
   50C      H4' 1181   3.508   5.623   6.261  1.1244 -0.6341 -1.2134
   50C      O4' 1182   3.626   5.765   6.352 -0.0028  0.0187 -0.0457
   50C      C1' 1183   3.702   5.812   6.243  0.2977  0.2615  0.2640
   50C      H1' 1184   3.650   5.896   6.198 -0.6808  0.6073  1.9721
   50C       N1 1185   3.833   5.861   6.284  0.1946  0.2203 -0.8367
   50C       C6 1186   3.890   5.812   6.402 -0.1077  0.3378 -0.5510
   50C       H6 1187   3.836   5.734   6.453 -0.1120 -1.1280 -2.6839
   50C       C5 1188   4.003   5.863   6.454 -0.1780 -0.2632 -0.1550
   50C       H5 1189   4.041   5.816   6.544 -1.7825  1.0324  1.2759
   50C       C4 1190   4.059   5.974   6.384  0.0349  0.2899 -0.3315
   50C       N4 1191   4.165   6.028   6.441  0.2203 -0.9963  0.3687
   50C      H41 1192   4.197   5.997   6.532 -3.7379 -1.1727  1.8717
   50C      H42 1193   4.213   6.094   6.381  0.0065 -0.0829  1.1780
   50C       N3 1194   4.009   6.020   6.272  0.0342  0.3959 -0.6339
   50C       C2 1195   3.905   5.962   6.215  1.0399  0.7843  0.5816
   50C       O2 1196   3.867   6.010   6.109 -0.4200  0.2087  0.3775
   50C      C3' 1197   3.706   5.573   6.228  0.2195 -0.2658  0.3290
   50C      H3' 1198   3.796   5.550   6.286  1.4461  0.3380 -1.2682
   50C      C2' 1199   3.722   5.700   6.143  0.1100 -0.4743 -0.7194
   50C     H2'1 1200   3.822   5.701   6.100  0.4024 -1.1028 -0.0677
   50C      O2' 1201   3.621   5.700   6.043  0.2411 -0.2247  0.6786
   50C     HO'2 1202   3.618   5.608   6.015  0.0224  0.2675 -1.0603
   50C      O3' 1203   3.665   5.462   6.148 -0.0397 -0.0276  0.1621
   51U        P 1204   3.751   5.347   6.084 -0.3272  0.1239  0.1971
   51U      O1P 1205   3.652   5.286   5.986 -0.2957 -0.3746  0.1251
   51U      O2P 1206   3.804   5.265   6.190 -0.1388  0.2029 -0.5634
   51U      O5' 1207   3.869   5.427   6.010  0.0341  0.0019  0.1212
   51U      C5' 1208   3.861   5.474   5.872  0.2709 -0.6508 -0.5664
   51U     H5'1 1209   3.760   5.512   5.857  0.6484  0.0527 -1.4406
   51U     H5'2 1210   3.874   5.392   5.801 -0.6873 -1.2266 -0.0924
   51U      C4' 1211   3.969   5.574   5.844 -0.0188 -0.4414 -0.0044
   51U      H4' 1212   3.960   5.616   5.744  0.3791  0.0311  0.1536
   51U      O4' 1213   3.974   5.684   5.932  0.3213 -0.1200  0.2624
   51U      C1' 1214   4.111   5.716   5.947  0.3819 -0.3258  0.4431
   51U      H1' 1215   4.121   5.817   5.905  0.1177 -0.6394 -0.3948
   51U       N1 1216   4.152   5.716   6.096  0.8977 -0.0097  0.1321
   51U       C6 1217   4.106   5.618   6.179  0.4101 -0.9957  0.4408
   51U       H6 1218   4.027   5.555   6.141  0.1290 -0.2582 -0.2365
   51U       C5 1219   4.152   5.601   6.299 -0.4564  0.4465 -0.3344
   51U       H5 1220   4.115   5.522   6.363 -0.3859  0.6898  0.0129
   51U       C4 1221   4.262   5.688   6.349  0.0188  0.3539  0.3984
   51U       O4 1222   4.321   5.665   6.454  0.1410 -0.4589 -0.4057
   51U       N3 1223   4.294   5.796   6.269  0.0110 -0.0163  0.8278
   51U       H3 1224   4.373   5.855   6.293 -0.3296  0.5234  0.6454
   51U       C2 1225   4.239   5.814   6.140  0.1400  0.1254  1.0131
   51U       O2 1226   4.268   5.910   6.072 -0.8343 -0.1956  0.1565
   51U      C3' 1227   4.108   5.509   5.842  0.4370  0.0032  0.2902
   51U      H3' 1228   4.111   5.442   5.928 -1.0592 -0.4241  0.0363
   51U      C2' 1229   4.193   5.632   5.858  0.1319 -0.5069  0.0757
   51U     H2'1 1230   4.284   5.609   5.914  0.3263  0.1987  0.0565
   51U      O2' 1231   4.224   5.697   5.739  0.2426 -0.1559  0.1010
   51U     HO'2 1232   4.319   5.685   5.738  0.2083 -0.4398  0.0868
   51U      O3' 1233   4.127   5.435   5.719 -0.4732 -0.4200 -0.0035
   52A        P 1234   4.247   5.336   5.703 -0.2005  0.1728  0.3162
   52A      O1P 1235   4.247   5.296   5.562 -0.9572  0.6950 -0.2497
   52A      O2P 1236   4.232   5.230   5.802 -0.0545  0.7455  0.3356
   52A      O5' 1237   4.384   5.426   5.724  1.3236 -0.2699  0.5325
   52A      C5' 1238   4.426   5.499   5.603  0.0539  0.1970 -0.3575
   52A     H5'1 1239   4.335   5.543   5.563 -0.7935 -0.3607  0.8914
   52A     H5'2 1240   4.460   5.426   5.529  0.6260  0.1163 -0.0174
   52A      C4' 1241   4.528   5.610   5.627 -0.2685  0.0608  0.2939
   52A      H4' 1242   4.536   5.675   5.539 -0.3917  2.6455  2.0747
   52A      O4' 1243   4.482   5.698   5.735  0.2248  0.3135  0.5445
   52A      C1' 1244   4.599   5.731   5.812 -0.5089 -0.0331  0.1273
   52A      H1' 1245   4.616   5.839   5.815  0.0851 -0.1183  3.1729
   52A       N9 1246   4.597   5.678   5.949  0.0009  0.0310 -0.1111
   52A       C8 1247   4.543   5.563   6.000  0.0139 -0.4150  0.9658
   52A       H8 1248   4.490   5.497   5.934 -0.3270 -0.1948  1.0187
   52A       N7 1249   4.556   5.550   6.128 -0.1034  0.4945 -0.4329
   52A       C5 1250   4.618   5.668   6.161 -0.1651 -0.1226 -1.2814
   52A       C6 1251   4.665   5.715   6.292 -0.5532 -0.0668 -0.0158
   52A       N6 1252   4.634   5.666   6.410  0.0573  0.1011 -0.3438
   52A      H61 1253   4.566   5.591   6.413  0.3384 -0.2648 -2.3686
   52A      H62 1254   4.653   5.721   6.493  0.0155  0.5920 -0.6576
   52A       N1 1255   4.733   5.830   6.296  0.2672 -0.9545  0.3505
   52A       C2 1256   4.767   5.884   6.179  0.4622 -0.0236  0.2911
   52A       H2 1257   4.820   5.978   6.185 -0.3693  0.4319  0.7464
   52A       N3 1258   4.745   5.849   6.054 -0.6488 -0.6549 -0.6858
   52A       C4 1259   4.655   5.745   6.054 -0.1695 -0.3243  0.4815
   52A      C3' 1260   4.661   5.553   5.677  0.7147 -0.2322 -0.2772
   52A      H3' 1261   4.650   5.466   5.742 -2.7659 -0.3802 -0.8770
   52A      C2' 1262   4.723   5.676   5.748  0.0488  0.5172  0.0373
   52A     H2'1 1263   4.801   5.642   5.816 -0.9605 -2.2399 -0.0430
   52A      O2' 1264   4.776   5.769   5.654  0.2717 -0.1018 -0.2729
   52A     HO'2 1265   4.781   5.730   5.567 -2.7747 -2.7277  0.5481
   52A      O3' 1266   4.729   5.516   5.562 -0.4234  0.1212  0.6416
   53C        P 1267   4.867   5.434   5.553  0.1438  0.3497  0.0667
   53C      O1P 1268   4.915   5.459   5.415 -0.2844 -0.8675 -0.0532
   53C      O2P 1269   4.855   5.291   5.588 -0.3716  0.2765  0.2897
   53C      O5' 1270   4.965   5.496   5.660 -0.2884  0.4800  0.1371
   53C      C5' 1271   5.047   5.601   5.623 -0.3063  0.4784  0.0041
   53C     H5'1 1272   4.985   5.684   5.590  0.3423  1.1398  0.4310
   53C     H5'2 1273   5.118   5.583   5.541 -0.7138 -0.3501 -0.1741
   53C      C4' 1274   5.132   5.662   5.734 -0.3358 -0.4830 -0.1553
   53C      H4' 1275   5.194   5.744   5.699  1.4507 -1.5467  0.3322
   53C      O4' 1276   5.048   5.705   5.839 -0.0530 -0.0491  0.0643
   53C      C1' 1277   5.107   5.671   5.965  0.0818  0.2595  0.6658
   53C      H1' 1278   5.116   5.765   6.020 -0.6521 -0.0521  1.3435
   53C       N1 1279   5.010   5.582   6.047 -0.2715 -0.0648 -0.3016
   53C       C6 1280   4.939   5.474   5.999 -0.3467 -0.7098 -0.1234
   53C       H6 1281   4.947   5.463   5.892 -0.1095  0.7260 -0.2778
   53C       C5 1282   4.862   5.401   6.077 -0.1006  0.0494  0.0573
   53C       H5 1283   4.812   5.319   6.028 -0.2728  0.7519 -0.9548
   53C       C4 1284   4.860   5.434   6.213 -0.5847  0.5292 -0.4230
   53C       N4 1285   4.806   5.351   6.299  0.3729 -0.2967  0.0790
   53C      H41 1286   4.758   5.265   6.276 -0.3700 -0.5593  2.3722
   53C      H42 1287   4.810   5.391   6.392  0.4252 -0.4781  0.1556
   53C       N3 1288   4.921   5.537   6.268 -0.3906  0.2809 -0.5614
   53C       C2 1289   4.999   5.608   6.179 -0.5643  0.0541 -0.4479
   53C       O2 1290   5.069   5.702   6.226  0.5223 -0.3341 -0.2869
   53C      C3' 1291   5.240   5.570   5.791 -0.0887 -0.3903 -0.3155
   53C      H3' 1292   5.199   5.470   5.786 -1.2897  0.0584  0.1668
   53C      C2' 1293   5.249   5.613   5.938  0.2384  0.0865 -0.3456
   53C     H2'1 1294   5.272   5.522   5.993 -3.2802 -0.3615  0.6337
   53C      O2' 1295   5.338   5.718   5.965 -0.0337  0.4551 -0.2808
   53C     HO'2 1296   5.429   5.691   5.949 -0.0645  1.2485 -2.0664
   53C      O3' 1297   5.364   5.576   5.719 -0.3733  0.2476 -0.1365
   54C        P 1298   5.465   5.460   5.680  0.4082 -0.2253 -0.0394
   54C      O1P 1299   5.412   5.338   5.747 -0.5513  0.1459 -0.0850
   54C      O2P 1300   5.600   5.522   5.714 -0.2995 -0.5605  0.3632
   54C      O5' 1301   5.457   5.452   5.525  0.3280  0.7786 -0.0594
   54C      C5' 1302   5.335   5.430   5.467  0.1171  0.5232 -0.2058
   54C     H5'1 1303   5.258   5.422   5.543  3.1995 -1.5345  3.0074
   54C     H5'2 1304   5.337   5.341   5.403 -1.7236  0.8167 -0.7169
   54C      C4' 1305   5.297   5.532   5.360 -0.4300  0.3208  0.6918
   54C      H4' 1306   5.206   5.497   5.311 -1.1113  2.3959  0.3684
   54C      O4' 1307   5.259   5.670   5.397 -0.3604 -0.0929  0.1239
   54C      C1' 1308   5.315   5.763   5.301 -0.0332  0.2011 -0.4603
   54C      H1' 1309   5.241   5.834   5.264  0.7777 -0.4699 -3.6923
   54C       N1 1310   5.441   5.839   5.342  0.1514  0.4970  0.4301
   54C       C6 1311   5.511   5.800   5.449 -0.0623 -0.0862  0.5890
   54C       H6 1312   5.482   5.713   5.506  0.6790 -0.4371  0.4430
   54C       C5 1313   5.620   5.872   5.485  0.3464 -0.1129  0.0679
   54C       H5 1314   5.665   5.851   5.581 -1.7939  1.2447  1.4554
   54C       C4 1315   5.655   5.987   5.413 -0.5432 -0.1553  0.2717
   54C       N4 1316   5.752   6.062   5.451  0.0386 -0.5686 -0.2583
   54C      H41 1317   5.795   6.060   5.543  1.8376  1.1718 -0.9870
   54C      H42 1318   5.773   6.143   5.394  1.5948 -1.4456 -1.0238
   54C       N3 1319   5.589   6.028   5.304 -0.5398 -0.1705  0.7282
   54C       C2 1320   5.485   5.952   5.266  0.6881  0.9761 -0.2834
   54C       O2 1321   5.415   5.989   5.168 -0.0358 -0.1924  0.3338
   54C      C3' 1322   5.400   5.549   5.248  0.2548  0.1893 -0.1452
   54C      H3' 1323   5.497   5.564   5.294  0.0333  0.7378  0.1454
   54C      C2' 1324   5.352   5.675   5.178  0.3538  0.4307  0.5976
   54C     H2'1 1325   5.435   5.724   5.127  2.0324 -2.2029  0.6241
   54C      O2' 1326   5.236   5.657   5.097  0.0410 -0.1208 -0.0052
   54C     HO'2 1327   5.271   5.590   5.038  0.2225  0.6727 -0.8161
   54C      O3' 1328   5.401   5.440   5.150 -0.2622  0.1952  0.2446
   55A        P 1329   5.523   5.407   5.052 -0.5367 -0.1086  0.4120
   55A      O1P 1330   5.491   5.284   4.976 -0.1921  0.2661 -0.4202
   55A      O2P 1331   5.652   5.419   5.130 -0.2294  0.5745  0.6546
   55A      O5' 1332   5.513   5.537   4.952 -0.5862 -0.1593  0.0613
   55A      C5' 1333   5.421   5.546   4.845  0.3990 -0.1701  0.2246
   55A     H5'1 1334   5.322   5.532   4.887  0.5981 -0.1148  0.7288
   55A     H5'2 1335   5.438   5.462   4.778 -0.4292 -1.0045  1.0276
   55A      C4' 1336   5.436   5.691   4.780 -0.3921 -0.7571  0.3200
   55A      H4' 1337   5.348   5.711   4.720 -1.7921 -2.3148  1.7434
   55A      O4' 1338   5.429   5.787   4.884 -0.4282  0.0095  0.0536
   55A      C1' 1339   5.517   5.893   4.847  0.6031  0.0042 -0.1733
   55A      H1' 1340   5.470   5.991   4.853 -0.9428 -0.7771  4.4941
   55A       N9 1341   5.637   5.899   4.936 -0.2028 -0.7130  0.5088
   55A       C8 1342   5.673   5.817   5.035 -0.8322 -0.5089  1.1965
   55A       H8 1343   5.630   5.720   5.055 -0.6727 -0.6146  1.0405
   55A       N7 1344   5.779   5.850   5.104 -0.1874  0.3625  0.1508
   55A       C5 1345   5.815   5.972   5.043 -0.1789 -0.1273  0.5136
   55A       C6 1346   5.905   6.069   5.078 -0.2377  0.2684  0.3172
   55A       N6 1347   5.989   6.049   5.178  0.1062 -0.0843  0.3871
   55A      H61 1348   5.991   5.955   5.214  0.6781 -0.3176 -0.2287
   55A      H62 1349   6.057   6.118   5.208 -0.0803  0.5126 -0.5024
   55A       N1 1350   5.909   6.183   5.012  0.3898 -0.8657  0.0839
   55A       C2 1351   5.819   6.198   4.914 -0.1418  0.1302  0.7171
   55A       H2 1352   5.826   6.292   4.861  1.6851 -0.6092 -0.4731
   55A       N3 1353   5.723   6.122   4.875  0.8787 -0.0575 -0.2704
   55A       C4 1354   5.728   6.006   4.948  0.3699 -0.4192  0.0011
   55A      C3' 1355   5.561   5.718   4.693 -0.2511 -0.0995  0.5817
   55A      H3' 1356   5.652   5.679   4.739  0.5636 -1.9112 -2.3230
   55A      C2' 1357   5.556   5.872   4.697  0.3350  0.2591  0.1299
   55A     H2'1 1358   5.654   5.915   4.675 -0.2864  1.7204  0.1140
   55A      O2' 1359   5.452   5.925   4.619 -0.0457  0.2680  0.3020
   55A     HO'2 1360   5.483   5.923   4.528 -1.6372 -0.7467 -0.2646
   55A      O3' 1361   5.544   5.678   4.556 -0.1238 -0.0614  0.1518
   56A        P 1362   5.657   5.622   4.464  0.0254 -0.1196 -0.2962
   56A      O1P 1363   5.583   5.574   4.342  0.2315  0.4491 -0.2500
   56A      O2P 1364   5.731   5.527   4.552  0.2196 -0.2793  0.0219
   56A      O5' 1365   5.747   5.750   4.425 -0.0811  0.0776  0.0518
   56A      C5' 1366   5.699   5.851   4.335  0.4804  1.0189  0.7167
   56A     H5'1 1367   5.594   5.873   4.354  0.1025 -0.6109  0.6477
   56A     H5'2 1368   5.702   5.812   4.233  1.0062 -0.4115  1.2410
   56A      C4' 1369   5.783   5.980   4.330 -0.4931  0.0734  0.1351
   56A      H4' 1370   5.754   6.048   4.251  1.7394 -1.7166 -2.3977
   56A      O4' 1371   5.780   6.035   4.465  0.2523 -0.8379  0.2714
   56A      C1' 1372   5.901   6.103   4.493 -0.3319  0.2766  0.1874
   56A      H1' 1373   5.893   6.211   4.508  2.1700  0.6094 -0.3760
   56A       N9 1374   5.978   6.038   4.602  0.3131 -0.0855 -0.3663
   56A       C8 1375   5.973   5.905   4.657  0.7522  0.2505  0.1789
   56A       H8 1376   5.923   5.824   4.607  0.2694  0.4155  0.3895
   56A       N7 1377   6.039   5.896   4.769  0.0752 -0.3428 -0.0333
   56A       C5 1378   6.087   6.018   4.798 -0.6642 -0.1749 -0.4260
   56A       C6 1379   6.183   6.067   4.887 -0.3103 -0.9931  0.2886
   56A       N6 1380   6.239   5.998   4.982 -0.1536  0.3452 -0.3487
   56A      H61 1381   6.194   5.912   5.010 -0.3766  0.7321  0.5107
   56A      H62 1382   6.295   6.048   5.049  0.0653 -2.0346  1.4047
   56A       N1 1383   6.237   6.187   4.877  0.7028 -0.4173  0.5976
   56A       C2 1384   6.185   6.264   4.777  0.0167  0.0718 -0.4682
   56A       H2 1385   6.227   6.364   4.771 -3.2518  1.6310  0.4398
   56A       N3 1386   6.097   6.232   4.684 -0.6995 -0.1205  0.0669
   56A       C4 1387   6.055   6.107   4.696 -0.0288 -0.1065 -0.4634
   56A      C3' 1388   5.931   5.955   4.304  0.8576 -0.5411 -0.0625
   56A      H3' 1389   5.947   5.865   4.363  0.5216 -0.9417 -0.5608
   56A      C2' 1390   5.982   6.089   4.357 -0.0758  0.2083 -0.2994
   56A     H2'1 1391   6.089   6.077   4.373  0.3044  2.2602 -0.9718
   56A      O2' 1392   5.963   6.201   4.270 -0.1951  0.2297 -0.6459
   56A     HO'2 1393   5.990   6.280   4.318  0.7342  0.3874 -1.3976
   56A      O3' 1394   5.967   5.938   4.169  0.0926  0.4026 -0.2497
   57G        P 1395   6.111   5.879   4.141  0.1567  0.1627 -0.1102
   57G      O1P 1396   6.119   5.843   3.995 -0.4744 -0.4199 -0.4362
   57G      O2P 1397   6.131   5.762   4.231 -0.1304 -0.0895  0.6478
   57G      O5' 1398   6.229   5.982   4.168 -0.2282  0.7979  0.0232
   57G      C5' 1399   6.247   6.100   4.092 -0.4911  0.4702  0.0937
   57G     H5'1 1400   6.148   6.142   4.072 -0.7604  1.1032  2.4156
   57G     H5'2 1401   6.298   6.072   4.000 -1.9289 -0.0006 -0.5910
   57G      C4' 1402   6.334   6.207   4.161  0.3074 -0.1596 -0.0973
   57G      H4' 1403   6.338   6.303   4.109  0.3083  0.7630  1.5530
   57G      O4' 1404   6.295   6.245   4.291 -0.1416  0.2456  0.0736
   57G      C1' 1405   6.408   6.252   4.379 -0.7696  0.5463  0.6848
   57G      H1' 1406   6.415   6.351   4.424 -0.7527 -0.0835  2.1164
   57G       N9 1407   6.413   6.147   4.478 -0.7703  0.3655  0.4681
   57G       C8 1408   6.356   6.027   4.470 -0.0803  0.1427 -0.5434
   57G       H8 1409   6.282   6.008   4.393 -0.5787  0.7988 -0.2470
   57G       N7 1410   6.383   5.954   4.575  0.2756  0.5228  0.1912
   57G       C5 1411   6.469   6.029   4.654  0.1030 -0.0174 -0.2219
   57G       C6 1412   6.533   5.998   4.779  0.3271 -0.1524  0.8826
   57G       O6 1413   6.527   5.898   4.842 -0.4481 -0.2948 -0.1932
   57G       N1 1414   6.612   6.103   4.824 -0.6380  0.0756  0.6789
   57G       H1 1415   6.668   6.090   4.907  0.7766 -2.0151 -0.5001
   57G       C2 1416   6.615   6.229   4.763 -0.3553 -0.0817 -0.0666
   57G       N2 1417   6.696   6.318   4.810 -1.6905  0.3402 -0.7505
   57G      H21 1418   6.764   6.295   4.882 -0.7391  0.3558 -1.6154
   57G      H22 1419   6.700   6.411   4.771  0.7697  0.8743  0.5550
   57G       N3 1420   6.557   6.254   4.647 -0.4864 -0.2253 -0.7200
   57G       C4 1421   6.479   6.154   4.599 -0.2804 -0.0521  0.7405
   57G      C3' 1422   6.481   6.165   4.164  0.4257  0.4304 -0.0074
   57G      H3' 1423   6.482   6.060   4.192 -0.5109  0.4113 -0.0070
   57G      C2' 1424   6.532   6.243   4.276 -0.0458 -0.3968  0.3784
   57G     H2'1 1425   6.614   6.189   4.324  0.5212 -1.2349 -1.4721
   57G      O2' 1426   6.562   6.375   4.236 -0.1256  0.4003 -0.6114
   57G     HO'2 1427   6.620   6.369   4.160  0.4044 -0.4695 -0.1559
   57G      O3' 1428   6.547   6.181   4.043 -0.0319 -0.0733  0.3722
   58A        P 1429   6.662   6.083   4.002  0.3551 -0.6580  0.0164
   58A      O1P 1430   6.714   6.113   3.867 -0.1827 -0.0146  0.4627
   58A      O2P 1431   6.614   5.948   4.023  0.6334 -0.6128 -0.4157
   58A      O5' 1432   6.782   6.102   4.113  0.5937  0.4765 -0.3458
   58A      C5' 1433   6.858   6.225   4.099  0.0682 -0.1427  0.0710
   58A     H5'1 1434   6.789   6.305   4.075  0.8436  0.6594  0.4492
   58A     H5'2 1435   6.933   6.212   4.021 -0.4376 -1.8845 -0.1665
   58A      C4' 1436   6.914   6.278   4.235 -0.1733  0.3282 -0.4802
   58A      H4' 1437   6.942   6.382   4.222  0.5755  0.0323 -1.2908
   58A      O4' 1438   6.826   6.260   4.339 -0.2776 -0.0933  0.3845
   58A      C1' 1439   6.890   6.211   4.454 -0.4987 -0.1500 -0.2245
   58A      H1' 1440   6.865   6.280   4.534 -1.4136  0.1852 -0.7776
   58A       N9 1441   6.847   6.079   4.498  0.1022  0.0572 -0.1285
   58A       C8 1442   6.780   5.982   4.429  0.6972 -0.8563 -0.1017
   58A       H8 1443   6.739   5.989   4.330 -0.9161  0.6663  0.6200
   58A       N7 1444   6.755   5.874   4.501  0.4704 -0.0864 -0.3995
   58A       C5 1445   6.817   5.904   4.619  0.1948  0.7404 -0.7496
   58A       C6 1446   6.833   5.830   4.740 -0.3654  0.1191  0.4949
   58A       N6 1447   6.777   5.713   4.759  0.6163 -0.2370  0.5226
   58A      H61 1448   6.715   5.686   4.683  1.0375  0.9449 -0.2869
   58A      H62 1449   6.804   5.664   4.842  1.2741 -1.1542 -0.2108
   58A       N1 1450   6.908   5.872   4.841  0.5525 -0.1311 -0.4405
   58A       C2 1451   6.958   5.992   4.828  0.5380  0.1990  0.4456
   58A       H2 1452   7.009   6.026   4.917 -2.0493  2.5423  1.1758
   58A       N3 1453   6.942   6.078   4.724 -0.5405  0.4037 -0.0995
   58A       C4 1454   6.872   6.023   4.624  0.3194  0.2333 -0.0128
   58A      C3' 1455   7.040   6.192   4.272  0.7070 -0.4870 -0.2053
   58A      H3' 1456   7.028   6.084   4.261  3.3193 -0.8690 -0.1125
   58A      C2' 1457   7.046   6.213   4.418  0.4979  0.3167 -0.4437
   58A     H2'1 1458   7.099   6.145   4.485  3.1435  4.0277  1.6207
   58A      O2' 1459   7.086   6.345   4.444 -0.4388  0.1028 -0.3131
   58A     HO'2 1460   7.074   6.352   4.539 -1.3032 -0.7948 -0.3467
   58A      O3' 1461   7.160   6.237   4.202  0.6289 -0.1139 -0.5239
   59G        P 1462   7.275   6.136   4.171  0.1065 -0.0846  0.2447
   59G      O1P 1463   7.378   6.216   4.104  0.5824 -0.0038 -0.7601
   59G      O2P 1464   7.221   6.013   4.100  0.3529  0.4831 -0.4423
   59G      O5' 1465   7.327   6.095   4.322  0.0029 -0.0718 -0.6430
   59G      C5' 1466   7.423   6.173   4.391  0.7005  0.2905  0.1172
   59G     H5'1 1467   7.398   6.278   4.400  1.0007  0.6010 -2.1234
   59G     H5'2 1468   7.512   6.174   4.329  0.2678  2.6106 -0.5548
   59G      C4' 1469   7.432   6.112   4.529 -0.6411  0.3824  0.3123
   59G      H4' 1470   7.483   6.188   4.589  1.0881  1.9043 -2.7944
   59G      O4' 1471   7.303   6.086   4.590 -0.3079  0.0016  0.6952
   59G      C1' 1472   7.318   5.963   4.665 -0.2436  0.3052  0.2246
   59G      H1' 1473   7.288   5.959   4.770 -2.0202 -2.1049 -0.2732
   59G       N9 1474   7.242   5.847   4.601  0.1748 -0.0462 -0.0643
   59G       C8 1475   7.169   5.838   4.486 -0.7604 -0.6419 -0.3768
   59G       H8 1476   7.160   5.917   4.414  0.7296  0.9849  1.1253
   59G       N7 1477   7.093   5.732   4.479 -0.1434 -0.0744 -0.2884
   59G       C5 1478   7.118   5.662   4.597 -0.1862 -0.0907  0.3835
   59G       C6 1479   7.056   5.551   4.660 -0.7767  0.4721  0.4251
   59G       O6 1480   6.959   5.483   4.626  0.6360 -0.0981  0.1049
   59G       N1 1481   7.120   5.513   4.780  0.3269  0.4149  0.2372
   59G       H1 1482   7.081   5.428   4.818 -0.0106  0.6860  0.5019
   59G       C2 1483   7.221   5.590   4.840 -0.3973 -0.3255 -0.0211
   59G       N2 1484   7.289   5.535   4.939  0.5175  0.2921  0.7225
   59G      H21 1485   7.256   5.448   4.977 -1.5729  1.1790  1.0576
   59G      H22 1486   7.367   5.583   4.981  0.1969  3.6057 -2.0473
   59G       N3 1487   7.266   5.706   4.795 -0.2084 -0.1272 -0.2743
   59G       C4 1488   7.219   5.732   4.670  0.0678 -0.1660 -0.7587
   59G      C3' 1489   7.506   5.978   4.520  0.2009  0.6021  0.0592
   59G      H3' 1490   7.456   5.913   4.448 -1.5794  1.3241  0.5996
   59G      C2' 1491   7.468   5.931   4.658  0.0960 -0.3060 -0.7758
   59G     H2'1 1492   7.480   5.823   4.667  0.7583 -0.2292 -0.6370
   59G      O2' 1493   7.543   5.997   4.760  0.1081  0.3026 -0.0704
   59G     HO'2 1494   7.496   5.979   4.841 -1.0204 -0.6112 -0.8864
   59G      O3' 1495   7.646   5.982   4.495  0.6801 -0.3467  0.1528
   60C        P 1496   7.720   5.882   4.405 -0.1570  0.0357 -0.3699
   60C      O1P 1497   7.846   5.941   4.358  0.4510 -0.4009  0.2789
   60C      O2P 1498   7.618   5.849   4.304 -0.7663 -0.5853  0.2824
   60C      O5' 1499   7.749   5.749   4.498 -0.6381  0.2114 -0.0343
   60C      C5' 1500   7.819   5.756   4.621  0.8634 -0.6855 -0.7116
   60C     H5'1 1501   7.797   5.850   4.674  0.7347 -0.9806 -0.2305
   60C     H5'2 1502   7.926   5.760   4.604  1.1998 -1.2467  1.0348
   60C      C4' 1503   7.783   5.649   4.717  0.3122 -0.6026 -0.0356
   60C      H4' 1504   7.843   5.653   4.807 -0.8092 -0.4818  0.7342
   60C      O4' 1505   7.645   5.646   4.749  0.5125  0.4396 -0.1879
   60C      C1' 1506   7.595   5.509   4.754 -0.4453 -0.4354  0.3415
   60C      H1' 1507   7.538   5.493   4.846  0.2619  0.0212  0.8738
   60C       N1 1508   7.497   5.475   4.645  0.5652  0.4484  0.1965
   60C       C6 1509   7.483   5.554   4.534  0.8611  0.2527  0.5253
   60C       H6 1510   7.540   5.644   4.516  0.1978  0.6838  0.5449
   60C       C5 1511   7.378   5.526   4.442 -1.1418  0.1694  0.0082
   60C       H5 1512   7.355   5.597   4.363  1.5094 -1.6683 -2.6173
   60C       C4 1513   7.308   5.409   4.467  0.1614  0.4929 -0.2693
   60C       N4 1514   7.206   5.386   4.389  0.4029 -0.2628 -0.1537
   60C      H41 1515   7.193   5.446   4.309  2.6864 -1.4064 -1.4888
   60C      H42 1516   7.153   5.302   4.404 -1.2945  0.8394  0.3347
   60C       N3 1517   7.332   5.324   4.567  0.0567 -0.4018 -0.0865
   60C       C2 1518   7.426   5.357   4.658  0.2217 -0.9141 -0.3097
   60C       O2 1519   7.462   5.274   4.743 -0.1327  0.1499 -0.2058
   60C      C3' 1520   7.817   5.518   4.652  0.4284  0.1884 -0.2756
   60C      H3' 1521   7.788   5.512   4.547  2.3581 -3.0812 -0.7541
   60C      C2' 1522   7.725   5.427   4.736 -0.0608 -1.1698  0.0060
   60C     H2'1 1523   7.705   5.332   4.686 -2.3107 -0.6451 -0.1913
   60C      O2' 1524   7.770   5.404   4.864 -0.4222 -0.1014  0.5426
   60C     HO'2 1525   7.863   5.429   4.868 -0.7020  1.0733  0.2070
   60C      O3' 1526   7.959   5.486   4.681  0.0487 -0.4195  0.0205
   61C        P 1527   8.050   5.426   4.572 -0.3895 -0.0370  0.3291
   61C      O1P 1528   8.183   5.443   4.628 -0.0019 -0.1464  0.3258
   61C      O2P 1529   8.015   5.497   4.450 -0.2637 -0.0232 -0.3072
   61C      O5' 1530   8.014   5.272   4.571  0.1494  0.7753  0.6129
   61C      C5' 1531   8.043   5.188   4.685 -0.2089 -0.0198  0.6098
   61C     H5'1 1532   8.028   5.251   4.772 -0.8206  0.7355 -0.0274
   61C     H5'2 1533   8.147   5.156   4.675 -0.8402 -2.2829  0.6395
   61C      C4' 1534   7.962   5.063   4.695  0.4799 -0.3396  0.2522
   61C      H4' 1535   7.996   5.002   4.779 -0.0725 -0.5592  0.3222
   61C      O4' 1536   7.818   5.090   4.708  0.1131  0.0244  0.1563
   61C      C1' 1537   7.746   4.985   4.651  0.1510 -0.4474  0.2635
   61C      H1' 1538   7.679   4.950   4.729  0.7954  0.0656  1.0628
   61C       N1 1539   7.664   5.038   4.536  0.2860  0.1493 -0.2261
   61C       C6 1540   7.693   5.154   4.471  0.4538 -0.6588  0.1133
   61C       H6 1541   7.777   5.215   4.501 -0.3871  0.1058  0.9580
   61C       C5 1542   7.613   5.191   4.370  0.1854 -0.0156 -0.4300
   61C       H5 1543   7.626   5.286   4.320 -2.6203  2.2284  2.6590
   61C       C4 1544   7.498   5.118   4.338  0.2475 -0.2618  0.9221
   61C       N4 1545   7.413   5.175   4.260 -0.1580  0.1800 -0.4574
   61C      H41 1546   7.441   5.258   4.211  0.4906 -0.9543 -2.0985
   61C      H42 1547   7.324   5.129   4.249 -1.5325  2.6190 -0.1101
   61C       N3 1548   7.463   5.014   4.407  0.0160  0.3085  0.1426
   61C       C2 1549   7.552   4.966   4.496  0.3613  0.4336 -0.5776
   61C       O2 1550   7.520   4.864   4.555  0.2223 -0.8244 -0.1807
   61C      C3' 1551   7.968   4.972   4.569  0.5045  0.0170 -0.2101
   61C      H3' 1552   7.951   5.033   4.480  1.7181  2.7690  1.3073
   61C      C2' 1553   7.839   4.882   4.601 -0.1593  0.2523  0.0312
   61C     H2'1 1554   7.802   4.827   4.514  1.0277  2.4537 -1.9931
   61C      O2' 1555   7.873   4.791   4.711  0.9507  0.7245  0.0476
   61C     HO'2 1556   7.797   4.756   4.760 -0.9790  1.6156 -2.1193
   61C      O3' 1557   8.091   4.903   4.554 -0.1043  0.0625  0.2717
   62U        P 1558   8.154   4.886   4.410 -0.0949  0.3363  0.0994
   62U      O1P 1559   8.285   4.821   4.431  0.5656  0.2649 -0.1053
   62U      O2P 1560   8.155   5.016   4.341 -0.3740 -0.2151  0.3105
   62U      O5' 1561   8.065   4.789   4.326  0.0710  0.3161 -0.1646
   62U      C5' 1562   8.021   4.663   4.384  0.1826 -0.6655 -0.1013
   62U     H5'1 1563   7.934   4.688   4.445 -1.3465 -0.9408 -2.0906
   62U     H5'2 1564   8.099   4.629   4.453  1.1840 -1.9584 -1.8015
   62U      C4' 1565   7.995   4.545   4.291  0.5992 -0.6183 -0.0380
   62U      H4' 1566   7.990   4.461   4.361  0.0972 -1.1358 -0.6789
   62U      O4' 1567   7.883   4.566   4.210 -0.3713  0.2002 -0.1546
   62U      C1' 1568   7.927   4.538   4.079  0.0844  0.2685 -0.0516
   62U      H1' 1569   7.933   4.430   4.063 -2.3987 -0.4537  2.8765
   62U       N1 1570   7.828   4.599   3.986  0.2992 -0.3616  0.1084
   62U       C6 1571   7.857   4.706   3.905  0.0549 -0.1090  0.5140
   62U       H6 1572   7.955   4.752   3.910  0.8672 -1.9169  2.1560
   62U       C5 1573   7.768   4.758   3.818  0.2863  1.1475 -0.2637
   62U       H5 1574   7.787   4.852   3.769  0.6569 -0.0879 -2.6125
   62U       C4 1575   7.643   4.699   3.805  0.5344 -0.1506  0.1183
   62U       O4 1576   7.567   4.735   3.715 -0.2971 -0.2002  0.2283
   62U       N3 1577   7.610   4.599   3.893 -0.2054 -1.1539  0.5219
   62U       H3 1578   7.519   4.556   3.893 -0.5634 -0.4298  1.3796
   62U       C2 1579   7.699   4.537   3.974 -0.5498  0.0993 -0.3864
   62U       O2 1580   7.677   4.434   4.033 -1.3734 -0.2214  0.0531
   62U      C3' 1581   8.118   4.534   4.208  0.3906 -0.1692  1.0691
   62U      H3' 1582   8.202   4.594   4.243 -0.5323  0.9631  1.3908
   62U      C2' 1583   8.066   4.598   4.076  0.1994 -0.0309  0.3081
   62U     H2'1 1584   8.068   4.706   4.094  3.0124  0.0697 -0.1591
   62U      O2' 1585   8.145   4.578   3.960 -0.2732  0.3459  0.3033
   62U     HO'2 1586   8.229   4.623   3.971  0.5486 -0.9728 -0.2648
   62U      O3' 1587   8.160   4.397   4.176 -0.3630 -0.9173 -0.1174
   63U        P 1588   8.215   4.300   4.284  0.2907  0.2791  0.6652
   63U      O1P 1589   8.247   4.382   4.404 -0.0466 -0.0702 -0.0863
   63U      O2P 1590   8.318   4.216   4.214 -0.9809 -0.3161 -0.2393
   63U      O5' 1591   8.093   4.207   4.321 -0.0350  0.3214 -0.3828
   63U      C5' 1592   8.047   4.187   4.456  0.4056 -0.0491 -0.0611
   63U     H5'1 1593   7.994   4.280   4.474  0.5377  0.4181 -1.8767
   63U     H5'2 1594   8.138   4.157   4.509  0.0443  2.4867  2.1888
   63U      C4' 1595   7.944   4.072   4.455 -0.0202 -0.0990  0.4754
   63U      H4' 1596   7.915   4.042   4.556 -1.4526 -0.8552 -0.1444
   63U      O4' 1597   7.831   4.117   4.399 -0.0191 -0.6630  0.3439
   63U      C1' 1598   7.764   4.010   4.325 -0.6685  0.9254 -0.4010
   63U      H1' 1599   7.679   3.976   4.384 -0.0696 -0.5055 -0.3278
   63U       N1 1600   7.722   4.061   4.194 -0.1362 -0.1577  0.5843
   63U       C6 1601   7.817   4.113   4.106  0.4375  0.0043  0.7776
   63U       H6 1602   7.923   4.115   4.124  0.4556  0.1684  0.6534
   63U       C5 1603   7.774   4.156   3.984  0.2671 -0.1234 -0.3088
   63U       H5 1604   7.847   4.188   3.911 -0.5206 -1.4822 -1.7688
   63U       C4 1605   7.633   4.150   3.940 -0.0937 -1.0149 -0.0165
   63U       O4 1606   7.591   4.182   3.826 -0.4554  0.1317  0.2016
   63U       N3 1607   7.552   4.104   4.040  0.3467 -0.3464 -0.9118
   63U       H3 1608   7.452   4.105   4.024  0.3074  0.0649 -0.6664
   63U       C2 1609   7.588   4.052   4.162  0.1377 -1.4182 -0.2497
   63U       O2 1610   7.506   4.002   4.238 -0.5839  0.1259 -0.4698
   63U      C3' 1611   7.991   3.940   4.392 -0.6092  0.1399 -0.5967
   63U      H3' 1612   8.072   3.959   4.321  1.2785  3.0279  2.0470
   63U      C2' 1613   7.865   3.894   4.322  0.1236 -0.5084 -0.2993
   63U     H2'1 1614   7.887   3.869   4.218 -0.9442  0.4011 -0.7728
   63U      O2' 1615   7.803   3.776   4.386  0.3203  0.9241  0.0541
   63U     HO'2 1616   7.859   3.756   4.462  1.0860 -0.1448 -0.7755
   63U      O3' 1617   8.038   3.846   4.499 -0.0959 -0.1268  0.1346
   64A        P 1618   8.186   3.870   4.564 -0.1729  0.1715 -0.1466
   64A      O1P 1619   8.266   3.930   4.455 -0.2433  0.5030  0.3639
   64A      O2P 1620   8.233   3.757   4.637 -0.2023  0.5354 -0.4596
   64A      O5' 1621   8.162   3.983   4.674  0.1389 -0.2192  0.2065
   64A      C5' 1622   8.079   3.948   4.787 -0.2777 -0.0144 -0.1413
   64A     H5'1 1623   8.119   3.868   4.849 -0.1632  0.0700 -0.1061
   64A     H5'2 1624   7.988   3.909   4.742  1.3340 -2.7826 -1.3000
   64A      C4' 1625   8.044   4.075   4.863  0.1323 -0.1645 -0.2595
   64A      H4' 1626   8.132   4.102   4.921 -1.1214  3.0552  0.2966
   64A      O4' 1627   8.013   4.183   4.776 -0.2110  0.0474 -0.7028
   64A      C1' 1628   7.937   4.270   4.851 -0.1102  0.0821  0.2962
   64A      H1' 1629   7.997   4.361   4.864  1.1941 -0.5928 -0.7326
   64A       N9 1630   7.827   4.302   4.757 -0.3068 -0.1220 -0.0286
   64A       C8 1631   7.820   4.418   4.686  0.2754  0.1425 -0.0548
   64A       H8 1632   7.880   4.505   4.708  0.7308 -0.3151  0.5503
   64A       N7 1633   7.742   4.412   4.582  0.1353  0.0266  0.4502
   64A       C5 1634   7.678   4.285   4.604 -0.0376 -0.5320  0.1692
   64A       C6 1635   7.577   4.218   4.531  0.3367 -0.2246  0.0801
   64A       N6 1636   7.515   4.264   4.423 -0.3260  0.0948  0.3153
   64A      H61 1637   7.543   4.352   4.382  0.2920 -1.1673 -2.1525
   64A      H62 1638   7.442   4.211   4.378 -0.1694 -0.6548  0.9129
   64A       N1 1639   7.533   4.096   4.571  0.0187 -0.3955  0.1548
   64A       C2 1640   7.592   4.047   4.675  0.9799 -0.1698 -0.1664
   64A       H2 1641   7.557   3.947   4.699  0.2574 -0.4241 -2.1038
   64A       N3 1642   7.694   4.096   4.749  0.2429  0.5254  0.2987
   64A       C4 1643   7.730   4.220   4.712  0.0527  0.4185 -0.4959
   64A      C3' 1644   7.950   4.075   4.979 -0.5165  0.4031 -0.0894
   64A      H3' 1645   7.866   4.010   4.953 -0.5801  0.4189  0.0739
   64A      C2' 1646   7.895   4.220   4.984  0.0336  0.3664 -0.3122
   64A     H2'1 1647   7.787   4.217   4.998 -0.0138 -0.7523 -0.8846
   64A      O2' 1648   7.966   4.296   5.078 -0.0631  0.1986 -0.0700
   64A     HO'2 1649   7.905   4.326   5.146 -0.7558  0.4521 -0.7881
   64A      O3' 1650   8.015   4.032   5.093  0.6244 -0.5898  0.1741
   65A        P 1651   7.939   3.934   5.191 -0.0671  0.1172  0.2398
   65A      O1P 1652   8.032   3.895   5.299 -0.4206 -0.6382 -0.2226
   65A      O2P 1653   7.869   3.826   5.114 -0.2405  0.7441 -0.0712
   65A      O5' 1654   7.818   4.033   5.248 -0.0240  0.1309 -0.2125
   65A      C5' 1655   7.843   4.115   5.356 -0.2411  0.6890  0.7694
   65A     H5'1 1656   7.942   4.161   5.350 -0.3381  0.9480  1.1096
   65A     H5'2 1657   7.831   4.053   5.445 -1.2001  0.7405  0.6884
   65A      C4' 1658   7.728   4.213   5.362  0.0104  0.3458  0.7017
   65A      H4' 1659   7.758   4.280   5.442  3.6073  1.3758 -1.2896
   65A      O4' 1660   7.721   4.296   5.247 -0.4354 -0.0809  0.1111
   65A      C1' 1661   7.581   4.327   5.228 -0.3947 -0.3850  0.2174
   65A      H1' 1662   7.540   4.396   5.303 -0.7763 -0.6433  0.2466
   65A       N9 1663   7.546   4.376   5.092 -0.2795 -0.4785 -0.4967
   65A       C8 1664   7.482   4.315   4.988 -0.0390  0.2417 -0.0809
   65A       H8 1665   7.446   4.213   4.987 -0.1424  0.2744 -1.7031
   65A       N7 1666   7.470   4.381   4.878  0.1408 -0.5504 -0.6967
   65A       C5 1667   7.540   4.498   4.909  0.4869 -0.3373  0.1875
   65A       C6 1668   7.569   4.618   4.837 -0.3018  0.0586 -0.1919
   65A       N6 1669   7.539   4.638   4.711  0.3582  0.1520 -0.4419
   65A      H61 1670   7.479   4.568   4.672 -0.2057  0.2947  0.1449
   65A      H62 1671   7.543   4.734   4.680  1.8076  0.2649  0.0370
   65A       N1 1672   7.632   4.722   4.895 -0.0069  0.3226  0.3343
   65A       C2 1673   7.658   4.713   5.025  0.1174 -0.0124  0.4868
   65A       H2 1674   7.705   4.798   5.071  1.1425 -0.1570 -0.2667
   65A       N3 1675   7.643   4.612   5.103  0.5339  0.5098 -0.5440
   65A       C4 1676   7.584   4.501   5.043  0.1838  0.0268 -0.0788
   65A      C3' 1677   7.585   4.166   5.392  0.7524 -0.2131 -0.0816
   65A      H3' 1678   7.576   4.060   5.416  0.4450 -0.3696 -0.8653
   65A      C2' 1679   7.525   4.190   5.253  0.0451 -0.2946  0.0716
   65A     H2'1 1680   7.563   4.119   5.180  0.1631 -0.9803  0.7860
   65A      O2' 1681   7.383   4.173   5.261  0.1565 -0.0197  0.2316
   65A     HO'2 1682   7.353   4.179   5.352  0.5660 -2.5941  0.6064
   65A      O3' 1683   7.544   4.248   5.503  0.0768 -0.0819 -0.5531
   66A        P 1684   7.418   4.205   5.597 -0.5619 -0.1785  0.1410
   66A      O1P 1685   7.463   4.092   5.676 -0.0802  0.2451 -0.1835
   66A      O2P 1686   7.296   4.192   5.516 -0.3025  0.3014  0.1878
   66A      O5' 1687   7.391   4.318   5.708 -0.1477 -0.1726  0.5559
   66A      C5' 1688   7.307   4.425   5.688  0.3691 -0.6047  0.0105
   66A     H5'1 1689   7.255   4.448   5.781  0.1260 -1.0561 -0.0123
   66A     H5'2 1690   7.237   4.404   5.607  0.7871 -0.2657 -0.4452
   66A      C4' 1691   7.387   4.555   5.654  0.1686 -0.4847 -0.1196
   66A      H4' 1692   7.452   4.573   5.740  1.7295 -1.4057 -1.0639
   66A      O4' 1693   7.463   4.545   5.528 -0.0067 -0.3627 -0.3990
   66A      C1' 1694   7.460   4.677   5.464  0.3420  0.5534  0.2094
   66A      H1' 1695   7.562   4.715   5.459 -0.1081  1.6965 -0.8128
   66A       N9 1696   7.382   4.662   5.344  0.8270 -0.5733  0.7314
   66A       C8 1697   7.291   4.565   5.309  0.2280 -0.3290 -0.3903
   66A       H8 1698   7.283   4.475   5.369  1.5066 -0.8927 -1.0249
   66A       N7 1699   7.220   4.587   5.198 -0.5707  0.4916  0.1628
   66A       C5 1700   7.277   4.707   5.152  0.0125  0.3464 -0.1366
   66A       C6 1701   7.255   4.796   5.049 -0.2614  0.4802  0.6142
   66A       N6 1702   7.173   4.781   4.951  0.0437  0.5300  0.6904
   66A      H61 1703   7.130   4.690   4.938  1.3366  0.1785 -1.5921
   66A      H62 1704   7.161   4.854   4.882 -3.6176 -0.9308 -0.4660
   66A       N1 1705   7.313   4.913   5.044  0.2714 -0.4233 -0.7338
   66A       C2 1706   7.404   4.950   5.135 -0.0666 -0.4670 -0.0858
   66A       H2 1707   7.447   5.048   5.128  0.2675 -0.4315  1.8268
   66A       N3 1708   7.432   4.878   5.242  0.1218 -0.1915 -0.9707
   66A       C4 1709   7.375   4.757   5.241  0.3163  1.0285  0.8792
   66A      C3' 1710   7.299   4.679   5.640  0.3851 -0.4046 -0.1455
   66A      H3' 1711   7.212   4.661   5.576  0.5434  1.6861 -1.0431
   66A      C2' 1712   7.402   4.771   5.574 -0.2504 -0.1886  0.0062
   66A     H2'1 1713   7.347   4.859   5.539 -2.0214 -0.9515  0.7306
   66A      O2' 1714   7.511   4.803   5.662  0.0193 -0.0274 -0.2993
   66A     HO'2 1715   7.483   4.856   5.737 -0.4180 -0.8343  0.1132
   66A      O3' 1716   7.240   4.719   5.765  0.0973 -0.0959  0.2726
   67C        P 1717   7.112   4.809   5.768  0.2540  0.0238 -0.3757
   67C      O1P 1718   7.108   4.865   5.900 -0.1984 -0.0369 -0.5755
   67C      O2P 1719   7.000   4.732   5.718 -0.0159  0.1623 -0.5187
   67C      O5' 1720   7.136   4.928   5.666  0.0644  0.2820 -0.3542
   67C      C5' 1721   7.081   4.927   5.530 -0.9001 -0.1088  0.3088
   67C     H5'1 1722   6.972   4.929   5.531 -0.9023  2.0674  0.2117
   67C     H5'2 1723   7.110   4.827   5.500 -0.5216 -0.4894  1.8318
   67C      C4' 1724   7.126   5.038   5.439  0.4746 -0.3911 -0.4129
   67C      H4' 1725   7.234   5.050   5.450  0.2734  1.6975 -0.3348
   67C      O4' 1726   7.104   5.018   5.308  0.2226  0.5602  0.0885
   67C      C1' 1727   7.121   5.142   5.247 -0.7432 -0.0128 -0.3556
   67C      H1' 1728   7.223   5.147   5.209 -0.1156 -0.5729  1.1573
   67C       N1 1729   7.032   5.173   5.130  0.2330 -0.1792 -0.6992
   67C       C6 1730   6.897   5.140   5.134  0.1041  0.1416 -0.3423
   67C       H6 1731   6.859   5.078   5.213  0.7129  0.6600  0.3828
   67C       C5 1732   6.813   5.195   5.042  0.5991  0.5410  0.5024
   67C       H5 1733   6.707   5.179   5.050  0.5225  0.2198 -0.8869
   67C       C4 1734   6.871   5.281   4.943 -0.1370 -0.7055  0.7346
   67C       N4 1735   6.797   5.341   4.845 -0.5217 -0.7672  0.3696
   67C      H41 1736   6.701   5.316   4.830 -0.2279 -2.0519  0.5220
   67C      H42 1737   6.848   5.408   4.790 -1.4604 -0.0928  0.2929
   67C       N3 1738   7.000   5.305   4.933  0.1332  0.5393 -0.3057
   67C       C2 1739   7.080   5.243   5.023 -0.1938  0.2206  0.9183
   67C       O2 1740   7.197   5.272   5.015  0.3843  0.5438  0.0856
   67C      C3' 1741   7.073   5.180   5.487  0.3412  0.8620 -0.1106
   67C      H3' 1742   6.969   5.167   5.517  0.9797 -0.9523  1.5448
   67C      C2' 1743   7.096   5.255   5.358  0.2727  1.0109  0.7221
   67C     H2'1 1744   7.012   5.319   5.333  0.5150  1.6530  1.4848
   67C      O2' 1745   7.210   5.332   5.360 -0.4512 -0.1855  0.4837
   67C     HO'2 1746   7.218   5.370   5.448  0.1658  1.8314 -0.3727
   67C      O3' 1747   7.155   5.228   5.595  0.1183  0.2512  0.1212
   68U        P 1748   7.096   5.346   5.699  0.0633  0.0339  0.1310
   68U      O1P 1749   7.161   5.332   5.833 -0.0499 -0.4778  0.2585
   68U      O2P 1750   6.948   5.344   5.696  0.6510 -0.6804 -0.0355
   68U      O5' 1751   7.154   5.479   5.626  0.2851 -0.1777 -0.3850
   68U      C5' 1752   7.273   5.552   5.657 -0.5323 -0.1025 -0.0117
   68U     H5'1 1753   7.355   5.484   5.636 -0.2404  0.8828 -2.3622
   68U     H5'2 1754   7.262   5.576   5.763 -1.0010 -0.4445  0.0200
   68U      C4' 1755   7.306   5.666   5.563 -0.4229 -0.5034  0.3864
   68U      H4' 1756   7.410   5.694   5.578 -1.1211  2.7561  0.0313
   68U      O4' 1757   7.282   5.621   5.430  0.0735 -0.3082 -0.2615
   68U      C1' 1758   7.250   5.738   5.352  0.0987 -0.0668  0.0537
   68U      H1' 1759   7.331   5.737   5.279 -1.3683 -0.5597 -1.6052
   68U       N1 1760   7.122   5.710   5.277  0.5707 -0.2983  0.0931
   68U       C6 1761   7.041   5.603   5.304  0.3763  0.2970 -0.0754
   68U       H6 1762   7.072   5.544   5.389  0.1574  1.5456  0.9016
   68U       C5 1763   6.929   5.576   5.233  0.1611  0.5775 -0.1345
   68U       H5 1764   6.861   5.500   5.267 -0.0306  0.3377 -1.0412
   68U       C4 1765   6.896   5.639   5.114  0.4305  0.3263 -0.3518
   68U       O4 1766   6.813   5.603   5.036  0.0761  0.6155  0.0381
   68U       N3 1767   6.983   5.745   5.089  0.2945  0.5512  0.9386
   68U       H3 1768   6.974   5.775   4.993  0.2296  1.5760  1.2582
   68U       C2 1769   7.098   5.776   5.156  0.1220 -0.6429  1.1044
   68U       O2 1770   7.173   5.863   5.108 -0.2808 -0.5679 -0.5702
   68U      C3' 1771   7.214   5.787   5.573 -0.2038  0.3966  0.4130
   68U      H3' 1772   7.113   5.748   5.568  0.0699 -0.3880  0.8883
   68U      C2' 1773   7.251   5.852   5.440  0.1938  0.2344 -0.1589
   68U     H2'1 1774   7.178   5.926   5.408  0.5452  0.6734  0.0328
   68U      O2' 1775   7.382   5.900   5.434  0.5443 -0.6928  0.0507
   68U     HO'2 1776   7.403   5.958   5.507  0.8022 -0.9414  0.1755
   68U      O3' 1777   7.229   5.875   5.682 -0.0022 -0.1904  0.1282
   69C        P 1778   7.104   5.961   5.735 -0.3498  0.3610 -0.2278
   69C      O1P 1779   7.157   6.012   5.865 -0.0987 -0.5085 -0.4506
   69C      O2P 1780   6.984   5.874   5.733 -0.1379  0.3187 -0.4747
   69C      O5' 1781   7.075   6.082   5.632 -0.0980  0.1171  0.3631
   69C      C5' 1782   7.169   6.187   5.623  0.4103 -0.1271  0.6221
   69C     H5'1 1783   7.263   6.134   5.609  0.0588 -0.8624  0.9871
   69C     H5'2 1784   7.185   6.257   5.705  0.3545  1.0106 -0.3030
   69C      C4' 1785   7.135   6.270   5.491  0.4759  0.5152  0.4952
   69C      H4' 1786   7.217   6.338   5.471  0.4586  0.5498  0.5407
   69C      O4' 1787   7.120   6.184   5.383 -0.1892  0.4762  0.2290
   69C      C1' 1788   7.059   6.241   5.268  0.5223 -0.0296 -0.4255
   69C      H1' 1789   7.135   6.252   5.190  2.3621 -1.1560  1.1227
   69C       N1 1790   6.945   6.150   5.230 -0.2656  0.1601  0.2508
   69C       C6 1791   6.915   6.044   5.313 -0.6340  0.3776 -0.4352
   69C       H6 1792   6.971   6.020   5.403 -0.3683 -4.3773 -1.6088
   69C       C5 1793   6.813   5.961   5.283 -0.6432 -0.0948  0.8756
   69C       H5 1794   6.784   5.876   5.344 -2.2600 -0.7777 -0.7415
   69C       C4 1795   6.743   5.990   5.160 -0.1644  0.1670 -0.8870
   69C       N4 1796   6.634   5.923   5.125 -0.4030  0.1807  0.0875
   69C      H41 1797   6.619   5.834   5.171  0.5262 -1.9170 -3.2255
   69C      H42 1798   6.592   5.943   5.035 -0.8021  0.1848  0.2731
   69C       N3 1799   6.779   6.092   5.080  0.3349  0.0049  0.5778
   69C       C2 1800   6.883   6.174   5.113  0.5867 -0.7170 -0.3797
   69C       O2 1801   6.908   6.269   5.037 -0.2624 -0.3687 -0.0501
   69C      C3' 1802   7.005   6.351   5.477  0.1331  0.4999 -0.8041
   69C      H3' 1803   6.920   6.285   5.494 -0.4194  1.6579  1.2990
   69C      C2' 1804   7.012   6.382   5.328  0.0134 -0.3765  0.5163
   69C     H2'1 1805   6.920   6.426   5.289  1.0887  0.9713 -0.6205
   69C      O2' 1806   7.110   6.479   5.296  0.3138 -0.0865  0.5298
   69C     HO'2 1807   7.092   6.499   5.204  1.7341 -0.6729  0.0976
   69C      O3' 1808   7.001   6.471   5.557 -0.1462  0.4458  0.5748
   70U        P 1809   6.862   6.541   5.577  0.0462 -0.2149 -0.1178
   70U      O1P 1810   6.876   6.668   5.650  0.0703 -0.8571  0.4061
   70U      O2P 1811   6.767   6.436   5.620 -0.1886  0.6642  0.0297
   70U      O5' 1812   6.812   6.585   5.434 -0.3380  0.0935  0.3994
   70U      C5' 1813   6.867   6.698   5.365 -0.6309  0.3397 -0.2358
   70U     H5'1 1814   6.975   6.695   5.348 -0.3295  1.4870  1.2041
   70U     H5'2 1815   6.850   6.793   5.416 -1.6318  1.0687 -1.8647
   70U      C4' 1816   6.802   6.708   5.227  0.2259  1.0980 -0.2125
   70U      H4' 1817   6.857   6.775   5.161  0.3084  0.3080 -0.9613
   70U      O4' 1818   6.792   6.582   5.166 -0.6629  0.3805  0.2366
   70U      C1' 1819   6.671   6.571   5.088 -0.1829  0.3790 -0.2948
   70U      H1' 1820   6.693   6.553   4.983 -2.0372 -0.6534 -0.5469
   70U       N1 1821   6.588   6.456   5.129 -0.4192  0.1032  0.2004
   70U       C6 1822   6.617   6.384   5.240 -0.0976  0.2239  0.1839
   70U       H6 1823   6.696   6.422   5.302  0.1764 -1.8143  1.1648
   70U       C5 1824   6.552   6.271   5.268 -0.0831 -0.5161 -0.2116
   70U       H5 1825   6.585   6.215   5.354 -2.0966  0.2082  1.0913
   70U       C4 1826   6.448   6.221   5.180 -0.1060  0.0573  0.0296
   70U       O4 1827   6.388   6.116   5.190  0.5226  0.3157 -0.6301
   70U       N3 1828   6.420   6.305   5.072  0.6181  0.3552 -0.1674
   70U       H3 1829   6.371   6.265   4.993  1.1317  0.7815 -0.7073
   70U       C2 1830   6.482   6.421   5.041 -0.4234  0.9685  0.3619
   70U       O2 1831   6.445   6.481   4.940  0.2023 -0.2503 -0.0991
   70U      C3' 1832   6.656   6.757   5.240  0.3679  0.1970 -0.4791
   70U      H3' 1833   6.607   6.710   5.326  1.5385 -0.6912 -0.2783
   70U      C2' 1834   6.605   6.705   5.102 -0.3295 -0.2458 -0.5613
   70U     H2'1 1835   6.497   6.688   5.110 -0.3107  0.6372  4.6906
   70U      O2' 1836   6.644   6.787   4.993 -0.2470 -0.2121  0.1320
   70U     HO'2 1837   6.575   6.781   4.926 -2.3859  1.5060  2.0011
   70U      O3' 1838   6.630   6.898   5.247  0.3404  0.2592 -0.0194
   71U        P 1839   6.499   6.957   5.320 -0.1931 -0.0534 -0.6260
   71U      O1P 1840   6.517   7.103   5.344  0.5439 -0.1515 -0.2840
   71U      O2P 1841   6.478   6.876   5.440  0.0602 -0.0012 -0.2230
   71U      O5' 1842   6.376   6.929   5.219  0.4349  0.2454  0.5084
   71U      C5' 1843   6.375   6.990   5.092  0.5498  0.0741  0.1461
   71U     H5'1 1844   6.478   6.977   5.059  0.4213 -3.9290  0.8321
   71U     H5'2 1845   6.349   7.095   5.105 -2.6793 -0.6122  0.1190
   71U      C4' 1846   6.276   6.926   4.994  0.2788  0.7482  0.2591
   71U      H4' 1847   6.285   6.973   4.896  2.2298 -2.8417 -1.4819
   71U      O4' 1848   6.303   6.791   4.982  0.0656  0.0169 -0.1916
   71U      C1' 1849   6.183   6.719   4.964  1.3952  0.1136  0.6882
   71U      H1' 1850   6.164   6.681   4.864  1.7353  1.1644  0.2131
   71U       N1 1851   6.169   6.598   5.056 -0.0557 -0.1489 -0.5102
   71U       C6 1852   6.239   6.595   5.181  0.0846  0.1231 -0.0695
   71U       H6 1853   6.297   6.681   5.210 -0.1925 -0.1641  1.4579
   71U       C5 1854   6.232   6.489   5.268  0.1873  0.5354 -0.0166
   71U       H5 1855   6.292   6.479   5.357  0.0390  1.9329  0.2620
   71U       C4 1856   6.141   6.382   5.235 -1.0527 -0.8560 -0.1078
   71U       O4 1857   6.121   6.286   5.301  0.0495 -0.2665  0.3768
   71U       N3 1858   6.076   6.392   5.114  0.7482  0.2746  0.5521
   71U       H3 1859   6.021   6.312   5.085 -1.1015  0.8847  2.1624
   71U       C2 1860   6.093   6.490   5.015 -0.0494 -1.1295 -0.5147
   71U       O2 1861   6.038   6.485   4.900 -0.2310  0.4561 -0.0298
   71U      C3' 1862   6.136   6.924   5.064 -0.5872 -0.2513 -0.2203
   71U      H3' 1863   6.150   6.909   5.171  1.2196 -0.6860 -0.4924
   71U      C2' 1864   6.061   6.809   4.999  0.1106 -0.3495 -0.1559
   71U     H2'1 1865   6.001   6.771   5.082  0.0337  0.9735  0.4293
   71U      O2' 1866   5.989   6.843   4.884 -0.0842 -0.0024 -0.1325
   71U     HO'2 1867   5.912   6.898   4.902 -0.3190  0.0621 -1.2479
   71U      O3' 1868   6.064   7.051   5.036  0.2156 -0.1243 -0.2018
   72G        P 1869   5.954   7.105   5.127 -0.2150 -0.0239 -0.2145
   72G      O1P 1870   5.933   7.247   5.083  0.0004 -0.4233  0.1323
   72G      O2P 1871   5.995   7.080   5.266 -1.1541  1.3133 -0.4490
   72G      O5' 1872   5.823   7.024   5.087  0.1124 -0.4102 -0.3887
   72G      C5' 1873   5.741   7.058   4.970 -0.0123 -0.0822  0.3469
   72G     H5'1 1874   5.802   7.075   4.881  1.6257 -0.8610  1.2717
   72G     H5'2 1875   5.706   7.160   4.984 -0.7070 -0.1564 -0.7274
   72G      C4' 1876   5.621   6.975   4.936  0.4535  0.4533 -0.1732
   72G      H4' 1877   5.557   7.017   4.858 -0.1891 -1.3508 -0.6818
   72G      O4' 1878   5.668   6.845   4.898 -0.5025  0.2207  0.1410
   72G      C1' 1879   5.587   6.743   4.961  0.6318  0.4399 -0.2003
   72G      H1' 1880   5.555   6.669   4.888 -0.8816  0.2268  0.6481
   72G       N9 1881   5.660   6.666   5.062 -0.0970  0.2484 -0.1229
   72G       C8 1882   5.754   6.710   5.149 -0.5334 -0.7203 -0.0196
   72G       H8 1883   5.779   6.814   5.161 -1.2603 -0.6375  0.8348
   72G       N7 1884   5.802   6.610   5.224 -0.4042  0.1774 -0.3937
   72G       C5 1885   5.725   6.497   5.190  0.2377 -0.2498  0.4588
   72G       C6 1886   5.716   6.365   5.251  0.3950 -0.4187 -0.3468
   72G       O6 1887   5.780   6.319   5.346  0.5721  0.1476 -0.1544
   72G       N1 1888   5.629   6.282   5.179  0.2742 -0.0958  0.5768
   72G       H1 1889   5.624   6.183   5.199 -0.3091 -0.6161 -1.8076
   72G       C2 1890   5.548   6.323   5.084 -0.6376  0.3198 -0.2859
   72G       N2 1891   5.458   6.245   5.035  0.5327  0.0152  0.3010
   72G      H21 1892   5.434   6.152   5.065  1.9659 -0.6411 -0.5177
   72G      H22 1893   5.400   6.289   4.964 -0.6603 -1.3892  0.3628
   72G       N3 1894   5.543   6.448   5.035  0.2095  0.4427 -0.0330
   72G       C4 1895   5.640   6.532   5.091  0.1707  1.0769  0.7394
   72G      C3' 1896   5.532   6.954   5.053  0.0252  0.1771  0.2965
   72G      H3' 1897   5.593   6.945   5.142  0.7542 -3.5654 -0.3989
   72G      C2' 1898   5.470   6.815   5.019 -0.3154  0.2866  0.2740
   72G     H2'1 1899   5.446   6.764   5.112 -0.6059 -0.1870 -0.0553
   72G      O2' 1900   5.359   6.814   4.934  0.3742 -0.3427 -0.0979
   72G     HO'2 1901   5.289   6.856   4.984 -0.1831 -0.7608 -0.5242
   72G      O3' 1902   5.426   7.056   5.063  0.2075 -0.6337 -0.2791
   73A        P 1903   5.337   7.058   5.189 -0.0103 -0.1259  0.2041
   73A      O1P 1904   5.254   7.176   5.176 -0.1608  0.4964  0.3824
   73A      O2P 1905   5.408   7.028   5.317  0.0185  1.0626 -0.4771
   73A      O5' 1906   5.243   6.930   5.155 -0.0747  0.1130  0.1059
   73A      C5' 1907   5.111   6.921   5.203  0.2665  0.7224 -0.1395
   73A     H5'1 1908   5.055   7.002   5.157  0.6027  1.6038  0.9393
   73A     H5'2 1909   5.099   6.931   5.311  1.6643  0.2280  0.0928
   73A      C4' 1910   5.049   6.780   5.165 -0.4225  0.3099 -0.5097
   73A      H4' 1911   5.038   6.766   5.058  0.8710 -0.0588 -0.6072
   73A      O4' 1912   5.122   6.680   5.229 -0.0192  0.6434  0.1657
   73A      C1' 1913   5.041   6.573   5.274 -0.0468 -0.1243 -0.5284
   73A      H1' 1914   5.058   6.480   5.220  1.6471 -0.8609  1.1743
   73A       N9 1915   5.056   6.544   5.411  0.1047 -0.0419 -1.1243
   73A       C8 1916   5.151   6.595   5.500 -0.6841  0.5728  0.5349
   73A       H8 1917   5.219   6.675   5.478  0.2714  0.1266  1.7211
   73A       N7 1918   5.160   6.531   5.612 -0.3142  0.6719 -0.4581
   73A       C5 1919   5.069   6.426   5.593 -0.6543  0.2875 -0.4497
   73A       C6 1920   5.029   6.316   5.672 -0.1891  0.0798 -0.5805
   73A       N6 1921   5.084   6.294   5.794 -0.3968 -0.0691  0.0951
   73A      H61 1922   5.152   6.362   5.826  0.9188 -1.8800  1.3555
   73A      H62 1923   5.089   6.205   5.841  2.2245 -0.2161 -0.2829
   73A       N1 1924   4.938   6.227   5.633 -0.4912 -0.0799 -0.2169
   73A       C2 1925   4.889   6.244   5.508 -0.0927  0.5076 -0.6155
   73A       H2 1926   4.817   6.171   5.474 -0.2744  1.7613 -3.1412
   73A       N3 1927   4.913   6.346   5.424  0.2822  0.2059 -0.6425
   73A       C4 1928   5.005   6.434   5.473  0.5870  0.0460 -0.7502
   73A      C3' 1929   4.912   6.770   5.235 -0.4837 -0.1241 -0.7351
   73A      H3' 1930   4.929   6.807   5.336  1.0283  0.7269 -1.2692
   73A      C2' 1931   4.898   6.623   5.245 -0.2139  0.4983  0.2229
   73A     H2'1 1932   4.824   6.594   5.319 -0.9964  0.8953 -0.3967
   73A      O2' 1933   4.854   6.583   5.118 -0.3080  0.3627 -0.1074
   73A     HO'2 1934   4.802   6.658   5.088  0.0303  0.2891 -0.9168
   73A      O3' 1935   4.804   6.832   5.163 -0.2666  0.4586 -0.3303
   74U        P 1936   4.711   6.940   5.242 -0.0814 -0.4604  0.2054
   74U      O1P 1937   4.613   6.985   5.146 -0.0567 -0.2132 -0.2425
   74U      O2P 1938   4.791   7.036   5.318 -0.1027  0.6789  0.1529
   74U      O5' 1939   4.634   6.840   5.337  0.2124 -0.0329  0.0370
   74U      C5' 1940   4.535   6.748   5.294  0.0084  0.2661 -0.0410
   74U     H5'1 1941   4.550   6.699   5.198 -1.5422 -0.0035 -0.1702
   74U     H5'2 1942   4.449   6.812   5.273 -0.8700 -1.5929 -2.6462
   74U      C4' 1943   4.497   6.646   5.396  0.0007  0.2131 -0.5591
   74U      H4' 1944   4.431   6.568   5.355  2.4491 -2.0581 -0.4431
   74U      O4' 1945   4.615   6.579   5.444  0.1051  0.3145 -0.3565
   74U      C1' 1946   4.592   6.531   5.574 -0.6429  0.0437  0.4533
   74U      H1' 1947   4.585   6.422   5.576 -3.5034  0.1600  1.1437
   74U       N1 1948   4.699   6.574   5.663 -0.1909  0.4192  0.3252
   74U       C6 1949   4.762   6.693   5.645 -0.0941 -0.0927 -0.0305
   74U       H6 1950   4.730   6.756   5.563 -0.9142 -0.8548 -0.3151
   74U       C5 1951   4.863   6.731   5.731 -0.0300  0.2137 -0.0831
   74U       H5 1952   4.921   6.820   5.709 -1.3041  1.2619  0.6405
   74U       C4 1953   4.910   6.646   5.834 -0.0682  0.0476 -0.9311
   74U       O4 1954   5.009   6.663   5.906  0.0642 -0.3252  0.4896
   74U       N3 1955   4.837   6.530   5.852  0.5842 -0.0344  0.3506
   74U       H3 1956   4.859   6.478   5.935 -3.0227 -0.3628  1.2617
   74U       C2 1957   4.737   6.488   5.766  0.1371 -0.1490 -0.1276
   74U       O2 1958   4.673   6.389   5.795 -0.0122  0.5174  0.2493
   74U      C3' 1959   4.439   6.710   5.519 -0.0906 -0.0342  0.0038
   74U      H3' 1960   4.492   6.800   5.551 -2.5608  0.6359  2.7329
   74U      C2' 1961   4.462   6.598   5.619  0.3503 -0.5801  0.5152
   74U     H2'1 1962   4.477   6.647   5.715  0.6242  3.1703 -1.2680
   74U      O2' 1963   4.354   6.511   5.608  0.6156 -0.0411 -0.1389
   74U     HO'2 1964   4.274   6.564   5.610  1.1839  0.8799 -0.7758
   74U      O3' 1965   4.300   6.734   5.497 -0.1746 -0.2940 -0.4605
   75U        P 1966   4.203   6.813   5.600  0.0416  0.1163  0.0154
   75U      O1P 1967   4.089   6.866   5.521  0.1208 -0.1688  0.0806
   75U      O2P 1968   4.278   6.898   5.697 -0.0685 -0.1027 -0.9158
   75U      O5' 1969   4.147   6.691   5.692 -0.6062 -0.3468  0.0718
   75U      C5' 1970   4.057   6.585   5.645 -0.1577 -0.1553 -0.7635
   75U     H5'1 1971   4.096   6.540   5.554  2.7991  0.0579  0.2922
   75U     H5'2 1972   3.961   6.632   5.626 -1.6903 -3.0671 -0.7757
   75U      C4' 1973   4.046   6.472   5.752 -0.2169 -0.0669  0.2270
   75U      H4' 1974   4.008   6.385   5.698  0.3933  0.3908 -0.9810
   75U      O4' 1975   4.166   6.421   5.788 -0.3246 -1.2724  0.5131
   75U      C1' 1976   4.191   6.419   5.931 -0.9670  0.0448  0.8403
   75U      H1' 1977   4.209   6.319   5.970 -1.8672 -1.0533 -1.4250
   75U       N1 1978   4.313   6.505   5.966  0.5988 -0.0207  0.4793
   75U       C6 1979   4.315   6.641   5.941 -0.4803  0.4902  0.4048
   75U       H6 1980   4.224   6.688   5.909 -0.2059  0.8167  0.0902
   75U       C5 1981   4.416   6.720   5.994  0.0727 -0.1181 -0.0091
   75U       H5 1982   4.401   6.826   5.998 -2.6123 -0.3993 -0.6130
   75U       C4 1983   4.531   6.649   6.057  0.3781  0.2186  0.1929
   75U       O4 1984   4.630   6.703   6.093 -0.4388 -0.5105  0.0677
   75U       N3 1985   4.523   6.514   6.066 -0.5311 -0.0814 -0.1246
   75U       H3 1986   4.598   6.459   6.106  0.6435  1.0442 -0.6892
   75U       C2 1987   4.424   6.439   6.022  0.5672 -0.0431  0.4981
   75U       O2 1988   4.431   6.315   6.039 -0.4105 -0.7070  0.0937
   75U      C3' 1989   3.977   6.516   5.882  0.2310  0.4554 -0.0314
   75U      H3' 1990   3.970   6.625   5.878  1.8300  0.5670 -0.0958
   75U      C2' 1991   4.072   6.472   6.002  0.3719  0.0429  0.3259
   75U     H2'1 1992   4.094   6.562   6.058  1.8251 -0.5473  0.7585
   75U      O2' 1993   4.035   6.374   6.096 -0.3055  0.5962 -0.3573
   75U     HO'2 1994   3.950   6.382   6.139  0.0181  1.4398  0.1488
   75U      O3' 1995   3.856   6.449   5.880 -0.2395  0.1340 -0.5972
   76A        P 1996   3.739   6.509   5.962  0.2852 -0.5403  0.5249
   76A      O1P 1997   3.616   6.432   5.922  0.0134 -0.2231 -0.3579
   76A      O2P 1998   3.746   6.655   5.937  0.2981 -0.2457 -0.5633
   76A      O5' 1999   3.757   6.475   6.119 -0.0240  0.1285  0.1329
   76A      C5' 2000   3.705   6.355   6.183  0.4328  0.2187 -0.6423
   76A     H5'1 2001   3.764   6.267   6.157  1.5700  1.6100 -3.0815
   76A     H5'2 2002   3.599   6.341   6.163  0.4717  1.8051 -2.2403
   76A      C4' 2003   3.731   6.382   6.331 -0.3631 -0.4602 -0.0425
   76A      H4' 2004   3.709   6.294   6.391  0.3957  1.9303  4.1653
   76A      O4' 2005   3.863   6.434   6.359  0.1390 -0.3910 -0.1722
   76A      C1' 2006   3.853   6.532   6.462  0.3138 -0.5897 -0.0034
   76A      H1' 2007   3.922   6.503   6.541  1.5728 -1.5526 -1.3981
   76A       N9 2008   3.892   6.668   6.408 -0.6786 -0.5412 -0.2256
   76A       C8 2009   3.926   6.702   6.284 -0.4759  0.3321 -0.0218
   76A       H8 2010   3.930   6.630   6.203  2.5188 -1.6273  1.7035
   76A       N7 2011   3.946   6.826   6.264 -0.1928 -0.4375  0.1354
   76A       C5 2012   3.931   6.881   6.391  0.2209  1.3341 -0.4570
   76A       C6 2013   3.956   7.006   6.450  0.6721 -0.2312 -0.0629
   76A       N6 2014   3.997   7.110   6.381 -0.5348 -0.5054  0.0694
   76A      H61 2015   4.034   7.091   6.288  1.4155 -1.1987  0.9332
   76A      H62 2016   4.010   7.204   6.417  0.1988 -0.5028 -0.1795
   76A       N1 2017   3.946   7.025   6.588  0.1409  0.1755  0.9972
   76A       C2 2018   3.910   6.918   6.661  0.4822  0.6115  0.2106
   76A       H2 2019   3.891   6.936   6.766  1.0707 -0.9007  0.5959
   76A       N3 2020   3.897   6.789   6.615  0.4570 -0.5849 -0.8689
   76A       C4 2021   3.906   6.778   6.480 -0.1875 -0.2168  0.2988
   76A      C3' 2022   3.638   6.502   6.376  0.1574  1.0766  0.0784
   76A      H3' 2023   3.655   6.587   6.309  0.1617  0.0493 -1.2651
   76A      C2' 2024   3.710   6.545   6.510  0.6348  0.2027 -0.2083
   76A     H2'1 2025   3.692   6.650   6.533 -1.4503  0.1572 -1.4602
   76A      O2' 2026   3.687   6.454   6.615  0.6105 -0.0376  0.4625
   76A     HO'2 2027   3.721   6.494   6.695  0.9186  2.5605 -0.8447
   76A      O3' 2028   3.499   6.461   6.376 -0.3017 -0.2891 -0.2210
   77U        P 2029   3.390   6.567   6.347  0.4329  0.0678 -0.1102
   77U      O1P 2030   3.260   6.501   6.374 -0.3844 -0.2620 -0.5568
   77U      O2P 2031   3.408   6.632   6.218  0.1518  0.1301 -0.5344
   77U      O5' 2032   3.419   6.659   6.471  0.1633 -0.0604  0.0031
   77U      C5' 2033   3.394   6.619   6.604 -0.4714  0.0950 -0.4621
   77U     H5'1 2034   3.461   6.536   6.628 -0.4019  0.8065  2.0658
   77U     H5'2 2035   3.290   6.591   6.620 -1.0340  2.5567  0.6230
   77U      C4' 2036   3.428   6.728   6.707  0.7902 -0.2192 -0.4270
   77U      H4' 2037   3.424   6.687   6.808  1.7993 -0.6959 -0.5714
   77U      O4' 2038   3.561   6.778   6.699 -0.1405  0.2296  0.7439
   77U      C1' 2039   3.562   6.919   6.746  0.1087 -0.4250  0.4346
   77U      H1' 2040   3.627   6.917   6.833 -1.9329 -2.6650  2.0827
   77U       N1 2041   3.612   7.019   6.640  0.1061 -0.0845 -0.5954
   77U       C6 2042   3.620   6.979   6.510  0.3381  0.4997  0.0964
   77U       H6 2043   3.606   6.873   6.492 -0.9870  0.5982  0.4237
   77U       C5 2044   3.654   7.073   6.415 -0.2179  0.7656  0.0080
   77U       H5 2045   3.662   7.043   6.311  0.0889  0.9582 -0.0251
   77U       C4 2046   3.686   7.211   6.442  0.3814 -0.0624 -0.6141
   77U       O4 2047   3.710   7.301   6.366  0.7131  0.1160  0.0100
   77U       N3 2048   3.681   7.240   6.577 -0.3597 -0.4873  0.0171
   77U       H3 2049   3.712   7.334   6.599 -2.8574  0.5149 -0.3843
   77U       C2 2050   3.645   7.151   6.672  0.2378  0.4844 -0.2888
   77U       O2 2051   3.638   7.193   6.791 -0.5194 -0.1899  0.2169
   77U      C3' 2052   3.338   6.855   6.690 -0.1126 -0.3215 -0.0525
   77U      H3' 2053   3.336   6.889   6.587 -1.3369  1.5292  0.5200
   77U      C2' 2054   3.419   6.960   6.777  0.2298  0.5481  0.5733
   77U     H2'1 2055   3.388   7.056   6.736 -1.2721 -0.2311 -0.1937
   77U      O2' 2056   3.384   6.936   6.909  0.0179 -0.0918 -0.2222
   77U     HO'2 2057   3.330   7.011   6.935 -0.7487 -0.4434 -0.7529
   77U      O3' 2058   3.210   6.833   6.738  0.5535  0.1932 -0.2444
   78G        P 2059   3.089   6.930   6.689  0.2673 -0.0251  0.3502
   78G      O1P 2060   2.965   6.871   6.734  0.1611  0.0972  0.6498
   78G      O2P 2061   3.112   6.969   6.544 -0.2011 -0.3953  0.0669
   78G      O5' 2062   3.113   7.060   6.776  0.0678 -0.2023 -0.2236
   78G      C5' 2063   3.075   7.065   6.912  0.3226  0.2957 -0.0109
   78G     H5'1 2064   3.108   6.970   6.955 -0.7467 -0.5599 -0.9697
   78G     H5'2 2065   2.966   7.071   6.922  0.0100 -0.8190 -1.9866
   78G      C4' 2066   3.145   7.181   6.981 -0.4223  0.0312 -0.2155
   78G      H4' 2067   3.140   7.183   7.090  1.1891  1.2417 -0.1178
   78G      O4' 2068   3.288   7.187   6.940 -0.5653 -0.0899  0.1096
   78G      C1' 2069   3.317   7.324   6.911 -0.2735 -0.7545 -0.1303
   78G      H1' 2070   3.398   7.364   6.970 -0.5732  0.6167 -0.6056
   78G       N9 2071   3.351   7.352   6.771  0.0160  0.4329  0.3938
   78G       C8 2072   3.311   7.282   6.659  0.4841 -1.1446 -0.3147
   78G       H8 2073   3.247   7.195   6.664  1.4311 -1.8150  0.9056
   78G       N7 2074   3.363   7.327   6.549 -0.2768 -0.1679  0.2986
   78G       C5 2075   3.437   7.444   6.592  0.6147  0.2874  0.2166
   78G       C6 2076   3.507   7.544   6.521  0.6105 -0.1977 -0.2318
   78G       O6 2077   3.514   7.550   6.399 -0.3000  0.2816  0.2878
   78G       N1 2078   3.561   7.646   6.600  0.1962  0.3037  0.5790
   78G       H1 2079   3.608   7.721   6.551  0.1401 -0.2489 -0.3388
   78G       C2 2080   3.537   7.650   6.738 -0.5176  0.1205  0.7049
   78G       N2 2081   3.585   7.748   6.799 -0.4927 -0.7010 -0.7529
   78G      H21 2082   3.652   7.803   6.747  0.6909 -1.4831 -0.1029
   78G      H22 2083   3.577   7.766   6.898  1.2928  1.6899 -0.9649
   78G       N3 2084   3.473   7.554   6.807 -0.1135  0.1313 -0.7541
   78G       C4 2085   3.427   7.457   6.726 -0.5217 -0.4180  0.0366
   78G      C3' 2086   3.078   7.308   6.930 -0.3833 -0.1897  0.3000
   78G      H3' 2087   3.054   7.305   6.824 -0.6840  0.2996  0.3488
   78G      C2' 2088   3.197   7.406   6.944  0.0177 -0.3557  0.3296
   78G     H2'1 2089   3.187   7.495   6.882  2.3505  0.5935  1.2144
   78G      O2' 2090   3.211   7.435   7.080  0.2659 -0.5597  0.1152
   78G     HO'2 2091   3.126   7.447   7.122 -0.4613  0.3017 -1.5221
   78G      O3' 2092   2.961   7.345   7.000  0.2953 -0.2275 -0.1880
   79A        P 2093   2.867   7.464   6.952 -0.0369  0.0396  0.0121
   79A      O1P 2094   2.753   7.469   7.052 -0.2966  0.2978  0.6868
   79A      O2P 2095   2.841   7.436   6.807 -0.5347 -0.7050  0.0394
   79A      O5' 2096   2.956   7.595   6.963 -0.5235  1.1096  0.2860
   79A      C5' 2097   2.959   7.666   7.079  0.3682  0.2995 -0.2484
   79A     H5'1 2098   2.996   7.603   7.160  1.5940  0.2974 -0.7861
   79A     H5'2 2099   2.862   7.703   7.110  0.4216 -0.3801  0.7850
   79A      C4' 2100   3.053   7.796   7.065 -0.0021 -0.0163 -0.2313
   79A      H4' 2101   3.085   7.824   7.165  2.2069 -1.2984 -0.5315
   79A      O4' 2102   3.169   7.766   6.988  0.7296  0.3020 -0.2885
   79A      C1' 2103   3.215   7.877   6.922 -0.7742 -0.3397 -0.3340
   79A      H1' 2104   3.318   7.902   6.946  0.0020 -2.0436 -1.6913
   79A       N9 2105   3.222   7.846   6.777  0.0414 -0.4523 -0.4371
   79A       C8 2106   3.144   7.762   6.700 -0.9478 -0.4348 -0.4432
   79A       H8 2107   3.067   7.702   6.747  1.4846 -2.3207  1.3919
   79A       N7 2108   3.185   7.756   6.575 -0.0225  0.6544  0.2132
   79A       C5 2109   3.295   7.842   6.567  0.9465  0.1956  0.2389
   79A       C6 2110   3.384   7.875   6.463  0.2739 -0.3141  0.1501
   79A       N6 2111   3.378   7.818   6.343 -0.2708 -0.3327  0.4279
   79A      H61 2112   3.308   7.754   6.309 -0.8098  1.4916 -2.1994
   79A      H62 2113   3.451   7.851   6.282 -1.1461  2.6018  0.8088
   79A       N1 2114   3.470   7.976   6.478 -0.2720  0.3037  0.1351
   79A       C2 2115   3.477   8.021   6.604 -0.5261 -0.8014 -0.0199
   79A       H2 2116   3.552   8.095   6.627 -0.5228 -0.6547 -0.5036
   79A       N3 2117   3.410   7.993   6.713 -0.1065 -0.2053 -0.6647
   79A       C4 2118   3.320   7.894   6.688  0.3667  0.3639 -0.4400
   79A      C3' 2119   2.990   7.921   6.994 -0.5213 -0.4659  0.1927
   79A      H3' 2120   2.945   7.886   6.901 -2.0932  2.4469 -0.2725
   79A      C2' 2121   3.118   7.996   6.950 -0.0871 -0.1813 -0.6055
   79A     H2'1 2122   3.097   8.054   6.860  2.3500  2.1513  0.1742
   79A      O2' 2123   3.161   8.085   7.056 -0.1513  0.1812 -0.0808
   79A     HO'2 2124   3.112   8.168   7.052  2.2796  1.6828 -0.6536
   79A      O3' 2125   2.892   7.991   7.072  0.3023 -0.0272  0.5962
   80A        P 2126   2.791   8.083   6.999 -0.1559 -0.3354  0.3082
   80A      O1P 2127   2.694   8.137   7.093 -0.4353 -0.2447  0.6198
   80A      O2P 2128   2.736   8.004   6.892 -0.2274  0.0081 -0.3406
   80A      O5' 2129   2.885   8.199   6.939 -0.0903  0.0894  0.1552
   80A      C5' 2130   2.920   8.308   7.011 -0.2995  0.7347 -0.1440
   80A     H5'1 2131   2.956   8.282   7.110 -0.3178  0.4150 -0.2193
   80A     H5'2 2132   2.832   8.369   7.031 -1.4739 -0.3012 -1.8809
   80A      C4' 2133   3.020   8.393   6.929  0.4257  0.4976 -0.0750
   80A      H4' 2134   3.057   8.475   6.991 -0.5685  1.4899 -0.7427
   80A      O4' 2135   3.124   8.321   6.876  0.0619 -0.1876  0.3819
   80A      C1' 2136   3.165   8.366   6.744 -0.1034  0.3394  0.0477
   80A      H1' 2137   3.272   8.383   6.752  0.0638 -1.5231  4.6637
   80A       N9 2138   3.129   8.261   6.643 -0.2398 -0.0579 -0.6019
   80A       C8 2139   3.033   8.160   6.646 -0.4855 -0.2719  0.1212
   80A       H8 2140   2.966   8.137   6.728 -0.9935 -0.4300 -0.3281
   80A       N7 2141   3.027   8.092   6.538 -0.1836  0.3155 -0.2144
   80A       C5 2142   3.117   8.154   6.450  0.0775  0.1272 -0.7695
   80A       C6 2143   3.151   8.143   6.313  0.1388 -0.3506 -0.1075
   80A       N6 2144   3.109   8.048   6.231 -0.6026  0.0751 -0.2066
   80A      H61 2145   3.045   7.986   6.278 -3.0207  2.3451 -0.2510
   80A      H62 2146   3.175   8.029   6.157 -0.8837  0.7982 -0.6580
   80A       N1 2147   3.229   8.236   6.252 -0.0768  0.0948 -0.4328
   80A       C2 2148   3.282   8.330   6.329 -0.2984  0.1480 -0.0936
   80A       H2 2149   3.350   8.397   6.279  1.2429 -0.4386  1.1313
   80A       N3 2150   3.256   8.355   6.459  0.2666  0.6569 -0.0464
   80A       C4 2151   3.174   8.261   6.510  0.7821  0.3610 -0.4969
   80A      C3' 2152   2.955   8.470   6.817 -0.1331 -0.8660  0.2040
   80A      H3' 2153   2.878   8.420   6.757 -2.0629  2.3809 -0.2699
   80A      C2' 2154   3.077   8.490   6.723 -0.5810  0.5857  0.0206
   80A     H2'1 2155   3.054   8.513   6.619 -1.4888 -0.2731  0.0120
   80A      O2' 2156   3.165   8.587   6.769  0.3301 -0.1597 -0.0352
   80A     HO'2 2157   3.247   8.581   6.720  1.2635 -1.2143  1.5795
   80A      O3' 2158   2.910   8.594   6.860 -0.1045  0.5928 -0.0789
   81G        P 2159   2.795   8.670   6.788 -0.0598  0.2518  0.1913
   81G      O1P 2160   2.761   8.795   6.861 -0.5432 -0.4236 -0.5683
   81G      O2P 2161   2.687   8.573   6.782 -0.0750 -0.0629 -0.5854
   81G      O5' 2162   2.847   8.705   6.632  0.6980 -0.6972 -0.5164
   81G      C5' 2163   2.957   8.794   6.615  0.0637  0.6152  0.6833
   81G     H5'1 2164   3.035   8.780   6.690  2.0838 -0.1384 -1.4501
   81G     H5'2 2165   2.927   8.899   6.623 -0.5033  0.5259 -0.1109
   81G      C4' 2166   3.017   8.791   6.474 -0.2210 -0.5534  0.3693
   81G      H4' 2167   3.101   8.859   6.463 -1.3841  1.1693  1.6175
   81G      O4' 2168   3.054   8.661   6.449  0.1677 -0.0955  0.1249
   81G      C1' 2169   3.049   8.644   6.307  0.1815  0.7229 -0.5420
   81G      H1' 2170   3.152   8.651   6.272  0.8818  1.0845  1.4716
   81G       N9 2171   2.972   8.515   6.285 -0.2032  0.4016  0.1568
   81G       C8 2172   2.895   8.436   6.368 -0.1955 -0.6433  0.3859
   81G       H8 2173   2.857   8.464   6.465 -0.5202  1.7186 -0.3624
   81G       N7 2174   2.865   8.327   6.308  0.0855  0.5938 -1.1301
   81G       C5 2175   2.915   8.334   6.177  0.5619 -0.6860  0.2370
   81G       C6 2176   2.903   8.246   6.063 -0.4551  0.0493 -0.1887
   81G       O6 2177   2.849   8.136   6.050 -0.1572 -0.3881  0.0713
   81G       N1 2178   2.948   8.304   5.945  0.1744 -0.7202 -0.3032
   81G       H1 2179   2.926   8.251   5.862  0.3595 -0.3675 -0.5768
   81G       C2 2180   2.991   8.435   5.943  0.1263 -0.1227  0.1000
   81G       N2 2181   3.002   8.495   5.826 -0.1584 -0.1023 -0.0894
   81G      H21 2182   2.998   8.450   5.736 -1.7532  0.7705 -0.4946
   81G      H22 2183   3.040   8.589   5.838  0.9633 -0.8092  2.9980
   81G       N3 2184   3.009   8.515   6.046 -0.4389  0.1497  0.1411
   81G       C4 2185   2.968   8.459   6.162  0.9446 -0.3386 -0.6115
   81G      C3' 2186   2.909   8.819   6.366 -0.4593  0.5981 -0.8772
   81G      H3' 2187   2.816   8.768   6.388 -0.6694  1.5470  0.5474
   81G      C2' 2188   2.974   8.754   6.243 -0.0832  0.7069 -0.3994
   81G     H2'1 2189   2.899   8.708   6.179 -0.8294  0.2416  0.7581
   81G      O2' 2190   3.053   8.850   6.173  0.0264  0.4165  0.2421
   81G     HO'2 2191   3.047   8.923   6.235  0.6421 -0.7050  1.6783
   81G      O3' 2192   2.896   8.963   6.350  0.0740 -0.5435  0.5636
   82U        P 2193   2.761   9.029   6.297  0.2336  0.0867  0.1536
   82U      O1P 2194   2.795   9.165   6.265  0.2673 -0.2159  0.3031
   82U      O2P 2195   2.653   9.010   6.395 -0.2376 -0.0543 -0.3621
   82U      O5' 2196   2.719   8.953   6.163  0.3404 -0.0687  0.4433
   82U      C5' 2197   2.777   8.981   6.034  0.4287 -0.0801 -0.4793
   82U     H5'1 2198   2.886   8.978   6.028  0.4228 -2.6187 -0.6118
   82U     H5'2 2199   2.731   9.078   6.013 -0.9171 -0.4292  0.7077
   82U      C4' 2200   2.720   8.873   5.930 -0.8042 -0.3479 -0.2221
   82U      H4' 2201   2.745   8.911   5.830 -2.1827 -1.2449 -0.9382
   82U      O4' 2202   2.775   8.748   5.955  0.2814 -0.3679  0.1762
   82U      C1' 2203   2.675   8.649   5.930 -0.6368  0.1573  0.8748
   82U      H1' 2204   2.704   8.570   5.860  1.4052  1.4877  0.1282
   82U       N1 2205   2.635   8.583   6.060 -0.3402  0.1177 -0.7596
   82U       C6 2206   2.616   8.649   6.182 -0.2029  0.2095  0.1351
   82U       H6 2207   2.630   8.756   6.194  2.4254  0.0445 -0.8607
   82U       C5 2208   2.577   8.583   6.293 -0.1496  0.4239  0.3082
   82U       H5 2209   2.574   8.641   6.384  0.4060  0.6608  0.1782
   82U       C4 2210   2.558   8.437   6.292  0.1019  0.4305 -0.4102
   82U       O4 2211   2.508   8.368   6.386  0.3573 -0.6437  0.1175
   82U       N3 2212   2.569   8.376   6.165 -0.1434 -0.0297  0.9254
   82U       H3 2213   2.550   8.277   6.163 -1.9841  0.3035 -0.6211
   82U       C2 2214   2.607   8.445   6.051 -0.1801  0.0376  0.0687
   82U       O2 2215   2.603   8.386   5.943  0.2933 -0.6307 -0.4179
   82U      C3' 2216   2.565   8.860   5.931 -0.8225 -0.1307 -0.1588
   82U      H3' 2217   2.534   8.869   6.035 -2.9404  2.0308 -0.8728
   82U      C2' 2218   2.560   8.720   5.867  0.1994  0.4045  0.1964
   82U     H2'1 2219   2.462   8.672   5.875  0.1609  0.4021 -0.2569
   82U      O2' 2220   2.586   8.722   5.730  0.0643 -0.5965  0.6296
   82U     HO'2 2221   2.509   8.751   5.681  1.4055  1.4757 -0.4092
   82U      O3' 2222   2.510   8.961   5.856 -0.6350 -0.4154 -0.2878
   83G        P 2223   2.356   8.983   5.869 -0.2228 -0.3953  0.3500
   83G      O1P 2224   2.315   9.112   5.820  0.0693 -1.0472 -0.1990
   83G      O2P 2225   2.315   8.948   6.004  0.0593  0.5346  0.7265
   83G      O5' 2226   2.306   8.878   5.776  0.1307  0.1026 -0.0377
   83G      C5' 2227   2.300   8.895   5.636 -0.7182  0.0507 -0.0721
   83G     H5'1 2228   2.398   8.916   5.592 -0.4403  1.4395  1.1336
   83G     H5'2 2229   2.234   8.977   5.606 -0.6974  0.1412  0.1283
   83G      C4' 2230   2.246   8.768   5.564  0.3744  0.1605  0.5828
   83G      H4' 2231   2.257   8.781   5.456  1.4554 -1.3421  0.4780
   83G      O4' 2232   2.325   8.657   5.601 -0.4367 -0.3079  0.4361
   83G      C1' 2233   2.240   8.536   5.579 -0.0386 -0.3949 -0.2058
   83G      H1' 2234   2.283   8.480   5.496  0.5547 -1.2343  0.6391
   83G       N9 2235   2.238   8.458   5.703 -0.0905 -0.0949  0.7486
   83G       C8 2236   2.233   8.500   5.831 -0.4716  0.0692  0.1129
   83G       H8 2237   2.226   8.603   5.863 -0.7788 -0.8470  3.3091
   83G       N7 2238   2.234   8.403   5.923 -0.0927  0.0991 -0.1192
   83G       C5 2239   2.238   8.287   5.836 -0.2481 -0.2343 -0.3739
   83G       C6 2240   2.246   8.140   5.858  0.0709 -0.1082 -0.0009
   83G       O6 2241   2.235   8.076   5.959 -0.2586  0.1811 -0.5178
   83G       N1 2242   2.259   8.069   5.743  0.2268 -0.1956  0.4078
   83G       H1 2243   2.273   7.970   5.758 -1.1069 -0.4287  0.2400
   83G       C2 2244   2.249   8.117   5.617  0.0612 -0.5457  0.4830
   83G       N2 2245   2.256   8.035   5.514  0.1178 -0.2610 -0.0854
   83G      H21 2246   2.254   7.937   5.541  1.3121 -0.5061 -0.8169
   83G      H22 2247   2.288   8.063   5.423 -1.5332 -0.5410 -0.7854
   83G       N3 2248   2.254   8.248   5.590  0.1552 -1.0803  0.3876
   83G       C4 2249   2.245   8.327   5.704  0.5744  0.4414  0.2624
   83G      C3' 2250   2.101   8.730   5.593 -0.1878 -0.2166 -0.0744
   83G      H3' 2251   2.086   8.741   5.700 -1.7046  1.4659 -0.4248
   83G      C2' 2252   2.096   8.583   5.549 -0.4526  0.2289 -0.1891
   83G     H2'1 2253   2.024   8.526   5.607  2.0151 -1.6001  1.3092
   83G      O2' 2254   2.078   8.570   5.409 -0.0488 -0.5476 -0.3143
   83G     HO'2 2255   2.026   8.647   5.387 -0.9330 -1.2903 -0.9041
   83G      O3' 2256   2.013   8.807   5.515  0.2189  0.4029  0.5101
   83G      H3T 2257   1.979   8.876   5.573  0.7516  0.8048  0.3574
   84SOL     OW 2258   3.366   5.345   2.519 -0.4967  0.3010 -0.2417
   84SOL    HW1 2259   3.345   5.417   2.578 -0.8600  0.4382 -0.5392
   84SOL    HW2 2260   3.426   5.383   2.455 -0.4265  0.2537 -0.2048
   85SOL     OW 2261   9.098   0.932   1.222 -0.0190 -0.6647  0.4275
   85SOL    HW1 2262   9.186   0.932   1.185 -0.0731  0.9576  0.1847
   85SOL    HW2 2263   9.040   0.915   1.148 -0.0189  0.6871  0.0889
   86SOL     OW 2264   6.018   7.059  10.325 -0.5054 -0.5053  0.2784
   86SOL    HW1 2265   6.076   7.115  10.274 -1.3130  0.9662  0.9148
   86SOL    HW2 2266   5.969   7.010  10.260  1.9549 -2.4419 -0.2936
   87SOL     OW 2267  10.483   6.377   9.233 -0.0888 -0.2680 -0.0707
   87SOL    HW1 2268  10.465   6.291   9.271 -0.2647 -0.1179  0.1936
   87SOL    HW2 2269  10.550   6.361   9.167  0.7654 -0.4201  0.8156
   88SOL     OW 2270   0.970   0.935   1.467  0.1427 -0.1064 -0.1190
   88SOL    HW1 2271   0.893   0.878   1.475  0.3747 -0.5768 -1.1080
   88SOL    HW2 2272   1.033   0.883   1.418  0.8116  0.5599  0.0258
   89SOL     OW 2273   5.115   1.534   2.257 -0.1507  0.5983 -0.7397
   89SOL    HW1 2274   5.027   1.506   2.233 -0.7481  2.6530 -1.1733
   89SOL    HW2 2275   5.161   1.542   2.174  0.2585  0.1410 -0.5611
   90SOL     OW 2276   1.996  10.320   0.220 -0.9176  0.3960  0.6497
   90SOL    HW1 2277   1.936  10.249   0.195 -0.0307 -0.7042  1.5591
   90SOL    HW2 2278   1.938  10.387   0.257 -1.5505 -1.0713  2.4656
   91SOL     OW 2279   9.825   4.773   4.171  0.0787  0.0281 -0.1491
   91SOL    HW1 2280   9.751   4.722   4.139 -0.2644  0.8870 -0.7683
   91SOL    HW2 2281   9.789   4.826   4.242  0.3119 -0.1907  0.1385
   92SOL     OW 2282   9.762   1.454   6.348 -0.0167 -0.1441  0.0002
   92SOL    HW1 2283   9.734   1.363   6.339 -1.3093  0.2221  0.1092
   92SOL    HW2 2284   9.838   1.450   6.406 -0.2095 -1.1337  0.2064
   93SOL     OW 2285   9.195   8.196   2.452  0.1984  0.2772  0.1986
   93SOL    HW1 2286   9.197   8.118   2.397 -2.1809  2.1742 -2.9398
   93SOL    HW2 2287   9.238   8.263   2.399 -0.3719  1.7726  1.5599
   94SOL     OW 2288   6.421   8.221  10.956 -0.0988 -0.3718  0.2742
   94SOL    HW1 2289   6.335   8.251  10.988 -1.4504 -1.9208 -1.6246
   94SOL    HW2 2290   6.405   8.132  10.924  1.6790  0.0680 -2.1507
   95SOL     OW 2291   3.800   0.129   2.417  0.4551  0.0101 -0.2573
   95SOL    HW1 2292   3.844   0.045   2.429 -0.0045 -0.1671  0.2456
   95SOL    HW2 2293   3.871   0.191   2.402  0.7547 -0.5767 -1.3627
   96SOL     OW 2294   3.972   9.417   5.648  0.3428 -0.4937  0.2788
   96SOL    HW1 2295   4.045   9.416   5.585  0.4392 -0.4541  0.3892
   96SOL    HW2 2296   4.006   9.466   5.723 -0.5318  1.5297 -0.5539
   97SOL     OW 2297   2.766   5.283   1.390 -0.1893  0.0909 -0.3457
   97SOL    HW1 2298   2.680   5.241   1.389 -0.7040  1.1144 -1.1796
   97SOL    HW2 2299   2.774   5.325   1.305  1.3706 -0.4079 -0.4747
   98SOL     OW 2300   1.145   3.399   3.586 -0.2408 -0.2597 -0.2747
   98SOL    HW1 2301   1.060   3.359   3.567 -1.6141  0.5460  3.3516
   98SOL    HW2 2302   1.131   3.493   3.572  0.6402 -0.2728 -1.3719
   99SOL     OW 2303   8.479   0.136   9.243  0.5519  0.0685  0.2965
   99SOL    HW1 2304   8.493   0.195   9.169 -1.0165  0.9594  0.6623
   99SOL    HW2 2305   8.464   0.050   9.203 -3.8414  1.0960 -0.8308
  100SOL     OW 2306   5.011  10.519   1.210  0.0892 -0.2469 -0.2007
  100SOL    HW1 2307   4.953  10.591   1.187  0.7411  0.8182  1.3221
  100SOL    HW2 2308   5.084  10.560   1.256  0.2589 -1.9121  1.1371
  101SOL     OW 2309   5.671  10.214   2.135 -0.6240  0.1552  0.7334
  101SOL    HW1 2310   5.641  10.127   2.111  0.5372 -0.0389 -0.1019
  101SOL    HW2 2311   5.757  10.200   2.174 -0.5659  0.9003  0.8917
  102SOL     OW 2312   5.690   8.607   0.961  0.1878 -0.3164  0.3624
  102SOL    HW1 2313   5.684   8.688   0.911 -0.7007  0.2035  1.2972
  102SOL    HW2 2314   5.761   8.621   1.023  1.0965 -0.8578 -0.5103
  103SOL     OW 2315   3.869   8.413   4.259  0.3684  0.3710 -0.1888
  103SOL    HW1 2316   3.921   8.379   4.332 -0.2432 -0.9808 -0.3565
  103SOL    HW2 2317   3.874   8.345   4.192 -1.6051  0.1994 -0.2022
  104SOL     OW 2318  10.845   4.887   2.148  0.1376 -0.8748  0.0725
  104SOL    HW1 2319  10.867   4.900   2.056 -0.7019  2.8583  0.2478
  104SOL    HW2 2320  10.752   4.864   2.148 -0.4301  1.1992 -0.0406
  105SOL     OW 2321   3.586   9.661   2.677  0.7008  0.4231  0.3321
  105SOL    HW1 2322   3.549   9.698   2.757  0.5140  0.5618  0.1848
  105SOL    HW2 2323   3.633   9.734   2.637 -1.0325  0.9999 -0.7944
  106SOL     OW 2324   2.539   4.309   1.274  0.0384 -0.0667  0.2601
  106SOL    HW1 2325   2.468   4.245   1.277 -0.0929  0.0982  0.9956
  106SOL    HW2 2326   2.513   4.370   1.205 -0.6356  0.0993  0.6497
  107SOL     OW 2327   5.492   3.027   9.187 -0.5219 -0.2863  0.5089
  107SOL    HW1 2328   5.527   2.983   9.110 -0.7521 -0.1754  0.3385
  107SOL    HW2 2329   5.397   3.032   9.170 -0.7857 -1.5513  1.4323
  108SOL     OW 2330   1.002   4.822   4.324  0.1282 -0.7657  0.0807
  108SOL    HW1 2331   1.039   4.891   4.380  1.2144 -1.1060 -0.1983
  108SOL    HW2 2332   1.048   4.831   4.241 -0.9465 -0.7498 -0.5281
  109SOL     OW 2333  10.144   9.806   8.988 -0.4877  0.3263 -0.2775
  109SOL    HW1 2334  10.054   9.773   8.982 -0.4539  0.1837 -0.0383
  109SOL    HW2 2335  10.185   9.749   9.053 -0.0197 -0.0770 -0.9091
  110SOL     OW 2336   9.304  10.862   0.449  0.7161  0.2110  0.7174
  110SOL    HW1 2337   9.251  10.871   0.528  0.5688 -0.3620  0.6859
  110SOL    HW2 2338   9.391  10.891   0.475  0.2550  1.7935  0.5986
  111SOL     OW 2339  11.099  10.662  10.365 -0.0455  0.4505 -0.1646
  111SOL    HW1 2340  11.043  10.677  10.441  0.4242 -0.4063  0.3652
  111SOL    HW2 2341  11.149  10.743  10.356  0.4916  0.2573  0.9601
  112SOL     OW 2342   8.729  10.020   5.129  0.3438  0.0284 -0.1080
  112SOL    HW1 2343   8.687   9.991   5.210 -1.3186  0.1852 -0.8881
  112SOL    HW2 2344   8.789  10.089   5.157  0.0696 -0.1749  1.0360
  113SOL     OW 2345   6.891   0.046   2.609  0.1544  0.2618  0.1428
  113SOL    HW1 2346   6.905   0.141   2.605  0.6096  0.1646 -0.7677
  113SOL    HW2 2347   6.797   0.037   2.625 -0.0531  0.8637 -0.6472
  114SOL     OW 2348   0.434   8.724  10.972 -0.1967 -0.0599  0.0231
  114SOL    HW1 2349   0.341   8.721  10.995  0.2515 -1.0294  1.9438
  114SOL    HW2 2350   0.475   8.769  11.046  0.9446 -0.1904 -0.5128
  115SOL     OW 2351   8.653   4.828   4.758 -0.3609 -1.1663 -0.0923
  115SOL    HW1 2352   8.722   4.820   4.691 -1.4690 -1.0105 -1.3074
  115SOL    HW2 2353   8.644   4.740   4.794  1.1241 -0.9888  0.7872
  116SOL     OW 2354   7.549   0.190   0.811  0.5290 -0.1924 -0.2240
  116SOL    HW1 2355   7.458   0.173   0.788  0.9761 -1.9263 -0.9077
  116SOL    HW2 2356   7.598   0.121   0.766  1.9743 -0.6532  1.8975
  117SOL     OW 2357   8.867   7.810   5.128 -0.8655  0.4191  0.0720
  117SOL    HW1 2358   8.929   7.743   5.099 -0.0054  0.2102  2.2133
  117SOL    HW2 2359   8.922   7.880   5.163 -1.7690  1.9671 -1.4701
  118SOL     OW 2360   3.616   5.093   4.747  0.1992  0.3185  0.2535
  118SOL    HW1 2361   3.690   5.044   4.782 -0.0993 -0.0080  0.4260
  118SOL    HW2 2362   3.603   5.164   4.811  0.2038  0.2326  0.3497
  119SOL     OW 2363   2.273   7.025   9.452 -0.7462  0.0867  0.2999
  119SOL    HW1 2364   2.274   6.971   9.530 -1.2866 -0.1838  0.1220
  119SOL    HW2 2365   2.328   7.100   9.474 -2.1073  0.7929  1.5052
  120SOL     OW 2366   2.371   1.350   8.223 -0.2694  0.0219  0.0190
  120SOL    HW1 2367   2.453   1.367   8.268 -0.0865 -2.1719  0.6481
  120SOL    HW2 2368   2.381   1.261   8.188 -2.6863 -0.6678  0.8830
  121SOL     OW 2369   7.560   9.447   2.794 -0.2600  0.6203 -1.0794
  121SOL    HW1 2370   7.479   9.489   2.765  0.9493  3.6518 -0.4556
  121SOL    HW2 2371   7.626   9.477   2.732  1.2926  2.5435  1.3292
  122SOL     OW 2372   3.732   1.691   2.444  0.1217  0.2082 -0.4702
  122SOL    HW1 2373   3.691   1.740   2.515  2.1134  0.5346  0.5559
  122SOL    HW2 2374   3.804   1.644   2.487 -0.2584 -1.7205 -1.8456
  123SOL     OW 2375   0.152   3.909   8.879 -0.0417  0.3075 -0.0213
  123SOL    HW1 2376   0.084   3.881   8.818 -1.2433  0.9717  0.9545
  123SOL    HW2 2377   0.198   3.980   8.833  1.3237 -1.4131 -1.4564
  124SOL     OW 2378   2.034   5.732  10.897  0.5789  0.4600 -0.0264
  124SOL    HW1 2379   2.011   5.702  10.809 -0.4515 -0.1036  0.4300
  124SOL    HW2 2380   2.025   5.828  10.892  1.6459  0.5436 -0.8334
  125SOL     OW 2381  10.092   3.133   9.590  0.3362  0.7822 -0.2522
  125SOL    HW1 2382  10.112   3.144   9.683  0.4237  0.8846 -0.2841
  125SOL    HW2 2383   9.997   3.121   9.587  0.5006 -0.7548 -0.0083
  126SOL     OW 2384   6.772  10.321   1.545 -0.2225 -0.2460 -0.0879
  126SOL    HW1 2385   6.833  10.355   1.480 -0.6747 -1.4413 -1.1763
  126SOL    HW2 2386   6.827  10.271   1.606 -0.2939 -4.2482 -2.9457
  127SOL     OW 2387   2.228   4.343  10.324 -0.2436  0.4167 -0.2104
  127SOL    HW1 2388   2.256   4.425  10.283  1.8102  0.2616  0.7809
  127SOL    HW2 2389   2.254   4.353  10.416 -1.2439 -0.7971  0.2181
  128SOL     OW 2390   9.328   2.464   6.266  0.0940 -0.3880  0.1125
  128SOL    HW1 2391   9.250   2.511   6.297 -1.1498 -1.0519 -1.8589
  128SOL    HW2 2392   9.394   2.482   6.333 -1.4595  0.9714  1.3793
  129SOL     OW 2393   2.128   5.856   2.111  0.1732 -0.0848  0.4795
  129SOL    HW1 2394   2.184   5.919   2.157  1.6768 -1.8149  1.1185
  129SOL    HW2 2395   2.186   5.812   2.049 -0.7506 -1.0789  0.2793
  130SOL     OW 2396   7.030   4.506   9.625  0.1802  0.4073  0.2111
  130SOL    HW1 2397   7.021   4.493   9.719 -2.9319  0.2022 -0.0003
  130SOL    HW2 2398   7.098   4.573   9.616  0.7688  0.1922  2.5634
  131SOL     OW 2399   2.738   1.179   5.809 -0.4764 -0.0969  0.5969
  131SOL    HW1 2400   2.699   1.135   5.884  0.0931  1.6247  1.9944
  131SOL    HW2 2401   2.673   1.172   5.740 -2.7327  1.4616  2.3915
  132SOL     OW 2402   4.190   3.399   4.779 -0.0885 -0.5873  0.5424
  132SOL    HW1 2403   4.114   3.405   4.721  0.5774 -2.0587 -0.5610
  132SOL    HW2 2404   4.183   3.475   4.837 -2.6337 -0.9200  0.7870
  133SOL     OW 2405   8.681  10.841   1.447  0.6950  0.1432  1.1076
  133SOL    HW1 2406   8.587  10.831   1.463  0.7693  0.8705  2.1124
  133SOL    HW2 2407   8.700  10.782   1.375 -0.0226 -2.0293  2.6015
  134SOL     OW 2408   1.830   5.587   1.011  0.0711 -0.3163 -0.1414
  134SOL    HW1 2409   1.821   5.669   1.060 -0.3506 -1.7901  2.4497
  134SOL    HW2 2410   1.907   5.545   1.048  0.9318 -0.6573 -2.1984
  135SOL     OW 2411   6.224   4.937   1.633 -0.3041  0.4427  0.3271
  135SOL    HW1 2412   6.196   4.927   1.724  1.4907  0.3602  0.9088
  135SOL    HW2 2413   6.233   4.847   1.602 -4.5659  0.3596 -1.2228
  136SOL     OW 2414   8.639   3.454  10.127 -0.3224 -0.4833  0.1923
  136SOL    HW1 2415   8.663   3.399  10.051 -1.5956  0.7844 -1.1908
  136SOL    HW2 2416   8.715   3.447  10.185  0.4413 -2.0234 -0.8760
  137SOL     OW 2417   4.771   0.356   0.752  0.9783 -0.3748 -0.5965
  137SOL    HW1 2418   4.741   0.266   0.742  0.1858 -0.3289  1.0528
  137SOL    HW2 2419   4.745   0.399   0.671  0.7300 -1.4509 -1.1085
  138SOL     OW 2420   2.779   7.682  10.899 -0.5629 -0.1378 -0.3836
  138SOL    HW1 2421   2.851   7.620  10.912 -0.0657  0.7592  1.5106
  138SOL    HW2 2422   2.723   7.670  10.976 -0.0288  2.2830  0.4475
  139SOL     OW 2423   4.924   2.329   4.516 -0.0233  0.1528  0.0440
  139SOL    HW1 2424   4.992   2.315   4.451 -0.9026 -0.4599 -0.7743
  139SOL    HW2 2425   4.970   2.363   4.592  1.3211 -1.0324 -0.1970
  140SOL     OW 2426   2.769   5.733   3.409  0.0563  0.1634 -0.2743
  140SOL    HW1 2427   2.757   5.758   3.500  0.1415 -2.3719  0.5030
  140SOL    HW2 2428   2.775   5.816   3.362 -0.5992  1.5369  1.9226
  141SOL     OW 2429   5.634   1.259  10.256 -0.5285  0.1564 -0.5660
  141SOL    HW1 2430   5.706   1.319  10.239 -2.1632  1.8683 -1.8580
  141SOL    HW2 2431   5.674   1.172  10.253  1.7511  1.0948  0.4942
  142SOL     OW 2432   3.274   8.869   1.831  0.0734  0.0846  0.3700
  142SOL    HW1 2433   3.322   8.933   1.777  0.3085 -0.6776 -0.3459
  142SOL    HW2 2434   3.306   8.884   1.920  2.7315 -1.2795 -0.2414
  143SOL     OW 2435   9.342   8.804   2.064  0.1637  0.1751 -0.2137
  143SOL    HW1 2436   9.249   8.826   2.073  0.4507  1.4109  0.0311
  143SOL    HW2 2437   9.381   8.834   2.147  1.0817  1.4605 -1.0770
  144SOL     OW 2438  11.029   8.699   2.170 -0.2932  0.0931 -0.3300
  144SOL    HW1 2439  11.033   8.647   2.089 -1.2397  0.2457 -0.4936
  144SOL    HW2 2440  11.011   8.788   2.140  0.8062  0.4321 -0.0209
  145SOL     OW 2441   9.616   3.176   2.573  0.2712  0.0340  0.2588
  145SOL    HW1 2442   9.663   3.101   2.536 -1.7468 -1.0408 -0.2971
  145SOL    HW2 2443   9.614   3.159   2.667 -0.4844 -0.8334  0.0986
  146SOL     OW 2444   8.675  10.968   8.312 -0.0625  0.0452  0.2307
  146SOL    HW1 2445   8.677  10.990   8.405  0.2194 -1.8565  0.7345
  146SOL    HW2 2446   8.582  10.966   8.290 -0.1364  0.4088  0.4951
  147SOL     OW 2447   4.417   4.806   7.513  0.0483 -0.3903  0.2269
  147SOL    HW1 2448   4.338   4.856   7.492 -0.2649 -0.3613  1.4059
  147SOL    HW2 2449   4.487   4.855   7.470 -0.3665  0.5603  0.5985
  148SOL     OW 2450  10.555  10.059   0.314 -0.6598  0.0151  0.0721
  148SOL    HW1 2451  10.477  10.047   0.260 -0.3220 -0.0258 -0.4163
  148SOL    HW2 2452  10.627  10.065   0.251 -0.3487  0.7379  0.4820
  149SOL     OW 2453   4.546  10.228   1.149  0.0928  0.1145  0.4923
  149SOL    HW1 2454   4.626  10.245   1.200  0.2809  3.4829 -0.6438
  149SOL    HW2 2455   4.475  10.261   1.204  0.0275  1.3756 -0.3081
  150SOL     OW 2456   5.708   0.757   7.122 -0.3526  0.0748 -0.0636
  150SOL    HW1 2457   5.763   0.695   7.169 -0.1182  0.7458  0.5603
  150SOL    HW2 2458   5.645   0.788   7.187 -0.5837  0.3487 -0.4149
  151SOL     OW 2459   9.460   0.666   1.946 -0.1788  0.7744  0.9242
  151SOL    HW1 2460   9.377   0.673   1.995 -0.0010  0.0857  1.3490
  151SOL    HW2 2461   9.474   0.753   1.910 -1.5325  0.7005  0.1219
  152SOL     OW 2462   4.791   8.696   4.088 -0.5187 -0.0465  0.1823
  152SOL    HW1 2463   4.803   8.601   4.092  0.2159 -0.0402 -1.1033
  152SOL    HW2 2464   4.792   8.716   3.994  1.7258  1.4894  0.4310
  153SOL     OW 2465  10.017   1.733  10.195 -0.1168  0.2095  0.5913
  153SOL    HW1 2466  10.101   1.744  10.150  0.1963 -1.2789  0.7507
  153SOL    HW2 2467   9.952   1.730  10.125  0.2854 -1.3257  0.2502
  154SOL     OW 2468   9.605   0.470   1.820 -0.1543  0.4681 -0.2828
  154SOL    HW1 2469   9.548   0.530   1.868 -1.5124 -0.3851 -0.7607
  154SOL    HW2 2470   9.688   0.517   1.811 -0.7886  1.7670  0.3992
  155SOL     OW 2471   2.228   2.225   1.105 -0.0678  0.0550 -0.0154
  155SOL    HW1 2472   2.243   2.270   1.188  2.1147 -0.9565  0.2333
  155SOL    HW2 2473   2.138   2.194   1.110  0.4657 -1.3684  2.7482
  156SOL     OW 2474   1.260   9.584   1.485 -0.1308  0.6028  0.4726
  156SOL    HW1 2475   1.355   9.600   1.488  0.0463 -0.0333 -0.9144
  156SOL    HW2 2476   1.225   9.659   1.437 -0.3423  0.8372  0.9844
  157SOL     OW 2477   7.685   2.013   0.652 -0.1845  0.4707 -0.4842
  157SOL    HW1 2478   7.616   1.954   0.624  2.2195 -2.9024  0.0586
  157SOL    HW2 2479   7.762   1.987   0.601  1.5098  1.8213  1.1962
  158SOL     OW 2480   3.274   1.468   9.582  0.0664  0.0415 -0.3730
  158SOL    HW1 2481   3.274   1.545   9.640 -0.3314 -0.2665  0.0443
  158SOL    HW2 2482   3.252   1.395   9.640 -0.3513 -0.2730 -0.9201
  159SOL     OW 2483   0.802   1.109   8.177 -0.0675 -0.0443 -0.4106
  159SOL    HW1 2484   0.860   1.163   8.230 -0.8945 -0.0275  0.5038
  159SOL    HW2 2485   0.715   1.146   8.191 -0.4396 -0.7084 -0.9235
  160SOL     OW 2486  11.021  10.497   7.705 -0.0442  0.2293  0.2635
  160SOL    HW1 2487  10.952  10.432   7.716 -0.7970  0.8638 -0.6092
  160SOL    HW2 2488  11.074  10.463   7.632 -0.5276  0.6403 -0.2962
  161SOL     OW 2489   1.009   5.211   4.848 -0.0444 -0.2372 -0.0841
  161SOL    HW1 2490   0.916   5.206   4.828  0.1475  1.3969 -1.6404
  161SOL    HW2 2491   1.030   5.304   4.841  1.5916 -0.5002  0.8217
  162SOL     OW 2492   0.848   1.621   1.116  0.0224  0.3480 -0.0340
  162SOL    HW1 2493   0.917   1.591   1.176  0.2708  2.9703  1.1144
  162SOL    HW2 2494   0.789   1.546   1.109  0.8654 -0.6286  2.1851
  163SOL     OW 2495   7.831   7.894   9.685  0.0623  0.2578 -0.2408
  163SOL    HW1 2496   7.865   7.976   9.650 -0.4027  0.7216  0.3747
  163SOL    HW2 2497   7.740   7.913   9.706  0.0264 -0.3432  0.1599
  164SOL     OW 2498   0.028   1.691  10.112  0.2831  0.4377 -0.4505
  164SOL    HW1 2499   0.030   1.601  10.080 -1.0998  0.9527 -2.1649
  164SOL    HW2 2500  -0.013   1.686  10.198  0.9730 -0.6405 -0.1734
  165SOL     OW 2501   5.131   7.014  10.342  0.1726 -0.1925  0.0102
  165SOL    HW1 2502   5.123   7.103  10.309 -0.0580 -0.3928 -0.4816
  165SOL    HW2 2503   5.042   6.990  10.368  0.3099 -0.1200  0.5766
  166SOL     OW 2504   2.808   4.899   0.137  0.1976 -0.6499 -0.1849
  166SOL    HW1 2505   2.866   4.823   0.144  0.3035 -0.6897 -1.3685
  166SOL    HW2 2506   2.796   4.912   0.043 -1.6239 -0.5738  0.0100
  167SOL     OW 2507   9.559   5.445   9.545  0.4867  0.3252  0.2610
  167SOL    HW1 2508   9.562   5.478   9.455 -0.6311 -0.9172 -0.2666
  167SOL    HW2 2509   9.499   5.504   9.590  0.4784  0.5191  0.0003
  168SOL     OW 2510   8.170   1.285   0.739  0.1458 -0.5144  0.1101
  168SOL    HW1 2511   8.178   1.277   0.644 -0.7280 -0.0567 -0.0150
  168SOL    HW2 2512   8.255   1.257   0.773  0.2881 -1.2108 -0.7738
  169SOL     OW 2513   9.638   0.877   4.716 -0.1005 -0.0043  0.0895
  169SOL    HW1 2514   9.730   0.905   4.720  0.4515 -1.6784  0.1355
  169SOL    HW2 2515   9.615   0.885   4.623  0.4234 -0.5161 -0.0923
  170SOL     OW 2516   2.535   1.596   3.126  0.3779 -0.1765 -0.4054
  170SOL    HW1 2517   2.442   1.619   3.136  0.3898 -0.5820  0.7427
  170SOL    HW2 2518   2.535   1.524   3.064  0.1056  1.0440 -1.8851
  171SOL     OW 2519   2.905  10.868   0.205  0.2032 -0.6113  0.3113
  171SOL    HW1 2520   2.977  10.904   0.154 -0.4780 -0.6208 -0.6918
  171SOL    HW2 2521   2.851  10.822   0.141 -0.8375 -0.3849  0.9949
  172SOL     OW 2522   4.813   0.148   7.505  0.3363  0.1096 -0.0678
  172SOL    HW1 2523   4.877   0.179   7.441 -0.2323 -0.8689 -1.1497
  172SOL    HW2 2524   4.835   0.194   7.586  1.8413  0.4548 -0.6498
  173SOL     OW 2525   0.331   5.270   3.967 -0.2628  0.3310 -0.5459
  173SOL    HW1 2526   0.410   5.253   3.915 -0.5419 -0.6142 -0.6798
  173SOL    HW2 2527   0.328   5.365   3.974  0.8623  0.3869 -0.5784
  174SOL     OW 2528   3.427  10.432   9.918  0.0662 -0.4188 -0.1803
  174SOL    HW1 2529   3.440  10.451   9.825  1.6138  1.7308  0.4085
  174SOL    HW2 2530   3.505  10.383   9.944  0.5033  0.5420  0.3562
  175SOL     OW 2531   7.455   8.464   1.997  0.5044  0.6072 -0.4609
  175SOL    HW1 2532   7.365   8.493   2.016  0.1555 -1.1328  0.8027
  175SOL    HW2 2533   7.467   8.386   2.052  2.7803  0.7564 -0.6586
  176SOL     OW 2534   4.377   8.653   9.791  0.5072  0.0374 -0.5434
  176SOL    HW1 2535   4.400   8.587   9.857  0.4200 -1.2013 -1.7233
  176SOL    HW2 2536   4.422   8.733   9.820  1.0458 -0.6677  0.6184
  177SOL     OW 2537   5.297   2.496   6.500  0.4627 -0.3049 -0.1144
  177SOL    HW1 2538   5.393   2.500   6.501  0.4701  0.4963 -1.2526
  177SOL    HW2 2539   5.274   2.522   6.410 -0.7932 -1.1753 -0.0548
  178SOL     OW 2540   0.583   5.439   7.556 -0.1276  0.7248 -0.1696
  178SOL    HW1 2541   0.555   5.503   7.490 -0.8727  0.0696 -0.5055
  178SOL    HW2 2542   0.510   5.377   7.561  0.3290  0.2410  0.5922
  179SOL     OW 2543   7.390   1.237  10.336  0.2944 -0.0592  0.0277
  179SOL    HW1 2544   7.421   1.196  10.417  0.6251 -0.1946 -0.1643
  179SOL    HW2 2545   7.341   1.168  10.292  1.0603 -0.3358 -0.4136
  180SOL     OW 2546   3.122   4.428   1.201  0.6757  0.1982 -0.3648
  180SOL    HW1 2547   3.134   4.484   1.125 -1.0069  1.1809  0.0375
  180SOL    HW2 2548   3.163   4.477   1.273 -0.2727  0.6733 -0.1263
  181SOL     OW 2549   2.965   0.161   8.052 -0.3233 -0.5213  0.1155
  181SOL    HW1 2550   2.945   0.197   7.966  0.0563  1.5199  0.8170
  181SOL    HW2 2551   2.953   0.235   8.112  0.5368 -1.5877  1.6748
  182SOL     OW 2552   1.853   5.854   0.736 -0.2734  0.6889 -0.0586
  182SOL    HW1 2553   1.843   5.850   0.831 -0.7415  0.7562 -0.0999
  182SOL    HW2 2554   1.947   5.860   0.722 -0.1466 -0.1177  0.3699
  183SOL     OW 2555   4.412   1.736   7.706  0.2699 -0.5498  0.2729
  183SOL    HW1 2556   4.366   1.819   7.718  3.6125  1.5014  0.1732
  183SOL    HW2 2557   4.441   1.712   7.794 -0.0537 -1.2681  0.1941
  184SOL     OW 2558   2.121   7.811   9.113 -0.2813  0.3592 -0.0337
  184SOL    HW1 2559   2.045   7.867   9.096  0.1731  1.2944  0.9481
  184SOL    HW2 2560   2.123   7.802   9.209  0.4898 -0.1728 -0.0932
  185SOL     OW 2561   3.109   0.173   3.054  0.3396 -0.1038  0.0261
  185SOL    HW1 2562   3.021   0.182   3.091  1.3204  0.9317  2.2915
  185SOL    HW2 2563   3.145   0.095   3.096 -0.0104 -1.4819 -2.1177
  186SOL     OW 2564   4.053   0.390   8.509  0.2737  0.1196 -0.0354
  186SOL    HW1 2565   3.993   0.424   8.442  1.5616  0.3207 -1.1262
  186SOL    HW2 2566   4.112   0.332   8.461 -0.3538 -1.8098  1.3777
  187SOL     OW 2567  10.949   7.037   7.595 -0.3233  0.9438 -0.4200
  187SOL    HW1 2568  11.043   7.023   7.600 -0.2411  1.8547  1.2661
  187SOL    HW2 2569  10.920   7.037   7.686 -2.2315 -0.9483 -0.9556
  188SOL     OW 2570   1.216  10.015   1.102 -0.2671 -0.3572  0.2682
  188SOL    HW1 2571   1.307   9.992   1.085 -0.4185 -0.6730 -0.1306
  188SOL    HW2 2572   1.171   9.997   1.020 -0.5034  0.8240  0.1288
  189SOL     OW 2573   2.321   8.135   5.263 -0.1064  0.1120 -0.4439
  189SOL    HW1 2574   2.276   8.099   5.187 -1.3213 -0.3889  0.4792
  189SOL    HW2 2575   2.347   8.223   5.236  0.9234 -0.6123 -1.9670
  190SOL     OW 2576   4.751  10.065   4.357 -0.6204 -0.4562 -0.8406
  190SOL    HW1 2577   4.811  10.002   4.397 -1.3174 -2.0138 -2.1490
  190SOL    HW2 2578   4.719  10.117   4.431 -0.5372 -2.0917  0.4109
  191SOL     OW 2579   3.833   6.514  10.478  0.3675  0.3000 -0.5084
  191SOL    HW1 2580   3.826   6.550  10.389 -0.1802 -0.9529 -0.9910
  191SOL    HW2 2581   3.915   6.549  10.511  0.5375  0.8633 -1.4771
  192SOL     OW 2582   0.914   0.327   6.771  0.0335 -0.2190 -0.0299
  192SOL    HW1 2583   0.822   0.342   6.750 -0.2886 -1.2695  0.5390
  192SOL    HW2 2584   0.963   0.368   6.700 -0.9274 -1.5107 -1.5054
  193SOL     OW 2585   5.686  10.330   5.890  0.1698 -0.2034 -0.5885
  193SOL    HW1 2586   5.771  10.288   5.899  0.7967  1.1398 -0.0992
  193SOL    HW2 2587   5.659  10.348   5.980  0.4422  1.4575 -0.8175
  194SOL     OW 2588   9.016   9.757   1.942  0.4707  0.3360 -0.1564
  194SOL    HW1 2589   8.936   9.798   1.912 -0.3517 -0.4932  0.8131
  194SOL    HW2 2590   8.987   9.689   2.003  1.9527  0.7378  1.0722
  195SOL     OW 2591   4.999   1.021   0.023  0.4183 -0.6239  0.2411
  195SOL    HW1 2592   4.957   1.015   0.109 -0.6400 -1.3969 -0.3078
  195SOL    HW2 2593   5.057   0.945   0.019  0.0414 -0.9019  0.0514
  196SOL     OW 2594   9.828   7.859   5.915 -0.1314  0.1448 -0.5770
  196SOL    HW1 2595   9.767   7.907   5.859 -0.9832  4.0089  3.1934
  196SOL    HW2 2596   9.915   7.883   5.881 -0.5969 -0.1809 -2.0672
  197SOL     OW 2597   3.352   7.020   4.454  0.1895  0.6543  0.5715
  197SOL    HW1 2598   3.388   7.101   4.490  1.1748  0.6744 -0.4219
  197SOL    HW2 2599   3.348   7.034   4.360 -2.3216  0.5909  0.5752
  198SOL     OW 2600   1.398   1.451   1.268  0.7417  0.3567 -0.0672
  198SOL    HW1 2601   1.431   1.423   1.183  0.3105  1.0939 -0.4903
  198SOL    HW2 2602   1.305   1.429   1.267  0.6817  0.5872  0.1081
  199SOL     OW 2603  10.073   9.674   7.646 -0.3687  0.2262 -0.0145
  199SOL    HW1 2604  10.001   9.664   7.584 -0.2055  0.1301 -0.1900
  199SOL    HW2 2605  10.138   9.610   7.617  0.2342  1.0462 -0.4936
  200SOL     OW 2606  10.381   9.247  10.425 -0.2044  0.6544  0.1262
  200SOL    HW1 2607  10.378   9.214  10.335  3.5781  0.9133 -0.2757
  200SOL    HW2 2608  10.350   9.174  10.478  3.0341 -1.8999 -1.1049
  201SOL     OW 2609   0.676  11.084   1.656 -0.4489  0.4450 -0.1642
  201SOL    HW1 2610   0.733  11.104   1.582 -0.1858  0.0145 -0.0795
  201SOL    HW2 2611   0.716  11.008   1.698 -0.9295  0.3122  0.0627
  202SOL     OW 2612   3.188   1.273   3.725 -0.2280 -0.0134 -0.4105
  202SOL    HW1 2613   3.114   1.228   3.764 -0.5862  0.5358 -0.4364
  202SOL    HW2 2614   3.151   1.316   3.647 -0.0952  1.0306  0.0901
  203SOL     OW 2615   0.596   0.697   1.792  0.0619  0.4658 -0.3510
  203SOL    HW1 2616   0.587   0.607   1.824  2.7151  0.1468 -0.2917
  203SOL    HW2 2617   0.612   0.749   1.870 -0.1770  0.8049 -0.5241
  204SOL     OW 2618   1.400   3.187   7.258  0.4669  0.0446  0.0158
  204SOL    HW1 2619   1.424   3.110   7.207  0.5118 -0.0011  0.1057
  204SOL    HW2 2620   1.304   3.183   7.265  0.3484  0.6910 -1.0708
  205SOL     OW 2621   1.364   9.756   3.570 -0.5216 -0.2285 -0.0646
  205SOL    HW1 2622   1.268   9.754   3.577 -0.5979 -2.0347 -1.0441
  205SOL    HW2 2623   1.394   9.714   3.651 -0.5337  0.5116  0.3321
  206SOL     OW 2624   6.764   2.517   2.143 -0.4497  0.6160 -0.2111
  206SOL    HW1 2625   6.674   2.489   2.133 -0.2761 -0.2365  0.5197
  206SOL    HW2 2626   6.814   2.436   2.151  0.3617  1.0813 -0.3905
  207SOL     OW 2627   1.198   8.737   6.652  0.4751 -0.1657  0.5550
  207SOL    HW1 2628   1.188   8.828   6.680  0.7730 -0.7239  2.5917
  207SOL    HW2 2629   1.213   8.743   6.557 -0.4897  1.8237  0.4738
  208SOL     OW 2630   0.808   5.929   4.517  0.2694  0.0831 -0.3327
  208SOL    HW1 2631   0.896   5.907   4.549  0.6822  0.1916 -1.3566
  208SOL    HW2 2632   0.783   6.007   4.567  1.0868  0.5170 -0.5817
  209SOL     OW 2633   6.829   8.178   2.951  0.0693  0.4364  0.0141
  209SOL    HW1 2634   6.837   8.260   2.999  0.7456  0.2871  0.1746
  209SOL    HW2 2635   6.795   8.203   2.865  0.9837  0.9814 -0.1992
  210SOL     OW 2636   9.627   0.065  10.514  0.3739  0.3166 -0.7121
  210SOL    HW1 2637   9.551   0.020  10.475  0.8102  0.2295 -1.4941
  210SOL    HW2 2638   9.608   0.067  10.608 -0.2525 -0.3632 -0.8116
  211SOL     OW 2639  11.019   5.549   1.358  0.3037  0.3055  0.0516
  211SOL    HW1 2640  11.053   5.564   1.446  1.4410  1.1224 -0.5027
  211SOL    HW2 2641  10.949   5.614   1.348  0.8579  0.9068  0.0032
  212SOL     OW 2642  10.317   9.605   1.688 -0.2111  0.0646  0.1181
  212SOL    HW1 2643  10.283   9.669   1.751  1.3168  0.4615  0.5763
  212SOL    HW2 2644  10.401   9.640   1.661 -1.3664  0.6281 -3.2502
  213SOL     OW 2645   8.010   7.973   3.042 -0.3846 -0.0135  0.6815
  213SOL    HW1 2646   8.081   7.914   3.068 -2.4105 -1.6775  2.8870
  213SOL    HW2 2647   7.967   7.928   2.970  0.0790  0.4348  0.1174
  214SOL     OW 2648   0.158   4.656   4.488  0.0036  0.8489  0.0512
  214SOL    HW1 2649   0.172   4.707   4.568  0.2862  1.1986 -0.2155
  214SOL    HW2 2650   0.073   4.685   4.455 -0.7497 -0.2735  0.9368
  215SOL     OW 2651   2.309   0.681   1.599  0.4339 -0.4549 -0.2076
  215SOL    HW1 2652   2.298   0.697   1.505  1.5686 -0.9726 -0.4450
  215SOL    HW2 2653   2.347   0.763   1.632  0.3129 -0.3803 -0.2510
  216SOL     OW 2654   1.873   3.399   4.194 -0.4364  0.1504 -0.2059
  216SOL    HW1 2655   1.891   3.311   4.228 -1.0551 -0.1077 -0.5310
  216SOL    HW2 2656   1.881   3.389   4.099  0.3987  0.6621 -0.1969
  217SOL     OW 2657   6.891   0.894   0.779  0.2303 -0.4669 -0.6305
  217SOL    HW1 2658   6.874   0.838   0.703 -5.6183 -0.1480  0.0306
  217SOL    HW2 2659   6.886   0.983   0.745 -1.8030 -0.3309 -0.0644
  218SOL     OW 2660   0.662   7.426   5.892  0.7522  0.0240  0.0396
  218SOL    HW1 2661   0.690   7.510   5.857  0.2936  0.2426  0.1892
  218SOL    HW2 2662   0.735   7.398   5.948  1.6390 -0.4937 -1.3329
  219SOL     OW 2663   3.277   0.292   6.313 -0.3361 -0.0984 -0.1389
  219SOL    HW1 2664   3.353   0.279   6.370 -0.8239  1.8226  1.0594
  219SOL    HW2 2665   3.235   0.206   6.309  1.9186 -1.2284 -0.9149
  220SOL     OW 2666   1.374   2.153  10.992 -0.0262  0.5014  0.6180
  220SOL    HW1 2667   1.279   2.170  10.990 -0.0398  0.3755 -0.9849
  220SOL    HW2 2668   1.387   2.086  10.926  1.2654  0.8765  0.4792
  221SOL     OW 2669   9.072   5.673   1.218 -0.3115  0.5429 -0.5510
  221SOL    HW1 2670   9.068   5.663   1.313 -0.3108 -0.6541 -0.6612
  221SOL    HW2 2671   9.136   5.743   1.204  0.0818  0.3679  0.3176
  222SOL     OW 2672   8.311   8.481   9.732  0.1667  0.4398 -0.2914
  222SOL    HW1 2673   8.336   8.407   9.677  2.3199 -0.3967  1.6549
  222SOL    HW2 2674   8.343   8.558   9.683 -2.1549  0.2042 -2.3586
  223SOL     OW 2675   3.908  10.558   6.239  0.3567  0.3073  0.1613
  223SOL    HW1 2676   3.869  10.646   6.241 -3.6154 -1.2528  0.3356
  223SOL    HW2 2677   3.920  10.539   6.146 -0.8356  0.3149 -0.0202
  224SOL     OW 2678   9.336  10.803   4.088 -0.1163 -0.1157 -0.4030
  224SOL    HW1 2679   9.272  10.735   4.071 -0.5970  0.2541 -0.1075
  224SOL    HW2 2680   9.351  10.799   4.182  1.3343 -1.0995 -0.6379
  225SOL     OW 2681   4.347   0.522   3.861  0.0494  0.7799 -0.2104
  225SOL    HW1 2682   4.323   0.608   3.898  0.3938  0.6890  0.2279
  225SOL    HW2 2683   4.269   0.469   3.874  0.1547  0.7586  0.3678
  226SOL     OW 2684  10.775   4.575   8.698  0.5404  0.5319 -0.4287
  226SOL    HW1 2685  10.867   4.556   8.715  0.7121  1.1507 -0.6746
  226SOL    HW2 2686  10.747   4.626   8.774  0.5515  0.8489 -0.6401
  227SOL     OW 2687   8.370   2.620   6.702  0.2879  0.0525 -0.0483
  227SOL    HW1 2688   8.342   2.708   6.725 -0.5060  0.4995 -2.4840
  227SOL    HW2 2689   8.289   2.572   6.686  0.7024  0.0146 -2.4756
  228SOL     OW 2690   4.039   2.716   3.052 -0.1533 -0.6025 -0.0267
  228SOL    HW1 2691   3.950   2.739   3.080 -0.3551 -1.0528 -0.2901
  228SOL    HW2 2692   4.045   2.621   3.064  0.4024 -0.5356  0.2878
  229SOL     OW 2693  10.646   2.434   9.692  0.3174 -0.2290 -0.1231
  229SOL    HW1 2694  10.710   2.424   9.762 -0.0803  0.8285  0.4203
  229SOL    HW2 2695  10.562   2.409   9.731  0.2373 -0.6188 -0.5284
  230SOL     OW 2696   1.777  10.035   7.472 -0.6007  0.0607  0.5523
  230SOL    HW1 2697   1.710   9.975   7.440  0.2722 -0.6681  0.0805
  230SOL    HW2 2698   1.802  10.087   7.395  0.3800 -0.6312  0.3947
  231SOL     OW 2699   5.543   3.749   1.686  0.1298  0.1808 -0.5849
  231SOL    HW1 2700   5.590   3.680   1.734  2.0511  0.1967 -2.3068
  231SOL    HW2 2701   5.572   3.831   1.726 -0.3570  0.1035 -0.0574
  232SOL     OW 2702   9.280   4.632   0.376 -0.1566  0.3740 -0.3410
  232SOL    HW1 2703   9.358   4.620   0.430 -0.8567 -1.1042  0.3848
  232SOL    HW2 2704   9.251   4.721   0.395  0.1411  0.2004  1.0130
  233SOL     OW 2705   3.344   9.793   1.435  0.7940 -0.3114  0.0870
  233SOL    HW1 2706   3.387   9.851   1.497  0.7587  1.8034 -1.7133
  233SOL    HW2 2707   3.278   9.848   1.393 -0.4023 -2.1469 -0.5751
  234SOL     OW 2708   1.602   2.984   1.965  0.7369  0.4031  0.0229
  234SOL    HW1 2709   1.609   2.985   2.060  0.5820 -1.3932  0.0872
  234SOL    HW2 2710   1.528   2.926   1.947  0.8618  0.5961 -1.2081
  235SOL     OW 2711   2.466   2.246   8.072  0.4739  0.4188 -0.1093
  235SOL    HW1 2712   2.444   2.270   7.982 -1.2065 -0.2654  0.0869
  235SOL    HW2 2713   2.549   2.290   8.089 -0.1322  2.1630 -1.3509
  236SOL     OW 2714   5.962   8.247   0.358  0.4843  0.1414 -0.1811
  236SOL    HW1 2715   5.896   8.273   0.422  0.4619  0.9778 -0.5211
  236SOL    HW2 2716   5.921   8.178   0.307 -0.4157  1.1619 -0.8702
  237SOL     OW 2717   6.733   8.054   9.449  0.3875  0.0451  0.0250
  237SOL    HW1 2718   6.641   8.037   9.429  0.1379 -0.0314  1.1431
  237SOL    HW2 2719   6.731   8.114   9.524  1.2717  1.8505 -1.3477
  238SOL     OW 2720   6.401   0.496   9.724  0.7303 -0.1608  0.4984
  238SOL    HW1 2721   6.386   0.561   9.655 -0.1107 -0.6677  0.1836
  238SOL    HW2 2722   6.479   0.448   9.696  1.4760  0.8242  0.8292
  239SOL     OW 2723  10.367   6.275   4.915  0.3117 -0.4861  0.2587
  239SOL    HW1 2724  10.394   6.188   4.944 -2.0277  0.1192  5.3153
  239SOL    HW2 2725  10.449   6.322   4.900  1.6537 -2.7954 -0.0221
  240SOL     OW 2726   4.058   2.390   9.989 -0.1132 -0.3461  0.3083
  240SOL    HW1 2727   4.121   2.457   9.962 -0.5507 -0.1698 -0.3103
  240SOL    HW2 2728   3.976   2.415   9.944 -0.3177 -1.2139  0.1802
  241SOL     OW 2729   0.482   3.174  11.001  0.0823 -0.2223  0.2836
  241SOL    HW1 2730   0.437   3.228  10.936 -0.0724 -0.7520 -0.0520
  241SOL    HW2 2731   0.571   3.210  11.004 -0.1286  0.3025  0.3552
  242SOL     OW 2732   9.237   2.557   0.007 -0.3144 -0.0936 -0.0716
  242SOL    HW1 2733   9.282   2.629   0.052 -1.3997  0.7382 -0.2807
  242SOL    HW2 2734   9.162   2.599  -0.036 -1.2203 -1.4163  0.1686
  243SOL     OW 2735   5.412   3.308  10.049  0.2611  0.1075 -0.7790
  243SOL    HW1 2736   5.335   3.326   9.996  0.1979 -1.3729 -1.2369
  243SOL    HW2 2737   5.486   3.321   9.990  0.3281  0.8424 -0.5366
  244SOL     OW 2738   1.044  10.083   4.206 -0.8003  0.0036 -0.7263
  244SOL    HW1 2739   1.048  10.081   4.302  0.7509 -2.0160 -0.7703
  244SOL    HW2 2740   1.135  10.084   4.178 -1.2296  1.4939 -2.2255
  245SOL     OW 2741   5.197  10.440   4.511  0.0503 -0.3478  0.1162
  245SOL    HW1 2742   5.271  10.408   4.460 -0.0616  1.1901 -1.0712
  245SOL    HW2 2743   5.182  10.529   4.479 -3.2685 -1.0866 -0.7969
  246SOL     OW 2744   3.176   7.161   7.887  0.3667  0.7853 -0.4834
  246SOL    HW1 2745   3.172   7.066   7.892  0.2315  0.8206  0.1856
  246SOL    HW2 2746   3.231   7.187   7.962 -2.1562  1.3944  1.3016
  247SOL     OW 2747   8.649  10.917   0.510  0.0859 -0.1028  0.1643
  247SOL    HW1 2748   8.660  10.940   0.603  1.4557  2.6959 -0.5980
  247SOL    HW2 2749   8.612  10.996   0.470  0.7057 -0.8035 -1.8993
  248SOL     OW 2750   7.999   4.745   1.786  0.0813  0.1094 -0.4079
  248SOL    HW1 2751   8.056   4.815   1.753  0.8701 -0.7296 -0.8811
  248SOL    HW2 2752   8.044   4.710   1.862  0.6618 -1.1320 -1.2871
  249SOL     OW 2753   1.489   9.925   3.921  0.2244 -0.6561 -0.1056
  249SOL    HW1 2754   1.507   9.832   3.905  0.6469 -0.8859  1.4776
  249SOL    HW2 2755   1.573   9.969   3.906  0.3066 -0.6993  0.2081
  250SOL     OW 2756   0.972   6.774   9.095 -0.1710 -0.9586 -0.0054
  250SOL    HW1 2757   0.922   6.697   9.123 -0.1551 -1.7804 -2.0925
  250SOL    HW2 2758   0.907   6.844   9.091 -0.1076 -0.6878  2.3349
  251SOL     OW 2759  10.753   7.034   4.436  0.4560  0.0881  0.1349
  251SOL    HW1 2760  10.810   6.990   4.499  1.2736 -1.0514 -1.3387
  251SOL    HW2 2761  10.704   6.963   4.395 -0.1928  0.8345 -0.3937
  252SOL     OW 2762   2.194   9.537   8.822  0.0303  0.6481 -0.9577
  252SOL    HW1 2763   2.209   9.631   8.816  2.4492  0.3104 -1.3266
  252SOL    HW2 2764   2.265   9.498   8.772  0.1005 -1.4191  0.5919
  253SOL     OW 2765   0.610   9.498   6.148 -0.6043 -0.7060  0.5574
  253SOL    HW1 2766   0.540   9.510   6.212  0.5527 -0.2356  1.7590
  253SOL    HW2 2767   0.689   9.529   6.192  0.3598 -1.1618 -0.7982
  254SOL     OW 2768   2.623   6.542   1.452 -0.1489  0.6962 -0.0308
  254SOL    HW1 2769   2.545   6.562   1.504  0.2677 -0.8768  1.2790
  254SOL    HW2 2770   2.695   6.545   1.516  0.1093 -3.6050  0.1736
  255SOL     OW 2771  10.365   8.150   8.586  0.5346 -0.2374 -0.4928
  255SOL    HW1 2772  10.328   8.224   8.538  1.4731  0.8702  0.4000
  255SOL    HW2 2773  10.372   8.182   8.676  0.4031 -1.6454  0.0397
  256SOL     OW 2774   3.431   3.184   1.027  0.4477 -0.1753 -0.1412
  256SOL    HW1 2775   3.452   3.111   0.967 -0.0934  1.2968 -2.2458
  256SOL    HW2 2776   3.338   3.200   1.011  0.8919  1.9163 -0.8586
  257SOL     OW 2777   6.711  10.253   4.044 -0.2990  0.1654 -0.2388
  257SOL    HW1 2778   6.770  10.205   4.102 -0.2793  1.2585  0.6987
  257SOL    HW2 2779   6.632  10.200   4.041 -0.1065 -0.1663  0.3853
  258SOL     OW 2780  10.388   5.281   4.441 -0.5518  0.3135 -0.3236
  258SOL    HW1 2781  10.337   5.338   4.383  0.3883  1.7543  0.1961
  258SOL    HW2 2782  10.465   5.257   4.390  0.6328  2.1599  0.4655
  259SOL     OW 2783   9.955   1.816   1.858  0.1457  0.4300 -0.1311
  259SOL    HW1 2784   9.993   1.836   1.773  0.8050 -1.2647 -0.2692
  259SOL    HW2 2785   9.969   1.895   1.910  0.2912  1.2613 -1.3971
  260SOL     OW 2786   4.102   6.407   4.189 -0.1307 -0.3144  0.2909
  260SOL    HW1 2787   4.120   6.380   4.099 -0.9492  0.3828 -0.0984
  260SOL    HW2 2788   4.007   6.422   4.191 -0.2541 -1.0533  1.4754
  261SOL     OW 2789   2.535   5.239   9.662 -0.0033  0.2822  0.4780
  261SOL    HW1 2790   2.460   5.282   9.621 -0.4874  0.1378  1.1878
  261SOL    HW2 2791   2.612   5.279   9.621 -0.4688  0.1609 -0.5305
  262SOL     OW 2792   1.802   5.202   2.811  0.5037  0.3115  0.3238
  262SOL    HW1 2793   1.850   5.285   2.809 -0.8941  1.2063  1.5662
  262SOL    HW2 2794   1.851   5.145   2.751  3.4606  0.9298  1.9182
  263SOL     OW 2795   1.625  10.015   3.170 -0.0455 -0.1224  0.1837
  263SOL    HW1 2796   1.564   9.945   3.146  1.2276 -1.1223 -0.2328
  263SOL    HW2 2797   1.621  10.077   3.096 -0.3076 -0.3439  0.0097
  264SOL     OW 2798   9.776   1.089   2.276 -0.6716  0.2127 -0.2432
  264SOL    HW1 2799   9.717   1.030   2.324 -0.8404  1.3583  1.0024
  264SOL    HW2 2800   9.864   1.055   2.295 -0.8469 -1.1058 -1.5756
  265SOL     OW 2801  10.387   6.117   6.931 -0.1146  0.3557  0.1087
  265SOL    HW1 2802  10.449   6.181   6.896  0.2376 -0.2899 -0.4463
  265SOL    HW2 2803  10.436   6.068   6.996 -0.1347  0.0785 -0.0811
  266SOL     OW 2804   4.334   1.371   4.869  0.4926 -0.2945  0.2731
  266SOL    HW1 2805   4.414   1.381   4.921  0.0184  3.0044  0.5882
  266SOL    HW2 2806   4.264   1.364   4.934  0.0733  2.1623  0.1909
  267SOL     OW 2807   9.182  11.083   2.055 -0.2185 -0.1004  0.1930
  267SOL    HW1 2808   9.210  11.157   2.001 -2.4613  0.0765 -0.8075
  267SOL    HW2 2809   9.253  11.072   2.119  0.8602  1.9280 -0.5790
  268SOL     OW 2810   2.562   3.343   4.789  0.6850  0.1112  0.2780
  268SOL    HW1 2811   2.507   3.402   4.841  0.1981  0.5414 -0.6901
  268SOL    HW2 2812   2.642   3.392   4.773  1.5577 -0.6546  2.0023
  269SOL     OW 2813   2.993   4.575   2.345 -0.0365  0.1728  0.7164
  269SOL    HW1 2814   2.927   4.609   2.285 -0.0650 -1.3523 -0.1709
  269SOL    HW2 2815   3.063   4.640   2.343  0.0266  0.0959 -1.1091
  270SOL     OW 2816   2.543   4.490  10.530  0.0771 -0.0998  0.2400
  270SOL    HW1 2817   2.595   4.507  10.452  0.0424  2.3895  0.6998
  270SOL    HW2 2818   2.586   4.415  10.572  1.7521  0.3061 -0.6989
  271SOL     OW 2819   1.000   0.905   7.043  0.0028  0.0965  0.4239
  271SOL    HW1 2820   0.921   0.889   7.095  0.4125 -1.2586  0.6663
  271SOL    HW2 2821   1.045   0.976   7.089  0.1491 -0.8065  1.7240
  272SOL     OW 2822   0.482   2.901   3.479 -0.0708 -0.3740 -0.8947
  272SOL    HW1 2823   0.518   2.822   3.438  0.9693 -0.7447  0.6314
  272SOL    HW2 2824   0.472   2.963   3.407 -0.4840 -1.7278 -2.0549
  273SOL     OW 2825   6.206   2.463  10.613 -0.3290 -0.2323 -0.0991
  273SOL    HW1 2826   6.129   2.454  10.558 -1.1876  1.5969  0.7408
  273SOL    HW2 2827   6.277   2.422  10.562 -1.1451  1.0286 -2.3915
  274SOL     OW 2828   7.524   2.922   2.038  0.0218 -0.2318  0.0090
  274SOL    HW1 2829   7.528   2.832   2.006  0.5991 -0.6276  1.1325
  274SOL    HW2 2830   7.548   2.915   2.131 -0.9291  0.9540  0.3608
  275SOL     OW 2831   6.796   9.119   2.772  0.0254 -0.0384 -0.0596
  275SOL    HW1 2832   6.756   9.205   2.790  1.2543  0.5987 -0.2426
  275SOL    HW2 2833   6.734   9.076   2.714 -1.2745  0.1610  1.1140
  276SOL     OW 2834   4.080   1.563   3.004 -0.0524  0.5729  0.0696
  276SOL    HW1 2835   4.110   1.593   2.918 -1.7910  1.6237 -0.2198
  276SOL    HW2 2836   4.153   1.582   3.063  0.1407  2.4593 -0.6958
  277SOL     OW 2837   9.843  10.038   2.362  0.5599  0.7757  0.6819
  277SOL    HW1 2838   9.811  10.004   2.278 -0.3953  0.0492  1.3129
  277SOL    HW2 2839   9.862   9.959   2.414  1.3288  1.2147  1.0806
  278SOL     OW 2840   8.175   7.785   7.302 -0.1471  0.0739 -0.3433
  278SOL    HW1 2841   8.107   7.717   7.298 -0.5454  0.3056  1.5620
  278SOL    HW2 2842   8.255   7.740   7.275 -0.7860 -0.5926 -1.1698
  279SOL     OW 2843   8.855   5.281   6.219 -0.1340  0.0109 -0.0494
  279SOL    HW1 2844   8.816   5.352   6.271 -1.8197 -0.4180 -0.6492
  279SOL    HW2 2845   8.860   5.207   6.280 -0.2457  0.0830  0.0498
  280SOL     OW 2846   2.897   6.421   0.479 -0.1959  0.1102  0.3022
  280SOL    HW1 2847   2.947   6.493   0.440 -0.5708  0.2001 -0.0117
  280SOL    HW2 2848   2.948   6.396   0.556 -0.8604  1.7453  1.3280
  281SOL     OW 2849   8.045   3.612   5.148  0.7402  0.4837 -0.6346
  281SOL    HW1 2850   7.993   3.583   5.223  2.2562  0.5206  0.4761
  281SOL    HW2 2851   7.995   3.684   5.110  0.0240  0.5601  0.4269
  282SOL     OW 2852   3.114   1.723   7.761 -0.0840  0.6322  1.2542
  282SOL    HW1 2853   3.203   1.704   7.732  0.2789  2.6877  0.8238
  282SOL    HW2 2854   3.062   1.722   7.681  0.1612  2.3376  1.0232
  283SOL     OW 2855   5.931   1.985   0.745  0.0522  0.5077  0.1382
  283SOL    HW1 2856   5.856   1.936   0.779  0.6478  0.4626  1.4761
  283SOL    HW2 2857   6.006   1.930   0.765  0.4189  0.2250 -1.8220
  284SOL     OW 2858   1.146   8.265  11.046 -0.1159 -0.3712  0.1921
  284SOL    HW1 2859   1.185   8.222  10.970  0.1528 -2.0468  1.2069
  284SOL    HW2 2860   1.206   8.337  11.066  0.5126 -0.7060 -0.4325
  285SOL     OW 2861   5.947   0.345  10.915  0.1939 -0.1108  0.1631
  285SOL    HW1 2862   5.913   0.257  10.897 -0.0614  0.0885 -0.3384
  285SOL    HW2 2863   5.882   0.384  10.974 -0.3179  0.1699 -0.5730
  286SOL     OW 2864   6.923   1.153   2.628  0.2243  0.3988  0.3443
  286SOL    HW1 2865   6.892   1.214   2.561 -0.7530  1.0102  1.3220
  286SOL    HW2 2866   6.929   1.205   2.708  0.7430 -0.4570  0.8832
  287SOL     OW 2867   9.786   9.206   1.594  0.3500  0.0879 -0.4074
  287SOL    HW1 2868   9.737   9.202   1.676  1.3369 -0.2043  0.1882
  287SOL    HW2 2869   9.785   9.299   1.570  1.7398  0.5208  1.0228
  288SOL     OW 2870   5.545   8.118   5.115 -0.0766  0.5885 -0.2407
  288SOL    HW1 2871   5.611   8.083   5.174 -0.0772  0.0441 -0.5591
  288SOL    HW2 2872   5.522   8.045   5.058 -1.7434  0.4470  0.5566
  289SOL     OW 2873   9.258  10.179   2.352 -0.6573  0.0661  0.3534
  289SOL    HW1 2874   9.243  10.197   2.260 -0.0068  0.1922  0.2725
  289SOL    HW2 2875   9.198  10.238   2.398  0.0175  1.0184  0.0430
  290SOL     OW 2876   8.662  10.352   0.370  0.2319  0.1801 -0.3817
  290SOL    HW1 2877   8.733  10.412   0.392  0.6280 -0.1202 -0.8194
  290SOL    HW2 2878   8.691  10.268   0.405 -0.2163  0.1912  0.0271
  291SOL     OW 2879   9.845   7.155   0.587 -0.0096 -0.2873 -0.4908
  291SOL    HW1 2880   9.859   7.199   0.671  0.4186  1.6808 -1.5209
  291SOL    HW2 2881   9.790   7.080   0.608 -2.0173  1.5211  1.2310
  292SOL     OW 2882   9.269   7.503  10.543  0.4247  0.0221 -0.6514
  292SOL    HW1 2883   9.298   7.543  10.625 -0.5520  1.6166 -1.0390
  292SOL    HW2 2884   9.345   7.508  10.486  0.6339  0.3611 -0.3485
  293SOL     OW 2885  10.692   7.027   9.673  0.2168  0.1160 -0.3757
  293SOL    HW1 2886  10.702   7.048   9.766  0.7235  0.6797 -0.5510
  293SOL    HW2 2887  10.608   7.066   9.649  0.4664  0.6840 -0.3439
  294SOL     OW 2888   4.167   4.384   6.985  0.3973  0.3127  0.2998
  294SOL    HW1 2889   4.255   4.379   6.949  0.8893  1.5904  1.2299
  294SOL    HW2 2890   4.122   4.307   6.952  1.8631 -0.3454 -0.2029
  295SOL     OW 2891  10.172   1.020  10.257 -0.1446  0.1293  0.5932
  295SOL    HW1 2892  10.217   0.962  10.320 -0.1259 -0.4765  0.0362
  295SOL    HW2 2893  10.087   0.978  10.244  0.6660 -1.0237 -1.4741
  296SOL     OW 2894   0.508   3.399   2.399  0.1600 -0.1955 -0.5002
  296SOL    HW1 2895   0.520   3.422   2.306  1.4486  1.3222 -0.0041
  296SOL    HW2 2896   0.521   3.304   2.401 -1.1604 -0.4616 -2.0360
  297SOL     OW 2897   5.497   5.999   0.220  0.2051 -0.0721 -0.0159
  297SOL    HW1 2898   5.445   5.921   0.242  1.9424 -1.6969 -1.4222
  297SOL    HW2 2899   5.565   5.968   0.161  0.8673  2.5759 -0.8102
  298SOL     OW 2900   1.487   7.343   1.681  0.0072  0.5185 -0.1279
  298SOL    HW1 2901   1.468   7.251   1.665  1.4155  0.3823 -1.2272
  298SOL    HW2 2902   1.411   7.375   1.729  0.3488 -1.6905  2.0960
  299SOL     OW 2903   9.740   5.734   2.642  0.6419  0.2132  0.0286
  299SOL    HW1 2904   9.786   5.763   2.563 -0.7863  1.2517 -0.4711
  299SOL    HW2 2905   9.678   5.669   2.610  0.9771 -0.3507  0.5161
  300SOL     OW 2906   6.000   4.685   9.123  0.0389 -0.2092 -0.0236
  300SOL    HW1 2907   6.068   4.681   9.191 -0.7006 -0.3617  0.7289
  300SOL    HW2 2908   5.918   4.676   9.172 -0.5251  0.0877 -0.9085
  301SOL     OW 2909   4.056   0.047   1.951  0.0967  0.4498  0.3453
  301SOL    HW1 2910   4.061  -0.032   1.897  0.7204  1.4839 -1.1608
  301SOL    HW2 2911   4.076   0.016   2.040 -0.8345 -1.2675  0.0084
  302SOL     OW 2912  10.907   2.014   3.857  0.5258 -0.1967  0.2135
  302SOL    HW1 2913  10.821   2.029   3.819  1.5503  1.3945 -1.6303
  302SOL    HW2 2914  10.895   1.937   3.912 -2.4380  0.9181  1.3281
  303SOL     OW 2915   6.674   3.941   3.719  0.0908  0.2896  0.4713
  303SOL    HW1 2916   6.606   3.957   3.654  0.7218 -1.2577 -0.6481
  303SOL    HW2 2917   6.650   3.995   3.794 -1.4907  0.9682 -0.4865
  304SOL     OW 2918   0.400   7.072   4.304  0.3514  0.0507 -0.4382
  304SOL    HW1 2919   0.440   7.122   4.376  0.8662 -0.9604 -0.0082
  304SOL    HW2 2920   0.474   7.035   4.256 -0.0168 -1.4965  0.1236
  305SOL     OW 2921  10.102   3.106   0.987 -0.0756  0.2399  0.4204
  305SOL    HW1 2922  10.050   3.030   1.014  1.0820 -1.2261 -1.2214
  305SOL    HW2 2923  10.193   3.079   1.003  0.4345  0.6813 -1.4373
  306SOL     OW 2924   2.737   9.404   5.023  0.8196  0.3074 -0.0397
  306SOL    HW1 2925   2.823   9.445   5.011  1.3122 -0.2651  1.3715
  306SOL    HW2 2926   2.753   9.311   5.003  0.1342  0.4458 -1.3673
  307SOL     OW 2927   3.120   1.922   2.697 -0.0695 -0.2996  0.5117
  307SOL    HW1 2928   3.073   1.975   2.762 -0.3457 -0.5917  0.5538
  307SOL    HW2 2929   3.054   1.904   2.629 -0.4280 -1.8812  1.2373
  308SOL     OW 2930   7.333   6.302   3.847  0.6102  0.2224  0.7958
  308SOL    HW1 2931   7.387   6.259   3.913  0.9065  1.2785  1.2529
  308SOL    HW2 2932   7.276   6.232   3.814  1.8647 -0.7743  0.6917
  309SOL     OW 2933   2.712   9.932   9.331  0.0143 -0.1810  0.1039
  309SOL    HW1 2934   2.779   9.867   9.349  0.2644 -0.0540 -0.3293
  309SOL    HW2 2935   2.759  10.003   9.287 -0.7804 -1.1792 -2.5661
  310SOL     OW 2936   5.723   9.279   1.997  0.4925 -0.2581  0.0467
  310SOL    HW1 2937   5.639   9.239   2.020  0.4890  0.5627  1.5904
  310SOL    HW2 2938   5.737   9.254   1.906 -0.4627 -2.0642  0.3457
  311SOL     OW 2939  10.059   7.643   2.281  0.0896 -0.0894  0.6314
  311SOL    HW1 2940  10.077   7.711   2.217  0.9376 -1.6293 -0.8646
  311SOL    HW2 2941   9.967   7.621   2.268  0.3385 -0.6075 -0.3101
  312SOL     OW 2942  11.002   6.437   2.475  1.2201 -0.2722 -0.9265
  312SOL    HW1 2943  10.966   6.462   2.390  1.0536 -0.9205 -1.0521
  312SOL    HW2 2944  10.942   6.476   2.539  0.1453 -1.5065 -1.1328
  313SOL     OW 2945   6.102   3.131   4.212 -0.4177 -0.3354 -0.0995
  313SOL    HW1 2946   6.166   3.147   4.143  0.1034  0.2264  0.5022
  313SOL    HW2 2947   6.085   3.036   4.208  1.1890 -0.6751  0.3615
  314SOL     OW 2948   1.962   6.619   3.781 -0.7537 -0.4833  0.5429
  314SOL    HW1 2949   1.986   6.605   3.689  1.2133 -1.6333  1.1851
  314SOL    HW2 2950   1.878   6.574   3.791  0.3971 -2.9552 -0.0421
  315SOL     OW 2951   6.375   2.629   1.561 -0.3072  0.2837  0.0792
  315SOL    HW1 2952   6.402   2.624   1.469  0.0399  0.4720  0.1699
  315SOL    HW2 2953   6.281   2.607   1.559 -0.8605  2.4799 -0.6014
  316SOL     OW 2954  11.025   3.159   0.433  0.3497  0.5462 -0.2114
  316SOL    HW1 2955  11.066   3.143   0.518  0.2178  0.8708 -0.0836
  316SOL    HW2 2956  11.098   3.185   0.376  0.5433 -0.3813 -0.3901
  317SOL     OW 2957   6.990   8.030   2.035 -0.8149 -0.6418 -0.6791
  317SOL    HW1 2958   6.973   8.096   2.103 -2.5423  1.1604 -2.7060
  317SOL    HW2 2959   6.971   7.946   2.078 -2.6711  0.4801  0.8444
  318SOL     OW 2960  10.053   1.414   9.429  0.3739  0.0316  0.2099
  318SOL    HW1 2961   9.959   1.405   9.445  0.2545  0.1127 -0.4204
  318SOL    HW2 2962  10.061   1.494   9.378  0.6939 -0.4479 -0.5060
  319SOL     OW 2963   2.031   5.418   9.872 -0.2409 -0.2710  0.4416
  319SOL    HW1 2964   2.092   5.477   9.915 -0.2470 -0.6692  1.0044
  319SOL    HW2 2965   1.951   5.424   9.924 -0.5709 -0.0238 -0.0839
  320SOL     OW 2966  10.138  11.035   1.346  0.1188  0.2059 -0.0070
  320SOL    HW1 2967  10.086  11.103   1.303 -1.0451 -0.8695 -0.3742
  320SOL    HW2 2968  10.079  10.960   1.351  1.7595 -1.2096 -0.7920
  321SOL     OW 2969   8.499   2.056   0.399 -0.6446  0.0692 -0.1086
  321SOL    HW1 2970   8.423   2.102   0.365  1.1928  1.9120 -1.9696
  321SOL    HW2 2971   8.522   1.993   0.331  0.3187  0.5461 -0.2477
  322SOL     OW 2972   1.797   1.178   0.206 -0.2730  0.4426 -0.4932
  322SOL    HW1 2973   1.835   1.130   0.280 -1.1513  1.5592  0.7238
  322SOL    HW2 2974   1.731   1.119   0.170 -0.5593  0.2907  0.2716
  323SOL     OW 2975   9.449   5.265   4.276 -0.3760  0.2140 -0.2415
  323SOL    HW1 2976   9.527   5.313   4.306 -0.6758  0.7455 -0.3049
  323SOL    HW2 2977   9.386   5.333   4.252 -1.3462 -0.1799  1.0475
  324SOL     OW 2978   7.698   7.343   4.510 -0.2136 -0.1978 -0.0199
  324SOL    HW1 2979   7.720   7.267   4.455 -2.0223 -1.1973  0.5405
  324SOL    HW2 2980   7.779   7.394   4.514  0.7341 -1.5010 -1.3630
  325SOL     OW 2981  10.695   3.837   2.794 -0.3026  0.4589 -0.3231
  325SOL    HW1 2982  10.767   3.840   2.732  2.6151  1.8447  2.8135
  325SOL    HW2 2983  10.629   3.896   2.757  0.8060  0.4022 -2.5546
  326SOL     OW 2984   1.739   8.476   3.225  0.1369 -0.1263 -0.3278
  326SOL    HW1 2985   1.700   8.497   3.140  1.3635 -0.5876 -1.0314
  326SOL    HW2 2986   1.665   8.445   3.278 -0.7644  0.7974 -0.9887
  327SOL     OW 2987   0.062   4.731   5.439  0.3518  0.5357 -0.3038
  327SOL    HW1 2988   0.051   4.745   5.345  1.2572 -0.8208 -0.6290
  327SOL    HW2 2989   0.034   4.640   5.453  0.9163  0.4964  0.6186
  328SOL     OW 2990   2.217   9.790   1.742 -0.1477 -0.4367 -0.8413
  328SOL    HW1 2991   2.239   9.699   1.723  0.2448 -0.6229  0.4140
  328SOL    HW2 2992   2.239   9.801   1.834 -2.1896  0.3277 -0.3982
  329SOL     OW 2993   7.548   5.683   5.068  0.3771 -0.2152  0.4658
  329SOL    HW1 2994   7.602   5.685   4.989 -1.6677 -1.3343 -1.0574
  329SOL    HW2 2995   7.535   5.775   5.090 -0.9993  0.2865 -2.0232
  330SOL     OW 2996   0.649   8.858   6.842  0.3356 -0.1172 -0.1646
  330SOL    HW1 2997   0.591   8.907   6.900  0.2814 -0.9472  0.5168
  330SOL    HW2 2998   0.732   8.906   6.844  0.4884 -0.3963  1.0174
  331SOL     OW 2999   5.445   1.211   3.118 -0.9254  0.4208 -1.0575
  331SOL    HW1 3000   5.471   1.126   3.155 -0.1080  1.0387 -0.1465
  331SOL    HW2 3001   5.507   1.227   3.047  0.0254  1.0144 -0.1246
  332SOL     OW 3002   9.794   3.357   2.062  0.5141  0.0194  0.3947
  332SOL    HW1 3003   9.742   3.321   2.134  0.5269  0.5992  0.6990
  332SOL    HW2 3004   9.730   3.372   1.992  0.1981  1.0110  0.8710
  333SOL     OW 3005   7.165   4.736  10.000  0.0989 -0.4647  0.0849
  333SOL    HW1 3006   7.250   4.697   9.978  0.5446  0.3589  0.3109
  333SOL    HW2 3007   7.158   4.726  10.095  1.1413  1.7251  0.4656
  334SOL     OW 3008   6.026   8.164   9.194 -0.5608 -0.3403 -0.5592
  334SOL    HW1 3009   6.109   8.211   9.184 -2.0317  2.1142 -2.5106
  334SOL    HW2 3010   6.029   8.127   9.283  1.1661  2.7411  0.8123
  335SOL     OW 3011   6.346   0.719   1.263 -0.2695 -0.1178 -0.3827
  335SOL    HW1 3012   6.374   0.808   1.285  0.4328 -0.4431  0.0325
  335SOL    HW2 3013   6.378   0.705   1.174 -1.0021  0.2969 -0.7267
  336SOL     OW 3014   1.237   4.756   1.701 -0.4860  0.3997 -0.7548
  336SOL    HW1 3015   1.297   4.811   1.751 -1.7615  1.4527 -0.3289
  336SOL    HW2 3016   1.200   4.696   1.766  0.6893 -0.8293 -1.1667
  337SOL     OW 3017  10.688   8.186   2.622  0.2806  0.2011 -0.0259
  337SOL    HW1 3018  10.687   8.236   2.540  2.2131  2.0590  0.9800
  337SOL    HW2 3019  10.631   8.235   2.681  1.4447  0.7643  0.6769
  338SOL     OW 3020   5.828   3.527   9.703  0.2209  0.2107 -0.4041
  338SOL    HW1 3021   5.747   3.505   9.659  0.3180 -1.3084  0.1154
  338SOL    HW2 3022   5.879   3.575   9.638 -0.2942 -0.5506 -1.3950
  339SOL     OW 3023   4.702   1.088   3.554 -0.4348  0.0208 -0.4366
  339SOL    HW1 3024   4.638   1.025   3.521 -0.6456  0.0910 -0.1713
  339SOL    HW2 3025   4.651   1.144   3.613 -0.1237  0.0657 -0.2109
  340SOL     OW 3026   2.990   5.484   3.860  0.0016 -0.1879 -0.1469
  340SOL    HW1 3027   2.917   5.422   3.862 -2.8215  2.8454  2.2856
  340SOL    HW2 3028   2.967   5.544   3.789  0.8150  0.0817 -0.1817
  341SOL     OW 3029   3.778   9.295   1.525  0.1097  0.1805 -0.4804
  341SOL    HW1 3030   3.810   9.386   1.529  1.6519 -0.3466 -0.1543
  341SOL    HW2 3031   3.849   9.243   1.563 -0.6897 -1.1868 -0.7990
  342SOL     OW 3032   5.433   9.803  10.396  0.2161 -0.0996 -0.1693
  342SOL    HW1 3033   5.337   9.801  10.397  0.1493  1.6404 -0.3355
  342SOL    HW2 3034   5.457   9.768  10.311 -0.2965  0.0884 -0.3943
  343SOL     OW 3035   0.131   0.519   2.502  0.2417  0.3065  0.2842
  343SOL    HW1 3036   0.123   0.435   2.456  1.6049  0.4568 -0.2790
  343SOL    HW2 3037   0.167   0.495   2.587  2.3926  0.4243 -0.5227
  344SOL     OW 3038   1.765   8.879  10.536  0.0798  0.1873 -0.0368
  344SOL    HW1 3039   1.676   8.888  10.503  0.0195  1.6572  0.4764
  344SOL    HW2 3040   1.809   8.822  10.472 -0.2962  2.1438 -2.1549
  345SOL     OW 3041   3.298   1.276   5.565  0.2821  0.2369  0.4328
  345SOL    HW1 3042   3.268   1.187   5.546  0.1460  0.3988 -0.1147
  345SOL    HW2 3043   3.381   1.284   5.517  0.5886  0.2115  0.9479
  346SOL     OW 3044   0.088   0.948   1.375 -0.6404  0.0536  0.0020
  346SOL    HW1 3045   0.157   1.008   1.403 -1.0195  1.0662 -1.1620
  346SOL    HW2 3046   0.086   0.882   1.444 -0.0061  1.1971  1.1801
  347SOL     OW 3047  10.098  10.549   5.767 -0.6220 -0.4236  0.1181
  347SOL    HW1 3048  10.093  10.596   5.684  0.9507 -0.1293  0.1718
  347SOL    HW2 3049  10.116  10.458   5.742 -0.6085 -0.4215  0.1214
  348SOL     OW 3050   9.277   8.988   8.302  0.8381  0.6427  1.0172
  348SOL    HW1 3051   9.275   8.893   8.313  0.2499  0.6713  1.2569
  348SOL    HW2 3052   9.364   9.014   8.331  0.8572  0.2194  1.3518
  349SOL     OW 3053   8.691   2.271   0.793 -0.7809  0.0358 -0.2181
  349SOL    HW1 3054   8.612   2.229   0.759  0.8117 -3.5091  0.0471
  349SOL    HW2 3055   8.756   2.260   0.723  0.2200  0.3390  0.6373
  350SOL     OW 3056   2.930   5.920   7.557 -0.1784 -0.0194  0.4239
  350SOL    HW1 3057   2.954   5.928   7.464 -2.2712  0.0239 -0.1722
  350SOL    HW2 3058   2.941   6.009   7.591  0.5763 -0.0255  0.2126
  351SOL     OW 3059   9.649   4.283   8.622  0.2168  0.5756 -0.2227
  351SOL    HW1 3060   9.632   4.189   8.630  1.4521  0.3380 -0.1180
  351SOL    HW2 3061   9.567   4.325   8.648 -0.1795 -0.4682  0.2707
  352SOL     OW 3062   2.807   9.047   3.617  0.2208  0.3307  0.0321
  352SOL    HW1 3063   2.875   9.086   3.562  0.1713  0.4752  0.0716
  352SOL    HW2 3064   2.844   8.965   3.647  0.3864  0.4185  0.0702
  353SOL     OW 3065   1.553   7.496   7.367 -0.4280 -0.1681 -0.3371
  353SOL    HW1 3066   1.635   7.501   7.416  0.2304 -0.9257 -1.3066
  353SOL    HW2 3067   1.566   7.556   7.294 -1.5422  1.2320  0.5873
  354SOL     OW 3068   8.875  10.473   8.221 -0.1017 -0.3718  0.3356
  354SOL    HW1 3069   8.848  10.560   8.193  1.5782 -0.2366 -0.9966
  354SOL    HW2 3070   8.943  10.488   8.287 -0.9191 -0.7000  1.2810
  355SOL     OW 3071   6.821   2.600   0.760 -0.0808  0.3964  0.5766
  355SOL    HW1 3072   6.807   2.611   0.854  0.1841 -2.2315  1.0005
  355SOL    HW2 3073   6.908   2.636   0.744 -0.0295  0.6456  1.3878
  356SOL     OW 3074   1.898   9.405   3.311 -0.3478 -0.4978  0.5774
  356SOL    HW1 3075   1.992   9.404   3.293 -0.4027 -1.6552  0.2600
  356SOL    HW2 3076   1.887   9.340   3.381 -1.0535 -1.2762 -0.2305
  357SOL     OW 3077   9.500   1.147   8.339 -0.0583  0.2161  0.6474
  357SOL    HW1 3078   9.450   1.099   8.274 -0.5213  1.6233 -0.0670
  357SOL    HW2 3079   9.573   1.185   8.291 -0.0010  0.6747  1.0842
  358SOL     OW 3080   4.524   9.452   3.098  0.5027  0.1404  0.0394
  358SOL    HW1 3081   4.516   9.509   3.022 -1.2832 -0.3933 -0.2253
  358SOL    HW2 3082   4.606   9.405   3.085  0.6896  0.7397 -1.0731
  359SOL     OW 3083  10.615   9.615   0.534  0.4793 -0.5146  0.0286
  359SOL    HW1 3084  10.682   9.630   0.601  2.3374 -1.5499 -1.5142
  359SOL    HW2 3085  10.656   9.642   0.452 -0.6905 -1.9742 -1.0820
  360SOL     OW 3086   2.188   5.781   6.610  0.2158  0.1140 -0.2483
  360SOL    HW1 3087   2.241   5.860   6.619  0.3459  0.3146 -2.3597
  360SOL    HW2 3088   2.137   5.795   6.530  0.7551 -2.2080 -1.0705
  361SOL     OW 3089   1.154   5.696   0.815 -0.6525  0.2836  0.2321
  361SOL    HW1 3090   1.063   5.723   0.821 -1.2334 -1.2904 -0.8659
  361SOL    HW2 3091   1.168   5.679   0.722  1.2798  2.1231  0.1071
  362SOL     OW 3092   9.939   2.509   7.069 -0.2058  0.2409  1.1233
  362SOL    HW1 3093   9.930   2.515   7.164 -0.6885 -1.4852  1.2083
  362SOL    HW2 3094   9.850   2.497   7.036  0.1007 -0.5766  0.5717
  363SOL     OW 3095   1.944   0.593   6.540  0.8333 -0.5749 -0.1024
  363SOL    HW1 3096   1.947   0.509   6.586 -4.1220 -1.8706 -1.5123
  363SOL    HW2 3097   1.925   0.570   6.449 -0.7172  1.9931 -0.5410
  364SOL     OW 3098   0.541   3.850   1.339  0.0548 -0.3525  0.1504
  364SOL    HW1 3099   0.457   3.840   1.295  1.0938 -1.3571 -1.7132
  364SOL    HW2 3100   0.559   3.944   1.335 -0.5440 -0.2459 -0.2516
  365SOL     OW 3101   5.099   9.529   3.548 -0.5404  0.4904  0.1251
  365SOL    HW1 3102   5.036   9.568   3.609 -0.7919 -2.4536  1.9575
  365SOL    HW2 3103   5.180   9.522   3.598 -0.8485 -2.3410  0.3893
  366SOL     OW 3104  10.451  10.739  10.063  0.0833 -0.0817  0.1519
  366SOL    HW1 3105  10.367  10.724  10.019  0.1452  0.3894 -0.1406
  366SOL    HW2 3106  10.490  10.813  10.015 -0.1427  0.8964  1.4214
  367SOL     OW 3107  10.010   0.830   3.622  0.2532  0.5664  0.8121
  367SOL    HW1 3108  10.086   0.803   3.570  2.2883  0.8180  3.4476
  367SOL    HW2 3109  10.041   0.829   3.712 -3.7448 -2.3021  2.4669
  368SOL     OW 3110   1.044   9.036   5.738 -0.5879  0.0627 -0.0377
  368SOL    HW1 3111   1.110   9.052   5.805  0.3095  0.2920 -0.9423
  368SOL    HW2 3112   1.060   8.947   5.708 -0.8703  0.0211 -0.0731
  369SOL     OW 3113   1.983   4.018   5.001  0.2481 -0.0493 -0.0689
  369SOL    HW1 3114   1.986   4.010   5.097 -0.8454 -1.9740 -0.1385
  369SOL    HW2 3115   2.071   3.992   4.973  0.2820 -0.4282  0.3697
  370SOL     OW 3116   1.334   9.234  10.277  0.7102  0.0182 -0.5077
  370SOL    HW1 3117   1.362   9.249  10.368 -0.6296 -0.7101  0.0583
  370SOL    HW2 3118   1.329   9.322  10.240  1.3287  0.3263  0.1029
  371SOL     OW 3119   3.303   5.425   2.811  0.2637 -0.1461 -0.0862
  371SOL    HW1 3120   3.386   5.444   2.856  0.2238 -2.1040  0.9433
  371SOL    HW2 3121   3.248   5.385   2.879 -0.7677 -0.7739 -1.2642
  372SOL     OW 3122   8.314   0.679   0.515  0.8032  0.1405  0.2600
  372SOL    HW1 3123   8.393   0.636   0.546  0.5058 -1.2554 -0.8017
  372SOL    HW2 3124   8.276   0.618   0.451 -0.5323  1.2621 -0.0932
  373SOL     OW 3125   2.257   5.117  10.374 -0.4945 -0.0828  1.5521
  373SOL    HW1 3126   2.297   5.203  10.359  0.7579 -0.8116  0.5791
  373SOL    HW2 3127   2.212   5.127  10.458 -0.8537  1.6815  1.2013
  374SOL     OW 3128   4.036   1.374   9.334 -0.0360  0.3896  0.1481
  374SOL    HW1 3129   4.037   1.309   9.265  0.2411  0.1642  0.3611
  374SOL    HW2 3130   3.967   1.346   9.393  0.5489 -0.1152  0.6127
  375SOL     OW 3131   5.976   0.087   8.698  0.2330 -0.1431  0.1349
  375SOL    HW1 3132   5.974  -0.002   8.732  1.2338 -0.5417 -0.7756
  375SOL    HW2 3133   6.068   0.112   8.700  0.2056  0.1811 -1.2982
  376SOL     OW 3134   1.660   1.607   2.984  0.3358  0.4497 -0.1282
  376SOL    HW1 3135   1.652   1.659   3.064 -1.2042 -0.3600  0.2934
  376SOL    HW2 3136   1.754   1.586   2.978  0.6549  1.5306  0.7985
  377SOL     OW 3137   2.763   3.504   1.139 -0.5430  0.1636  0.2931
  377SOL    HW1 3138   2.723   3.586   1.166 -0.0895  0.1659  0.9900
  377SOL    HW2 3139   2.699   3.464   1.079 -0.2325  1.5738 -1.0281
  378SOL     OW 3140   9.119   4.147   5.978  0.3334 -0.2374  0.3171
  378SOL    HW1 3141   9.145   4.156   5.886  0.0722 -0.3649  0.2298
  378SOL    HW2 3142   9.154   4.225   6.020 -1.4659  0.9805 -0.3263
  379SOL     OW 3143   1.047   5.983   0.783 -0.3447 -0.4996  0.4768
  379SOL    HW1 3144   1.125   6.015   0.736  0.1399 -0.4320  1.3123
  379SOL    HW2 3145   1.016   6.059   0.831 -2.0180 -0.0222 -1.2400
  380SOL     OW 3146   3.781   7.471   0.837 -0.1367 -0.0225  0.1430
  380SOL    HW1 3147   3.824   7.472   0.923 -0.0610  1.1879  0.1101
  380SOL    HW2 3148   3.702   7.419   0.850 -0.2069  0.2742  0.9905
  381SOL     OW 3149   9.730  10.575   1.615 -0.0371 -0.1714 -0.2493
  381SOL    HW1 3150   9.722  10.531   1.699 -0.8520  2.5372  1.2070
  381SOL    HW2 3151   9.664  10.644   1.618 -0.3591 -0.2268 -3.2981
  382SOL     OW 3152   9.048   3.099   0.715  0.0697 -0.4495  0.4297
  382SOL    HW1 3153   9.115   3.054   0.663  1.1778  0.8409  0.7136
  382SOL    HW2 3154   9.062   3.069   0.804 -0.5014 -1.0637  0.3258
  383SOL     OW 3155   8.159   3.627   8.244  0.1110  0.4584 -0.1011
  383SOL    HW1 3156   8.124   3.715   8.254  0.2920  0.4357  0.8420
  383SOL    HW2 3157   8.184   3.601   8.333 -1.3225 -1.1191 -0.0978
  384SOL     OW 3158   6.651   8.096   5.418 -0.2423 -0.2374 -0.0760
  384SOL    HW1 3159   6.690   8.009   5.407 -0.2153 -0.0884 -1.3342
  384SOL    HW2 3160   6.562   8.079   5.450 -1.3580 -0.9552 -3.1987
  385SOL     OW 3161   4.363   2.269  10.979  0.5986 -0.3773 -0.0095
  385SOL    HW1 3162   4.330   2.324  11.049 -0.1475 -1.3844  0.4422
  385SOL    HW2 3163   4.354   2.323  10.900  0.7292  0.4734  0.5451
  386SOL     OW 3164   4.969   8.816   7.148 -0.0395  0.2748  0.0017
  386SOL    HW1 3165   4.959   8.727   7.181  0.0502  0.8968  1.8488
  386SOL    HW2 3166   4.921   8.870   7.210 -1.4325  1.4064 -1.9587
  387SOL     OW 3167  10.245   7.975   4.849  0.5505  0.1921 -0.2848
  387SOL    HW1 3168  10.272   7.884   4.838  0.2028  0.0236  0.2182
  387SOL    HW2 3169  10.228   8.006   4.760 -4.4075 -1.7970 -0.3347
  388SOL     OW 3170   0.367   6.314   2.310  0.9791 -0.0845 -0.4190
  388SOL    HW1 3171   0.418   6.345   2.235  0.4643  1.1315 -0.3023
  388SOL    HW2 3172   0.353   6.393   2.363  0.2770 -0.6853  0.3181
  389SOL     OW 3173   3.230   2.835   9.358 -0.3931 -0.0710 -0.4614
  389SOL    HW1 3174   3.274   2.859   9.277 -1.6314 -2.4464 -1.9784
  389SOL    HW2 3175   3.177   2.912   9.380  0.8411  1.0462 -1.2319
  390SOL     OW 3176   7.067   7.583   8.719  0.3020  0.1121 -0.1901
  390SOL    HW1 3177   7.037   7.673   8.705  0.4554  0.2451  0.3104
  390SOL    HW2 3178   7.026   7.556   8.801  1.1534  0.1267  0.2544
  391SOL     OW 3179   9.346   4.102   3.376  0.4272  0.3764  0.8896
  391SOL    HW1 3180   9.358   4.106   3.281 -0.9815 -1.7917  0.5289
  391SOL    HW2 3181   9.354   4.192   3.405 -1.8446  1.5872 -1.6932
  392SOL     OW 3182   3.233   4.988   5.435  0.0846 -0.0064  0.0609
  392SOL    HW1 3183   3.166   5.042   5.393  1.0962  1.2965  0.0579
  392SOL    HW2 3184   3.289   5.050   5.481  0.9632 -1.1106  0.5399
  393SOL     OW 3185   8.839   2.890   3.447 -0.3557  0.4902  0.4600
  393SOL    HW1 3186   8.924   2.882   3.403  0.0592 -0.4548  1.3845
  393SOL    HW2 3187   8.776   2.853   3.386 -0.1126  1.1642 -0.2208
  394SOL     OW 3188   8.986  10.077   3.173  0.4282  0.0865 -0.4256
  394SOL    HW1 3189   9.046  10.002   3.177 -0.3264 -0.4871  0.7224
  394SOL    HW2 3190   8.899  10.038   3.165 -0.0516  0.7830  0.9672
  395SOL     OW 3191   5.249   5.207   3.065  0.2013 -0.3968  0.2388
  395SOL    HW1 3192   5.259   5.265   3.141 -0.8530 -2.2784  1.8937
  395SOL    HW2 3193   5.160   5.222   3.034 -0.7188 -2.2666  1.7647
  396SOL     OW 3194   0.673   8.311   5.462  0.2225  0.5390  0.2906
  396SOL    HW1 3195   0.751   8.341   5.415  0.0653 -0.3008 -0.5379
  396SOL    HW2 3196   0.707   8.247   5.526  0.5225  2.1817  1.8624
  397SOL     OW 3197   9.617   6.844   1.665 -0.4571  0.6670  0.0757
  397SOL    HW1 3198   9.523   6.853   1.678 -0.9060 -1.4642 -1.2913
  397SOL    HW2 3199   9.655   6.872   1.749 -2.3735  0.2543  1.1410
  398SOL     OW 3200  10.614   1.947   7.140 -0.7377  0.0440  0.6565
  398SOL    HW1 3201  10.583   1.909   7.222 -2.0823  0.3666  0.3216
  398SOL    HW2 3202  10.556   2.021   7.124  0.9604  1.4258  0.5793
  399SOL     OW 3203   6.082   6.300   7.228  0.2757 -0.1150  0.4329
  399SOL    HW1 3204   6.174   6.303   7.253  0.5828 -0.4338 -0.6090
  399SOL    HW2 3205   6.080   6.243   7.152 -0.3627  2.0411 -1.2800
  400SOL     OW 3206   7.712  10.548   3.378 -0.2635 -0.8615 -0.2342
  400SOL    HW1 3207   7.765  10.469   3.386 -0.0743 -1.0755 -2.7432
  400SOL    HW2 3208   7.776  10.618   3.360 -0.1797  0.4386  4.0192
  401SOL     OW 3209   0.453   5.472  10.357  0.0666 -0.3031  0.3853
  401SOL    HW1 3210   0.522   5.513  10.305  1.7710 -2.1122  1.1219
  401SOL    HW2 3211   0.393   5.435  10.292  0.5750  0.0221 -0.2782
  402SOL     OW 3212   0.670   1.402   0.355 -0.0755 -0.0389  0.3760
  402SOL    HW1 3213   0.659   1.459   0.279  0.2528 -0.5656 -0.0742
  402SOL    HW2 3214   0.763   1.409   0.377  0.1469 -1.0361 -0.1976
  403SOL     OW 3215   1.872   3.757  10.762 -0.6984 -0.1251  0.3220
  403SOL    HW1 3216   1.956   3.781  10.802 -0.9897 -1.5247  1.8821
  403SOL    HW2 3217   1.868   3.662  10.771 -2.1806 -0.1422 -0.2868
  404SOL     OW 3218   0.854  10.652   0.889 -0.6844 -0.5649 -0.1191
  404SOL    HW1 3219   0.940  10.610   0.881 -1.2551 -1.8586  0.2217
  404SOL    HW2 3220   0.792  10.579   0.894 -1.8481  0.3514 -0.7463
  405SOL     OW 3221   3.516  10.060   1.943  0.4521 -0.0631 -0.0082
  405SOL    HW1 3222   3.512  10.125   1.873  1.5269  0.8138  0.7213
  405SOL    HW2 3223   3.453  10.092   2.009 -1.6308 -1.6213 -1.1062
  406SOL     OW 3224   5.620   0.720  10.241 -0.8884 -0.1347  0.3345
  406SOL    HW1 3225   5.699   0.666  10.235 -0.4949  0.5677 -1.1170
  406SOL    HW2 3226   5.631   0.770  10.321 -0.8507 -1.5447  1.2507
  407SOL     OW 3227   2.108  10.603   0.665  0.0252  0.2039 -0.6599
  407SOL    HW1 3228   2.158  10.578   0.587 -0.5964  0.3950 -1.1314
  407SOL    HW2 3229   2.027  10.640   0.630 -0.1129  0.6114  0.0740
  408SOL     OW 3230   9.835   3.983   7.109 -0.1939 -0.3699  0.4771
  408SOL    HW1 3231   9.824   4.068   7.066 -0.3167 -0.2552  0.7277
  408SOL    HW2 3232   9.746   3.959   7.137  0.0097  0.0276  1.5324
  409SOL     OW 3233   8.852   6.061  10.569  0.6120  0.7939 -0.1557
  409SOL    HW1 3234   8.844   6.016  10.484  0.5272  0.4048  0.0555
  409SOL    HW2 3235   8.926   6.018  10.612  2.0973  2.4456 -0.9136
  410SOL     OW 3236   4.422   9.980   9.215 -0.0611  0.2546  0.0497
  410SOL    HW1 3237   4.349   9.918   9.215  0.2920 -0.1605 -0.3205
  410SOL    HW2 3238   4.468   9.963   9.297 -0.2709  0.3898  0.1957
  411SOL     OW 3239   6.014   0.147   2.124  0.2844 -0.0691  0.7753
  411SOL    HW1 3240   5.953   0.212   2.090  0.3557 -0.5796 -0.3777
  411SOL    HW2 3241   5.962   0.068   2.137  0.2858  0.0762  1.7717
  412SOL     OW 3242   1.698   9.146   2.630 -0.4630  0.0504  0.5355
  412SOL    HW1 3243   1.711   9.150   2.724  2.0950  0.4776  0.2257
  412SOL    HW2 3244   1.623   9.203   2.614 -1.4595 -0.6632  2.3534
  413SOL     OW 3245   1.185   8.816   8.141 -0.2060  0.5162 -0.5327
  413SOL    HW1 3246   1.230   8.785   8.063 -1.9786  0.7071 -1.7035
  413SOL    HW2 3247   1.116   8.751   8.156 -0.0334  0.6107  0.7397
  414SOL     OW 3248   9.765   7.326   2.057 -0.1801 -0.1775 -0.3117
  414SOL    HW1 3249   9.782   7.286   1.972 -2.5386 -1.4227 -0.2883
  414SOL    HW2 3250   9.701   7.395   2.039  1.4509  1.5235  0.1103
  415SOL     OW 3251   2.696   0.946   1.776  0.5311 -0.0766  0.3206
  415SOL    HW1 3252   2.693   0.852   1.798 -0.4333 -0.2411 -0.4500
  415SOL    HW2 3253   2.704   0.990   1.861 -1.2910 -0.7796  0.9217
  416SOL     OW 3254   0.456   0.534   7.493  0.4831  0.1021  0.5026
  416SOL    HW1 3255   0.405   0.454   7.482  1.5214 -0.4624 -0.5094
  416SOL    HW2 3256   0.430   0.589   7.419  0.0443  0.5437  0.9857
  417SOL     OW 3257   4.504   1.756   9.973 -0.0978 -0.1575  0.1895
  417SOL    HW1 3258   4.579   1.812   9.993  1.1792 -1.7674  0.0813
  417SOL    HW2 3259   4.539   1.667   9.974 -1.5050 -0.8251 -2.1282
  418SOL     OW 3260   7.735   8.267   3.876  0.7938  0.0907  0.2353
  418SOL    HW1 3261   7.670   8.336   3.864  0.1908 -0.4455  0.4260
  418SOL    HW2 3262   7.800   8.284   3.807 -0.1742 -0.1080 -0.7396
  419SOL     OW 3263  10.095   0.579   5.348  0.1536  0.0973  0.1207
  419SOL    HW1 3264  10.157   0.564   5.277 -1.7483  1.0934 -1.8862
  419SOL    HW2 3265  10.096   0.498   5.399  0.1156 -1.5124 -2.2733
  420SOL     OW 3266   1.432   9.679   1.724 -0.1596 -0.1143 -0.1596
  420SOL    HW1 3267   1.512   9.718   1.690 -0.3027  0.3241  0.0029
  420SOL    HW2 3268   1.370   9.752   1.730 -1.0871 -0.7080 -1.7984
  421SOL     OW 3269   0.584   5.595   0.065 -0.6781 -0.5094 -0.0894
  421SOL    HW1 3270   0.625   5.680   0.049  1.2195 -0.9609  1.8778
  421SOL    HW2 3271   0.500   5.601   0.021 -0.5740  2.3463 -0.1306
  422SOL     OW 3272  10.232   5.826   2.844 -0.2873 -0.1285 -0.8843
  422SOL    HW1 3273  10.148   5.784   2.865 -0.4115  0.5979  0.1183
  422SOL    HW2 3274  10.236   5.823   2.749 -1.1693 -0.7286 -0.9210
  423SOL     OW 3275   6.255   5.316   1.694 -0.4374  0.0414  0.0895
  423SOL    HW1 3276   6.284   5.337   1.782 -0.0912 -0.9915  0.2285
  423SOL    HW2 3277   6.186   5.250   1.706 -1.3060  0.8411 -0.3533
  424SOL     OW 3278   1.880   5.410   1.749  0.1972 -0.2049  0.4478
  424SOL    HW1 3279   1.828   5.344   1.703 -0.6878  1.6646 -1.4164
  424SOL    HW2 3280   1.825   5.488   1.748  1.6808  0.9003  1.5341
  425SOL     OW 3281   8.528   0.616   1.201 -0.2783 -0.3184 -1.0487
  425SOL    HW1 3282   8.516   0.526   1.171 -0.3494 -0.3745 -0.8526
  425SOL    HW2 3283   8.569   0.660   1.127 -0.5194 -0.4373 -1.2559
  426SOL     OW 3284  10.679   0.455   5.389  0.2958 -0.4144  0.0972
  426SOL    HW1 3285  10.594   0.466   5.346  0.4890  1.5107  0.1195
  426SOL    HW2 3286  10.675   0.512   5.465  1.8748  0.3127 -0.3203
  427SOL     OW 3287   5.006   9.849   9.130 -0.0573  0.0878 -0.3002
  427SOL    HW1 3288   4.957   9.849   9.047 -0.7591 -0.5080  0.1016
  427SOL    HW2 3289   5.098   9.846   9.104 -0.2132  1.3142 -1.0750
  428SOL     OW 3290   4.358   4.191   2.248  0.7919 -0.0540 -0.1150
  428SOL    HW1 3291   4.413   4.243   2.190  0.3528  0.1148 -0.3876
  428SOL    HW2 3292   4.315   4.128   2.191 -0.7913  1.0658 -0.2514
  429SOL     OW 3293   6.436   0.846   6.731 -0.1809 -0.2680  0.8161
  429SOL    HW1 3294   6.442   0.793   6.811 -1.4094 -1.6500  0.0359
  429SOL    HW2 3295   6.391   0.790   6.668  3.1384 -0.2743 -1.8058
  430SOL     OW 3296   9.213   3.365   2.183 -0.5032  0.1330  0.0271
  430SOL    HW1 3297   9.238   3.382   2.093 -0.7634  1.2181  0.1483
  430SOL    HW2 3298   9.295   3.365   2.232 -0.1069 -2.4934 -0.4645
  431SOL     OW 3299   1.177   7.159   6.642  0.3931  0.8059  0.5136
  431SOL    HW1 3300   1.197   7.095   6.573  1.3769 -0.5632  1.9904
  431SOL    HW2 3301   1.131   7.229   6.597 -0.9825 -1.0544 -1.1636
  432SOL     OW 3302   4.398   1.068   3.907 -0.0291  0.0105 -0.3140
  432SOL    HW1 3303   4.326   1.122   3.937  1.2458  1.0724  0.9923
  432SOL    HW2 3304   4.369   1.034   3.822 -2.4636 -0.5111  0.6504
  433SOL     OW 3305   0.330   4.158   7.721  0.7016 -0.4331  0.0496
  433SOL    HW1 3306   0.312   4.110   7.640  0.3820 -0.7518  0.3043
  433SOL    HW2 3307   0.402   4.217   7.699  0.9363 -0.8584 -0.3363
  434SOL     OW 3308  10.425   5.229   5.803  0.0334  0.2041  0.3822
  434SOL    HW1 3309  10.344   5.178   5.810  0.4471 -0.4289  0.6299
  434SOL    HW2 3310  10.486   5.170   5.757  0.5899  0.3841  0.8847
  435SOL     OW 3311   7.024   6.330   0.338 -0.8126  0.0196 -0.1625
  435SOL    HW1 3312   7.108   6.340   0.383 -0.9823  1.4203 -0.1162
  435SOL    HW2 3313   7.047   6.315   0.247 -0.5005  1.0942 -0.2725
  436SOL     OW 3314   4.865   7.250   5.621 -0.4728 -0.7088 -0.7283
  436SOL    HW1 3315   4.874   7.283   5.710 -0.0962 -1.6737 -0.3909
  436SOL    HW2 3316   4.774   7.220   5.616 -1.2668  1.6450 -1.5114
  437SOL     OW 3317   0.848   6.257   5.981  0.0925 -0.3723 -0.7069
  437SOL    HW1 3318   0.805   6.256   5.896 -0.2924 -1.0251 -0.5135
  437SOL    HW2 3319   0.817   6.337   6.024 -1.0497 -0.9059 -0.5115
  438SOL     OW 3320   5.180   2.982   3.302 -0.2620 -0.4781  0.6966
  438SOL    HW1 3321   5.214   3.026   3.224  1.6897 -2.2517  0.4418
  438SOL    HW2 3322   5.087   2.971   3.286 -0.0661  0.0348 -0.9752
  439SOL     OW 3323   4.702   4.433   8.851  0.3526  0.2219  0.0239
  439SOL    HW1 3324   4.778   4.409   8.905  0.8699 -2.2161 -1.6175
  439SOL    HW2 3325   4.738   4.445   8.764 -0.9110  0.8318 -0.4313
  440SOL     OW 3326   9.007   8.687   5.650 -0.2226 -0.3766  0.1705
  440SOL    HW1 3327   9.062   8.617   5.613  0.1273  0.0584 -0.1437
  440SOL    HW2 3328   8.918   8.652   5.645 -0.0971 -0.6393 -0.3698
  441SOL     OW 3329   9.837   4.001   7.420  0.1737 -0.4649  0.3885
  441SOL    HW1 3330   9.916   4.027   7.467  1.2463 -0.5598 -1.2829
  441SOL    HW2 3331   9.859   4.011   7.327 -1.8538 -0.2770 -0.1358
  442SOL     OW 3332   6.070   1.796   1.305 -0.3258 -0.4386  0.3260
  442SOL    HW1 3333   5.997   1.851   1.277 -0.9067 -1.3175  0.0539
  442SOL    HW2 3334   6.143   1.857   1.320 -1.4497  0.5988  1.8364
  443SOL     OW 3335   9.770   2.519   2.958 -0.3288 -0.9812  0.5259
  443SOL    HW1 3336   9.761   2.500   2.865 -0.5900  0.7863  0.1549
  443SOL    HW2 3337   9.728   2.604   2.970  1.3563 -0.2549  1.8784
  444SOL     OW 3338   1.627  10.737   8.424  0.5737 -0.1444  0.2305
  444SOL    HW1 3339   1.703  10.700   8.470  0.2110  0.1505  1.0988
  444SOL    HW2 3340   1.618  10.825   8.461  0.0855 -0.0088 -0.1997
  445SOL     OW 3341   2.916   3.058   8.573  0.0319 -0.1854 -0.6171
  445SOL    HW1 3342   2.840   3.022   8.618  0.2172 -0.3472 -0.4283
  445SOL    HW2 3343   2.959   2.982   8.534  2.1515 -0.7077  2.3350
  446SOL     OW 3344   1.294   1.354   4.635  0.2242 -0.0231  0.1816
  446SOL    HW1 3345   1.240   1.427   4.666 -0.1662 -0.1615 -0.1604
  446SOL    HW2 3346   1.312   1.374   4.543  0.8925  0.0998  0.3364
  447SOL     OW 3347   0.535   0.980   5.099  0.2085  0.0919 -0.1476
  447SOL    HW1 3348   0.495   0.920   5.036 -2.2928  1.3962  0.0697
  447SOL    HW2 3349   0.502   0.952   5.184 -0.1606  1.1298  0.0688
  448SOL     OW 3350   0.607   4.061   1.152  0.1487  0.1222  0.4287
  448SOL    HW1 3351   0.646   3.986   1.107 -0.0065  0.0956  0.3378
  448SOL    HW2 3352   0.682   4.107   1.190  0.0737 -1.5590  2.8239
  449SOL     OW 3353   1.391  10.381   2.298  0.1307  0.0536 -0.4327
  449SOL    HW1 3354   1.312  10.431   2.314 -0.0578 -0.6440  1.0103
  449SOL    HW2 3355   1.399  10.377   2.202 -1.8071 -0.2443 -0.6086
  450SOL     OW 3356   3.761   7.899   4.749  0.6919 -0.3718 -0.3562
  450SOL    HW1 3357   3.811   7.839   4.804 -0.8583 -0.0883  1.4284
  450SOL    HW2 3358   3.727   7.965   4.809  0.6062  1.1205 -1.9639
  451SOL     OW 3359   1.609   5.203   1.237 -0.3999 -0.1949 -0.0378
  451SOL    HW1 3360   1.526   5.157   1.249 -0.8144  0.5211 -0.1164
  451SOL    HW2 3361   1.587   5.279   1.183  0.6752 -1.0685 -1.7917
  452SOL     OW 3362   7.029   1.019   1.191 -0.1164  0.4976 -0.5590
  452SOL    HW1 3363   7.088   1.012   1.266 -1.0258 -0.0527  0.1232
  452SOL    HW2 3364   7.005   0.929   1.171 -1.4829  0.7676 -0.2079
  453SOL     OW 3365   1.449  10.834   5.017  0.2982  0.5124  0.0711
  453SOL    HW1 3366   1.440  10.766   4.950  1.1393 -0.1525  0.6150
  453SOL    HW2 3367   1.366  10.882   5.014 -0.4664 -0.7841 -0.0532
  454SOL     OW 3368   5.599   4.995   9.848  0.0078  0.1726 -0.4130
  454SOL    HW1 3369   5.571   5.005   9.939 -1.0862 -0.2629 -0.6838
  454SOL    HW2 3370   5.667   5.062   9.836 -0.1598  0.5380  0.5901
  455SOL     OW 3371   0.691   5.501   9.584  0.0813 -0.5537 -0.2683
  455SOL    HW1 3372   0.692   5.533   9.675 -2.4050  0.8583 -0.6327
  455SOL    HW2 3373   0.642   5.419   9.589 -0.5111 -0.2168 -0.3576
  456SOL     OW 3374   4.330   8.653  10.109 -0.5412  0.4247 -0.2636
  456SOL    HW1 3375   4.304   8.665  10.200  0.5221 -0.3153  0.1662
  456SOL    HW2 3376   4.345   8.559  10.100  0.5631  0.6274 -0.8454
  457SOL     OW 3377   4.731   7.116   0.901 -0.3187 -0.3095 -0.3506
  457SOL    HW1 3378   4.722   7.090   0.993 -0.3528  1.0809  0.0525
  457SOL    HW2 3379   4.739   7.211   0.903  0.7502 -0.3381 -1.7188
  458SOL     OW 3380   2.731   0.004   6.171  0.3125 -0.1977 -0.3127
  458SOL    HW1 3381   2.797   0.069   6.197  1.4248 -1.7107  0.7785
  458SOL    HW2 3382   2.755  -0.020   6.082  0.1615  0.5173 -0.5583
  459SOL     OW 3383   2.628   1.152   2.949  0.3170 -0.2525  0.3603
  459SOL    HW1 3384   2.636   1.199   3.032 -2.9332  2.4820 -0.6356
  459SOL    HW2 3385   2.595   1.066   2.972 -0.3492  0.3945  1.9088
  460SOL     OW 3386  10.180   7.086   3.773 -0.0860 -0.4912  0.1932
  460SOL    HW1 3387  10.229   7.052   3.697 -0.6933  0.0759 -0.4651
  460SOL    HW2 3388  10.164   7.178   3.752 -0.8793 -0.5073  0.6871
  461SOL     OW 3389  10.291   1.475  10.510  0.0530  0.3317  0.3368
  461SOL    HW1 3390  10.236   1.549  10.484  0.1251  0.4124  0.4165
  461SOL    HW2 3391  10.229   1.412  10.547  0.0114  0.4154  0.4105
  462SOL     OW 3392   1.041   6.964   9.768 -0.1589  0.1495  0.3444
  462SOL    HW1 3393   1.131   6.957   9.737 -0.0073  1.9736  0.2317
  462SOL    HW2 3394   1.021   6.878   9.805  2.0175  0.0608  1.4593
  463SOL     OW 3395   2.265   1.697   6.145 -0.0290 -0.4655  0.5847
  463SOL    HW1 3396   2.195   1.636   6.122 -1.0416  0.6479  0.5976
  463SOL    HW2 3397   2.327   1.690   6.073 -1.6770  0.7599 -1.0714
  464SOL     OW 3398   1.823   8.085   4.072 -0.1446 -0.4162  0.1847
  464SOL    HW1 3399   1.889   8.154   4.062 -1.6705  1.0471 -0.2843
  464SOL    HW2 3400   1.789   8.071   3.984 -0.5788 -1.0508  0.4431
  465SOL     OW 3401   2.056   0.029   2.029  0.3963  0.5001 -0.6052
  465SOL    HW1 3402   2.142   0.003   1.997  0.7561  0.0089  0.6841
  465SOL    HW2 3403   2.014  -0.053   2.056  0.4753  0.9377  0.9730
  466SOL     OW 3404   2.275   0.243   0.876  0.1594 -0.4409  0.0840
  466SOL    HW1 3405   2.368   0.239   0.899  0.6568  1.3169 -1.4582
  466SOL    HW2 3406   2.242   0.321   0.920 -0.4664 -0.7744  0.2152
  467SOL     OW 3407   1.801   8.749   3.746 -0.5759  0.1515  0.0616
  467SOL    HW1 3408   1.761   8.664   3.727 -0.0457 -0.2463  0.6882
  467SOL    HW2 3409   1.837   8.778   3.662  0.4775 -0.9134  0.1237
  468SOL     OW 3410   1.085   8.829   7.855 -1.5940  0.4214 -0.1458
  468SOL    HW1 3411   1.146   8.759   7.877 -0.7500  1.0212 -0.5051
  468SOL    HW2 3412   1.102   8.847   7.762 -2.2013  0.7162 -0.2035
  469SOL     OW 3413  10.717   1.122   8.583 -0.0413 -0.2581 -0.0654
  469SOL    HW1 3414  10.799   1.122   8.633  0.5509  1.2820 -0.9827
  469SOL    HW2 3415  10.690   1.030   8.582  0.9025 -0.5937  1.4789
  470SOL     OW 3416  10.295   5.127   7.121 -0.2679  0.0200 -0.0356
  470SOL    HW1 3417  10.390   5.130   7.133 -0.3681  0.1120  0.8212
  470SOL    HW2 3418  10.276   5.203   7.067  0.1719 -0.1316 -0.4120
  471SOL     OW 3419   2.657   0.267   4.893 -0.1152  0.3039 -0.1922
  471SOL    HW1 3420   2.650   0.173   4.908 -1.0182  0.4411  0.2717
  471SOL    HW2 3421   2.653   0.276   4.797 -3.8278  0.1082 -0.2004
  472SOL     OW 3422  10.317   3.400   4.099  0.0776  0.1593  0.2351
  472SOL    HW1 3423  10.378   3.449   4.154  1.3508  0.7712 -1.6193
  472SOL    HW2 3424  10.281   3.465   4.040  1.9101 -1.0411 -2.3942
  473SOL     OW 3425   1.525  10.894   0.043 -0.0620 -0.3385 -0.0467
  473SOL    HW1 3426   1.568  10.881  -0.042  1.8019  1.3059  0.5554
  473SOL    HW2 3427   1.595  10.882   0.107 -1.1339 -0.2036  1.1818
  474SOL     OW 3428   0.504   2.459   1.339  0.1155  0.1087  0.0144
  474SOL    HW1 3429   0.530   2.384   1.393  1.0510  1.0629  0.9620
  474SOL    HW2 3430   0.533   2.535   1.390 -1.8681  1.1577 -0.3534
  475SOL     OW 3431   1.922   3.459   0.317  0.5056 -0.0087 -0.5489
  475SOL    HW1 3432   1.845   3.467   0.372  1.7218 -0.9107  1.3870
  475SOL    HW2 3433   1.904   3.515   0.241 -1.9829 -0.1670 -0.1317
  476SOL     OW 3434   6.949   4.438   7.613  0.2202 -0.1503 -0.5853
  476SOL    HW1 3435   6.932   4.530   7.591  0.2635  0.1160  0.4233
  476SOL    HW2 3436   7.044   4.434   7.625  0.1042 -0.0112  0.5948
  477SOL     OW 3437   6.703   2.973   8.351  0.0929 -0.3568 -0.7039
  477SOL    HW1 3438   6.771   2.976   8.418 -0.7034  0.5395  0.0790
  477SOL    HW2 3439   6.662   2.887   8.362  1.0825 -0.9094 -1.1887
  478SOL     OW 3440   2.965   3.218  10.788  0.7004  0.0894 -0.4275
  478SOL    HW1 3441   2.932   3.305  10.809  0.1678 -0.1130 -0.3906
  478SOL    HW2 3442   2.902   3.159  10.831 -0.5159 -0.3616 -2.6882
  479SOL     OW 3443  10.189   3.125   0.562 -0.3727 -0.0170  0.0476
  479SOL    HW1 3444  10.151   3.088   0.483  0.3472  1.8799 -1.2684
  479SOL    HW2 3445  10.223   3.210   0.535  0.5192  0.4103  2.2541
  480SOL     OW 3446  10.483   2.079   6.680  0.1076 -0.0093 -0.9547
  480SOL    HW1 3447  10.462   2.171   6.699 -1.4698 -0.4670 -0.2811
  480SOL    HW2 3448  10.489   2.037   6.765 -3.5782 -1.3775 -1.1826
  481SOL     OW 3449   0.401   3.300   6.693 -0.0195 -0.6364  0.2994
  481SOL    HW1 3450   0.362   3.277   6.609 -1.9076  0.6102  0.7906
  481SOL    HW2 3451   0.411   3.216   6.739 -0.9321 -1.1171 -0.3574
  482SOL     OW 3452   7.345   0.122   7.081 -0.3084 -0.1542  0.4614
  482SOL    HW1 3453   7.298   0.189   7.031  0.8875 -0.4450 -1.1276
  482SOL    HW2 3454   7.314   0.039   7.043 -0.3343 -0.4353  1.0906
  483SOL     OW 3455  10.668   9.909   3.673  0.6398 -0.3237  0.2024
  483SOL    HW1 3456  10.737   9.899   3.607  0.0716  0.1465 -0.4839
  483SOL    HW2 3457  10.589   9.881   3.628  0.4908 -1.6510  1.2390
  484SOL     OW 3458   9.347   6.893   6.284 -0.3177 -0.2764 -0.6642
  484SOL    HW1 3459   9.323   6.800   6.291 -0.4014 -0.2147 -0.1523
  484SOL    HW2 3460   9.297   6.936   6.353  0.8352 -0.0671  0.0653
  485SOL     OW 3461   9.676   1.923   0.842  0.5233 -0.2620 -0.1733
  485SOL    HW1 3462   9.666   1.966   0.757  2.0260 -1.3986 -0.9703
  485SOL    HW2 3463   9.704   1.992   0.901  2.1537  0.0427 -1.2526
  486SOL     OW 3464   0.827   6.499   4.458 -0.6742  0.4209  0.3499
  486SOL    HW1 3465   0.791   6.422   4.415 -2.1890  0.4513  1.5201
  486SOL    HW2 3466   0.921   6.497   4.436 -0.9270 -1.0081 -0.7078
  487SOL     OW 3467  10.406   8.794   3.323 -0.2054 -0.2093 -0.0333
  487SOL    HW1 3468  10.411   8.883   3.359 -0.0289  0.6094 -1.9557
  487SOL    HW2 3469  10.405   8.807   3.228 -1.6475 -2.2152 -0.3421
  488SOL     OW 3470   6.195   6.780   0.705  0.1809  0.4601  0.6476
  488SOL    HW1 3471   6.199   6.845   0.635 -0.3266 -1.7481 -1.6067
  488SOL    HW2 3472   6.286   6.767   0.732  0.9243 -0.9962 -2.0920
  489SOL     OW 3473   1.645   0.462   6.160 -0.5223 -0.1717 -0.4037
  489SOL    HW1 3474   1.559   0.423   6.179 -0.2116 -1.3269 -1.2635
  489SOL    HW2 3475   1.671   0.423   6.077 -0.3758  2.2207 -1.5626
  490SOL     OW 3476   8.069   0.654   2.547 -0.1302 -0.5651  0.3636
  490SOL    HW1 3477   8.098   0.571   2.508 -0.7332 -1.4372  1.7010
  490SOL    HW2 3478   7.981   0.636   2.580 -0.4007  0.7160  0.4021
  491SOL     OW 3479  10.535   5.847  10.837  0.0097  0.0926  0.1502
  491SOL    HW1 3480  10.581   5.931  10.839 -2.1517  1.3642  0.8079
  491SOL    HW2 3481  10.582   5.795  10.772  2.2208  1.3024  0.6663
  492SOL     OW 3482  10.914   9.685   5.013  0.3278  0.1898  0.1467
  492SOL    HW1 3483  10.908   9.689   4.918  0.3618  1.0472  0.1794
  492SOL    HW2 3484  10.914   9.591   5.033 -0.7882  0.0002 -0.6247
  493SOL     OW 3485   0.836   3.928   5.764  0.4376 -0.5914 -0.7648
  493SOL    HW1 3486   0.823   3.852   5.707  0.0014 -0.1203 -1.3051
  493SOL    HW2 3487   0.929   3.950   5.753 -0.1473  1.0015 -3.2696
  494SOL     OW 3488   1.118   6.690   7.135  0.2114  0.3970 -0.1054
  494SOL    HW1 3489   1.056   6.622   7.107 -0.0076  0.4126  0.3230
  494SOL    HW2 3490   1.076   6.731   7.210  1.0612 -0.0912  0.6678
  495SOL     OW 3491   3.092  11.043   3.754 -0.7434  0.1196  0.5839
  495SOL    HW1 3492   3.138  11.125   3.772 -1.0836  0.1481  1.4036
  495SOL    HW2 3493   3.016  11.046   3.813  0.5879 -1.9441  2.5683
  496SOL     OW 3494   2.517   5.944   5.112 -0.3463 -0.2277 -0.4653
  496SOL    HW1 3495   2.562   6.017   5.155  0.9026 -0.0977 -1.9184
  496SOL    HW2 3496   2.424   5.967   5.116 -0.2159  0.1523  1.4007
  497SOL     OW 3497   8.096   8.110   3.789 -0.5350  0.2843 -0.3060
  497SOL    HW1 3498   8.069   8.173   3.722 -1.1582 -0.8359 -1.1501
  497SOL    HW2 3499   8.014   8.084   3.832 -0.7926 -2.4055 -2.2191
  498SOL     OW 3500  10.614   3.087   0.683 -0.0473 -0.0812 -0.0127
  498SOL    HW1 3501  10.610   3.182   0.693 -2.0273  0.5215 -4.3202
  498SOL    HW2 3502  10.672   3.073   0.608  1.1804 -2.4653  1.2586
  499SOL     OW 3503  10.415   5.750   6.300  0.0399  0.6020  0.3178
  499SOL    HW1 3504  10.324   5.758   6.272  0.3136  2.2713 -0.1539
  499SOL    HW2 3505  10.458   5.701   6.230 -0.1306  1.3534 -0.3207
  500SOL     OW 3506   2.358   9.528   4.072  0.2230  0.1367 -0.1492
  500SOL    HW1 3507   2.354   9.490   4.159  1.3462  0.0819 -0.1080
  500SOL    HW2 3508   2.380   9.620   4.086 -1.3363  0.5616 -0.3066
  501SOL     OW 3509  10.057   7.721  11.072  0.0378 -0.2871  0.4288
  501SOL    HW1 3510  10.075   7.630  11.047 -1.5202 -0.6178  0.4312
  501SOL    HW2 3511  10.139   7.751  11.111  1.6974 -0.6526 -2.4168
  502SOL     OW 3512   1.677   0.549   0.566  0.2534  0.2516 -0.4288
  502SOL    HW1 3513   1.762   0.592   0.577  0.6447 -0.8176  1.0182
  502SOL    HW2 3514   1.622   0.586   0.635  0.8322 -2.0010  1.3931
  503SOL     OW 3515   7.507   0.952   0.726 -0.1753  0.1957  0.1684
  503SOL    HW1 3516   7.571   0.903   0.778  1.1318  0.3107 -1.2393
  503SOL    HW2 3517   7.560   1.014   0.675 -1.0102 -1.6013 -3.1949
  504SOL     OW 3518   3.925   7.740  10.679  0.5599 -0.2968  0.4985
  504SOL    HW1 3519   3.869   7.674  10.719 -1.1285 -0.2793 -1.6293
  504SOL    HW2 3520   3.978   7.690  10.616 -0.0945  0.2320 -0.4860
  505SOL     OW 3521   1.797   6.162  10.841 -0.3547  0.1614  0.0784
  505SOL    HW1 3522   1.748   6.242  10.858 -0.2355  0.1848  0.3162
  505SOL    HW2 3523   1.732   6.099  10.810 -0.4679  0.3134  0.0115
  506SOL     OW 3524   4.162  10.375   4.504 -0.3714  0.0343 -0.1314
  506SOL    HW1 3525   4.252  10.346   4.517  0.7053  2.0425 -2.3950
  506SOL    HW2 3526   4.165  10.470   4.517 -2.0482  0.2180 -0.8247
  507SOL     OW 3527   7.158   9.942   1.666 -0.3609  0.1899 -0.0446
  507SOL    HW1 3528   7.109   9.975   1.742  0.7445  0.3512  0.6211
  507SOL    HW2 3529   7.208  10.018   1.636  0.5897 -0.3198  0.1957
  508SOL     OW 3530   8.936  11.003   3.620  0.1363 -0.6380  0.2542
  508SOL    HW1 3531   9.014  11.057   3.634  0.4492 -0.6830 -1.1976
  508SOL    HW2 3532   8.898  11.036   3.539 -1.8929 -0.0218  1.3744
  509SOL     OW 3533   1.369   8.753   9.114 -0.4036 -0.2407 -0.4613
  509SOL    HW1 3534   1.461   8.747   9.141  0.1665  3.1784 -1.2014
  509SOL    HW2 3535   1.367   8.714   9.026  0.9419  1.6528 -1.4156
  510SOL     OW 3536   7.524   6.855   1.123 -0.2606 -0.3638  0.1150
  510SOL    HW1 3537   7.450   6.898   1.166 -1.6114 -0.3908 -2.0417
  510SOL    HW2 3538   7.586   6.926   1.105 -0.6867  0.0058  0.0983
  511SOL     OW 3539   8.950  10.294   4.316  0.1608  0.0515  0.3115
  511SOL    HW1 3540   8.891  10.328   4.249  0.9186 -0.8098 -0.8284
  511SOL    HW2 3541   8.972  10.206   4.286 -1.0036 -1.1554  2.6916
  512SOL     OW 3542   0.393   7.279   0.450  0.1233  0.2006 -0.2349
  512SOL    HW1 3543   0.484   7.306   0.446 -0.0648  0.9595  0.3665
  512SOL    HW2 3544   0.394   7.193   0.492  0.4736  0.6782  0.7397
  513SOL     OW 3545   1.617   2.240   5.639 -0.1864  0.3362 -0.4770
  513SOL    HW1 3546   1.631   2.293   5.560 -0.1124 -0.6747 -1.1658
  513SOL    HW2 3547   1.704   2.233   5.679  0.0483 -0.3438 -1.0935
  514SOL     OW 3548   1.257   0.028   3.902 -0.0603  0.2183 -0.2447
  514SOL    HW1 3549   1.315   0.077   3.960  0.4346 -0.5454 -0.0877
  514SOL    HW2 3550   1.307   0.017   3.821 -1.1214  2.1764 -1.2532
  515SOL     OW 3551   2.308   2.878  10.186  0.3746  0.3668  0.8540
  515SOL    HW1 3552   2.250   2.803  10.176  0.2077  0.3047  2.1534
  515SOL    HW2 3553   2.389   2.841  10.222  1.4386  0.3817 -1.3253
  516SOL     OW 3554   6.509   6.756   6.171 -0.5547  0.1749  0.1227
  516SOL    HW1 3555   6.542   6.839   6.138  0.5252 -0.6451 -0.9809
  516SOL    HW2 3556   6.473   6.713   6.093  1.0999 -1.3746  0.1457
  517SOL     OW 3557   7.259   2.451   4.867 -0.0284 -0.0085 -0.3798
  517SOL    HW1 3558   7.283   2.362   4.841 -1.5049 -0.0902 -1.5880
  517SOL    HW2 3559   7.232   2.444   4.958  2.0109 -0.3596  0.2447
  518SOL     OW 3560   7.313   5.045   0.453  0.1100 -0.5178  0.4813
  518SOL    HW1 3561   7.356   4.961   0.437 -3.2476 -2.0004 -1.6833
  518SOL    HW2 3562   7.357   5.106   0.394  2.2084 -0.7683  1.6708
  519SOL     OW 3563   3.143  10.648   3.879  0.4415  0.4102  0.0996
  519SOL    HW1 3564   3.066  10.686   3.921 -0.0787  0.4676 -0.8753
  519SOL    HW2 3565   3.131  10.553   3.885  0.3710  0.4182  0.0926
  520SOL     OW 3566  10.242  10.541   5.121  0.3501  0.1449 -0.2924
  520SOL    HW1 3567  10.336  10.523   5.114 -0.1023 -2.6820 -0.0065
  520SOL    HW2 3568  10.205  10.504   5.041 -0.6457  0.4908 -0.0000
  521SOL     OW 3569   4.352   7.731   7.702 -0.2647  0.1323 -0.3060
  521SOL    HW1 3570   4.365   7.671   7.629 -0.3869 -2.7088  1.8441
  521SOL    HW2 3571   4.258   7.750   7.701 -0.2388  0.2402 -0.9479
  522SOL     OW 3572   1.730   5.553   3.739 -0.4603 -0.3168  0.2361
  522SOL    HW1 3573   1.658   5.558   3.802  2.4359 -0.4583  3.9080
  522SOL    HW2 3574   1.729   5.463   3.708 -2.3582 -0.0670 -0.5151
  523SOL     OW 3575   0.171   5.380   5.488  0.3605  0.0573 -0.2644
  523SOL    HW1 3576   0.098   5.367   5.428 -0.7333  0.0691  1.0284
  523SOL    HW2 3577   0.234   5.432   5.437 -1.1597  1.3252 -0.9238
  524SOL     OW 3578  10.411   0.758   4.836 -0.3264 -0.0924 -0.1769
  524SOL    HW1 3579  10.334   0.754   4.780 -1.7128  1.3872  1.4745
  524SOL    HW2 3580  10.485   0.753   4.776 -1.6406 -2.1206 -1.7941
  525SOL     OW 3581   6.388   8.093   4.714  0.2761 -0.3207 -0.9425
  525SOL    HW1 3582   6.339   8.088   4.795 -0.8998  1.4004 -1.4892
  525SOL    HW2 3583   6.328   8.060   4.647  0.4210  0.3023 -1.3963
  526SOL     OW 3584   5.105   6.564   1.530  0.1237  0.1286  0.0718
  526SOL    HW1 3585   5.178   6.503   1.544  0.2814  0.1901 -0.4285
  526SOL    HW2 3586   5.134   6.646   1.571  0.9144  0.5432 -1.2448
  527SOL     OW 3587   7.689   8.717  10.035 -0.1459 -0.7094 -0.4624
  527SOL    HW1 3588   7.715   8.625  10.032 -0.1694 -0.7948  1.1931
  527SOL    HW2 3589   7.768   8.764  10.061  0.3208 -0.0093 -2.8800
  528SOL     OW 3590   3.329   8.314  10.309  0.0945  0.3093 -0.2770
  528SOL    HW1 3591   3.235   8.334  10.305 -0.0155 -0.1052  0.1860
  528SOL    HW2 3592   3.348   8.271  10.226 -0.2393 -0.0598 -0.1673
  529SOL     OW 3593   3.698   3.823  10.096 -0.8363 -0.2352  0.2822
  529SOL    HW1 3594   3.692   3.806  10.190 -1.7800 -0.7785  0.1375
  529SOL    HW2 3595   3.681   3.738  10.055 -0.2464 -0.0464 -0.3883
  530SOL     OW 3596  10.566   6.314   2.509 -0.1566 -0.1566  0.1370
  530SOL    HW1 3597  10.591   6.247   2.573  0.3883 -0.4056 -0.3203
  530SOL    HW2 3598  10.643   6.321   2.451  0.6919  2.4343  1.4277
  531SOL     OW 3599   0.173   3.253   4.475  0.1760  0.5677  0.1271
  531SOL    HW1 3600   0.165   3.335   4.425 -0.0969  1.2497  1.2544
  531SOL    HW2 3601   0.134   3.273   4.560 -1.4307 -1.2330 -0.1119
  532SOL     OW 3602   3.449   0.185   2.808 -1.1426 -0.2136 -0.5550
  532SOL    HW1 3603   3.399   0.265   2.823 -2.4958 -0.9065 -1.1741
  532SOL    HW2 3604   3.508   0.206   2.735  0.8113  1.1515  1.2949
  533SOL     OW 3605   1.969   1.194   0.674 -0.0746 -0.4979 -0.2346
  533SOL    HW1 3606   1.965   1.276   0.625  2.5176 -0.6323 -0.8163
  533SOL    HW2 3607   2.029   1.212   0.746  1.4919 -2.1245 -1.0394
  534SOL     OW 3608   7.568   1.478   5.507 -0.5218  0.2959  0.1796
  534SOL    HW1 3609   7.635   1.501   5.442 -1.2377 -0.0378 -0.6847
  534SOL    HW2 3610   7.589   1.388   5.531 -1.4977 -0.3262 -1.1768
  535SOL     OW 3611   0.218   0.247   9.825 -0.1896 -0.5111  0.3296
  535SOL    HW1 3612   0.128   0.234   9.796 -0.2592 -0.5889  0.5780
  535SOL    HW2 3613   0.268   0.178   9.781 -0.4619 -1.2754  1.1906
  536SOL     OW 3614   3.018   7.840   4.786 -0.2698  0.2812  0.4151
  536SOL    HW1 3615   3.042   7.781   4.714 -0.5551  0.0778  0.4855
  536SOL    HW2 3616   3.005   7.782   4.861  0.6358  0.5450  0.7929
  537SOL     OW 3617   6.475   1.650   6.248 -0.2422  0.1945  0.1539
  537SOL    HW1 3618   6.398   1.705   6.236 -0.3873  0.0583  0.4419
  537SOL    HW2 3619   6.474   1.627   6.341  0.3590  0.5113  0.2454
  538SOL     OW 3620   3.102   2.008   1.198  0.1255  0.2754 -0.1425
  538SOL    HW1 3621   3.113   2.092   1.154 -0.8842  0.2275 -0.5124
  538SOL    HW2 3622   3.171   1.953   1.161 -0.3099  0.4215 -1.2325
  539SOL     OW 3623  10.573  10.478   2.617 -0.3812 -0.1509 -0.3337
  539SOL    HW1 3624  10.640  10.489   2.684  0.1258 -0.1495 -0.8298
  539SOL    HW2 3625  10.622  10.461   2.536 -0.8051  2.5295 -1.2688
  540SOL     OW 3626   7.217   9.970   6.851 -0.4729 -0.0268  0.4827
  540SOL    HW1 3627   7.295   9.915   6.862  0.7256  0.4076 -3.7970
  540SOL    HW2 3628   7.144   9.909   6.852  0.6951 -1.6758 -2.6738
  541SOL     OW 3629   6.329   3.224   4.324 -0.0427 -0.4148  0.5715
  541SOL    HW1 3630   6.363   3.313   4.319  0.9102 -0.8004 -0.1707
  541SOL    HW2 3631   6.235   3.233   4.307 -0.1570  0.5529  1.6128
  542SOL     OW 3632   4.746   6.930   2.723  0.0925 -0.8745 -0.2100
  542SOL    HW1 3633   4.784   7.001   2.672 -0.9788  0.0800  0.2859
  542SOL    HW2 3634   4.814   6.907   2.787 -0.1056  0.7758  0.6368
  543SOL     OW 3635   1.663   0.687   7.425  0.0087 -0.2003 -0.6532
  543SOL    HW1 3636   1.685   0.595   7.440  0.2568 -0.1703 -0.8213
  543SOL    HW2 3637   1.575   0.697   7.461 -0.0151 -0.5008 -0.6246
  544SOL     OW 3638   9.241   9.997   5.611 -0.7180 -0.1234 -0.0436
  544SOL    HW1 3639   9.305   9.973   5.544 -1.6467  0.2964 -1.1131
  544SOL    HW2 3640   9.200  10.077   5.578 -1.1657  0.1264  1.0572
  545SOL     OW 3641   8.984   1.185   5.532 -0.6460  0.2597 -0.0652
  545SOL    HW1 3642   8.945   1.198   5.619  0.9492 -0.6901  0.8544
  545SOL    HW2 3643   8.953   1.099   5.505 -0.2720  0.0794  0.0713
  546SOL     OW 3644   0.705  10.346   4.079 -0.8132 -0.1916  0.2934
  546SOL    HW1 3645   0.665  10.432   4.061 -0.4320 -0.5004 -2.4155
  546SOL    HW2 3646   0.734  10.352   4.170 -1.8851  2.0987  0.5621
  547SOL     OW 3647  10.943   6.521   9.096 -0.4695  0.1079 -0.0297
  547SOL    HW1 3648  10.935   6.428   9.118  2.6404 -0.4638 -0.8308
  547SOL    HW2 3649  10.957   6.522   9.001 -1.0608  1.4674 -0.1183
  548SOL     OW 3650   1.070   7.266   2.838 -0.3724  0.2077  0.4288
  548SOL    HW1 3651   1.001   7.216   2.881  0.5675 -0.0608  1.6811
  548SOL    HW2 3652   1.092   7.335   2.900  1.0711 -0.2309  0.4366
  549SOL     OW 3653   3.458  10.225   1.052 -0.6632  0.1932  0.5836
  549SOL    HW1 3654   3.493  10.313   1.037  0.0819  0.1036  1.6761
  549SOL    HW2 3655   3.530  10.177   1.093 -1.0846 -0.9146  0.0645
  550SOL     OW 3656   3.398   6.247   8.654 -0.2410 -0.4357  0.0127
  550SOL    HW1 3657   3.326   6.290   8.607  0.5923  1.6025  0.5037
  550SOL    HW2 3658   3.474   6.304   8.639  0.7039 -1.2432  1.4958
  551SOL     OW 3659   7.615   0.889   4.631  0.0379 -0.0475 -0.1977
  551SOL    HW1 3660   7.623   0.888   4.726  0.4962 -1.0390 -0.2415
  551SOL    HW2 3661   7.620   0.982   4.608 -0.2015  0.2089  0.7517
  552SOL     OW 3662  10.247   2.355  10.655  0.2800  0.1798  0.2775
  552SOL    HW1 3663  10.195   2.308  10.589  0.7826 -0.6234  0.4423
  552SOL    HW2 3664  10.250   2.296  10.730 -1.2776  1.5524  1.5171
  553SOL     OW 3665   3.725   3.430  10.861 -0.1910 -0.4829  0.8610
  553SOL    HW1 3666   3.706   3.514  10.819  0.6881  0.1457  1.7014
  553SOL    HW2 3667   3.639   3.392  10.878 -0.5880 -0.1653 -0.3181
  554SOL     OW 3668   3.947   0.172   1.704 -0.1793  0.0989  0.0365
  554SOL    HW1 3669   3.900   0.101   1.661  1.4311 -0.1021 -1.4772
  554SOL    HW2 3670   3.982   0.133   1.785 -1.2096 -0.1768  0.3638
  555SOL     OW 3671   3.514  10.338   5.903  0.6949 -0.2189  0.6968
  555SOL    HW1 3672   3.489  10.401   5.970  1.4449 -1.6554  2.4270
  555SOL    HW2 3673   3.433  10.294   5.879  0.4317  0.2528  0.7266
  556SOL     OW 3674   3.044   0.627   5.092 -0.2352 -1.6156 -0.4452
  556SOL    HW1 3675   2.948   0.627   5.091 -0.3117 -0.4522  1.4066
  556SOL    HW2 3676   3.068   0.534   5.088 -1.3864 -1.9002 -1.5158
  557SOL     OW 3677   8.715   5.777   3.387  0.0946  0.3806  0.2877
  557SOL    HW1 3678   8.641   5.799   3.329  0.1860  0.2359  0.1156
  557SOL    HW2 3679   8.726   5.682   3.377  0.2437  0.3876  0.3857
  558SOL     OW 3680   2.061  10.946  10.479 -0.2741 -0.5479  0.1983
  558SOL    HW1 3681   2.021  10.868  10.518 -0.4965 -0.3751  0.3159
  558SOL    HW2 3682   2.144  10.957  10.527 -0.6894 -0.1567  0.8413
  559SOL     OW 3683   0.294   5.618   6.366 -0.3847 -0.4713  0.2801
  559SOL    HW1 3684   0.246   5.652   6.441 -0.1616  0.1226  0.1594
  559SOL    HW2 3685   0.366   5.680   6.354  1.0269 -1.8708  1.0908
  560SOL     OW 3686   7.226   3.625   8.664 -0.7836 -0.3078 -0.7148
  560SOL    HW1 3687   7.224   3.562   8.737  0.2779 -0.9500 -1.2003
  560SOL    HW2 3688   7.278   3.698   8.697  1.0200 -1.2750 -1.2973
  561SOL     OW 3689   3.792   6.149   0.047 -0.2691 -0.7088  0.9172
  561SOL    HW1 3690   3.754   6.213   0.107  0.0260  0.4919 -0.1163
  561SOL    HW2 3691   3.753   6.066   0.072 -1.5388  0.0580  1.5972
  562SOL     OW 3692   2.384   8.512   1.611 -0.0033  0.8262 -0.0276
  562SOL    HW1 3693   2.307   8.562   1.582 -0.1274  1.3650  1.1475
  562SOL    HW2 3694   2.356   8.472   1.693  0.7097  0.3423 -0.0159
  563SOL     OW 3695   1.715   5.685   4.089 -0.8360 -0.1906  0.6113
  563SOL    HW1 3696   1.652   5.629   4.044 -0.0973 -1.6277  1.3146
  563SOL    HW2 3697   1.686   5.686   4.180 -0.0902 -0.5333  0.8624
  564SOL     OW 3698   6.622  11.071   8.930 -0.1258 -0.0034 -0.0381
  564SOL    HW1 3699   6.660  10.983   8.922 -0.1447 -0.1866  1.5233
  564SOL    HW2 3700   6.528  11.056   8.923 -0.2188  0.7339 -6.5839
  565SOL     OW 3701   4.676   1.709   3.367  0.1300  0.7618 -0.0429
  565SOL    HW1 3702   4.704   1.632   3.415  1.8074 -0.1751 -2.3207
  565SOL    HW2 3703   4.635   1.765   3.432 -0.3566 -1.6572  1.8485
  566SOL     OW 3704   8.424   2.879   5.593 -0.5958  0.3422 -0.7877
  566SOL    HW1 3705   8.417   2.894   5.687  1.8893 -0.8603 -0.3295
  566SOL    HW2 3706   8.397   2.788   5.581 -0.7288  0.4338 -1.2039
  567SOL     OW 3707   5.625   5.590   3.104 -0.1823  0.1774 -0.2883
  567SOL    HW1 3708   5.717   5.566   3.116 -0.3707  0.5828  2.7892
  567SOL    HW2 3709   5.578   5.534   3.165 -2.0003  0.1685 -1.6071
  568SOL     OW 3710   9.406   7.777   5.752  0.2306  0.1560 -0.1131
  568SOL    HW1 3711   9.325   7.813   5.788 -0.1608  0.1248 -0.9372
  568SOL    HW2 3712   9.453   7.742   5.828  0.6471  2.4070  0.7445
  569SOL     OW 3713   7.535  10.197   0.536 -0.4793 -0.0821 -0.1407
  569SOL    HW1 3714   7.526  10.101   0.535  1.3255 -0.2796 -1.1804
  569SOL    HW2 3715   7.558  10.220   0.446 -1.0052  1.3737  0.0674
  570SOL     OW 3716   9.495   9.974  10.895 -0.0932 -0.0846  0.0245
  570SOL    HW1 3717   9.446  10.057  10.903  0.4735  0.1624  1.0808
  570SOL    HW2 3718   9.586   9.999  10.907  0.3856 -0.5011 -2.2504
  571SOL     OW 3719   9.238   9.534   7.808  0.2656  0.3957 -0.4604
  571SOL    HW1 3720   9.229   9.498   7.720  0.1473  0.6139 -0.5377
  571SOL    HW2 3721   9.296   9.473   7.853  0.0614  0.1039 -0.5892
  572SOL     OW 3722   1.097  10.896   2.999 -0.2160 -0.0242 -0.2454
  572SOL    HW1 3723   1.018  10.868   2.953 -1.2765  1.3927  0.6170
  572SOL    HW2 3724   1.081  10.874   3.091 -0.7049  2.3660  0.3232
  573SOL     OW 3725   0.601   0.641   1.539 -0.3030 -0.0730  0.0881
  573SOL    HW1 3726   0.517   0.648   1.494 -0.1466 -1.5333 -0.4989
  573SOL    HW2 3727   0.585   0.674   1.627 -0.7763  2.2859 -0.8123
  574SOL     OW 3728   4.818   7.374   0.863  0.5609 -0.1531 -0.1601
  574SOL    HW1 3729   4.905   7.376   0.904 -0.4417 -1.5927  2.2414
  574SOL    HW2 3730   4.789   7.465   0.864  1.1771  0.0441  1.0305
  575SOL     OW 3731   4.032   2.591   6.707 -0.4957  0.0408 -0.2271
  575SOL    HW1 3732   4.108   2.603   6.764  0.2216  0.1765 -1.1774
  575SOL    HW2 3733   4.068   2.550   6.628 -1.7200 -1.5969  0.0289
  576SOL     OW 3734   4.418   2.277  10.422 -0.4228 -0.1249  0.3557
  576SOL    HW1 3735   4.446   2.205  10.479  1.2801 -1.2212 -1.7428
  576SOL    HW2 3736   4.491   2.290  10.362 -2.3750  0.4608 -2.0366
  577SOL     OW 3737  10.268  10.497   8.458 -0.2580  0.0473  0.3952
  577SOL    HW1 3738  10.304  10.427   8.403 -1.0190 -0.1788  0.1812
  577SOL    HW2 3739  10.337  10.564   8.459  1.0821 -1.2788  1.7621
  578SOL     OW 3740   3.076   5.368   5.370 -0.5284 -0.0370  0.0927
  578SOL    HW1 3741   3.017   5.392   5.442 -0.5452 -0.0218  0.0739
  578SOL    HW2 3742   3.071   5.273   5.365 -0.7924 -0.0148 -0.1135
  579SOL     OW 3743   4.573   1.194   9.879  0.0951 -1.0631 -0.4330
  579SOL    HW1 3744   4.603   1.278   9.913  0.3972 -1.8863  1.4650
  579SOL    HW2 3745   4.651   1.156   9.838  0.2159 -0.8471 -0.4041
  580SOL     OW 3746   8.009   9.755   1.449  0.2746  0.1589  0.1164
  580SOL    HW1 3747   7.929   9.803   1.424 -1.0097 -2.4383 -1.1857
  580SOL    HW2 3748   7.977   9.680   1.498  1.8196 -1.4305 -1.1910
  581SOL     OW 3749   9.123   9.949   2.779 -0.1607 -0.2461 -0.2187
  581SOL    HW1 3750   9.113  10.034   2.822  0.7091 -0.4147  0.3453
  581SOL    HW2 3751   9.084   9.887   2.841  1.4252 -0.5329  0.5433
  582SOL     OW 3752   0.501   6.004   1.655  0.0436 -0.3409  0.0794
  582SOL    HW1 3753   0.436   5.935   1.660  0.4873 -1.0606 -2.4374
  582SOL    HW2 3754   0.570   5.967   1.600  1.4397  1.2555  0.6908
  583SOL     OW 3755   0.666   7.759   4.654  1.1901 -0.1287 -0.1264
  583SOL    HW1 3756   0.726   7.696   4.614 -0.0120 -0.6416 -1.1620
  583SOL    HW2 3757   0.670   7.738   4.748  0.9933 -1.6030 -0.4227
  584SOL     OW 3758   7.295   6.344   5.020  0.1782  0.3649 -0.3186
  584SOL    HW1 3759   7.346   6.363   4.942 -1.3478 -0.8627 -1.6976
  584SOL    HW2 3760   7.224   6.409   5.019 -0.8734 -0.7538 -0.9959
  585SOL     OW 3761   3.373   3.103   7.245  0.3052  0.2035  0.2145
  585SOL    HW1 3762   3.468   3.115   7.236  0.0917  1.3676 -0.6502
  585SOL    HW2 3763   3.359   3.010   7.228  1.3363 -0.0750  0.8011
  586SOL     OW 3764  10.324   1.362   0.836 -0.1874 -0.2871 -0.5803
  586SOL    HW1 3765  10.389   1.420   0.796 -0.7108 -0.2360 -1.3769
  586SOL    HW2 3766  10.315   1.395   0.926  0.1479  0.3306 -0.7682
  587SOL     OW 3767  10.740   1.205   3.022  0.0095 -0.4650 -0.2597
  587SOL    HW1 3768  10.709   1.116   3.039 -1.7007  0.0966 -0.2136
  587SOL    HW2 3769  10.663   1.261   3.040  1.0495  1.0192 -0.2341
  588SOL     OW 3770  10.936   7.274   1.353  0.1952 -0.3403  0.0171
  588SOL    HW1 3771  10.961   7.250   1.443  0.8732 -0.2073 -0.1317
  588SOL    HW2 3772  10.877   7.348   1.364 -0.9207 -1.2525  0.4218
  589SOL     OW 3773   9.576  10.371   1.730 -0.5029 -0.5229 -0.3367
  589SOL    HW1 3774   9.544  10.282   1.747 -1.5304  0.0637  0.9131
  589SOL    HW2 3775   9.643  10.359   1.662  0.2891 -2.4172  0.6827
  590SOL     OW 3776   0.660   6.610   9.856  0.3868 -0.0814  0.1125
  590SOL    HW1 3777   0.570   6.578   9.856  0.6591 -0.8727 -0.4265
  590SOL    HW2 3778   0.654   6.696   9.815  0.1000 -0.8597 -1.5679
  591SOL     OW 3779   3.646   2.169   7.568 -0.0695  0.4423  0.7321
  591SOL    HW1 3780   3.603   2.171   7.483  0.8317 -2.1507  0.1292
  591SOL    HW2 3781   3.607   2.093   7.612  1.5005  0.0322  1.4611
  592SOL     OW 3782   1.513  10.545  11.024 -0.0715  0.4070  0.0844
  592SOL    HW1 3783   1.537  10.617  10.966 -0.3227 -0.2303 -0.8280
  592SOL    HW2 3784   1.578  10.477  11.006  0.4273  0.5548  1.2517
  593SOL     OW 3785   8.427   6.632   4.722 -0.3072 -0.0574  0.4348
  593SOL    HW1 3786   8.514   6.640   4.684 -0.5320 -0.7646 -0.2693
  593SOL    HW2 3787   8.367   6.652   4.651 -0.7260 -0.0432  0.7826
  594SOL     OW 3788   2.289  10.875   2.622  0.3254  0.0511 -0.0281
  594SOL    HW1 3789   2.277  10.929   2.544 -2.7836  0.2682  0.4983
  594SOL    HW2 3790   2.208  10.885   2.671  0.7955 -2.8258  1.5531
  595SOL     OW 3791   0.188   9.877   9.254  0.4909 -0.3010 -0.3332
  595SOL    HW1 3792   0.145   9.955   9.220 -0.0327 -0.2984  0.2930
  595SOL    HW2 3793   0.205   9.897   9.346  1.5445 -0.4351 -0.4918
  596SOL     OW 3794  10.897  10.204   3.023  0.5682  0.2042  0.2515
  596SOL    HW1 3795  10.918  10.292   3.055 -0.3042 -0.1343  1.8719
  596SOL    HW2 3796  10.844  10.166   3.092  0.0249 -1.2265 -0.9106
  597SOL     OW 3797   0.580   4.973   3.543  0.4400  0.0375  0.2523
  597SOL    HW1 3798   0.538   4.984   3.628 -1.9327 -1.3683 -0.6257
  597SOL    HW2 3799   0.601   5.062   3.514  0.6016  0.5778  1.9678
  598SOL     OW 3800   3.301   1.610   6.004  0.0282  0.2525 -0.0064
  598SOL    HW1 3801   3.363   1.572   5.941 -0.9128 -1.1267 -0.1239
  598SOL    HW2 3802   3.323   1.569   6.087 -1.4668 -1.1864 -0.2743
  599SOL     OW 3803   9.582   6.732   6.148  0.2083  0.4342  0.9329
  599SOL    HW1 3804   9.657   6.683   6.183 -1.7025 -0.6885  3.8540
  599SOL    HW2 3805   9.586   6.816   6.194 -1.3127 -0.3563  2.6024
  600SOL     OW 3806   0.386  10.967   2.992 -0.0108  0.0538  0.1085
  600SOL    HW1 3807   0.309  11.002   2.948 -0.8686 -0.8871  0.8218
  600SOL    HW2 3808   0.453  10.962   2.923 -0.0485  2.3697 -0.1875
  601SOL     OW 3809   6.031   2.569   5.351 -0.6592  0.2555  0.4612
  601SOL    HW1 3810   6.081   2.633   5.400  0.0619 -0.5491  0.7981
  601SOL    HW2 3811   5.952   2.616   5.323 -0.3441  1.1540  1.0572
  602SOL     OW 3812   5.909   5.057   3.469 -0.1566  0.3100  0.1607
  602SOL    HW1 3813   5.891   5.132   3.524  0.8545  0.8223 -0.1883
  602SOL    HW2 3814   5.953   5.093   3.392 -0.8350 -0.4827 -0.6151
  603SOL     OW 3815   4.285   0.562   1.660 -0.1534  0.1941  0.1632
  603SOL    HW1 3816   4.249   0.632   1.605 -0.0494 -0.1399 -0.3353
  603SOL    HW2 3817   4.215   0.498   1.667 -0.4079  0.5433  0.9941
  604SOL     OW 3818   7.332   8.589   2.518  0.4621  0.0979 -0.5930
  604SOL    HW1 3819   7.257   8.638   2.552  0.2570  1.8529 -3.2994
  604SOL    HW2 3820   7.409   8.638   2.548  0.6951 -1.8457  2.4047
  605SOL     OW 3821   2.392   2.319   7.792 -0.3661 -0.3775 -0.1986
  605SOL    HW1 3822   2.419   2.409   7.774 -0.1166 -0.0604  1.5846
  605SOL    HW2 3823   2.301   2.314   7.760 -0.1334  0.2506 -1.0021
  606SOL     OW 3824   9.206   9.513  10.296  0.3145  0.1824  0.1319
  606SOL    HW1 3825   9.128   9.463  10.319 -0.1311  0.8948  0.2174
  606SOL    HW2 3826   9.202   9.590  10.353  0.9017  0.3825 -0.0974
  607SOL     OW 3827   2.501  10.373   4.941  0.6229 -0.3103 -0.5862
  607SOL    HW1 3828   2.433  10.435   4.965 -0.2398 -0.7496 -1.8476
  607SOL    HW2 3829   2.570  10.387   5.007 -0.7104  0.0453  0.7939
  608SOL     OW 3830  10.822   0.242   5.376  0.2622  0.1917 -0.0077
  608SOL    HW1 3831  10.778   0.327   5.380 -0.0896 -0.0058  0.3739
  608SOL    HW2 3832  10.858   0.229   5.463 -0.9985 -0.7338  0.4159
  609SOL     OW 3833   6.544   2.703   7.557 -0.2252 -0.0039  0.4455
  609SOL    HW1 3834   6.457   2.663   7.566 -1.3450  1.8374 -1.3670
  609SOL    HW2 3835   6.555   2.754   7.638 -2.4369  2.4755 -0.6607
  610SOL     OW 3836   6.944   1.273   2.282 -0.9250 -0.2472 -0.6494
  610SOL    HW1 3837   6.876   1.281   2.349 -0.1765  1.1601 -0.0156
  610SOL    HW2 3838   6.918   1.336   2.215 -0.6072 -0.2090 -0.7359
  611SOL     OW 3839   5.573   0.494   0.187  0.1647 -0.2180  0.0394
  611SOL    HW1 3840   5.577   0.582   0.150  0.3790  0.4553  1.5886
  611SOL    HW2 3841   5.522   0.504   0.267  0.3518 -1.4651  0.3304
  612SOL     OW 3842   6.458   3.464   4.355 -0.0472  0.5432 -0.1582
  612SOL    HW1 3843   6.518   3.485   4.284 -0.1747  2.7361  0.2852
  612SOL    HW2 3844   6.515   3.440   4.428  0.2002  0.5786 -0.3365
  613SOL     OW 3845   8.691   2.495   2.505 -0.3312 -0.1474 -0.0868
  613SOL    HW1 3846   8.608   2.475   2.548 -0.1553  1.6509  1.2086
  613SOL    HW2 3847   8.673   2.575   2.454  0.2186 -0.6275 -1.0709
  614SOL     OW 3848   9.805   5.005   3.190  0.3401 -0.0656  0.1640
  614SOL    HW1 3849   9.807   4.947   3.265 -0.6458  0.8484  0.9315
  614SOL    HW2 3850   9.893   4.998   3.152  0.4632 -1.4825  0.6459
  615SOL     OW 3851   3.204   1.649   6.307 -0.3099  0.2930  0.2349
  615SOL    HW1 3852   3.135   1.647   6.373  1.5379  2.3330  2.4066
  615SOL    HW2 3853   3.201   1.738   6.272  1.8000  0.7840  1.1405
  616SOL     OW 3854   2.789   0.434   6.219 -0.5618 -0.5118  0.1595
  616SOL    HW1 3855   2.827   0.520   6.240 -0.6813 -0.3080 -0.4446
  616SOL    HW2 3856   2.709   0.430   6.272 -0.2330 -0.5225  0.6691
  617SOL     OW 3857   7.158   7.407   8.471  0.3416 -0.2835 -0.5401
  617SOL    HW1 3858   7.237   7.371   8.511 -1.0676 -1.0124  1.8399
  617SOL    HW2 3859   7.109   7.444   8.545 -0.9555  1.3215 -2.1199
  618SOL     OW 3860   0.910   1.543   5.551 -0.1510  0.0507  0.0718
  618SOL    HW1 3861   1.000   1.576   5.552  0.1955 -0.8505 -0.0065
  618SOL    HW2 3862   0.859   1.611   5.594  0.4735  0.8275 -0.3830
  619SOL     OW 3863   7.072   2.910   3.842 -0.0632 -0.2069 -0.1956
  619SOL    HW1 3864   7.005   2.851   3.877 -0.7042  0.3937 -0.3791
  619SOL    HW2 3865   7.054   2.914   3.749 -0.7077  1.1049 -0.0345
  620SOL     OW 3866   1.059   8.083   8.309 -0.1772 -0.4918  0.0170
  620SOL    HW1 3867   1.022   8.123   8.387 -0.6854 -2.4311  0.8074
  620SOL    HW2 3868   1.147   8.055   8.335  0.3869  0.5204 -0.6936
  621SOL     OW 3869   1.737   6.351   3.080 -0.2159 -0.1354 -0.0589
  621SOL    HW1 3870   1.722   6.279   3.020  0.6536  1.9541 -3.0183
  621SOL    HW2 3871   1.808   6.321   3.137  0.9985 -1.2183 -2.0429
  622SOL     OW 3872   5.692   7.798   3.883 -0.4940  0.0580  0.6176
  622SOL    HW1 3873   5.765   7.831   3.830 -0.8950  1.1858  0.7389
  622SOL    HW2 3874   5.630   7.765   3.818  0.3959 -1.5473  0.5390
  623SOL     OW 3875   5.319   8.486  10.521 -0.7322 -0.6127 -0.6956
  623SOL    HW1 3876   5.253   8.418  10.534  0.3752 -1.2756  2.4719
  623SOL    HW2 3877   5.277   8.566  10.551 -0.1595 -1.0533  1.4234
  624SOL     OW 3878   3.569   1.760  10.291  0.0513  0.1225  0.2811
  624SOL    HW1 3879   3.602   1.781  10.204 -0.8933 -0.1506 -0.1587
  624SOL    HW2 3880   3.520   1.838  10.318 -1.3752 -0.5336 -0.3122
  625SOL     OW 3881  10.703   6.523   1.637 -0.3709 -0.1752  0.1549
  625SOL    HW1 3882  10.619   6.527   1.682 -0.1388 -0.0974  0.5837
  625SOL    HW2 3883  10.694   6.585   1.564 -1.0817 -1.0074 -0.4853
  626SOL     OW 3884   8.796  10.568   6.249  0.1478  0.5341 -0.0925
  626SOL    HW1 3885   8.752  10.489   6.217 -0.1235  0.6109  0.0860
  626SOL    HW2 3886   8.828  10.544   6.336 -1.4047  1.1306  0.6818
  627SOL     OW 3887   6.430   9.814   5.369  0.3154  0.3346  0.2192
  627SOL    HW1 3888   6.508   9.843   5.322  0.2602 -0.9687 -0.7240
  627SOL    HW2 3889   6.365   9.798   5.301 -0.1567 -0.4342  0.8358
  628SOL     OW 3890   3.026  10.562   1.011  0.0626  0.4183 -0.1083
  628SOL    HW1 3891   2.945  10.590   0.968 -0.2033  1.0372  0.7662
  628SOL    HW2 3892   3.095  10.587   0.949 -0.3819  0.1135 -0.7488
  629SOL     OW 3893   7.768   9.095   6.868 -0.0687  0.1567  0.0576
  629SOL    HW1 3894   7.748   9.167   6.928 -0.1030  1.5138 -1.5136
  629SOL    HW2 3895   7.800   9.025   6.925 -1.7618  0.7376  1.8329
  630SOL     OW 3896   3.483   0.674   7.741  0.3143 -0.8333 -0.3379
  630SOL    HW1 3897   3.524   0.627   7.669 -0.4776 -1.2302 -0.5384
  630SOL    HW2 3898   3.549   0.738   7.769  2.1429 -3.2113  1.1187
  631SOL     OW 3899   8.187   7.869   4.730  0.0349  0.5150  0.1514
  631SOL    HW1 3900   8.209   7.789   4.778 -2.7174 -1.9815 -2.3356
  631SOL    HW2 3901   8.255   7.877   4.663 -1.0166 -1.4099 -1.2495
  632SOL     OW 3902  10.835   8.590   4.709 -0.1434  0.5676 -0.8743
  632SOL    HW1 3903  10.790   8.571   4.626  1.5062 -2.3877 -1.2480
  632SOL    HW2 3904  10.904   8.651   4.686  0.4891 -0.4627 -1.7982
  633SOL     OW 3905   4.111   2.681   0.987 -0.2017  0.0081 -0.3416
  633SOL    HW1 3906   4.147   2.614   0.929  0.0411  1.3136 -1.7750
  633SOL    HW2 3907   4.187   2.733   1.014 -0.4715  0.1253  0.2079
  634SOL     OW 3908   2.813   8.370   4.067 -0.2424  0.1444 -0.2679
  634SOL    HW1 3909   2.728   8.409   4.089 -0.6424  0.1700 -1.7602
  634SOL    HW2 3910   2.809   8.282   4.104 -0.1913  0.7478  1.2287
  635SOL     OW 3911   8.077   2.265   3.307 -0.6408  0.2653  0.1591
  635SOL    HW1 3912   8.062   2.171   3.304 -0.6291  0.2991 -1.9631
  635SOL    HW2 3913   7.989   2.303   3.308 -0.6518  0.2431  0.0937
  636SOL     OW 3914   5.992   0.964   4.389  0.0220  0.0119 -0.8845
  636SOL    HW1 3915   5.917   0.925   4.434 -0.9273  2.0096 -0.6396
  636SOL    HW2 3916   6.066   0.910   4.415 -0.6831  0.2925  2.0809
  637SOL     OW 3917   4.681   9.878   9.849 -0.1716  0.1430  0.0629
  637SOL    HW1 3918   4.744   9.836   9.908  0.0033  2.6738  1.8387
  637SOL    HW2 3919   4.725   9.958   9.819 -0.9275 -0.2244 -2.2095
  638SOL     OW 3920  10.498   3.740   2.540  0.1126  0.0634 -0.0586
  638SOL    HW1 3921  10.475   3.832   2.549 -2.3330 -0.5245  0.3794
  638SOL    HW2 3922  10.574   3.729   2.597  1.6647  2.1613 -1.5856
  639SOL     OW 3923   8.486   4.312   3.282 -0.5736 -0.1109  0.0736
  639SOL    HW1 3924   8.393   4.289   3.277 -1.4004  2.4785  1.8777
  639SOL    HW2 3925   8.514   4.280   3.367 -0.5894  1.4835  0.7095
  640SOL     OW 3926   2.945   6.639   8.488  0.1486 -0.1975 -0.7010
  640SOL    HW1 3927   2.913   6.721   8.450 -0.4020  1.2782  2.5160
  640SOL    HW2 3928   2.885   6.572   8.457 -2.3836  1.4761  0.2234
  641SOL     OW 3929   8.735   6.654   3.571 -0.2369  0.7569 -0.1686
  641SOL    HW1 3930   8.726   6.705   3.652  0.7446 -0.7680  0.9452
  641SOL    HW2 3931   8.829   6.643   3.560 -0.4010  0.0182 -0.9102
  642SOL     OW 3932   2.884   3.188  10.233 -0.2762 -0.0887  0.0443
  642SOL    HW1 3933   2.897   3.157  10.143  0.3286  0.0907  0.0699
  642SOL    HW2 3934   2.789   3.195  10.242 -0.3892 -1.0409 -0.2636
  643SOL     OW 3935   1.743   1.057   0.992  0.2696 -0.0917 -0.4318
  643SOL    HW1 3936   1.754   1.079   1.085  1.5468 -3.3230  0.3097
  643SOL    HW2 3937   1.659   1.095   0.968  0.3480  1.6666  1.7516
  644SOL     OW 3938   9.342   9.276  10.430 -0.2891 -0.0720 -0.1754
  644SOL    HW1 3939   9.422   9.225  10.438 -0.4733 -0.2919  0.3154
  644SOL    HW2 3940   9.364   9.362  10.466 -0.1886 -0.0394 -0.3153
  645SOL     OW 3941   0.072   0.507   6.774  0.7080  0.5252  0.6874
  645SOL    HW1 3942   0.137   0.471   6.713  1.5487  0.1552  1.7746
  645SOL    HW2 3943   0.082   0.454   6.853 -1.2322  0.1697  0.7345
  646SOL     OW 3944  10.317  11.009   7.646 -0.0595  0.0558 -0.2983
  646SOL    HW1 3945  10.387  11.068   7.618 -0.0744  0.0698 -0.3059
  646SOL    HW2 3946  10.285  10.970   7.565 -0.2159  0.2225 -0.3182
  647SOL     OW 3947   2.607   3.288  10.832  0.0720 -0.8084  0.4636
  647SOL    HW1 3948   2.625   3.210  10.781 -0.3523 -0.5549 -0.0754
  647SOL    HW2 3949   2.525   3.323  10.797  0.0493 -0.3391  0.9587
  648SOL     OW 3950  10.579   1.846   3.573  0.3332  0.0301  0.0229
  648SOL    HW1 3951  10.598   1.936   3.549  0.3531 -0.1923 -0.8384
  648SOL    HW2 3952  10.603   1.795   3.495 -0.9308 -0.5704  0.0018
  649SOL     OW 3953  10.214   1.289   7.145 -0.1312  0.1542 -0.2142
  649SOL    HW1 3954  10.289   1.253   7.100 -1.5660 -1.3962 -1.4962
  649SOL    HW2 3955  10.249   1.326   7.226  1.7846 -1.8928 -0.0376
  650SOL     OW 3956   3.358   4.816   8.807  0.3062 -0.0212 -0.0566
  650SOL    HW1 3957   3.445   4.839   8.839  0.9423 -2.5063  0.2770
  650SOL    HW2 3958   3.310   4.898   8.806  2.6937  1.4779 -0.4288
  651SOL     OW 3959   7.003   6.021   6.074 -0.3546 -0.1285 -0.4358
  651SOL    HW1 3960   6.924   6.074   6.061 -0.8204 -0.4097  1.0994
  651SOL    HW2 3961   7.047   6.022   5.989 -1.5369  0.8031 -1.0567
  652SOL     OW 3962   2.797   4.509   8.971 -0.3303 -0.2307  0.7984
  652SOL    HW1 3963   2.870   4.463   9.011  0.1559 -2.1102 -2.0094
  652SOL    HW2 3964   2.836   4.586   8.930 -0.1386 -0.4977  0.4740
  653SOL     OW 3965   3.730   2.270   1.982 -0.1285  0.4378 -0.3852
  653SOL    HW1 3966   3.697   2.330   1.915  0.3193  0.3612 -0.6834
  653SOL    HW2 3967   3.708   2.183   1.948 -1.4169  0.4430  0.3896
  654SOL     OW 3968   2.600  10.178   5.699 -0.2667 -0.5479  0.2197
  654SOL    HW1 3969   2.596  10.082   5.706  0.9445 -0.5490  1.5161
  654SOL    HW2 3970   2.516  10.203   5.662 -0.7289 -2.0964  0.1299
  655SOL     OW 3971   5.917   2.994   8.153 -0.0702  0.1102 -0.3902
  655SOL    HW1 3972   5.850   2.945   8.105 -1.0157  1.2827 -0.2985
  655SOL    HW2 3973   5.874   3.076   8.178  0.6063 -0.1525  1.8509
  656SOL     OW 3974   5.669  10.403   6.204 -0.4556 -0.2326  0.0967
  656SOL    HW1 3975   5.742  10.341   6.203 -0.2055  0.0685 -0.7909
  656SOL    HW2 3976   5.591  10.349   6.190 -0.4186 -0.5479  0.9962
  657SOL     OW 3977   6.766   8.256   4.014  0.0710 -0.7258 -0.1906
  657SOL    HW1 3978   6.821   8.210   4.078  0.2093 -0.5293 -0.1681
  657SOL    HW2 3979   6.787   8.349   4.027 -1.3726 -0.5090  0.8746
  658SOL     OW 3980   7.153   3.690   4.885  0.1423 -1.1559 -0.4301
  658SOL    HW1 3981   7.086   3.703   4.818  0.1743  0.3586 -0.2110
  658SOL    HW2 3982   7.118   3.621   4.942 -0.7742 -1.0775 -0.8884
  659SOL     OW 3983   9.642   7.102   1.347  0.5148  0.0801 -0.5747
  659SOL    HW1 3984   9.565   7.155   1.327  0.3828 -1.2192 -4.4000
  659SOL    HW2 3985   9.716   7.154   1.317  1.1600  0.8157  1.9994
  660SOL     OW 3986   1.394   1.635   3.347  0.2283 -0.0220 -0.3981
  660SOL    HW1 3987   1.311   1.679   3.332  0.8357  1.2906 -0.1027
  660SOL    HW2 3988   1.441   1.641   3.264 -0.0193 -0.9088 -0.6156
  661SOL     OW 3989  10.512   7.432   2.547 -0.4561  0.3284 -0.3020
  661SOL    HW1 3990  10.451   7.449   2.619  0.9015  1.5243  0.6084
  661SOL    HW2 3991  10.531   7.518   2.510  0.7493 -0.0093 -0.5185
  662SOL     OW 3992   1.107   9.351  10.899 -0.0769  0.8574 -0.0134
  662SOL    HW1 3993   1.139   9.428  10.945  1.1355  0.5222 -0.2573
  662SOL    HW2 3994   1.036   9.384  10.844 -1.1173  1.3796  1.5618
  663SOL     OW 3995   5.448   4.562  10.859  0.6303 -0.1158 -0.4698
  663SOL    HW1 3996   5.482   4.579  10.771 -1.1522 -0.4069 -1.2795
  663SOL    HW2 3997   5.483   4.476  10.883  0.6066 -0.3301 -1.1842
  664SOL     OW 3998   6.003   2.261   3.486  0.1229 -0.2265  0.0892
  664SOL    HW1 3999   6.041   2.245   3.400  1.6207  0.3796  0.5913
  664SOL    HW2 4000   5.948   2.185   3.504 -0.4773 -0.2011 -1.5258
  665SOL     OW 4001   7.942  10.706   5.468 -0.2823  0.3545  0.1905
  665SOL    HW1 4002   7.968  10.645   5.400 -1.0421  0.5968 -0.3330
  665SOL    HW2 4003   7.875  10.761   5.427 -0.2488  0.9603  0.9186
  666SOL     OW 4004  10.173   7.545   8.887  0.4861  0.2898 -0.1488
  666SOL    HW1 4005  10.084   7.555   8.854  0.7407  3.9667 -0.0335
  666SOL    HW2 4006  10.162   7.520   8.979 -0.3572 -0.5788 -0.4668
  667SOL     OW 4007  10.232   3.505   6.987 -0.4455 -0.5759 -0.2984
  667SOL    HW1 4008  10.183   3.502   6.904 -2.4615  2.2935  0.6316
  667SOL    HW2 4009  10.167   3.483   7.054  0.4318 -0.1082  0.7319
  668SOL     OW 4010   3.360   5.937   7.366 -0.9773  0.2835 -0.9159
  668SOL    HW1 4011   3.401   5.851   7.366 -2.0322 -0.2339 -1.0981
  668SOL    HW2 4012   3.346   5.957   7.458  1.9799  1.6363 -0.6389
  669SOL     OW 4013  10.106   7.394   4.483 -0.3454 -0.2318  0.0794
  669SOL    HW1 4014  10.080   7.302   4.494  1.2399 -0.5089  1.8082
  669SOL    HW2 4015  10.174   7.391   4.415  0.3978 -0.4812  0.8235
  670SOL     OW 4016   9.947   9.796  10.509  0.4556  0.0443 -0.6361
  670SOL    HW1 4017   9.890   9.748  10.450  0.1737  0.9228 -1.0852
  670SOL    HW2 4018  10.009   9.730  10.541 -0.0640 -0.6610 -1.0628
  671SOL     OW 4019   9.222   1.284   5.300 -0.5907  0.3525 -0.5943
  671SOL    HW1 4020   9.198   1.288   5.208 -0.4374  2.2565 -0.5779
  671SOL    HW2 4021   9.139   1.296   5.347 -0.2614  3.0051 -0.5388
  672SOL     OW 4022   2.291   9.304   8.363 -0.4958  0.2310 -0.4112
  672SOL    HW1 4023   2.308   9.277   8.273  2.0865  3.6951 -1.2187
  672SOL    HW2 4024   2.377   9.298   8.406 -0.9429  1.7272  0.7927
  673SOL     OW 4025   2.924   9.907   6.184  0.6708 -0.1214  0.5036
  673SOL    HW1 4026   2.912   9.890   6.091 -0.2922  0.7275  0.4571
  673SOL    HW2 4027   2.976   9.987   6.187 -2.4288  2.0870  0.5871
  674SOL     OW 4028   5.399   9.919   6.954  0.2415  0.5088  0.0133
  674SOL    HW1 4029   5.361   9.834   6.975  0.0799  0.8180  1.0165
  674SOL    HW2 4030   5.453   9.941   7.030  1.8695  0.4150 -1.0784
  675SOL     OW 4031   1.366   9.572   2.445  0.2857  0.2522 -0.0955
  675SOL    HW1 4032   1.323   9.646   2.403  2.2996  1.6486  0.1072
  675SOL    HW2 4033   1.458   9.580   2.419  1.1957 -0.1918  2.6049
  676SOL     OW 4034   4.188   1.161   0.170  0.2379 -0.1046 -0.4593
  676SOL    HW1 4035   4.118   1.217   0.136  0.5811  0.8506  0.3848
  676SOL    HW2 4036   4.254   1.221   0.203  0.0708 -0.9663  1.5946
  677SOL     OW 4037  10.344   7.237   2.971 -0.5948  0.0247 -0.1920
  677SOL    HW1 4038  10.308   7.150   2.987 -0.1685 -0.2112 -0.5061
  677SOL    HW2 4039  10.435   7.222   2.945 -0.7678  0.4948 -1.1236
  678SOL     OW 4040   6.184   4.831   9.545  0.4278  0.1930 -0.2964
  678SOL    HW1 4041   6.120   4.782   9.596 -0.3149  0.7118 -0.7194
  678SOL    HW2 4042   6.267   4.817   9.591 -0.1129  0.1076  0.6732
  679SOL     OW 4043  10.162   8.767   8.580  0.1633 -0.3763 -0.4865
  679SOL    HW1 4044  10.149   8.840   8.640  1.3161 -0.1880 -0.4388
  679SOL    HW2 4045  10.116   8.793   8.500  0.1971  0.2042 -0.3182
  680SOL     OW 4046  10.949   8.955   1.457  0.7268 -1.0014  0.1913
  680SOL    HW1 4047  10.885   9.011   1.414  0.3201 -1.3754  0.2934
  680SOL    HW2 4048  10.911   8.937   1.543 -0.6914 -3.9309 -0.9138
  681SOL     OW 4049   9.669   8.204   2.512  1.0129  0.1111  0.5467
  681SOL    HW1 4050   9.622   8.254   2.445  0.0470 -0.0152  1.1159
  681SOL    HW2 4051   9.603   8.186   2.579  1.9865  0.3180  1.5900
  682SOL     OW 4052   9.294  10.785   4.693 -0.3379 -0.5936 -0.6648
  682SOL    HW1 4053   9.254  10.858   4.742 -1.6140 -1.7055  0.0118
  682SOL    HW2 4054   9.378  10.771   4.737 -0.4098 -0.0186 -0.3302
  683SOL     OW 4055   3.667   1.700   6.094  0.4266  0.0399  0.3762
  683SOL    HW1 4056   3.595   1.756   6.067 -0.4776 -0.7173  1.1327
  683SOL    HW2 4057   3.671   1.632   6.027  1.4740  0.9286 -0.5007
  684SOL     OW 4058   4.450  10.788   8.734 -0.3653  0.0049  0.4932
  684SOL    HW1 4059   4.528  10.830   8.772 -0.5948  0.6090  0.3113
  684SOL    HW2 4060   4.378  10.846   8.759 -0.7291 -0.4425  0.4803
  685SOL     OW 4061   3.929   3.591   6.826 -0.1933 -0.1234 -0.0943
  685SOL    HW1 4062   3.992   3.659   6.801 -1.6691  0.9063 -1.2524
  685SOL    HW2 4063   3.933   3.587   6.921  0.9708  0.5369 -0.1038
  686SOL     OW 4064   1.114   0.413   4.178  0.4897 -0.4777  0.1507
  686SOL    HW1 4065   1.106   0.478   4.249  0.2598 -0.6256  0.2616
  686SOL    HW2 4066   1.177   0.451   4.118  0.6127 -0.3041  0.3884
  687SOL     OW 4067   9.934   6.532   3.707  0.1851 -0.1773 -0.4653
  687SOL    HW1 4068  10.015   6.557   3.663  0.1168 -1.1968 -1.2356
  687SOL    HW2 4069   9.895   6.467   3.648 -0.9205 -0.0970  0.1562
  688SOL     OW 4070   6.764   0.943   2.165  0.0356 -0.2107 -0.1796
  688SOL    HW1 4071   6.795   0.853   2.167  0.5056 -0.0544  1.4448
  688SOL    HW2 4072   6.742   0.962   2.256  0.0963  1.3588 -0.4691
  689SOL     OW 4073   4.960  10.060   1.221 -0.2817 -0.0302 -0.3052
  689SOL    HW1 4074   4.896  10.128   1.199  0.4196  0.4472 -0.9013
  689SOL    HW2 4075   5.042  10.107   1.232  0.2571 -0.8106 -0.9251
  690SOL     OW 4076   9.685   0.836   5.104 -0.6519  0.1776  0.4011
  690SOL    HW1 4077   9.741   0.763   5.130 -1.0082 -0.2954 -0.1252
  690SOL    HW2 4078   9.598   0.797   5.093 -0.9242  0.7539  0.4783
  691SOL     OW 4079   0.593   0.160   2.526 -0.1190 -0.0056 -0.1347
  691SOL    HW1 4080   0.662   0.206   2.478  0.7448 -0.4518  0.6516
  691SOL    HW2 4081   0.582   0.210   2.607 -1.2824  0.5064 -0.5738
  692SOL     OW 4082   2.840   9.310   0.425  0.1219  0.0821  0.0948
  692SOL    HW1 4083   2.817   9.298   0.517  0.9059  1.1179  0.4483
  692SOL    HW2 4084   2.786   9.246   0.378  0.4021 -1.1245  1.3519
  693SOL     OW 4085   4.297   0.882  10.354  0.0360  0.8090 -0.1483
  693SOL    HW1 4086   4.281   0.814  10.419 -0.7177  0.3740 -0.7730
  693SOL    HW2 4087   4.234   0.951  10.375 -2.3309 -0.6044 -2.1832
  694SOL     OW 4088   3.928  10.469   8.557  0.4830 -0.5452 -0.4912
  694SOL    HW1 4089   3.984  10.468   8.634 -1.4370 -1.7650  0.9893
  694SOL    HW2 4090   3.974  10.415   8.493  1.3186 -0.9723  0.4335
  695SOL     OW 4091   4.069   0.865   9.080 -0.3869 -0.3768 -0.0419
  695SOL    HW1 4092   4.087   0.780   9.040  0.1183 -1.3569  2.1347
  695SOL    HW2 4093   4.132   0.925   9.039  0.5159 -1.4518 -0.2748
  696SOL     OW 4094   1.401   7.609   5.569  0.1234  0.2377  0.5048
  696SOL    HW1 4095   1.494   7.627   5.585  0.3524 -1.1778  0.9174
  696SOL    HW2 4096   1.358   7.694   5.580  1.4647  1.1227 -0.6008
  697SOL     OW 4097   7.144   0.244   4.387 -0.2455 -0.2389  0.6581
  697SOL    HW1 4098   7.185   0.261   4.302  1.7938 -0.3983  1.5443
  697SOL    HW2 4099   7.088   0.320   4.402  0.2441  0.3412 -0.3177
  698SOL     OW 4100  10.016   2.102   9.701 -0.3696 -0.3221  0.3768
  698SOL    HW1 4101   9.998   2.180   9.648  0.2141 -0.2271  0.3116
  698SOL    HW2 4102   9.940   2.046   9.689  0.7675 -1.4268 -2.6075
  699SOL     OW 4103   5.195   3.451   6.479 -0.1872 -0.2220  0.6015
  699SOL    HW1 4104   5.270   3.416   6.430 -0.9795 -0.9328 -0.1156
  699SOL    HW2 4105   5.174   3.533   6.435 -0.8004 -0.7850 -0.1642
  700SOL     OW 4106   7.129   3.750   4.453 -0.3585  0.1967 -0.1825
  700SOL    HW1 4107   7.188   3.823   4.435  0.9563 -0.4170  1.3475
  700SOL    HW2 4108   7.042   3.790   4.460  0.3865  1.7132  1.0614
  701SOL     OW 4109   9.758   0.009   4.693 -0.6679  0.5139 -0.1231
  701SOL    HW1 4110   9.681  -0.027   4.737 -2.7892  0.0811 -3.7642
  701SOL    HW2 4111   9.831  -0.017   4.748 -2.8530 -1.7248  2.0096
  702SOL     OW 4112   1.365   8.807   1.163  0.2485  0.0877 -0.0556
  702SOL    HW1 4113   1.450   8.799   1.207  0.5761  0.0662 -0.6766
  702SOL    HW2 4114   1.317   8.728   1.189  0.3653  0.1584  0.3957
  703SOL     OW 4115   9.307  10.984   5.812  0.4481 -0.0301 -0.3042
  703SOL    HW1 4116   9.257  10.903   5.821 -1.9820  1.2607 -1.3480
  703SOL    HW2 4117   9.352  10.994   5.896 -2.6672 -0.2897  1.5278
  704SOL     OW 4118   5.885   0.720   4.762 -0.4410  0.2154  0.2871
  704SOL    HW1 4119   5.900   0.640   4.712  0.7164 -0.8469  2.1837
  704SOL    HW2 4120   5.973   0.754   4.780 -0.8990  1.5777  0.0649
  705SOL     OW 4121   3.558   2.815   5.327 -0.4362 -0.4514 -0.0667
  705SOL    HW1 4122   3.497   2.772   5.267  0.6745 -2.8076  0.3442
  705SOL    HW2 4123   3.514   2.812   5.412 -0.9796  0.6224 -0.3008
  706SOL     OW 4124   6.599   5.671   9.384  0.2697 -0.4066 -0.6369
  706SOL    HW1 4125   6.636   5.620   9.456  0.0309 -0.6443 -0.6832
  706SOL    HW2 4126   6.639   5.634   9.306  0.4798 -0.1904 -0.6310
  707SOL     OW 4127   1.878  10.469   1.894 -0.0694 -0.1263 -0.4166
  707SOL    HW1 4128   1.892  10.447   1.986 -0.5362  1.5894  0.1046
  707SOL    HW2 4129   1.872  10.565   1.893  0.9016 -0.0383 -2.3752
  708SOL     OW 4130   1.873   6.704   5.852 -0.0050 -0.1906 -0.1264
  708SOL    HW1 4131   1.796   6.714   5.796 -0.9142  0.1619  1.1519
  708SOL    HW2 4132   1.856   6.626   5.904  0.0483  0.4213  0.8392
  709SOL     OW 4133  10.870   2.544   1.545 -0.5294  0.7351  0.4321
  709SOL    HW1 4134  10.963   2.565   1.552 -0.1936 -0.5521  0.2247
  709SOL    HW2 4135  10.862   2.501   1.459 -0.9714 -0.6869  1.1520
  710SOL     OW 4136   4.868   2.359   7.212 -0.7384 -0.0659  0.1445
  710SOL    HW1 4137   4.844   2.371   7.304  3.1878 -1.4238  1.5477
  710SOL    HW2 4138   4.919   2.438   7.191  0.1540 -0.7038 -0.1386
  711SOL     OW 4139   1.340  10.196   0.283  0.4946  0.0235  0.0158
  711SOL    HW1 4140   1.362  10.106   0.262  1.6914  0.4756 -0.7663
  711SOL    HW2 4141   1.372  10.209   0.372 -1.1082 -0.7547  0.7587
  712SOL     OW 4142   8.451   7.607   0.765 -0.3151  0.1881 -0.0259
  712SOL    HW1 4143   8.489   7.694   0.773 -1.7141  0.9693 -1.2145
  712SOL    HW2 4144   8.523   7.547   0.783  0.7609  1.5855  0.5085
  713SOL     OW 4145   4.742   4.883   5.097 -0.5540  0.3820  0.2274
  713SOL    HW1 4146   4.727   4.798   5.057 -0.4307  0.4447  0.0450
  713SOL    HW2 4147   4.817   4.919   5.049 -0.5139  0.5297  0.4011
  714SOL     OW 4148   3.635   3.468   6.389 -0.3835 -0.0798 -0.4987
  714SOL    HW1 4149   3.730   3.473   6.378 -0.3853  0.7801 -0.2570
  714SOL    HW2 4150   3.614   3.544   6.444 -1.2988  0.2079 -1.2241
  715SOL     OW 4151   2.300  10.971  10.600  0.0519  0.5657  0.5420
  715SOL    HW1 4152   2.380  10.936  10.638  0.2989  2.3123  1.8037
  715SOL    HW2 4153   2.328  11.017  10.521 -0.0323 -0.5489 -0.1568
  716SOL     OW 4154   8.686   8.872   6.900  0.2865  0.5108 -0.0440
  716SOL    HW1 4155   8.731   8.955   6.886  1.4704  0.2250  1.6821
  716SOL    HW2 4156   8.756   8.809   6.916 -0.6355 -0.5367  0.0337
  717SOL     OW 4157   8.515   9.693   2.329  1.0962 -0.0063 -0.4667
  717SOL    HW1 4158   8.572   9.768   2.344  0.6074  0.3425 -0.3303
  717SOL    HW2 4159   8.444   9.727   2.274  1.2027 -0.5185 -0.9334
  718SOL     OW 4160   3.183   5.113  10.126  0.1201 -0.3348 -0.0692
  718SOL    HW1 4161   3.218   5.200  10.146 -0.2958 -0.0641 -0.5164
  718SOL    HW2 4162   3.257   5.054  10.140  0.5553  0.1518 -0.2945
  719SOL     OW 4163   0.212   6.437   4.276 -0.2384 -0.7364  0.3344
  719SOL    HW1 4164   0.123   6.467   4.293  0.4731  0.6451  1.8101
  719SOL    HW2 4165   0.237   6.390   4.356  0.6055 -0.5061  0.2121
  720SOL     OW 4166   8.686   2.446   1.492  0.3449 -0.6641  0.1310
  720SOL    HW1 4167   8.697   2.530   1.449  1.6302 -1.4777 -1.2202
  720SOL    HW2 4168   8.656   2.387   1.423 -0.8140 -1.2785  1.1122
  721SOL     OW 4169   5.386   2.701   9.796 -0.0667 -0.3142 -0.0803
  721SOL    HW1 4170   5.377   2.796   9.790  1.0586 -0.1037  1.0079
  721SOL    HW2 4171   5.323   2.666   9.733  0.6801  1.1920 -1.7610
  722SOL     OW 4172   0.305   8.448   5.142  0.6314  0.4544  0.1871
  722SOL    HW1 4173   0.342   8.395   5.213  2.0899  0.4997 -0.4999
  722SOL    HW2 4174   0.215   8.418   5.134  0.7305 -0.2326  1.4041
  723SOL     OW 4175   5.780   0.238   5.881 -1.0484  0.0033  0.0681
  723SOL    HW1 4176   5.768   0.322   5.836  1.1441 -0.9483 -2.5753
  723SOL    HW2 4177   5.843   0.257   5.950 -0.4157  0.5497 -0.6335
  724SOL     OW 4178   3.632   5.151   0.017 -0.2731 -0.1812 -0.5366
  724SOL    HW1 4179   3.602   5.096   0.090  0.8270 -0.3064 -0.1605
  724SOL    HW2 4180   3.658   5.233   0.058 -0.0567 -0.0911 -0.8530
  725SOL     OW 4181   6.680   9.194   7.550  0.9068  0.3266 -0.0876
  725SOL    HW1 4182   6.769   9.207   7.581 -0.1280  2.6028  2.3216
  725SOL    HW2 4183   6.660   9.275   7.502  0.0908 -0.0935 -0.4752
  726SOL     OW 4184   7.285   3.312  10.979 -0.0359  0.0463 -0.5023
  726SOL    HW1 4185   7.323   3.229  11.008  0.1484  0.6941  1.2396
  726SOL    HW2 4186   7.212   3.286  10.923  0.3407 -1.2810 -0.4270
  727SOL     OW 4187  11.019   1.555   6.933  0.0294  0.1199  0.4607
  727SOL    HW1 4188  11.013   1.631   6.875 -0.0924  0.0991  0.4467
  727SOL    HW2 4189  11.075   1.585   7.005  0.1291  0.1651  0.3645
  728SOL     OW 4190   0.284   0.689   6.891 -0.2563 -0.0079 -0.0461
  728SOL    HW1 4191   0.275   0.710   6.798  1.0214 -0.3620 -0.2714
  728SOL    HW2 4192   0.368   0.727   6.916 -0.8458  0.5965  1.1266
  729SOL     OW 4193   6.724   8.774   4.869 -0.3611  0.1673 -0.3359
  729SOL    HW1 4194   6.802   8.829   4.870  1.5002 -2.2683  1.4681
  729SOL    HW2 4195   6.656   8.828   4.909  0.6849  1.9425 -0.8223
  730SOL     OW 4196   1.613   1.497   9.876  0.5797 -0.3387 -0.3947
  730SOL    HW1 4197   1.613   1.574   9.933  0.4645 -1.7231  1.6098
  730SOL    HW2 4198   1.523   1.490   9.846  0.2781 -0.3896  0.4782
  731SOL     OW 4199   5.419   0.626   7.403 -0.0968 -0.3772  0.1169
  731SOL    HW1 4200   5.490   0.571   7.368  0.1715  0.3430 -0.4863
  731SOL    HW2 4201   5.375   0.569   7.466 -1.1082 -2.0447 -1.9356
  732SOL     OW 4202   9.961   8.412   8.299  0.0807 -0.2073  0.2091
  732SOL    HW1 4203   9.998   8.328   8.273  2.7039  0.4903  1.4245
  732SOL    HW2 4204   9.951   8.461   8.217  0.1897 -1.0677 -0.3232
  733SOL     OW 4205   6.608   3.166   8.849 -0.1272  0.2133  0.0311
  733SOL    HW1 4206   6.642   3.238   8.903 -0.6216  0.9272 -0.6023
  733SOL    HW2 4207   6.631   3.087   8.899 -0.3981  0.8410  1.1947
  734SOL     OW 4208   0.724   4.913   8.435  0.0218  0.1794 -0.1703
  734SOL    HW1 4209   0.797   4.855   8.460  1.0284  1.2379 -0.5639
  734SOL    HW2 4210   0.646   4.864   8.458  0.8502 -1.2173 -0.1961
  735SOL     OW 4211  10.367  10.223   5.187  0.7632 -0.5818 -0.4418
  735SOL    HW1 4212  10.370  10.264   5.274 -0.3539 -2.3599  0.4759
  735SOL    HW2 4213  10.412  10.286   5.130 -0.9430  1.9957  0.8438
  736SOL     OW 4214   6.083   2.376   0.634 -0.2422  0.1937  0.0797
  736SOL    HW1 4215   6.046   2.424   0.708  0.9072  1.0607  0.1182
  736SOL    HW2 4216   6.147   2.436   0.596 -1.4940  0.1881 -2.2540
  737SOL     OW 4217   5.389   8.353   6.831 -0.1350 -0.4194  0.4614
  737SOL    HW1 4218   5.478   8.342   6.862  0.1528  0.7256  0.1025
  737SOL    HW2 4219   5.366   8.269   6.793  1.6640 -0.0685 -1.5845
  738SOL     OW 4220   6.968   1.714   0.476 -0.1751  0.3058  0.6176
  738SOL    HW1 4221   6.931   1.717   0.565  0.7883 -0.3894  1.0551
  738SOL    HW2 4222   7.000   1.803   0.461  0.2029  0.2800  1.2191
  739SOL     OW 4223   0.539   3.835   3.002 -0.1846  0.5570 -0.1014
  739SOL    HW1 4224   0.587   3.819   2.921 -1.8306  1.3657 -1.3213
  739SOL    HW2 4225   0.473   3.765   3.005  1.5548 -1.1260  2.0473
  740SOL     OW 4226   2.771   7.330   4.932  0.2589  0.0968 -0.2342
  740SOL    HW1 4227   2.852   7.281   4.945  0.4184  0.8111  1.7682
  740SOL    HW2 4228   2.719   7.312   5.010 -0.6883  1.2071 -0.5782
  741SOL     OW 4229   8.661   1.643   5.849  0.4771  0.2059  0.4557
  741SOL    HW1 4230   8.686   1.598   5.930  2.5237 -0.9509 -0.7239
  741SOL    HW2 4231   8.568   1.623   5.838  0.3662 -0.3079  2.0920
  742SOL     OW 4232  10.055   2.152   8.839 -0.1517  0.5890  0.0536
  742SOL    HW1 4233  10.006   2.201   8.773 -0.1877  1.2918  0.5915
  742SOL    HW2 4234  10.050   2.206   8.917  3.7566  2.0847 -0.5292
  743SOL     OW 4235   0.754   2.490   4.769 -0.5429  0.2324  0.4268
  743SOL    HW1 4236   0.663   2.504   4.795 -0.3599  0.5026  0.9337
  743SOL    HW2 4237   0.801   2.481   4.851 -0.3805 -1.7021  0.1499
  744SOL     OW 4238   0.940   0.260   4.349  0.3270  0.0912  0.3188
  744SOL    HW1 4239   0.932   0.317   4.426  0.3084  0.5855 -0.0452
  744SOL    HW2 4240   0.983   0.315   4.284  0.8182 -0.4945  0.1444
  745SOL     OW 4241   3.058   2.493  11.035 -0.0152  0.1034  0.4149
  745SOL    HW1 4242   3.025   2.503  11.124  0.6164  1.7048  0.4946
  745SOL    HW2 4243   3.126   2.560  11.026  2.2729 -2.1443 -0.2014
  746SOL     OW 4244   4.285   4.350   9.564  0.5053  0.1459  0.0132
  746SOL    HW1 4245   4.331   4.278   9.608  1.2195  0.6735  0.1569
  746SOL    HW2 4246   4.300   4.335   9.471  1.1208  0.3927  0.0628
  747SOL     OW 4247  10.997   6.189   4.848 -0.9375  0.1164 -0.0413
  747SOL    HW1 4248  11.034   6.115   4.800 -0.4299  0.3234  0.0334
  747SOL    HW2 4249  11.004   6.263   4.789 -2.3614 -0.0861 -0.5093
  748SOL     OW 4250   4.652   2.962   2.273 -0.4698  0.1740  0.2041
  748SOL    HW1 4251   4.622   2.877   2.305  0.7846 -1.0562 -1.7041
  748SOL    HW2 4252   4.591   2.984   2.202  1.0074 -0.7188 -1.4246
  749SOL     OW 4253   1.957   5.755   9.724 -0.0092  0.2083 -0.2730
  749SOL    HW1 4254   1.904   5.678   9.745  1.8577 -1.2213 -0.5163
  749SOL    HW2 4255   2.008   5.771   9.803  0.1327  0.7490 -0.4727
  750SOL     OW 4256   2.278   1.353   3.058  0.6548  0.5377  0.1854
  750SOL    HW1 4257   2.233   1.375   3.140  2.1806  0.1562  1.1737
  750SOL    HW2 4258   2.258   1.261   3.043  0.9553  0.4115  0.5403
  751SOL     OW 4259   0.024   6.985   1.986 -0.4970  0.9487 -1.1260
  751SOL    HW1 4260  -0.020   7.023   2.062 -0.8150 -2.3923  0.5888
  751SOL    HW2 4261   0.117   7.002   2.001 -0.5213 -0.0173  0.3119
  752SOL     OW 4262   2.952   0.403   4.740 -0.0585  0.3601  0.2989
  752SOL    HW1 4263   2.903   0.425   4.661  0.2228  0.4404  0.1442
  752SOL    HW2 4264   3.040   0.437   4.723  0.1218 -0.0229  0.4636
  753SOL     OW 4265   1.191   3.852   2.080  0.2495  0.6006 -0.4146
  753SOL    HW1 4266   1.240   3.785   2.127  0.1120  1.6979  1.3760
  753SOL    HW2 4267   1.174   3.920   2.145  0.6697  2.5460 -2.2372
  754SOL     OW 4268   6.681   5.971   3.076  0.1003  0.1219  0.2836
  754SOL    HW1 4269   6.605   5.973   3.135 -0.7103 -1.0967 -0.6591
  754SOL    HW2 4270   6.754   5.999   3.131 -0.7635 -0.1804  1.6537
  755SOL     OW 4271   1.594  10.633   9.526  0.4999 -0.6081  0.0043
  755SOL    HW1 4272   1.595  10.583   9.445 -0.6036 -1.5928  0.5702
  755SOL    HW2 4273   1.518  10.690   9.519  0.4331 -0.6563  0.3156
  756SOL     OW 4274   4.444   9.017   8.266  0.1746  0.8699 -0.1939
  756SOL    HW1 4275   4.466   8.959   8.193 -0.4199 -0.1941  0.4336
  756SOL    HW2 4276   4.350   9.002   8.280  0.5635 -0.0995  1.7262
  757SOL     OW 4277   6.423   3.036   0.137  0.4435 -0.0330 -0.0727
  757SOL    HW1 4278   6.478   2.969   0.179 -0.3675 -1.4908 -1.2412
  757SOL    HW2 4279   6.335   3.000   0.141 -0.3811  1.9790  1.1868
  758SOL     OW 4280   2.318   7.967   7.772  0.2978  0.6333 -0.5521
  758SOL    HW1 4281   2.282   7.980   7.684  1.1976 -0.1603 -1.0626
  758SOL    HW2 4282   2.303   7.874   7.790 -1.2950  1.1186  0.8056
  759SOL     OW 4283   7.247  10.930   9.245 -0.2224  0.0880 -0.4026
  759SOL    HW1 4284   7.224  10.971   9.162 -1.2809 -1.5144 -0.9616
  759SOL    HW2 4285   7.195  10.976   9.311 -0.5021  0.4033 -0.8446
  760SOL     OW 4286   8.491   1.265  10.869 -0.0247  0.3007  0.6225
  760SOL    HW1 4287   8.489   1.221  10.954  0.2659  0.1678  0.5634
  760SOL    HW2 4288   8.552   1.338  10.881  1.1534 -0.5714  0.1307
  761SOL     OW 4289   1.907   4.362   7.295  0.1994  0.5324 -0.1520
  761SOL    HW1 4290   1.950   4.440   7.261  1.9040 -0.5916 -0.7038
  761SOL    HW2 4291   1.921   4.365   7.389  1.7472  0.0702 -0.3458
  762SOL     OW 4292   9.775   3.522   5.716 -0.4012  0.3034 -0.6056
  762SOL    HW1 4293   9.797   3.515   5.809 -0.9006  0.8933 -0.4416
  762SOL    HW2 4294   9.745   3.434   5.692 -0.5594  0.2266 -0.1320
  763SOL     OW 4295   0.832   0.015   0.240 -0.0386 -0.2966 -0.1885
  763SOL    HW1 4296   0.919  -0.022   0.221  1.3523  2.0828  1.0313
  763SOL    HW2 4297   0.810   0.065   0.162  0.9210  1.1574  0.4316
  764SOL     OW 4298   4.922   0.624   1.370  0.0140 -0.2472 -0.1796
  764SOL    HW1 4299   4.874   0.670   1.301 -1.0871  1.1397  1.4166
  764SOL    HW2 4300   4.862   0.556   1.401  0.4215 -0.7296 -0.4250
  765SOL     OW 4301   1.801   7.528   0.944  0.1673 -0.2135  0.4122
  765SOL    HW1 4302   1.748   7.526   0.864  1.2190  0.0993 -0.3198
  765SOL    HW2 4303   1.860   7.453   0.936 -0.0197 -0.4481  1.1234
  766SOL     OW 4304   7.150   5.372   7.690  0.4707  0.0814  0.3113
  766SOL    HW1 4305   7.134   5.409   7.604 -0.7207 -1.0660  0.0026
  766SOL    HW2 4306   7.198   5.291   7.673 -0.4082 -0.5318  0.6399
  767SOL     OW 4307   7.484   3.390  10.812 -0.3197  0.0050 -0.0768
  767SOL    HW1 4308   7.435   3.371  10.892 -1.0105 -0.3918 -0.5817
  767SOL    HW2 4309   7.421   3.374  10.741  0.3432  0.1482 -0.7076
  768SOL     OW 4310   1.117   3.891   5.523  0.1963 -0.4416  0.0112
  768SOL    HW1 4311   1.116   3.796   5.536 -0.8789 -0.4901 -0.3527
  768SOL    HW2 4312   1.142   3.902   5.431  1.6388 -0.3013  0.3813
  769SOL     OW 4313   4.190   1.858   3.611  0.1402 -0.0712 -0.1257
  769SOL    HW1 4314   4.137   1.885   3.686 -0.5040 -0.3857 -0.4666
  769SOL    HW2 4315   4.230   1.776   3.639  1.9348  1.0558  0.8317
  770SOL     OW 4316   0.228  11.082   4.004  0.3612  1.0335 -0.2549
  770SOL    HW1 4317   0.263  11.000   3.969 -1.2943 -0.6533  1.8390
  770SOL    HW2 4318   0.138  11.085   3.973  0.3142  1.9553 -0.0582
  771SOL     OW 4319  10.455   5.110   0.472 -0.0629  0.2478 -0.0156
  771SOL    HW1 4320  10.518   5.047   0.436  2.4453  2.6705 -0.1114
  771SOL    HW2 4321  10.500   5.150   0.546 -2.3334  0.6438  1.2419
  772SOL     OW 4322   6.478   2.020  10.315  0.4633  0.2005 -0.5471
  772SOL    HW1 4323   6.399   2.068  10.338  1.0880  0.6804  0.6803
  772SOL    HW2 4324   6.477   1.942  10.371  0.3418 -0.3253 -1.2699
  773SOL     OW 4325   2.462   4.199   3.803 -1.0687 -0.1206 -0.5613
  773SOL    HW1 4326   2.396   4.263   3.828 -1.7728 -1.5814  1.5889
  773SOL    HW2 4327   2.473   4.144   3.880  1.5424 -0.9023 -1.3914
  774SOL     OW 4328   2.059   9.486   1.039 -0.7599 -0.7109  0.5197
  774SOL    HW1 4329   2.030   9.538   0.965 -1.1506  1.0433  1.8570
  774SOL    HW2 4330   2.150   9.464   1.018 -0.6625  0.3054 -0.1971
  775SOL     OW 4331   9.830   9.542  10.566 -0.1732 -0.2193 -0.1953
  775SOL    HW1 4332   9.846   9.488  10.488 -0.9289 -0.2029 -0.3734
  775SOL    HW2 4333   9.871   9.494  10.637 -0.8808 -1.0700 -0.3420
  776SOL     OW 4334   3.229   3.621   5.701  0.2620 -0.0753 -0.3273
  776SOL    HW1 4335   3.143   3.619   5.660  0.3801 -0.5295 -0.5631
  776SOL    HW2 4336   3.287   3.655   5.633  0.7397 -2.3096 -1.1163
  777SOL     OW 4337   9.696   5.368   6.005  0.2601  0.0603 -0.3608
  777SOL    HW1 4338   9.665   5.456   6.027  1.5965  0.8971 -1.6557
  777SOL    HW2 4339   9.640   5.341   5.932 -1.0394 -0.7666  0.8820
  778SOL     OW 4340   3.299   7.236   8.961  0.7538  0.0597 -0.0938
  778SOL    HW1 4341   3.352   7.191   8.895  0.8890 -0.1848  0.1763
  778SOL    HW2 4342   3.363   7.279   9.018  0.8507 -2.4278  1.8321
  779SOL     OW 4343   3.844   9.635   2.814 -0.1860  0.0343  0.0164
  779SOL    HW1 4344   3.812   9.695   2.881 -0.9016 -0.7071  0.3580
  779SOL    HW2 4345   3.811   9.549   2.841 -2.0668 -0.0443 -2.2135
  780SOL     OW 4346   9.075   3.412   7.339  0.0480 -0.3612 -0.1171
  780SOL    HW1 4347   9.023   3.332   7.325 -0.3210 -0.0701 -0.4394
  780SOL    HW2 4348   9.057   3.436   7.430  0.3087 -0.7511  0.0373
  781SOL     OW 4349   1.267   0.850   2.916  0.3267 -0.4256  0.2665
  781SOL    HW1 4350   1.267   0.946   2.910 -0.3304 -0.5061 -1.8057
  781SOL    HW2 4351   1.182   0.828   2.953 -0.5845 -0.2712 -1.6604
  782SOL     OW 4352   2.006   9.815   2.944  0.1371  0.1405 -0.0471
  782SOL    HW1 4353   2.099   9.838   2.943  0.1558  0.2164 -2.5076
  782SOL    HW2 4354   2.005   9.721   2.963  0.8698 -0.2219 -1.6201
  783SOL     OW 4355   1.393   8.014   3.451  0.0974  0.3707  0.0188
  783SOL    HW1 4356   1.447   8.079   3.495 -0.4562  0.7137  0.1991
  783SOL    HW2 4357   1.393   8.042   3.359 -2.8437  2.6202  0.5649
  784SOL     OW 4358   9.429   2.821   4.418 -0.0713  0.0272  0.9806
  784SOL    HW1 4359   9.488   2.891   4.392 -0.6250 -0.0986 -0.7119
  784SOL    HW2 4360   9.415   2.834   4.512 -1.7692  3.4594  0.4035
  785SOL     OW 4361   5.442  11.087   3.594  0.4382 -0.6524  0.0419
  785SOL    HW1 4362   5.534  11.107   3.612  0.3235 -0.9252  1.0117
  785SOL    HW2 4363   5.443  10.995   3.568  0.5913 -0.2847 -1.3165
  786SOL     OW 4364   4.410   8.258   6.267 -0.0516  0.5142 -0.0327
  786SOL    HW1 4365   4.327   8.306   6.265  0.7067  1.8689 -0.6320
  786SOL    HW2 4366   4.412   8.219   6.355 -2.0979 -1.0665 -0.6014
  787SOL     OW 4367   0.674   2.514  10.620 -0.0754 -0.1921  0.5153
  787SOL    HW1 4368   0.726   2.541  10.697  0.5968  1.0825 -0.3515
  787SOL    HW2 4369   0.629   2.594  10.593 -1.2969 -0.9323  0.3073
  788SOL     OW 4370   4.339   0.991   3.056  0.4738  0.0227 -0.0442
  788SOL    HW1 4371   4.306   1.047   3.126 -0.4768  0.1947 -0.6222
  788SOL    HW2 4372   4.416   1.037   3.023  0.2791  0.4937  0.1507
  789SOL     OW 4373   8.660   9.487   8.300 -0.4121  0.9763 -0.1616
  789SOL    HW1 4374   8.629   9.510   8.387  2.6269  2.3814  0.6705
  789SOL    HW2 4375   8.580   9.474   8.249 -2.3354 -0.6693  2.9445
  790SOL     OW 4376   2.128   1.134   9.100  0.1215  0.3593  0.2074
  790SOL    HW1 4377   2.075   1.070   9.148 -1.7311  2.0688  0.5593
  790SOL    HW2 4378   2.119   1.215   9.150  0.8921  1.3770 -1.2435
  791SOL     OW 4379   0.935   8.303   6.313 -0.0092  0.2632  0.4595
  791SOL    HW1 4380   0.972   8.390   6.327  0.8155 -0.0068 -0.0265
  791SOL    HW2 4381   0.840   8.318   6.307 -0.0462  0.9082  2.1251
  792SOL     OW 4382   5.239   9.911   7.808  0.2320 -0.1887  0.1322
  792SOL    HW1 4383   5.278   9.899   7.894  0.7306  0.5918  0.0266
  792SOL    HW2 4384   5.145   9.917   7.824  0.4124  1.2759  0.7843
  793SOL     OW 4385   0.712  10.127   8.409  0.0291  0.9264 -0.0916
  793SOL    HW1 4386   0.666  10.046   8.432 -0.5897  0.9925 -1.0351
  793SOL    HW2 4387   0.762  10.149   8.487  1.4026 -1.1811 -0.2861
  794SOL     OW 4388   7.469   1.972  11.005  0.0724  0.1438  0.2275
  794SOL    HW1 4389   7.424   2.034  11.062  0.2846  0.1749  0.3638
  794SOL    HW2 4390   7.505   2.027  10.935  0.6148  0.2328  0.5716
  795SOL     OW 4391   0.602  10.095   6.641 -0.5858 -0.2113 -0.0543
  795SOL    HW1 4392   0.525  10.152   6.646 -1.0708 -0.8213 -0.4169
  795SOL    HW2 4393   0.649  10.125   6.564 -0.0965  0.5931  0.5374
  796SOL     OW 4394   5.356   7.849   5.587  0.2599 -0.1487  0.1799
  796SOL    HW1 4395   5.291   7.868   5.654  1.2933 -0.8401  1.4211
  796SOL    HW2 4396   5.366   7.754   5.588  1.8716 -0.0166  0.6417
  797SOL     OW 4397   8.574   0.821   2.978  0.0414  0.1398  1.0130
  797SOL    HW1 4398   8.509   0.888   3.004 -0.8683  1.1548 -3.1644
  797SOL    HW2 4399   8.656   0.870   2.970 -0.7270  1.1279 -2.5519
  798SOL     OW 4400   9.682   4.326   6.026 -0.2071  0.4107  0.1544
  798SOL    HW1 4401   9.708   4.278   5.947  1.9685  0.9471  0.4765
  798SOL    HW2 4402   9.611   4.274   6.063 -0.4521 -0.5076 -1.5105
  799SOL     OW 4403   0.895   1.938   5.181 -0.1009  0.5739  0.4554
  799SOL    HW1 4404   0.840   1.937   5.103 -0.5172  1.0579  0.7347
  799SOL    HW2 4405   0.836   1.967   5.251  0.6830  1.8394  0.6195
  800SOL     OW 4406   5.778   9.273   8.425 -0.4647  0.0916 -0.1158
  800SOL    HW1 4407   5.690   9.296   8.455 -0.0721  0.1501  1.0196
  800SOL    HW2 4408   5.764   9.241   8.336 -1.5877  0.4606 -0.0943
  801SOL     OW 4409   3.223  10.744   6.400 -0.4115  0.1756 -0.1554
  801SOL    HW1 4410   3.267  10.659   6.406 -0.2534  0.2958  0.4007
  801SOL    HW2 4411   3.216  10.775   6.490  0.6117  1.3013 -0.4385
  802SOL     OW 4412   6.456   3.244   5.752  0.3656 -0.2632  0.5966
  802SOL    HW1 4413   6.413   3.315   5.705 -0.7303 -0.9756  0.4951
  802SOL    HW2 4414   6.468   3.278   5.841 -2.5656 -0.8326  1.3133
  803SOL     OW 4415   0.553   3.428   8.234 -0.2016 -0.6235  0.4987
  803SOL    HW1 4416   0.581   3.422   8.143  2.3769  0.6008  1.1231
  803SOL    HW2 4417   0.577   3.344   8.272 -0.4696 -0.8018  0.2864
  804SOL     OW 4418   7.183   2.626   7.728  0.2490  0.5229  0.6720
  804SOL    HW1 4419   7.249   2.590   7.668  1.1346  1.9834  0.7395
  804SOL    HW2 4420   7.105   2.575   7.709  0.9644 -0.1891 -0.5422
  805SOL     OW 4421   3.103   9.115   5.475  0.4267  0.0898  0.4813
  805SOL    HW1 4422   3.198   9.106   5.480  0.6205 -0.5745 -2.6187
  805SOL    HW2 4423   3.089   9.197   5.428 -0.4538 -0.7453 -0.7670
  806SOL     OW 4424   4.605   3.888   4.676 -0.7887  0.0495 -0.6143
  806SOL    HW1 4425   4.605   3.856   4.766 -0.8687  0.0741 -0.6063
  806SOL    HW2 4426   4.576   3.979   4.682 -0.8761  0.0262 -0.6741
  807SOL     OW 4427   8.928  10.118   8.857 -0.1903 -0.2607  1.1176
  807SOL    HW1 4428   8.881  10.200   8.870 -2.4194 -1.4671  1.1196
  807SOL    HW2 4429   8.924  10.102   8.763 -0.1067 -0.5446  1.1597
  808SOL     OW 4430   8.065   5.332   8.406 -0.2348 -0.1620 -0.1065
  808SOL    HW1 4431   8.062   5.336   8.310 -0.5414  0.2287 -0.0849
  808SOL    HW2 4432   7.974   5.344   8.433 -0.3058 -1.3330  0.2078
  809SOL     OW 4433   0.591   2.993  10.156 -0.1679  0.3734 -0.9321
  809SOL    HW1 4434   0.609   2.931  10.227  3.4041  0.1063 -1.8801
  809SOL    HW2 4435   0.569   3.074  10.201 -1.5182 -0.6497  0.3685
  810SOL     OW 4436   4.332   1.677   4.156  0.0041  0.0101 -0.5595
  810SOL    HW1 4437   4.395   1.613   4.188  2.2048  1.5361 -1.5732
  810SOL    HW2 4438   4.278   1.628   4.094  2.1392 -0.7617 -1.9147
  811SOL     OW 4439   6.314   0.673   8.920 -0.1059  0.1317 -0.0396
  811SOL    HW1 4440   6.244   0.638   8.975  0.9963 -0.3232  1.1222
  811SOL    HW2 4441   6.274   0.746   8.873 -1.8055 -1.1601 -0.6742
  812SOL     OW 4442   1.229   2.324   6.662  0.5350  0.1542  0.1620
  812SOL    HW1 4443   1.261   2.239   6.690  0.5793 -0.5391 -1.8362
  812SOL    HW2 4444   1.177   2.306   6.583 -1.7568  1.6781  1.2198
  813SOL     OW 4445   1.250   8.835   0.398  0.3674 -0.2094  0.1904
  813SOL    HW1 4446   1.178   8.815   0.457 -0.7413  0.7633 -0.7818
  813SOL    HW2 4447   1.291   8.751   0.380 -0.1326 -0.6955  1.2393
  814SOL     OW 4448   0.736   9.574   0.216  0.3602 -0.3180 -0.3680
  814SOL    HW1 4449   0.684   9.529   0.149 -1.3476 -1.3693  1.5546
  814SOL    HW2 4450   0.701   9.663   0.219  0.8113 -0.1031 -1.2130
  815SOL     OW 4451   1.882   9.667   4.430  0.3334  0.5407  0.3190
  815SOL    HW1 4452   1.800   9.621   4.448  0.6663 -0.9263 -1.5407
  815SOL    HW2 4453   1.945   9.628   4.490  0.7786 -2.1527 -1.6999
  816SOL     OW 4454   8.488   8.039   9.880 -0.0989  0.2082 -0.0916
  816SOL    HW1 4455   8.557   8.055   9.944  0.5609 -1.9634 -0.1757
  816SOL    HW2 4456   8.487   8.118   9.826  2.6836  0.1684 -0.3830
  817SOL     OW 4457   3.572  10.557   7.338 -0.2364 -0.2090  0.1617
  817SOL    HW1 4458   3.604  10.642   7.308 -0.6915  0.0573  0.4200
  817SOL    HW2 4459   3.598  10.553   7.430  3.1054 -1.9474 -0.6733
  818SOL     OW 4460   8.811   1.745   6.630  0.3716  0.5397  1.0904
  818SOL    HW1 4461   8.729   1.788   6.605  1.2228  1.6689  0.1286
  818SOL    HW2 4462   8.809   1.744   6.725 -0.7342  0.6105  1.0833
  819SOL     OW 4463   1.823   3.504   6.076 -0.2850 -0.3636 -0.0400
  819SOL    HW1 4464   1.914   3.512   6.048 -0.2252  0.4889  0.3614
  819SOL    HW2 4465   1.793   3.595   6.088 -0.4730 -0.6386  2.0684
  820SOL     OW 4466   4.965   9.808   7.849 -0.6614  0.0242 -0.3788
  820SOL    HW1 4467   4.960   9.742   7.918 -0.9326  0.7674  0.3288
  820SOL    HW2 4468   4.892   9.867   7.867  0.1353  1.0448 -0.4330
  821SOL     OW 4469   8.229   6.657   1.107  0.4038 -0.1294 -1.0855
  821SOL    HW1 4470   8.183   6.575   1.122  0.2170  0.0532 -0.6286
  821SOL    HW2 4471   8.312   6.632   1.068  1.0688 -0.6752  0.5859
  822SOL     OW 4472   0.894   7.293   4.728  0.0905  0.0180 -0.1761
  822SOL    HW1 4473   0.882   7.253   4.814 -2.7687  0.9944 -0.0111
  822SOL    HW2 4474   0.918   7.221   4.670 -0.1293 -1.0401  1.0259
  823SOL     OW 4475  10.895   5.122   9.830  0.2157 -0.1398 -0.3629
  823SOL    HW1 4476  10.865   5.115   9.921  1.4956 -0.3704  0.0616
  823SOL    HW2 4477  10.916   5.215   9.819  2.0428 -0.4362  0.2674
  824SOL     OW 4478   5.140   1.798   8.136  0.1934 -0.1582 -0.5584
  824SOL    HW1 4479   5.124   1.883   8.096  1.7990  1.8396  2.6584
  824SOL    HW2 4480   5.053   1.762   8.151 -0.6314  1.8696 -0.1895
  825SOL     OW 4481  10.329   1.181  10.693 -0.1036 -0.2285  0.1389
  825SOL    HW1 4482  10.261   1.195  10.627  0.5471 -1.3335 -0.8035
  825SOL    HW2 4483  10.293   1.113  10.750 -0.2224 -0.0344  0.2995
  826SOL     OW 4484   5.313   2.399   9.256 -0.2892  0.0904  0.5464
  826SOL    HW1 4485   5.273   2.427   9.174 -1.6150  0.7090  1.3743
  826SOL    HW2 4486   5.353   2.479   9.292  2.7447 -0.6927 -0.7602
  827SOL     OW 4487   9.617   5.114   2.980 -0.0586  0.0145 -0.7651
  827SOL    HW1 4488   9.642   5.105   2.888  0.4377 -1.7111 -0.4981
  827SOL    HW2 4489   9.682   5.062   3.027 -0.7196  0.3108  0.5094
  828SOL     OW 4490   8.996   1.010   4.316 -0.0607 -0.2582 -0.4530
  828SOL    HW1 4491   8.938   1.053   4.254 -1.9403 -0.9654  0.7245
  828SOL    HW2 4492   9.066   0.972   4.262 -0.6138  0.7106 -1.8993
  829SOL     OW 4493   2.766   1.326   5.096 -0.1710  0.2518  0.7147
  829SOL    HW1 4494   2.845   1.366   5.133  0.0860  2.2516 -1.7066
  829SOL    HW2 4495   2.798   1.254   5.043 -0.1683 -0.1360  1.2374
  830SOL     OW 4496   3.332   1.625  10.355 -0.1150 -0.6395 -0.0112
  830SOL    HW1 4497   3.388   1.674  10.295  1.2034 -1.4737  0.4921
  830SOL    HW2 4498   3.275   1.573  10.297  0.1068 -0.3122 -0.5308
  831SOL     OW 4499   7.227   4.312   9.889  0.1575  0.5006 -0.2964
  831SOL    HW1 4500   7.135   4.286   9.877  0.8027 -0.6033 -4.6493
  831SOL    HW2 4501   7.261   4.252   9.955 -1.6417 -0.9123 -0.5605
  832SOL     OW 4502   1.634   2.692   6.190  0.2265  0.6415 -0.0298
  832SOL    HW1 4503   1.630   2.694   6.094  0.7679 -0.6476 -0.0973
  832SOL    HW2 4504   1.576   2.763   6.218 -0.7481  0.3751 -1.2921
  833SOL     OW 4505   5.063   7.300   4.422 -0.5750  0.5105  0.4726
  833SOL    HW1 4506   5.057   7.362   4.495 -1.7260 -0.5120  1.2878
  833SOL    HW2 4507   4.972   7.285   4.396 -0.5142 -2.1296  1.4670
  834SOL     OW 4508   1.039   2.107   0.725  0.7744  0.2729 -0.2106
  834SOL    HW1 4509   1.081   2.056   0.794  0.8063 -0.2462 -0.6171
  834SOL    HW2 4510   0.950   2.122   0.758  0.8404  0.1720  0.0163
  835SOL     OW 4511   4.930   6.764   3.161 -0.2669  0.1808 -0.0724
  835SOL    HW1 4512   4.935   6.721   3.247  2.3625 -0.7122 -0.5907
  835SOL    HW2 4513   5.001   6.827   3.161  0.5308 -0.6402 -1.9781
  836SOL     OW 4514   7.579   9.812   0.629 -0.3297 -0.2491 -0.5354
  836SOL    HW1 4515   7.543   9.787   0.544  2.8118  1.5816 -2.6243
  836SOL    HW2 4516   7.505   9.847   0.677 -2.2187 -1.2233 -2.5523
  837SOL     OW 4517   1.194   6.755   8.950 -0.2069 -0.1124  0.2067
  837SOL    HW1 4518   1.224   6.664   8.956  1.1976  0.2002 -1.4583
  837SOL    HW2 4519   1.116   6.758   9.007 -0.2130 -2.3012  0.4044
  838SOL     OW 4520   3.229   8.750   3.284 -0.3612 -0.2710 -0.2130
  838SOL    HW1 4521   3.189   8.664   3.301  1.2840 -1.2470 -1.0224
  838SOL    HW2 4522   3.289   8.764   3.357  0.6327 -0.6465 -0.9269
  839SOL     OW 4523   8.313   2.096  10.261 -0.2962  0.1812  0.1717
  839SOL    HW1 4524   8.328   2.153  10.186 -2.3720  1.8702  0.9257
  839SOL    HW2 4525   8.370   2.021  10.247 -0.8896  0.2460 -3.2815
  840SOL     OW 4526  10.566   6.792   5.230 -0.1854  0.1857 -0.1983
  840SOL    HW1 4527  10.596   6.703   5.211  0.6656  0.2185  0.9014
  840SOL    HW2 4528  10.500   6.809   5.163 -3.0100 -2.5901  1.5937
  841SOL     OW 4529   3.890   8.361   7.386 -0.6300 -0.0450  0.5254
  841SOL    HW1 4530   3.819   8.301   7.405 -1.6118  1.6541  2.5788
  841SOL    HW2 4531   3.907   8.407   7.468  0.3394  2.1854 -0.8034
  842SOL     OW 4532  10.503   3.992   2.688 -0.1671  0.0982 -0.4087
  842SOL    HW1 4533  10.410   3.973   2.695 -0.1562  0.4222  0.8466
  842SOL    HW2 4534  10.510   4.086   2.708  0.1155  0.8453 -3.4809
  843SOL     OW 4535   0.031   8.997   4.704 -0.0104  0.3776  0.6595
  843SOL    HW1 4536  -0.030   9.036   4.641  0.0878  1.7512  1.3667
  843SOL    HW2 4537   0.108   8.974   4.653  0.4324  2.2972  0.3867
  844SOL     OW 4538   1.184   2.459   8.412  0.3163  0.4519 -0.7602
  844SOL    HW1 4539   1.198   2.364   8.421  1.1837  0.6391 -0.0234
  844SOL    HW2 4540   1.113   2.478   8.474 -2.0186 -0.1687 -3.0636
  845SOL     OW 4541   9.019   2.529   6.395  0.0791  0.2981  0.2192
  845SOL    HW1 4542   8.969   2.549   6.474 -0.1106 -2.8981  1.0531
  845SOL    HW2 4543   8.954   2.496   6.333  0.7599 -1.9101  0.5773
  846SOL     OW 4544   2.354   0.132  10.393  0.2383  0.6393  0.0052
  846SOL    HW1 4545   2.346   0.220  10.357  2.7152  1.2672  0.7964
  846SOL    HW2 4546   2.354   0.145  10.488 -0.1182 -0.3042  0.1470
  847SOL     OW 4547   0.686   9.854   2.206 -0.1931  0.4782  0.2907
  847SOL    HW1 4548   0.646   9.839   2.121  0.1241 -0.1595  0.2486
  847SOL    HW2 4549   0.617   9.896   2.258 -0.9537 -0.6718  0.2419
  848SOL     OW 4550   2.375   8.091   2.274 -0.4550  0.3457  0.4547
  848SOL    HW1 4551   2.351   8.008   2.316  1.4765 -1.1009 -1.0700
  848SOL    HW2 4552   2.361   8.075   2.181  1.7543  0.9876 -0.0489
  849SOL     OW 4553   0.468   2.603   2.621 -0.6899  0.0245 -0.3471
  849SOL    HW1 4554   0.423   2.641   2.696 -2.6501 -2.6061 -0.0614
  849SOL    HW2 4555   0.561   2.603   2.646 -1.0783  0.9636  1.2281
  850SOL     OW 4556   2.073   2.449   6.849  0.2667  0.3773 -0.1142
  850SOL    HW1 4557   2.130   2.393   6.796 -0.9259 -1.7957  0.7469
  850SOL    HW2 4558   2.071   2.533   6.803  2.4046 -0.1557 -1.3002
  851SOL     OW 4559   2.673   3.090   1.551  0.5138  0.4173 -0.3419
  851SOL    HW1 4560   2.605   3.123   1.492 -0.3548 -0.4298  0.1630
  851SOL    HW2 4561   2.692   3.165   1.608  0.4951  0.8726 -0.9259
  852SOL     OW 4562   4.451   4.204   1.405 -0.5001  0.4746  0.4110
  852SOL    HW1 4563   4.502   4.256   1.468  1.6317 -1.2379  0.2038
  852SOL    HW2 4564   4.489   4.117   1.409 -1.7637 -0.2445 -1.6854
  853SOL     OW 4565   3.814   3.776   4.877  0.4178  0.0731 -0.4549
  853SOL    HW1 4566   3.818   3.681   4.874 -0.1400 -0.0979  2.0144
  853SOL    HW2 4567   3.723   3.797   4.854  0.6855  0.0543 -1.5401
  854SOL     OW 4568   0.239   7.651   7.076 -0.1380  0.1290  0.0738
  854SOL    HW1 4569   0.197   7.618   7.156  0.7215 -0.3899  0.3297
  854SOL    HW2 4570   0.292   7.577   7.045  0.4700  0.7153 -0.3119
  855SOL     OW 4571   1.266   9.417   8.243  0.0934 -0.3385  0.1503
  855SOL    HW1 4572   1.285   9.479   8.314 -0.1286 -1.3790  1.1580
  855SOL    HW2 4573   1.196   9.361   8.278  0.0458 -0.9383 -0.8572
  856SOL     OW 4574   3.798   1.125   4.201 -0.3351 -0.2403 -0.5216
  856SOL    HW1 4575   3.881   1.166   4.175 -0.2874 -0.9541 -1.5292
  856SOL    HW2 4576   3.742   1.199   4.224  0.1034  0.3406 -1.2648
  857SOL     OW 4577   7.872   4.634   2.472 -0.1655 -0.1654  0.6658
  857SOL    HW1 4578   7.810   4.705   2.491 -0.3295 -0.3637  0.8650
  857SOL    HW2 4579   7.896   4.599   2.558  0.6427  0.2639  0.6266
  858SOL     OW 4580   1.593  11.030   4.459 -0.7206  0.5235 -0.1232
  858SOL    HW1 4581   1.589  11.073   4.545 -1.3299 -0.2997  0.2753
  858SOL    HW2 4582   1.565  11.098   4.397 -2.0564  0.5966  0.5353
  859SOL     OW 4583   0.816  10.411   5.502  0.2622  0.5976 -0.2211
  859SOL    HW1 4584   0.789  10.499   5.528  1.0975  0.7925 -0.0001
  859SOL    HW2 4585   0.759  10.389   5.428  0.2581  1.4513 -0.4762
  860SOL     OW 4586   0.324  10.469   5.850  0.3504  0.2046  0.4586
  860SOL    HW1 4587   0.260  10.449   5.918  0.8609 -2.6120  0.2309
  860SOL    HW2 4588   0.400  10.504   5.897 -0.1938  0.5996  1.0573
  861SOL     OW 4589   8.340   3.362   2.358  0.0230 -0.0895  0.1966
  861SOL    HW1 4590   8.372   3.417   2.285 -1.2885 -1.0356 -1.1447
  861SOL    HW2 4591   8.271   3.414   2.398 -1.4246 -0.7977 -1.2603
  862SOL     OW 4592   9.951   7.924   0.164 -0.0418  0.8664  0.1853
  862SOL    HW1 4593   9.968   7.844   0.114  1.3976  0.9147  0.5580
  862SOL    HW2 4594   9.886   7.897   0.230 -0.9510  0.4793 -0.8418
  863SOL     OW 4595   4.478  10.943   6.035  0.1132  0.0695 -0.1123
  863SOL    HW1 4596   4.390  10.944   5.998  0.4485 -0.4708 -0.9384
  863SOL    HW2 4597   4.498  10.850   6.047  0.3426  0.2113  0.6376
  864SOL     OW 4598   1.700   2.009   8.218 -0.1237 -0.2314  0.2647
  864SOL    HW1 4599   1.668   1.948   8.153  2.1525  0.3642 -1.5703
  864SOL    HW2 4600   1.796   2.006   8.208  0.1423  2.2283  1.3680
  865SOL     OW 4601  10.132   0.304  10.104 -0.3374  0.3544 -0.0049
  865SOL    HW1 4602  10.204   0.256  10.062 -0.2309  0.1455  0.4097
  865SOL    HW2 4603  10.076   0.235  10.139 -1.3858  0.4791 -1.3652
  866SOL     OW 4604   9.347   6.571   7.882 -0.0258 -0.0107 -0.3780
  866SOL    HW1 4605   9.403   6.642   7.913  1.2368 -0.6107 -1.2040
  866SOL    HW2 4606   9.317   6.599   7.796  0.1126 -0.2834 -0.5166
  867SOL     OW 4607   0.661   7.090   3.034 -0.1329 -0.4364  1.0402
  867SOL    HW1 4608   0.669   7.185   3.025  0.5262 -0.5527  0.3569
  867SOL    HW2 4609   0.751   7.058   3.029 -0.4019 -1.1427  0.6941
  868SOL     OW 4610   2.783   6.932   4.939  0.6354  0.1257 -0.2728
  868SOL    HW1 4611   2.818   6.844   4.955 -1.1639 -0.5447  0.1744
  868SOL    HW2 4612   2.794   6.944   4.844  0.2743 -0.8951 -0.4679
  869SOL     OW 4613  11.040   2.599   7.819  0.1223  0.7809  0.3352
  869SOL    HW1 4614  10.956   2.555   7.836 -0.2920  1.5747  0.3776
  869SOL    HW2 4615  11.106   2.538   7.852 -0.4389  0.1471  0.3033
  870SOL     OW 4616   3.990   6.404   5.233 -0.0512  0.1190 -0.8547
  870SOL    HW1 4617   3.966   6.367   5.148 -0.8050  1.7044 -1.3634
  870SOL    HW2 4618   3.907   6.433   5.271 -0.0822 -2.6358  1.5149
  871SOL     OW 4619  10.538   4.746   4.951  0.3702 -0.6537 -0.1164
  871SOL    HW1 4620  10.629   4.772   4.935 -0.0195  0.0508 -1.3574
  871SOL    HW2 4621  10.517   4.690   4.876 -1.1826  1.8164 -1.6865
  872SOL     OW 4622   4.748   0.460   4.775  0.2917  0.1539 -0.1132
  872SOL    HW1 4623   4.789   0.522   4.835  0.2143  1.5369 -1.4399
  872SOL    HW2 4624   4.712   0.391   4.832 -0.8302  1.9996  1.5333
  873SOL     OW 4625   2.610   2.888   2.015  0.0927 -0.2534  0.1061
  873SOL    HW1 4626   2.527   2.923   1.981  0.2817 -0.0115 -0.1104
  873SOL    HW2 4627   2.599   2.890   2.110 -0.6435 -1.4303  0.0711
  874SOL     OW 4628   1.203   2.585   1.547  0.6158  0.5998 -0.1299
  874SOL    HW1 4629   1.154   2.598   1.466 -0.9897 -0.1817  0.6745
  874SOL    HW2 4630   1.175   2.657   1.604  0.2916  0.0647  0.3900
  875SOL     OW 4631   1.997   9.578   6.777 -0.2207  0.0914 -0.4209
  875SOL    HW1 4632   2.028   9.629   6.852  2.6180 -2.2027  0.1665
  875SOL    HW2 4633   2.076   9.561   6.725 -1.2255 -2.4576 -1.3066
  876SOL     OW 4634   0.159   9.308   2.394  0.3282  0.5213  0.2673
  876SOL    HW1 4635   0.166   9.321   2.299  1.3373  1.2905  0.4247
  876SOL    HW2 4636   0.076   9.349   2.418 -0.8104 -1.2172 -0.5063
  877SOL     OW 4637   2.203   8.702   3.322  0.0998 -0.2187  0.2171
  877SOL    HW1 4638   2.128   8.644   3.338  0.3903  0.1986  3.9684
  877SOL    HW2 4639   2.279   8.652   3.351  0.6928  1.0259  0.8869
  878SOL     OW 4640   7.333   3.420   0.591  0.3299 -0.2769 -0.4025
  878SOL    HW1 4641   7.421   3.456   0.599 -0.8109  2.7540 -0.4652
  878SOL    HW2 4642   7.344   3.326   0.609  3.5399 -0.0222 -0.4841
  879SOL     OW 4643  10.500   5.383   4.683 -0.5350 -0.0559  0.7026
  879SOL    HW1 4644  10.422   5.411   4.731 -0.3870  1.0061  0.3463
  879SOL    HW2 4645  10.467   5.351   4.599 -0.8147 -2.1033  1.5433
  880SOL     OW 4646  10.020   3.490   1.589 -0.4174 -0.4323  0.0515
  880SOL    HW1 4647  10.058   3.526   1.508  1.0387 -1.0217  0.4343
  880SOL    HW2 4648  10.096   3.470   1.644 -1.4213  1.2393  2.1534
  881SOL     OW 4649   5.530   9.516   2.380  0.0061  0.0341  0.1910
  881SOL    HW1 4650   5.599   9.458   2.412  0.2085 -0.2543 -0.7278
  881SOL    HW2 4651   5.573   9.601   2.368  0.0686 -0.0015  0.1627
  882SOL     OW 4652   6.680   4.796   6.934  0.1756  0.8291 -0.2047
  882SOL    HW1 4653   6.702   4.720   6.881  1.0297 -0.3776  1.7510
  882SOL    HW2 4654   6.584   4.801   6.931  0.1696  0.3101 -1.1704
  883SOL     OW 4655   0.800   4.010   6.719  0.4518  0.5445 -0.3763
  883SOL    HW1 4656   0.827   4.087   6.668  0.0722  1.1423  0.3025
  883SOL    HW2 4657   0.749   4.046   6.791 -0.6172 -0.4269 -0.6152
  884SOL     OW 4658   7.093   9.628   1.378  0.2793  0.4596 -0.3101
  884SOL    HW1 4659   7.063   9.705   1.427  0.3531  0.6968 -0.6392
  884SOL    HW2 4660   7.185   9.646   1.359  0.6157 -0.2108  0.5908
  885SOL     OW 4661   9.512   9.819   0.775 -0.4136 -0.2472  0.5296
  885SOL    HW1 4662   9.591   9.872   0.772  0.5696 -1.6095  1.3418
  885SOL    HW2 4663   9.500   9.788   0.685 -1.8133  2.3881 -0.3027
  886SOL     OW 4664  10.142   6.509   7.728 -0.2968 -0.0568 -0.4003
  886SOL    HW1 4665  10.229   6.547   7.718  0.3856 -1.4373 -0.0021
  886SOL    HW2 4666  10.088   6.580   7.761  1.0611  0.4306  0.8884
  887SOL     OW 4667  10.992   0.320   5.151 -0.1777  0.7434 -0.0836
  887SOL    HW1 4668  10.934   0.297   5.078 -0.4867  0.5023  0.2327
  887SOL    HW2 4669  10.941   0.298   5.229 -0.5685  2.6358  0.2452
  888SOL     OW 4670   4.905   1.003   8.406 -0.4637  0.5545 -0.5731
  888SOL    HW1 4671   4.982   0.952   8.381 -0.4308  1.1585 -1.7795
  888SOL    HW2 4672   4.916   1.086   8.359 -1.7783  0.6987 -0.6414
  889SOL     OW 4673   0.931   8.124   1.814  0.4564 -0.0410 -0.2475
  889SOL    HW1 4674   1.016   8.090   1.786  0.5422 -0.1549  0.1481
  889SOL    HW2 4675   0.938   8.132   1.909  0.4912  1.2288 -0.3360
  890SOL     OW 4676  10.281   9.793   6.761  0.3678 -0.5021 -0.5296
  890SOL    HW1 4677  10.357   9.848   6.779  0.9803 -1.1609 -1.0112
  890SOL    HW2 4678  10.312   9.732   6.693 -0.5421 -0.8857 -0.6107
  891SOL     OW 4679   4.023   2.393   3.128 -0.0456 -0.2865 -0.7374
  891SOL    HW1 4680   4.068   2.333   3.188 -0.6216  0.1128  0.1289
  891SOL    HW2 4681   4.016   2.345   3.046  0.0882 -1.1518 -0.2547
  892SOL     OW 4682   7.639   4.183   9.515 -0.2827  0.2209  0.6138
  892SOL    HW1 4683   7.594   4.146   9.591  1.1359  0.6095  1.6724
  892SOL    HW2 4684   7.730   4.155   9.524  0.4125  2.1917  0.3461
  893SOL     OW 4685   9.603   6.689  10.273 -0.3379  0.0334  0.3108
  893SOL    HW1 4686   9.668   6.753  10.244 -1.2786  0.5404 -0.7743
  893SOL    HW2 4687   9.628   6.608  10.230 -0.0729  0.0614  0.4068
  894SOL     OW 4688   0.820   4.205   5.731 -0.3627 -0.1744 -0.0525
  894SOL    HW1 4689   0.843   4.112   5.733  0.6594  0.0758  1.4452
  894SOL    HW2 4690   0.816   4.227   5.638  0.9415 -1.3499 -0.4164
  895SOL     OW 4691  10.023   2.852   6.386 -0.0895 -0.6890  0.1369
  895SOL    HW1 4692   9.987   2.934   6.421 -1.9497 -1.6854  0.6748
  895SOL    HW2 4693  10.075   2.816   6.458  3.2107  1.2976 -0.9933
  896SOL     OW 4694   0.925   0.229   4.075  0.6559 -0.6378  0.5822
  896SOL    HW1 4695   0.875   0.252   4.153  0.3336  0.0261  0.1823
  896SOL    HW2 4696   0.995   0.294   4.071  1.3167 -1.3105  0.9022
  897SOL     OW 4697   3.702   7.195   7.675  0.5194 -0.3409  0.5988
  897SOL    HW1 4698   3.780   7.159   7.634  1.0041  0.4995  0.7655
  897SOL    HW2 4699   3.700   7.156   7.762 -0.6647 -2.3443 -0.2521
  898SOL     OW 4700  10.000   6.170   9.638 -0.1959  0.1646  0.2950
  898SOL    HW1 4701   9.919   6.216   9.616 -0.0576  1.2248  1.8719
  898SOL    HW2 4702   9.983   6.079   9.614 -1.1847  0.6693 -1.0661
  899SOL     OW 4703   0.874   1.861   9.551 -0.3189 -0.4584 -0.4204
  899SOL    HW1 4704   0.816   1.812   9.609 -0.5423 -0.1079 -0.3428
  899SOL    HW2 4705   0.826   1.865   9.467 -0.6928  0.3537 -0.1842
  900SOL     OW 4706   1.634   0.080   4.693  0.2846 -0.5417 -0.1891
  900SOL    HW1 4707   1.567   0.109   4.755 -1.1229  1.5809 -2.4867
  900SOL    HW2 4708   1.703   0.146   4.699  0.6471 -0.9213 -0.1351
  901SOL     OW 4709  10.170   9.499   8.870  0.3126  0.2209 -0.1789
  901SOL    HW1 4710  10.133   9.502   8.959  1.3859  0.0287  0.2913
  901SOL    HW2 4711  10.094   9.483   8.814 -0.6503  2.0672  0.5061
  902SOL     OW 4712   2.958   4.412   9.360  0.1690 -0.1950 -0.0278
  902SOL    HW1 4713   2.965   4.493   9.309 -0.7390 -1.2847 -1.9449
  902SOL    HW2 4714   2.947   4.343   9.295 -1.4791 -1.6060  1.6412
  903SOL     OW 4715  10.305   2.974   8.618  0.3846 -0.4237 -0.2679
  903SOL    HW1 4716  10.391   3.013   8.634  0.5595 -1.4358  1.4551
  903SOL    HW2 4717  10.264   2.970   8.704 -0.8954 -1.1406 -0.8813
  904SOL     OW 4718   0.068   7.587   6.287 -0.3242 -0.4163 -0.0989
  904SOL    HW1 4719   0.054   7.547   6.202 -2.2458 -1.3997  0.6364
  904SOL    HW2 4720   0.021   7.670   6.283  1.8373  0.8588 -0.8632
  905SOL     OW 4721   9.023   0.023   8.168  0.3672  0.2494  0.2778
  905SOL    HW1 4722   9.009   0.073   8.088  0.1311  0.4126  0.4206
  905SOL    HW2 4723   9.068   0.085   8.227 -0.5247  0.5201  0.6951
  906SOL     OW 4724   0.636   2.203   4.705  0.9446  0.4048 -0.0022
  906SOL    HW1 4725   0.699   2.261   4.661  0.7840 -0.6333 -1.6835
  906SOL    HW2 4726   0.551   2.242   4.686  0.9909  1.3819  1.6260
  907SOL     OW 4727   1.094   4.293   5.722  0.4804 -0.2578  0.0360
  907SOL    HW1 4728   1.011   4.313   5.678  0.1858 -0.5869  0.4366
  907SOL    HW2 4729   1.088   4.200   5.744  0.3195  0.0531  1.3976
  908SOL     OW 4730  10.625   6.041   3.934  0.2190 -0.2374 -0.0253
  908SOL    HW1 4731  10.662   6.118   3.978  0.6934  0.1510 -1.0608
  908SOL    HW2 4732  10.570   6.000   4.000  1.9073 -0.4133  1.3450
  909SOL     OW 4733   9.266   0.183   6.834 -0.2745 -0.3809  0.3983
  909SOL    HW1 4734   9.193   0.121   6.836 -1.6151  1.1636  1.6461
  909SOL    HW2 4735   9.260   0.231   6.917  0.5901  1.5541 -0.5840
  910SOL     OW 4736   6.736   7.674   5.256  0.1521  0.3413  0.6835
  910SOL    HW1 4737   6.796   7.599   5.249 -0.2756  0.0777 -0.5216
  910SOL    HW2 4738   6.749   7.722   5.173 -0.1837  1.1388  1.0819
  911SOL     OW 4739   1.718   7.884   7.987  0.5113 -0.0555 -0.0693
  911SOL    HW1 4740   1.631   7.896   8.023  0.4264  0.8720 -0.5476
  911SOL    HW2 4741   1.722   7.792   7.963 -1.9994  0.6412 -4.1505
  912SOL     OW 4742   6.244   6.237  10.974 -0.1381  0.3538  0.1837
  912SOL    HW1 4743   6.155   6.247  11.009 -0.5099  1.6275 -1.0400
  912SOL    HW2 4744   6.254   6.310  10.913  1.1213 -0.7688 -1.0181
  913SOL     OW 4745   2.497   4.650   6.127 -0.1160 -0.5157  0.2664
  913SOL    HW1 4746   2.531   4.714   6.064  1.6701 -1.3397  0.3109
  913SOL    HW2 4747   2.468   4.577   6.073  0.2499 -0.7076  0.3241
  914SOL     OW 4748   2.602   5.373  10.506 -0.0939 -0.8406  0.2144
  914SOL    HW1 4749   2.694   5.397  10.518 -0.2083 -0.7373  0.9209
  914SOL    HW2 4750   2.569   5.359  10.595 -0.7015 -1.1085 -0.0469
  915SOL     OW 4751   2.795   2.242   6.636  0.0193 -0.2972 -0.3598
  915SOL    HW1 4752   2.855   2.240   6.710 -0.8454  1.4372  0.4539
  915SOL    HW2 4753   2.842   2.198   6.565  1.2752 -1.0792  0.9118
  916SOL     OW 4754   6.847   1.950   0.844  0.2689  0.1691  0.4467
  916SOL    HW1 4755   6.909   2.022   0.830  0.6844  0.2630  2.4660
  916SOL    HW2 4756   6.795   1.948   0.764  0.6302  2.3407  0.0855
  917SOL     OW 4757   4.994   3.221  10.842 -0.4844 -0.3525 -0.6948
  917SOL    HW1 4758   4.956   3.173  10.768  0.2848 -0.9316 -0.7339
  917SOL    HW2 4759   4.999   3.311  10.812  0.1654 -0.6426 -1.5033
  918SOL     OW 4760   6.843  10.840   5.943 -0.1792  0.2452  0.1432
  918SOL    HW1 4761   6.828  10.817   6.035  2.9367 -3.5386 -0.0842
  918SOL    HW2 4762   6.932  10.874   5.941  1.4681 -3.6440 -1.8257
  919SOL     OW 4763   4.499   3.796   7.071  0.2312  0.1565  0.1187
  919SOL    HW1 4764   4.516   3.820   6.980  0.2409  1.4666  0.4355
  919SOL    HW2 4765   4.408   3.822   7.086  0.3468  0.3081  0.5773
  920SOL     OW 4766  10.779   4.104   1.291 -0.2853  0.1819  0.3742
  920SOL    HW1 4767  10.740   4.189   1.309  1.7725  0.9945  1.2997
  920SOL    HW2 4768  10.854   4.098   1.351  0.4106 -1.7116 -0.5847
  921SOL     OW 4769   4.783   1.121   2.836 -0.5525  0.2398  0.6690
  921SOL    HW1 4770   4.743   1.133   2.750  0.6696  1.2556  0.2171
  921SOL    HW2 4771   4.721   1.065   2.883 -0.4827 -1.7109 -1.3981
  922SOL     OW 4772   6.882   3.309   4.241  0.6472 -0.2252  0.2916
  922SOL    HW1 4773   6.895   3.259   4.161 -0.1130 -1.0222  0.6487
  922SOL    HW2 4774   6.883   3.400   4.212  1.9352 -0.4270 -0.3842
  923SOL     OW 4775  10.452   1.097   7.438 -0.3874 -0.0483  0.3648
  923SOL    HW1 4776  10.363   1.097   7.474 -0.1920  1.9722  0.9328
  923SOL    HW2 4777  10.461   1.182   7.395  0.7178 -0.9100 -1.1899
  924SOL     OW 4778   9.760   3.679   4.138  0.3872  0.4306  0.2324
  924SOL    HW1 4779   9.701   3.751   4.162 -1.0768 -0.6013 -0.1208
  924SOL    HW2 4780   9.844   3.722   4.119 -0.3688  2.0059  0.2970
  925SOL     OW 4781   0.310   1.720   3.935  0.2094  0.3758 -0.1002
  925SOL    HW1 4782   0.267   1.778   3.872  1.8715 -0.1155 -1.7749
  925SOL    HW2 4783   0.328   1.776   4.011 -1.5179  1.0732 -0.1500
  926SOL     OW 4784   0.510   1.998   7.611 -0.1168  0.1274  0.2286
  926SOL    HW1 4785   0.600   2.009   7.643 -0.0438  2.0392 -0.4855
  926SOL    HW2 4786   0.464   1.958   7.685  1.1309 -0.1464  0.9017
  927SOL     OW 4787   0.497  10.590   9.278 -0.1884 -0.7160 -0.1620
  927SOL    HW1 4788   0.583  10.606   9.238 -0.3002 -0.1623 -0.1889
  927SOL    HW2 4789   0.512  10.518   9.339  0.1272 -1.1300 -0.7219
  928SOL     OW 4790   1.674   2.660   1.590 -0.4120 -0.1171 -0.1248
  928SOL    HW1 4791   1.583   2.644   1.616  0.0486 -0.1243  1.6228
  928SOL    HW2 4792   1.697   2.743   1.632  0.7839 -0.7788  0.5788
  929SOL     OW 4793   0.886   0.439   4.988  0.0511  0.2196  0.4256
  929SOL    HW1 4794   0.834   0.457   4.910  1.0256  0.1472 -0.2461
  929SOL    HW2 4795   0.851   0.356   5.022  1.3355 -1.1612 -1.4378
  930SOL     OW 4796   1.623   7.246   2.029 -0.2916 -0.0400  0.0351
  930SOL    HW1 4797   1.673   7.259   1.949  1.1126  0.7778  0.9971
  930SOL    HW2 4798   1.688   7.252   2.099 -1.7709  1.3364  1.3765
  931SOL     OW 4799   5.595   2.558   0.861 -0.1257 -0.3003  0.0424
  931SOL    HW1 4800   5.642   2.620   0.805 -1.2981 -0.6231 -1.3418
  931SOL    HW2 4801   5.550   2.613   0.925 -1.3982  0.3498 -1.3516
  932SOL     OW 4802   0.669   6.811   0.262  0.0919 -0.6372  0.1710
  932SOL    HW1 4803   0.594   6.752   0.256 -1.6861  1.3254  1.3330
  932SOL    HW2 4804   0.731   6.779   0.198 -0.5702 -3.9588  1.0071
  933SOL     OW 4805   3.499   0.343   5.797  0.7299 -0.2511  0.2149
  933SOL    HW1 4806   3.426   0.303   5.749  0.6774  0.2467 -0.1272
  933SOL    HW2 4807   3.565   0.360   5.730  0.7585  0.2209  0.3637
  934SOL     OW 4808  10.840   8.154   7.190 -0.1443 -0.0783 -0.7685
  934SOL    HW1 4809  10.925   8.113   7.179 -0.3718 -0.2326 -2.0997
  934SOL    HW2 4810  10.834   8.217   7.119 -0.0365  1.9173  0.9065
  935SOL     OW 4811   6.867   4.425   2.272  0.4491  0.3845 -0.2417
  935SOL    HW1 4812   6.785   4.453   2.312 -0.1053 -0.8218 -0.4905
  935SOL    HW2 4813   6.935   4.451   2.335 -0.1564  0.9294  0.1975
  936SOL     OW 4814   4.954   4.902   2.816  0.1999  0.1846  0.0803
  936SOL    HW1 4815   4.967   4.896   2.911  1.2151  0.4260 -0.0333
  936SOL    HW2 4816   4.975   4.993   2.794 -2.8818  0.9914  0.0138
  937SOL     OW 4817   1.708   0.906   3.304  0.0822  0.2956 -0.2739
  937SOL    HW1 4818   1.763   0.935   3.231  0.5086  1.5282  0.5052
  937SOL    HW2 4819   1.722   0.811   3.308  1.1251  0.4049 -0.9083
  938SOL     OW 4820   8.059   9.782   6.845 -0.2601 -0.3784  0.1005
  938SOL    HW1 4821   8.135   9.772   6.902  0.1375 -0.8265 -0.4864
  938SOL    HW2 4822   8.016   9.696   6.848 -1.8797  0.4248  1.9679
  939SOL     OW 4823   1.777  10.163  10.679 -0.0236  0.5662  0.3840
  939SOL    HW1 4824   1.683  10.163  10.663 -0.0289  1.1137  0.3727
  939SOL    HW2 4825   1.807  10.078  10.648 -0.3503  0.8101 -0.6626
  940SOL     OW 4826   9.002   1.807   1.188  0.2273 -0.7891  0.0194
  940SOL    HW1 4827   8.962   1.733   1.234  0.1292 -0.7024  0.0739
  940SOL    HW2 4828   8.986   1.882   1.245 -2.9314  0.0128 -1.6653
  941SOL     OW 4829   6.325  10.620   6.323  0.4668  0.6231  0.6251
  941SOL    HW1 4830   6.378  10.698   6.306  0.2406  0.9729  1.4651
  941SOL    HW2 4831   6.321  10.614   6.418 -1.1489  0.7145  0.6045
  942SOL     OW 4832   4.559   2.502   8.490 -0.0607  0.0871 -0.1903
  942SOL    HW1 4833   4.485   2.449   8.459 -0.2088  0.5126 -0.5696
  942SOL    HW2 4834   4.637   2.452   8.464 -0.1980  0.0569 -0.5512
  943SOL     OW 4835   1.757  10.181   9.001 -0.0711 -0.9662 -0.5138
  943SOL    HW1 4836   1.840  10.171   9.049  0.0870  0.0598 -0.5583
  943SOL    HW2 4837   1.714  10.096   9.012  0.6905 -1.3006  0.0653
  944SOL     OW 4838   4.367   7.799   8.569  0.6909  0.2508 -0.2871
  944SOL    HW1 4839   4.332   7.726   8.519 -1.3573  1.7861 -1.2190
  944SOL    HW2 4840   4.429   7.758   8.631  0.8744 -2.0342 -1.8649
  945SOL     OW 4841   9.404   0.254   2.636 -0.0489  0.1594  0.1245
  945SOL    HW1 4842   9.377   0.222   2.550  1.0940 -1.8304  0.4279
  945SOL    HW2 4843   9.486   0.302   2.620  0.5497 -0.8228  0.1488
  946SOL     OW 4844   6.762   5.514   6.940 -0.5650  0.7516 -0.3267
  946SOL    HW1 4845   6.806   5.587   6.895 -1.5253  1.4468 -0.1723
  946SOL    HW2 4846   6.707   5.557   7.006  1.6350 -0.2493  2.3606
  947SOL     OW 4847   0.767   6.237   7.668  0.1924 -0.3769 -0.2982
  947SOL    HW1 4848   0.851   6.272   7.699  1.3123 -1.4978 -1.8969
  947SOL    HW2 4849   0.720   6.314   7.635  0.4423  0.3047  0.8724
  948SOL     OW 4850   8.589   1.327   7.482 -0.0687 -0.1779  0.0731
  948SOL    HW1 4851   8.615   1.269   7.411  0.5165 -0.4586  0.5047
  948SOL    HW2 4852   8.528   1.389   7.442 -1.2904 -1.5248 -0.2416
  949SOL     OW 4853   5.717   9.577   7.616 -0.3437  0.4254  0.0164
  949SOL    HW1 4854   5.813   9.582   7.622 -0.3331  0.0473  0.1937
  949SOL    HW2 4855   5.689   9.668   7.611  0.0305  0.5381 -0.0977
  950SOL     OW 4856  11.031   7.206   9.608  0.6857  0.1572 -0.3502
  950SOL    HW1 4857  11.047   7.295   9.578 -0.2027  0.5254  0.2208
  950SOL    HW2 4858  11.017   7.215   9.703  1.0952 -0.6581 -0.2024
  951SOL     OW 4859   2.459   8.593   7.910  0.2000  0.3643 -0.3024
  951SOL    HW1 4860   2.371   8.629   7.900  0.4750  0.9850 -0.5288
  951SOL    HW2 4861   2.466   8.573   8.004 -0.3137 -0.0493 -0.3480
  952SOL     OW 4862   2.700   0.153   9.457 -0.2951 -0.7807 -0.0787
  952SOL    HW1 4863   2.755   0.218   9.415  0.2190 -1.3253 -0.2487
  952SOL    HW2 4864   2.745   0.131   9.538 -0.2992 -1.1639 -0.1760
  953SOL     OW 4865   0.817   0.339  10.458  0.6736 -0.3515  0.2413
  953SOL    HW1 4866   0.844   0.258  10.501  0.7965 -0.6070 -0.3131
  953SOL    HW2 4867   0.898   0.388  10.445  0.5888 -0.1030  0.6514
  954SOL     OW 4868  10.178   1.940   3.639 -0.6781  0.0344  0.1948
  954SOL    HW1 4869  10.207   1.982   3.558  1.4332  0.3717  1.0719
  954SOL    HW2 4870  10.083   1.953   3.640 -0.5678  1.2688 -1.5049
  955SOL     OW 4871   2.635   7.764   6.452  0.0384  0.5558 -0.4738
  955SOL    HW1 4872   2.597   7.742   6.367  1.1384  0.3729 -0.9441
  955SOL    HW2 4873   2.579   7.720   6.516 -1.8640  2.1325 -0.9602
  956SOL     OW 4874   1.812   1.771   8.378  0.1206 -0.1590 -0.4356
  956SOL    HW1 4875   1.823   1.764   8.283 -0.8603  0.3938 -0.6055
  956SOL    HW2 4876   1.855   1.852   8.402 -1.0691  0.5639 -0.6752
  957SOL     OW 4877   8.926   1.811   7.239  0.3461 -0.5408  0.1117
  957SOL    HW1 4878   8.854   1.836   7.181 -0.1217 -2.0261  0.0131
  957SOL    HW2 4879   9.004   1.847   7.198 -0.4195  2.4201  0.9764
  958SOL     OW 4880   1.578   8.537  10.823 -0.6122  0.6741  0.2682
  958SOL    HW1 4881   1.654   8.579  10.782  1.1255 -0.4821  2.1239
  958SOL    HW2 4882   1.579   8.569  10.913 -1.6160 -0.2994  0.6476
  959SOL     OW 4883   2.465   2.967   2.851  0.0972 -0.4548  0.3926
  959SOL    HW1 4884   2.452   2.995   2.760  0.0303  0.3129  0.6368
  959SOL    HW2 4885   2.556   2.935   2.853 -0.2558 -1.5649 -0.2118
  960SOL     OW 4886   4.977   9.042   0.932  0.3998  0.5848 -0.6455
  960SOL    HW1 4887   4.963   8.960   0.884  1.7729  0.9978 -1.8104
  960SOL    HW2 4888   4.983   9.015   1.024 -0.7784 -0.4097 -0.8295
  961SOL     OW 4889  10.258  10.237   6.045 -0.3290  0.2582  0.5424
  961SOL    HW1 4890  10.254  10.269   5.955 -2.3259  1.7340  1.0982
  961SOL    HW2 4891  10.222  10.148   6.041 -1.7021  0.8213  0.0747
  962SOL     OW 4892   7.556  10.965   9.564  0.7230 -0.3326  0.2585
  962SOL    HW1 4893   7.594  11.042   9.524  1.4647 -1.2306 -0.8099
  962SOL    HW2 4894   7.468  10.993   9.590  1.1092  0.9634  0.2337
  963SOL     OW 4895  10.866   8.038   9.998  0.0801 -0.0516 -0.6021
  963SOL    HW1 4896  10.876   8.033  10.093 -3.8584 -1.7643 -0.0880
  963SOL    HW2 4897  10.955   8.028   9.964  1.6917  1.0539  2.8451
  964SOL     OW 4898   2.028   7.411   6.775 -0.2924  0.2388  0.3971
  964SOL    HW1 4899   1.995   7.373   6.856 -3.0293  1.2787 -0.1167
  964SOL    HW2 4900   2.003   7.347   6.707  0.1915  0.2926  0.1680
  965SOL     OW 4901   0.095   2.291   7.047 -0.2498  0.0739 -0.1386
  965SOL    HW1 4902   0.139   2.372   7.024  0.4380 -0.5606 -1.1399
  965SOL    HW2 4903   0.068   2.303   7.138  3.2800 -0.0474  1.0543
  966SOL     OW 4904   6.773   2.258   1.937  0.7896  1.0622  0.0382
  966SOL    HW1 4905   6.832   2.226   1.869  2.8542  2.0886  1.2482
  966SOL    HW2 4906   6.688   2.268   1.893  1.6926  0.2864 -1.9765
  967SOL     OW 4907   9.617   9.097   9.147  0.3233 -0.1953  0.3205
  967SOL    HW1 4908   9.617   9.071   9.055 -0.6069  1.7542 -0.2793
  967SOL    HW2 4909   9.531   9.071   9.180 -0.5054  1.7373 -0.2089
  968SOL     OW 4910   5.144   6.698   2.500 -0.7173 -0.1558 -0.0360
  968SOL    HW1 4911   5.142   6.670   2.409 -0.4786  0.1070 -0.1259
  968SOL    HW2 4912   5.160   6.618   2.550 -1.5686 -0.4132 -0.1684
  969SOL     OW 4913   9.104   7.364  10.820  0.0223  0.0168  0.1191
  969SOL    HW1 4914   9.198   7.379  10.828  0.1641 -1.2198  0.9132
  969SOL    HW2 4915   9.065   7.421  10.886  0.1808  0.6722 -0.3352
  970SOL     OW 4916   2.959   4.228  10.815  0.4321 -0.4168  0.2847
  970SOL    HW1 4917   2.939   4.230  10.722  1.7165  0.2851  0.0122
  970SOL    HW2 4918   2.987   4.317  10.836  1.0332 -0.7920  1.1360
  971SOL     OW 4919   7.510   2.473  10.748 -0.3763 -0.2094 -0.1921
  971SOL    HW1 4920   7.481   2.415  10.818  0.9325 -0.1724  0.4147
  971SOL    HW2 4921   7.430   2.513  10.714 -1.3027 -2.2994 -0.5958
  972SOL     OW 4922   1.387   3.079  10.207  0.7646 -0.4255 -0.5465
  972SOL    HW1 4923   1.389   3.171  10.181 -0.9548 -0.3067 -0.4140
  972SOL    HW2 4924   1.294   3.057  10.208  1.0820 -1.8802  0.4327
  973SOL     OW 4925  10.677  10.420   0.068 -0.4646  0.1963 -0.2072
  973SOL    HW1 4926  10.709  10.358   0.134 -0.2847  1.0641  0.5436
  973SOL    HW2 4927  10.746  10.486   0.062 -0.0981 -0.3008 -1.8973
  974SOL     OW 4928   2.483   7.860   0.874 -0.0488 -0.0305  0.4326
  974SOL    HW1 4929   2.397   7.855   0.917 -1.5714 -0.1724 -2.3636
  974SOL    HW2 4930   2.497   7.953   0.860 -0.0068 -0.0340  0.4543
  975SOL     OW 4931   3.497   3.928   2.136 -0.2291 -0.1895 -0.1878
  975SOL    HW1 4932   3.504   3.970   2.222  1.9544  1.5259 -1.1343
  975SOL    HW2 4933   3.405   3.904   2.129 -0.6122  0.2438  2.3255
  976SOL     OW 4934   0.042   2.168  10.305  0.2559  0.1292 -0.5165
  976SOL    HW1 4935   0.028   2.177  10.211  0.7006 -0.5964 -0.6512
  976SOL    HW2 4936   0.008   2.250  10.342 -1.6600 -0.3445 -1.1183
  977SOL     OW 4937   3.556   9.125  10.267 -0.4112 -0.1955 -0.1933
  977SOL    HW1 4938   3.480   9.094  10.217  0.1645 -1.5676 -0.2661
  977SOL    HW2 4939   3.556   9.220  10.254 -1.4808 -0.2966 -1.0931
  978SOL     OW 4940  10.693   4.729   7.243  0.7096  0.2661 -0.1551
  978SOL    HW1 4941  10.758   4.660   7.230 -0.1394 -1.1732  2.3607
  978SOL    HW2 4942  10.615   4.697   7.199 -0.1366 -1.2738  2.2267
  979SOL     OW 4943   1.836   9.733   2.378  0.3479 -0.4940  0.3940
  979SOL    HW1 4944   1.771   9.729   2.449  1.0908 -1.4100  1.0599
  979SOL    HW2 4945   1.842   9.643   2.347  1.4814 -0.4800  0.5321
  980SOL     OW 4946   5.735   3.333   9.475 -0.5979 -0.1459  0.3446
  980SOL    HW1 4947   5.757   3.369   9.389 -0.4198 -0.6303  0.1845
  980SOL    HW2 4948   5.820   3.308   9.513 -0.6317  0.4871  0.8542
  981SOL     OW 4949   3.000   1.122   1.034  0.5834 -0.5834 -0.4131
  981SOL    HW1 4950   3.016   1.110   0.941 -3.1282 -3.4513 -0.9305
  981SOL    HW2 4951   2.921   1.176   1.038  0.5354 -0.7136  1.0489
  982SOL     OW 4952   7.158  10.146   2.677 -0.2299 -0.5160 -0.0642
  982SOL    HW1 4953   7.130  10.160   2.767  1.0846  0.3077  0.2417
  982SOL    HW2 4954   7.172  10.051   2.671 -0.0256 -0.5438  0.6928
  983SOL     OW 4955   8.175   9.362   2.305  0.5795 -0.1670 -0.1345
  983SOL    HW1 4956   8.177   9.416   2.384  2.0383 -1.5890  0.8725
  983SOL    HW2 4957   8.261   9.374   2.265  0.3787 -0.5905 -0.7069
  984SOL     OW 4958  11.014   0.913   5.399  0.3955 -0.3714 -0.6382
  984SOL    HW1 4959  11.014   0.823   5.365  0.6323 -0.0235 -1.6191
  984SOL    HW2 4960  11.027   0.967   5.321  0.1521  0.5216 -0.0717
  985SOL     OW 4961  10.508   5.454   7.657  0.5328  0.6801  0.1620
  985SOL    HW1 4962  10.489   5.545   7.636  0.5288  0.4891 -0.7325
  985SOL    HW2 4963  10.601   5.453   7.679  0.5412  0.8927  0.1365
  986SOL     OW 4964   6.139   9.535   4.986 -0.1886 -0.3573 -0.3842
  986SOL    HW1 4965   6.124   9.535   4.892  0.6614  1.1099 -0.5455
  986SOL    HW2 4966   6.234   9.522   4.995 -0.0429  0.9703  0.1944
  987SOL     OW 4967  10.305   8.263   0.358  0.1575 -0.4615 -0.2832
  987SOL    HW1 4968  10.254   8.183   0.344 -1.2577  0.0846  1.4337
  987SOL    HW2 4969  10.297   8.311   0.275 -2.9182 -0.0083  0.1547
  988SOL     OW 4970   1.944   5.257   9.418  0.2226  0.3329 -0.4731
  988SOL    HW1 4971   1.961   5.163   9.423 -0.6131  0.0800 -1.9380
  988SOL    HW2 4972   1.933   5.284   9.509  0.8955 -0.8976 -0.0002
  989SOL     OW 4973   3.405  10.498   7.790 -0.9719  0.2891  0.2577
  989SOL    HW1 4974   3.444  10.562   7.849 -1.2739  0.2722  0.4783
  989SOL    HW2 4975   3.408  10.416   7.840  0.3819 -0.1087 -0.4168
  990SOL     OW 4976   7.822   5.530   1.446  0.2472  0.0536 -0.1742
  990SOL    HW1 4977   7.798   5.463   1.382  1.4263  0.3419 -0.9503
  990SOL    HW2 4978   7.904   5.499   1.484 -1.0109 -0.6887  2.0855
  991SOL     OW 4979  10.631   9.551   2.387 -0.0825 -0.7714  0.0689
  991SOL    HW1 4980  10.575   9.474   2.396  1.8933 -2.2971 -0.2719
  991SOL    HW2 4981  10.586   9.605   2.321 -1.2824 -1.7856  0.0178
  992SOL     OW 4982   1.943   4.561   3.825  0.7089 -0.2064 -0.0708
  992SOL    HW1 4983   1.952   4.556   3.920 -0.7030 -1.4317  0.0350
  992SOL    HW2 4984   2.005   4.629   3.798  1.4013 -0.1096  1.6746
  993SOL     OW 4985   6.910   5.118  10.337  0.0549 -0.3713  0.1520
  993SOL    HW1 4986   6.956   5.175  10.275  0.8571 -2.1092 -0.9261
  993SOL    HW2 4987   6.973   5.105  10.408 -0.4406  0.7059  0.8159
  994SOL     OW 4988  11.038  10.846   1.358 -0.1041  0.0553  0.7052
  994SOL    HW1 4989  10.955  10.893   1.346 -0.2998 -0.6041 -0.6347
  994SOL    HW2 4990  11.092  10.873   1.285  0.3713 -0.5627  0.8211
  995SOL     OW 4991   2.652   8.864   5.293  0.0567 -0.5086 -1.0407
  995SOL    HW1 4992   2.723   8.920   5.261 -0.4282  1.4476  1.0538
  995SOL    HW2 4993   2.687   8.825   5.373 -0.8162 -0.3934 -0.5918
  996SOL     OW 4994   0.235   8.270   0.973 -0.3713 -0.1014  0.0194
  996SOL    HW1 4995   0.306   8.260   0.909 -0.5368 -1.3598  0.0264
  996SOL    HW2 4996   0.179   8.194   0.960 -1.0216  0.2088  0.9095
  997SOL     OW 4997   8.183   1.662   4.490 -0.3590 -0.6474  0.2979
  997SOL    HW1 4998   8.195   1.729   4.557 -1.3336  0.1242 -0.2738
  997SOL    HW2 4999   8.135   1.706   4.420 -0.8829 -1.8953 -0.1629
  998SOL     OW 5000   2.557   6.516  10.086 -0.2540 -0.2790  0.1346
  998SOL    HW1 5001   2.581   6.433  10.127  1.5943 -1.2503 -2.6476
  998SOL    HW2 5002   2.637   6.568  10.089 -1.0809  1.0189  0.8120
  999SOL     OW 5003   1.143   7.903   6.291 -0.3247 -0.6572 -0.4193
  999SOL    HW1 5004   1.189   7.839   6.235 -0.0962 -0.8499 -0.0126
  999SOL    HW2 5005   1.092   7.955   6.229 -2.5166 -2.8292 -0.5909
 1000SOL     OW 5006   2.277   1.839   0.865  0.2320  0.6001  0.7275
 1000SOL    HW1 5007   2.362   1.881   0.876  0.2170  0.1720  2.9977
 1000SOL    HW2 5008   2.215   1.911   0.855  0.7148  0.9369  0.0892
 1001SOL     OW 5009   0.419   9.611   9.745  0.5608 -0.3645 -0.0213
 1001SOL    HW1 5010   0.376   9.652   9.670 -0.6922 -0.3039  0.6994
 1001SOL    HW2 5011   0.351   9.556   9.784  0.9987  0.0847  1.4316
 1002SOL     OW 5012   8.687  10.651   0.024 -0.3097 -0.2576  0.1509
 1002SOL    HW1 5013   8.628  10.678   0.095 -2.3270  0.5232 -1.6816
 1002SOL    HW2 5014   8.728  10.733  -0.005 -1.9005  0.0134 -1.5430
 1003SOL     OW 5015   2.469   2.269   8.751  0.2727  0.3263 -0.0065
 1003SOL    HW1 5016   2.473   2.208   8.825 -0.3862  0.5753  0.2396
 1003SOL    HW2 5017   2.377   2.273   8.728  0.4094  0.6477 -0.5187
 1004SOL     OW 5018   4.078   5.760   3.201 -0.9755 -0.0033  0.3414
 1004SOL    HW1 5019   4.001   5.806   3.235 -1.0737 -0.3201  0.5496
 1004SOL    HW2 5020   4.108   5.706   3.275 -1.1192 -0.6055 -0.0326
 1005SOL     OW 5021   9.971   2.708   4.182  0.1183 -0.1107 -0.0034
 1005SOL    HW1 5022   9.934   2.777   4.237  0.2440 -0.0935  0.0582
 1005SOL    HW2 5023   9.900   2.686   4.120 -0.4508 -0.9429  0.9087
 1006SOL     OW 5024   6.410   0.069   5.113 -0.3443  0.2733  0.1968
 1006SOL    HW1 5025   6.451   0.020   5.042 -0.8564 -0.5627  0.4582
 1006SOL    HW2 5026   6.411   0.160   5.085 -1.1319 -0.1179 -1.1766
 1007SOL     OW 5027  10.024   8.672   8.936 -0.3302  0.1598 -0.0974
 1007SOL    HW1 5028  10.035   8.674   9.031  0.5771  0.5657 -0.2020
 1007SOL    HW2 5029  10.110   8.697   8.901 -0.1029 -1.7581 -1.0598
 1008SOL     OW 5030   6.838   1.305   5.052  0.4932  0.4240  0.2110
 1008SOL    HW1 5031   6.814   1.311   4.960  1.2815  1.6277  0.0726
 1008SOL    HW2 5032   6.929   1.276   5.051  0.2765 -0.3118  0.6449
 1009SOL     OW 5033   4.464   9.488  10.408  0.2152  0.3464 -0.0630
 1009SOL    HW1 5034   4.558   9.472  10.412  0.4320  0.7933 -2.1043
 1009SOL    HW2 5035   4.456   9.582  10.391 -0.6225  0.3983  0.5344
 1010SOL     OW 5036  10.156   2.064   3.140  0.0695  0.0808  0.4347
 1010SOL    HW1 5037  10.103   2.126   3.090 -0.2184 -0.7445 -0.3053
 1010SOL    HW2 5038  10.242   2.106   3.147 -0.0722  0.4926 -0.2121
 1011SOL     OW 5039   7.013   9.244   7.489 -0.1293 -0.1542  0.3182
 1011SOL    HW1 5040   7.018   9.153   7.460 -0.5395  0.2078 -0.9421
 1011SOL    HW2 5041   7.094   9.258   7.538  0.4416 -0.8857 -0.3972
 1012SOL     OW 5042   8.282   1.613  10.096  0.4530 -0.0062 -0.0462
 1012SOL    HW1 5043   8.219   1.547  10.126  1.7193 -0.3856  1.9491
 1012SOL    HW2 5044   8.339   1.565  10.036 -0.0105 -0.1248 -0.4035
 1013SOL     OW 5045   6.608   8.254   6.047  0.0914  0.4845  0.3367
 1013SOL    HW1 5046   6.539   8.214   6.099 -0.8881  1.3320 -0.2423
 1013SOL    HW2 5047   6.661   8.181   6.016 -0.0974 -0.1256  1.4086
 1014SOL     OW 5048   8.585   4.104   9.487 -0.0963  0.6893  0.2296
 1014SOL    HW1 5049   8.502   4.075   9.449  0.2086  0.0872  0.0043
 1014SOL    HW2 5050   8.562   4.176   9.545 -0.8472  0.1836  0.5690
 1015SOL     OW 5051   9.822   1.182   5.475 -0.0161 -0.0118 -0.0313
 1015SOL    HW1 5052   9.741   1.148   5.439  0.6466 -0.5569 -1.0562
 1015SOL    HW2 5053   9.871   1.104   5.501  0.0856  0.3216  0.8176
 1016SOL     OW 5054   9.008  11.100   5.217 -0.0571  0.3276 -0.2046
 1016SOL    HW1 5055   8.998  11.005   5.228 -0.1161  0.5271  1.7317
 1016SOL    HW2 5056   8.925  11.136   5.247 -0.5599  0.9586 -2.2242
 1017SOL     OW 5057   8.125   0.623   3.253  0.9173  0.0071 -0.0986
 1017SOL    HW1 5058   8.109   0.534   3.220  2.8766 -2.1190  3.9049
 1017SOL    HW2 5059   8.208   0.649   3.212  0.6514 -0.2666 -0.8206
 1018SOL     OW 5060   7.665   6.956   0.827  0.4626  0.3255 -0.1201
 1018SOL    HW1 5061   7.652   7.012   0.750  2.1509  0.6637 -0.2068
 1018SOL    HW2 5062   7.643   7.013   0.901  0.2902  0.4884 -0.2959
 1019SOL     OW 5063   2.665   8.767   8.243 -0.2208  0.2305  0.3816
 1019SOL    HW1 5064   2.572   8.748   8.251 -0.1006  0.1322  1.7370
 1019SOL    HW2 5065   2.703   8.689   8.203 -0.6412  0.0773  0.2794
 1020SOL     OW 5066   5.788   7.816   2.820  0.3739 -0.0848  0.0400
 1020SOL    HW1 5067   5.813   7.844   2.732 -1.4589  1.6154 -0.0138
 1020SOL    HW2 5068   5.694   7.831   2.825  0.3426 -0.5381  2.1672
 1021SOL     OW 5069   1.117   8.420   6.063 -0.0311  0.2173 -0.2672
 1021SOL    HW1 5070   1.169   8.385   6.135  2.1844  2.0485 -0.8725
 1021SOL    HW2 5071   1.099   8.344   6.008 -0.5649 -0.9604  1.4326
 1022SOL     OW 5072   8.345   9.382   6.382 -0.5646 -0.0267 -0.3572
 1022SOL    HW1 5073   8.263   9.344   6.413 -0.7983 -0.0537 -0.9772
 1022SOL    HW2 5074   8.329   9.401   6.289  0.6395 -1.4847 -0.9158
 1023SOL     OW 5075  10.172   1.702   2.770  0.1210  0.2438 -0.2485
 1023SOL    HW1 5076  10.212   1.772   2.718  0.0546  0.8760  0.5248
 1023SOL    HW2 5077  10.185   1.729   2.861  0.5537 -1.0110  0.0874
 1024SOL     OW 5078  10.612   3.229   8.317  0.5237  0.4086 -0.1768
 1024SOL    HW1 5079  10.668   3.170   8.268  1.4833 -0.2198  1.6016
 1024SOL    HW2 5080  10.671   3.297   8.350 -0.1497  0.9889 -0.1320
 1025SOL     OW 5081   2.247   6.367   9.421 -0.2569  0.2940  0.1895
 1025SOL    HW1 5082   2.197   6.384   9.341  0.9356  1.2635 -0.3759
 1025SOL    HW2 5083   2.269   6.453   9.454  0.7353 -0.1081  0.6115
 1026SOL     OW 5084   8.920  10.545   8.699 -0.2339 -0.1750 -0.6727
 1026SOL    HW1 5085   8.831  10.577   8.716  0.7029  1.2434  2.1862
 1026SOL    HW2 5086   8.974  10.624   8.698  1.6616 -1.1634  3.0903
 1027SOL     OW 5087   2.941   7.719   9.935  0.1831 -0.2741  0.0075
 1027SOL    HW1 5088   2.876   7.687   9.997 -1.7778  2.4005 -0.4828
 1027SOL    HW2 5089   2.931   7.663   9.858 -0.6001 -0.7428  0.4444
 1028SOL     OW 5090   1.988   0.938   1.024  0.3656 -0.0010 -0.2939
 1028SOL    HW1 5091   1.905   0.962   0.983  0.4124  0.8882  0.1049
 1028SOL    HW2 5092   1.970   0.938   1.118  0.7707  0.0402 -0.2142
 1029SOL     OW 5093   0.573   7.906   0.325 -0.1130 -0.0115  0.3219
 1029SOL    HW1 5094   0.592   7.980   0.267  0.3298 -0.4714 -0.1310
 1029SOL    HW2 5095   0.478   7.896   0.320 -0.0982  0.0634 -0.2041
 1030SOL     OW 5096   7.239  11.100   8.554  0.2278 -0.1765 -0.2210
 1030SOL    HW1 5097   7.289  11.167   8.600  0.0247  0.3996 -0.8317
 1030SOL    HW2 5098   7.297  11.071   8.483 -0.2131  0.3505 -0.8085
 1031SOL     OW 5099  10.653   0.372   9.012 -0.1158  0.3044 -0.2728
 1031SOL    HW1 5100  10.635   0.341   8.923 -0.0213  0.1401 -0.2359
 1031SOL    HW2 5101  10.680   0.293   9.059  1.4555  0.6529 -0.5343
 1032SOL     OW 5102   9.998   3.407   4.583  0.1210  0.2177 -0.2082
 1032SOL    HW1 5103  10.014   3.318   4.549 -0.6162  0.0888 -0.2266
 1032SOL    HW2 5104   9.969   3.457   4.507  2.6227  1.0763 -0.6995
 1033SOL     OW 5105   4.336   3.283   0.517 -0.2519  0.3632 -0.3367
 1033SOL    HW1 5106   4.363   3.253   0.603 -0.4757  1.1220  0.0115
 1033SOL    HW2 5107   4.295   3.368   0.533 -3.7685 -1.0804 -0.6811
 1034SOL     OW 5108   8.724   2.474   8.746  0.1296  0.2797 -0.3105
 1034SOL    HW1 5109   8.815   2.447   8.760 -0.2842 -0.0386  2.1889
 1034SOL    HW2 5110   8.675   2.392   8.742 -0.3552  0.4792  1.0986
 1035SOL     OW 5111   1.745   7.137   0.456 -0.2105  0.0759  0.1549
 1035SOL    HW1 5112   1.763   7.105   0.544  0.0867  0.2898  0.1738
 1035SOL    HW2 5113   1.797   7.217   0.448  1.5934 -1.1493 -1.0155
 1036SOL     OW 5114   3.557   0.346   1.457 -0.0059  0.4082  0.2226
 1036SOL    HW1 5115   3.592   0.435   1.466  0.6276  0.1253  0.6181
 1036SOL    HW2 5116   3.504   0.332   1.535  0.9396 -0.0174  0.8051
 1037SOL     OW 5117   9.351   1.229   6.862 -0.1718 -0.4575  0.2411
 1037SOL    HW1 5118   9.291   1.167   6.904 -0.6844 -0.5411 -0.6074
 1037SOL    HW2 5119   9.353   1.304   6.921 -2.8649  0.5055 -0.7589
 1038SOL     OW 5120  10.164   7.239   1.074  0.6529 -0.2565 -0.2674
 1038SOL    HW1 5121  10.145   7.188   1.153 -1.7914  0.4259 -0.3393
 1038SOL    HW2 5122  10.086   7.230   1.019  0.3917  2.8678 -0.6247
 1039SOL     OW 5123   4.040   0.112  10.549  0.2511  0.4671 -0.3746
 1039SOL    HW1 5124   4.113   0.172  10.533  1.1289 -0.6142 -0.5654
 1039SOL    HW2 5125   4.023   0.073  10.463  0.2318 -0.1459 -0.0955
 1040SOL     OW 5126   4.237  10.105   7.831  0.3074  0.5481 -0.3075
 1040SOL    HW1 5127   4.172  10.161   7.789 -1.0545 -0.5799  0.2108
 1040SOL    HW2 5128   4.230  10.021   7.785 -0.2808 -0.3034  1.2504
 1041SOL     OW 5129  10.345   4.081   0.012 -0.1288 -0.2043  0.1889
 1041SOL    HW1 5130  10.389   4.144  -0.045 -0.3305  1.2986  1.6435
 1041SOL    HW2 5131  10.416   4.040   0.063 -0.2480  1.5505  1.8681
 1042SOL     OW 5132   9.023   5.751  10.012  0.4821  0.0870  0.5954
 1042SOL    HW1 5133   8.942   5.796   9.988  1.2599  0.7471 -0.8757
 1042SOL    HW2 5134   9.055   5.797  10.089  1.1060  1.9368 -0.7039
 1043SOL     OW 5135   6.020   0.564  10.606 -0.0768  0.4300  0.7638
 1043SOL    HW1 5136   6.064   0.607  10.533  1.1130  2.3793  2.4937
 1043SOL    HW2 5137   6.030   0.470  10.590 -0.8715  0.7423 -2.0844
 1044SOL     OW 5138   6.527  10.710  10.484  0.1318  0.1227  0.0772
 1044SOL    HW1 5139   6.578  10.728  10.564  0.8505  0.0081 -0.3474
 1044SOL    HW2 5140   6.574  10.639  10.442 -0.1942  0.2496 -0.5049
 1045SOL     OW 5141   5.230   2.806   8.874 -0.1356 -0.3069 -0.4526
 1045SOL    HW1 5142   5.219   2.875   8.808  1.6300  0.5749  0.1150
 1045SOL    HW2 5143   5.312   2.763   8.850 -0.4454 -1.2267  0.0874
 1046SOL     OW 5144   3.047   5.617   3.418  0.6350  0.2865 -0.8463
 1046SOL    HW1 5145   3.121   5.666   3.455  0.3383  1.2386 -1.4583
 1046SOL    HW2 5146   2.970   5.663   3.451  0.2649 -1.2388  0.5166
 1047SOL     OW 5147   1.419   3.735   3.646  0.0034  0.0147  0.1917
 1047SOL    HW1 5148   1.474   3.770   3.717 -0.0234 -0.8273  0.6426
 1047SOL    HW2 5149   1.374   3.660   3.686 -0.9470  0.2778 -0.3742
 1048SOL     OW 5150   8.531   7.728   5.815  0.0704 -0.4322 -0.0377
 1048SOL    HW1 5151   8.616   7.719   5.858  0.4883 -0.7382 -0.9076
 1048SOL    HW2 5152   8.511   7.640   5.782 -1.0680 -0.5994  1.0257
 1049SOL     OW 5153   3.569   1.512   8.323 -0.1345 -0.0244  0.0825
 1049SOL    HW1 5154   3.622   1.555   8.390 -0.5303  0.1362  0.2899
 1049SOL    HW2 5155   3.523   1.583   8.279  0.6878 -0.0495 -0.8603
 1050SOL     OW 5156   8.115   4.662   2.045 -0.5882 -0.4852 -0.0115
 1050SOL    HW1 5157   8.132   4.569   2.056  1.5418 -0.0197  1.0945
 1050SOL    HW2 5158   8.136   4.701   2.129 -1.1794  1.0440 -0.5281
 1051SOL     OW 5159   2.787   7.753   9.236  0.0869 -0.1352  0.6132
 1051SOL    HW1 5160   2.703   7.735   9.193  0.3891 -3.4938  1.1679
 1051SOL    HW2 5161   2.848   7.765   9.163 -0.4344 -0.0551  0.1748
 1052SOL     OW 5162   2.043   2.672   4.944  0.5401  0.1550 -0.4818
 1052SOL    HW1 5163   1.949   2.666   4.961  0.9285 -0.9684  1.6125
 1052SOL    HW2 5164   2.074   2.735   5.009  1.6780 -2.0021  1.1777
 1053SOL     OW 5165   3.330   3.242   8.223 -0.7075  0.8057  0.5087
 1053SOL    HW1 5166   3.371   3.325   8.202 -0.7886  0.9733  0.9906
 1053SOL    HW2 5167   3.306   3.250   8.316 -2.0007  0.7872  0.1904
 1054SOL     OW 5168   0.734   1.087   6.076 -0.4102  0.3438 -0.4770
 1054SOL    HW1 5169   0.639   1.080   6.070 -0.2986 -0.1421 -3.4236
 1054SOL    HW2 5170   0.750   1.179   6.096 -1.4702  0.2829  0.8081
 1055SOL     OW 5171   8.101   8.574   9.313 -0.0599  0.6462 -0.1111
 1055SOL    HW1 5172   8.016   8.599   9.276 -0.9533  0.3262  1.6087
 1055SOL    HW2 5173   8.153   8.546   9.238 -1.0519  1.9902 -1.3569
 1056SOL     OW 5174   5.936   9.554   5.655  0.0528  0.2137  0.5774
 1056SOL    HW1 5175   6.000   9.586   5.592  0.4839  0.2694  1.0367
 1056SOL    HW2 5176   5.977   9.569   5.740 -1.0962  1.4016  0.9415
 1057SOL     OW 5177   4.672   4.806   6.540  0.1344  0.0263 -0.0695
 1057SOL    HW1 5178   4.589   4.763   6.519 -0.4045  1.7955 -1.9149
 1057SOL    HW2 5179   4.695   4.773   6.627 -4.0280  1.6538  1.9372
 1058SOL     OW 5180   7.706   3.580  10.116 -0.1306 -0.0642  0.5325
 1058SOL    HW1 5181   7.686   3.554  10.026 -0.5818  0.8299  0.3671
 1058SOL    HW2 5182   7.752   3.504  10.153  0.8901 -0.0933 -0.7264
 1059SOL     OW 5183   4.041   2.923   2.096 -0.3616  0.3524 -0.2504
 1059SOL    HW1 5184   4.115   2.978   2.070 -0.9748  0.0928 -2.8095
 1059SOL    HW2 5185   3.980   2.982   2.138  0.5851  0.8700  0.4442
 1060SOL     OW 5186  10.307   5.347  10.344  0.1064 -0.5551 -0.0818
 1060SOL    HW1 5187  10.402   5.344  10.354 -0.0627 -0.2331  2.2485
 1060SOL    HW2 5188  10.280   5.256  10.340  0.4703 -0.6682  0.0032
 1061SOL     OW 5189   2.188   7.816   5.269  0.4322  0.2326 -0.6637
 1061SOL    HW1 5190   2.218   7.812   5.360 -1.1371  0.1990 -0.1233
 1061SOL    HW2 5191   2.153   7.728   5.252  0.8537  0.1909 -1.3629
 1062SOL     OW 5192   7.684   1.078   1.290 -0.3646  0.1502 -0.2734
 1062SOL    HW1 5193   7.681   0.983   1.285 -1.7877  0.1983 -0.8867
 1062SOL    HW2 5194   7.777   1.099   1.297 -0.0858 -1.3232  1.0931
 1063SOL     OW 5195   7.183   3.663   5.670 -0.6964 -0.7870  0.4954
 1063SOL    HW1 5196   7.119   3.728   5.642 -0.2667 -1.0919 -1.3217
 1063SOL    HW2 5197   7.135   3.580   5.669 -0.5146 -0.8852  0.0831
 1064SOL     OW 5198   2.113   1.066   5.954  0.2323 -0.8188  0.7175
 1064SOL    HW1 5199   2.086   1.119   5.879 -1.5195 -3.7181 -0.8987
 1064SOL    HW2 5200   2.034   1.057   6.007  0.4777 -1.7233  0.9515
 1065SOL     OW 5201   1.857   8.962   0.118 -0.4213  1.0493 -0.9662
 1065SOL    HW1 5202   1.833   9.001   0.034  0.3690  0.0470 -1.6780
 1065SOL    HW2 5203   1.874   8.870   0.098 -0.5488  0.7154  0.3591
 1066SOL     OW 5204   0.071   6.485   9.947  0.5916  0.2001 -0.0857
 1066SOL    HW1 5205   0.030   6.490   9.861 -0.5312 -1.3243  0.3112
 1066SOL    HW2 5206   0.129   6.408   9.942  1.8852  1.1449 -0.0081
 1067SOL     OW 5207   2.182  10.496   7.569 -0.4628 -0.1423 -0.1227
 1067SOL    HW1 5208   2.094  10.497   7.532 -0.4712 -0.2298 -0.1065
 1067SOL    HW2 5209   2.220  10.413   7.537 -0.4488 -0.1888  0.0152
 1068SOL     OW 5210   0.749   4.548   8.503  0.3478  0.0155 -0.0638
 1068SOL    HW1 5211   0.655   4.564   8.512  0.4038 -0.0832  0.7849
 1068SOL    HW2 5212   0.766   4.561   8.410 -0.0008  2.7993  0.1781
 1069SOL     OW 5213   6.711   0.147   9.501 -0.0643  0.4441 -0.5129
 1069SOL    HW1 5214   6.617   0.162   9.502 -0.0916  0.2581 -0.3042
 1069SOL    HW2 5215   6.734   0.144   9.408 -0.3721 -0.1641 -0.5788
 1070SOL     OW 5216   8.390   7.070   2.520 -0.4539 -0.1276  0.1363
 1070SOL    HW1 5217   8.419   7.052   2.431  1.8259  1.9512  0.3676
 1070SOL    HW2 5218   8.423   6.996   2.571 -0.8193 -0.7718 -0.5318
 1071SOL     OW 5219   8.992   9.597   9.506  0.2102 -0.6874  0.1457
 1071SOL    HW1 5220   9.056   9.641   9.450  0.0287 -0.7346 -0.0967
 1071SOL    HW2 5221   9.045   9.548   9.569  0.4298  0.4491  0.8788
 1072SOL     OW 5222   1.145   3.363   6.952 -0.3380  0.1962 -0.7759
 1072SOL    HW1 5223   1.168   3.456   6.944 -0.9858  0.4734  0.3503
 1072SOL    HW2 5224   1.049   3.363   6.953 -0.3532 -0.5772 -1.6727
 1073SOL     OW 5225   0.716   8.793   6.064 -0.4206 -0.0436  0.3321
 1073SOL    HW1 5226   0.761   8.874   6.088 -0.0304 -0.0317 -0.3833
 1073SOL    HW2 5227   0.786   8.731   6.048 -0.6512 -0.0661 -0.6691
 1074SOL     OW 5228  10.595   8.005   8.029 -0.0290  0.2408 -0.4861
 1074SOL    HW1 5229  10.536   7.929   8.033 -0.3786  0.5283 -0.1254
 1074SOL    HW2 5230  10.543   8.075   7.990 -0.1835  0.7170  0.5345
 1075SOL     OW 5231   3.699   5.476   3.672  0.0508  0.1177 -0.4627
 1075SOL    HW1 5232   3.672   5.430   3.593  0.4339 -1.4018  0.2513
 1075SOL    HW2 5233   3.629   5.538   3.689  0.1910  0.8266 -2.2451
 1076SOL     OW 5234   8.345   1.469   0.525  0.1266  0.0276 -0.0295
 1076SOL    HW1 5235   8.428   1.427   0.547  0.3061  1.5264  2.7066
 1076SOL    HW2 5236   8.368   1.561   0.513 -1.0933  0.4408  0.6721
 1077SOL     OW 5237   3.071   7.149   9.098 -0.2908  0.2931  0.1868
 1077SOL    HW1 5238   3.068   7.056   9.123 -1.1183  0.5601  1.1162
 1077SOL    HW2 5239   3.148   7.155   9.041 -0.1517 -0.9394  0.2060
 1078SOL     OW 5240   9.095   1.039   9.182  0.0565  0.3765  0.3426
 1078SOL    HW1 5241   9.053   0.981   9.119  0.8913 -0.7562  0.7938
 1078SOL    HW2 5242   9.188   1.025   9.169  0.2482  0.3854  1.5739
 1079SOL     OW 5243   1.093   4.617   5.617 -0.1761  0.5849 -0.1050
 1079SOL    HW1 5244   1.135   4.537   5.647 -0.5940 -0.0385 -1.1170
 1079SOL    HW2 5245   1.165   4.669   5.581 -0.0829  0.0378 -0.7403
 1080SOL     OW 5246   1.124   4.533   0.003  0.4302 -0.0253 -0.4396
 1080SOL    HW1 5247   1.051   4.539   0.065  0.5494  0.0956 -0.3083
 1080SOL    HW2 5248   1.103   4.457  -0.052  1.1606 -1.2533  0.8867
 1081SOL     OW 5249   9.351   1.481   1.700 -0.7766  0.1994 -0.8101
 1081SOL    HW1 5250   9.363   1.449   1.610  0.8588  0.4233 -0.6911
 1081SOL    HW2 5251   9.438   1.510   1.728 -1.6724  2.2405  0.0708
 1082SOL     OW 5252   8.454   4.419   8.622  0.3804 -0.4841  0.2658
 1082SOL    HW1 5253   8.426   4.388   8.708  0.6799 -1.7175 -0.0615
 1082SOL    HW2 5254   8.382   4.473   8.591  0.7543  0.9650  1.7819
 1083SOL     OW 5255   3.165   9.108   9.854  0.2423  0.5086 -0.2110
 1083SOL    HW1 5256   3.171   9.176   9.787 -1.7125 -0.5411 -1.5745
 1083SOL    HW2 5257   3.073   9.112   9.883  0.4481 -0.6458  0.6516
 1084SOL     OW 5258   5.729  10.671  10.586  0.7653  0.5884  0.4493
 1084SOL    HW1 5259   5.754  10.649  10.497 -1.0921  1.4319 -0.3391
 1084SOL    HW2 5260   5.732  10.588  10.633 -0.3201 -0.2970 -0.9617
 1085SOL     OW 5261   4.273   8.046   8.556 -0.1283  0.1596 -0.5396
 1085SOL    HW1 5262   4.181   8.053   8.532 -0.4402  0.3213  0.6533
 1085SOL    HW2 5263   4.293   7.953   8.547 -0.5587  0.0416 -0.2921
 1086SOL     OW 5264   6.361   5.934   0.784  0.5085 -0.4353 -0.7586
 1086SOL    HW1 5265   6.410   5.906   0.861  1.5808  2.8691 -0.1061
 1086SOL    HW2 5266   6.280   5.971   0.818 -0.0828 -1.0854 -1.4308
 1087SOL     OW 5267   2.034   0.918   0.251 -0.2093  0.3284  0.1925
 1087SOL    HW1 5268   2.097   0.990   0.245 -0.7181  0.8209  0.5654
 1087SOL    HW2 5269   1.983   0.938   0.329 -0.3631 -0.4454  0.2995
 1088SOL     OW 5270   6.290   0.837   0.304  0.3210  0.0275 -0.2183
 1088SOL    HW1 5271   6.314   0.759   0.355  0.2057 -0.6383 -1.1569
 1088SOL    HW2 5272   6.367   0.855   0.250 -0.5226 -0.8965 -1.7599
 1089SOL     OW 5273   8.559   1.148   0.549 -0.5391 -0.4049 -0.0090
 1089SOL    HW1 5274   8.506   1.133   0.471 -0.8919 -2.1131  0.5183
 1089SOL    HW2 5275   8.599   1.063   0.568  1.7380  0.6056  0.1026
 1090SOL     OW 5276   1.013   9.723   8.466  0.0749  0.2160  0.1815
 1090SOL    HW1 5277   0.958   9.716   8.388  0.8112 -0.7839 -0.2601
 1090SOL    HW2 5278   0.951   9.724   8.539 -0.5339 -1.1344 -0.2982
 1091SOL     OW 5279   1.302   7.503   5.991 -0.5241 -0.2308 -0.2638
 1091SOL    HW1 5280   1.221   7.532   5.949 -0.7427 -0.6170 -0.1174
 1091SOL    HW2 5281   1.295   7.407   5.993 -0.1884 -0.2514 -0.0054
 1092SOL     OW 5282   7.783   5.046   9.522 -0.0197  0.2789  0.3160
 1092SOL    HW1 5283   7.878   5.062   9.516 -0.4087  2.8400 -0.4217
 1092SOL    HW2 5284   7.761   5.070   9.612  0.0065 -0.0741  0.4149
 1093SOL     OW 5285   7.594   2.566   3.967 -1.2494 -0.1386  0.1680
 1093SOL    HW1 5286   7.523   2.569   4.032 -0.0070  0.0651  1.5753
 1093SOL    HW2 5287   7.670   2.537   4.017 -0.4574 -0.9337 -1.4358
 1094SOL     OW 5288   0.108   1.271   5.108  0.0338 -0.6157  0.4733
 1094SOL    HW1 5289   0.192   1.229   5.088  0.1699  0.3314 -1.1977
 1094SOL    HW2 5290   0.060   1.267   5.025 -0.1422  1.9725  0.3767
 1095SOL     OW 5291   9.656   9.358   7.615  0.4057 -0.7525 -0.0560
 1095SOL    HW1 5292   9.671   9.431   7.676  0.6846  0.1359 -1.1603
 1095SOL    HW2 5293   9.666   9.280   7.669 -1.7657  0.0138  1.5835
 1096SOL     OW 5294  10.834   6.883   8.242 -0.3697 -0.8567  0.0666
 1096SOL    HW1 5295  10.890   6.913   8.170 -0.6204  0.3414  0.3583
 1096SOL    HW2 5296  10.800   6.798   8.212 -2.2133  0.5598 -2.2360
 1097SOL     OW 5297   8.639   7.790   6.271 -0.3246 -0.5041 -0.3400
 1097SOL    HW1 5298   8.603   7.777   6.183 -0.1522  0.4290 -0.5644
 1097SOL    HW2 5299   8.691   7.870   6.264  1.8575 -1.8172 -0.0381
 1098SOL     OW 5300   5.026   0.841   8.867 -0.5189 -0.2120 -0.3550
 1098SOL    HW1 5301   4.993   0.792   8.943 -0.4032  0.6923  0.2999
 1098SOL    HW2 5302   4.953   0.842   8.805 -1.0918  0.1699  0.3064
 1099SOL     OW 5303   0.808   4.624   6.204 -0.0250 -0.1578 -0.0623
 1099SOL    HW1 5304   0.812   4.552   6.142 -1.1357 -0.1417 -0.1653
 1099SOL    HW2 5305   0.795   4.702   6.150  1.3193  0.1638  0.0366
 1100SOL     OW 5306   9.797   3.422   5.970  0.3678 -0.0284  0.0054
 1100SOL    HW1 5307   9.790   3.326   5.969  0.7669 -0.1157  1.6462
 1100SOL    HW2 5308   9.740   3.448   6.043 -0.1159  1.0329 -0.7395
 1101SOL     OW 5309   6.356   3.122   8.983  0.1545  0.3086  0.7962
 1101SOL    HW1 5310   6.406   3.174   9.046  0.4457  1.0690 -0.0444
 1101SOL    HW2 5311   6.401   3.136   8.900  1.2051 -2.5458  0.7874
 1102SOL     OW 5312   2.238   2.591  10.264 -0.4083  0.2155 -0.0109
 1102SOL    HW1 5313   2.143   2.584  10.266 -0.3300 -1.1153  1.0875
 1102SOL    HW2 5314   2.268   2.502  10.245  0.6255  0.8458 -1.5984
 1103SOL     OW 5315  10.832   3.400  11.040  0.0228 -0.0991  0.3333
 1103SOL    HW1 5316  10.745   3.441  11.039  0.0699  0.0049 -0.6192
 1103SOL    HW2 5317  10.824   3.328  11.103 -1.3499 -1.3043 -1.1117
 1104SOL     OW 5318   3.407   3.251  10.586 -0.4284 -0.3526  0.0442
 1104SOL    HW1 5319   3.408   3.191  10.661 -0.7081 -1.1319 -0.5522
 1104SOL    HW2 5320   3.315   3.252  10.557 -0.0661 -1.3301 -1.2469
 1105SOL     OW 5321   1.723   3.869   0.336 -0.0083  0.0621  0.1096
 1105SOL    HW1 5322   1.759   3.870   0.247  0.3964  2.1561  0.2457
 1105SOL    HW2 5323   1.795   3.839   0.391  0.0789 -0.1746 -0.1284
 1106SOL     OW 5324   4.253  10.116   6.369 -0.2838 -0.4037 -0.1042
 1106SOL    HW1 5325   4.334  10.097   6.322  1.4659  0.6268  2.2676
 1106SOL    HW2 5326   4.224  10.200   6.334 -0.8165 -1.1502 -1.5203
 1107SOL     OW 5327   0.488   5.335   5.770 -0.1565  0.7034  0.4105
 1107SOL    HW1 5328   0.433   5.270   5.726 -0.0530  0.1263  1.1249
 1107SOL    HW2 5329   0.431   5.374   5.836  0.1983  0.3223  0.9450
 1108SOL     OW 5330   0.477   1.660   4.477  0.4047  0.1182 -0.4083
 1108SOL    HW1 5331   0.566   1.641   4.509 -0.2640  0.9844  2.2326
 1108SOL    HW2 5332   0.420   1.632   4.548 -1.4073  0.4544 -1.6734
 1109SOL     OW 5333   9.884   2.949   6.977  0.2518 -0.5959 -0.1725
 1109SOL    HW1 5334   9.873   2.941   7.071  1.4112 -2.1133 -0.1235
 1109SOL    HW2 5335   9.967   2.995   6.966  0.4679 -1.0360 -0.4376
 1110SOL     OW 5336   1.927   5.234   9.149 -0.1468 -0.2111 -0.1704
 1110SOL    HW1 5337   1.895   5.321   9.173 -0.4210 -0.2531 -0.3777
 1110SOL    HW2 5338   1.943   5.190   9.232 -4.1983 -1.5393  0.0791
 1111SOL     OW 5339   0.694   9.029   5.500  0.9680 -0.0559 -0.2179
 1111SOL    HW1 5340   0.759   9.088   5.539  2.0101 -1.2636 -0.0510
 1111SOL    HW2 5341   0.624   9.086   5.470  1.7818  1.2248  0.2592
 1112SOL     OW 5342   1.914  10.264   9.572  0.3806 -0.8884 -0.1105
 1112SOL    HW1 5343   1.895  10.282   9.664 -0.0748  0.8462 -0.5095
 1112SOL    HW2 5344   1.927  10.350   9.533  3.7884 -1.6515 -1.0418
 1113SOL     OW 5345   7.209   7.036   4.683 -0.4533 -0.1027  0.2746
 1113SOL    HW1 5346   7.135   7.081   4.641  0.7590 -0.4294 -2.4323
 1113SOL    HW2 5347   7.277   7.034   4.615  1.7743 -0.5428  2.3864
 1114SOL     OW 5348  10.514   8.829  10.004 -0.3854  0.9694  0.8718
 1114SOL    HW1 5349  10.538   8.737  10.006 -0.5803  0.8918 -0.0273
 1114SOL    HW2 5350  10.419   8.829  10.001 -0.3725  1.1935  0.4629
 1115SOL     OW 5351   0.582   6.333   8.753  0.1693  0.2629 -0.9348
 1115SOL    HW1 5352   0.578   6.240   8.777  2.9513  0.0743 -0.8555
 1115SOL    HW2 5353   0.607   6.377   8.834 -0.1110  0.9522 -1.2167
 1116SOL     OW 5354   3.910   3.963   1.531  0.4415  0.6928  0.0366
 1116SOL    HW1 5355   3.964   4.012   1.593  0.3051  1.9331 -0.7970
 1116SOL    HW2 5356   3.897   3.878   1.573  2.6741  0.5006  0.4781
 1117SOL     OW 5357   3.186   6.442   7.219 -0.2076  0.3655 -0.0137
 1117SOL    HW1 5358   3.138   6.359   7.225 -0.1178  0.2692 -0.6083
 1117SOL    HW2 5359   3.253   6.426   7.153  0.0329  0.8069  0.1181
 1118SOL     OW 5360   6.992  10.097   4.540 -0.3906  0.8500 -0.1018
 1118SOL    HW1 5361   6.935  10.173   4.545 -1.6331 -0.0870  0.3142
 1118SOL    HW2 5362   6.936  10.026   4.509  0.4192 -0.2059  0.7692
 1119SOL     OW 5363   6.323   1.628   5.984  0.3175 -0.4607 -0.6803
 1119SOL    HW1 5364   6.408   1.609   5.945  0.0199  0.2225 -1.7184
 1119SOL    HW2 5365   6.309   1.721   5.967  0.0464 -0.1837  0.8668
 1120SOL     OW 5366   5.991  10.690   0.838 -0.2755  0.3085 -1.0044
 1120SOL    HW1 5367   5.936  10.721   0.765  0.6247  1.7780 -1.0981
 1120SOL    HW2 5368   5.931  10.640   0.893 -1.4441  0.8695 -1.7169
 1121SOL     OW 5369   9.646   1.720   1.051 -0.0793  0.4546  0.4867
 1121SOL    HW1 5370   9.593   1.646   1.022  1.8533 -1.1915  0.9171
 1121SOL    HW2 5371   9.643   1.782   0.979 -1.5379 -0.1500 -0.0038
 1122SOL     OW 5372  11.017   0.538   2.800 -0.5063  0.0352 -0.0622
 1122SOL    HW1 5373  11.001   0.576   2.714  1.3195 -1.0663 -0.9312
 1122SOL    HW2 5374  10.931   0.503   2.826 -1.0889  0.3446 -1.4494
 1123SOL     OW 5375   3.465   0.796   9.613  0.1060 -0.3265  0.5108
 1123SOL    HW1 5376   3.384   0.758   9.580  0.0417  0.3992 -0.1830
 1123SOL    HW2 5377   3.439   0.839   9.695  0.0608 -1.2152  0.9777
 1124SOL     OW 5378   1.245   4.390   0.308  0.1438  0.0381 -0.2489
 1124SOL    HW1 5379   1.215   4.397   0.217 -0.6305  0.9962  0.0677
 1124SOL    HW2 5380   1.252   4.480   0.339 -1.8836 -0.2764  1.3479
 1125SOL     OW 5381   9.712  10.173   0.101  0.3992 -0.3602 -0.1912
 1125SOL    HW1 5382   9.802  10.200   0.114  0.2896 -0.8876  2.0883
 1125SOL    HW2 5383   9.715  10.077   0.103 -0.3205 -0.3837  1.1625
 1126SOL     OW 5384   8.737   4.597   8.207 -0.2000 -0.6023 -0.5853
 1126SOL    HW1 5385   8.798   4.636   8.144  0.6494  0.7057  0.9791
 1126SOL    HW2 5386   8.658   4.649   8.198  0.6066  0.9347  0.8133
 1127SOL     OW 5387   2.089  10.525  10.112  0.1350 -0.1799 -0.2751
 1127SOL    HW1 5388   2.117  10.514  10.203 -0.3970 -0.8503 -0.1840
 1127SOL    HW2 5389   2.131  10.607  10.084  2.5068 -1.2976 -0.2859
 1128SOL     OW 5390   2.107   4.137   9.379 -0.1830  0.9685 -0.6380
 1128SOL    HW1 5391   2.167   4.127   9.453  0.4339 -0.1978 -1.2643
 1128SOL    HW2 5392   2.064   4.221   9.394 -1.7246 -0.2126  2.2116
 1129SOL     OW 5393   1.725   8.177   2.999 -0.6407  0.5539  0.8234
 1129SOL    HW1 5394   1.637   8.147   2.978 -0.5983  0.4291  0.8183
 1129SOL    HW2 5395   1.758   8.216   2.918  0.3177 -1.8447 -0.0327
 1130SOL     OW 5396   9.578  10.499   8.070  0.1567  0.7297 -0.0430
 1130SOL    HW1 5397   9.580  10.480   7.976 -1.9262  0.9756 -0.1779
 1130SOL    HW2 5398   9.536  10.585   8.076  0.0309  0.5995  1.1254
 1131SOL     OW 5399   4.744   2.561   5.650  0.5127 -0.9977 -0.1937
 1131SOL    HW1 5400   4.750   2.466   5.649 -1.0033 -1.1207 -0.6776
 1131SOL    HW2 5401   4.704   2.583   5.565  1.6882  0.1510 -0.4902
 1132SOL     OW 5402   9.526   2.509   9.978 -0.0259 -0.2018 -0.1411
 1132SOL    HW1 5403   9.435   2.521  10.005  0.2411 -1.5734  1.5564
 1132SOL    HW2 5404   9.538   2.414   9.978  1.3878 -0.0428 -0.4048
 1133SOL     OW 5405   7.766   8.106   5.074  0.6784 -0.5907  0.0816
 1133SOL    HW1 5406   7.851   8.063   5.060  1.5446  1.4391 -1.4675
 1133SOL    HW2 5407   7.789   8.196   5.097 -1.0713 -0.0529 -0.1678
 1134SOL     OW 5408   4.188   6.584   0.149 -0.1232 -0.3656  0.2918
 1134SOL    HW1 5409   4.094   6.571   0.161 -0.6003  2.4579  0.3780
 1134SOL    HW2 5410   4.221   6.600   0.238  0.9472 -3.4758  0.5779
 1135SOL     OW 5411   8.288   4.878   6.092 -0.2470  0.1882  0.0753
 1135SOL    HW1 5412   8.265   4.951   6.149 -0.8014 -0.2125  0.3783
 1135SOL    HW2 5413   8.216   4.873   6.029 -0.7458 -0.7435  0.6983
 1136SOL     OW 5414  10.061   9.639   9.678  0.4304 -0.3109  0.6881
 1136SOL    HW1 5415  10.074   9.578   9.750  0.4850 -0.7656  0.3005
 1136SOL    HW2 5416   9.985   9.691   9.703 -1.3014 -2.3140 -0.1305
 1137SOL     OW 5417   9.864  10.026   5.851 -0.0981  0.0644  0.1564
 1137SOL    HW1 5418   9.837   9.947   5.803 -1.0312 -0.5373  1.5887
 1137SOL    HW2 5419   9.851  10.098   5.789  0.7951 -0.8932 -1.1885
 1138SOL     OW 5420   6.197   2.188   0.280 -0.0944 -0.0734 -0.2356
 1138SOL    HW1 5421   6.254   2.259   0.308 -2.3077  0.7922  2.4852
 1138SOL    HW2 5422   6.180   2.137   0.359 -3.1836 -0.1548 -0.7910
 1139SOL     OW 5423  10.503   9.383   7.579  0.1136 -0.1227  0.0735
 1139SOL    HW1 5424  10.560   9.340   7.643  0.0720 -0.9974 -0.4706
 1139SOL    HW2 5425  10.551   9.463   7.554  2.3467 -1.9964 -2.1818
 1140SOL     OW 5426   2.458   3.708   3.623 -0.7806  0.7789  0.3070
 1140SOL    HW1 5427   2.471   3.767   3.699  0.4201  0.6239  0.2539
 1140SOL    HW2 5428   2.536   3.723   3.570 -1.6785  0.9769 -0.9833
 1141SOL     OW 5429   0.971   1.556   5.096 -0.3658  0.1238  0.3315
 1141SOL    HW1 5430   0.939   1.491   5.034  1.8858  0.1957 -0.9884
 1141SOL    HW2 5431   0.911   1.630   5.085 -0.8781 -0.4215 -0.7001
 1142SOL     OW 5432   6.672   7.567   1.290  0.8424 -0.4369  0.6612
 1142SOL    HW1 5433   6.604   7.499   1.298  0.0298  0.0440 -1.4793
 1142SOL    HW2 5434   6.734   7.531   1.226  0.8140  0.4950  0.0971
 1143SOL     OW 5435   8.281   3.681   3.376 -0.2025  0.0126 -0.0704
 1143SOL    HW1 5436   8.226   3.759   3.372  0.6736  0.8013  1.8840
 1143SOL    HW2 5437   8.346   3.701   3.443 -0.1564 -2.5413  0.7464
 1144SOL     OW 5438   7.814   4.629   7.678  0.3484 -0.1167 -0.1424
 1144SOL    HW1 5439   7.769   4.645   7.761  0.5184  0.6596 -0.1868
 1144SOL    HW2 5440   7.895   4.585   7.702 -0.2837 -1.2551 -0.0364
 1145SOL     OW 5441   1.629   4.672   2.190 -0.3137  0.1277  0.0995
 1145SOL    HW1 5442   1.664   4.584   2.203  2.0725  0.9920  0.0248
 1145SOL    HW2 5443   1.667   4.724   2.261 -2.0703  1.0251  0.4307
 1146SOL     OW 5444   8.764   9.384   5.673 -0.2100  0.4969  0.1419
 1146SOL    HW1 5445   8.671   9.393   5.691 -0.0496  1.8549  0.3899
 1146SOL    HW2 5446   8.789   9.466   5.631  1.0008  0.4253  0.6750
 1147SOL     OW 5447   7.321   0.633   0.720  0.9337 -0.5130 -0.1895
 1147SOL    HW1 5448   7.287   0.578   0.650 -0.3823 -1.4714  1.1364
 1147SOL    HW2 5449   7.405   0.594   0.742  1.5763  0.0762 -1.5114
 1148SOL     OW 5450   9.497   9.445   6.025  0.3749  0.2319 -0.1599
 1148SOL    HW1 5451   9.521   9.536   6.008 -0.2188  0.1175 -1.8769
 1148SOL    HW2 5452   9.404   9.447   6.045  0.6828  0.1404  1.4234
 1149SOL     OW 5453   7.917   5.768   0.152  0.1532 -0.1008 -0.3114
 1149SOL    HW1 5454   7.921   5.849   0.100  1.2544 -0.2192 -0.4263
 1149SOL    HW2 5455   7.918   5.798   0.243 -0.4350  0.0437 -0.3429
 1150SOL     OW 5456   6.497  10.365  10.208  0.0738 -0.3623 -0.2079
 1150SOL    HW1 5457   6.549  10.428  10.259 -0.8419  0.1339  0.1402
 1150SOL    HW2 5458   6.471  10.298  10.271  1.6443 -1.5230 -0.7220
 1151SOL     OW 5459  10.319   1.387   8.250 -0.2819  0.0395 -0.3478
 1151SOL    HW1 5460  10.337   1.293   8.258 -0.3955  0.0243 -0.2662
 1151SOL    HW2 5461  10.314   1.418   8.340 -2.1425 -0.2443 -0.3083
 1152SOL     OW 5462   9.876  10.573   0.699 -0.8032 -0.4917  0.3489
 1152SOL    HW1 5463   9.945  10.639   0.698 -0.0231 -1.1839  2.8232
 1152SOL    HW2 5464   9.838  10.577   0.611 -0.2679  2.6583  0.1529
 1153SOL     OW 5465   0.118   8.996   5.327  0.4879  0.7575 -0.6550
 1153SOL    HW1 5466   0.100   8.916   5.376  1.8225  0.1080 -1.1839
 1153SOL    HW2 5467   0.033   9.041   5.324 -0.3349 -0.7086 -0.5004
 1154SOL     OW 5468   9.799   9.351  11.045  0.3487 -0.0795 -0.0499
 1154SOL    HW1 5469   9.887   9.338  11.081  0.5104  0.7035 -0.1425
 1154SOL    HW2 5470   9.760   9.264  11.045  0.8953 -0.3357  0.5963
 1155SOL     OW 5471   9.100   9.419   5.922  0.1922 -0.0900 -0.4137
 1155SOL    HW1 5472   9.176   9.372   5.886  1.3523  1.3774  0.0446
 1155SOL    HW2 5473   9.117   9.511   5.904 -0.3754  0.4839  1.6932
 1156SOL     OW 5474   4.954   6.931   3.835 -0.6138  0.2966  0.1449
 1156SOL    HW1 5475   4.923   7.002   3.892 -2.0953 -0.6162  0.5471
 1156SOL    HW2 5476   4.960   6.855   3.893 -0.5700 -0.2714 -0.5881
 1157SOL     OW 5477   6.738  10.877   2.906 -0.3293  0.5265 -0.1581
 1157SOL    HW1 5478   6.690  10.917   2.834 -1.0234 -0.2115 -0.1253
 1157SOL    HW2 5479   6.784  10.803   2.866 -0.1160  0.5631  0.0190
 1158SOL     OW 5480   3.437   3.579   0.335  0.3083 -0.4232  0.6374
 1158SOL    HW1 5481   3.397   3.665   0.322  1.6845  0.3558  1.2601
 1158SOL    HW2 5482   3.411   3.529   0.258  2.7154  1.8667 -1.9066
 1159SOL     OW 5483  10.709   9.789   0.280 -0.1688 -0.3385 -0.1280
 1159SOL    HW1 5484  10.644   9.768   0.213 -2.4024  0.4790  1.6844
 1159SOL    HW2 5485  10.742   9.875   0.256 -0.0085 -0.5856 -0.8331
 1160SOL     OW 5486   0.396   1.691   8.249  0.7633 -0.4454  0.3560
 1160SOL    HW1 5487   0.331   1.712   8.317  1.0411  0.4285  0.3698
 1160SOL    HW2 5488   0.346   1.685   8.168  0.6565  0.2121  0.3700
 1161SOL     OW 5489  10.388   1.909  10.362  0.1335 -0.0265  0.5360
 1161SOL    HW1 5490  10.416   1.900  10.271 -0.1147 -0.4012  0.4957
 1161SOL    HW2 5491  10.381   2.004  10.376  0.1529  0.0301  0.1619
 1162SOL     OW 5492   5.962   0.669   2.036 -0.0561  0.1737 -0.2513
 1162SOL    HW1 5493   5.914   0.615   2.099 -1.1426  0.8211 -0.5044
 1162SOL    HW2 5494   5.964   0.756   2.076  0.1339  0.3544 -0.6561
 1163SOL     OW 5495   3.375   6.985   9.144 -0.4917 -0.0771  0.0420
 1163SOL    HW1 5496   3.324   6.993   9.224 -0.2345  1.4445  0.0852
 1163SOL    HW2 5497   3.460   7.023   9.165 -0.2662 -0.0792 -0.8146
 1164SOL     OW 5498   7.246   2.472  11.038  0.5689  0.4163 -0.0020
 1164SOL    HW1 5499   7.241   2.390  11.086  1.8924 -0.4402 -1.2457
 1164SOL    HW2 5500   7.317   2.520  11.080  0.2102  0.6533  0.3323
 1165SOL     OW 5501   9.793   9.262   9.840 -0.2013  0.2669  0.5620
 1165SOL    HW1 5502   9.697   9.269   9.848 -0.2251 -0.8048  1.4106
 1165SOL    HW2 5503   9.807   9.182   9.790  0.2719  0.2912  0.6524
 1166SOL     OW 5504   5.295   2.059   1.501  0.1509 -0.0111  0.8878
 1166SOL    HW1 5505   5.329   1.982   1.546 -1.0844 -0.7913  0.5409
 1166SOL    HW2 5506   5.286   2.032   1.410 -0.4155  0.4923  0.7858
 1167SOL     OW 5507   8.302   8.613   7.207 -0.0513  0.1917  0.1980
 1167SOL    HW1 5508   8.357   8.559   7.150  0.8379  0.8825  0.3633
 1167SOL    HW2 5509   8.213   8.598   7.176  0.4393  0.8962 -1.7191
 1168SOL     OW 5510  11.050  10.529   1.922 -0.3949 -0.2809  0.4471
 1168SOL    HW1 5511  11.017  10.590   1.856  2.0245  0.5906 -0.0958
 1168SOL    HW2 5512  11.071  10.450   1.872 -0.5951 -0.4101  0.5695
 1169SOL     OW 5513   3.542   9.837   9.235 -0.1676 -0.4286  0.2925
 1169SOL    HW1 5514   3.517   9.793   9.317 -0.5709  1.2568  1.1151
 1169SOL    HW2 5515   3.460   9.875   9.202  0.3946  0.8797  0.3551
 1170SOL     OW 5516   3.237   2.676   8.240 -0.0788  0.1999  0.7373
 1170SOL    HW1 5517   3.308   2.739   8.252  1.9503 -1.7451 -0.4187
 1170SOL    HW2 5518   3.207   2.689   8.150  0.1416 -0.2706  0.5931
 1171SOL     OW 5519   5.651   8.093   0.668 -0.3138 -0.2807  0.1142
 1171SOL    HW1 5520   5.649   8.077   0.762 -2.5031  2.1982  0.5941
 1171SOL    HW2 5521   5.562   8.076   0.639  0.0423  0.1150 -1.3066
 1172SOL     OW 5522   4.031  10.172   9.526 -0.2828  0.3551 -0.1282
 1172SOL    HW1 5523   4.002  10.128   9.446 -2.4033 -1.1434  1.3517
 1172SOL    HW2 5524   4.003  10.263   9.514 -1.7671 -0.1291 -0.5869
 1173SOL     OW 5525   3.161   4.109   2.942  0.5064 -0.4689  0.2835
 1173SOL    HW1 5526   3.121   4.032   2.982 -1.9310  0.4563 -0.2152
 1173SOL    HW2 5527   3.160   4.175   3.011  0.9094 -0.3301  0.1606
 1174SOL     OW 5528   5.071   4.522   6.242  0.4300  0.2860 -0.2917
 1174SOL    HW1 5529   5.007   4.451   6.244  0.1789  0.5326  1.0791
 1174SOL    HW2 5530   5.131   4.498   6.171  0.4838 -1.4128  0.2833
 1175SOL     OW 5531   8.948   4.522   0.730  0.0554  0.3566  0.0028
 1175SOL    HW1 5532   8.940   4.524   0.826 -2.0565  1.8591 -0.1466
 1175SOL    HW2 5533   8.977   4.610   0.706 -0.7916  0.4248 -0.8130
 1176SOL     OW 5534   2.064   9.258   0.408  0.2418 -0.4920 -0.3859
 1176SOL    HW1 5535   2.032   9.185   0.461  1.1527 -0.4803  0.2023
 1176SOL    HW2 5536   2.082   9.218   0.322 -1.0796 -0.5412 -0.6647
 1177SOL     OW 5537   0.570   8.711   1.505  0.0390 -0.7374 -0.1235
 1177SOL    HW1 5538   0.505   8.641   1.502  0.8036 -1.4295 -2.5250
 1177SOL    HW2 5539   0.520   8.790   1.482 -0.1830 -1.0807 -0.8445
 1178SOL     OW 5540   1.555   0.702   4.161  0.2924 -0.3167 -0.5938
 1178SOL    HW1 5541   1.500   0.712   4.239  0.9879 -0.1144 -0.1198
 1178SOL    HW2 5542   1.541   0.782   4.111 -0.8402 -0.8257 -1.1379
 1179SOL     OW 5543   5.297   3.122  10.252  0.0270 -0.0176  0.7835
 1179SOL    HW1 5544   5.349   3.091  10.178  0.7211 -0.3867  1.4069
 1179SOL    HW2 5545   5.326   3.213  10.265 -0.7333  0.3404  0.0625
 1180SOL     OW 5546   9.351  10.766   1.297  0.3182  0.3257 -0.3844
 1180SOL    HW1 5547   9.260  10.741   1.286  0.4028  0.2044 -0.8087
 1180SOL    HW2 5548   9.384  10.709   1.366 -0.4451  1.6635  1.1583
 1181SOL     OW 5549   7.931   5.705   9.741  0.1199 -0.0747 -0.4246
 1181SOL    HW1 5550   7.991   5.730   9.811 -0.2152  1.4922 -0.6616
 1181SOL    HW2 5551   7.911   5.613   9.758  0.3452  0.1692  1.3058
 1182SOL     OW 5552   8.437   1.439   2.849 -0.1768  0.0246  0.2780
 1182SOL    HW1 5553   8.429   1.352   2.811 -0.4703 -0.0217  0.4421
 1182SOL    HW2 5554   8.502   1.430   2.918  0.2586  0.0792 -0.1158
 1183SOL     OW 5555   9.934  10.316   5.100 -0.8829 -0.0497 -0.1754
 1183SOL    HW1 5556   9.924  10.410   5.084 -0.2711 -0.2645 -1.9889
 1183SOL    HW2 5557   9.948  10.278   5.014  1.9425 -1.4186  0.7731
 1184SOL     OW 5558   2.960   9.796   3.271 -0.6679  0.1986 -0.0738
 1184SOL    HW1 5559   3.033   9.736   3.282 -0.7526  0.0170 -0.4797
 1184SOL    HW2 5560   2.984   9.849   3.195 -0.9101  0.2161 -0.1369
 1185SOL     OW 5561   6.857   0.431   0.311  0.1483  0.5317  0.1041
 1185SOL    HW1 5562   6.877   0.357   0.368  0.1040 -0.8648 -1.5925
 1185SOL    HW2 5563   6.925   0.495   0.329 -0.1759  0.3683  2.0728
 1186SOL     OW 5564   4.296   2.948   3.665 -0.3436 -0.3142 -0.1278
 1186SOL    HW1 5565   4.252   3.025   3.630  0.8913 -0.2231 -1.5911
 1186SOL    HW2 5566   4.225   2.893   3.699 -1.4847  0.3337 -1.3573
 1187SOL     OW 5567   0.449   4.795   7.635 -0.1161 -0.0116  0.2818
 1187SOL    HW1 5568   0.542   4.798   7.615  0.2265 -0.0914  1.7920
 1187SOL    HW2 5569   0.408   4.770   7.552  0.7829  3.8003 -1.5212
 1188SOL     OW 5570  10.203   2.072   3.418 -0.3469 -0.6700 -0.5658
 1188SOL    HW1 5571  10.192   2.032   3.332  0.9016  1.6046 -1.8954
 1188SOL    HW2 5572  10.160   2.157   3.411  1.4836  0.4018  0.3292
 1189SOL     OW 5573   1.700   6.376   8.970  0.0123 -0.1933 -0.0879
 1189SOL    HW1 5574   1.768   6.353   9.033  1.9588 -0.1088 -2.0374
 1189SOL    HW2 5575   1.667   6.292   8.938  0.2696 -0.2517 -0.2052
 1190SOL     OW 5576   3.046   7.524   8.948 -0.7115  0.0183  0.1426
 1190SOL    HW1 5577   3.107   7.470   8.997  0.5764  0.7673 -0.5572
 1190SOL    HW2 5578   2.963   7.516   8.994 -0.1681 -1.2885  0.9403
 1191SOL     OW 5579  10.973   8.606   4.232 -0.2197 -0.0554 -0.2055
 1191SOL    HW1 5580  10.947   8.681   4.179 -1.6259 -0.6196 -0.3716
 1191SOL    HW2 5581  11.016   8.547   4.171  0.3378  0.3337 -0.1997
 1192SOL     OW 5582   1.566   1.074   7.411  0.4187 -0.6526 -0.2310
 1192SOL    HW1 5583   1.554   1.090   7.318 -0.8398 -0.2963 -0.0321
 1192SOL    HW2 5584   1.631   1.138   7.439  1.5873 -1.4432 -1.0446
 1193SOL     OW 5585   8.650   1.701   7.518 -0.5092  0.2035  0.0749
 1193SOL    HW1 5586   8.660   1.630   7.454  0.0403 -2.4067  2.7841
 1193SOL    HW2 5587   8.556   1.704   7.536 -0.3737 -1.2897  1.2986
 1194SOL     OW 5588   1.132   1.531   4.746  0.8601  0.4564 -0.6443
 1194SOL    HW1 5589   1.043   1.496   4.742  1.7002 -1.6299 -2.3033
 1194SOL    HW2 5590   1.132   1.583   4.827 -1.7507  0.2924 -0.4251
 1195SOL     OW 5591   8.312   8.637   1.173  0.4150  0.0421  0.3925
 1195SOL    HW1 5592   8.307   8.542   1.162  1.1431  0.1408 -0.9919
 1195SOL    HW2 5593   8.222   8.667   1.161 -0.1438 -0.5957  2.5594
 1196SOL     OW 5594   7.806   2.078   7.134  0.1752 -0.3087  0.0802
 1196SOL    HW1 5595   7.724   2.095   7.181  0.0782 -0.3562 -0.0724
 1196SOL    HW2 5596   7.802   1.985   7.112 -0.2895 -0.0476 -1.0025
 1197SOL     OW 5597   9.173   9.566   0.133  0.0252  0.1599  0.0728
 1197SOL    HW1 5598   9.209   9.601   0.052  1.4466 -2.3454 -0.4622
 1197SOL    HW2 5599   9.207   9.624   0.201  2.7021 -0.3415 -0.7232
 1198SOL     OW 5600   1.733   2.206  10.856 -0.1158 -0.3579  0.0058
 1198SOL    HW1 5601   1.703   2.131  10.803  0.2529  0.0344 -0.7824
 1198SOL    HW2 5602   1.676   2.278  10.829  1.3379  0.3490 -1.3596
 1199SOL     OW 5603  11.030   0.176   1.192  0.0022  0.4987  0.4458
 1199SOL    HW1 5604  10.967   0.236   1.151  0.8760  0.3640 -1.1600
 1199SOL    HW2 5605  10.982   0.094   1.200 -0.0223  0.3601 -0.8936
 1200SOL     OW 5606   3.471   8.388   3.552  0.4088 -0.5519  0.5769
 1200SOL    HW1 5607   3.562   8.384   3.524 -0.1117 -1.4542 -1.1429
 1200SOL    HW2 5608   3.439   8.298   3.545 -0.7073 -0.1969  0.8071
 1201SOL     OW 5609   1.496   7.081   5.263 -0.0062 -0.0714  0.4847
 1201SOL    HW1 5610   1.409   7.078   5.223  0.0278 -0.1338  0.4161
 1201SOL    HW2 5611   1.536   6.997   5.241  0.6328  0.5316 -0.7433
 1202SOL     OW 5612   0.698   3.862   8.882 -0.0558  0.4325 -0.3979
 1202SOL    HW1 5613   0.634   3.866   8.954 -1.0734 -0.7627 -1.2053
 1202SOL    HW2 5614   0.781   3.889   8.923 -0.9901  1.7814  0.7414
 1203SOL     OW 5615   5.342   7.607   1.267 -0.7902 -0.1752  0.0265
 1203SOL    HW1 5616   5.329   7.567   1.353 -3.2830  1.2353  0.4165
 1203SOL    HW2 5617   5.348   7.701   1.285 -1.9238  0.2014 -1.3324
 1204SOL     OW 5618   8.742   0.024   7.504 -1.1150 -0.9200  0.3404
 1204SOL    HW1 5619   8.788   0.043   7.585  0.1723 -0.3088 -0.4970
 1204SOL    HW2 5620   8.649   0.039   7.525 -0.7044  0.3984  1.3773
 1205SOL     OW 5621   8.398   0.146   4.457  0.0561  0.5464  0.0922
 1205SOL    HW1 5622   8.355   0.063   4.437 -0.9489  1.2822 -0.9169
 1205SOL    HW2 5623   8.474   0.148   4.400 -0.0175  0.4039 -0.0109
 1206SOL     OW 5624   3.634   5.647  10.378  0.0552  0.1763 -0.7389
 1206SOL    HW1 5625   3.612   5.731  10.337  1.8440  1.9013  1.5559
 1206SOL    HW2 5626   3.551   5.614  10.412 -0.7947  0.5813 -2.2937
 1207SOL     OW 5627   0.480   9.127   6.842  0.1078 -0.1987 -0.1805
 1207SOL    HW1 5628   0.392   9.094   6.862 -0.7948  1.8604 -0.5589
 1207SOL    HW2 5629   0.476   9.149   6.749  0.6520  1.0199  0.0798
 1208SOL     OW 5630   7.829  10.314   3.530 -0.1234 -0.6371 -0.1565
 1208SOL    HW1 5631   7.840  10.379   3.600  0.0788  1.3587 -1.9389
 1208SOL    HW2 5632   7.918  10.283   3.513  0.2264  0.9346 -1.3509
 1209SOL     OW 5633   0.777  10.236   2.684  0.3360  0.3669  0.2855
 1209SOL    HW1 5634   0.799  10.212   2.594 -0.5628 -0.0934  0.1697
 1209SOL    HW2 5635   0.760  10.152   2.727 -1.8538  0.6975  0.1622
 1210SOL     OW 5636   6.043   5.196   8.956 -0.5833  0.0003  0.1413
 1210SOL    HW1 5637   6.042   5.101   8.944 -0.4616 -0.3038  2.2615
 1210SOL    HW2 5638   5.952   5.222   8.941 -0.8906 -0.6441  0.7987
 1211SOL     OW 5639   7.241   9.393   8.564 -0.5448 -0.7435 -0.0551
 1211SOL    HW1 5640   7.312   9.450   8.534  0.4247 -1.1890  1.2985
 1211SOL    HW2 5641   7.223   9.336   8.489 -0.1100 -0.0108 -0.7301
 1212SOL     OW 5642   6.391   5.229   1.050 -0.7894 -0.1197  0.2722
 1212SOL    HW1 5643   6.468   5.195   1.097 -1.4730 -0.6125  1.0506
 1212SOL    HW2 5644   6.339   5.272   1.117 -0.8510  0.8788 -0.3842
 1213SOL     OW 5645   0.965   1.692   2.380 -0.3488 -0.1066 -0.7510
 1213SOL    HW1 5646   0.995   1.618   2.328 -0.2105 -1.1434  0.7509
 1213SOL    HW2 5647   0.878   1.666   2.411  0.6808 -0.7982  1.8396
 1214SOL     OW 5648   8.705   9.235   5.358  0.1230 -0.0073 -0.3679
 1214SOL    HW1 5649   8.724   9.156   5.308 -2.2483 -0.8394 -0.1075
 1214SOL    HW2 5650   8.751   9.224   5.441 -0.7013 -1.4608 -0.0757
 1215SOL     OW 5651   4.976   4.504   0.719 -0.1012 -0.0782 -0.0794
 1215SOL    HW1 5652   5.024   4.580   0.753 -0.3316  0.2184 -0.4135
 1215SOL    HW2 5653   4.923   4.474   0.793 -1.3703  1.1838 -0.4369
 1216SOL     OW 5654   3.018   9.325   3.939  0.4475 -0.0020  0.2048
 1216SOL    HW1 5655   3.107   9.349   3.914  0.4442  1.9146  1.7856
 1216SOL    HW2 5656   2.977   9.407   3.965 -1.7719 -0.8516 -0.3531
 1217SOL     OW 5657  10.226  10.740   9.021 -0.1246  0.4645  0.2204
 1217SOL    HW1 5658  10.266  10.823   9.046  1.9890  0.1176 -1.6313
 1217SOL    HW2 5659  10.260  10.723   8.933  0.3359 -2.8179  0.9112
 1218SOL     OW 5660   9.146   2.835  10.773 -0.0030 -0.2453 -0.4353
 1218SOL    HW1 5661   9.231   2.817  10.812  0.2577  0.4393 -0.6771
 1218SOL    HW2 5662   9.106   2.900  10.831  0.6451  1.2543 -1.6253
 1219SOL     OW 5663  10.747   7.230  10.236  0.0887 -0.1668 -0.2022
 1219SOL    HW1 5664  10.664   7.197  10.271  0.6363 -0.0655  1.2307
 1219SOL    HW2 5665  10.811   7.161  10.257  0.7223  0.5840  0.3954
 1220SOL     OW 5666   1.163   0.078   8.860 -0.0898  0.1756  0.5738
 1220SOL    HW1 5667   1.224   0.149   8.840  0.8425 -0.5133  0.8952
 1220SOL    HW2 5668   1.183   0.009   8.797  1.8123 -1.3907  2.7278
 1221SOL     OW 5669  10.569   2.596   2.293  0.3049  0.2996  0.0272
 1221SOL    HW1 5670  10.656   2.556   2.286 -0.5773 -1.6025 -0.9148
 1221SOL    HW2 5671  10.574   2.673   2.236  0.9446 -0.6437 -1.2464
 1222SOL     OW 5672   9.572   3.040   9.641  0.2697 -0.1267 -0.7604
 1222SOL    HW1 5673   9.480   3.020   9.624 -0.3917  0.4257  1.7742
 1222SOL    HW2 5674   9.608   2.959   9.678 -0.1996  0.6554  1.5763
 1223SOL     OW 5675   7.467   5.492   0.324 -0.0276  0.5241  0.5398
 1223SOL    HW1 5676   7.425   5.407   0.314 -0.1645  0.7264 -0.8120
 1223SOL    HW2 5677   7.424   5.532   0.399 -0.2063 -0.4476  0.9696
 1224SOL     OW 5678   6.393  10.367  10.668 -0.1480  0.0733  0.3383
 1224SOL    HW1 5679   6.390  10.389  10.761  2.2146  0.5650  0.3766
 1224SOL    HW2 5680   6.370  10.274  10.665 -0.1318  0.0181  1.4379
 1225SOL     OW 5681   0.889   1.433   0.093 -0.7307  0.2077 -0.8496
 1225SOL    HW1 5682   0.930   1.445   0.179  1.9978 -1.5216 -1.7777
 1225SOL    HW2 5683   0.860   1.342   0.093  0.2323 -0.1211 -2.0783
 1226SOL     OW 5684   2.272   4.828   1.733 -0.0278 -0.2532  0.2937
 1226SOL    HW1 5685   2.282   4.916   1.767 -1.2047  0.0833 -0.1658
 1226SOL    HW2 5686   2.323   4.773   1.792  2.8515  0.9933 -0.8463
 1227SOL     OW 5687   5.229   1.790   8.481 -0.2723  0.5270  0.0353
 1227SOL    HW1 5688   5.285   1.768   8.407  0.3479 -0.5343  0.7757
 1227SOL    HW2 5689   5.143   1.755   8.458 -1.1375  3.5249 -1.7891
 1228SOL     OW 5690   3.790   8.261   1.266  0.5063  0.0912  0.3037
 1228SOL    HW1 5691   3.759   8.270   1.357 -1.5348 -1.0005 -0.2236
 1228SOL    HW2 5692   3.748   8.181   1.234  0.8498  0.6712 -1.7350
 1229SOL     OW 5693   8.449   8.272   9.515 -1.0393 -0.0040  0.5016
 1229SOL    HW1 5694   8.502   8.328   9.459  1.2343 -2.1087  0.3568
 1229SOL    HW2 5695   8.403   8.214   9.454 -0.9544 -0.3017  0.7186
 1230SOL     OW 5696   7.069   2.235   7.445  0.1291 -0.1943 -0.1619
 1230SOL    HW1 5697   7.028   2.298   7.505  0.6612 -0.8942  0.9745
 1230SOL    HW2 5698   7.163   2.242   7.464  0.1428 -1.7887  0.4618
 1231SOL     OW 5699   1.835   6.002   0.433 -0.3439 -0.0616 -0.2222
 1231SOL    HW1 5700   1.833   5.988   0.528  1.9721  0.2790 -0.0662
 1231SOL    HW2 5701   1.760   5.952   0.400 -0.4797 -1.2188  1.6672
 1232SOL     OW 5702  10.366   3.105   5.325 -0.0112 -0.2467  0.6424
 1232SOL    HW1 5703  10.402   3.017   5.313 -0.4655 -0.3248 -0.2040
 1232SOL    HW2 5704  10.273   3.091   5.338 -0.2352  0.1657 -0.4432
 1233SOL     OW 5705   8.366   9.524   7.576 -0.3219  0.0055 -0.2451
 1233SOL    HW1 5706   8.380   9.556   7.486 -0.7473 -0.7828 -0.6013
 1233SOL    HW2 5707   8.333   9.600   7.623 -1.6942  0.0378 -1.1772
 1234SOL     OW 5708  10.354   2.446   2.342  0.1507 -0.0593 -0.1642
 1234SOL    HW1 5709  10.432   2.499   2.324 -0.8302  0.9236 -1.7719
 1234SOL    HW2 5710  10.280   2.503   2.318 -0.9731 -1.8265 -1.1609
 1235SOL     OW 5711   5.103   0.264  10.966  0.2389  0.0162  0.1506
 1235SOL    HW1 5712   5.012   0.242  10.948  0.7792 -1.7878 -0.6763
 1235SOL    HW2 5713   5.132   0.314  10.889 -0.1937  1.1318  0.6934
 1236SOL     OW 5714   7.610   1.400   9.083 -0.0455 -0.0647  0.3525
 1236SOL    HW1 5715   7.526   1.382   9.124 -0.7654 -0.4409 -1.2237
 1236SOL    HW2 5716   7.588   1.438   8.998  1.3905  0.5241  0.2118
 1237SOL     OW 5717   1.252   0.855   0.212 -0.5730 -0.1558  0.5806
 1237SOL    HW1 5718   1.184   0.921   0.208  0.3729  0.7710 -2.5924
 1237SOL    HW2 5719   1.303   0.877   0.290  0.8402  4.1722 -1.2863
 1238SOL     OW 5720   9.661   2.360   9.112  0.1505  0.0599 -0.7809
 1238SOL    HW1 5721   9.622   2.278   9.081  0.8014 -1.7388  2.6721
 1238SOL    HW2 5722   9.586   2.414   9.136 -0.2757 -0.1892 -1.5161
 1239SOL     OW 5723   0.110   2.488   5.886 -0.2185 -0.1046  0.0982
 1239SOL    HW1 5724   0.112   2.452   5.797  0.4561  1.1086 -0.3912
 1239SOL    HW2 5725   0.020   2.473   5.915 -0.6072 -0.0119 -0.9959
 1240SOL     OW 5726   7.520   3.153   0.303 -0.2736 -0.4009 -0.2596
 1240SOL    HW1 5727   7.476   3.157   0.387  1.3215 -0.8680  0.6547
 1240SOL    HW2 5728   7.607   3.190   0.320 -0.2390  0.3725 -1.9375
 1241SOL     OW 5729   6.056   1.494   9.001  0.1212 -0.0943  0.0200
 1241SOL    HW1 5730   6.094   1.421   8.953 -1.9077 -1.1810 -0.0624
 1241SOL    HW2 5731   5.977   1.458   9.041 -0.3773  1.7981  0.8727
 1242SOL     OW 5732   5.030   1.857   3.643 -0.5738  0.2346  0.3643
 1242SOL    HW1 5733   5.043   1.800   3.568  1.2923  2.6471 -1.3053
 1242SOL    HW2 5734   5.112   1.850   3.693 -0.2256  1.5006  0.0190
 1243SOL     OW 5735   8.923   1.936   7.741 -0.0243  0.7338 -0.6347
 1243SOL    HW1 5736   8.933   1.883   7.661 -0.6332 -0.9229  0.3366
 1243SOL    HW2 5737   8.828   1.939   7.755  0.0616  1.3174 -0.1520
 1244SOL     OW 5738   0.951  10.852   8.305  0.7387  0.2392 -0.3264
 1244SOL    HW1 5739   0.993  10.881   8.224  1.5146 -1.5223 -0.6068
 1244SOL    HW2 5740   0.989  10.765   8.322  0.1927  0.3286  1.6312
 1245SOL     OW 5741   1.072   6.584  10.270  0.4683 -0.5024  0.2312
 1245SOL    HW1 5742   1.003   6.604  10.207  0.8965 -0.0830 -0.1116
 1245SOL    HW2 5743   1.066   6.654  10.336  0.8986 -0.1647 -0.0809
 1246SOL     OW 5744   3.799   6.953  10.780  0.4071 -0.4788  0.7189
 1246SOL    HW1 5745   3.705   6.957  10.762  0.5423 -1.6142 -0.3041
 1246SOL    HW2 5746   3.804   6.917  10.869 -0.1209  0.1221  1.0080
 1247SOL     OW 5747   9.603   0.737   8.597 -1.0719 -0.0780 -0.7690
 1247SOL    HW1 5748   9.669   0.674   8.566 -1.1092  0.0170 -1.0494
 1247SOL    HW2 5749   9.633   0.821   8.562  0.1793  0.4611  1.4179
 1248SOL     OW 5750   8.093   1.837  10.870 -0.8100  0.2117 -0.4246
 1248SOL    HW1 5751   8.096   1.801  10.781 -1.8918 -0.4188 -0.2273
 1248SOL    HW2 5752   8.094   1.932  10.858  0.5006  0.1465 -1.0316
 1249SOL     OW 5753  10.465   1.505   7.031  0.2403 -0.6979 -0.0047
 1249SOL    HW1 5754  10.514   1.559   7.094 -0.0383 -0.2376 -0.1731
 1249SOL    HW2 5755  10.529   1.482   6.964  0.6541 -1.5755  0.6742
 1250SOL     OW 5756   5.460   7.244   9.357 -0.1625  0.8053  0.2166
 1250SOL    HW1 5757   5.475   7.158   9.396  0.0476  1.4997  1.7482
 1250SOL    HW2 5758   5.369   7.241   9.326 -0.3968  0.2564  0.9239
 1251SOL     OW 5759  10.927   5.665   2.122  0.1814 -0.4458 -0.5897
 1251SOL    HW1 5760  10.984   5.687   2.048 -0.0050  0.1629 -0.5574
 1251SOL    HW2 5761  10.868   5.740   2.129  0.7223 -0.1127  0.6944
 1252SOL     OW 5762   4.642   6.077  11.076  0.0129 -0.3677  0.1380
 1252SOL    HW1 5763   4.667   6.161  11.036 -1.2215 -0.6238 -1.2405
 1252SOL    HW2 5764   4.556   6.058  11.040  1.4680 -3.7328 -2.0663
 1253SOL     OW 5765   9.862   3.187   1.641  0.0867  0.0622 -0.1452
 1253SOL    HW1 5766   9.944   3.233   1.658  0.1300  0.2807 -0.8950
 1253SOL    HW2 5767   9.872   3.102   1.683  1.2181 -0.4061 -1.2993
 1254SOL     OW 5768   7.058   9.384   3.901 -0.4570 -0.2520 -0.2092
 1254SOL    HW1 5769   7.091   9.429   3.823 -2.4668  0.9618 -0.4173
 1254SOL    HW2 5770   7.068   9.291   3.880  0.1447  0.0533 -1.3944
 1255SOL     OW 5771   2.177   9.672  10.758  0.4644  0.0771 -0.0687
 1255SOL    HW1 5772   2.190   9.578  10.772  0.7586  0.0680 -0.3597
 1255SOL    HW2 5773   2.210   9.714  10.837 -1.0263 -0.1352  0.6923
 1256SOL     OW 5774   9.738   3.982   1.313  0.3734  0.1135  0.0077
 1256SOL    HW1 5775   9.687   4.056   1.347  0.9147  0.8408 -0.7084
 1256SOL    HW2 5776   9.683   3.946   1.243  0.4728  0.3955 -0.2227
 1257SOL     OW 5777   0.882   8.217   4.606 -0.0403  0.5562  0.4952
 1257SOL    HW1 5778   0.802   8.165   4.610 -0.5561  1.3298  0.5077
 1257SOL    HW2 5779   0.940   8.177   4.670 -0.1413 -0.4547 -0.0252
 1258SOL     OW 5780   7.564  10.590   0.623 -0.2526  0.1145 -0.0737
 1258SOL    HW1 5781   7.536  10.670   0.578  0.0449  1.0140  1.2964
 1258SOL    HW2 5782   7.489  10.567   0.679 -0.3848 -0.6514 -0.5481
 1259SOL     OW 5783   4.425  10.196   5.665 -0.6267 -0.0876  0.0585
 1259SOL    HW1 5784   4.341  10.236   5.641  0.2121  1.0223 -1.1576
 1259SOL    HW2 5785   4.490  10.264   5.648  0.6826 -1.3933 -0.3617
 1260SOL     OW 5786   2.226   2.517   1.047 -0.4778  0.5973  0.2593
 1260SOL    HW1 5787   2.227   2.421   1.040  0.2659  0.6320 -0.2012
 1260SOL    HW2 5788   2.230   2.547   0.956  1.1349  1.0690  0.4628
 1261SOL     OW 5789   7.893   1.416  10.414 -0.3554  0.5844 -0.3881
 1261SOL    HW1 5790   7.938   1.440  10.334 -1.0631 -0.5935 -1.1751
 1261SOL    HW2 5791   7.820   1.478  10.421 -0.8253  0.1337 -1.1571
 1262SOL     OW 5792   2.720   9.886   8.532  0.2376  0.2648 -0.4263
 1262SOL    HW1 5793   2.774   9.951   8.487  2.8833 -1.1835  0.4677
 1262SOL    HW2 5794   2.631   9.918   8.521  1.2491  2.9496 -1.7472
 1263SOL     OW 5795   1.830   0.339  10.278  0.3800  0.1946 -0.3410
 1263SOL    HW1 5796   1.823   0.399  10.204  1.3832 -0.5539 -1.0850
 1263SOL    HW2 5797   1.740   0.332  10.312 -0.2748 -0.0834 -2.0196
 1264SOL     OW 5798   7.497   6.283   1.298  0.3600 -0.2610  0.1148
 1264SOL    HW1 5799   7.537   6.353   1.350 -1.0752 -1.0323  2.3895
 1264SOL    HW2 5800   7.406   6.281   1.326 -0.1793 -1.5999 -1.5398
 1265SOL     OW 5801   0.078  10.060   0.117 -0.0195 -0.1504 -0.7399
 1265SOL    HW1 5802   0.038  10.126   0.173  1.9535 -0.7998  1.6200
 1265SOL    HW2 5803   0.165  10.095   0.096  0.3481 -1.1585 -0.9707
 1266SOL     OW 5804   7.740   7.862   0.602  0.0876 -0.1234 -0.2701
 1266SOL    HW1 5805   7.666   7.898   0.651  0.8984  1.4182 -0.1240
 1266SOL    HW2 5806   7.817   7.898   0.645  0.9113 -0.9341 -1.0206
 1267SOL     OW 5807   1.277   0.003   3.083 -0.0031 -0.0887  0.8222
 1267SOL    HW1 5808   1.290   0.060   3.007  0.4389 -0.3946  0.6573
 1267SOL    HW2 5809   1.216  -0.064   3.052  1.3568 -1.0973  0.2325
 1268SOL     OW 5810   8.353   8.281   0.850 -0.0684  0.0732  0.4370
 1268SOL    HW1 5811   8.285   8.319   0.907  0.7955 -0.1506  1.6476
 1268SOL    HW2 5812   8.316   8.288   0.761 -1.6182  0.0781  1.0413
 1269SOL     OW 5813   4.843   3.247   1.143 -0.4719  0.1434  0.2753
 1269SOL    HW1 5814   4.885   3.292   1.216 -0.5330  1.1792 -0.3172
 1269SOL    HW2 5815   4.753   3.279   1.143 -0.9655 -1.1506  0.7819
 1270SOL     OW 5816   0.068   9.372  10.134  0.5201  0.6128 -0.0882
 1270SOL    HW1 5817  -0.007   9.424  10.162  1.1503  1.7635 -0.4627
 1270SOL    HW2 5818   0.030   9.290  10.103 -0.3802  0.0969  2.1251
 1271SOL     OW 5819   5.336   7.395   2.988  0.9067 -0.1993  0.0483
 1271SOL    HW1 5820   5.323   7.340   2.910  0.5979  0.6329 -0.5024
 1271SOL    HW2 5821   5.293   7.346   3.059  0.3801 -0.5340 -0.4884
 1272SOL     OW 5822  10.899   4.591   2.176 -0.5303 -0.7088  0.3473
 1272SOL    HW1 5823  10.932   4.652   2.242  0.4583  0.2315 -0.9483
 1272SOL    HW2 5824  10.895   4.506   2.220 -0.6430  0.0305  1.8057
 1273SOL     OW 5825   4.758   1.792   2.570 -0.8490  0.2672  0.8236
 1273SOL    HW1 5826   4.671   1.754   2.553 -0.9885  0.9985 -0.1616
 1273SOL    HW2 5827   4.741   1.886   2.581 -0.1042  0.5258 -0.1121
 1274SOL     OW 5828   2.689   5.875   1.084  0.1894 -0.1828  0.1253
 1274SOL    HW1 5829   2.667   5.909   1.171  0.0715 -3.4029  1.5113
 1274SOL    HW2 5830   2.609   5.829   1.055  1.3230 -2.2530  0.0480
 1275SOL     OW 5831   9.521  10.837  10.582 -0.0678  0.0142  0.3592
 1275SOL    HW1 5832   9.459  10.778  10.626 -0.3546 -0.1154 -0.2041
 1275SOL    HW2 5833   9.603  10.825  10.628  0.6466 -2.9364 -1.4353
 1276SOL     OW 5834   9.350   3.165   7.974 -0.6041  0.0995  0.3067
 1276SOL    HW1 5835   9.260   3.193   7.990  0.2841  3.6338 -0.1053
 1276SOL    HW2 5836   9.358   3.167   7.878  0.2125  1.0443  0.3814
 1277SOL     OW 5837   6.938   4.009   6.684  0.1425 -0.2896  0.3042
 1277SOL    HW1 5838   6.962   4.001   6.591  1.7064  0.7466  0.5821
 1277SOL    HW2 5839   6.968   4.096   6.709 -1.6004  0.0346  1.4351
 1278SOL     OW 5840  10.621   3.726   3.732  0.0703  0.4677  0.0744
 1278SOL    HW1 5841  10.572   3.803   3.701 -0.0495  1.0356  1.5842
 1278SOL    HW2 5842  10.598   3.719   3.825  1.5331 -0.2854  0.4114
 1279SOL     OW 5843   6.745   4.658   0.708 -0.1260  0.3315  0.1026
 1279SOL    HW1 5844   6.790   4.577   0.731 -0.6717  0.0892  0.3371
 1279SOL    HW2 5845   6.742   4.658   0.612 -0.2108  0.0246  0.1049
 1280SOL     OW 5846   8.659  10.809   5.682 -0.0934 -0.1698  0.2678
 1280SOL    HW1 5847   8.575  10.816   5.637  0.0708  2.8779  0.2227
 1280SOL    HW2 5848   8.637  10.791   5.773 -0.8748  1.5387  0.4375
 1281SOL     OW 5849   7.046   9.860   2.149 -0.3448  0.2824  0.3620
 1281SOL    HW1 5850   7.102   9.930   2.182  0.0861  0.4672 -0.7350
 1281SOL    HW2 5851   7.098   9.781   2.161 -0.8012  0.1359  1.5297
 1282SOL     OW 5852   6.068  10.686  10.478  0.0146  0.2345 -0.0757
 1282SOL    HW1 5853   6.117  10.605  10.471  2.5535  1.6471  0.0602
 1282SOL    HW2 5854   6.061  10.718  10.388 -0.7073  0.0267 -0.0965
 1283SOL     OW 5855   4.716   7.326   1.647  0.2256  0.2316 -0.3323
 1283SOL    HW1 5856   4.760   7.354   1.727  0.2215 -0.7309  0.0155
 1283SOL    HW2 5857   4.652   7.261   1.676  0.1996 -0.0987 -1.1157
 1284SOL     OW 5858  10.943   3.394   6.730  0.2525 -0.4836 -0.3465
 1284SOL    HW1 5859  10.852   3.364   6.738 -0.0279  0.0034 -1.4916
 1284SOL    HW2 5860  10.974   3.399   6.820 -1.2812  0.5714  0.1786
 1285SOL     OW 5861   9.382   1.399   6.577 -0.3997  0.5373  0.3177
 1285SOL    HW1 5862   9.293   1.393   6.610 -0.5118 -1.0313 -0.1857
 1285SOL    HW2 5863   9.437   1.382   6.653 -0.6550 -2.9807 -0.0971
 1286SOL     OW 5864   5.945   2.044   7.672  0.0485 -0.1561 -0.0831
 1286SOL    HW1 5865   5.907   2.052   7.584  2.1498  2.2531 -0.8910
 1286SOL    HW2 5866   5.902   2.112   7.723  0.9351  0.4568 -0.1251
 1287SOL     OW 5867   7.025   6.695   2.145 -0.1932 -0.3054  0.3062
 1287SOL    HW1 5868   7.008   6.716   2.053 -0.9150 -3.5470 -0.4520
 1287SOL    HW2 5869   7.120   6.694   2.153 -0.1349  1.3488 -0.0091
 1288SOL     OW 5870   9.835   8.579   6.784 -0.0860 -0.4311  0.3772
 1288SOL    HW1 5871   9.742   8.596   6.774 -0.2446 -1.1490  0.5625
 1288SOL    HW2 5872   9.873   8.607   6.700 -0.6661 -1.4072 -0.2363
 1289SOL     OW 5873   4.013   0.006   6.869  0.4928 -0.5162 -0.2560
 1289SOL    HW1 5874   4.097  -0.021   6.905  0.0076 -0.0408  1.2910
 1289SOL    HW2 5875   3.952  -0.003   6.941 -0.5150  0.5558 -0.9437
 1290SOL     OW 5876   5.359   7.928   3.365 -0.0675 -0.2735  0.0147
 1290SOL    HW1 5877   5.395   7.839   3.374 -0.5222 -0.7662 -2.4462
 1290SOL    HW2 5878   5.391   7.974   3.442  0.2597 -2.5388  1.3208
 1291SOL     OW 5879   4.347  10.717   6.301 -0.1256  0.0175 -0.0935
 1291SOL    HW1 5880   4.399  10.676   6.370 -0.7536  1.1072  1.0715
 1291SOL    HW2 5881   4.321  10.645   6.244  1.4086 -0.7384  0.1259
 1292SOL     OW 5882   9.375   3.896   9.281 -0.0207  0.0742  0.0619
 1292SOL    HW1 5883   9.301   3.842   9.252 -0.7015 -0.0649  1.9473
 1292SOL    HW2 5884   9.334   3.976   9.315  0.8202  0.6931 -0.3422
 1293SOL     OW 5885   9.364   5.525   4.249 -0.4449 -0.2688  0.2624
 1293SOL    HW1 5886   9.453   5.509   4.280 -0.1874 -1.8415 -1.1194
 1293SOL    HW2 5887   9.376   5.577   4.169 -0.6993 -1.0586 -0.3036
 1294SOL     OW 5888   1.607   4.073   9.645  0.3856 -0.6084  0.9397
 1294SOL    HW1 5889   1.677   4.036   9.592 -0.6879 -1.3099 -0.0351
 1294SOL    HW2 5890   1.527   4.052   9.597 -0.4763  0.4910  1.8298
 1295SOL     OW 5891   0.331   4.395   7.485 -0.7167 -0.6799 -0.2959
 1295SOL    HW1 5892   0.389   4.412   7.559 -0.7393  1.1891 -0.6526
 1295SOL    HW2 5893   0.244   4.385   7.524 -0.6263 -0.3781 -0.0122
 1296SOL     OW 5894  10.506   2.512  10.591 -0.5714  0.5783 -0.0610
 1296SOL    HW1 5895  10.445   2.447  10.629  0.0823 -0.3290 -0.5326
 1296SOL    HW2 5896  10.457   2.594  10.592 -1.3894  0.0978  0.6377
 1297SOL     OW 5897   1.787  10.281   8.210  0.2500  0.3039  0.3561
 1297SOL    HW1 5898   1.841  10.218   8.257  1.7106  1.2026 -0.0284
 1297SOL    HW2 5899   1.844  10.314   8.140 -2.0028 -1.3969 -2.4886
 1298SOL     OW 5900   1.400   7.481   6.710  0.2285 -0.2361 -0.8056
 1298SOL    HW1 5901   1.474   7.526   6.750 -0.2061  0.4649 -0.7741
 1298SOL    HW2 5902   1.395   7.518   6.622 -1.4163  1.3433 -0.1017
 1299SOL     OW 5903   1.472   3.200   6.367 -0.0560  0.0633 -0.6546
 1299SOL    HW1 5904   1.468   3.205   6.462 -0.6858  0.8792 -0.7167
 1299SOL    HW2 5905   1.507   3.285   6.340  0.8033 -0.4264 -1.1199
 1300SOL     OW 5906   3.026  10.543   9.776 -0.3728 -0.4157 -0.1423
 1300SOL    HW1 5907   3.069  10.548   9.691  0.0345  0.8484  0.1244
 1300SOL    HW2 5908   3.087  10.493   9.831 -0.0942 -0.2062 -0.2634
 1301SOL     OW 5909  10.492  10.678   7.448 -0.4267  0.1703  0.5855
 1301SOL    HW1 5910  10.565  10.712   7.499 -0.1925 -1.1993  1.2049
 1301SOL    HW2 5911  10.502  10.718   7.362  2.1137 -1.2728  0.1089
 1302SOL     OW 5912   0.312   9.199   0.049  0.7251 -0.2453  0.3219
 1302SOL    HW1 5913   0.287   9.233  -0.037 -0.8157 -1.9302  0.0439
 1302SOL    HW2 5914   0.246   9.235   0.109 -0.0791 -1.5588  0.2529
 1303SOL     OW 5915   0.891   9.148  10.605 -0.1141 -0.3028 -0.3142
 1303SOL    HW1 5916   0.907   9.066  10.651  1.6176  0.1383 -0.0912
 1303SOL    HW2 5917   0.978   9.183  10.586 -0.8135  0.8983 -1.4698
 1304SOL     OW 5918   1.866   2.267   9.004  0.2130 -0.0702 -0.3793
 1304SOL    HW1 5919   1.938   2.247   9.065  0.0975 -0.2993 -0.3156
 1304SOL    HW2 5920   1.787   2.259   9.058  0.1432  0.2458 -0.4342
 1305SOL     OW 5921   4.504   9.159  10.604  0.0916 -0.4220 -0.3029
 1305SOL    HW1 5922   4.596   9.168  10.628 -0.2528  0.8014  0.6407
 1305SOL    HW2 5923   4.476   9.076  10.644  0.8367 -0.9476 -0.8454
 1306SOL     OW 5924   9.378   8.976   6.490  0.2282  0.0268 -0.0429
 1306SOL    HW1 5925   9.446   8.918   6.454 -0.1254 -0.1647 -0.4145
 1306SOL    HW2 5926   9.378   8.958   6.584  1.6126  0.9966  0.1708
 1307SOL     OW 5927   1.542  10.754   2.402 -0.5934  0.6191  0.0983
 1307SOL    HW1 5928   1.497  10.747   2.486  0.0925  0.9844  0.5029
 1307SOL    HW2 5929   1.529  10.845   2.375 -0.7164  0.5319 -0.1352
 1308SOL     OW 5930   9.182   6.124   4.242 -0.1186 -0.5180 -0.3358
 1308SOL    HW1 5931   9.167   6.058   4.310 -1.8583 -0.2566 -0.4015
 1308SOL    HW2 5932   9.110   6.110   4.179  1.0213 -0.2714 -1.7463
 1309SOL     OW 5933   8.494  10.328   0.699  0.2299 -0.5489  0.1023
 1309SOL    HW1 5934   8.455  10.323   0.612 -0.8600  0.3055  0.5180
 1309SOL    HW2 5935   8.588  10.338   0.682  0.0944 -0.9156 -0.9604
 1310SOL     OW 5936   0.873  10.648  10.861 -0.3116  0.1107  0.2651
 1310SOL    HW1 5937   0.850  10.573  10.915 -0.7978 -0.5699 -0.8500
 1310SOL    HW2 5938   0.966  10.663  10.879  0.3083 -2.0059 -0.9306
 1311SOL     OW 5939   4.545   1.511   4.954  0.1818 -0.1637 -1.2497
 1311SOL    HW1 5940   4.583   1.513   4.866 -2.1477 -0.9117 -2.3723
 1311SOL    HW2 5941   4.488   1.588   4.957  1.5890  0.8794  0.3353
 1312SOL     OW 5942   3.762   0.212  10.002  0.3813  0.1129  0.0457
 1312SOL    HW1 5943   3.793   0.225   9.912  1.5649  0.3941  0.4923
 1312SOL    HW2 5944   3.696   0.143   9.993 -0.7527  1.2790 -1.2797
 1313SOL     OW 5945   1.637   5.454   8.978 -0.0624  0.3973  0.2589
 1313SOL    HW1 5946   1.650   5.399   9.055  0.9750  1.4417  0.8524
 1313SOL    HW2 5947   1.546   5.437   8.952  0.4559 -2.2875 -0.1489
 1314SOL     OW 5948   0.862   1.686   8.958 -0.0909  0.3298 -0.0458
 1314SOL    HW1 5949   0.796   1.617   8.968 -1.9706  2.0274 -0.1167
 1314SOL    HW2 5950   0.904   1.691   9.044 -0.8444 -0.0243  0.3559
 1315SOL     OW 5951   6.998   3.783   0.655 -0.0310  0.3148  0.2561
 1315SOL    HW1 5952   6.907   3.806   0.636 -0.2538 -0.5760  0.2027
 1315SOL    HW2 5953   6.999   3.687   0.655  0.9143  0.3162  0.2301
 1316SOL     OW 5954   7.847   4.633   0.234  0.0507  0.3075 -0.1291
 1316SOL    HW1 5955   7.903   4.568   0.276 -0.8091 -0.7206 -0.5337
 1316SOL    HW2 5956   7.899   4.713   0.235  0.5967 -0.0105  1.6614
 1317SOL     OW 5957   9.230   2.172   8.759  0.0615  0.4027 -0.3478
 1317SOL    HW1 5958   9.207   2.183   8.667 -1.4719  1.1994  0.0958
 1317SOL    HW2 5959   9.148   2.145   8.801  1.0167 -1.1788  0.5928
 1318SOL     OW 5960   2.032   0.510   1.297 -0.1505  0.0553  0.0317
 1318SOL    HW1 5961   1.941   0.539   1.303 -0.9361 -1.7018 -1.9175
 1318SOL    HW2 5962   2.032   0.424   1.337  0.1816 -0.7428 -1.5809
 1319SOL     OW 5963   9.618   5.862  10.509  0.5596  0.5887  0.0505
 1319SOL    HW1 5964   9.685   5.919  10.473 -1.5419  2.9855 -0.3569
 1319SOL    HW2 5965   9.547   5.921  10.534 -1.8350 -1.8421 -0.4997
 1320SOL     OW 5966   1.490   9.716   4.490  0.1783  0.2855 -0.2777
 1320SOL    HW1 5967   1.457   9.688   4.405  1.9952  1.9601 -1.6061
 1320SOL    HW2 5968   1.555   9.650   4.515  0.0530  0.0971 -0.4513
 1321SOL     OW 5969   8.771   8.692   1.481 -0.0602 -0.1030  0.1071
 1321SOL    HW1 5970   8.760   8.600   1.504  3.0365 -0.8358 -0.9340
 1321SOL    HW2 5971   8.802   8.733   1.562 -0.2587 -0.2110  0.2400
 1322SOL     OW 5972   2.396   2.369   0.313 -0.2570 -0.3780 -0.9603
 1322SOL    HW1 5973   2.463   2.320   0.361 -0.6417  1.0699  1.2162
 1322SOL    HW2 5974   2.326   2.306   0.300 -0.6542 -0.5653  1.5806
 1323SOL     OW 5975   1.629   9.804   9.491 -0.0490  0.5295 -0.1090
 1323SOL    HW1 5976   1.591   9.868   9.431 -0.7892  2.2431  2.0114
 1323SOL    HW2 5977   1.553   9.760   9.530  0.4336 -1.1458 -0.9652
 1324SOL     OW 5978   5.943   4.480   0.289  0.2725  0.2761  0.4183
 1324SOL    HW1 5979   6.011   4.537   0.253 -0.8148  0.8211 -0.8826
 1324SOL    HW2 5980   5.918   4.522   0.371 -0.2428  1.4928 -0.3339
 1325SOL     OW 5981  10.004   9.761   7.929 -0.4505  0.0654  0.3301
 1325SOL    HW1 5982   9.919   9.803   7.937  0.0950  1.3077 -0.1671
 1325SOL    HW2 5983  10.018   9.754   7.835 -0.6384 -1.5002  0.3922
 1326SOL     OW 5984   6.905   1.727   7.331  0.3151 -0.6211  0.2569
 1326SOL    HW1 5985   6.928   1.808   7.376  0.4543 -0.1927 -0.5810
 1326SOL    HW2 5986   6.988   1.680   7.321  0.5755  0.1182 -1.1792
 1327SOL     OW 5987   9.630   1.031   8.539 -0.2308 -0.5210  0.0244
 1327SOL    HW1 5988   9.565   1.062   8.476  1.5717 -0.6802 -2.0306
 1327SOL    HW2 5989   9.699   1.098   8.538  0.2688 -0.9828  1.1532
 1328SOL     OW 5990   9.276   4.377   6.058  0.4327  0.5208  0.0598
 1328SOL    HW1 5991   9.364   4.343   6.073  0.2486  0.5730  1.3755
 1328SOL    HW2 5992   9.285   4.434   5.981  0.9190 -1.7993 -1.7099
 1329SOL     OW 5993   2.073   2.971   9.888 -0.2180 -0.7172 -0.4830
 1329SOL    HW1 5994   2.060   3.046   9.830 -0.3380  0.6739  1.2484
 1329SOL    HW2 5995   2.114   3.009   9.966  1.5220 -2.7769 -0.2961
 1330SOL     OW 5996   0.739   1.499   4.808 -0.4598 -0.7369 -0.4319
 1330SOL    HW1 5997   0.653   1.512   4.768 -1.3335  0.6181  1.7199
 1330SOL    HW2 5998   0.724   1.511   4.902  1.8997 -1.5195  0.1101
 1331SOL     OW 5999  10.222  10.884   7.407  0.5768 -0.0823 -0.1134
 1331SOL    HW1 6000  10.216  10.810   7.467  1.0944  0.4397  0.6115
 1331SOL    HW2 6001  10.195  10.849   7.322 -0.0036 -0.8785  0.3881
 1332SOL     OW 6002   9.504   2.616   2.237 -0.3722 -0.2083  0.3809
 1332SOL    HW1 6003   9.485   2.538   2.186  0.8501 -1.0297  1.1344
 1332SOL    HW2 6004   9.431   2.675   2.218 -0.8760 -1.1804 -0.8746
 1333SOL     OW 6005   1.641   2.224   9.211 -0.3652 -0.3013 -0.6352
 1333SOL    HW1 6006   1.549   2.249   9.201  0.0457  1.9803  0.5572
 1333SOL    HW2 6007   1.642   2.164   9.285 -1.0083 -1.3654 -1.4588
 1334SOL     OW 6008   8.656   9.503  10.464 -0.0219 -0.0918 -0.6713
 1334SOL    HW1 6009   8.647   9.592  10.430 -2.5062 -0.2377 -0.5921
 1334SOL    HW2 6010   8.631   9.447  10.391  0.4211 -0.6831 -0.3762
 1335SOL     OW 6011   9.909   1.534   3.993  0.2701 -0.1931 -0.6284
 1335SOL    HW1 6012   9.911   1.451   3.946  0.9350  0.2371 -1.3863
 1335SOL    HW2 6013   9.957   1.595   3.937  1.0855  0.3451  0.6083
 1336SOL     OW 6014   4.283   2.419   3.402 -0.1657  0.3397  0.1733
 1336SOL    HW1 6015   4.378   2.430   3.407  0.1717 -1.5243 -1.1008
 1336SOL    HW2 6016   4.249   2.508   3.398  1.6460  1.0302 -0.9601
 1337SOL     OW 6017   1.184   4.165   8.040 -0.2409  0.2532 -0.5539
 1337SOL    HW1 6018   1.135   4.085   8.055  2.4764 -1.0593  2.4261
 1337SOL    HW2 6019   1.148   4.227   8.104 -0.8642  0.7101 -1.3378
 1338SOL     OW 6020   0.723   2.440   6.024  0.1122  0.6352  0.0762
 1338SOL    HW1 6021   0.791   2.500   6.055  0.6064  1.2671 -2.0581
 1338SOL    HW2 6022   0.644   2.465   6.073  0.9438  1.2284  1.1412
 1339SOL     OW 6023   6.148   3.925   5.017  0.1925 -0.1720  0.1509
 1339SOL    HW1 6024   6.114   3.938   5.105 -0.3204 -0.4932  0.0034
 1339SOL    HW2 6025   6.240   3.951   5.022 -0.1140  0.8571  0.5121
 1340SOL     OW 6026  10.397   0.544   5.312  0.2039  0.6556 -0.5665
 1340SOL    HW1 6027  10.359   0.625   5.348  0.6428  0.2371  0.9170
 1340SOL    HW2 6028  10.398   0.559   5.218 -1.2273  1.7251 -0.4661
 1341SOL     OW 6029  10.178  11.101   6.224  0.4358  0.2712  0.4849
 1341SOL    HW1 6030  10.176  11.040   6.151 -0.6461 -1.0420  1.5613
 1341SOL    HW2 6031  10.159  11.186   6.185 -0.3088 -0.4291 -0.7297
 1342SOL     OW 6032   2.456   4.745   3.638 -0.1638 -0.1915  0.4825
 1342SOL    HW1 6033   2.495   4.663   3.608  0.2938 -0.1657  1.0065
 1342SOL    HW2 6034   2.474   4.749   3.732 -0.8208  0.1581  0.6025
 1343SOL     OW 6035   8.742   5.729   1.489 -0.2325  0.3448 -0.8591
 1343SOL    HW1 6036   8.798   5.804   1.466  1.4609  0.1343  2.1516
 1343SOL    HW2 6037   8.702   5.754   1.572 -0.9736 -1.4238 -0.6494
 1344SOL     OW 6038   9.887   7.593   7.239 -0.1298 -0.6504  0.0408
 1344SOL    HW1 6039   9.793   7.582   7.223 -0.0996 -1.9735  0.6646
 1344SOL    HW2 6040   9.922   7.629   7.157 -1.3853  1.2419  0.2589
 1345SOL     OW 6041   9.922   9.407   5.054  0.2115  0.0429 -0.0312
 1345SOL    HW1 6042   9.939   9.479   4.994  1.5451 -1.4815 -1.5791
 1345SOL    HW2 6043   9.856   9.441   5.115 -0.1516  2.1109 -1.4957
 1346SOL     OW 6044   1.219   2.638   7.649 -0.8635 -0.3057  0.0245
 1346SOL    HW1 6045   1.149   2.701   7.670 -0.1711  0.4608  0.1088
 1346SOL    HW2 6046   1.204   2.565   7.709 -2.6265 -0.9644 -1.1370
 1347SOL     OW 6047   6.293   2.662   3.490  0.6379 -0.1191  0.3068
 1347SOL    HW1 6048   6.350   2.593   3.456  0.1167 -0.2268 -0.3681
 1347SOL    HW2 6049   6.337   2.744   3.467  1.3697 -0.2143  1.3055
 1348SOL     OW 6050   6.297   7.888   2.604  0.2178  0.4800 -0.3784
 1348SOL    HW1 6051   6.326   7.903   2.514 -0.2234  0.3750 -0.5403
 1348SOL    HW2 6052   6.276   7.795   2.608 -0.6711  0.6627 -0.4444
 1349SOL     OW 6053   8.096   1.033   4.914 -0.0488  0.7825  0.0383
 1349SOL    HW1 6054   8.056   0.951   4.886  0.4055  0.1403  1.1857
 1349SOL    HW2 6055   8.026   1.082   4.956 -0.3477  1.0329 -0.7468
 1350SOL     OW 6056   0.647   4.510  10.737 -0.2175  0.0879  0.6217
 1350SOL    HW1 6057   0.590   4.527  10.662 -1.7429  2.6184  2.1747
 1350SOL    HW2 6058   0.705   4.440  10.708 -1.9736 -0.3715 -2.2105
 1351SOL     OW 6059   4.101   4.336   6.468  0.5773 -0.5546  0.5867
 1351SOL    HW1 6060   4.063   4.258   6.507  0.9203 -0.4116  1.2317
 1351SOL    HW2 6061   4.075   4.332   6.376  0.0364 -1.0799  0.7506
 1352SOL     OW 6062   6.804   1.189   0.061  0.3141 -0.4924  0.5447
 1352SOL    HW1 6063   6.768   1.105   0.035  0.2766 -0.3953  0.2797
 1352SOL    HW2 6064   6.762   1.252   0.002 -1.2505 -0.0216  2.0538
 1353SOL     OW 6065   9.260   7.109   2.028 -0.2187  0.8236 -0.3760
 1353SOL    HW1 6066   9.280   7.172   2.097  0.3475 -1.2374  1.4318
 1353SOL    HW2 6067   9.220   7.035   2.073  0.8325 -0.9139 -2.1238
 1354SOL     OW 6068  10.988   7.500   0.249  0.2675 -0.0676 -0.1326
 1354SOL    HW1 6069  11.033   7.465   0.171 -1.0825 -0.7510 -0.6415
 1354SOL    HW2 6070  10.922   7.434   0.270 -1.1844  1.3480 -0.0336
 1355SOL     OW 6071   1.072   9.484   5.302  0.1714 -0.3069 -0.1233
 1355SOL    HW1 6072   1.003   9.536   5.260 -1.0307 -0.0089  2.0794
 1355SOL    HW2 6073   1.053   9.490   5.395  3.2318 -0.1845  0.6028
 1356SOL     OW 6074   9.757   9.818   7.262  0.0174  0.0390 -0.0419
 1356SOL    HW1 6075   9.678   9.793   7.214  1.7671 -1.3618 -2.4277
 1356SOL    HW2 6076   9.747   9.912   7.276 -1.8229 -0.0051 -0.7660
 1357SOL     OW 6077   4.786   3.309   7.651 -0.1766 -0.3395  0.0949
 1357SOL    HW1 6078   4.752   3.382   7.703  0.0782 -0.1376 -0.0208
 1357SOL    HW2 6079   4.811   3.243   7.716  0.2415 -0.0453  0.2307
 1358SOL     OW 6080   2.283   2.576   2.682  0.1531  0.1214  0.7991
 1358SOL    HW1 6081   2.310   2.636   2.752 -0.7882 -0.9008  2.0958
 1358SOL    HW2 6082   2.328   2.494   2.703  0.0342 -0.1385  0.0678
 1359SOL     OW 6083   8.970   2.959   4.504 -0.1964 -0.5307 -0.4485
 1359SOL    HW1 6084   8.897   2.945   4.565  0.2267 -1.1115 -0.0658
 1359SOL    HW2 6085   9.012   2.873   4.498  2.3336  0.4275  1.7564
 1360SOL     OW 6086   0.949   0.964   2.643 -0.0668 -0.2722  0.5289
 1360SOL    HW1 6087   0.949   1.053   2.678 -2.4928 -0.1741  0.4634
 1360SOL    HW2 6088   0.958   0.975   2.548  1.9904 -0.2890  0.6733
 1361SOL     OW 6089  10.655  10.063   8.649 -0.1964  0.3433 -0.0121
 1361SOL    HW1 6090  10.633  10.052   8.557 -2.2256 -2.4283  0.6838
 1361SOL    HW2 6091  10.734  10.010   8.661 -0.6390 -0.2900  0.0934
 1362SOL     OW 6092   1.365   2.592   0.936 -0.1276 -0.3936 -0.5702
 1362SOL    HW1 6093   1.355   2.537   1.014  0.2876  0.9063  0.4285
 1362SOL    HW2 6094   1.442   2.646   0.954  0.6987 -0.8880 -2.3987
 1363SOL     OW 6095   3.904   8.565   0.592  0.3860  0.3244 -0.1886
 1363SOL    HW1 6096   3.865   8.477   0.583 -0.0519  0.2906  1.7231
 1363SOL    HW2 6097   3.980   8.563   0.533 -1.0115 -0.4683 -2.0874
 1364SOL     OW 6098  10.599   5.383   1.784  0.0539 -0.4218  0.0961
 1364SOL    HW1 6099  10.533   5.334   1.734 -0.9505 -0.7352  1.6597
 1364SOL    HW2 6100  10.569   5.474   1.779 -0.6646 -0.5900  0.9838
 1365SOL     OW 6101   1.274   0.195   0.438  0.6847 -0.3088 -0.4486
 1365SOL    HW1 6102   1.367   0.197   0.463  0.9513 -0.6173 -1.3581
 1365SOL    HW2 6103   1.252   0.102   0.438 -0.3513 -0.1534  2.1964
 1366SOL     OW 6104   6.126   2.548   1.609  0.1903 -0.0687 -0.5538
 1366SOL    HW1 6105   6.044   2.519   1.570  0.3045 -2.3103  0.7396
 1366SOL    HW2 6106   6.100   2.593   1.690  0.2369 -2.4667  0.8679
 1367SOL     OW 6107   6.427   8.868   3.124 -0.3163  0.6076  0.3765
 1367SOL    HW1 6108   6.337   8.863   3.094 -0.2629  1.2650  0.1007
 1367SOL    HW2 6109   6.421   8.855   3.219 -0.6212 -0.0616  0.2727
 1368SOL     OW 6110  10.170   5.866   9.016 -0.3072  0.1979  0.2037
 1368SOL    HW1 6111  10.243   5.896   9.070  0.2529 -2.1012  0.8273
 1368SOL    HW2 6112  10.143   5.783   9.056 -2.1164  0.1088 -1.0673
 1369SOL     OW 6113  11.067   7.654   2.844 -0.0593 -0.0297 -0.3981
 1369SOL    HW1 6114  10.998   7.715   2.872 -0.0614 -0.2826  0.1643
 1369SOL    HW2 6115  11.022   7.570   2.834  0.1079 -0.1291 -0.3159
 1370SOL     OW 6116   0.227  10.733   0.400 -0.2664 -0.2209 -0.2410
 1370SOL    HW1 6117   0.222  10.733   0.304 -1.5915  3.3460 -0.3271
 1370SOL    HW2 6118   0.306  10.782   0.420 -0.2873 -0.4758  0.4928
 1371SOL     OW 6119   1.447   6.535   1.694  0.1592 -0.1977  0.5796
 1371SOL    HW1 6120   1.420   6.443   1.697  0.8715 -0.4372 -0.1653
 1371SOL    HW2 6121   1.470   6.551   1.603  0.8240  0.4939  0.8543
 1372SOL     OW 6122  10.092   0.094   5.191  0.6262  0.0474  0.6535
 1372SOL    HW1 6123  10.164   0.030   5.185  1.3205  0.8201  0.6129
 1372SOL    HW2 6124  10.103   0.135   5.277 -2.0268 -2.4302  2.3690
 1373SOL     OW 6125   6.037   0.760   3.746 -0.4602  0.3840 -0.3053
 1373SOL    HW1 6126   5.985   0.802   3.814  1.5977 -0.0448  1.6557
 1373SOL    HW2 6127   6.101   0.826   3.719  0.1372 -0.1286 -0.1932
 1374SOL     OW 6128   0.098   8.629   3.656 -0.4414  0.2231  0.2663
 1374SOL    HW1 6129   0.185   8.600   3.684  0.2955  0.7746 -1.3645
 1374SOL    HW2 6130   0.038   8.574   3.706  0.8711 -1.8079 -0.2704
 1375SOL     OW 6131   4.996   4.857   6.233  0.3155 -0.1129 -0.2501
 1375SOL    HW1 6132   5.053   4.934   6.231 -0.7748  0.7101 -0.1086
 1375SOL    HW2 6133   4.908   4.892   6.240 -0.2245 -1.3770 -0.4734
 1376SOL     OW 6134   2.930   1.418   9.070  0.2503 -0.2642 -0.6804
 1376SOL    HW1 6135   3.000   1.359   9.043 -2.2517 -2.3585 -3.2654
 1376SOL    HW2 6136   2.924   1.481   8.999  1.2126  1.6684  0.8580
 1377SOL     OW 6137   4.587   7.385   4.532  0.4748 -0.3124  0.3799
 1377SOL    HW1 6138   4.618   7.310   4.481  0.3715 -1.0043  1.3121
 1377SOL    HW2 6139   4.616   7.367   4.622 -0.6151  0.1514  0.8473
 1378SOL     OW 6140   5.185   0.355   6.584 -0.1761  0.5634 -0.1542
 1378SOL    HW1 6141   5.239   0.308   6.520 -2.3879  0.8578 -2.3971
 1378SOL    HW2 6142   5.189   0.301   6.662  0.2241 -1.4747 -1.5030
 1379SOL     OW 6143  10.183   2.501   2.917 -0.5935 -1.2827  0.2898
 1379SOL    HW1 6144  10.257   2.518   2.976 -2.4476  0.6546  2.1955
 1379SOL    HW2 6145  10.197   2.561   2.843 -0.4963 -0.5864  0.8670
 1380SOL     OW 6146   5.273  10.713  10.109  0.2143  0.3305  0.1676
 1380SOL    HW1 6147   5.307  10.776  10.172  2.5055 -0.2830 -0.3717
 1380SOL    HW2 6148   5.180  10.734  10.101  0.3917  1.9652  1.9074
 1381SOL     OW 6149   1.470   1.700   3.958  0.4466 -0.2589 -0.3110
 1381SOL    HW1 6150   1.412   1.775   3.942  0.1276 -0.2893  0.6459
 1381SOL    HW2 6151   1.413   1.624   3.957  0.7058 -0.4504 -0.8489
 1382SOL     OW 6152  10.913   8.892   2.535 -0.1734  0.0810 -0.0748
 1382SOL    HW1 6153  10.880   8.852   2.615  1.5619 -1.7811 -0.2177
 1382SOL    HW2 6154  11.001   8.923   2.557 -0.3335  1.1431 -0.8201
 1383SOL     OW 6155   6.964   7.895   9.743 -0.2361 -0.0352  0.3435
 1383SOL    HW1 6156   6.958   7.869   9.651 -0.5208 -0.6549  0.5271
 1383SOL    HW2 6157   7.058   7.908   9.758 -0.1251 -0.5372  0.1203
 1384SOL     OW 6158   4.558   8.106   8.041  0.0179  0.1352 -0.3531
 1384SOL    HW1 6159   4.613   8.166   7.990  0.6453 -2.0885 -2.5167
 1384SOL    HW2 6160   4.539   8.034   7.980 -2.7828 -0.6785  1.3054
 1385SOL     OW 6161   8.797   1.672   4.798  0.3377  0.3176 -0.1558
 1385SOL    HW1 6162   8.770   1.692   4.888 -0.0695  0.6076 -0.3340
 1385SOL    HW2 6163   8.831   1.583   4.802  1.6523  0.8305  0.5563
 1386SOL     OW 6164  10.523   5.707   9.111 -0.1899 -0.1672 -0.1751
 1386SOL    HW1 6165  10.605   5.753   9.128 -0.1123  0.5322 -2.2179
 1386SOL    HW2 6166  10.455   5.772   9.127 -0.1835  0.0669 -1.0250
 1387SOL     OW 6167   2.252   5.421   0.827 -0.3039 -0.0320 -0.1668
 1387SOL    HW1 6168   2.199   5.497   0.853 -0.8294 -0.8616  1.3538
 1387SOL    HW2 6169   2.317   5.413   0.897  3.0212  1.9140 -2.7626
 1388SOL     OW 6170   8.920   8.720   2.669 -0.0672  0.5056  0.1285
 1388SOL    HW1 6171   8.851   8.685   2.725  0.1426 -0.9218 -0.4460
 1388SOL    HW2 6172   8.882   8.799   2.631 -0.7452  0.6851  1.1318
 1389SOL     OW 6173   4.530   5.023   0.231  0.1727  0.2316  0.1564
 1389SOL    HW1 6174   4.593   5.086   0.266 -0.8042 -0.0172  2.5519
 1389SOL    HW2 6175   4.447   5.047   0.272 -0.7618 -1.0604 -0.8886
 1390SOL     OW 6176   9.617   6.403   2.826  0.2796  0.1883 -0.3928
 1390SOL    HW1 6177   9.619   6.451   2.909  2.6932  0.4617 -0.5542
 1390SOL    HW2 6178   9.539   6.347   2.833  0.6834 -0.1809  2.2798
 1391SOL     OW 6179   7.641   9.129   7.231 -0.3869 -0.2015  0.1673
 1391SOL    HW1 6180   7.638   9.193   7.302 -0.5717 -1.2070  1.0938
 1391SOL    HW2 6181   7.564   9.075   7.246 -0.4883 -0.3556 -0.8820
 1392SOL     OW 6182   0.461   3.622   0.736 -0.2310 -0.0960 -0.1532
 1392SOL    HW1 6183   0.447   3.652   0.646  1.3435 -0.8254 -0.6859
 1392SOL    HW2 6184   0.459   3.702   0.789  1.5489  0.7255 -1.2196
 1393SOL     OW 6185   9.092  10.116   0.986 -0.0889  0.1147  1.2002
 1393SOL    HW1 6186   9.090  10.107   1.081 -0.1628 -1.6609  1.0678
 1393SOL    HW2 6187   9.002  10.098   0.958  0.3562 -1.5276  0.6856
 1394SOL     OW 6188  10.691   3.216   2.282 -0.4523 -0.0522 -0.1489
 1394SOL    HW1 6189  10.751   3.204   2.356  0.2796  0.7244 -0.5935
 1394SOL    HW2 6190  10.616   3.263   2.320  1.0108  2.6546 -0.3127
 1395SOL     OW 6191  10.750   5.121  10.109 -0.1650 -0.2555  0.1717
 1395SOL    HW1 6192  10.692   5.045  10.107  1.4945 -1.5671 -0.0669
 1395SOL    HW2 6193  10.835   5.086  10.132  0.5831  1.6086  0.4277
 1396SOL     OW 6194   8.772   3.111   5.617  0.0911  0.1775  0.6433
 1396SOL    HW1 6195   8.825   3.103   5.697  0.5019 -1.4645  0.2440
 1396SOL    HW2 6196   8.834   3.098   5.546 -0.6227 -0.5411  0.1316
 1397SOL     OW 6197   0.350   2.552   0.663  0.7881  0.3182 -0.0542
 1397SOL    HW1 6198   0.404   2.564   0.741 -0.6509  1.7906  0.7759
 1397SOL    HW2 6199   0.324   2.460   0.666 -0.5533  0.6945  2.1544
 1398SOL     OW 6200   0.599   2.856   4.969  0.3959  0.2494 -0.2438
 1398SOL    HW1 6201   0.548   2.937   4.966  0.1205  0.1509  0.9583
 1398SOL    HW2 6202   0.680   2.880   5.013  0.2912 -0.1183  0.1684
 1399SOL     OW 6203  11.027   1.424   0.387 -0.1802  0.3323 -0.5551
 1399SOL    HW1 6204  10.999   1.401   0.299  0.3748 -0.3661 -0.5591
 1399SOL    HW2 6205  11.118   1.454   0.376 -0.0153 -0.0252 -0.1864
 1400SOL     OW 6206   0.843   5.321   2.928 -0.1025 -0.9721 -0.3459
 1400SOL    HW1 6207   0.876   5.232   2.914 -0.5017 -1.1672 -0.0850
 1400SOL    HW2 6208   0.749   5.315   2.906 -0.4393 -0.9578  1.0168
 1401SOL     OW 6209  10.980   7.321   0.513 -0.0260  0.2116 -0.1261
 1401SOL    HW1 6210  10.940   7.333   0.599  0.9089 -1.1503  0.5198
 1401SOL    HW2 6211  11.040   7.395   0.504  0.1259  0.1751  0.5500
 1402SOL     OW 6212   9.338   6.662   1.975  0.0977  0.0775  0.3049
 1402SOL    HW1 6213   9.307   6.595   1.913 -0.9109  0.1142  0.7407
 1402SOL    HW2 6214   9.420   6.627   2.009 -0.7041 -1.2414  0.9632
 1403SOL     OW 6215   7.960   3.639   2.876 -0.3193  0.0140  0.2150
 1403SOL    HW1 6216   7.935   3.731   2.883 -0.9934 -0.1640  0.2025
 1403SOL    HW2 6217   8.054   3.641   2.855 -0.2604  0.6876  0.5330
 1404SOL     OW 6218   4.686   3.770  10.985  0.6293 -0.0371  0.1889
 1404SOL    HW1 6219   4.781   3.767  10.973  0.4473  0.8104 -1.7204
 1404SOL    HW2 6220   4.671   3.852  11.032  0.8834 -0.6508  1.3978
 1405SOL     OW 6221   5.535   0.618   4.573 -0.8044  0.5307  0.2763
 1405SOL    HW1 6222   5.551   0.569   4.492  0.5498  0.4307  0.5743
 1405SOL    HW2 6223   5.489   0.556   4.630 -0.7180  0.2074 -0.0029
 1406SOL     OW 6224   1.936  10.940   1.257  0.4090 -0.5700 -0.0871
 1406SOL    HW1 6225   1.972  10.975   1.338 -0.6410 -1.7203  0.9202
 1406SOL    HW2 6226   1.913  11.018   1.206 -0.8426  0.2650  1.6251
 1407SOL     OW 6227   1.359   2.355   1.797  0.2270 -0.6550 -0.4782
 1407SOL    HW1 6228   1.289   2.291   1.780 -1.5810  1.3125 -0.9425
 1407SOL    HW2 6229   1.406   2.361   1.713 -0.2525 -0.6235 -0.7501
 1408SOL     OW 6230   6.317   5.827   2.662 -0.4183 -0.2659 -0.1171
 1408SOL    HW1 6231   6.371   5.882   2.718 -2.5410  1.6816  0.1830
 1408SOL    HW2 6232   6.369   5.815   2.583  0.9660  0.4050  0.6423
 1409SOL     OW 6233   5.628   9.438   9.971  0.6121  0.0078  0.0146
 1409SOL    HW1 6234   5.581   9.359   9.945  0.5751  0.4397 -1.3136
 1409SOL    HW2 6235   5.720   9.418   9.955  0.9031 -0.7269  2.3196
 1410SOL     OW 6236  10.783   1.317  10.749 -0.3423  0.7284 -0.2315
 1410SOL    HW1 6237  10.861   1.358  10.712  0.4245 -0.7131 -0.2799
 1410SOL    HW2 6238  10.816   1.238  10.793 -1.9943 -1.1176 -2.1186
 1411SOL     OW 6239   9.661  11.010   5.260 -1.0376  0.2928  0.0782
 1411SOL    HW1 6240   9.687  11.033   5.350 -0.9202 -0.1304  0.1528
 1411SOL    HW2 6241   9.743  10.992   5.215 -1.0773  0.7936 -0.1968
 1412SOL     OW 6242   1.669   7.274   5.773 -0.1005  0.4240 -0.3557
 1412SOL    HW1 6243   1.630   7.250   5.689 -0.8994 -0.0225  0.1239
 1412SOL    HW2 6244   1.609   7.340   5.809  0.8232  1.4321 -0.6137
 1413SOL     OW 6245   5.014   2.998   4.222 -0.2561 -0.3736  0.5666
 1413SOL    HW1 6246   4.945   3.053   4.257  1.4608  2.4286 -0.1361
 1413SOL    HW2 6247   4.990   2.986   4.130 -0.3671 -0.3496  0.5922
 1414SOL     OW 6248   8.564   2.986   7.787  0.7224  0.0048 -0.2669
 1414SOL    HW1 6249   8.559   2.892   7.806 -0.0925 -0.2069 -1.4240
 1414SOL    HW2 6250   8.638   2.994   7.727  0.9986  0.1525  0.0919
 1415SOL     OW 6251   0.841   4.216  10.812 -0.2297  0.6052 -0.3192
 1415SOL    HW1 6252   0.932   4.210  10.842 -0.0889 -1.3799 -1.0392
 1415SOL    HW2 6253   0.789   4.194  10.890 -0.0840  0.9396 -0.1223
 1416SOL     OW 6254   2.696   3.666   1.726 -0.1235  0.1218 -0.1572
 1416SOL    HW1 6255   2.637   3.710   1.665 -0.6352  2.1109  1.6750
 1416SOL    HW2 6256   2.747   3.606   1.671 -3.7706 -1.7467 -1.8714
 1417SOL     OW 6257   6.882   5.296   7.467  0.2180 -0.7563 -0.7169
 1417SOL    HW1 6258   6.928   5.213   7.482  0.2493 -0.7060 -0.5352
 1417SOL    HW2 6259   6.812   5.296   7.532 -0.5461 -1.2064 -1.5210
 1418SOL     OW 6260  10.996  10.818   4.444 -0.4445  0.2152  0.1005
 1418SOL    HW1 6261  10.997  10.871   4.523 -2.3856 -1.4210  1.3275
 1418SOL    HW2 6262  10.933  10.861   4.386 -1.2092 -0.1399  0.6540
 1419SOL     OW 6263   2.922   5.220   4.604  0.5786  0.3340  0.3971
 1419SOL    HW1 6264   2.934   5.221   4.509  1.4687 -0.0589  0.4918
 1419SOL    HW2 6265   3.008   5.243   4.639  0.9427 -1.8546  1.1213
 1420SOL     OW 6266   1.551   4.333   5.118 -0.0075  0.1735 -0.4634
 1420SOL    HW1 6267   1.541   4.295   5.031  0.2301 -0.6713 -0.1327
 1420SOL    HW2 6268   1.569   4.425   5.102 -1.2917  0.3109 -1.2656
 1421SOL     OW 6269   9.691   0.253   9.283 -0.0066 -0.2302 -0.0843
 1421SOL    HW1 6270   9.717   0.210   9.365  0.2863  1.5694  0.8153
 1421SOL    HW2 6271   9.762   0.314   9.265 -0.5873  0.1557 -1.1185
 1422SOL     OW 6272   0.104   4.512   0.939 -0.2914 -0.2709 -0.7152
 1422SOL    HW1 6273   0.116   4.477   0.850  1.4808 -1.2540 -0.1321
 1422SOL    HW2 6274   0.136   4.443   0.996  0.0629  0.9661  0.6334
 1423SOL     OW 6275   0.149   2.729   2.018  0.3723 -0.4023  0.0725
 1423SOL    HW1 6276   0.069   2.688   2.049  0.5416 -0.3241  0.6099
 1423SOL    HW2 6277   0.122   2.776   1.939 -0.2884  0.3515  0.7356
 1424SOL     OW 6278   4.912   8.787   8.652  0.3810  0.3914  0.2254
 1424SOL    HW1 6279   4.987   8.777   8.710 -0.4652  0.0169  1.2970
 1424SOL    HW2 6280   4.848   8.723   8.685 -1.1429  2.0167  0.5663
 1425SOL     OW 6281   1.389   3.898   2.835  0.6721  0.2693  0.2803
 1425SOL    HW1 6282   1.475   3.894   2.878  1.0581  0.6879 -0.4344
 1425SOL    HW2 6283   1.406   3.869   2.746 -0.0027  0.0246  0.2268
 1426SOL     OW 6284   9.306   6.838  10.400 -0.8694 -0.3759 -0.8311
 1426SOL    HW1 6285   9.296   6.810  10.309  0.7169 -0.6982 -0.9295
 1426SOL    HW2 6286   9.382   6.896  10.400 -0.2107 -1.1733  0.4281
 1427SOL     OW 6287   3.598   5.944  10.220 -0.1027  0.3592  0.3352
 1427SOL    HW1 6288   3.600   5.931  10.125 -2.8771 -0.0613  0.2572
 1427SOL    HW2 6289   3.658   6.016  10.236  2.2113 -1.0352 -1.4114
 1428SOL     OW 6290   7.205   7.711  10.902  0.2803 -0.0198  0.1337
 1428SOL    HW1 6291   7.231   7.680  10.989 -1.2995  0.1853  0.7143
 1428SOL    HW2 6292   7.110   7.693  10.898 -0.0614  1.8083 -0.7588
 1429SOL     OW 6293   6.305   6.417   3.866  0.4881 -0.0586 -0.2946
 1429SOL    HW1 6294   6.264   6.475   3.803  0.7162  0.6309  0.1826
 1429SOL    HW2 6295   6.360   6.474   3.920 -0.1148 -0.5366  0.8676
 1430SOL     OW 6296   2.982   7.002   0.264  0.0630 -0.3199  0.3394
 1430SOL    HW1 6297   2.978   6.962   0.351 -0.6828  0.8965  0.8900
 1430SOL    HW2 6298   3.027   7.085   0.278 -0.6658  0.1994 -0.3166
 1431SOL     OW 6299   8.139   3.332   2.960 -0.0421  0.1071 -0.2113
 1431SOL    HW1 6300   8.158   3.273   2.887  0.8761 -2.2533  1.8235
 1431SOL    HW2 6301   8.224   3.359   2.993 -0.3862 -0.3232  1.0928
 1432SOL     OW 6302   9.752   2.501   1.373 -0.3456  0.4667  0.0072
 1432SOL    HW1 6303   9.762   2.420   1.424  1.0293  2.0061  2.3499
 1432SOL    HW2 6304   9.812   2.491   1.299 -0.8921 -0.9895 -0.2764
 1433SOL     OW 6305   7.909   0.643   2.863 -0.2498 -0.0444 -0.3148
 1433SOL    HW1 6306   7.880   0.708   2.927  1.7605  0.9257 -0.3151
 1433SOL    HW2 6307   7.832   0.626   2.809 -1.1337  1.4812  0.4105
 1434SOL     OW 6308   9.236   2.203   2.414 -0.2961 -0.6951  0.2048
 1434SOL    HW1 6309   9.279   2.122   2.386  0.9967 -0.6370  1.8802
 1434SOL    HW2 6310   9.253   2.208   2.508 -1.6559  0.7643  0.4078
 1435SOL     OW 6311   2.381   0.579   3.736  0.5881 -0.0172 -0.3616
 1435SOL    HW1 6312   2.376   0.652   3.797  0.7235 -0.0997 -0.2520
 1435SOL    HW2 6313   2.404   0.619   3.652  1.3673 -0.0140 -0.1489
 1436SOL     OW 6314   2.901   1.747  10.762  0.3631  0.3175 -0.3159
 1436SOL    HW1 6315   2.993   1.763  10.778  0.7923 -0.8890 -1.3506
 1436SOL    HW2 6316   2.872   1.696  10.837  0.9499 -0.5991 -0.6894
 1437SOL     OW 6317  11.030   7.993   5.394 -0.2344  0.5208 -0.0637
 1437SOL    HW1 6318  11.056   7.919   5.448 -1.7405  1.2468  1.7766
 1437SOL    HW2 6319  10.951   7.964   5.349  0.2176  0.3927 -0.7784
 1438SOL     OW 6320   4.196   6.846   1.221 -0.0508 -0.2018 -0.2080
 1438SOL    HW1 6321   4.155   6.874   1.139 -1.8010 -0.8591  0.3880
 1438SOL    HW2 6322   4.141   6.773   1.251  0.1324  0.4660  1.8966
 1439SOL     OW 6323   2.414  10.286   8.905  0.2236 -0.2469  0.1185
 1439SOL    HW1 6324   2.329  10.271   8.947  0.3167 -1.0952  0.0295
 1439SOL    HW2 6325   2.414  10.379   8.883 -0.6573 -0.2232  0.1741
 1440SOL     OW 6326   5.493   1.372   2.107 -0.0241 -0.3944 -0.0171
 1440SOL    HW1 6327   5.465   1.373   2.198 -3.0338 -0.9339 -0.8505
 1440SOL    HW2 6328   5.522   1.462   2.090  0.1724 -0.1877  1.3137
 1441SOL     OW 6329  10.400   9.809   3.898  0.1819  0.0983 -0.1388
 1441SOL    HW1 6330  10.314   9.770   3.890 -0.7998  2.2629 -1.0631
 1441SOL    HW2 6331  10.459   9.736   3.917 -1.7812 -1.4740  0.1262
 1442SOL     OW 6332  10.817   1.753   0.668 -0.4936 -0.5823  0.0483
 1442SOL    HW1 6333  10.804   1.681   0.606 -0.0816 -0.3733 -0.2856
 1442SOL    HW2 6334  10.736   1.755   0.720 -1.2003 -0.2516 -1.0138
 1443SOL     OW 6335   7.161   2.880   1.205 -0.2373  0.1071 -0.1641
 1443SOL    HW1 6336   7.170   2.975   1.194 -2.1551  0.3498  0.1322
 1443SOL    HW2 6337   7.219   2.860   1.279  1.9393  0.6372 -1.6381
 1444SOL     OW 6338   1.381   4.553   8.848 -0.6849 -0.9375  0.2188
 1444SOL    HW1 6339   1.298   4.509   8.866 -1.1383 -0.5351 -0.7847
 1444SOL    HW2 6340   1.359   4.647   8.851 -0.3496 -0.8356 -0.4070
 1445SOL     OW 6341   2.425   9.156   2.096 -0.0249 -0.4214  0.4760
 1445SOL    HW1 6342   2.398   9.070   2.065 -1.7685  0.4835 -0.7118
 1445SOL    HW2 6343   2.399   9.159   2.188 -3.3759  0.0434 -0.3567
 1446SOL     OW 6344   1.837   6.945   1.697  0.3679 -0.0076 -0.3075
 1446SOL    HW1 6345   1.892   7.023   1.699  1.7512 -0.9585  2.3528
 1446SOL    HW2 6346   1.898   6.871   1.697 -0.8938 -1.2043 -2.8437
 1447SOL     OW 6347   2.184   0.589   8.026 -0.0853  0.3310 -0.1335
 1447SOL    HW1 6348   2.248   0.647   7.987 -0.2913  0.1815 -0.6998
 1447SOL    HW2 6349   2.105   0.602   7.974 -0.4671  0.3831  0.4457
 1448SOL     OW 6350   1.040   7.985   2.477 -0.0957 -0.2973 -0.1178
 1448SOL    HW1 6351   1.021   8.063   2.529  2.2001 -1.0791  2.0938
 1448SOL    HW2 6352   0.954   7.952   2.450 -1.2330  1.6159  0.9858
 1449SOL     OW 6353   2.011   3.974   3.119 -0.0856  1.0510  0.2738
 1449SOL    HW1 6354   2.076   3.969   3.189  0.2141  0.5105 -0.0291
 1449SOL    HW2 6355   1.935   3.926   3.153  0.0847  0.7307  0.2055
 1450SOL     OW 6356   3.647   4.686   8.991 -0.0022  0.3032  0.0194
 1450SOL    HW1 6357   3.652   4.769   9.039 -0.8185  0.4494 -0.1225
 1450SOL    HW2 6358   3.671   4.619   9.054 -1.1447  0.4852  0.6737
 1451SOL     OW 6359   1.913  11.084  10.301  0.2480  0.5773  0.0704
 1451SOL    HW1 6360   1.930  11.009  10.245  0.2439  0.6324 -0.0056
 1451SOL    HW2 6361   1.973  11.074  10.375 -0.2998  0.0877  0.4587
 1452SOL     OW 6362   0.461   9.674   4.575 -0.0781  0.8362 -0.0889
 1452SOL    HW1 6363   0.465   9.580   4.592  0.0870  0.6748 -0.9708
 1452SOL    HW2 6364   0.445   9.681   4.481 -2.0901  1.6711  0.2475
 1453SOL     OW 6365   4.141   9.977   9.990  0.0567 -0.0148  0.3145
 1453SOL    HW1 6366   4.085  10.045   9.953 -0.8848 -0.2252  1.3036
 1453SOL    HW2 6367   4.208  10.026  10.040 -0.6487  0.2017  1.0695
 1454SOL     OW 6368  10.823   9.687   0.690 -0.5697 -0.1913 -0.1592
 1454SOL    HW1 6369  10.789   9.758   0.745 -1.4465 -1.3039  0.7715
 1454SOL    HW2 6370  10.886   9.642   0.746  0.3420  0.1038 -0.9110
 1455SOL     OW 6371   7.301   8.071   1.079  0.2790  0.0151  0.8429
 1455SOL    HW1 6372   7.217   8.104   1.111 -0.3664  0.0685 -0.7647
 1455SOL    HW2 6373   7.361   8.082   1.152 -1.3169 -0.8938  2.3701
 1456SOL     OW 6374   0.037   5.470   2.895  0.1489 -0.6168  0.0365
 1456SOL    HW1 6375  -0.014   5.457   2.815  0.2380  2.6883 -0.6823
 1456SOL    HW2 6376  -0.027   5.461   2.966 -0.3795 -1.4348 -0.5261
 1457SOL     OW 6377   5.358   8.376   9.096  0.5492 -0.6455 -0.3943
 1457SOL    HW1 6378   5.410   8.416   9.166  1.3346 -1.6159 -0.4148
 1457SOL    HW2 6379   5.284   8.336   9.142  1.2269 -1.5560 -0.0644
 1458SOL     OW 6380   9.049   6.160   7.069  0.1476 -0.5621 -0.7637
 1458SOL    HW1 6381   9.027   6.079   7.022  0.8946  0.0848 -2.2951
 1458SOL    HW2 6382   9.123   6.136   7.124 -0.6099 -1.2889 -0.0346
 1459SOL     OW 6383   2.650   3.941  10.853  0.3761  0.1965 -0.3025
 1459SOL    HW1 6384   2.578   4.003  10.861  0.0141 -0.3693  1.1746
 1459SOL    HW2 6385   2.682   3.953  10.764 -2.5135 -0.6212 -1.5524
 1460SOL     OW 6386   8.031   3.959   0.259 -0.3865 -0.1789 -0.2451
 1460SOL    HW1 6387   8.014   4.050   0.234 -3.1075 -0.1164  1.4228
 1460SOL    HW2 6388   7.994   3.907   0.187  1.1009 -0.0245 -1.1619
 1461SOL     OW 6389   1.781   0.536   3.880 -0.0273  0.2980  0.2718
 1461SOL    HW1 6390   1.719   0.495   3.940  0.6221  0.2542  0.9232
 1461SOL    HW2 6391   1.770   0.489   3.798 -1.4500  0.8340  0.1207
 1462SOL     OW 6392   6.531   7.084   0.451  0.2243  0.5228 -0.1373
 1462SOL    HW1 6393   6.601   7.045   0.504  0.9446 -0.1070 -1.4906
 1462SOL    HW2 6394   6.571   7.163   0.413  0.3969 -0.1272 -1.3410
 1463SOL     OW 6395   6.432   4.681   1.418  0.2097 -0.1595 -0.4886
 1463SOL    HW1 6396   6.497   4.750   1.405 -0.0150  0.1246 -0.1211
 1463SOL    HW2 6397   6.396   4.697   1.505  0.4768 -1.0138 -0.2067
 1464SOL     OW 6398   4.085   4.230   4.489  0.1747  0.0899  0.1298
 1464SOL    HW1 6399   4.098   4.222   4.394  1.0019  1.6273  0.0752
 1464SOL    HW2 6400   4.035   4.152   4.513  2.7011 -2.0359 -1.0319
 1465SOL     OW 6401   0.113   8.523   5.491  0.0286 -1.0021  0.8256
 1465SOL    HW1 6402   0.085   8.487   5.575  0.0770 -1.3252  0.7050
 1465SOL    HW2 6403   0.203   8.552   5.507 -0.8099  1.3960  1.6292
 1466SOL     OW 6404   9.186   7.579  11.002  0.4858 -0.1534 -0.4205
 1466SOL    HW1 6405   9.270   7.624  11.013  0.1412  0.6127 -0.7984
 1466SOL    HW2 6406   9.139   7.632  10.938 -0.9107  0.3528  0.9577
 1467SOL     OW 6407   1.051   6.627   0.279 -0.0451  0.1656 -0.2789
 1467SOL    HW1 6408   1.017   6.556   0.334 -0.7257  1.1448  0.5997
 1467SOL    HW2 6409   1.139   6.644   0.313  0.1308 -0.2664 -0.5100
 1468SOL     OW 6410   9.621  10.135   0.850  0.0349 -0.0247 -0.3446
 1468SOL    HW1 6411   9.534  10.147   0.811 -0.9712  2.4887  2.2402
 1468SOL    HW2 6412   9.682  10.167   0.784 -1.3325  1.5686 -0.9024
 1469SOL     OW 6413   3.222   1.552   9.037 -0.4392 -0.2107  0.2016
 1469SOL    HW1 6414   3.243   1.566   8.945 -1.6163 -1.2705 -0.2506
 1469SOL    HW2 6415   3.209   1.457   9.045  1.8480 -0.4691  1.9615
 1470SOL     OW 6416  10.419  10.544   1.126  0.1223 -0.0313  0.4182
 1470SOL    HW1 6417  10.466  10.625   1.146 -1.6440  1.1307  0.0877
 1470SOL    HW2 6418  10.403  10.503   1.211  2.3109 -0.8667  0.5046
 1471SOL     OW 6419   0.689   6.009   5.994  0.1083  0.4930  0.2439
 1471SOL    HW1 6420   0.766   5.951   5.990  0.9444  1.2361  3.0340
 1471SOL    HW2 6421   0.723   6.096   5.974 -0.5614  0.4775 -1.0475
 1472SOL     OW 6422   0.582   8.576   5.047  0.5677 -0.1378  0.6974
 1472SOL    HW1 6423   0.654   8.546   5.103  1.5717  0.7131 -0.0850
 1472SOL    HW2 6424   0.626   8.614   4.971 -0.7164  0.6730  0.3347
 1473SOL     OW 6425   9.904   1.419   8.372  0.2524  0.0961  0.2861
 1473SOL    HW1 6426   9.980   1.411   8.314 -0.7735  0.4617 -1.1549
 1473SOL    HW2 6427   9.889   1.513   8.380 -0.2894  0.0183  0.2298
 1474SOL     OW 6428   4.527   3.997   6.803 -0.0534  0.0906 -0.3457
 1474SOL    HW1 6429   4.432   4.000   6.813 -0.3577  0.8488 -2.7825
 1474SOL    HW2 6430   4.545   3.911   6.764  0.3877 -0.3825  0.8453
 1475SOL     OW 6431   8.153   2.779   5.631 -0.0084 -0.3365 -0.1126
 1475SOL    HW1 6432   8.204   2.699   5.640 -1.0915 -0.9151  1.2159
 1475SOL    HW2 6433   8.081   2.755   5.572  0.7529  0.2426 -1.3138
 1476SOL     OW 6434   2.641   3.156   0.430 -0.8438 -0.0497  0.4083
 1476SOL    HW1 6435   2.650   3.251   0.425  0.1459 -0.1696 -0.8126
 1476SOL    HW2 6436   2.590   3.133   0.352 -0.8594 -0.5354  0.5576
 1477SOL     OW 6437  10.287   3.953   0.257  0.6022 -0.1492  0.1828
 1477SOL    HW1 6438  10.332   3.976   0.176  1.4794  1.9805  1.1941
 1477SOL    HW2 6439  10.194   3.948   0.233  0.9199 -0.4293 -1.0856
 1478SOL     OW 6440   0.671   3.835   2.358 -0.1376  0.3174  0.5239
 1478SOL    HW1 6441   0.726   3.783   2.416 -1.8897 -0.4424  1.5506
 1478SOL    HW2 6442   0.632   3.902   2.415 -2.1957 -0.6864  0.3796
 1479SOL     OW 6443   6.495   2.519   3.356  0.4941  0.3399 -0.0198
 1479SOL    HW1 6444   6.542   2.597   3.326 -0.1445  0.0901 -1.7452
 1479SOL    HW2 6445   6.500   2.458   3.283 -0.0921 -0.7735  0.8430
 1480SOL     OW 6446   5.107  10.417   9.594  0.4181 -1.1019 -0.2507
 1480SOL    HW1 6447   5.173  10.406   9.525 -1.8226 -2.3149 -2.3496
 1480SOL    HW2 6448   5.098  10.330   9.632  0.5558 -0.7635  0.5695
 1481SOL     OW 6449  10.256   3.733   9.644 -0.0382 -0.2968 -0.6441
 1481SOL    HW1 6450  10.297   3.648   9.632 -2.6224 -1.6126 -0.9580
 1481SOL    HW2 6451  10.268   3.777   9.559  2.1444  0.1156 -0.1747
 1482SOL     OW 6452  10.557   4.078   5.754 -0.3433 -0.3720  0.6557
 1482SOL    HW1 6453  10.595   4.050   5.837 -0.5762 -0.2450  0.8069
 1482SOL    HW2 6454  10.493   4.144   5.778  0.5942  0.7121  0.2576
 1483SOL     OW 6455  10.735   4.833   2.839 -0.4293  0.3287  0.0690
 1483SOL    HW1 6456  10.653   4.880   2.854 -0.9151 -0.7841  1.1509
 1483SOL    HW2 6457  10.792   4.862   2.910  0.1067  1.0602 -0.6522
 1484SOL     OW 6458   3.325   2.310  10.223  0.3001 -0.5496 -0.7077
 1484SOL    HW1 6459   3.405   2.257  10.227  1.0166  0.5906  1.6863
 1484SOL    HW2 6460   3.346   2.381  10.162  1.2737 -0.0760  0.1460
 1485SOL     OW 6461   7.549   4.206   6.682 -0.2030  0.4211 -0.3572
 1485SOL    HW1 6462   7.481   4.251   6.732  0.3220  1.1190 -0.2525
 1485SOL    HW2 6463   7.513   4.199   6.593 -0.3743  0.8796 -0.3296
 1486SOL     OW 6464   9.779   5.740   1.665  0.0228 -0.9240  0.3357
 1486SOL    HW1 6465   9.803   5.649   1.655  1.2204 -0.6819  0.8496
 1486SOL    HW2 6466   9.862   5.788   1.663 -0.6204  0.2030 -0.4220
 1487SOL     OW 6467   5.529   0.011   4.547  0.0126  0.3125  0.0310
 1487SOL    HW1 6468   5.492   0.076   4.487  0.4994  0.6190  0.0585
 1487SOL    HW2 6469   5.458  -0.052   4.561 -0.8322  1.4148  0.8769
 1488SOL     OW 6470   6.905   8.167   5.282 -0.1287 -0.7777  0.1942
 1488SOL    HW1 6471   6.813   8.145   5.292 -1.1260  1.4522 -2.6955
 1488SOL    HW2 6472   6.934   8.117   5.205  0.5410 -0.0989 -0.0091
 1489SOL     OW 6473  10.252   7.662   3.650 -0.2823 -0.1446 -0.5148
 1489SOL    HW1 6474  10.251   7.566   3.639 -1.2014 -0.4116  1.4514
 1489SOL    HW2 6475  10.174   7.681   3.702  0.0508  1.6576 -0.6077
 1490SOL     OW 6476  10.557   3.712  10.653  0.5605  0.6159 -0.5650
 1490SOL    HW1 6477  10.551   3.623  10.688  0.1398  0.3920 -1.1877
 1490SOL    HW2 6478  10.540   3.769  10.728  0.8149  0.1725 -0.1655
 1491SOL     OW 6479   8.412   2.796   6.371 -0.3021  0.2321 -0.2405
 1491SOL    HW1 6480   8.483   2.736   6.394 -1.7410 -1.0627  1.0156
 1491SOL    HW2 6481   8.448   2.883   6.390  0.6135 -0.4557  1.3518
 1492SOL     OW 6482   5.344   7.468   4.582  0.4386  0.5446 -0.1755
 1492SOL    HW1 6483   5.388   7.504   4.659  1.0811  1.2873 -0.8881
 1492SOL    HW2 6484   5.251   7.466   4.607  0.5496  1.4811  0.3451
 1493SOL     OW 6485   5.377   7.062   9.055 -0.3456  0.3299 -0.4690
 1493SOL    HW1 6486   5.409   7.125   8.991  1.6683  1.1577  1.2403
 1493SOL    HW2 6487   5.444   6.994   9.057  0.5897  1.2250  1.9633
 1494SOL     OW 6488   6.954   3.749   4.726 -0.2768  0.5255  0.7884
 1494SOL    HW1 6489   6.924   3.782   4.642 -0.8303  0.0407  0.7882
 1494SOL    HW2 6490   6.878   3.757   4.784  0.2530  1.3554  1.3964
 1495SOL     OW 6491   8.941   1.950   0.949 -0.2800  0.4624  0.3813
 1495SOL    HW1 6492   8.948   1.865   0.992 -0.5031 -0.5908 -1.5718
 1495SOL    HW2 6493   8.856   1.948   0.905  0.4377  0.9957 -1.0806
 1496SOL     OW 6494   0.856   5.348   1.821  0.0549  0.5799  0.0826
 1496SOL    HW1 6495   0.778   5.292   1.815  0.5417 -0.4889  2.4991
 1496SOL    HW2 6496   0.825   5.428   1.862  0.2475  0.0054  1.3980
 1497SOL     OW 6497   1.848   5.992   6.748  0.3425 -0.3728 -0.6930
 1497SOL    HW1 6498   1.778   6.022   6.805  0.5173  0.0899 -0.7206
 1497SOL    HW2 6499   1.929   6.013   6.795  0.4603 -1.3436 -0.4416
 1498SOL     OW 6500  10.917   4.388   0.861  0.1207  0.1534  0.0214
 1498SOL    HW1 6501  10.937   4.482   0.860  0.0196  0.1808  0.3705
 1498SOL    HW2 6502  10.998   4.346   0.836 -0.6226  0.4485 -3.3611
 1499SOL     OW 6503   2.184  10.162   8.962 -0.0136 -0.2713  0.4871
 1499SOL    HW1 6504   2.192  10.070   8.936 -1.9545 -0.4005  0.1817
 1499SOL    HW2 6505   2.109  10.164   9.021  0.0039  1.1311  0.5049
 1500SOL     OW 6506   3.698   5.220   2.470  0.0366  0.6148  0.0940
 1500SOL    HW1 6507   3.666   5.196   2.557 -1.7171  2.0083 -0.0913
 1500SOL    HW2 6508   3.624   5.265   2.429  1.3486  1.4470 -1.5106
 1501SOL     OW 6509   8.058   6.293   0.048  0.0402  0.1383 -0.1219
 1501SOL    HW1 6510   8.029   6.231  -0.020  0.0907  0.2893 -0.2807
 1501SOL    HW2 6511   8.100   6.364  -0.000  0.2589  0.1472  0.0819
 1502SOL     OW 6512   6.684  10.508   4.137 -0.7699  0.3886 -0.2353
 1502SOL    HW1 6513   6.687  10.555   4.053  0.1219  1.4430  0.3686
 1502SOL    HW2 6514   6.713  10.419   4.116  0.1893  0.8475 -0.9284
 1503SOL     OW 6515  11.063   1.229   1.216 -0.1873  0.8868  0.0450
 1503SOL    HW1 6516  11.057   1.263   1.305 -0.8482 -0.0698  0.3868
 1503SOL    HW2 6517  11.050   1.134   1.226 -0.6642  0.8125 -1.1101
 1504SOL     OW 6518   8.485   3.540   7.411 -0.1524 -0.2668  0.3107
 1504SOL    HW1 6519   8.465   3.611   7.350  1.7082  0.2696  0.2319
 1504SOL    HW2 6520   8.494   3.462   7.357  1.7208  0.2506 -0.2158
 1505SOL     OW 6521   4.031   9.699   4.583 -0.3044  0.0840  0.1189
 1505SOL    HW1 6522   3.983   9.666   4.507 -1.2780  0.1700  0.6907
 1505SOL    HW2 6523   4.064   9.621   4.627  0.8268  0.0511 -0.7308
 1506SOL     OW 6524   0.441  10.870   6.070  0.7038  0.3217 -0.6890
 1506SOL    HW1 6525   0.380  10.898   6.002 -1.4766 -0.0466  1.0230
 1506SOL    HW2 6526   0.479  10.951   6.103  2.5930  0.4733 -2.9095
 1507SOL     OW 6527   0.953   7.255   8.165  0.4567 -0.6696  0.1329
 1507SOL    HW1 6528   0.958   7.276   8.072 -0.9455 -0.5804  0.0663
 1507SOL    HW2 6529   0.964   7.340   8.209  0.3246 -0.5928  0.0202
 1508SOL     OW 6530   2.799   3.154   9.381  0.1331  0.1845 -0.2345
 1508SOL    HW1 6531   2.719   3.206   9.367  1.2068  2.5095  1.5502
 1508SOL    HW2 6532   2.792   3.124   9.472  1.9708  1.8505  0.5226
 1509SOL     OW 6533   2.038   5.665   5.789 -0.0270 -0.0698  0.4678
 1509SOL    HW1 6534   2.035   5.593   5.853  1.1618 -1.0459 -0.5170
 1509SOL    HW2 6535   2.126   5.661   5.753 -0.9154 -0.1738 -1.8940
 1510SOL     OW 6536   8.893   3.490   5.752  0.2465  0.6057 -0.0996
 1510SOL    HW1 6537   8.805   3.502   5.718  0.0274 -0.1609  0.1620
 1510SOL    HW2 6538   8.912   3.570   5.801  0.1014  1.2071 -1.0038
 1511SOL     OW 6539   8.853   5.513   8.292 -0.0755 -0.3274 -0.0271
 1511SOL    HW1 6540   8.803   5.455   8.234 -1.1128 -0.1813  0.7012
 1511SOL    HW2 6541   8.939   5.472   8.298 -0.4232 -1.1497 -0.4884
 1512SOL     OW 6542   1.733   4.451   7.933  0.3392 -0.2850 -0.4912
 1512SOL    HW1 6543   1.815   4.430   7.980  1.0001 -1.0038 -1.9073
 1512SOL    HW2 6544   1.737   4.545   7.920 -0.9360  0.3670  2.7839
 1513SOL     OW 6545  10.431   4.607   0.446  0.1167 -0.2349 -0.0702
 1513SOL    HW1 6546  10.359   4.632   0.504  1.1210  1.1453  0.6303
 1513SOL    HW2 6547  10.454   4.518   0.474  1.9024  1.0569  3.1500
 1514SOL     OW 6548   2.815   4.432   0.435 -0.1581 -0.2898 -0.0158
 1514SOL    HW1 6549   2.781   4.508   0.482 -0.0613  0.6469 -1.3802
 1514SOL    HW2 6550   2.910   4.437   0.449 -0.3088 -1.3730  1.5920
 1515SOL     OW 6551  10.482   3.609   2.308 -0.2376 -0.2776  0.6456
 1515SOL    HW1 6552  10.562   3.608   2.255 -1.6082 -2.9699 -1.6983
 1515SOL    HW2 6553  10.507   3.653   2.389  2.5886  2.2716 -1.3934
 1516SOL     OW 6554   1.128   9.126   0.734  0.1112 -0.1560  0.6943
 1516SOL    HW1 6555   1.199   9.086   0.683 -0.2686  0.6520 -0.4929
 1516SOL    HW2 6556   1.167   9.206   0.770  0.2643 -0.5330  1.3983
 1517SOL     OW 6557   8.948   6.253   7.683  0.0830 -0.8876  0.1118
 1517SOL    HW1 6558   8.929   6.162   7.661 -1.4138 -0.3224 -1.1283
 1517SOL    HW2 6559   8.973   6.251   7.775 -0.6607 -2.4466  0.3143
 1518SOL     OW 6560   9.145   3.460   3.959  0.2217  0.1760  0.0525
 1518SOL    HW1 6561   9.081   3.467   3.888 -1.0675  1.6584  1.2935
 1518SOL    HW2 6562   9.105   3.398   4.020  1.1120 -0.7272 -0.2526
 1519SOL     OW 6563   2.175   9.164   7.448  0.4422 -0.1348  0.1579
 1519SOL    HW1 6564   2.148   9.072   7.446  0.9406 -0.2730 -0.9233
 1519SOL    HW2 6565   2.267   9.162   7.475  0.4875  0.0385  0.0202
 1520SOL     OW 6566   0.698   4.207   8.574 -0.0646 -0.0598 -0.5387
 1520SOL    HW1 6567   0.718   4.207   8.481  1.4295 -2.9284 -0.3396
 1520SOL    HW2 6568   0.751   4.278   8.610  1.0152 -0.2966 -1.6016
 1521SOL     OW 6569   1.816  10.288   5.819  0.1143  0.5307  0.2707
 1521SOL    HW1 6570   1.857  10.299   5.733  2.1861 -0.2991  1.1018
 1521SOL    HW2 6571   1.839  10.367   5.867  0.0051  0.4287  0.4918
 1522SOL     OW 6572   0.069   2.889   0.049 -0.4386  0.1514 -0.2442
 1522SOL    HW1 6573   0.090   2.862  -0.041  1.1743 -1.4798  0.5516
 1522SOL    HW2 6574   0.144   2.941   0.077 -0.4034 -0.2918  0.5204
 1523SOL     OW 6575  10.173   2.949   3.600  0.2888 -0.0956 -0.2209
 1523SOL    HW1 6576  10.162   2.855   3.617  0.8843  0.0318  1.0051
 1523SOL    HW2 6577  10.249   2.974   3.653 -0.5676  1.3144  0.4041
 1524SOL     OW 6578   8.013   3.046  10.375  0.3837 -0.3071 -0.3696
 1524SOL    HW1 6579   7.999   3.089  10.459 -0.0038 -3.6450  1.4596
 1524SOL    HW2 6580   7.992   2.954  10.391 -0.1591 -1.0457 -4.2901
 1525SOL     OW 6581  10.661   2.594   8.941 -0.4213 -0.3957  0.4069
 1525SOL    HW1 6582  10.620   2.556   9.019 -0.7712  1.3665  1.1394
 1525SOL    HW2 6583  10.616   2.678   8.929 -0.7657 -0.8761 -2.0573
 1526SOL     OW 6584   3.218   0.659   2.100  0.3216  0.4931 -0.1992
 1526SOL    HW1 6585   3.272   0.738   2.101  1.7097 -0.3648 -1.6550
 1526SOL    HW2 6586   3.241   0.616   2.018 -0.2433 -1.5360  0.6497
 1527SOL     OW 6587   2.634   4.651   1.492  0.1426 -0.4216 -1.0482
 1527SOL    HW1 6588   2.540   4.655   1.513  0.7377 -0.9032  2.2813
 1527SOL    HW2 6589   2.664   4.741   1.500  0.7194 -0.7930  2.8179
 1528SOL     OW 6590   5.890   6.544   7.384 -0.2093  0.2575 -0.5463
 1528SOL    HW1 6591   5.910   6.620   7.439  0.1959  0.4381 -0.9340
 1528SOL    HW2 6592   5.795   6.543   7.377 -0.2897  0.0566  0.4019
 1529SOL     OW 6593   3.632   8.351   0.471  0.0246 -1.0797 -0.1118
 1529SOL    HW1 6594   3.652   8.370   0.562 -0.4519 -0.9505 -0.0301
 1529SOL    HW2 6595   3.582   8.270   0.473 -2.6529  0.4303  0.0623
 1530SOL     OW 6596   2.372   1.542   4.756  0.5527 -0.6736 -0.2070
 1530SOL    HW1 6597   2.420   1.567   4.835 -1.1695  2.7076 -0.0801
 1530SOL    HW2 6598   2.389   1.613   4.694 -2.6881 -0.2661 -0.7880
 1531SOL     OW 6599   0.476   2.776   9.384  0.5235 -0.2962  0.0156
 1531SOL    HW1 6600   0.496   2.848   9.444  1.3771 -1.3413  1.0293
 1531SOL    HW2 6601   0.395   2.802   9.341  0.9641  1.3912  0.1470
 1532SOL     OW 6602   9.200   4.669   7.875  0.0558 -0.1438 -0.4659
 1532SOL    HW1 6603   9.260   4.598   7.897  2.6674  1.9481 -0.2985
 1532SOL    HW2 6604   9.231   4.701   7.790  0.4437  2.1316  0.4422
 1533SOL     OW 6605   1.710   3.358   0.865 -0.2830 -0.8103 -0.3837
 1533SOL    HW1 6606   1.722   3.453   0.856  3.4719 -1.1658 -1.1001
 1533SOL    HW2 6607   1.727   3.341   0.958 -1.9064 -0.7563 -0.0477
 1534SOL     OW 6608   4.061   1.476   7.591 -0.3979  0.0959 -0.3671
 1534SOL    HW1 6609   4.050   1.385   7.564  0.0290  0.6353 -2.4743
 1534SOL    HW2 6610   4.147   1.501   7.558 -0.9381  1.5678 -0.7046
 1535SOL     OW 6611   8.832   1.799   9.205  0.3971  0.2659  0.1203
 1535SOL    HW1 6612   8.750   1.808   9.156  0.7679 -2.5016 -1.1368
 1535SOL    HW2 6613   8.899   1.786   9.138  1.7529  1.3501  1.1946
 1536SOL     OW 6614   4.690   3.055  10.700  0.2877  0.7338 -0.5744
 1536SOL    HW1 6615   4.649   3.068  10.786  2.4181 -0.4594  0.7180
 1536SOL    HW2 6616   4.692   3.142  10.661  0.5710  1.5765  1.2247
 1537SOL     OW 6617   1.046  10.845   2.183 -0.2110 -0.3818  0.3909
 1537SOL    HW1 6618   1.062  10.866   2.275  1.2269 -0.7092  0.2422
 1537SOL    HW2 6619   1.113  10.780   2.161 -0.1856  0.0755 -1.0301
 1538SOL     OW 6620   3.442   2.868   8.274  0.0425 -0.0527  0.1444
 1538SOL    HW1 6621   3.521   2.822   8.247 -0.0118 -1.0747  1.6263
 1538SOL    HW2 6622   3.470   2.925   8.345 -0.4669 -0.0937  0.3826
 1539SOL     OW 6623   2.116   8.514   0.853 -0.0185  0.1334 -0.0022
 1539SOL    HW1 6624   2.161   8.597   0.863  2.6261 -1.1974 -0.0043
 1539SOL    HW2 6625   2.149   8.478   0.770 -0.6228 -1.1823  0.2898
 1540SOL     OW 6626   0.863   4.686  10.708 -0.1094 -0.0359  0.6419
 1540SOL    HW1 6627   0.802   4.625  10.748 -2.2489  1.5446 -0.0520
 1540SOL    HW2 6628   0.847   4.679  10.614 -1.2851  2.3814  0.5997
 1541SOL     OW 6629   5.285   2.197   5.985  0.2966  0.7204 -0.1130
 1541SOL    HW1 6630   5.261   2.136   5.916  1.0189  1.8454 -1.4084
 1541SOL    HW2 6631   5.311   2.277   5.939  1.2418  1.3623  1.4409
 1542SOL     OW 6632   6.882   8.782   1.247  0.1686  0.3990 -0.2340
 1542SOL    HW1 6633   6.810   8.744   1.197  0.0430 -0.4323  0.5402
 1542SOL    HW2 6634   6.930   8.836   1.184 -1.5776  1.5991 -0.5736
 1543SOL     OW 6635   1.854   0.303  10.960 -0.1829  0.2315  0.1144
 1543SOL    HW1 6636   1.883   0.213  10.976 -2.3808 -0.7971 -1.1803
 1543SOL    HW2 6637   1.935   0.353  10.950  1.1048 -1.7903 -0.1084
 1544SOL     OW 6638  10.498   4.654   0.159  0.3554 -0.2308 -0.1345
 1544SOL    HW1 6639  10.482   4.652   0.253  1.8409 -0.0137  0.1403
 1544SOL    HW2 6640  10.591   4.637   0.150  0.4160  0.6703 -1.5177
 1545SOL     OW 6641  10.458   6.765  10.242 -0.1581  0.1616 -0.0678
 1545SOL    HW1 6642  10.478   6.852  10.277  0.0030  0.6451 -1.3040
 1545SOL    HW2 6643  10.544   6.726  10.228 -0.1957  0.3537 -0.8399
 1546SOL     OW 6644   9.795   2.826   3.471 -0.2532  0.3124  0.6483
 1546SOL    HW1 6645   9.784   2.888   3.399  1.1909  1.0688  1.0440
 1546SOL    HW2 6646   9.749   2.866   3.545 -1.6590 -0.4210  0.1919
 1547SOL     OW 6647   2.666   0.590   0.368 -0.1409  0.3253  0.0275
 1547SOL    HW1 6648   2.604   0.559   0.434 -0.5544  0.3902 -0.3287
 1547SOL    HW2 6649   2.626   0.668   0.331 -0.1513  0.0075 -0.6576
 1548SOL     OW 6650   3.550   9.446   8.182  0.1482 -0.3639  0.0270
 1548SOL    HW1 6651   3.590   9.523   8.141  0.3116 -0.8513 -0.7418
 1548SOL    HW2 6652   3.614   9.417   8.247  0.5958 -0.5280 -0.4810
 1549SOL     OW 6653   6.483   5.985   9.750  0.2713 -0.6977 -0.0729
 1549SOL    HW1 6654   6.417   6.051   9.729 -2.1614 -2.4015  1.5656
 1549SOL    HW2 6655   6.508   6.005   9.840  1.3193 -0.6506 -0.3619
 1550SOL     OW 6656   5.294   5.907   1.353 -0.1047 -0.8580  0.2478
 1550SOL    HW1 6657   5.360   5.872   1.414  0.3692 -0.6294 -0.1315
 1550SOL    HW2 6658   5.345   5.944   1.282 -0.6354 -0.2048  0.2042
 1551SOL     OW 6659   2.284   5.918   3.492 -0.2386  0.4258 -0.3348
 1551SOL    HW1 6660   2.315   5.972   3.565  1.7050 -0.3264 -0.5369
 1551SOL    HW2 6661   2.299   5.828   3.521 -0.9155  0.0642 -1.0631
 1552SOL     OW 6662   2.888   5.456   6.180 -0.3051 -0.2604 -0.1458
 1552SOL    HW1 6663   2.927   5.512   6.113  1.6614 -0.6764  0.5703
 1552SOL    HW2 6664   2.941   5.377   6.179 -1.5712 -1.1501  0.4669
 1553SOL     OW 6665   9.126   3.351   3.593  0.1516  0.0340 -0.1459
 1553SOL    HW1 6666   9.154   3.307   3.673 -1.8319  0.9844  1.1526
 1553SOL    HW2 6667   9.200   3.407   3.569  0.6676 -0.0393  1.2082
 1554SOL     OW 6668   1.282   1.291   8.418 -0.1989 -0.8770 -0.2332
 1554SOL    HW1 6669   1.259   1.249   8.335  0.2780 -1.8918  0.1269
 1554SOL    HW2 6670   1.234   1.242   8.485 -0.2223 -0.3648  0.1324
 1555SOL     OW 6671   9.958   8.440   4.131  0.1310  0.6380 -0.5771
 1555SOL    HW1 6672   9.969   8.535   4.130 -0.0220  0.6685 -2.3074
 1555SOL    HW2 6673  10.022   8.408   4.068  0.2937 -0.4397  0.1079
 1556SOL     OW 6674   4.490   5.770   9.834 -0.2129  0.2062 -0.2705
 1556SOL    HW1 6675   4.419   5.744   9.776 -1.0333 -0.9633  1.2192
 1556SOL    HW2 6676   4.456   5.845   9.882  0.2648  0.8215 -0.8674
 1557SOL     OW 6677   3.627   3.477   0.064 -0.1834  0.1085 -0.2574
 1557SOL    HW1 6678   3.586   3.442  -0.015 -1.7188 -0.9059  0.9214
 1557SOL    HW2 6679   3.614   3.410   0.130  1.1515  0.8898  0.8594
 1558SOL     OW 6680   5.832   8.396   0.137 -0.0382  0.0901 -0.1272
 1558SOL    HW1 6681   5.751   8.411   0.088  0.3777  1.2941 -0.4875
 1558SOL    HW2 6682   5.804   8.347   0.215 -1.3101  1.4840  0.3459
 1559SOL     OW 6683   5.205   2.201   2.180  0.5763  0.1735  0.2814
 1559SOL    HW1 6684   5.136   2.226   2.120  0.6621  1.3042  0.6406
 1559SOL    HW2 6685   5.178   2.237   2.265  1.8517  1.1013  0.3150
 1560SOL     OW 6686   3.007   9.514   2.750 -0.0215 -0.1384 -0.3357
 1560SOL    HW1 6687   3.010   9.608   2.733  0.5617  0.3745  2.1195
 1560SOL    HW2 6688   3.097   9.484   2.738  0.5673  0.3799  2.1571
 1561SOL     OW 6689  10.258   9.283   2.423  0.1518 -0.2296  0.1217
 1561SOL    HW1 6690  10.175   9.237   2.437  0.7048 -1.0831  0.7458
 1561SOL    HW2 6691  10.240   9.374   2.447 -0.6910 -0.3294 -0.1117
 1562SOL     OW 6692   2.924   7.155   8.427 -0.3331 -0.2143  0.4729
 1562SOL    HW1 6693   2.830   7.172   8.430 -0.7787 -2.4746  1.0229
 1562SOL    HW2 6694   2.955   7.175   8.515 -0.1088  1.2789  0.0849
 1563SOL     OW 6695   9.059   1.457   6.163 -0.3166 -0.3059  0.1442
 1563SOL    HW1 6696   9.145   1.499   6.162 -0.3644 -0.2140 -0.1178
 1563SOL    HW2 6697   9.052   1.419   6.251 -0.5457  0.7940  0.6173
 1564SOL     OW 6698  10.808   8.280   6.967 -0.3968 -0.4970 -0.1116
 1564SOL    HW1 6699  10.873   8.319   6.909 -0.6158  0.2519  0.1389
 1564SOL    HW2 6700  10.758   8.354   7.001  0.3310 -0.8189  1.7797
 1565SOL     OW 6701   9.863   7.944   9.503 -0.5266 -0.3562 -0.2778
 1565SOL    HW1 6702   9.780   7.985   9.525 -0.2715  0.3954 -0.6929
 1565SOL    HW2 6703   9.860   7.859   9.546 -1.3150 -0.1462  0.0915
 1566SOL     OW 6704   3.212   8.937   3.924 -0.4356  0.1930  0.5381
 1566SOL    HW1 6705   3.284   8.874   3.927  0.0735  0.6340 -1.3191
 1566SOL    HW2 6706   3.253   9.019   3.896 -1.6856  0.3812 -0.8365
 1567SOL     OW 6707  10.663   0.732   4.726 -0.3128 -0.4755 -0.2754
 1567SOL    HW1 6708  10.726   0.732   4.798 -1.6359 -0.8421  0.9457
 1567SOL    HW2 6709  10.648   0.825   4.706  3.0319 -0.3178 -2.9117
 1568SOL     OW 6710   1.748   2.588   2.634 -0.2207  0.1445  0.6937
 1568SOL    HW1 6711   1.813   2.620   2.697  1.1362 -0.2731 -0.4514
 1568SOL    HW2 6712   1.729   2.499   2.663 -0.0964  0.1817  0.8889
 1569SOL     OW 6713   5.253   6.874   2.835 -0.1829  0.3930  0.1486
 1569SOL    HW1 6714   5.276   6.941   2.770  2.0650  1.1126  1.5435
 1569SOL    HW2 6715   5.317   6.805   2.822 -0.7708 -0.2328  0.5053
 1570SOL     OW 6716   1.106   1.817   5.297  0.6018  0.0471  0.1673
 1570SOL    HW1 6717   1.135   1.862   5.376  0.6636 -0.1525  0.2586
 1570SOL    HW2 6718   1.032   1.869   5.265 -0.7380 -0.9991  1.4657
 1571SOL     OW 6719   0.268   7.639  10.155  0.2146 -0.3760  0.0248
 1571SOL    HW1 6720   0.347   7.691  10.144  0.5503 -0.7324  0.7334
 1571SOL    HW2 6721   0.198   7.695  10.121  0.7195  0.0758 -0.2867
 1572SOL     OW 6722   8.872   0.580   5.609 -0.5430 -0.0111 -0.1991
 1572SOL    HW1 6723   8.944   0.581   5.672 -0.0170  0.1310 -0.7894
 1572SOL    HW2 6724   8.915   0.580   5.523 -1.2361  0.9564 -0.5739
 1573SOL     OW 6725  10.572  10.214   8.136  0.0173 -0.0464  0.4446
 1573SOL    HW1 6726  10.558  10.121   8.152 -1.7034  0.2955  1.1707
 1573SOL    HW2 6727  10.666  10.222   8.120  0.5916 -1.5742  2.6397
 1574SOL     OW 6728   1.206  10.709   4.712  0.8173 -0.0537  0.2559
 1574SOL    HW1 6729   1.294  10.703   4.748  0.0516 -0.0728  2.2825
 1574SOL    HW2 6730   1.170  10.789   4.750  0.2151  0.4146 -1.2150
 1575SOL     OW 6731   4.276   0.915   7.883  0.0104 -0.3637  0.5663
 1575SOL    HW1 6732   4.300   0.950   7.797  1.1991 -0.9185  0.6561
 1575SOL    HW2 6733   4.223   0.838   7.863  1.0711 -1.0457  0.2956
 1576SOL     OW 6734  10.970   4.001   0.596  1.0407  0.1753  0.4523
 1576SOL    HW1 6735  10.875   4.002   0.587  1.1275 -0.5419 -0.7367
 1576SOL    HW2 6736  10.995   3.910   0.580  2.1021  0.7628 -1.4482
 1577SOL     OW 6737   2.323   1.815   2.646  0.3652 -0.1117 -0.1635
 1577SOL    HW1 6738   2.314   1.756   2.720  1.6333  0.9735  0.9105
 1577SOL    HW2 6739   2.325   1.903   2.684  1.5550  0.4525 -1.3926
 1578SOL     OW 6740   3.617   3.268   3.496 -0.0994  0.2365  0.3440
 1578SOL    HW1 6741   3.578   3.199   3.442  2.2052 -1.7234  1.0213
 1578SOL    HW2 6742   3.709   3.272   3.468  0.3874  1.4137  1.9293
 1579SOL     OW 6743   4.263   9.891   1.710 -0.3895 -0.7295 -0.7924
 1579SOL    HW1 6744   4.317   9.948   1.764  0.6240  0.3757 -2.8696
 1579SOL    HW2 6745   4.232   9.824   1.770 -1.0537  1.5633  1.6298
 1580SOL     OW 6746   0.409   3.242   8.573 -0.2626  0.3466  0.7773
 1580SOL    HW1 6747   0.392   3.198   8.656 -0.7125  0.3566  0.6900
 1580SOL    HW2 6748   0.471   3.312   8.596 -0.1876  0.1894  1.0579
 1581SOL     OW 6749   7.258   5.424   3.666  0.0112  0.1460  0.1547
 1581SOL    HW1 6750   7.205   5.411   3.587 -0.2524 -3.0436  0.7431
 1581SOL    HW2 6751   7.201   5.474   3.725 -1.5934 -1.3704 -0.0364
 1582SOL     OW 6752   2.634  10.117   2.519  0.6718 -0.1848  0.1007
 1582SOL    HW1 6753   2.621  10.039   2.573  1.2718 -0.8877 -0.7431
 1582SOL    HW2 6754   2.557  10.171   2.535  0.4813 -0.7273  1.0690
 1583SOL     OW 6755   4.798  10.765   3.257  0.7818 -0.2088  0.2933
 1583SOL    HW1 6756   4.781  10.824   3.184  1.9727 -2.1933 -1.7336
 1583SOL    HW2 6757   4.874  10.714   3.229 -0.5193 -3.0905  1.5807
 1584SOL     OW 6758   6.300   4.280   7.996 -0.2456 -0.1650  0.1287
 1584SOL    HW1 6759   6.377   4.266   8.051 -0.0043  1.0977  0.1405
 1584SOL    HW2 6760   6.254   4.353   8.036 -1.8368 -1.2971  0.4965
 1585SOL     OW 6761   1.323   8.235   4.070  0.1355 -0.0007 -0.4666
 1585SOL    HW1 6762   1.323   8.159   4.128  2.2535  0.8758  0.7730
 1585SOL    HW2 6763   1.348   8.200   3.984  1.0074 -0.7164  0.0758
 1586SOL     OW 6764   3.390   9.899   6.517 -0.0058  0.4186 -0.0668
 1586SOL    HW1 6765   3.375   9.848   6.437  0.9165  0.5559 -0.3398
 1586SOL    HW2 6766   3.484   9.890   6.534  0.4781  3.0567 -0.8466
 1587SOL     OW 6767   5.101   1.978   2.559 -0.3126 -0.2069  0.1273
 1587SOL    HW1 6768   5.184   1.933   2.579 -0.6772 -0.3420  1.4301
 1587SOL    HW2 6769   5.062   1.925   2.490  0.5820 -0.2707 -0.3496
 1588SOL     OW 6770   1.774   5.661   1.808 -0.0023  0.3027 -0.4235
 1588SOL    HW1 6771   1.784   5.724   1.879  0.5540 -1.1995  0.8750
 1588SOL    HW2 6772   1.776   5.714   1.728 -2.3173  2.2399  0.6941
 1589SOL     OW 6773   5.916   4.793   4.212 -0.3609 -0.0605 -0.2802
 1589SOL    HW1 6774   5.938   4.802   4.304 -1.0105  1.8605 -0.2602
 1589SOL    HW2 6775   5.949   4.873   4.171 -3.5214  1.0741 -0.9394
 1590SOL     OW 6776   3.017   9.710   7.899 -0.3852 -0.2552 -0.1225
 1590SOL    HW1 6777   3.105   9.691   7.931  0.5167  0.9510 -1.7582
 1590SOL    HW2 6778   2.962   9.706   7.977  1.0091 -1.5367  0.8521
 1591SOL     OW 6779   9.127   8.667   2.847  0.2915 -0.5156 -0.0409
 1591SOL    HW1 6780   9.058   8.651   2.783  0.4304  0.2292 -0.3791
 1591SOL    HW2 6781   9.089   8.638   2.931 -0.9332  1.1252  0.0099
 1592SOL     OW 6782  10.079   1.294  10.845 -0.4303  0.0460 -0.1783
 1592SOL    HW1 6783  10.078   1.300  10.750 -1.7362 -1.8103 -0.3356
 1592SOL    HW2 6784   9.987   1.282  10.870  0.0877 -1.7862  1.0828
 1593SOL     OW 6785   3.386   7.403   3.126  0.7365 -1.0189  0.5387
 1593SOL    HW1 6786   3.314   7.342   3.108  0.5331 -0.6190 -0.0160
 1593SOL    HW2 6787   3.343   7.477   3.170  0.3790  0.3130 -1.8993
 1594SOL     OW 6788   9.799   3.571  10.660  0.2707 -0.1443 -0.2226
 1594SOL    HW1 6789   9.778   3.636  10.592 -0.5471 -0.5146 -0.3395
 1594SOL    HW2 6790   9.718   3.522  10.671  0.7551 -0.8619  0.1828
 1595SOL     OW 6791   2.467   1.593  10.743  0.0581 -0.2001  0.4489
 1595SOL    HW1 6792   2.529   1.662  10.721  1.3306 -1.2183  0.6966
 1595SOL    HW2 6793   2.382   1.628  10.717  1.0101  0.1214 -2.6878
 1596SOL     OW 6794   0.379   7.094   1.418  0.7512  0.4133 -0.1345
 1596SOL    HW1 6795   0.413   7.182   1.399  0.2192  0.8488  0.8699
 1596SOL    HW2 6796   0.327   7.071   1.341 -2.0705  2.4910  1.0135
 1597SOL     OW 6797   9.248  10.766   3.665 -0.2927 -0.3660 -0.0965
 1597SOL    HW1 6798   9.270  10.703   3.733 -0.0791 -2.4744 -2.0108
 1597SOL    HW2 6799   9.323  10.826   3.664 -0.1852 -0.4447  1.3253
 1598SOL     OW 6800   3.467   1.581   3.261  0.0825  0.2805 -0.0933
 1598SOL    HW1 6801   3.503   1.670   3.249  0.2603  0.4192  1.2614
 1598SOL    HW2 6802   3.487   1.536   3.179 -0.4897  1.6489 -1.0221
 1599SOL     OW 6803   9.364   3.668   0.856 -0.2559  0.0899  0.1977
 1599SOL    HW1 6804   9.389   3.613   0.930 -1.3998  0.7758  1.1223
 1599SOL    HW2 6805   9.286   3.715   0.885 -0.9509  0.1358 -1.5626
 1600SOL     OW 6806   3.161   4.018   2.551  0.2354  0.1951  0.0401
 1600SOL    HW1 6807   3.187   3.954   2.617  0.9773  1.3551  0.9053
 1600SOL    HW2 6808   3.179   4.103   2.591  0.0479  0.9425 -1.3890
 1601SOL     OW 6809   2.775   5.461   8.763  0.8109 -0.0861  0.1955
 1601SOL    HW1 6810   2.790   5.424   8.676  0.6205  1.0939 -0.3573
 1601SOL    HW2 6811   2.857   5.506   8.784 -0.2103  2.3582 -0.7877
 1602SOL     OW 6812   9.410   6.062   6.231 -0.2852  0.3239  0.0200
 1602SOL    HW1 6813   9.466   6.111   6.291 -1.4849  1.7356  0.0438
 1602SOL    HW2 6814   9.321   6.093   6.250 -1.2566 -2.5220  0.6490
 1603SOL     OW 6815   3.166   5.656   5.682  0.5002  0.0384 -0.1670
 1603SOL    HW1 6816   3.091   5.644   5.741 -0.4520 -0.1564 -1.3664
 1603SOL    HW2 6817   3.208   5.570   5.680 -0.2511 -0.3327 -0.7755
 1604SOL     OW 6818   5.913   0.450   0.279  0.2223  0.2999  0.2726
 1604SOL    HW1 6819   5.908   0.544   0.293 -0.1469  0.3559 -0.1770
 1604SOL    HW2 6820   5.862   0.436   0.199 -1.1719 -0.4817  1.2567
 1605SOL     OW 6821   8.206   4.262   3.892 -0.4309  0.3018 -0.1001
 1605SOL    HW1 6822   8.146   4.334   3.912 -1.4192 -0.3232 -0.7000
 1605SOL    HW2 6823   8.254   4.247   3.973 -2.5338 -0.5167  1.0624
 1606SOL     OW 6824   1.943   1.034   8.452 -0.2938  0.1489  0.0200
 1606SOL    HW1 6825   1.975   0.991   8.373 -0.6338 -0.5918  0.2821
 1606SOL    HW2 6826   1.996   0.997   8.522  0.0434  0.8435  0.1416
 1607SOL     OW 6827   8.353   5.856   2.206  0.2953  0.1145  0.4114
 1607SOL    HW1 6828   8.344   5.938   2.255  0.4299  0.1563  0.3662
 1607SOL    HW2 6829   8.419   5.806   2.254 -2.3297 -1.5502  2.6094
 1608SOL     OW 6830   3.197   9.583   2.298 -0.1904 -0.2975 -0.0574
 1608SOL    HW1 6831   3.195   9.548   2.387 -1.6719  0.3708  0.2121
 1608SOL    HW2 6832   3.284   9.563   2.265  0.8466  0.5646  1.9989
 1609SOL     OW 6833   5.838  10.593   4.625  0.2743  0.1513  0.1749
 1609SOL    HW1 6834   5.769  10.654   4.598  0.3160  0.5677  0.9686
 1609SOL    HW2 6835   5.826  10.516   4.569 -0.6070  0.3671  0.0527
 1610SOL     OW 6836   4.648   0.799   3.781  0.9115  0.0217 -0.1256
 1610SOL    HW1 6837   4.581   0.762   3.838  1.6890  0.6984  1.2779
 1610SOL    HW2 6838   4.633   0.759   3.695 -0.5957 -0.6374  0.4358
 1611SOL     OW 6839   4.227  10.236   3.117  0.3293 -0.0856  0.5976
 1611SOL    HW1 6840   4.273  10.251   3.034 -0.0235  0.4350  0.4904
 1611SOL    HW2 6841   4.236  10.318   3.165  1.5602 -0.7696  1.5952
 1612SOL     OW 6842   0.007   9.107   9.422 -0.7265 -0.3203  0.2556
 1612SOL    HW1 6843  -0.075   9.153   9.402 -0.0737  0.2937 -1.1752
 1612SOL    HW2 6844   0.006   9.097   9.517 -2.3023 -0.0370  0.2998
 1613SOL     OW 6845   1.464   3.800   7.614  0.3441  0.1052  0.3495
 1613SOL    HW1 6846   1.417   3.883   7.607  0.1309  0.0601  1.1203
 1613SOL    HW2 6847   1.405   3.735   7.576 -0.0843  0.0998  1.0126
 1614SOL     OW 6848   4.389   2.529   5.334 -0.5243 -0.1783  0.7213
 1614SOL    HW1 6849   4.431   2.449   5.364 -0.6876 -0.2103  0.8666
 1614SOL    HW2 6850   4.296   2.509   5.335 -0.4959 -0.4004 -0.4471
 1615SOL     OW 6851   8.979   4.944   0.157 -0.4337  0.6946 -0.0647
 1615SOL    HW1 6852   8.972   4.924   0.063 -0.0546 -0.1817  0.0875
 1615SOL    HW2 6853   9.064   4.986   0.166  1.1023 -2.3060  0.3790
 1616SOL     OW 6854   5.459   6.737   7.668  0.3032  0.1286  0.1082
 1616SOL    HW1 6855   5.465   6.831   7.683 -0.3324  0.2813 -0.5570
 1616SOL    HW2 6856   5.522   6.699   7.730  1.3356  1.0428 -0.3502
 1617SOL     OW 6857   4.651   0.596   8.829 -0.1981  0.7057 -0.4877
 1617SOL    HW1 6858   4.565   0.638   8.834 -0.6763 -0.1395 -1.2222
 1617SOL    HW2 6859   4.646   0.541   8.750  0.9314  0.4565 -0.4045
 1618SOL     OW 6860   4.250   5.269  10.066 -0.2322  0.5271  0.2675
 1618SOL    HW1 6861   4.219   5.184  10.034  0.4386 -0.2259  1.5496
 1618SOL    HW2 6862   4.293   5.250  10.149 -2.0717  2.4233  1.7836
 1619SOL     OW 6863   2.685   0.646   8.745 -0.0214 -0.4989  1.0061
 1619SOL    HW1 6864   2.650   0.731   8.720 -0.1600 -0.2426  2.0031
 1619SOL    HW2 6865   2.725   0.661   8.831  0.6335 -1.2692  0.8509
 1620SOL     OW 6866   8.744   2.364   4.227  0.3114  0.5247  0.2608
 1620SOL    HW1 6867   8.715   2.288   4.177  0.9364  1.1585 -1.1250
 1620SOL    HW2 6868   8.679   2.374   4.296  1.0171 -2.1803  1.4404
 1621SOL     OW 6869   3.190   6.402   8.528  0.4052  0.2671 -0.0303
 1621SOL    HW1 6870   3.161   6.403   8.619 -1.3131  0.2241 -0.5481
 1621SOL    HW2 6871   3.176   6.492   8.497  0.3473  0.1216 -0.4367
 1622SOL     OW 6872   0.910   9.922   3.495 -0.0237  0.5101 -0.2533
 1622SOL    HW1 6873   0.971   9.991   3.521  1.4585 -0.9353  0.2879
 1622SOL    HW2 6874   0.866   9.957   3.418  0.9063  1.9362 -0.1855
 1623SOL     OW 6875   2.462   4.941   2.883  0.2317 -0.2570 -0.0282
 1623SOL    HW1 6876   2.473   4.878   2.954  2.0201  1.0202  0.9318
 1623SOL    HW2 6877   2.430   4.890   2.810 -0.2490 -1.9018  1.2695
 1624SOL     OW 6878   0.518   2.047   0.475  0.4093 -0.1184 -0.2372
 1624SOL    HW1 6879   0.506   1.985   0.403 -0.2125 -0.7147  0.3600
 1624SOL    HW2 6880   0.608   2.079   0.465  1.2866 -2.2014  0.2399
 1625SOL     OW 6881   3.813   4.228   1.723  0.2640 -0.1731  0.3163
 1625SOL    HW1 6882   3.758   4.214   1.645  0.6082 -0.7483  0.1728
 1625SOL    HW2 6883   3.901   4.203   1.695  0.0852 -2.1575  1.4159
 1626SOL     OW 6884  10.815   7.713   0.168  0.3395  0.3722  0.1456
 1626SOL    HW1 6885  10.872   7.660   0.223 -0.0590  0.1144  0.3186
 1626SOL    HW2 6886  10.855   7.710   0.081  1.1951  1.1198  0.5034
 1627SOL     OW 6887   3.741   6.168  10.421 -0.1443  0.1134  0.4556
 1627SOL    HW1 6888   3.817   6.177  10.480 -0.7764  0.1263  1.2873
 1627SOL    HW2 6889   3.740   6.250  10.371  0.8246 -0.1958 -0.1012
 1628SOL     OW 6890   7.025   6.725   9.960 -0.0404  0.3966 -0.1627
 1628SOL    HW1 6891   6.948   6.687   9.919 -0.0974  0.2309  0.0963
 1628SOL    HW2 6892   6.993   6.768  10.039 -0.0631  1.5064 -0.7556
 1629SOL     OW 6893   0.728   1.371   9.253 -0.3663  0.7192  0.1185
 1629SOL    HW1 6894   0.787   1.420   9.310  0.0837 -0.6574  0.8609
 1629SOL    HW2 6895   0.780   1.298   9.221 -1.4665 -0.1430  0.2481
 1630SOL     OW 6896   1.343   0.570   0.438 -0.2628  0.0698 -0.1604
 1630SOL    HW1 6897   1.428   0.529   0.420 -0.0067  0.0426  1.0208
 1630SOL    HW2 6898   1.289   0.547   0.363  0.7400 -0.0093 -0.8785
 1631SOL     OW 6899   7.390   1.073   9.218 -0.1556  0.2084 -0.2591
 1631SOL    HW1 6900   7.425   1.158   9.246  1.4797 -1.5287  3.7186
 1631SOL    HW2 6901   7.310   1.061   9.270  0.8992 -1.5592  1.0829
 1632SOL     OW 6902   9.219   5.985   2.120 -0.6016 -0.0959  0.1085
 1632SOL    HW1 6903   9.224   5.971   2.025 -1.0494  0.7558 -0.0405
 1632SOL    HW2 6904   9.151   6.050   2.132  0.0144  0.4165  0.9589
 1633SOL     OW 6905   1.952   4.437   3.570  0.4037 -0.1152 -0.0409
 1633SOL    HW1 6906   2.017   4.384   3.523  0.2159 -1.1510  0.8466
 1633SOL    HW2 6907   1.949   4.399   3.657 -0.2766  0.9135  0.3916
 1634SOL     OW 6908   1.502   2.478   0.699  0.1692 -0.2859 -0.0340
 1634SOL    HW1 6909   1.441   2.526   0.756 -0.3236 -0.6749 -0.2275
 1634SOL    HW2 6910   1.582   2.530   0.702 -0.5316  0.8937 -0.7055
 1635SOL     OW 6911   1.411   1.375   0.355  0.3071  0.3298 -0.5512
 1635SOL    HW1 6912   1.357   1.355   0.279 -0.2037 -1.4960  0.2461
 1635SOL    HW2 6913   1.494   1.405   0.318 -0.6764  1.6447 -1.7947
 1636SOL     OW 6914   8.173   3.359   3.765 -0.5103 -0.4135  0.3128
 1636SOL    HW1 6915   8.125   3.277   3.752  0.6512 -1.0956  0.2530
 1636SOL    HW2 6916   8.169   3.374   3.860 -0.6811 -0.5592  0.3302
 1637SOL     OW 6917   0.515   4.307   1.988 -0.2123 -0.2870 -0.4860
 1637SOL    HW1 6918   0.564   4.226   1.974  0.1339 -0.1526 -0.1000
 1637SOL    HW2 6919   0.447   4.284   2.052 -0.2929 -0.3412 -0.5920
 1638SOL     OW 6920   3.753   1.209   9.310  0.4521 -0.1419 -0.0428
 1638SOL    HW1 6921   3.783   1.232   9.398  1.0987  0.5737 -0.4424
 1638SOL    HW2 6922   3.756   1.291   9.261  0.7971 -0.6710 -0.9311
 1639SOL     OW 6923   8.843  10.608   1.655  0.7410 -0.3318  0.4166
 1639SOL    HW1 6924   8.861  10.567   1.740 -0.6403 -1.1744  0.3274
 1639SOL    HW2 6925   8.785  10.547   1.610 -0.3055  1.1014 -0.2783
 1640SOL     OW 6926   9.834   2.235   4.052  0.4219  0.1344  0.0938
 1640SOL    HW1 6927   9.911   2.202   4.099  1.2865 -0.8441 -1.8666
 1640SOL    HW2 6928   9.825   2.326   4.082  0.5865 -0.5500  2.4507
 1641SOL     OW 6929  10.284   5.520   5.244  0.2683  0.0491 -0.7042
 1641SOL    HW1 6930  10.345   5.454   5.277 -1.8010 -2.8794 -2.2397
 1641SOL    HW2 6931  10.207   5.511   5.300  0.3523  2.0979 -0.1898
 1642SOL     OW 6932   0.443   4.861   4.186 -0.5853 -1.3893 -0.4146
 1642SOL    HW1 6933   0.366   4.810   4.210 -1.2340 -0.5897 -0.7271
 1642SOL    HW2 6934   0.408   4.948   4.166  0.4568 -0.8888 -0.1209
 1643SOL     OW 6935   2.497   3.707   7.340  0.3158 -0.2150 -0.0752
 1643SOL    HW1 6936   2.441   3.782   7.322  0.2122 -0.5235 -1.1042
 1643SOL    HW2 6937   2.440   3.631   7.324  1.1200 -0.5423 -1.5575
 1644SOL     OW 6938   4.589   8.795   8.362  0.3243  0.7525  0.2334
 1644SOL    HW1 6939   4.553   8.821   8.447 -0.8624  1.2451 -0.4045
 1644SOL    HW2 6940   4.574   8.869   8.305 -0.9177 -0.3792 -0.9840
 1645SOL     OW 6941   9.889   2.663   5.720 -0.4788 -0.4376  0.4005
 1645SOL    HW1 6942   9.818   2.684   5.660 -0.2683 -1.1387 -0.1113
 1645SOL    HW2 6943   9.956   2.623   5.665 -0.2017 -0.9210  1.0708
 1646SOL     OW 6944   4.015   0.242   3.184  0.2306 -0.1453 -0.1714
 1646SOL    HW1 6945   4.058   0.239   3.098  2.1124 -0.4547  0.7263
 1646SOL    HW2 6946   3.941   0.301   3.172 -2.6912 -3.8715 -3.3027
 1647SOL     OW 6947   3.254   4.783   5.648 -0.0128 -0.6396  0.2040
 1647SOL    HW1 6948   3.342   4.786   5.686 -0.2591 -0.3440  0.7589
 1647SOL    HW2 6949   3.210   4.860   5.683 -0.0025  0.0977 -1.3020
 1648SOL     OW 6950   2.641   1.574   0.972 -0.4286  0.2775 -0.1911
 1648SOL    HW1 6951   2.552   1.551   1.001  0.4578 -2.6374  0.6277
 1648SOL    HW2 6952   2.658   1.659   1.012 -3.1017  1.3200 -1.0613
 1649SOL     OW 6953   6.379   2.504   4.028 -0.0574  0.2717 -0.0229
 1649SOL    HW1 6954   6.326   2.439   4.074 -1.1628 -0.3842 -2.0802
 1649SOL    HW2 6955   6.441   2.453   3.977  1.5434  1.0013  1.1173
 1650SOL     OW 6956   0.461   2.643   3.360 -0.0676 -0.1958 -0.5076
 1650SOL    HW1 6957   0.380   2.694   3.356  0.2018  0.1904 -1.3585
 1650SOL    HW2 6958   0.499   2.653   3.273  0.9513 -0.2872 -0.0842
 1651SOL     OW 6959   9.738   6.389   5.004 -1.0255 -0.4500  0.1347
 1651SOL    HW1 6960   9.675   6.317   4.995  0.2623 -1.4941 -1.2146
 1651SOL    HW2 6961   9.776   6.397   4.917  1.0975 -0.2634  1.0226
 1652SOL     OW 6962   1.127   5.948   1.954 -0.4017  0.0747  0.0267
 1652SOL    HW1 6963   1.137   5.868   1.902 -1.9523 -0.0201 -0.1776
 1652SOL    HW2 6964   1.151   5.922   2.043  0.1977 -0.3163 -0.2446
 1653SOL     OW 6965   1.419   4.034   3.290  0.6899  0.5909  0.7472
 1653SOL    HW1 6966   1.414   4.006   3.198 -1.3215  1.1439  0.6456
 1653SOL    HW2 6967   1.485   4.103   3.290  0.1549  1.1389 -0.4507
 1654SOL     OW 6968   2.642   8.858  10.476  0.2342  0.4698  0.7257
 1654SOL    HW1 6969   2.716   8.834  10.421 -0.7192  1.5253 -1.0985
 1654SOL    HW2 6970   2.573   8.798  10.450  0.0194  0.4203  1.3977
 1655SOL     OW 6971   3.064   5.246   6.175  0.0399  0.2429  0.1953
 1655SOL    HW1 6972   3.121   5.220   6.248 -0.5350 -2.4768 -0.2190
 1655SOL    HW2 6973   3.124   5.256   6.101  0.3881  1.0487  0.5744
 1656SOL     OW 6974   0.839   6.671   1.986 -0.0303  0.4961  0.2355
 1656SOL    HW1 6975   0.901   6.639   2.052  0.5652 -0.4648 -0.7466
 1656SOL    HW2 6976   0.768   6.606   1.986 -0.6070  1.1204  0.7377
 1657SOL     OW 6977   8.229  10.915   9.606 -0.6284 -0.3352 -0.1318
 1657SOL    HW1 6978   8.289  10.893   9.676 -0.0607 -0.2577 -0.5815
 1657SOL    HW2 6979   8.253  10.857   9.534 -0.7179  0.0829 -0.5063
 1658SOL     OW 6980   3.823   4.638   5.944 -0.0626 -0.4089 -1.1810
 1658SOL    HW1 6981   3.887   4.593   5.888  1.2606  0.8445 -0.7223
 1658SOL    HW2 6982   3.872   4.662   6.022 -0.9129  1.2176 -1.1158
 1659SOL     OW 6983   2.133   5.469   6.974 -0.1770 -0.6540  0.0764
 1659SOL    HW1 6984   2.079   5.487   6.898  0.4807  0.8048 -0.0895
 1659SOL    HW2 6985   2.141   5.554   7.018  0.1022 -1.3079  1.3338
 1660SOL     OW 6986   3.735  10.150   2.703 -0.8166 -0.2306 -0.5206
 1660SOL    HW1 6987   3.812  10.187   2.660 -1.0026  0.2294 -0.4662
 1660SOL    HW2 6988   3.703  10.220   2.759 -0.2739 -0.9982  0.7819
 1661SOL     OW 6989   9.861   0.747   0.030  0.4012 -0.1936  0.6033
 1661SOL    HW1 6990   9.857   0.661  -0.011 -0.3092 -0.4804  1.2365
 1661SOL    HW2 6991   9.861   0.809  -0.043 -2.2410 -0.6412  0.1249
 1662SOL     OW 6992   9.871   0.050   0.596  0.5223  0.1706 -0.0276
 1662SOL    HW1 6993   9.929   0.048   0.520  0.7847  0.9350  0.1373
 1662SOL    HW2 6994   9.825   0.134   0.589 -2.0784 -1.2490 -1.2256
 1663SOL     OW 6995   8.876   4.599   2.371  0.0094  0.3030 -0.4204
 1663SOL    HW1 6996   8.791   4.557   2.381 -0.4711  1.0862 -1.0469
 1663SOL    HW2 6997   8.909   4.569   2.286  0.0155  0.5742 -0.5163
 1664SOL     OW 6998  10.737   5.745   5.523 -0.3052 -0.4315  0.1320
 1664SOL    HW1 6999  10.716   5.798   5.446  0.8170 -1.4418 -0.9343
 1664SOL    HW2 7000  10.694   5.661   5.505  1.2521 -1.1979 -0.1902
 1665SOL     OW 7001   2.115   3.214   6.683  0.0707 -0.1570  0.4474
 1665SOL    HW1 7002   2.092   3.241   6.773 -1.0632 -0.6651  0.3274
 1665SOL    HW2 7003   2.172   3.138   6.695 -2.0100 -1.7635  0.7766
 1666SOL     OW 7004   0.726   1.695   5.055  0.1021  0.3475  0.8023
 1666SOL    HW1 7005   0.632   1.694   5.036  0.0785  0.5836  0.9007
 1666SOL    HW2 7006   0.731   1.690   5.150  0.2391 -1.7374  0.7276
 1667SOL     OW 7007   7.295   3.875   3.626  0.0586 -0.3197 -0.0226
 1667SOL    HW1 7008   7.206   3.853   3.652 -0.2693 -0.0782 -0.9014
 1667SOL    HW2 7009   7.351   3.823   3.684 -0.6222  0.4610  1.3708
 1668SOL     OW 7010   0.321   7.097   1.710  0.6170  0.6418 -0.3881
 1668SOL    HW1 7011   0.322   7.065   1.620  0.4058 -1.4084  0.2712
 1668SOL    HW2 7012   0.392   7.161   1.714  0.7794  0.5945 -1.9410
 1669SOL     OW 7013  10.117   2.497   3.918  0.1053 -0.8964 -0.1397
 1669SOL    HW1 7014  10.210   2.518   3.911 -0.5367  2.0603 -1.3761
 1669SOL    HW2 7015  10.104   2.478   4.011  1.9224 -1.4395  0.0521
 1670SOL     OW 7016   6.364   7.001   9.254 -0.2995  0.3866 -0.1034
 1670SOL    HW1 7017   6.442   6.987   9.201 -0.7585  0.5830 -0.8360
 1670SOL    HW2 7018   6.297   6.945   9.215 -0.3624 -0.2757  0.9100
 1671SOL     OW 7019   6.753  10.049   2.360  0.3507  0.5057  0.2622
 1671SOL    HW1 7020   6.809  10.105   2.414 -0.0300 -1.2181  2.6125
 1671SOL    HW2 7021   6.780   9.960   2.383 -1.7805 -0.3319 -0.2731
 1672SOL     OW 7022   8.194   1.140   1.388 -0.3125 -0.1108  0.1191
 1672SOL    HW1 7023   8.272   1.174   1.345 -0.7022  1.5345  0.6456
 1672SOL    HW2 7024   8.212   1.147   1.482 -1.2263  0.6538  0.2541
 1673SOL     OW 7025   1.594   8.815   3.158  0.6375 -0.4715  0.7330
 1673SOL    HW1 7026   1.498   8.819   3.165  0.3367 -2.9958 -0.6917
 1673SOL    HW2 7027   1.621   8.759   3.230  0.4217 -3.7229 -1.5116
 1674SOL     OW 7028   3.903   4.932   5.269 -0.3298 -0.0891 -0.0482
 1674SOL    HW1 7029   3.999   4.930   5.266 -0.3594 -0.8681 -0.7318
 1674SOL    HW2 7030   3.882   5.024   5.284  0.6035 -0.3074  3.9408
 1675SOL     OW 7031   7.181  10.336   7.850  0.0848  0.1820  0.3724
 1675SOL    HW1 7032   7.102  10.305   7.894  0.7506  0.2820  1.6855
 1675SOL    HW2 7033   7.221  10.398   7.912  0.5600  1.0718 -0.7775
 1676SOL     OW 7034   9.148   3.370   5.202 -0.2175  0.3653  0.4559
 1676SOL    HW1 7035   9.057   3.341   5.192  0.2920 -1.2110  0.1958
 1676SOL    HW2 7036   9.198   3.290   5.213  1.0403  1.2674  1.6681
 1677SOL     OW 7037   9.648   3.606   4.739  0.1190 -0.0535  0.6960
 1677SOL    HW1 7038   9.614   3.543   4.675 -0.7505  0.0602  1.0346
 1677SOL    HW2 7039   9.735   3.574   4.759 -0.0211 -0.7232  0.2878
 1678SOL     OW 7040   3.512   7.823   4.078 -0.4065  0.4475 -0.4814
 1678SOL    HW1 7041   3.579   7.857   4.136  0.6807 -0.4935 -1.1490
 1678SOL    HW2 7042   3.452   7.775   4.135  0.9861 -0.9917 -0.1794
 1679SOL     OW 7043   2.291   0.415   1.590  0.4324 -0.1197 -0.1928
 1679SOL    HW1 7044   2.362   0.378   1.538  2.0208 -0.7592  2.2397
 1679SOL    HW2 7045   2.302   0.510   1.584 -0.9480 -0.0281 -2.8858
 1680SOL     OW 7046   3.785   4.022   4.137 -0.5953  0.1608  0.2649
 1680SOL    HW1 7047   3.800   4.022   4.043 -0.0746  0.1906  0.3446
 1680SOL    HW2 7048   3.786   4.114   4.162  0.3037  0.1111  0.4520
 1681SOL     OW 7049   1.429   0.277   9.045 -0.0442 -0.9190  0.1223
 1681SOL    HW1 7050   1.371   0.348   9.015 -0.3528 -0.9871  0.5503
 1681SOL    HW2 7051   1.453   0.231   8.965  0.6905  0.0635 -0.2467
 1682SOL     OW 7052   9.573   4.220   2.209  0.0456  0.2946  0.5570
 1682SOL    HW1 7053   9.535   4.296   2.165 -1.5537 -0.4993  0.5081
 1682SOL    HW2 7054   9.500   4.181   2.258  1.3309  0.0646  2.4131
 1683SOL     OW 7055   5.910   3.086   3.091 -0.1795  0.0842 -0.2663
 1683SOL    HW1 7056   5.979   3.060   3.152 -1.0149  0.8861  1.0676
 1683SOL    HW2 7057   5.860   3.152   3.139 -1.4428  0.0328 -1.4728
 1684SOL     OW 7058   0.052   2.265   4.236  0.1354  0.2718  0.0091
 1684SOL    HW1 7059  -0.034   2.270   4.277  0.5279 -1.1624  1.1030
 1684SOL    HW2 7060   0.081   2.175   4.254  1.4481  0.4268 -1.1838
 1685SOL     OW 7061   1.984   8.684   1.560 -0.5328  0.3865 -0.1421
 1685SOL    HW1 7062   2.012   8.767   1.599  0.1064 -0.5344  1.4654
 1685SOL    HW2 7063   2.030   8.617   1.611 -3.0478 -1.0660  0.4221
 1686SOL     OW 7064   0.355   5.889   5.980  0.8203  0.2099  0.4430
 1686SOL    HW1 7065   0.430   5.916   5.928  0.1555  2.2267  0.4242
 1686SOL    HW2 7066   0.279   5.910   5.925  0.1985 -0.2258  1.1168
 1687SOL     OW 7067   8.482   2.181   0.672 -0.1037  0.4583 -0.0435
 1687SOL    HW1 7068   8.494   2.160   0.579 -1.2714  0.9269 -0.3186
 1687SOL    HW2 7069   8.456   2.098   0.711 -2.9568  0.8699 -0.8046
 1688SOL     OW 7070   9.415   6.033   1.380  0.5362  0.6374 -0.3937
 1688SOL    HW1 7071   9.474   5.973   1.426  0.3696 -0.8139 -1.9593
 1688SOL    HW2 7072   9.460   6.050   1.296 -0.2868  1.2348 -0.7226
 1689SOL     OW 7073   6.133   2.695   9.181  0.0181 -0.0443 -0.0983
 1689SOL    HW1 7074   6.173   2.714   9.266  1.8637 -1.6442 -0.5212
 1689SOL    HW2 7075   6.161   2.768   9.125  0.2032  0.1591  0.2537
 1690SOL     OW 7076   2.997   5.107   5.309  0.2332  0.1484 -0.2235
 1690SOL    HW1 7077   2.979   5.014   5.301  1.2621 -0.1029  0.2386
 1690SOL    HW2 7078   3.005   5.138   5.218 -1.2007  0.0321 -0.4131
 1691SOL     OW 7079   9.478   0.635  10.780 -0.0355  0.4186  0.0126
 1691SOL    HW1 7080   9.484   0.678  10.694  1.0897 -0.0547 -0.1671
 1691SOL    HW2 7081   9.513   0.547  10.765  0.9859  0.6080  1.1390
 1692SOL     OW 7082   6.147   5.134   8.247  0.2929  0.5406  0.2106
 1692SOL    HW1 7083   6.183   5.045   8.252  0.6869  0.6931  0.1002
 1692SOL    HW2 7084   6.197   5.176   8.177 -0.3562  0.6415 -0.1968
 1693SOL     OW 7085   6.493   7.463   4.717 -0.1104 -0.2902 -0.2303
 1693SOL    HW1 7086   6.404   7.441   4.688 -1.2330  0.2315  2.4934
 1693SOL    HW2 7087   6.524   7.384   4.761  0.8240 -0.4573 -1.1329
 1694SOL     OW 7088  10.418   6.028   6.320  0.0636 -0.5989 -0.8323
 1694SOL    HW1 7089  10.417   5.934   6.307 -0.3331 -0.7716  0.2878
 1694SOL    HW2 7090  10.348   6.044   6.384  0.8439  0.3059 -0.1660
 1695SOL     OW 7091   3.632   2.918   9.233 -0.0739 -0.2265 -0.2179
 1695SOL    HW1 7092   3.577   2.887   9.161  0.3530  0.8084 -1.0328
 1695SOL    HW2 7093   3.719   2.925   9.194 -0.2439  2.4790 -0.2881
 1696SOL     OW 7094   8.869   0.648   3.591  0.0242 -0.3492  0.4440
 1696SOL    HW1 7095   8.913   0.628   3.508  0.5373  1.7225  0.1579
 1696SOL    HW2 7096   8.816   0.725   3.572 -0.0443  0.0130  1.9797
 1697SOL     OW 7097   8.212   5.083   6.269 -0.7019 -0.2078 -0.2757
 1697SOL    HW1 7098   8.295   5.058   6.310 -0.8851 -1.7149 -0.7479
 1697SOL    HW2 7099   8.145   5.054   6.331 -0.9075 -0.2780 -0.5279
 1698SOL     OW 7100  10.179  10.693   5.468 -0.0864  0.4935  0.1007
 1698SOL    HW1 7101  10.174  10.738   5.384  0.2313 -0.9962 -0.7565
 1698SOL    HW2 7102  10.109  10.627   5.464  0.1253  0.2090  0.8868
 1699SOL     OW 7103   9.233   5.901   6.666 -0.3426 -0.9186  0.3816
 1699SOL    HW1 7104   9.189   5.985   6.659 -2.6899 -2.1632 -1.1748
 1699SOL    HW2 7105   9.326   5.920   6.654 -0.9043  1.3329 -0.8201
 1700SOL     OW 7106  10.303   5.685   2.254 -0.9036 -0.1979 -0.2117
 1700SOL    HW1 7107  10.290   5.609   2.197 -3.4206 -0.5461  0.7108
 1700SOL    HW2 7108  10.254   5.756   2.211 -3.1228 -0.5449  1.5288
 1701SOL     OW 7109   4.192   8.752   5.853  0.4205 -0.0646 -0.0482
 1701SOL    HW1 7110   4.199   8.731   5.946 -0.6800 -0.2565  0.0091
 1701SOL    HW2 7111   4.170   8.669   5.811  0.6452  0.0743 -0.4473
 1702SOL     OW 7112   1.469   3.566   7.238 -0.7702 -0.1123  0.4150
 1702SOL    HW1 7113   1.406   3.637   7.252 -2.2337 -1.6048  1.7999
 1702SOL    HW2 7114   1.441   3.526   7.156  0.5969  1.3620 -0.8491
 1703SOL     OW 7115  10.687   8.597  10.258 -0.1358 -0.6991 -0.0887
 1703SOL    HW1 7116  10.630   8.577  10.184 -0.5298 -1.5283  0.4209
 1703SOL    HW2 7117  10.764   8.541  10.246 -0.1742 -0.7948  0.0993
 1704SOL     OW 7118   2.186   1.575   6.777  0.6679 -0.1995 -0.1852
 1704SOL    HW1 7119   2.193   1.495   6.724  0.0312 -0.5316  0.2066
 1704SOL    HW2 7120   2.161   1.643   6.714  1.4656 -0.2483 -0.5659
 1705SOL     OW 7121  11.040   3.542   5.185 -0.3578  0.5432  0.6530
 1705SOL    HW1 7122  11.038   3.507   5.274  0.0893  0.4207  0.6192
 1705SOL    HW2 7123  10.972   3.609   5.184 -0.6631  0.2459  0.9594
 1706SOL     OW 7124   8.245   1.276  10.382 -0.0763  0.2265 -0.3820
 1706SOL    HW1 7125   8.276   1.331  10.454 -0.5537 -0.3236  0.2606
 1706SOL    HW2 7126   8.253   1.186  10.416 -0.0174 -0.0595 -1.1336
 1707SOL     OW 7127  10.285   4.979   3.833 -0.3713 -0.8476 -0.1003
 1707SOL    HW1 7128  10.230   4.909   3.866 -1.4708  0.0099 -0.0845
 1707SOL    HW2 7129  10.226   5.036   3.784  0.2302  0.8332  1.0489
 1708SOL     OW 7130   0.883   2.154   1.592 -0.0361  0.2045 -0.0286
 1708SOL    HW1 7131   0.935   2.088   1.547  0.3253  1.3455 -1.3324
 1708SOL    HW2 7132   0.842   2.107   1.665  2.0033 -0.9339  0.4352
 1709SOL     OW 7133   7.481   0.744   3.502 -0.1542 -0.0672 -0.0555
 1709SOL    HW1 7134   7.435   0.717   3.581  2.6120 -0.5278  1.5539
 1709SOL    HW2 7135   7.509   0.662   3.461  0.7923  0.1688  0.0715
 1710SOL     OW 7136   4.304   3.304   7.149  1.4673 -0.4111 -0.0151
 1710SOL    HW1 7137   4.328   3.363   7.221  2.3261  0.4782 -0.9886
 1710SOL    HW2 7138   4.271   3.363   7.081 -2.2823 -1.4575  0.7157
 1711SOL     OW 7139   9.180   6.160   6.319  0.1030  0.0335  0.3634
 1711SOL    HW1 7140   9.124   6.181   6.244  1.3452  0.0235 -0.6026
 1711SOL    HW2 7141   9.235   6.238   6.330  2.3825 -1.2634 -1.0577
 1712SOL     OW 7142   1.521   0.164   5.716  0.0252 -0.0827 -0.3290
 1712SOL    HW1 7143   1.598   0.220   5.729  0.3019 -0.7055  0.8187
 1712SOL    HW2 7144   1.446   0.224   5.723  0.2538  0.0073  2.1068
 1713SOL     OW 7145   1.527   4.777  10.951  0.0743 -0.2494  0.0639
 1713SOL    HW1 7146   1.590   4.791  10.881 -0.7191 -0.8676 -0.7935
 1713SOL    HW2 7147   1.465   4.713  10.916 -0.1488 -0.8465  1.4513
 1714SOL     OW 7148   8.788   4.714   3.064  0.0716  0.3189  0.0828
 1714SOL    HW1 7149   8.875   4.691   3.033  0.1462 -2.0296  1.7546
 1714SOL    HW2 7150   8.747   4.630   3.085 -2.1379  1.4357  0.5463
 1715SOL     OW 7151   2.064   5.112   3.533 -0.2495  0.0591  0.5319
 1715SOL    HW1 7152   2.112   5.123   3.451 -0.2670  0.4750  0.5730
 1715SOL    HW2 7153   1.986   5.062   3.510 -0.1952  0.0755  0.3160
 1716SOL     OW 7154   9.099   2.518   3.700  0.1898  0.0377  0.1510
 1716SOL    HW1 7155   9.029   2.495   3.761  1.8818  0.7022  2.4614
 1716SOL    HW2 7156   9.076   2.606   3.670 -0.8645 -0.4524 -0.5501
 1717SOL     OW 7157   1.516   0.417   5.300  0.2897  0.0316 -0.2899
 1717SOL    HW1 7158   1.578   0.357   5.259  0.7061  0.7341 -0.7137
 1717SOL    HW2 7159   1.566   0.496   5.316 -0.4570  0.5583 -0.5032
 1718SOL     OW 7160   9.935   1.300   8.785 -0.0725  0.4678 -0.3933
 1718SOL    HW1 7161  10.021   1.262   8.801  0.7601  2.3562 -0.0474
 1718SOL    HW2 7162   9.882   1.274   8.860  0.2754 -0.4630 -0.4639
 1719SOL     OW 7163   1.556   6.875   2.114  0.1532  0.3964  0.0002
 1719SOL    HW1 7164   1.548   6.969   2.131 -2.1219  0.0288  1.4748
 1719SOL    HW2 7165   1.556   6.867   2.019  0.1344  1.8708 -0.1429
 1720SOL     OW 7166   3.886   4.999   2.468  0.2808 -0.5629  0.5159
 1720SOL    HW1 7167   3.884   5.001   2.564  0.2183 -0.0612  0.5035
 1720SOL    HW2 7168   3.807   5.047   2.441 -0.5490 -2.0087  0.2240
 1721SOL     OW 7169   4.693   4.783   2.993  0.1258 -0.0195 -0.0037
 1721SOL    HW1 7170   4.657   4.843   2.927 -0.6521 -0.8375 -0.3453
 1721SOL    HW2 7171   4.659   4.697   2.968  1.7657 -0.7237  0.0756
 1722SOL     OW 7172   5.642   0.007   3.329  0.2695 -0.2136 -0.4430
 1722SOL    HW1 7173   5.558   0.052   3.325  0.3516 -0.1768 -2.2783
 1722SOL    HW2 7174   5.663   0.006   3.423 -0.4874  2.1503 -0.1699
 1723SOL     OW 7175   4.066   0.285   7.000  0.7101  0.5316 -0.3178
 1723SOL    HW1 7176   4.127   0.253   7.066  0.8666  0.4981 -0.4780
 1723SOL    HW2 7177   4.043   0.208   6.948 -2.1175 -0.2335  1.7759
 1724SOL     OW 7178  10.408   7.105   6.292  0.3924  0.1431 -0.1511
 1724SOL    HW1 7179  10.401   7.096   6.197  2.7273 -0.4041 -0.3312
 1724SOL    HW2 7180  10.319   7.092   6.324 -0.1611 -1.3852 -2.1354
 1725SOL     OW 7181   5.627   3.034   8.469  0.1795 -0.8691  0.2488
 1725SOL    HW1 7182   5.638   3.101   8.401  0.8224 -2.3379 -1.1405
 1725SOL    HW2 7183   5.563   3.073   8.530  2.3721  2.0657  0.9411
 1726SOL     OW 7184   3.373   8.610   3.680  0.3538  0.6571 -0.3204
 1726SOL    HW1 7185   3.409   8.527   3.651  1.2037  1.4967 -1.8071
 1726SOL    HW2 7186   3.384   8.609   3.775  1.1338 -0.5609 -0.3993
 1727SOL     OW 7187   9.782   7.066   3.913 -0.5402 -0.0489 -0.3292
 1727SOL    HW1 7188   9.836   7.143   3.930  0.3683 -0.8886  0.7668
 1727SOL    HW2 7189   9.693   7.093   3.935 -0.1684  0.5703  0.4461
 1728SOL     OW 7190   4.289   9.548   4.844  0.1142  0.0626  0.0051
 1728SOL    HW1 7191   4.238   9.613   4.892 -0.6390  0.0504 -0.7434
 1728SOL    HW2 7192   4.305   9.589   4.759 -1.6478 -1.2643 -1.0325
 1729SOL     OW 7193   9.072   2.115   7.578  0.0648 -0.0467  0.1971
 1729SOL    HW1 7194   9.030   2.176   7.517  0.1916 -1.0873 -0.9821
 1729SOL    HW2 7195   9.003   2.056   7.605  0.4487 -0.9412 -0.7013
 1730SOL     OW 7196   7.619   4.989   2.737 -0.4493 -0.1088  0.1312
 1730SOL    HW1 7197   7.526   4.965   2.738 -0.7110  0.7442  2.0199
 1730SOL    HW2 7198   7.635   5.025   2.825  1.2432  1.3803 -0.7125
 1731SOL     OW 7199   2.289   5.251   6.916 -0.1700 -0.1374  0.3398
 1731SOL    HW1 7200   2.221   5.317   6.932 -0.3487  0.1307 -1.3490
 1731SOL    HW2 7201   2.362   5.301   6.880  1.1133 -0.3671  2.4552
 1732SOL     OW 7202   7.494   7.079   8.844  0.0948  0.2996 -0.2755
 1732SOL    HW1 7203   7.508   7.173   8.860  0.6172  0.3508 -0.9668
 1732SOL    HW2 7204   7.546   7.036   8.911 -2.7826  0.4436  2.2470
 1733SOL     OW 7205   5.347   0.828   6.277 -0.4640 -0.2861 -0.4771
 1733SOL    HW1 7206   5.260   0.794   6.254 -0.3518 -0.9472  0.0520
 1733SOL    HW2 7207   5.407   0.755   6.259 -0.2366 -0.4379  0.7754
 1734SOL     OW 7208   4.456   3.676   0.018 -0.0365 -0.3032 -0.0424
 1734SOL    HW1 7209   4.529   3.706  -0.036  0.4356  0.8040  1.1630
 1734SOL    HW2 7210   4.387   3.741   0.002  0.1762  0.1424  0.8187
 1735SOL     OW 7211   2.027   5.539   6.710  0.0428 -0.6113 -0.3848
 1735SOL    HW1 7212   2.085   5.613   6.692 -0.5449 -0.4392 -1.6963
 1735SOL    HW2 7213   1.939   5.577   6.711 -0.4196 -1.4805 -2.6716
 1736SOL     OW 7214   5.936   9.583   2.297 -0.5110 -0.3710  0.3643
 1736SOL    HW1 7215   5.945   9.597   2.203 -0.8335  0.4355  0.4446
 1736SOL    HW2 7216   5.899   9.495   2.305  0.3399 -0.7964 -0.2209
 1737SOL     OW 7217   8.313   3.147   4.673  0.1734  0.3199 -0.2470
 1737SOL    HW1 7218   8.316   3.068   4.727  1.1763 -0.6587 -1.6647
 1737SOL    HW2 7219   8.295   3.218   4.735  2.7361 -0.5187  1.6323
 1738SOL     OW 7220   0.942   1.366   4.596  0.0150  0.6619 -0.0493
 1738SOL    HW1 7221   0.962   1.277   4.569  1.6285  0.6713  0.9398
 1738SOL    HW2 7222   0.879   1.356   4.667  0.5518  0.2635  0.3786
 1739SOL     OW 7223   8.966   3.030   4.841 -0.2871  0.1555  0.1665
 1739SOL    HW1 7224   8.925   3.116   4.833  1.1786  0.7743 -1.3618
 1739SOL    HW2 7225   8.897   2.974   4.876 -1.7004  1.6480 -0.0898
 1740SOL     OW 7226   0.776   9.140   1.030 -0.0015 -0.1298 -0.5149
 1740SOL    HW1 7227   0.819   9.198   0.967 -1.6043  0.2000 -1.3512
 1740SOL    HW2 7228   0.736   9.199   1.093  0.6805 -0.4355  0.2259
 1741SOL     OW 7229   6.297   1.471   2.496  0.0681  0.0714 -0.3104
 1741SOL    HW1 7230   6.303   1.554   2.448 -0.9348  0.7730  0.7330
 1741SOL    HW2 7231   6.240   1.490   2.570 -1.1888 -1.8717 -0.7054
 1742SOL     OW 7232   5.336   9.242   1.648  0.1254 -0.0085 -0.1983
 1742SOL    HW1 7233   5.321   9.168   1.708 -1.5024  0.0377 -0.4942
 1742SOL    HW2 7234   5.351   9.200   1.563  1.3371 -0.0445  0.0257
 1743SOL     OW 7235   5.145   1.469   8.297 -0.5605 -0.0880  0.1344
 1743SOL    HW1 7236   5.134   1.557   8.259 -2.2442 -0.4718 -0.3478
 1743SOL    HW2 7237   5.084   1.466   8.370 -0.7373 -0.9665 -0.0385
 1744SOL     OW 7238   4.136   5.555   3.808 -0.0931  0.8236  0.2255
 1744SOL    HW1 7239   4.200   5.609   3.854 -1.6241  2.1019  0.9519
 1744SOL    HW2 7240   4.104   5.610   3.737 -0.7284  0.3776  0.1632
 1745SOL     OW 7241   2.891   9.464   2.039  0.4595 -0.4331 -0.3671
 1745SOL    HW1 7242   2.933   9.380   2.019  0.6482  0.0592 -2.2550
 1745SOL    HW2 7243   2.868   9.500   1.953  0.2581  1.3960  0.4084
 1746SOL     OW 7244   1.133   5.024   4.469  0.2520  0.1163 -0.6237
 1746SOL    HW1 7245   1.055   5.077   4.486 -0.2881 -0.3391 -1.5909
 1746SOL    HW2 7246   1.206   5.078   4.499 -0.1931  1.8331 -2.3882
 1747SOL     OW 7247   8.655   9.476   9.679 -0.2203 -0.2483  0.3139
 1747SOL    HW1 7248   8.692   9.557   9.713  1.0934 -0.5502 -0.3566
 1747SOL    HW2 7249   8.721   9.409   9.697  0.8936 -0.3244 -3.2779
 1748SOL     OW 7250   2.850   3.543   5.084  0.7872  0.6185  0.4678
 1748SOL    HW1 7251   2.804   3.614   5.040  1.7541 -0.0149 -1.7118
 1748SOL    HW2 7252   2.780   3.487   5.118 -0.1678 -0.0661 -2.3295
 1749SOL     OW 7253   4.533   4.822   1.142 -0.1554 -0.1876 -0.3581
 1749SOL    HW1 7254   4.459   4.870   1.178  0.1767  0.8070 -0.9652
 1749SOL    HW2 7255   4.514   4.815   1.049  0.8523  0.7172 -0.6434
 1750SOL     OW 7256   7.300   9.481   6.779 -0.2016 -0.2910  0.2588
 1750SOL    HW1 7257   7.332   9.445   6.862 -1.4983 -1.6886  0.2071
 1750SOL    HW2 7258   7.283   9.404   6.725  0.1976  0.5852 -1.1582
 1751SOL     OW 7259   5.753   2.244   2.713  0.2223 -0.2736 -0.2672
 1751SOL    HW1 7260   5.670   2.282   2.742  1.1465  0.3822  1.6812
 1751SOL    HW2 7261   5.761   2.164   2.765  0.4946 -0.7252 -0.9866
 1752SOL     OW 7262   9.572   0.325   7.022 -0.4470 -0.0036  0.3384
 1752SOL    HW1 7263   9.548   0.416   7.007 -0.1694  0.1323  0.6968
 1752SOL    HW2 7264   9.614   0.325   7.108  0.4904 -0.2888 -0.0992
 1753SOL     OW 7265   4.071   1.209   9.778  0.4334 -0.0925  0.2834
 1753SOL    HW1 7266   4.114   1.125   9.759 -2.2632 -1.8536  1.2976
 1753SOL    HW2 7267   4.054   1.205   9.872 -1.9732  0.4082 -0.0804
 1754SOL     OW 7268   3.436   2.599  10.282 -0.3189 -0.0404 -0.0021
 1754SOL    HW1 7269   3.457   2.506  10.287  0.5672  0.2218  1.7743
 1754SOL    HW2 7270   3.519   2.642  10.261  0.6752  0.7726  4.6059
 1755SOL     OW 7271   4.382  11.047   3.432 -0.7034 -0.3253  0.1770
 1755SOL    HW1 7272   4.405  11.112   3.498 -0.7135 -0.2479  0.1046
 1755SOL    HW2 7273   4.377  11.097   3.350  0.4769 -0.6175 -0.0879
 1756SOL     OW 7274   8.705   5.482   9.027  0.0335 -0.4994  0.1411
 1756SOL    HW1 7275   8.795   5.499   9.000  0.0185 -1.0251 -0.2559
 1756SOL    HW2 7276   8.660   5.566   9.015  0.5023 -0.1955  0.4872
 1757SOL     OW 7277   1.415   2.764  10.813  0.5264 -0.2913  0.1425
 1757SOL    HW1 7278   1.432   2.842  10.759  0.5674 -0.4737 -0.1103
 1757SOL    HW2 7279   1.400   2.799  10.901  0.9026 -0.0218  0.1049
 1758SOL     OW 7280   9.688   9.689  10.739  0.5974 -0.0483  0.0426
 1758SOL    HW1 7281   9.741   9.638  10.679  1.5533  2.3547 -1.2947
 1758SOL    HW2 7282   9.668   9.770  10.691 -0.3209  1.1142  2.2347
 1759SOL     OW 7283   9.299   1.824   1.571  0.1580 -0.3385 -0.3086
 1759SOL    HW1 7284   9.363   1.879   1.617  0.8765 -1.4653  0.0678
 1759SOL    HW2 7285   9.351   1.780   1.503 -0.3912 -0.6476 -0.5313
 1760SOL     OW 7286   1.128   6.565   5.772 -0.1048 -0.6433 -0.2547
 1760SOL    HW1 7287   1.035   6.582   5.785 -0.4277 -2.0308 -0.6272
 1760SOL    HW2 7288   1.152   6.505   5.842  0.7733  0.5074  0.4568
 1761SOL     OW 7289   5.365   5.182   1.064 -0.1246 -0.0119 -0.7385
 1761SOL    HW1 7290   5.355   5.092   1.095 -0.9002  0.8515  1.7930
 1761SOL    HW2 7291   5.282   5.224   1.084  0.5786  1.5430 -0.8942
 1762SOL     OW 7292   5.728   5.719   8.699  0.3663  0.4498  0.0440
 1762SOL    HW1 7293   5.680   5.793   8.736 -0.0836 -0.0875  0.5450
 1762SOL    HW2 7294   5.739   5.659   8.773 -0.7397 -0.7408 -0.7208
 1763SOL     OW 7295   4.761   4.556   8.054 -0.3022  0.1268 -0.1065
 1763SOL    HW1 7296   4.795   4.642   8.078 -0.5375  0.0874  0.3889
 1763SOL    HW2 7297   4.709   4.571   7.976  1.8196 -0.0086 -1.6205
 1764SOL     OW 7298   9.377   9.914   3.099 -0.4092 -0.0611  0.2194
 1764SOL    HW1 7299   9.292   9.870   3.105 -1.4539  2.0083  2.2257
 1764SOL    HW2 7300   9.421   9.892   3.181  0.1768  0.4534  0.0493
 1765SOL     OW 7301  10.525   1.516   9.500  0.6770 -0.6917 -0.1098
 1765SOL    HW1 7302  10.518   1.598   9.550  1.4505 -1.5749  1.5338
 1765SOL    HW2 7303  10.444   1.469   9.520  1.9818 -2.0923  2.4034
 1766SOL     OW 7304   8.844   4.041   0.743  1.0687  0.5143  0.2182
 1766SOL    HW1 7305   8.782   4.035   0.670  2.5158  0.9682 -1.1025
 1766SOL    HW2 7306   8.789   4.036   0.821 -0.3642 -2.0599 -0.8349
 1767SOL     OW 7307   4.595   3.705   9.534  0.5320 -0.0680  0.2470
 1767SOL    HW1 7308   4.621   3.759   9.608  0.1246  0.9677 -0.3473
 1767SOL    HW2 7309   4.605   3.762   9.458  1.5273 -1.2934 -0.5908
 1768SOL     OW 7310  10.346   1.967  10.673  0.0545  0.3110  0.2109
 1768SOL    HW1 7311  10.314   1.922  10.595  1.0412  2.4270 -1.5241
 1768SOL    HW2 7312  10.370   1.897  10.733 -3.1698 -1.3863 -0.2644
 1769SOL     OW 7313   4.822   5.012   2.022  0.4143  0.1704 -0.4495
 1769SOL    HW1 7314   4.841   4.923   1.990 -0.0491 -0.7824  1.7319
 1769SOL    HW2 7315   4.867   5.069   1.960  1.3405 -1.6087 -1.5266
 1770SOL     OW 7316   5.611  10.054  10.804  0.2316  0.2512  0.1351
 1770SOL    HW1 7317   5.549  10.033  10.734 -1.5492  0.6529  1.5115
 1770SOL    HW2 7318   5.643   9.969  10.835  0.5356  0.0486 -0.7139
 1771SOL     OW 7319   4.220  10.553   7.437 -0.0792 -0.5851  0.0684
 1771SOL    HW1 7320   4.287  10.521   7.497 -0.0201  0.7802  0.7540
 1771SOL    HW2 7321   4.268  10.604   7.372 -0.4221  0.2825  0.4826
 1772SOL     OW 7322   3.282   9.950   5.864  0.0577 -0.0331  0.1974
 1772SOL    HW1 7323   3.297  10.044   5.872  1.5855 -0.1510 -0.9502
 1772SOL    HW2 7324   3.364   9.910   5.895 -0.3146 -0.9660  0.0121
 1773SOL     OW 7325   8.662   0.861   8.403 -0.4514  0.3537 -0.7929
 1773SOL    HW1 7326   8.621   0.937   8.362 -0.7256  0.9182  0.4687
 1773SOL    HW2 7327   8.601   0.836   8.472  1.0573  0.8977  0.8124
 1774SOL     OW 7328   6.482   1.099   6.663 -0.1748  0.0549 -0.3805
 1774SOL    HW1 7329   6.458   1.007   6.664 -0.8235  0.2117  1.4691
 1774SOL    HW2 7330   6.554   1.106   6.726  3.7393 -0.0639 -4.3613
 1775SOL     OW 7331   3.465   1.190   0.840 -0.0376 -0.3151  0.5398
 1775SOL    HW1 7332   3.504   1.150   0.763 -1.0189  0.3970 -0.3689
 1775SOL    HW2 7333   3.439   1.278   0.810 -1.5151 -0.4537  1.3177
 1776SOL     OW 7334   6.794   5.691  10.628 -0.3789 -0.3655  0.0905
 1776SOL    HW1 7335   6.880   5.710  10.591 -0.3671  1.6555  1.0298
 1776SOL    HW2 7336   6.787   5.748  10.705 -2.4480 -0.6476  0.1820
 1777SOL     OW 7337  10.852   2.837   3.495  0.3289  0.7478  0.3504
 1777SOL    HW1 7338  10.861   2.864   3.404  3.7761 -2.6006 -0.5854
 1777SOL    HW2 7339  10.913   2.894   3.543  0.0043  1.1999  0.2301
 1778SOL     OW 7340   0.398   6.875   5.685  0.6616  0.3309  0.7766
 1778SOL    HW1 7341   0.336   6.847   5.753 -0.3047  0.3851 -0.0493
 1778SOL    HW2 7342   0.424   6.963   5.711 -0.5637  0.7967  0.5434
 1779SOL     OW 7343   5.705   2.353   4.543 -0.5115 -0.1738 -0.0027
 1779SOL    HW1 7344   5.737   2.342   4.453  0.4035 -0.3857  0.3311
 1779SOL    HW2 7345   5.663   2.438   4.544  0.3569  0.2727 -0.3956
 1780SOL     OW 7346   7.528   1.874  10.365  0.2284 -0.2178  0.0083
 1780SOL    HW1 7347   7.570   1.793  10.335  1.9402  0.6314  0.0032
 1780SOL    HW2 7348   7.576   1.944  10.320 -0.1353  0.8713  1.2726
 1781SOL     OW 7349   0.420   4.090   1.457  0.1869  0.0396  0.8012
 1781SOL    HW1 7350   0.452   4.033   1.527  2.0365  0.0556  0.0143
 1781SOL    HW2 7351   0.473   4.169   1.463  2.1641 -0.9075 -2.0727
 1782SOL     OW 7352   6.394   5.369   9.615  0.1398  0.3936  0.9950
 1782SOL    HW1 7353   6.356   5.299   9.668  0.2996 -1.0826 -0.7569
 1782SOL    HW2 7354   6.466   5.403   9.668 -0.9305  0.3472  2.5407
 1783SOL     OW 7355   2.298   8.478   4.663  0.6653 -0.6021 -0.4650
 1783SOL    HW1 7356   2.348   8.525   4.596  1.4584 -1.0709 -0.2105
 1783SOL    HW2 7357   2.221   8.533   4.678  1.1672  0.1997 -0.7693
 1784SOL     OW 7358  10.020   0.517   4.642 -0.6252  0.3026  0.5275
 1784SOL    HW1 7359   9.955   0.499   4.574  0.4529 -0.2029 -0.3896
 1784SOL    HW2 7360  10.011   0.444   4.704 -1.5087  0.6897  0.8760
 1785SOL     OW 7361   9.605   0.553   3.464  0.0301  0.2547  0.4888
 1785SOL    HW1 7362   9.686   0.503   3.458 -0.5111 -0.7042  0.8066
 1785SOL    HW2 7363   9.603   0.606   3.384  1.5197  1.1983  1.0304
 1786SOL     OW 7364   2.674   4.398   7.607 -0.2800  0.4059  0.6272
 1786SOL    HW1 7365   2.671   4.489   7.636  0.9152  0.2018  1.5027
 1786SOL    HW2 7366   2.739   4.357   7.665  0.6600 -0.5339 -1.0089
 1787SOL     OW 7367   7.445   5.035   6.629  0.3346  0.2773  0.4791
 1787SOL    HW1 7368   7.397   5.106   6.671  1.1848 -0.2773  2.5264
 1787SOL    HW2 7369   7.480   5.073   6.549 -0.2937  1.7970  0.9020
 1788SOL     OW 7370   0.173   3.830   8.472 -0.0866 -0.0747  0.1636
 1788SOL    HW1 7371   0.084   3.823   8.508  0.2312  1.7645  1.4068
 1788SOL    HW2 7372   0.159   3.835   8.377 -1.4369  1.4898  0.3941
 1789SOL     OW 7373   5.427   1.006   7.871 -0.4812  0.1157 -0.1808
 1789SOL    HW1 7374   5.520   0.998   7.850 -0.3515 -1.3557  0.8342
 1789SOL    HW2 7375   5.390   0.919   7.855 -1.0704 -0.1350  2.1546
 1790SOL     OW 7376   8.841   5.124   8.058 -0.1881 -0.3469 -0.3893
 1790SOL    HW1 7377   8.933   5.119   8.083 -0.2490  0.3754 -0.0123
 1790SOL    HW2 7378   8.835   5.070   7.979  0.1026 -2.3328  0.8657
 1791SOL     OW 7379   0.121   3.354   5.073 -0.1245  0.0741 -0.1369
 1791SOL    HW1 7380   0.099   3.417   5.142 -0.4175 -2.1471  1.9199
 1791SOL    HW2 7381   0.216   3.345   5.078 -0.1521 -0.1311 -0.0132
 1792SOL     OW 7382   1.295   1.005   3.518  0.0689 -0.2418 -0.0214
 1792SOL    HW1 7383   1.362   1.069   3.493 -0.4258  0.7909  1.2134
 1792SOL    HW2 7384   1.269   0.965   3.436  3.1418 -1.6717 -0.4648
 1793SOL     OW 7385   6.060   3.949   9.855 -0.4288 -0.1707  0.2230
 1793SOL    HW1 7386   6.059   3.949   9.951  0.5630 -2.4341  0.2839
 1793SOL    HW2 7387   5.987   4.006   9.831 -0.3660  0.8716  2.3073
 1794SOL     OW 7388   3.226   2.390   6.746  0.1103 -0.3256  0.3854
 1794SOL    HW1 7389   3.258   2.378   6.836  1.2696 -0.0594  0.0326
 1794SOL    HW2 7390   3.284   2.335   6.693  1.0284  1.3616 -0.4610
 1795SOL     OW 7391   0.971  11.076   3.918 -0.3791  0.1251  0.3891
 1795SOL    HW1 7392   1.065  11.083   3.901 -0.1376 -1.3223  0.9368
 1795SOL    HW2 7393   0.951  11.150   3.976  0.1506  1.1399 -0.6849
 1796SOL     OW 7394   6.388   1.817   7.716  0.1214 -0.0602  0.0092
 1796SOL    HW1 7395   6.409   1.763   7.792 -0.3537  0.7106  0.7174
 1796SOL    HW2 7396   6.294   1.802   7.701 -0.6773  2.3883  1.8052
 1797SOL     OW 7397   9.196   4.492   2.755  0.6493 -0.7010 -0.7043
 1797SOL    HW1 7398   9.247   4.528   2.682 -0.3690  1.4099 -0.4686
 1797SOL    HW2 7399   9.105   4.510   2.731  0.3269  1.4072  1.6440
 1798SOL     OW 7400  10.244   4.394   2.641  0.0559 -0.4270  0.2942
 1798SOL    HW1 7401  10.229   4.487   2.659  0.2657 -0.5927  1.3878
 1798SOL    HW2 7402  10.249   4.389   2.545 -0.5639  0.5870  0.1908
 1799SOL     OW 7403   4.599   4.823   8.139  0.2303 -0.0737 -0.0116
 1799SOL    HW1 7404   4.541   4.899   8.126  0.3799 -0.1352 -1.2112
 1799SOL    HW2 7405   4.545   4.748   8.113  0.7509 -0.1555 -0.8962
 1800SOL     OW 7406   2.485   6.179   6.690  0.6428  0.2243 -0.2409
 1800SOL    HW1 7407   2.535   6.166   6.771  1.2720  2.1973 -0.2407
 1800SOL    HW2 7408   2.550   6.212   6.627  0.2180 -1.4934 -1.6762
 1801SOL     OW 7409   1.213   3.401   4.444  0.3429 -0.4653 -0.0343
 1801SOL    HW1 7410   1.233   3.379   4.535  0.7962 -0.4567 -0.1279
 1801SOL    HW2 7411   1.298   3.398   4.399 -0.2640 -3.7042 -1.1868
 1802SOL     OW 7412   4.483  10.939   0.462 -0.7162  0.1508 -0.0268
 1802SOL    HW1 7413   4.575  10.964   0.468 -0.1594 -1.2165 -1.9084
 1802SOL    HW2 7414   4.484  10.851   0.424 -2.7291 -1.0280  2.3839
 1803SOL     OW 7415   2.929   0.803   4.626  0.0638  0.0532  0.5172
 1803SOL    HW1 7416   2.984   0.725   4.623  0.6886  0.5071 -0.2280
 1803SOL    HW2 7417   2.860   0.788   4.562 -0.0529 -0.0576  0.6685
 1804SOL     OW 7418   8.865   3.102   3.108  0.0210 -0.3319 -0.6541
 1804SOL    HW1 7419   8.912   3.120   3.026  0.3985 -1.9868 -0.8515
 1804SOL    HW2 7420   8.898   3.166   3.170 -0.9810  1.6109 -2.0111
 1805SOL     OW 7421  10.963   5.348   1.839 -0.2666 -0.0383  0.2214
 1805SOL    HW1 7422  11.056   5.330   1.855 -0.0844 -0.7861 -1.4029
 1805SOL    HW2 7423  10.959   5.442   1.825  0.4813 -0.1378 -0.8611
 1806SOL     OW 7424   8.997   7.411   4.549  0.3951  0.3467  0.1187
 1806SOL    HW1 7425   9.003   7.494   4.501 -1.4843 -0.7119 -2.1540
 1806SOL    HW2 7426   8.941   7.355   4.494  0.7772 -2.1102  2.0340
 1807SOL     OW 7427   0.455   2.218   1.026  0.3167 -0.1052  0.1271
 1807SOL    HW1 7428   0.522   2.155   1.052  0.7702  0.7685  1.2104
 1807SOL    HW2 7429   0.390   2.214   1.096  1.7450  2.5673  1.8230
 1808SOL     OW 7430   2.725   0.334   2.878 -0.1966  0.1098 -0.1666
 1808SOL    HW1 7431   2.726   0.280   2.957  1.9472 -0.0536 -0.2548
 1808SOL    HW2 7432   2.786   0.405   2.897 -1.5055  1.4596 -0.7906
 1809SOL     OW 7433   8.946   2.399   3.918 -0.0793 -0.1191  0.1413
 1809SOL    HW1 7434   8.859   2.361   3.905  0.0719 -0.3403 -0.2541
 1809SOL    HW2 7435   8.998   2.327   3.954  0.2959 -0.3898 -0.9234
 1810SOL     OW 7436   1.610   4.008   0.044 -0.2020  0.2911 -0.0042
 1810SOL    HW1 7437   1.541   3.942   0.036 -1.1001  0.7011  3.0510
 1810SOL    HW2 7438   1.566   4.092   0.033  0.4656  0.4930 -1.3259
 1811SOL     OW 7439   9.596   3.268   4.364 -0.3777  0.0587  0.2047
 1811SOL    HW1 7440   9.569   3.331   4.298 -0.7032 -0.4709 -0.1733
 1811SOL    HW2 7441   9.549   3.188   4.342  0.3255 -0.4335  0.4472
 1812SOL     OW 7442   6.664   8.990   3.396  0.8917  0.0440  0.2857
 1812SOL    HW1 7443   6.731   9.030   3.452 -0.3066  0.9308  1.1283
 1812SOL    HW2 7444   6.645   9.056   3.330 -0.4588  0.5603  1.1547
 1813SOL     OW 7445   8.935   7.185   8.742 -0.2564 -0.4470 -0.3989
 1813SOL    HW1 7446   8.861   7.233   8.779  0.4568 -1.1664  2.1620
 1813SOL    HW2 7447   8.942   7.217   8.652 -2.9660  0.4350 -0.3841
 1814SOL     OW 7448   1.389   6.889   6.292 -0.4252 -0.1645  0.0302
 1814SOL    HW1 7449   1.443   6.840   6.354 -0.2621  0.6505  0.5433
 1814SOL    HW2 7450   1.434   6.878   6.208 -0.2039 -0.6068  0.2010
 1815SOL     OW 7451   2.698   0.954   4.395  0.0056  0.3716  0.2355
 1815SOL    HW1 7452   2.771   0.993   4.346  0.8846  0.7119  1.7221
 1815SOL    HW2 7453   2.663   1.027   4.447 -2.1486  0.4767 -1.2498
 1816SOL     OW 7454   4.020   9.914   4.117 -0.2221 -0.1570  0.3823
 1816SOL    HW1 7455   4.005   9.958   4.201 -0.5926  0.9933 -0.2618
 1816SOL    HW2 7456   3.964   9.836   4.120  0.1064 -0.3735  1.3673
 1817SOL     OW 7457   5.749   1.803   9.525  0.2003  0.5189  0.0125
 1817SOL    HW1 7458   5.757   1.795   9.620  2.6936 -1.4145 -0.2497
 1817SOL    HW2 7459   5.761   1.896   9.508 -1.8115  1.1600  1.6198
 1818SOL     OW 7460   1.709   9.260   1.175  0.4771  0.4649  0.3482
 1818SOL    HW1 7461   1.720   9.170   1.144 -1.4197  0.2055  0.3451
 1818SOL    HW2 7462   1.615   9.278   1.167  0.7266  2.2634  0.8753
 1819SOL     OW 7463  10.891  10.270   2.079 -0.0841  0.0007  0.5995
 1819SOL    HW1 7464  10.853  10.284   2.165 -0.7308  0.3606  0.2642
 1819SOL    HW2 7465  10.866  10.348   2.029 -0.9485 -0.8468 -0.3350
 1820SOL     OW 7466  10.083   1.899   5.777 -0.5663 -0.3030  0.4673
 1820SOL    HW1 7467  10.002   1.878   5.730 -1.7797  2.2698  1.2152
 1820SOL    HW2 7468  10.072   1.990   5.804  2.0854 -0.2488  1.6852
 1821SOL     OW 7469   8.404   4.596   9.724  0.3058  0.2960  0.3430
 1821SOL    HW1 7470   8.373   4.509   9.698 -1.4388  1.0257 -0.1911
 1821SOL    HW2 7471   8.498   4.594   9.705  0.6179 -1.9445  1.7408
 1822SOL     OW 7472   9.931   6.555   2.927 -0.4390  0.0820  0.1549
 1822SOL    HW1 7473   9.921   6.461   2.940 -0.3534  0.2841  1.8440
 1822SOL    HW2 7474  10.018   6.576   2.962  0.3029  0.5493 -1.7850
 1823SOL     OW 7475   3.041   5.675   9.938  0.0629 -0.1681  0.2413
 1823SOL    HW1 7476   3.073   5.728  10.011  3.3210 -1.0651 -0.3535
 1823SOL    HW2 7477   2.988   5.607   9.980  1.3530 -0.3070  1.7560
 1824SOL     OW 7478   2.253   2.980  10.626  1.0289  0.2739 -0.1619
 1824SOL    HW1 7479   2.171   3.018  10.658  0.3510 -0.0385 -1.4572
 1824SOL    HW2 7480   2.250   2.888  10.655  1.4750  0.5391  0.7702
 1825SOL     OW 7481   0.390   8.126   6.376  0.3965  0.4717 -0.1907
 1825SOL    HW1 7482   0.315   8.186   6.374  0.3052  0.3289 -1.6132
 1825SOL    HW2 7483   0.354   8.042   6.346  1.3553  0.6971 -2.1049
 1826SOL     OW 7484   9.707   4.048   4.638 -0.2461 -0.1681  0.5855
 1826SOL    HW1 7485   9.636   3.991   4.608 -0.1266  0.1161 -0.2915
 1826SOL    HW2 7486   9.675   4.087   4.718 -0.5175 -1.1111  0.9555
 1827SOL     OW 7487   0.861   8.249   3.035  0.2485 -0.2341  0.4273
 1827SOL    HW1 7488   0.919   8.172   3.035 -1.3000 -1.4813 -0.7296
 1827SOL    HW2 7489   0.910   8.315   2.986  1.3339 -0.7140  0.8267
 1828SOL     OW 7490  10.855   6.433   6.168  0.2817  0.0537  0.2566
 1828SOL    HW1 7491  10.852   6.349   6.215  1.3400  0.5841  1.3065
 1828SOL    HW2 7492  10.947   6.458   6.169  0.3446  0.1299 -2.0953
 1829SOL     OW 7493   0.197   2.439   3.415  0.6553 -0.1591 -0.4601
 1829SOL    HW1 7494   0.236   2.398   3.493  0.0358  1.7972  0.9537
 1829SOL    HW2 7495   0.184   2.530   3.440  0.4892  0.5525 -2.9239
 1830SOL     OW 7496  10.850  10.052   1.677 -0.2273  0.2127  0.5796
 1830SOL    HW1 7497  10.828  10.006   1.758  1.0271  0.8574  1.3382
 1830SOL    HW2 7498  10.843  10.145   1.700 -1.2511  0.4266 -0.4853
 1831SOL     OW 7499   8.184   6.252   4.305 -0.6399  0.1157  0.2118
 1831SOL    HW1 7500   8.120   6.194   4.265 -0.3375 -1.0833  1.4250
 1831SOL    HW2 7501   8.262   6.198   4.317  0.3316  1.2998 -0.4051
 1832SOL     OW 7502   1.028   5.931   2.466  0.1310  0.2088 -0.0246
 1832SOL    HW1 7503   1.048   5.973   2.550  0.5493  0.2200 -0.1262
 1832SOL    HW2 7504   1.043   5.838   2.481 -0.3721  0.1446  0.0786
 1833SOL     OW 7505  10.835   5.953   8.476  0.3072  0.1349 -0.1322
 1833SOL    HW1 7506  10.857   5.959   8.569  0.2189  0.4926 -0.1320
 1833SOL    HW2 7507  10.903   5.898   8.438 -0.4407 -1.2145  0.4007
 1834SOL     OW 7508  11.051   5.672   3.817  0.3246 -0.2613  0.0059
 1834SOL    HW1 7509  11.129   5.619   3.800 -0.2286 -0.8499 -0.7386
 1834SOL    HW2 7510  11.079   5.762   3.798  0.9584 -0.4081  0.2260
 1835SOL     OW 7511  10.739   9.574   6.943  0.3344  0.3536  0.4964
 1835SOL    HW1 7512  10.747   9.520   6.865  0.8975 -0.2484  0.9555
 1835SOL    HW2 7513  10.736   9.664   6.910  1.4805  0.1641 -0.1789
 1836SOL     OW 7514   3.377   8.475  10.532  0.1610  0.5074 -0.3964
 1836SOL    HW1 7515   3.295   8.462  10.580 -0.9196  2.1056 -1.7144
 1836SOL    HW2 7516   3.374   8.411  10.461  1.6557 -1.6994  1.3502
 1837SOL     OW 7517  10.705   9.772   1.842 -0.0010 -0.4035  0.4010
 1837SOL    HW1 7518  10.626   9.763   1.896 -0.9424  0.4560 -0.7852
 1837SOL    HW2 7519  10.772   9.802   1.903  0.1699 -3.6083  2.0029
 1838SOL     OW 7520   8.306   2.720  10.552 -0.1974  0.5699  0.0650
 1838SOL    HW1 7521   8.347   2.805  10.564  2.1902 -0.2819 -1.4310
 1838SOL    HW2 7522   8.271   2.722  10.463  0.0865 -0.0807 -0.0681
 1839SOL     OW 7523   7.291   8.046   4.295 -0.3555 -0.7711  0.3331
 1839SOL    HW1 7524   7.207   8.042   4.341 -0.6979  1.2184 -0.0251
 1839SOL    HW2 7525   7.294   7.966   4.243 -1.3656 -1.5618  1.4462
 1840SOL     OW 7526   9.629   6.109   3.497 -0.4480 -0.1695  0.3025
 1840SOL    HW1 7527   9.607   6.059   3.419 -2.3301  2.2904 -0.8784
 1840SOL    HW2 7528   9.634   6.044   3.567  3.6399 -2.8514 -2.0587
 1841SOL     OW 7529   2.191   0.722   3.419  0.0900 -0.0813  0.4284
 1841SOL    HW1 7530   2.142   0.714   3.501  0.2732  1.1667  0.6801
 1841SOL    HW2 7531   2.277   0.756   3.445  0.6634 -1.0188 -0.1444
 1842SOL     OW 7532   9.072   6.268   2.180  0.0847 -0.6933  0.3298
 1842SOL    HW1 7533   8.998   6.324   2.203  0.3247 -0.2495  0.0463
 1842SOL    HW2 7534   9.148   6.326   2.187  0.6796 -1.6213  2.6195
 1843SOL     OW 7535   1.989   3.702   0.752 -0.5418 -0.3537  0.0926
 1843SOL    HW1 7536   1.958   3.751   0.676  0.4415  2.2052  1.2578
 1843SOL    HW2 7537   1.909   3.677   0.798 -1.0517  0.8618 -0.1154
 1844SOL     OW 7538   5.533   4.568   3.757  0.4738  0.4004 -0.3684
 1844SOL    HW1 7539   5.544   4.494   3.697  0.0832  0.8695 -1.0225
 1844SOL    HW2 7540   5.609   4.563   3.815 -1.1048 -2.4574  1.7338
 1845SOL     OW 7541   9.538   1.355   3.070 -0.0088 -0.0943  0.0665
 1845SOL    HW1 7542   9.506   1.441   3.043  0.8507  0.1564 -0.1743
 1845SOL    HW2 7543   9.614   1.373   3.126  0.3600 -0.6923 -0.2247
 1846SOL     OW 7544  10.799   4.401   5.560  0.1844  0.2790 -0.7779
 1846SOL    HW1 7545  10.838   4.317   5.584  0.4347  0.6489  0.1635
 1846SOL    HW2 7546  10.828   4.461   5.628 -1.8992  0.6140 -0.1136
 1847SOL     OW 7547   3.098  10.991   5.410 -0.1880 -0.0937  0.1567
 1847SOL    HW1 7548   3.108  11.073   5.458 -1.3696  0.5031 -0.5756
 1847SOL    HW2 7549   3.025  11.007   5.349 -0.7737 -1.8406  0.3381
 1848SOL     OW 7550   6.950   1.432   7.136  0.0498  0.4762  0.4037
 1848SOL    HW1 7551   6.860   1.435   7.168 -0.9769 -0.6451 -2.0887
 1848SOL    HW2 7552   6.949   1.488   7.058  1.7913  1.1842  0.8421
 1849SOL     OW 7553   3.181   7.260   6.092 -0.9746  0.4993 -0.0081
 1849SOL    HW1 7554   3.202   7.182   6.041 -1.2681  0.8229 -0.6234
 1849SOL    HW2 7555   3.235   7.329   6.053  0.3465  0.3288  1.4157
 1850SOL     OW 7556   3.398   6.070   2.782  0.2876 -0.2019 -0.4267
 1850SOL    HW1 7557   3.368   5.982   2.759  1.0708 -0.5438 -0.1729
 1850SOL    HW2 7558   3.468   6.056   2.847  0.6545  0.5892 -0.6310
 1851SOL     OW 7559   5.470   2.880   5.379  0.4686  0.1423 -0.2076
 1851SOL    HW1 7560   5.546   2.841   5.421 -0.5819 -0.0738  1.6036
 1851SOL    HW2 7561   5.437   2.943   5.443 -0.0130  1.3436 -1.5823
 1852SOL     OW 7562  10.880   9.882   8.596  0.0175 -0.0440  0.0377
 1852SOL    HW1 7563  10.839   9.864   8.511  0.2893 -0.3121 -0.0388
 1852SOL    HW2 7564  10.973   9.865   8.582 -0.0010 -0.5662  0.5126
 1853SOL     OW 7565  10.777   2.017   4.400  0.0007 -0.2947 -0.0642
 1853SOL    HW1 7566  10.776   1.945   4.463 -1.3381 -0.5948 -0.3874
 1853SOL    HW2 7567  10.705   2.073   4.427 -0.3065 -0.1914 -1.0442
 1854SOL     OW 7568   6.969   3.099   1.047 -0.0910 -0.6100  0.3926
 1854SOL    HW1 7569   7.050   3.103   1.097 -0.2254  1.4253  0.4984
 1854SOL    HW2 7570   6.899   3.103   1.112 -0.3929 -3.8001  0.4325
 1855SOL     OW 7571   0.763   4.037  11.019 -0.5275 -0.2454  0.9767
 1855SOL    HW1 7572   0.717   3.956  10.995  0.0696 -0.2473 -0.2285
 1855SOL    HW2 7573   0.853   4.023  10.989 -0.1201  0.4085  1.8369
 1856SOL     OW 7574   1.552   2.269   7.154  0.1011 -0.4740 -0.2270
 1856SOL    HW1 7575   1.498   2.190   7.149 -0.2303 -0.2418 -0.3753
 1856SOL    HW2 7576   1.527   2.321   7.078 -0.1148  0.0406  0.1849
 1857SOL     OW 7577   9.723   5.117  10.482  0.4090 -0.0863 -0.3234
 1857SOL    HW1 7578   9.737   5.022  10.487 -0.5495 -0.3126 -1.3543
 1857SOL    HW2 7579   9.807   5.155  10.507  0.6109 -1.1847  0.8191
 1858SOL     OW 7580   6.186   3.290   4.786  0.1132 -0.0325 -0.5099
 1858SOL    HW1 7581   6.257   3.353   4.792 -0.3050  0.3347  0.9283
 1858SOL    HW2 7582   6.203   3.228   4.856  0.1879 -1.2020 -1.5352
 1859SOL     OW 7583   0.224   7.379   4.228 -0.1914  0.0553  0.1581
 1859SOL    HW1 7584   0.311   7.375   4.189 -0.7589  1.0807 -1.2923
 1859SOL    HW2 7585   0.241   7.407   4.318  0.9767  0.5391 -0.1779
 1860SOL     OW 7586   9.609   3.324   9.993 -0.3229 -0.3389 -1.0719
 1860SOL    HW1 7587   9.628   3.411   9.959 -0.5297  0.0342 -0.2633
 1860SOL    HW2 7588   9.630   3.264   9.921 -2.0012  0.4967 -2.3212
 1861SOL     OW 7589  10.831   4.956  10.850 -0.6633 -0.1889 -0.0536
 1861SOL    HW1 7590  10.890   4.899  10.801  0.1027 -0.4595  1.1330
 1861SOL    HW2 7591  10.752   4.903  10.862 -1.0546  0.0592 -1.3772
 1862SOL     OW 7592   9.128   7.186   0.355 -0.6042  0.2341  0.3110
 1862SOL    HW1 7593   9.093   7.112   0.405 -0.2700  0.2378  0.5591
 1862SOL    HW2 7594   9.138   7.256   0.419 -0.2364  0.2600  0.2289
 1863SOL     OW 7595   0.439   7.432  10.525  0.7897  0.3324 -0.4508
 1863SOL    HW1 7596   0.503   7.495  10.557  0.3037  1.5489 -1.7717
 1863SOL    HW2 7597   0.472   7.406  10.439 -0.6422  1.2619 -1.3237
 1864SOL     OW 7598   2.304   6.212   5.724  0.4314 -0.5559  0.0755
 1864SOL    HW1 7599   2.399   6.210   5.714  0.3445 -0.0846 -1.0634
 1864SOL    HW2 7600   2.288   6.286   5.783  0.7331  0.0126 -0.5323
 1865SOL     OW 7601   5.452   0.689   9.486 -0.3532 -0.3874 -0.9094
 1865SOL    HW1 7602   5.480   0.666   9.574  2.3405 -0.9952 -1.8173
 1865SOL    HW2 7603   5.404   0.613   9.454 -1.1474 -0.2479 -0.0746
 1866SOL     OW 7604   0.576   1.568  10.121 -0.6002  0.3630 -0.5513
 1866SOL    HW1 7605   0.486   1.562  10.088 -1.0679 -1.2878  0.8358
 1866SOL    HW2 7606   0.568   1.546  10.214  1.3362 -0.6294 -0.5809
 1867SOL     OW 7607   4.726   9.458  10.440 -0.2354  0.1722 -0.3993
 1867SOL    HW1 7608   4.773   9.525  10.390  1.6264 -0.3090  0.6181
 1867SOL    HW2 7609   4.759   9.467  10.530 -0.7037 -1.4331 -0.0293
 1868SOL     OW 7610   8.343   3.103   2.295 -0.4676  0.1141  0.4363
 1868SOL    HW1 7611   8.391   3.107   2.212  2.2382  0.7454  1.9005
 1868SOL    HW2 7612   8.340   3.193   2.326 -1.3635 -0.1202  1.0824
 1869SOL     OW 7613   2.158   7.235   1.054 -0.7471  0.3782 -0.0332
 1869SOL    HW1 7614   2.118   7.181   1.122  0.0191 -0.6027 -0.3348
 1869SOL    HW2 7615   2.099   7.225   0.979  0.5362 -1.9480 -0.8290
 1870SOL     OW 7616   5.911   1.227   3.836  0.2437 -0.1489 -0.1183
 1870SOL    HW1 7617   5.818   1.206   3.826  0.2273 -0.8280  1.2093
 1870SOL    HW2 7618   5.946   1.155   3.889  1.1597  0.9517  0.8215
 1871SOL     OW 7619   9.051   8.884   2.110  0.2472  0.1084  0.5612
 1871SOL    HW1 7620   9.072   8.819   2.176  0.3124 -1.3227 -0.8035
 1871SOL    HW2 7621   8.957   8.873   2.094  0.1402  0.7485  0.7247
 1872SOL     OW 7622   9.349   6.365   6.350  0.0669  0.7126  0.0361
 1872SOL    HW1 7623   9.339   6.406   6.264 -1.0397 -1.4336 -0.9205
 1872SOL    HW2 7624   9.443   6.346   6.357  0.2709  1.5246 -0.3669
 1873SOL     OW 7625   2.069   7.217  10.603  0.2846 -0.7432 -0.3198
 1873SOL    HW1 7626   1.995   7.278  10.596  0.3493 -0.8064 -1.9431
 1873SOL    HW2 7627   2.122   7.252  10.674 -0.3387  0.3660 -0.3753
 1874SOL     OW 7628   7.168  10.279   5.801 -0.4177  0.3245  0.3300
 1874SOL    HW1 7629   7.086  10.245   5.765 -0.4992  0.9687 -0.1050
 1874SOL    HW2 7630   7.164  10.256   5.894 -0.8550 -0.0967  0.2150
 1875SOL     OW 7631   3.183   1.332   4.046 -0.2611 -0.0029  0.8160
 1875SOL    HW1 7632   3.161   1.387   4.121 -1.1554 -1.5565  1.7452
 1875SOL    HW2 7633   3.109   1.341   3.987 -0.1452  0.2254  0.7046
 1876SOL     OW 7634   9.880   5.163   9.688 -0.0800 -0.1385  0.1106
 1876SOL    HW1 7635   9.823   5.140   9.761 -0.0880  0.1947  0.2084
 1876SOL    HW2 7636   9.820   5.187   9.617 -0.0690  1.2951  0.5528
 1877SOL     OW 7637   8.179   9.343   3.099 -0.2575  1.1423 -0.5535
 1877SOL    HW1 7638   8.201   9.423   3.052  0.0252  0.1834 -2.1123
 1877SOL    HW2 7639   8.151   9.281   3.031  0.0531 -0.2688  0.5374
 1878SOL     OW 7640   2.586   8.241   4.885 -0.3196  0.1218  0.0732
 1878SOL    HW1 7641   2.644   8.256   4.960  0.4526 -0.2474 -0.4400
 1878SOL    HW2 7642   2.613   8.307   4.821 -2.0402  1.5160  0.6813
 1879SOL     OW 7643   7.151   1.664  10.190 -0.0046 -0.6731 -0.0627
 1879SOL    HW1 7644   7.215   1.595  10.204  1.3314  0.3987 -0.6323
 1879SOL    HW2 7645   7.200   1.745  10.205 -1.0441  0.1924 -1.1960
 1880SOL     OW 7646   4.320   8.793   6.125  0.1888  0.3336 -0.3665
 1880SOL    HW1 7647   4.326   8.700   6.145  0.9548  0.4922  0.1835
 1880SOL    HW2 7648   4.408   8.827   6.142 -0.0075  1.1043 -0.8375
 1881SOL     OW 7649   5.818   3.042   3.530 -0.1193 -0.6291  0.0418
 1881SOL    HW1 7650   5.900   3.091   3.539 -0.6957  0.7268 -1.5306
 1881SOL    HW2 7651   5.776   3.050   3.616  1.3074 -1.2565  0.8397
 1882SOL     OW 7652   9.195   7.671   6.525  0.2430 -0.0631 -0.5865
 1882SOL    HW1 7653   9.117   7.687   6.472 -0.7256 -2.2662  0.1004
 1882SOL    HW2 7654   9.207   7.576   6.523  2.1707  0.1049  0.4043
 1883SOL     OW 7655   9.349   0.499   3.002  0.4837  0.0130  0.2421
 1883SOL    HW1 7656   9.272   0.553   2.987  0.2371  0.0725  1.5926
 1883SOL    HW2 7657   9.408   0.519   2.929 -0.4990  0.4550 -0.4396
 1884SOL     OW 7658   9.795   2.488   4.113  0.0320  0.2939  0.0933
 1884SOL    HW1 7659   9.822   2.480   4.204 -0.3263 -0.1820  0.1609
 1884SOL    HW2 7660   9.704   2.516   4.117 -0.5306 -1.4459 -0.0930
 1885SOL     OW 7661   7.487   4.526   2.135 -0.5197 -0.4464 -0.6248
 1885SOL    HW1 7662   7.427   4.554   2.065  0.1900  1.7473 -0.4503
 1885SOL    HW2 7663   7.564   4.494   2.088  0.2481  1.6902 -0.9260
 1886SOL     OW 7664   4.725   4.761   8.727  0.9196 -0.8755  0.2315
 1886SOL    HW1 7665   4.669   4.820   8.778  1.8393 -1.1400  1.6084
 1886SOL    HW2 7666   4.710   4.787   8.636  2.4123  2.5994  0.7953
 1887SOL     OW 7667   9.407   3.853   6.419  0.1248  0.4709  0.3202
 1887SOL    HW1 7668   9.486   3.827   6.371  0.4005  0.9512  0.5040
 1887SOL    HW2 7669   9.421   3.823   6.508 -0.4358 -0.5188  0.0868
 1888SOL     OW 7670  10.196   5.762   2.535  0.0728 -0.3898 -0.3620
 1888SOL    HW1 7671  10.154   5.676   2.536  0.9198 -0.8287  1.3801
 1888SOL    HW2 7672  10.261   5.756   2.466  0.5180 -1.3770  0.1249
 1889SOL     OW 7673  10.040   5.805   0.312 -0.4016  0.1728 -0.3365
 1889SOL    HW1 7674  10.061   5.730   0.256  1.5396  0.5392 -0.1782
 1889SOL    HW2 7675  10.031   5.879   0.252 -1.7040 -0.0545 -0.4381
 1890SOL     OW 7676   0.928   9.484   3.578 -0.3506 -0.1763 -0.2612
 1890SOL    HW1 7677   0.945   9.428   3.654 -1.2036 -1.5625 -1.0527
 1890SOL    HW2 7678   0.837   9.468   3.556 -0.5703  1.4472 -0.6123
 1891SOL     OW 7679   6.068   2.776   4.221 -0.3551 -0.1186 -0.0173
 1891SOL    HW1 7680   6.132   2.752   4.288  1.3163  1.0394 -1.1154
 1891SOL    HW2 7681   6.005   2.832   4.267  0.0187 -0.3928  0.8472
 1892SOL     OW 7682   6.346   4.295   4.797  0.1982  0.2860  0.4145
 1892SOL    HW1 7683   6.382   4.324   4.881  0.4139  1.8476 -0.1724
 1892SOL    HW2 7684   6.341   4.375   4.745 -1.1743 -0.4328 -0.6154
 1893SOL     OW 7685   0.730   8.260   7.446  0.3744 -0.0771  0.0662
 1893SOL    HW1 7686   0.808   8.262   7.391  0.6707 -2.7567  0.2661
 1893SOL    HW2 7687   0.672   8.197   7.404 -2.0071  2.2109 -0.3670
 1894SOL     OW 7688   6.082  10.406   8.607  0.1453 -0.5604 -0.5630
 1894SOL    HW1 7689   6.016  10.434   8.671  0.3465  0.0531 -0.6145
 1894SOL    HW2 7690   6.038  10.339   8.555 -0.9328  0.8439 -1.5377
 1895SOL     OW 7691   2.888   1.548   0.261  0.0110  0.0547  0.2333
 1895SOL    HW1 7692   2.931   1.486   0.320 -0.9650 -1.5344 -0.6390
 1895SOL    HW2 7693   2.955   1.568   0.195  0.8150  1.1424  1.3459
 1896SOL     OW 7694   7.955   3.065   9.838  0.1118  0.1029 -0.1522
 1896SOL    HW1 7695   7.865   3.073   9.804  0.2409 -2.8403 -1.5429
 1896SOL    HW2 7696   7.943   3.044   9.930 -0.5683  0.6814 -0.0945
 1897SOL     OW 7697   9.184   9.728   4.218 -0.8145 -0.2238  0.1752
 1897SOL    HW1 7698   9.185   9.695   4.128  0.2160  0.4708 -0.0836
 1897SOL    HW2 7699   9.260   9.786   4.223  0.5742 -2.0502  2.1796
 1898SOL     OW 7700   9.244   5.601   3.409 -0.1180 -0.4355  0.5596
 1898SOL    HW1 7701   9.334   5.634   3.415 -0.2551 -0.0379  0.3835
 1898SOL    HW2 7702   9.247   5.537   3.338 -0.2005  0.3147 -0.1332
 1899SOL     OW 7703   1.264   3.805   1.132 -0.4943 -0.5145 -0.3342
 1899SOL    HW1 7704   1.193   3.858   1.097 -0.0904 -0.3531 -0.9218
 1899SOL    HW2 7705   1.227   3.716   1.137 -1.4314 -0.0836  1.3977
 1900SOL     OW 7706   8.877   3.869   4.051  0.5250  0.0642  0.6654
 1900SOL    HW1 7707   8.810   3.844   3.988 -0.2097 -0.2278  1.5312
 1900SOL    HW2 7708   8.960   3.850   4.008  0.0454  0.2813 -0.3645
 1901SOL     OW 7709   5.566   4.535   4.686  0.6090  0.7565 -0.8187
 1901SOL    HW1 7710   5.615   4.611   4.716  0.8151 -0.4750  2.4035
 1901SOL    HW2 7711   5.629   4.463   4.689  0.3121  0.2924 -3.3808
 1902SOL     OW 7712  10.890   4.281  10.381  0.0258 -0.0141 -0.7116
 1902SOL    HW1 7713  10.951   4.318  10.445 -0.5108 -0.5488  0.1239
 1902SOL    HW2 7714  10.834   4.355  10.356 -3.3837 -0.7114  3.5851
 1903SOL     OW 7715   2.950  10.655   5.015 -0.1264  0.2283 -0.0394
 1903SOL    HW1 7716   2.939  10.679   4.923  0.3601 -2.3167 -0.8395
 1903SOL    HW2 7717   2.882  10.704   5.060  0.7342  2.9044 -1.4473
 1904SOL     OW 7718   1.439  10.269   7.137 -0.3839  0.1062  0.0566
 1904SOL    HW1 7719   1.352  10.304   7.114 -0.7242  0.3612  1.6275
 1904SOL    HW2 7720   1.437  10.179   7.105 -0.9367  0.3372 -0.6086
 1905SOL     OW 7721   7.461   1.433   5.185  0.1348  0.6849 -0.5986
 1905SOL    HW1 7722   7.371   1.457   5.207  0.2925  0.1535  0.6996
 1905SOL    HW2 7723   7.509   1.516   5.185  0.0538  0.7417  0.7786
 1906SOL     OW 7724   8.547   3.111   2.077  0.2634  0.4638  0.4153
 1906SOL    HW1 7725   8.637   3.141   2.093  0.5610 -0.0865 -0.1942
 1906SOL    HW2 7726   8.501   3.190   2.048  1.0236  0.3839 -1.1034
 1907SOL     OW 7727   1.645   7.962   5.607  0.6570  0.3224  0.4564
 1907SOL    HW1 7728   1.711   7.975   5.675  2.5164  0.4833 -1.3020
 1907SOL    HW2 7729   1.596   7.885   5.637  1.3475  0.4537  2.0246
 1908SOL     OW 7730   2.273   6.501   3.120 -0.1930 -0.8674 -0.0453
 1908SOL    HW1 7731   2.181   6.517   3.101 -0.4838 -1.0446  1.1185
 1908SOL    HW2 7732   2.291   6.416   3.080 -0.4005 -0.6186 -0.6784
 1909SOL     OW 7733   8.037   0.577   5.028 -0.4582  0.3516 -0.0085
 1909SOL    HW1 7734   8.132   0.573   5.037 -0.4328 -0.6270 -0.6000
 1909SOL    HW2 7735   8.004   0.568   5.118 -0.0197 -0.6643  0.0597
 1910SOL     OW 7736   5.583   5.806  10.264  0.5298 -0.3630 -0.0801
 1910SOL    HW1 7737   5.494   5.827  10.291  0.4514 -0.1718 -0.4757
 1910SOL    HW2 7738   5.604   5.725  10.309  0.2003 -0.3420  0.1115
 1911SOL     OW 7739   0.577   3.929   5.874 -0.4009 -0.3387  0.2610
 1911SOL    HW1 7740   0.609   3.990   5.808 -0.3681 -1.9385 -1.2659
 1911SOL    HW2 7741   0.644   3.861   5.878 -2.1746 -2.2788 -0.9357
 1912SOL     OW 7742   3.058   3.103   9.682 -0.0464 -0.0641  0.1124
 1912SOL    HW1 7743   2.963   3.094   9.670 -0.1690  1.2668 -0.0867
 1912SOL    HW2 7744   3.086   3.017   9.714 -1.7472  0.3340  3.0599
 1913SOL     OW 7745   7.092  10.419  10.176  0.2782 -0.0303  0.5168
 1913SOL    HW1 7746   7.177  10.452  10.149  0.8121 -0.2013  1.8732
 1913SOL    HW2 7747   7.036  10.496  10.180  0.5197  0.1676  0.1635
 1914SOL     OW 7748   7.383   2.840   2.793  0.0698  0.1541 -0.2643
 1914SOL    HW1 7749   7.444   2.772   2.821  0.4745 -0.4627 -2.4189
 1914SOL    HW2 7750   7.312   2.793   2.750 -0.5525  1.0025 -0.1904
 1915SOL     OW 7751   0.330   6.615   1.151  0.1455 -0.5899 -0.0222
 1915SOL    HW1 7752   0.329   6.566   1.233 -0.6536  0.3333  0.5377
 1915SOL    HW2 7753   0.253   6.671   1.155 -0.4529 -1.1949 -1.8392
 1916SOL     OW 7754   6.604   4.963   7.395  0.6553  0.3778 -0.4538
 1916SOL    HW1 7755   6.667   4.903   7.355 -0.1811 -0.8458  0.0198
 1916SOL    HW2 7756   6.531   4.967   7.333  0.8507  1.1968 -0.6475
 1917SOL     OW 7757   9.012   2.131   1.977 -0.6400 -0.5511  0.3937
 1917SOL    HW1 7758   8.918   2.141   1.958 -0.8473 -0.7428  1.2780
 1917SOL    HW2 7759   9.023   2.167   2.064  0.0454 -0.8932  0.4558
 1918SOL     OW 7760   1.111   4.137   1.431  0.4104 -0.0147 -0.7874
 1918SOL    HW1 7761   1.118   4.097   1.517 -0.6758 -0.5721 -0.9299
 1918SOL    HW2 7762   1.016   4.144   1.416  0.5830  1.5286 -1.2751
 1919SOL     OW 7763   3.025   2.103   1.814  0.1955 -0.2419 -0.2727
 1919SOL    HW1 7764   3.087   2.176   1.804 -0.4680  0.3002 -0.5427
 1919SOL    HW2 7765   3.074   2.026   1.787  0.6509  0.2271 -0.8242
 1920SOL     OW 7766   8.477  10.110   9.804 -0.0030  0.5597 -0.2035
 1920SOL    HW1 7767   8.564  10.148   9.786  0.0143  0.2351 -0.8208
 1920SOL    HW2 7768   8.422  10.142   9.732  0.0295 -0.6300 -0.7810
 1921SOL     OW 7769   0.919   4.687   6.911  0.9653 -0.1892 -0.1128
 1921SOL    HW1 7770   0.916   4.775   6.948  1.7050  0.3057 -1.1913
 1921SOL    HW2 7771   0.966   4.697   6.828  2.5317 -1.8788  0.5129
 1922SOL     OW 7772  10.973   3.519   9.692 -0.0714  0.3246 -0.0207
 1922SOL    HW1 7773  11.022   3.457   9.639  0.3889  0.7244 -0.0685
 1922SOL    HW2 7774  11.012   3.604   9.672  1.5323  0.2769  2.5214
 1923SOL     OW 7775   7.826  10.745   3.639  0.1426 -0.2107 -0.0063
 1923SOL    HW1 7776   7.812  10.688   3.564 -0.9809  0.5812 -0.4201
 1923SOL    HW2 7777   7.755  10.724   3.699  0.8369 -0.5995  0.7010
 1924SOL     OW 7778   8.729   9.529   1.312  0.2693  0.3515 -0.0215
 1924SOL    HW1 7779   8.710   9.552   1.221 -1.0252 -0.2095  0.0819
 1924SOL    HW2 7780   8.711   9.609   1.362 -0.1538  0.3296 -0.1354
 1925SOL     OW 7781  10.396   8.477   7.332 -0.6784  0.1499  0.4314
 1925SOL    HW1 7782  10.327   8.411   7.338  0.8750 -1.4596  2.5083
 1925SOL    HW2 7783  10.477   8.426   7.327  0.5576  1.9056  1.4107
 1926SOL     OW 7784   4.580   0.734   6.382  0.5201  0.8187 -0.1133
 1926SOL    HW1 7785   4.516   0.799   6.410 -1.1975 -0.4602 -0.9104
 1926SOL    HW2 7786   4.546   0.650   6.414  1.4932  0.0292 -1.0501
 1927SOL     OW 7787   9.671  10.988   5.560  0.0354 -0.2324  0.0356
 1927SOL    HW1 7788   9.576  10.996   5.571  0.1243  0.1558  0.5424
 1927SOL    HW2 7789   9.692  10.901   5.596  0.0899  0.3399  1.4577
 1928SOL     OW 7790   1.747   1.227   6.493 -0.6996  0.5908  0.1605
 1928SOL    HW1 7791   1.760   1.224   6.588 -2.3918  2.1823  0.4938
 1928SOL    HW2 7792   1.653   1.218   6.482 -0.3956 -1.1145 -1.5073
 1929SOL     OW 7793   2.255  10.464   1.592 -0.0427 -0.2980  0.1118
 1929SOL    HW1 7794   2.336  10.475   1.542 -1.0481 -1.1513 -1.7834
 1929SOL    HW2 7795   2.238  10.370   1.588 -0.5329 -0.2847  1.5054
 1930SOL     OW 7796   8.264   2.304   4.376 -0.3098 -0.3522  0.0006
 1930SOL    HW1 7797   8.222   2.354   4.306 -1.8204 -0.4917  0.7688
 1930SOL    HW2 7798   8.286   2.220   4.335  0.6825  0.2843 -0.8284
 1931SOL     OW 7799   0.033   3.535   8.804 -0.1279  0.0312  0.2025
 1931SOL    HW1 7800   0.127   3.516   8.805  0.1964  1.3293 -1.6018
 1931SOL    HW2 7801   0.026   3.621   8.845 -0.4468  0.2113 -0.2260
 1932SOL     OW 7802   3.415   9.816   3.270 -0.1012 -0.3750  0.2977
 1932SOL    HW1 7803   3.337   9.802   3.324 -0.4873  0.7895  0.0740
 1932SOL    HW2 7804   3.388   9.789   3.182 -0.5064  0.7279  0.0724
 1933SOL     OW 7805   8.645   3.858   2.021  0.1216 -0.7562  0.2137
 1933SOL    HW1 7806   8.718   3.841   1.961 -0.2156  1.1575 -0.8246
 1933SOL    HW2 7807   8.670   3.939   2.067 -0.0199 -1.7187  2.0714
 1934SOL     OW 7808   3.372   0.528   3.501 -0.6567 -0.3385  0.0354
 1934SOL    HW1 7809   3.320   0.608   3.498 -1.5602 -0.8968  0.1098
 1934SOL    HW2 7810   3.314   0.464   3.543  0.2616 -0.8723  0.5137
 1935SOL     OW 7811   4.105   0.351   6.373  0.5773  0.4007  0.2277
 1935SOL    HW1 7812   4.154   0.400   6.308 -0.0003  1.3715  0.5004
 1935SOL    HW2 7813   4.170   0.326   6.439  1.3216 -1.3058 -1.0924
 1936SOL     OW 7814   0.793   5.890   5.172  0.0539 -0.4863 -0.1317
 1936SOL    HW1 7815   0.855   5.823   5.142  0.5064 -0.8287  1.4719
 1936SOL    HW2 7816   0.784   5.874   5.266  0.1513  1.6801  0.3003
 1937SOL     OW 7817   6.531  10.478   8.016 -0.5806  0.6598  0.6859
 1937SOL    HW1 7818   6.470  10.484   8.089 -1.1144  1.4956  0.1843
 1937SOL    HW2 7819   6.505  10.398   7.970  1.7538 -1.7552  3.1245
 1938SOL     OW 7820   0.592   3.291   6.361  0.2433  0.2453 -0.3203
 1938SOL    HW1 7821   0.603   3.385   6.350 -0.4165  0.1411 -2.1985
 1938SOL    HW2 7822   0.497   3.279   6.367  0.3664 -0.1162  2.3703
 1939SOL     OW 7823   6.570   3.647   5.782 -0.0313 -0.3017  0.5122
 1939SOL    HW1 7824   6.505   3.628   5.850 -0.7024 -1.0828 -0.3221
 1939SOL    HW2 7825   6.546   3.590   5.709  1.0981  0.0078 -0.1275
 1940SOL     OW 7826   0.319   2.763   4.743 -0.1573 -0.1874  0.5300
 1940SOL    HW1 7827   0.235   2.719   4.746  0.0313 -0.4767  2.3195
 1940SOL    HW2 7828   0.366   2.732   4.820  0.2819  2.5185  1.4708
 1941SOL     OW 7829   0.980  10.940   5.776  0.3425  0.6053  0.2347
 1941SOL    HW1 7830   1.064  10.984   5.775  0.2228  0.8489  0.5286
 1941SOL    HW2 7831   0.923  10.999   5.826 -0.3273  1.0292 -0.9755
 1942SOL     OW 7832   5.679  10.743   8.450 -0.0883 -0.1059  0.1379
 1942SOL    HW1 7833   5.733  10.664   8.455 -0.1833 -0.1630  0.2755
 1942SOL    HW2 7834   5.742  10.814   8.439  0.0721 -0.0925  1.0681
 1943SOL     OW 7835   7.934   6.904   8.299  0.3658 -0.2960  0.4181
 1943SOL    HW1 7836   7.876   6.851   8.353  0.4728 -1.2444 -0.3740
 1943SOL    HW2 7837   8.018   6.859   8.301  0.7851  0.4781  0.6686
 1944SOL     OW 7838   1.143   3.059   2.019  0.0365  0.3088 -0.7750
 1944SOL    HW1 7839   1.053   3.032   2.034  0.0662  1.1147  1.1740
 1944SOL    HW2 7840   1.195   3.003   2.077  0.7593  0.0949 -1.6108
 1945SOL     OW 7841   8.844   7.160   5.534 -0.0435  0.8971 -0.5555
 1945SOL    HW1 7842   8.919   7.218   5.550  0.1274  0.1743  1.5788
 1945SOL    HW2 7843   8.883   7.081   5.496  0.5183  0.0302  1.6765
 1946SOL     OW 7844   2.881   1.883   5.124  0.3058  0.4638 -0.1269
 1946SOL    HW1 7845   2.802   1.921   5.085  1.1169  0.7012 -1.6294
 1946SOL    HW2 7846   2.953   1.922   5.074  1.3483 -0.1255  0.8775
 1947SOL     OW 7847   2.635  10.182   6.887  0.0199 -0.4023 -0.5959
 1947SOL    HW1 7848   2.694  10.108   6.877 -0.0893 -0.3487 -1.8430
 1947SOL    HW2 7849   2.649  10.235   6.808 -0.3917  0.5503 -0.0543
 1948SOL     OW 7850   8.036   3.217   5.794 -0.4879 -0.0996  0.1154
 1948SOL    HW1 7851   8.096   3.162   5.743  1.9408  1.6751  0.8355
 1948SOL    HW2 7852   8.010   3.286   5.734  0.1577  0.4466  0.4391
 1949SOL     OW 7853  10.970  11.033   2.545 -0.4167 -0.4965  0.2748
 1949SOL    HW1 7854  10.963  10.968   2.475 -1.3439 -0.8630  0.6790
 1949SOL    HW2 7855  10.899  11.010   2.605 -1.8889  1.8914 -0.4029
 1950SOL     OW 7856   3.423   1.365   5.139 -0.1901  1.1678 -0.1577
 1950SOL    HW1 7857   3.330   1.353   5.159 -0.1776 -0.5930 -0.9279
 1950SOL    HW2 7858   3.439   1.458   5.152 -2.1810  1.5974 -0.4684
 1951SOL     OW 7859   1.742   9.816   0.227  0.4342 -0.1819  0.2366
 1951SOL    HW1 7860   1.783   9.850   0.307 -1.2426  1.2086  0.5544
 1951SOL    HW2 7861   1.740   9.721   0.240  0.7145 -0.0223  1.5918
 1952SOL     OW 7862   8.950   0.354   6.532  0.2901 -0.3534  0.0586
 1952SOL    HW1 7863   8.897   0.413   6.479  0.2823  0.2489  0.7288
 1952SOL    HW2 7864   9.024   0.408   6.561 -0.9082  0.0170  2.6121
 1953SOL     OW 7865   3.525   0.756   4.088 -0.6423 -0.1662 -0.1027
 1953SOL    HW1 7866   3.460   0.814   4.050 -0.4165  0.3447  0.2747
 1953SOL    HW2 7867   3.608   0.802   4.078 -0.4606 -0.4204  0.1987
 1954SOL     OW 7868   5.297   5.223   4.209 -0.5385  0.3311  0.3307
 1954SOL    HW1 7869   5.270   5.198   4.298 -0.1172 -0.4947  0.2294
 1954SOL    HW2 7870   5.364   5.290   4.223  0.8335 -1.0835  0.6841
 1955SOL     OW 7871   0.739   3.640   1.778  0.4441 -0.6752 -0.0433
 1955SOL    HW1 7872   0.776   3.728   1.768  0.0067 -0.6581 -1.7648
 1955SOL    HW2 7873   0.682   3.647   1.855  2.3336 -0.1635  1.3910
 1956SOL     OW 7874   6.941   3.256   2.238  0.0970 -0.1554 -0.5373
 1956SOL    HW1 7875   6.951   3.351   2.247  2.8815 -0.5207  1.7535
 1956SOL    HW2 7876   7.029   3.224   2.217 -0.5719 -2.3012 -0.3085
 1957SOL     OW 7877   5.686   4.044   1.925  0.0229  0.4568  0.2312
 1957SOL    HW1 7878   5.718   4.077   1.841 -0.8755 -2.7914 -1.5695
 1957SOL    HW2 7879   5.619   4.106   1.952  2.0686  2.9349 -0.0960
 1958SOL     OW 7880   0.654   3.779  10.987  0.1884  0.1999  0.2718
 1958SOL    HW1 7881   0.578   3.720  10.992  0.4295  0.0120  2.8448
 1958SOL    HW2 7882   0.728   3.720  10.977  0.2175  0.2101  0.4233
 1959SOL     OW 7883   6.900   0.171   5.556  0.0456 -0.1505  0.3298
 1959SOL    HW1 7884   6.987   0.202   5.531  0.9574 -3.1526 -0.6220
 1959SOL    HW2 7885   6.876   0.225   5.631  2.7331  0.7493  0.6479
 1960SOL     OW 7886   5.405   4.381   1.166  0.1872  0.3476 -0.4068
 1960SOL    HW1 7887   5.375   4.426   1.087 -0.8170  0.8794  0.2541
 1960SOL    HW2 7888   5.346   4.305   1.174 -0.2114  0.7154  0.2301
 1961SOL     OW 7889   9.584   9.191   9.572 -0.3384  0.7190 -0.0845
 1961SOL    HW1 7890   9.562   9.200   9.665 -3.2540  1.5286 -0.7445
 1961SOL    HW2 7891   9.512   9.141   9.535  1.9130 -1.6332 -1.5863
 1962SOL     OW 7892   7.117   0.666   5.024 -0.0456 -0.4118 -0.0339
 1962SOL    HW1 7893   7.187   0.607   4.996 -1.0184 -1.2439 -0.7560
 1962SOL    HW2 7894   7.140   0.750   4.985  1.1690 -0.3660  0.7250
 1963SOL     OW 7895   5.290   4.798   2.401 -0.2223  0.2908 -0.2875
 1963SOL    HW1 7896   5.383   4.799   2.380 -0.2095 -0.8230 -0.3724
 1963SOL    HW2 7897   5.279   4.864   2.469  0.7913 -0.1670  0.3395
 1964SOL     OW 7898   3.750   4.268   3.205 -0.3724  0.4629  0.8586
 1964SOL    HW1 7899   3.832   4.315   3.188  0.3589  0.3556  3.6953
 1964SOL    HW2 7900   3.765   4.221   3.287 -2.2919 -1.9607 -0.0435
 1965SOL     OW 7901  10.039   5.529   5.380  0.0370 -0.7931 -0.3527
 1965SOL    HW1 7902  10.050   5.597   5.446  0.6247 -0.7476 -0.4955
 1965SOL    HW2 7903   9.965   5.559   5.327  0.8198  0.1546 -0.9298
 1966SOL     OW 7904   6.988   4.688   7.470 -0.0206 -0.4439  0.4022
 1966SOL    HW1 7905   7.065   4.735   7.442 -0.3619 -0.3777 -0.4458
 1966SOL    HW2 7906   6.915   4.733   7.428 -0.4044 -1.3172  0.0949
 1967SOL     OW 7907   5.918   3.920   9.274 -0.2702  0.1879  0.0614
 1967SOL    HW1 7908   5.979   3.928   9.201 -1.8264  0.6521 -1.2542
 1967SOL    HW2 7909   5.911   3.826   9.290 -0.8996 -0.0110 -1.2908
 1968SOL     OW 7910  10.815   2.398   6.805 -0.1838  0.1955 -0.4025
 1968SOL    HW1 7911  10.852   2.327   6.858  0.9865  1.1932  0.1717
 1968SOL    HW2 7912  10.810   2.472   6.866  0.6236  1.2014 -1.5289
 1969SOL     OW 7913   3.152   9.215   2.627  0.0868 -0.2763  0.3053
 1969SOL    HW1 7914   3.189   9.303   2.633  1.3573 -0.6243 -1.4570
 1969SOL    HW2 7915   3.224   9.162   2.591 -1.3514 -1.5335 -0.8427
 1970SOL     OW 7916   7.928   2.985   2.080 -0.3619  0.8343 -0.0763
 1970SOL    HW1 7917   7.962   2.897   2.096 -2.4051 -0.0394 -0.2470
 1970SOL    HW2 7918   7.952   3.035   2.158 -2.8530 -1.0651  2.0901
 1971SOL     OW 7919   1.180   2.355   7.590 -0.5462  0.0548 -0.1527
 1971SOL    HW1 7920   1.163   2.448   7.575 -0.0011  0.3185  0.8230
 1971SOL    HW2 7921   1.114   2.328   7.654  0.5828  0.2886  1.1430
 1972SOL     OW 7922   3.999   4.695   5.633 -0.0223  0.1746  0.0267
 1972SOL    HW1 7923   3.967   4.618   5.679 -1.2710  0.9610  0.5398
 1972SOL    HW2 7924   4.094   4.692   5.643 -0.0982 -0.9889  0.5106
 1973SOL     OW 7925   9.122   9.954   5.212  0.0649 -0.5005 -0.4262
 1973SOL    HW1 7926   9.105   9.875   5.160 -2.2965 -1.2555  1.3182
 1973SOL    HW2 7927   9.078  10.024   5.164  0.1809 -0.6807 -0.8008
 1974SOL     OW 7928   4.471   5.378   6.925  0.4107  0.0638  0.2528
 1974SOL    HW1 7929   4.514   5.408   7.005 -3.5348  2.9862  1.6207
 1974SOL    HW2 7930   4.495   5.444   6.859  1.9500 -1.1639 -0.4808
 1975SOL     OW 7931   0.692   0.784   2.966  0.0728 -0.5948  0.2384
 1975SOL    HW1 7932   0.608   0.750   2.935 -0.2216  1.6512 -1.7810
 1975SOL    HW2 7933   0.750   0.776   2.890  1.1022 -0.3585  0.9892
 1976SOL     OW 7934   8.429   8.656   4.155 -0.4596 -0.1252 -0.5766
 1976SOL    HW1 7935   8.514   8.620   4.130 -0.2520 -0.0021 -0.0658
 1976SOL    HW2 7936   8.392   8.590   4.213 -0.1345  0.4104  0.2585
 1977SOL     OW 7937   2.435   8.664   7.327  0.2417  0.3644 -0.0195
 1977SOL    HW1 7938   2.486   8.714   7.391  0.5811  1.2406 -0.9564
 1977SOL    HW2 7939   2.488   8.667   7.247 -0.7520  0.3233 -0.6903
 1978SOL     OW 7940   7.086   8.672   9.184 -0.4272 -0.8731  0.2101
 1978SOL    HW1 7941   7.178   8.650   9.169 -0.4753  0.0590 -1.7867
 1978SOL    HW2 7942   7.086   8.764   9.208 -0.7838 -1.0927  1.0811
 1979SOL     OW 7943   6.838   5.611   6.352 -0.1095  0.1071  0.2984
 1979SOL    HW1 7944   6.811   5.649   6.436 -0.3203 -0.7331  0.6299
 1979SOL    HW2 7945   6.871   5.685   6.301 -2.4944  1.1360  0.0986
 1980SOL     OW 7946   0.594   4.065   6.126 -0.1224 -0.5674  0.1834
 1980SOL    HW1 7947   0.611   4.016   6.045 -0.6431 -2.6748  1.2928
 1980SOL    HW2 7948   0.499   4.077   6.128 -0.1133 -0.5551  0.5258
 1981SOL     OW 7949   5.282   5.025   7.582 -0.1629  0.8731  0.0429
 1981SOL    HW1 7950   5.252   5.059   7.497 -0.4502 -0.7794 -0.5691
 1981SOL    HW2 7951   5.345   5.089   7.613 -1.4735  2.4965 -0.4958
 1982SOL     OW 7952   4.349   2.904   2.954  0.1972 -0.6408 -0.2826
 1982SOL    HW1 7953   4.301   2.986   2.962 -0.9912 -1.3756  0.2970
 1982SOL    HW2 7954   4.423   2.914   3.014 -1.0506 -0.7343  1.3486
 1983SOL     OW 7955   8.165   1.339   1.671  0.1201  0.2131  0.3332
 1983SOL    HW1 7956   8.140   1.409   1.732 -0.0674  0.8374 -0.4355
 1983SOL    HW2 7957   8.256   1.320   1.691  0.5559  1.5629 -0.2561
 1984SOL     OW 7958   4.314  10.975   4.355 -0.0710 -0.2345  0.0792
 1984SOL    HW1 7959   4.279  10.910   4.294  1.5717 -1.8266  0.7437
 1984SOL    HW2 7960   4.409  10.965   4.349  0.2320  2.0758  0.2889
 1985SOL     OW 7961   9.494   2.249   2.536 -0.2776  0.3538 -0.0645
 1985SOL    HW1 7962   9.441   2.276   2.461  0.2860  2.8476  0.3383
 1985SOL    HW2 7963   9.584   2.252   2.504 -0.1578 -1.3664 -0.0185
 1986SOL     OW 7964   0.719   0.346   7.404  0.0838 -0.6148 -0.5768
 1986SOL    HW1 7965   0.742   0.413   7.469  1.7349  0.0450 -1.7754
 1986SOL    HW2 7966   0.632   0.372   7.373  0.5522  0.7944 -0.7795
 1987SOL     OW 7967   0.454   4.890  10.770 -0.0362 -0.8019  0.5458
 1987SOL    HW1 7968   0.433   4.809  10.723 -1.5933 -1.1241  1.7170
 1987SOL    HW2 7969   0.370   4.924  10.799  0.6282  1.0244  0.4798
 1988SOL     OW 7970   3.847   5.313   0.634 -0.2070 -0.1654 -0.1698
 1988SOL    HW1 7971   3.845   5.405   0.607 -2.7145 -1.0666 -3.7774
 1988SOL    HW2 7972   3.859   5.316   0.729  0.3118  3.8296 -0.2017
 1989SOL     OW 7973  10.976   1.538   6.106 -0.1999 -0.3168  0.4201
 1989SOL    HW1 7974  11.021   1.620   6.087  0.7282 -0.7533  0.6909
 1989SOL    HW2 7975  10.901   1.564   6.159  0.8707  0.2368  1.7374
 1990SOL     OW 7976   1.733   1.630   9.165 -0.3492  0.0106  0.0159
 1990SOL    HW1 7977   1.744   1.536   9.148  0.9495  0.3711 -1.3707
 1990SOL    HW2 7978   1.647   1.650   9.127  0.1427 -0.2929 -1.3097
 1991SOL     OW 7979  10.478   5.937   2.576  0.1620 -0.1419  0.0705
 1991SOL    HW1 7980  10.533   6.013   2.595  1.4774 -0.8543 -0.7873
 1991SOL    HW2 7981  10.420   5.967   2.506 -0.0150  0.3703  0.4286
 1992SOL     OW 7982   1.385  10.138   5.992 -0.3022 -0.6630  0.3217
 1992SOL    HW1 7983   1.323  10.113   6.060  0.5645  0.3628  1.5371
 1992SOL    HW2 7984   1.330  10.175   5.922 -1.0457  1.4409  1.9018
 1993SOL     OW 7985  10.066   4.376   5.363  0.3910  0.1972 -0.1307
 1993SOL    HW1 7986  10.013   4.393   5.285 -0.8360  0.1917  0.6774
 1993SOL    HW2 7987  10.046   4.449   5.422  1.6023  0.4096  0.0390
 1994SOL     OW 7988   2.740  10.943   6.394 -0.2943  0.3292 -0.0386
 1994SOL    HW1 7989   2.720  11.009   6.328 -0.5398  0.3904  0.0980
 1994SOL    HW2 7990   2.828  10.912   6.371 -0.0587  0.9138  0.0821
 1995SOL     OW 7991   7.785   1.280   4.881  0.1173 -0.6853 -0.4396
 1995SOL    HW1 7992   7.741   1.308   4.801  1.6922 -1.7889 -1.7579
 1995SOL    HW2 7993   7.855   1.344   4.894 -1.4761  0.8343  1.4282
 1996SOL     OW 7994   9.432   2.541   7.961  0.2670 -0.1701 -0.1750
 1996SOL    HW1 7995   9.380   2.503   7.889  1.2210 -2.3939  0.2482
 1996SOL    HW2 7996   9.387   2.514   8.040  0.2566  0.7294  0.1451
 1997SOL     OW 7997   5.121   1.656   3.475  0.0739 -0.0424 -0.6778
 1997SOL    HW1 7998   5.059   1.607   3.422 -1.2150  2.0847 -1.2454
 1997SOL    HW2 7999   5.191   1.680   3.415 -0.0006  0.0295 -0.7347
 1998SOL     OW 8000   2.422   7.945  10.235 -0.2904 -0.0746  0.3371
 1998SOL    HW1 8001   2.481   7.987  10.297 -0.0023 -0.6886  0.4829
 1998SOL    HW2 8002   2.361   8.014  10.210 -0.4385  0.1658  1.3364
 1999SOL     OW 8003   6.765   0.664  10.554 -0.4377 -0.3483  0.1420
 1999SOL    HW1 8004   6.852   0.642  10.520  0.5709  1.7852  1.1488
 1999SOL    HW2 8005   6.737   0.585  10.599  1.1087 -1.0072  0.0285
 2000SOL     OW 8006   1.686  10.903   6.887 -0.3357 -0.8440 -0.6763
 2000SOL    HW1 8007   1.724  10.938   6.968  1.4118 -1.6818 -1.0810
 2000SOL    HW2 8008   1.593  10.895   6.905  0.0419 -1.1531  1.3026
 2001SOL     OW 8009   9.254   2.069   4.057 -0.1985  0.2919 -0.2399
 2001SOL    HW1 8010   9.330   2.095   4.005 -0.3446  1.3153  0.0258
 2001SOL    HW2 8011   9.290   2.014   4.126  0.1811  0.0650 -0.6101
 2002SOL     OW 8012   2.368   2.937   0.463 -0.6962 -0.0432  0.0514
 2002SOL    HW1 8013   2.456   2.922   0.497 -0.6181  1.9850  0.8347
 2002SOL    HW2 8014   2.380   2.994   0.388 -1.1740 -1.7806 -1.4180
 2003SOL     OW 8015   6.328   3.622   3.298 -0.5895  0.3136  0.5340
 2003SOL    HW1 8016   6.369   3.547   3.255 -0.5922 -0.1623  1.3465
 2003SOL    HW2 8017   6.358   3.617   3.389 -1.4549  0.6825  0.8490
 2004SOL     OW 8018  10.954   5.480   4.587 -0.3609 -0.4905  0.1641
 2004SOL    HW1 8019  11.022   5.532   4.631 -0.5884 -0.1047  0.0564
 2004SOL    HW2 8020  10.872   5.513   4.622 -0.5321 -0.3664 -0.3550
 2005SOL     OW 8021   1.716  10.762  10.946 -0.9821  0.9686  0.1404
 2005SOL    HW1 8022   1.770  10.739  11.021  0.5241 -2.2972 -1.7326
 2005SOL    HW2 8023   1.765  10.831  10.902 -0.3922  0.8723  0.6272
 2006SOL     OW 8024   9.527   5.889   1.830 -0.0042  0.1736  0.3479
 2006SOL    HW1 8025   9.511   5.984   1.828  1.4240  0.4355 -0.1969
 2006SOL    HW2 8026   9.564   5.870   1.743  1.0504 -0.6058  0.9462
 2007SOL     OW 8027   6.037  10.264   4.819  0.0820  0.6529 -0.3684
 2007SOL    HW1 8028   5.977  10.235   4.888 -0.3149 -0.1007 -1.0182
 2007SOL    HW2 8029   6.023  10.359   4.814  0.2447  0.7486  0.7024
 2008SOL     OW 8030  10.787   5.646   1.139  0.4690 -0.3474 -0.6070
 2008SOL    HW1 8031  10.865   5.644   1.196 -1.8864 -1.6110  2.9040
 2008SOL    HW2 8032  10.767   5.553   1.125 -1.0596 -0.0554 -0.4284
 2009SOL     OW 8033   6.280   2.235  10.240  0.3957 -0.5540  0.0173
 2009SOL    HW1 8034   6.277   2.238  10.144  0.0367 -1.3142 -0.0050
 2009SOL    HW2 8035   6.206   2.179  10.264 -0.4905  0.9047  0.8244
 2010SOL     OW 8036   0.323   4.269   3.376 -0.2383  0.1793 -0.2854
 2010SOL    HW1 8037   0.385   4.342   3.374  1.5277 -1.2645 -2.0587
 2010SOL    HW2 8038   0.334   4.231   3.463  0.1369  0.9488  0.0124
 2011SOL     OW 8039   1.573   3.027  10.984 -0.1339 -0.0792  0.2116
 2011SOL    HW1 8040   1.643   3.051  10.923  0.1989  2.1585  1.3595
 2011SOL    HW2 8041   1.495   3.018  10.930 -0.1885  3.3127 -0.5418
 2012SOL     OW 8042   8.038   2.720   5.389 -0.0089  0.4274  0.2587
 2012SOL    HW1 8043   8.041   2.625   5.383 -1.1206  0.1809  2.6390
 2012SOL    HW2 8044   7.944   2.741   5.392  0.2242  1.4505  1.2328
 2013SOL     OW 8045   2.223   8.022   6.850 -0.5554 -0.5313  0.2268
 2013SOL    HW1 8046   2.181   8.099   6.811 -0.5077  0.0554  1.3037
 2013SOL    HW2 8047   2.310   8.020   6.811 -1.1808 -1.1632 -1.2475
 2014SOL     OW 8048   3.399   7.425   1.430 -0.5827 -0.0816  0.0643
 2014SOL    HW1 8049   3.332   7.419   1.498  0.0637  0.1150  0.7344
 2014SOL    HW2 8050   3.422   7.518   1.427  0.4505 -0.2979  0.6487
 2015SOL     OW 8051   7.442   3.155   7.822 -0.0433  0.1821  0.6193
 2015SOL    HW1 8052   7.452   3.236   7.773 -0.3915 -0.4821 -0.5957
 2015SOL    HW2 8053   7.528   3.138   7.859  0.4018  0.3723 -0.3066
 2016SOL     OW 8054   8.746  10.855   9.138  0.1079 -0.3814 -0.2454
 2016SOL    HW1 8055   8.802  10.860   9.060 -1.6944 -0.7160 -1.6184
 2016SOL    HW2 8056   8.802  10.887   9.209  2.5319 -2.0907 -1.2406
 2017SOL     OW 8057   3.087   9.463   3.076 -0.7785 -0.0982  0.2586
 2017SOL    HW1 8058   3.005   9.454   3.026 -0.7673 -0.4340  0.3051
 2017SOL    HW2 8059   3.151   9.489   3.010 -1.0420  0.7345  0.3148
 2018SOL     OW 8060   2.170   0.401   9.795 -0.0981  0.3833  0.2796
 2018SOL    HW1 8061   2.199   0.447   9.875 -0.1132  0.0200  0.4969
 2018SOL    HW2 8062   2.119   0.327   9.828  0.5024 -0.1827 -0.0454
 2019SOL     OW 8063   7.080   5.072   1.610  0.2845  0.1080  0.1197
 2019SOL    HW1 8064   7.164   5.086   1.567  0.2135 -0.0092 -0.0550
 2019SOL    HW2 8065   7.068   5.150   1.665 -0.5709  1.2136 -1.5792
 2020SOL     OW 8066   0.148   4.762   4.814  0.2968 -0.1792 -0.2690
 2020SOL    HW1 8067   0.072   4.731   4.863 -0.5920  0.0777 -1.4325
 2020SOL    HW2 8068   0.166   4.849   4.849  1.5203 -1.1111  1.5888
 2021SOL     OW 8069   8.410   9.450   2.695 -0.0073  0.6702  0.0550
 2021SOL    HW1 8070   8.412   9.371   2.641  0.5292 -0.1046  1.1921
 2021SOL    HW2 8071   8.484   9.503   2.662  0.2910  0.2236 -0.0047
 2022SOL     OW 8072   8.794   8.645  10.304  0.4541  0.0484  0.8969
 2022SOL    HW1 8073   8.815   8.736  10.282 -1.2480  0.3752  0.5141
 2022SOL    HW2 8074   8.719   8.624  10.249 -1.1793 -0.5354  3.2110
 2023SOL     OW 8075  11.027   9.081   4.458  0.3814 -0.1380 -0.1029
 2023SOL    HW1 8076  10.945   9.034   4.471 -0.1244  0.6684 -0.2797
 2023SOL    HW2 8077  11.079   9.025   4.400  0.5739 -1.3614  1.1980
 2024SOL     OW 8078  10.463   6.416   7.277  0.7785  0.3084 -0.1524
 2024SOL    HW1 8079  10.409   6.480   7.231  1.0571  1.4540  1.0723
 2024SOL    HW2 8080  10.522   6.383   7.210 -1.1071 -0.6671 -1.4290
 2025SOL     OW 8081   6.652   4.046   1.260 -0.1348 -0.3038  0.2179
 2025SOL    HW1 8082   6.718   4.010   1.319 -0.7345 -2.3079 -0.2271
 2025SOL    HW2 8083   6.690   4.128   1.228  1.1507 -0.2929  1.6568
 2026SOL     OW 8084   7.196   1.198   9.070 -0.7389 -0.6128  0.4915
 2026SOL    HW1 8085   7.208   1.105   9.086  0.4143 -0.6704 -0.5299
 2026SOL    HW2 8086   7.266   1.241   9.118 -0.5121 -0.3819 -0.0326
 2027SOL     OW 8087   8.312   4.854   7.104 -0.0366 -1.0760  0.0849
 2027SOL    HW1 8088   8.385   4.854   7.042  0.7096 -0.5030  0.9509
 2027SOL    HW2 8089   8.266   4.771   7.087  0.8375 -1.4660 -0.4355
 2028SOL     OW 8090  10.950   9.235   3.494  0.2432 -0.2430 -0.2158
 2028SOL    HW1 8091  10.855   9.224   3.482 -0.0001 -0.4251  1.4970
 2028SOL    HW2 8092  10.988   9.156   3.456 -0.2368  0.0540 -1.3559
 2029SOL     OW 8093   6.736   3.408   1.281 -0.2477  0.1205 -0.4557
 2029SOL    HW1 8094   6.698   3.389   1.367  1.5550 -0.5295  0.2295
 2029SOL    HW2 8095   6.798   3.479   1.297  2.5947 -2.2104 -0.4902
 2030SOL     OW 8096   3.596   3.853   5.582 -0.0753 -0.0280 -0.3319
 2030SOL    HW1 8097   3.539   3.852   5.658  0.3673 -1.9057  0.0158
 2030SOL    HW2 8098   3.683   3.871   5.617 -0.0227  0.1087 -0.5274
 2031SOL     OW 8099   2.966   1.256   6.547  0.1094 -0.3043  0.0919
 2031SOL    HW1 8100   3.043   1.292   6.503  0.6765  0.2523  1.5110
 2031SOL    HW2 8101   2.912   1.332   6.569 -0.8066 -0.6750 -0.7564
 2032SOL     OW 8102   0.063   4.823   5.158 -0.4534 -0.0102  0.1116
 2032SOL    HW1 8103   0.003   4.792   5.091 -0.0143 -1.7179  0.4760
 2032SOL    HW2 8104   0.036   4.914   5.173 -1.9226 -0.2476 -0.8405
 2033SOL     OW 8105   7.874   1.831   2.079  0.4216 -0.3053 -0.0456
 2033SOL    HW1 8106   7.807   1.783   2.029  1.5005 -0.7359 -1.1115
 2033SOL    HW2 8107   7.877   1.786   2.163  0.1610 -0.9840 -0.3893
 2034SOL     OW 8108   0.241  10.665   2.180  0.3115 -0.2622 -0.6076
 2034SOL    HW1 8109   0.272  10.664   2.090 -0.1475 -1.0491 -0.7646
 2034SOL    HW2 8110   0.207  10.577   2.195  0.5794 -0.2073  0.4036
 2035SOL     OW 8111   0.548   1.707   0.572 -0.2808  0.1735  0.1303
 2035SOL    HW1 8112   0.518   1.643   0.636 -0.5316  0.1908  0.0306
 2035SOL    HW2 8113   0.495   1.785   0.588  1.0780  0.9159  1.2869
 2036SOL     OW 8114  10.377   8.844   8.247  0.1680 -0.0259  0.5721
 2036SOL    HW1 8115  10.451   8.904   8.258 -0.1937  0.8106 -1.1727
 2036SOL    HW2 8116  10.306   8.900   8.215 -0.6664 -1.1257  0.4620
 2037SOL     OW 8117   6.500   3.859   6.314  0.1979 -0.0340  0.5302
 2037SOL    HW1 8118   6.551   3.939   6.330 -0.7055  0.3692  1.5549
 2037SOL    HW2 8119   6.440   3.854   6.389 -1.3831 -0.3948 -0.7032
 2038SOL     OW 8120   4.658   4.638   0.773 -0.3127 -0.0836 -0.1898
 2038SOL    HW1 8121   4.691   4.567   0.717  0.9181  0.8217 -0.6536
 2038SOL    HW2 8122   4.728   4.652   0.837 -0.6095  0.6218 -0.0174
 2039SOL     OW 8123   6.075   2.232   7.991 -0.0780 -0.5372 -0.1012
 2039SOL    HW1 8124   6.170   2.239   8.005 -0.0894 -1.5126  0.6316
 2039SOL    HW2 8125   6.057   2.290   7.917  1.1931 -0.7997 -0.6568
 2040SOL     OW 8126   0.008   8.472   7.049  0.3352  0.0026  0.3227
 2040SOL    HW1 8127   0.082   8.420   7.019  1.7146  2.1539 -0.2356
 2040SOL    HW2 8128  -0.002   8.449   7.142  0.8654 -1.2557  0.0826
 2041SOL     OW 8129   5.777   9.496   9.060 -0.2572 -0.1978  0.1513
 2041SOL    HW1 8130   5.742   9.432   9.121  2.9963 -0.2843  2.1753
 2041SOL    HW2 8131   5.793   9.446   8.980 -2.5831 -0.5908 -0.1399
 2042SOL     OW 8132   4.369   7.051   8.390  0.5322  0.0390  0.0866
 2042SOL    HW1 8133   4.376   6.957   8.405 -0.1919  0.0496  0.5577
 2042SOL    HW2 8134   4.301   7.061   8.324 -1.0151  0.3212  1.6569
 2043SOL     OW 8135  11.011   9.027   4.946 -0.0203 -0.7150 -0.2222
 2043SOL    HW1 8136  11.034   9.028   4.853 -0.5642  0.2816 -0.3687
 2043SOL    HW2 8137  11.062   9.099   4.984 -1.3019  0.2040 -0.1657
 2044SOL     OW 8138   0.590   8.281   5.159 -0.2812 -0.9337  0.0360
 2044SOL    HW1 8139   0.568   8.288   5.252  1.3540  1.9682  0.3026
 2044SOL    HW2 8140   0.523   8.334   5.115 -0.2199 -1.1415 -0.3106
 2045SOL     OW 8141   2.845   0.818   8.944  0.0472  0.5845  0.1609
 2045SOL    HW1 8142   2.844   0.913   8.956 -1.6905  0.6187 -0.0729
 2045SOL    HW2 8143   2.784   0.785   9.010 -2.5240  0.0129 -2.3024
 2046SOL     OW 8144   3.373   1.649   5.135 -0.0930 -0.1019  0.0535
 2046SOL    HW1 8145   3.283   1.652   5.167 -0.2171 -0.4127 -0.2496
 2046SOL    HW2 8146   3.364   1.626   5.042  0.3181 -0.7536  0.1650
 2047SOL     OW 8147   8.576   4.584   6.879  0.0530  0.2136 -0.2294
 2047SOL    HW1 8148   8.543   4.494   6.882  0.8850 -0.1014  2.5622
 2047SOL    HW2 8149   8.644   4.582   6.812 -0.5462 -1.0013 -0.8396
 2048SOL     OW 8150   2.801   9.714   0.368 -0.2173  0.0387  0.0547
 2048SOL    HW1 8151   2.863   9.668   0.424 -0.6150 -0.2816  0.2306
 2048SOL    HW2 8152   2.784   9.654   0.296 -0.3675  0.1019  0.0364
 2049SOL     OW 8153   4.645  10.466   4.437 -0.1923 -0.3003 -0.2479
 2049SOL    HW1 8154   4.729  10.422   4.449  0.8091  1.0915 -1.7265
 2049SOL    HW2 8155   4.668  10.556   4.415 -2.0615  0.0067 -1.1832
 2050SOL     OW 8156  10.559   5.032   7.394 -0.2715 -0.3801  0.3373
 2050SOL    HW1 8157  10.584   5.103   7.335  0.1999 -0.2443  0.6972
 2050SOL    HW2 8158  10.509   4.971   7.339  2.4180 -1.6339 -0.9115
 2051SOL     OW 8159   3.721   1.496   0.582 -0.0297 -0.1537  0.1186
 2051SOL    HW1 8160   3.806   1.455   0.563 -0.0076 -0.3593  0.6361
 2051SOL    HW2 8161   3.739   1.590   0.575 -0.3728 -0.2072 -2.2873
 2052SOL     OW 8162   5.566  10.567   0.991  0.3258 -0.2128 -0.2785
 2052SOL    HW1 8163   5.492  10.521   0.950 -0.7542 -0.7292  2.0655
 2052SOL    HW2 8164   5.548  10.659   0.975 -1.5281 -0.2432  1.1744
 2053SOL     OW 8165   1.726   5.444  10.944  0.0706  0.0307  0.6314
 2053SOL    HW1 8166   1.803   5.443  11.000  0.1283 -1.8854  0.5914
 2053SOL    HW2 8167   1.720   5.355  10.910 -0.0108  1.0576 -2.3542
 2054SOL     OW 8168   9.898   6.950   6.372 -0.3311 -0.4199 -0.6749
 2054SOL    HW1 8169   9.933   6.998   6.447 -0.4534 -0.2501 -0.7243
 2054SOL    HW2 8170   9.813   6.918   6.402 -0.4811 -0.1572 -0.8134
 2055SOL     OW 8171   2.147   1.583   9.360 -0.4101 -0.1861  0.1880
 2055SOL    HW1 8172   2.052   1.586   9.349 -0.2839  0.2820 -1.0423
 2055SOL    HW2 8173   2.164   1.630   9.442 -1.1385  1.2593 -0.4399
 2056SOL     OW 8174  10.689   7.119   6.069  0.5949  0.5052  0.1430
 2056SOL    HW1 8175  10.620   7.185   6.071  0.3198  0.2668 -1.0228
 2056SOL    HW2 8176  10.652   7.046   6.020  0.5716 -0.9283  2.1939
 2057SOL     OW 8177   0.402   8.038   2.896 -0.3850 -0.5295 -0.2528
 2057SOL    HW1 8178   0.379   7.949   2.923 -0.6048  0.3959  3.0284
 2057SOL    HW2 8179   0.482   8.058   2.945 -0.6086  1.2332 -0.5362
 2058SOL     OW 8180   5.419   0.504   9.001  0.0583  0.1277  0.3854
 2058SOL    HW1 8181   5.448   0.456   8.923  0.5054 -1.2960  1.3818
 2058SOL    HW2 8182   5.469   0.585   8.999  1.2887 -0.6184  0.0518
 2059SOL     OW 8183   2.879   1.248   7.731  0.2821  0.1349  0.4120
 2059SOL    HW1 8184   2.875   1.168   7.784 -1.6065 -0.8813 -1.1567
 2059SOL    HW2 8185   2.926   1.222   7.652 -3.0904 -0.4259 -1.5631
 2060SOL     OW 8186   0.754   1.468   4.254  0.4412  0.0612  0.7902
 2060SOL    HW1 8187   0.723   1.541   4.200  0.4584 -0.4155  0.1270
 2060SOL    HW2 8188   0.828   1.432   4.206  0.5789 -0.2580  1.2329
 2061SOL     OW 8189   4.315   2.057   5.922 -0.1401  0.0568  0.5700
 2061SOL    HW1 8190   4.333   2.130   5.863 -0.1575 -0.3158  0.0984
 2061SOL    HW2 8191   4.372   2.072   5.998 -0.1230  0.5403  0.4638
 2062SOL     OW 8192  10.573   4.444   9.802  0.8553 -0.1153  0.0162
 2062SOL    HW1 8193  10.513   4.495   9.747  0.6703 -0.8813 -0.5122
 2062SOL    HW2 8194  10.615   4.384   9.741  3.1111  1.2171  0.1456
 2063SOL     OW 8195   2.641   0.096   3.067 -0.4778  0.3796  0.0478
 2063SOL    HW1 8196   2.562   0.144   3.041 -0.2701  0.2827 -0.7847
 2063SOL    HW2 8197   2.611   0.005   3.075 -0.4787  0.3617 -0.1522
 2064SOL     OW 8198   5.660   1.705   3.151  0.1752 -0.1746  0.0683
 2064SOL    HW1 8199   5.692   1.619   3.121  0.4587 -0.1735  0.3606
 2064SOL    HW2 8200   5.740   1.755   3.168  0.0095  0.0878  0.0722
 2065SOL     OW 8201   0.989   5.090   1.324  0.3069 -0.0259  0.4461
 2065SOL    HW1 8202   1.081   5.068   1.331  0.6188  0.3364 -1.8834
 2065SOL    HW2 8203   0.947   5.012   1.287 -0.5025 -0.4745  2.1982
 2066SOL     OW 8204   3.847   4.149   6.990  0.0056  0.4102  0.0881
 2066SOL    HW1 8205   3.804   4.179   6.910 -0.5454  0.2224  0.3119
 2066SOL    HW2 8206   3.777   4.141   7.054  0.5260  1.2197  0.7930
 2067SOL     OW 8207   9.644   6.352   0.087  0.1140  0.3334  0.2851
 2067SOL    HW1 8208   9.710   6.299   0.132  1.4524  1.6699 -0.0469
 2067SOL    HW2 8209   9.585   6.381   0.157 -1.3520 -2.4289  0.3551
 2068SOL     OW 8210   2.733   0.038   7.686 -0.3844 -0.1765  0.0849
 2068SOL    HW1 8211   2.656  -0.017   7.692 -1.4087  1.2410  0.3933
 2068SOL    HW2 8212   2.729   0.075   7.598  0.4380 -0.7659 -0.2150
 2069SOL     OW 8213   0.053   2.198   3.730  0.3827  0.2424 -0.0877
 2069SOL    HW1 8214  -0.004   2.164   3.660  1.1697  0.3471 -0.8044
 2069SOL    HW2 8215   0.040   2.293   3.728 -0.2676  0.1649  0.5150
 2070SOL     OW 8216   3.594   2.419   1.298  0.0872  0.3656 -0.1572
 2070SOL    HW1 8217   3.554   2.373   1.372  0.2917 -0.9911 -0.8430
 2070SOL    HW2 8218   3.619   2.504   1.333 -2.0606  0.7072  0.6581
 2071SOL     OW 8219   1.324  10.268   2.966  0.4422 -0.3006  0.4980
 2071SOL    HW1 8220   1.375  10.199   2.925 -2.4940 -1.7154 -1.1335
 2071SOL    HW2 8221   1.237  10.229   2.979 -1.2698  2.8948 -0.1626
 2072SOL     OW 8222   0.598   2.368   0.771  0.4487 -0.0233 -0.0469
 2072SOL    HW1 8223   0.611   2.276   0.794  0.5751 -0.5125 -1.8940
 2072SOL    HW2 8224   0.657   2.383   0.696 -2.2942  0.4469 -2.2826
 2073SOL     OW 8225   7.806   8.843   2.658  0.5451  0.1684 -0.6107
 2073SOL    HW1 8226   7.861   8.776   2.617  1.2303 -0.3680  1.0834
 2073SOL    HW2 8227   7.815   8.920   2.602  1.6739 -0.4328 -1.2947
 2074SOL     OW 8228   8.606   3.790   4.022  0.4596  0.0851  0.1659
 2074SOL    HW1 8229   8.580   3.738   4.097  1.2017 -0.5040  0.0346
 2074SOL    HW2 8230   8.651   3.727   3.964  0.9106  0.7579 -0.2315
 2075SOL     OW 8231  10.925   1.346   3.179  0.0475 -0.4416  0.3033
 2075SOL    HW1 8232  10.862   1.299   3.125  0.9821 -2.1574  0.6567
 2075SOL    HW2 8233  10.881   1.357   3.263 -0.6646  0.5258 -0.1649
 2076SOL     OW 8234   0.334   6.439   7.773  0.3644  0.6903 -0.1456
 2076SOL    HW1 8235   0.397   6.372   7.802  0.3125  0.0447 -1.4377
 2076SOL    HW2 8236   0.335   6.504   7.843  3.2992  1.2638 -0.5638
 2077SOL     OW 8237   3.104   4.349   9.589  0.0998 -0.3288 -0.0202
 2077SOL    HW1 8238   3.039   4.402   9.635  1.1240  1.1223 -0.1748
 2077SOL    HW2 8239   3.091   4.370   9.496 -0.0508 -1.0133 -0.1553
 2078SOL     OW 8240   5.664   2.969   3.756  0.2294 -0.0441 -0.5732
 2078SOL    HW1 8241   5.735   2.987   3.817 -0.2148 -1.2790  0.3449
 2078SOL    HW2 8242   5.584   2.985   3.806 -0.1643  0.9279 -1.4732
 2079SOL     OW 8243   1.859   9.829   7.091  0.0555  0.4056  0.2359
 2079SOL    HW1 8244   1.950   9.850   7.069 -0.0506 -0.8886 -1.6921
 2079SOL    HW2 8245   1.860   9.817   7.186  2.0669 -0.3215  0.1785
 2080SOL     OW 8246   0.711   9.112   9.184  0.9328 -0.6052  0.6513
 2080SOL    HW1 8247   0.704   9.173   9.111  2.0388 -1.6315 -0.3417
 2080SOL    HW2 8248   0.620   9.093   9.208  0.5517 -0.3964 -0.5627
 2081SOL     OW 8249  10.696   2.780   6.447  0.1828 -0.1567 -0.1284
 2081SOL    HW1 8250  10.617   2.833   6.460  0.8195  0.6070  0.8982
 2081SOL    HW2 8251  10.707   2.776   6.352 -0.2419  1.0475 -0.2533
 2082SOL     OW 8252   6.933   4.981   7.226  0.0410 -0.6699  0.4017
 2082SOL    HW1 8253   6.948   5.029   7.145  1.7813 -0.1959  0.9418
 2082SOL    HW2 8254   6.840   4.957   7.224 -0.9923  2.8425  0.1623
 2083SOL     OW 8255   8.890   3.248   2.813  0.7259 -0.0318  0.0466
 2083SOL    HW1 8256   8.882   3.154   2.797 -0.2824 -0.4003  2.2878
 2083SOL    HW2 8257   8.851   3.289   2.736  2.7672 -1.3556 -1.7840
 2084SOL     OW 8258   5.670   5.102  10.398  0.0777 -0.5997 -0.2666
 2084SOL    HW1 8259   5.700   5.162  10.330  0.4902  1.4169  1.5660
 2084SOL    HW2 8260   5.750   5.079  10.446 -0.4743 -0.1921  0.8734
 2085SOL     OW 8261   0.486   3.466   2.122 -0.4929 -0.5156  0.0284
 2085SOL    HW1 8262   0.394   3.490   2.132 -0.2468  0.9973 -1.0556
 2085SOL    HW2 8263   0.489   3.413   2.042 -0.4357 -0.6744  0.1348
 2086SOL     OW 8264   2.546   6.718   9.806 -0.5793 -0.2640 -0.7020
 2086SOL    HW1 8265   2.616   6.713   9.871  0.1491  0.0705 -1.4340
 2086SOL    HW2 8266   2.564   6.645   9.747 -1.7272 -1.0777 -0.0683
 2087SOL     OW 8267   1.293   1.056   6.797 -0.2887 -0.0035 -0.0456
 2087SOL    HW1 8268   1.272   1.136   6.845  0.7871  0.8613 -0.9700
 2087SOL    HW2 8269   1.255   1.069   6.710  0.3111 -0.2738 -0.3571
 2088SOL     OW 8270   1.801   0.263   7.160 -0.4750  0.3149  0.2439
 2088SOL    HW1 8271   1.847   0.279   7.242 -0.3898  2.2388 -0.1212
 2088SOL    HW2 8272   1.862   0.211   7.108  1.1843  2.4092 -0.0508
 2089SOL     OW 8273   9.329   2.336   2.836  0.5081 -1.0906 -0.2552
 2089SOL    HW1 8274   9.379   2.278   2.778 -0.4648 -1.3149 -0.8943
 2089SOL    HW2 8275   9.238   2.320   2.813  0.1157 -0.8357  1.0293
 2090SOL     OW 8276   1.218   9.879   7.725 -0.1695 -0.3747  0.0426
 2090SOL    HW1 8277   1.207   9.944   7.795  1.5025 -1.4874  1.4111
 2090SOL    HW2 8278   1.283   9.919   7.667 -0.5306 -0.0369 -0.1334
 2091SOL     OW 8279  10.082   2.897  10.465 -0.1281  0.0695  0.1157
 2091SOL    HW1 8280  10.148   2.949  10.420 -0.4121  1.0975  0.8630
 2091SOL    HW2 8281   9.999   2.929  10.431 -0.3229  0.4437  0.9378
 2092SOL     OW 8282   6.394   9.528   2.953 -0.3202  0.3925 -0.1515
 2092SOL    HW1 8283   6.472   9.584   2.947  0.0810 -0.2820 -1.8783
 2092SOL    HW2 8284   6.424   9.443   2.922 -1.8915  0.2785 -1.4624
 2093SOL     OW 8285   5.091   0.327   9.491  0.2122  0.5118  0.1341
 2093SOL    HW1 8286   5.080   0.244   9.538 -0.3171 -0.0316 -0.9407
 2093SOL    HW2 8287   5.020   0.383   9.524  0.5097  0.5291  0.7814
 2094SOL     OW 8288   3.436   4.725   8.072 -0.3102 -1.1395 -0.1099
 2094SOL    HW1 8289   3.360   4.754   8.023  1.1580  2.4654 -0.5880
 2094SOL    HW2 8290   3.483   4.805   8.093  3.0253 -3.1088  0.7470
 2095SOL     OW 8291   8.246   2.022   1.301  0.3158  0.4790  0.1702
 2095SOL    HW1 8292   8.242   2.007   1.396  1.3568  1.0205  0.3121
 2095SOL    HW2 8293   8.154   2.033   1.275 -0.0447 -0.3996  0.9858
 2096SOL     OW 8294   3.299  10.333   2.700 -0.0689  0.2469  0.2331
 2096SOL    HW1 8295   3.339  10.246   2.695 -1.7556 -0.5236 -0.7137
 2096SOL    HW2 8296   3.221  10.320   2.753 -0.2549  1.2325  0.2098
 2097SOL     OW 8297   2.126   3.854   3.595  0.3721 -0.2430 -0.2470
 2097SOL    HW1 8298   2.197   3.799   3.627 -0.2202  0.2006  1.9842
 2097SOL    HW2 8299   2.048   3.798   3.600  0.0261  0.2849  0.5651
 2098SOL     OW 8300   2.184   4.682   5.522  0.3669 -0.2819 -0.4504
 2098SOL    HW1 8301   2.193   4.710   5.431 -0.8327 -0.1559 -0.5464
 2098SOL    HW2 8302   2.204   4.589   5.521 -1.0238 -0.6080 -1.1187
 2099SOL     OW 8303   8.304   7.360   6.599  0.1196 -0.5507  0.1489
 2099SOL    HW1 8304   8.356   7.373   6.679  0.3782  0.5510 -0.1891
 2099SOL    HW2 8305   8.364   7.380   6.527 -0.8808  1.3467 -0.2358
 2100SOL     OW 8306   1.891   6.868  10.240 -0.3149 -0.0345  0.4488
 2100SOL    HW1 8307   1.926   6.836  10.158 -0.6844  0.4452  0.0956
 2100SOL    HW2 8308   1.821   6.806  10.263  0.6870 -0.9454  1.1142
 2101SOL     OW 8309   0.722   4.523   2.530  0.6975  0.2440 -0.0564
 2101SOL    HW1 8310   0.699   4.464   2.459 -1.0076 -1.3625  1.7345
 2101SOL    HW2 8311   0.645   4.578   2.543  1.1114  0.7478  0.3650
 2102SOL     OW 8312   0.680   5.217   2.537 -0.5474 -0.0850 -0.1841
 2102SOL    HW1 8313   0.750   5.164   2.500 -1.2950  0.3946 -2.4934
 2102SOL    HW2 8314   0.602   5.161   2.531 -0.4811 -0.4633  1.9600
 2103SOL     OW 8315   4.209   0.395   3.563  0.4716 -0.3699 -0.3733
 2103SOL    HW1 8316   4.301   0.368   3.555  0.9446  0.4754  1.5895
 2103SOL    HW2 8317   4.188   0.383   3.655 -1.2311  0.0084 -0.6757
 2104SOL     OW 8318   2.691   0.198   5.509 -0.1043 -0.7895 -0.2812
 2104SOL    HW1 8319   2.619   0.216   5.570  0.1236  1.4357 -0.5840
 2104SOL    HW2 8320   2.736   0.122   5.546 -0.5640 -0.1154  1.7874
 2105SOL     OW 8321  10.116  10.754   0.647  0.2191  0.2759  0.1478
 2105SOL    HW1 8322  10.148  10.769   0.558 -1.5964 -0.4562 -0.6872
 2105SOL    HW2 8323  10.195  10.747   0.701  1.4366 -0.8925 -1.6730
 2106SOL     OW 8324   2.034   0.755   5.742 -0.3061  0.1571 -0.0664
 2106SOL    HW1 8325   2.024   0.850   5.740 -0.6923  0.1138 -1.2200
 2106SOL    HW2 8326   2.125   0.740   5.716 -0.4544  0.1981 -0.6281
 2107SOL     OW 8327   6.527   5.935   8.283  0.1669 -0.1667 -0.0938
 2107SOL    HW1 8328   6.478   5.939   8.201 -0.4324  0.6810  0.2867
 2107SOL    HW2 8329   6.540   5.841   8.298 -0.7441 -0.3841 -0.5653
 2108SOL     OW 8330   1.226   9.328   3.905 -0.7846  0.1104 -0.1612
 2108SOL    HW1 8331   1.230   9.308   3.812  1.4856 -0.6218  0.0341
 2108SOL    HW2 8332   1.260   9.250   3.948 -1.3770  0.6031  1.2690
 2109SOL     OW 8333   0.335   6.836   5.149  0.0049 -0.1881 -0.4471
 2109SOL    HW1 8334   0.397   6.883   5.205  0.0550  0.1946 -0.8173
 2109SOL    HW2 8335   0.351   6.744   5.168  0.8191 -0.1041 -0.6743
 2110SOL     OW 8336   7.636   3.512   2.477 -0.6891  0.1292 -0.2083
 2110SOL    HW1 8337   7.646   3.529   2.384 -0.0137 -1.8425 -0.5443
 2110SOL    HW2 8338   7.697   3.573   2.519  0.8245 -0.6029 -1.2423
 2111SOL     OW 8339   2.084   9.025   7.880 -0.1678 -0.5026 -0.0968
 2111SOL    HW1 8340   2.058   9.112   7.851  0.5449 -0.1603  0.2538
 2111SOL    HW2 8341   2.060   9.022   7.973 -0.8590 -0.9574 -0.2791
 2112SOL     OW 8342   5.108   8.274   5.792  0.0288 -0.2638 -0.2641
 2112SOL    HW1 8343   5.071   8.239   5.873 -0.0386  0.6922  0.1314
 2112SOL    HW2 8344   5.063   8.357   5.778  1.1798  0.3703 -0.3962
 2113SOL     OW 8345   4.873   6.630   4.690 -0.4913  0.3273  0.1580
 2113SOL    HW1 8346   4.900   6.568   4.622 -1.7245  1.1714 -1.1598
 2113SOL    HW2 8347   4.951   6.642   4.744  0.2066 -1.1914 -0.4685
 2114SOL     OW 8348   3.628   5.385   8.307 -0.9644 -0.5607 -0.1122
 2114SOL    HW1 8349   3.566   5.439   8.357  0.6982 -0.6283  2.1821
 2114SOL    HW2 8350   3.714   5.411   8.340  0.0647 -2.4011 -1.2168
 2115SOL     OW 8351   3.587   8.237   2.786  0.0131  0.8421 -0.0231
 2115SOL    HW1 8352   3.560   8.154   2.824  1.9598  0.4728  0.6804
 2115SOL    HW2 8353   3.520   8.299   2.814 -0.6677 -0.2011  0.7191
 2116SOL     OW 8354   8.268   6.577   0.678  0.4713  0.4070  0.2422
 2116SOL    HW1 8355   8.173   6.575   0.691  0.3861  1.6396 -0.0806
 2116SOL    HW2 8356   8.302   6.518   0.745 -0.5997 -1.3253 -0.6510
 2117SOL     OW 8357  10.157   4.473   3.704  0.1434 -0.4436  0.2282
 2117SOL    HW1 8358  10.214   4.408   3.748 -0.2684 -1.7590 -1.1060
 2117SOL    HW2 8359  10.135   4.535   3.773  2.8392 -0.1071  0.9241
 2118SOL     OW 8360   9.283  10.885   6.772  0.1130 -0.2372 -0.3457
 2118SOL    HW1 8361   9.246  10.958   6.821  0.3426 -0.1721 -0.2686
 2118SOL    HW2 8362   9.359  10.921   6.727  1.9512 -1.0163  1.9239
 2119SOL     OW 8363   3.032   6.079   6.638 -0.3862  0.0248  0.5686
 2119SOL    HW1 8364   3.103   6.022   6.669  1.4490  2.7791  1.9071
 2119SOL    HW2 8365   3.048   6.088   6.544 -0.0430 -0.7972  0.5401
 2120SOL     OW 8366   2.228   0.720   1.346 -0.5394  0.3309  0.3361
 2120SOL    HW1 8367   2.175   0.654   1.301 -0.1608  0.6345 -0.5664
 2120SOL    HW2 8368   2.188   0.803   1.324 -0.3992  0.4773  0.6282
 2121SOL     OW 8369   8.007   7.277   8.097  0.4078 -0.8040  0.5686
 2121SOL    HW1 8370   8.007   7.268   8.192  0.8971  0.6514  0.7346
 2121SOL    HW2 8371   8.094   7.311   8.077 -0.2931  0.6300 -0.1968
 2122SOL     OW 8372   9.867   3.686   7.392  0.3752 -0.6091  0.3638
 2122SOL    HW1 8373   9.823   3.768   7.370  0.4445 -0.4698  0.7485
 2122SOL    HW2 8374   9.902   3.700   7.480 -0.2775 -1.3261  0.7445
 2123SOL     OW 8375   6.816   7.324   6.660  0.2162 -0.1665  0.2715
 2123SOL    HW1 8376   6.857   7.324   6.574  1.4779 -1.1593  0.8318
 2123SOL    HW2 8377   6.876   7.273   6.715 -1.8045 -1.7544  1.1303
 2124SOL     OW 8378   1.649   6.077   8.557  0.0567 -0.0420  0.0488
 2124SOL    HW1 8379   1.734   6.034   8.553 -0.4482 -0.9678 -1.2210
 2124SOL    HW2 8380   1.617   6.059   8.646  0.4830 -1.0577  0.0007
 2125SOL     OW 8381   1.380   4.412   6.060 -0.1102 -0.2472  0.0012
 2125SOL    HW1 8382   1.356   4.378   6.146  0.1690 -1.2254 -0.2988
 2125SOL    HW2 8383   1.470   4.445   6.072 -0.3315  0.2747  0.2568
 2126SOL     OW 8384   4.745   0.859   6.638 -0.3586 -0.3028 -0.1905
 2126SOL    HW1 8385   4.766   0.794   6.570  0.3253 -0.0156 -0.2639
 2126SOL    HW2 8386   4.667   0.825   6.681  0.5186 -1.6719  0.3970
 2127SOL     OW 8387   3.399   3.520   8.290 -0.1907  0.0826 -0.2543
 2127SOL    HW1 8388   3.344   3.586   8.332 -1.3690 -0.8789 -0.2433
 2127SOL    HW2 8389   3.387   3.534   8.196  2.0621  1.9124 -0.3631
 2128SOL     OW 8390   0.523   9.495   5.348 -0.3783  0.7992 -0.9103
 2128SOL    HW1 8391   0.447   9.515   5.402 -0.2932 -1.0472 -0.0302
 2128SOL    HW2 8392   0.593   9.549   5.384 -0.6283  0.5062  0.0272
 2129SOL     OW 8393   2.526   0.461   7.837 -0.1218  0.3611 -0.1465
 2129SOL    HW1 8394   2.576   0.380   7.843 -0.4716 -0.1982 -3.2821
 2129SOL    HW2 8395   2.452   0.439   7.781 -1.4735  2.3076  0.7773
 2130SOL     OW 8396   2.327   8.745   8.836  0.0231  0.3116 -0.1078
 2130SOL    HW1 8397   2.421   8.741   8.856  0.0270  0.6013 -0.0698
 2130SOL    HW2 8398   2.287   8.776   8.917 -0.1376 -0.0849 -0.0324
 2131SOL     OW 8399   6.895   2.317  10.371  0.5559 -0.0587 -0.4598
 2131SOL    HW1 8400   6.969   2.267  10.335  0.9316 -0.1484  0.4270
 2131SOL    HW2 8401   6.821   2.292  10.316  0.2350 -3.2499  1.2215
 2132SOL     OW 8402   8.725   0.706   9.505  0.0088  0.0686 -0.7962
 2132SOL    HW1 8403   8.680   0.649   9.443  1.0445  1.0711 -2.5346
 2132SOL    HW2 8404   8.813   0.717   9.470  0.3455  1.4388  0.3446
 2133SOL     OW 8405  10.674   2.250   6.279  0.0601 -0.1010  0.1388
 2133SOL    HW1 8406  10.617   2.324   6.303 -1.3818 -0.5167 -1.8271
 2133SOL    HW2 8407  10.759   2.290   6.263 -0.6471  1.1234 -0.6864
 2134SOL     OW 8408  10.042   2.324   9.123  0.1868  0.5617  0.0004
 2134SOL    HW1 8409  10.073   2.347   9.211  0.0951  0.6044  0.0216
 2134SOL    HW2 8410  10.059   2.402   9.070 -1.3570  1.1726  0.3713
 2135SOL     OW 8411  11.065   7.234   3.253 -0.0015 -0.2116  0.1500
 2135SOL    HW1 8412  11.050   7.221   3.346 -0.3709  1.0334  0.2909
 2135SOL    HW2 8413  11.126   7.309   3.249 -0.3917  0.0817 -0.6042
 2136SOL     OW 8414   1.016   0.377   1.796 -0.2244 -0.8472 -0.0642
 2136SOL    HW1 8415   0.938   0.324   1.810 -0.4990 -1.4447 -3.0469
 2136SOL    HW2 8416   1.085   0.313   1.778 -0.1924 -0.3194 -2.1192
 2137SOL     OW 8417   1.482   1.735   3.616  0.0618 -0.1995  0.3368
 2137SOL    HW1 8418   1.499   1.712   3.524  2.7830 -0.4332  0.8182
 2137SOL    HW2 8419   1.410   1.797   3.612 -0.0415 -0.3727 -1.9454
 2138SOL     OW 8420   3.158   6.494   3.974 -0.7537 -0.4793  0.0868
 2138SOL    HW1 8421   3.223   6.506   4.043 -0.8017  0.4966 -0.0265
 2138SOL    HW2 8422   3.209   6.490   3.894 -0.7895 -0.3048  0.0550
 2139SOL     OW 8423   4.692  10.361   3.196  0.2353  0.1974  0.1871
 2139SOL    HW1 8424   4.623  10.314   3.245 -1.1230  3.1853  1.4055
 2139SOL    HW2 8425   4.763  10.371   3.259  0.4912 -0.1345 -0.0457
 2140SOL     OW 8426  10.973   1.413   4.252 -0.5878 -0.2872 -0.1407
 2140SOL    HW1 8427  10.887   1.446   4.277 -0.4790 -0.7698  0.9211
 2140SOL    HW2 8428  11.030   1.490   4.254 -0.3545 -0.4660  2.2279
 2141SOL     OW 8429   3.527   7.226   4.629 -0.4357  0.0465 -0.4166
 2141SOL    HW1 8430   3.570   7.305   4.596 -0.5354  0.3433  0.1574
 2141SOL    HW2 8431   3.472   7.257   4.701 -0.7502 -0.4962 -0.4161
 2142SOL     OW 8432   8.592   3.660   9.687 -0.2239 -0.3441  0.0488
 2142SOL    HW1 8433   8.518   3.718   9.701 -1.7193 -1.4469 -2.4890
 2142SOL    HW2 8434   8.560   3.573   9.712  0.8836 -0.5656  0.7550
 2143SOL     OW 8435   3.030  10.671   7.593 -0.2532 -0.0105 -1.1237
 2143SOL    HW1 8436   2.947  10.705   7.627  0.5234  0.9072 -0.0827
 2143SOL    HW2 8437   3.056  10.603   7.656  0.3904  0.5724 -0.7494
 2144SOL     OW 8438   3.330   0.776   8.836  0.4839 -0.1979  0.3001
 2144SOL    HW1 8439   3.243   0.738   8.847  0.0240  0.9408  0.7558
 2144SOL    HW2 8440   3.335   0.799   8.743  0.1207  0.1501  0.3658
 2145SOL     OW 8441   7.272   5.915   6.155 -0.3459  0.7756 -0.6309
 2145SOL    HW1 8442   7.302   5.910   6.065  2.8477  4.9147 -0.0975
 2145SOL    HW2 8443   7.185   5.954   6.150 -0.5790  0.1293 -1.8972
 2146SOL     OW 8444   4.656  10.439   3.803 -0.1543  0.2344  0.2424
 2146SOL    HW1 8445   4.677  10.530   3.785  1.3875 -0.2919 -0.8582
 2146SOL    HW2 8446   4.658  10.396   3.718  1.8892 -1.3285  1.0010
 2147SOL     OW 8447   5.337   8.337   0.901 -0.1703 -0.1408 -0.3000
 2147SOL    HW1 8448   5.344   8.407   0.966 -1.3094 -0.0113 -0.2999
 2147SOL    HW2 8449   5.422   8.336   0.857 -0.3502  1.6914 -0.7598
 2148SOL     OW 8450  10.667   5.327   5.010  0.3678 -0.0898  0.1019
 2148SOL    HW1 8451  10.702   5.291   5.092 -2.0503  0.2281  1.3892
 2148SOL    HW2 8452  10.639   5.416   5.034 -1.2721 -0.3313 -0.7784
 2149SOL     OW 8453   1.375   4.830   7.663 -0.5576 -0.0697 -0.1066
 2149SOL    HW1 8454   1.450   4.784   7.624 -0.8350 -1.2182  0.6723
 2149SOL    HW2 8455   1.351   4.777   7.738 -0.5715  1.6483  1.1590
 2150SOL     OW 8456   0.296   7.769   0.415 -0.4462 -0.2263  0.1677
 2150SOL    HW1 8457   0.343   7.695   0.454 -1.4607 -1.2425 -0.4702
 2150SOL    HW2 8458   0.236   7.798   0.484  1.1318  1.1515  1.0262
 2151SOL     OW 8459   1.609   4.560   0.098 -0.2312  0.0115 -0.7887
 2151SOL    HW1 8460   1.573   4.605   0.174 -1.1844 -0.9790 -0.6330
 2151SOL    HW2 8461   1.677   4.619   0.066 -0.6793  1.0323  0.0649
 2152SOL     OW 8462   5.607   9.419   7.418 -0.0576  0.0181  0.0891
 2152SOL    HW1 8463   5.663   9.468   7.479 -0.2745 -0.8120  0.9677
 2152SOL    HW2 8464   5.637   9.447   7.332 -0.5642  2.1534  0.5484
 2153SOL     OW 8465   5.979   4.631   2.777  0.6076  0.3515  0.3734
 2153SOL    HW1 8466   5.955   4.693   2.847  0.8756 -0.3041  1.0682
 2153SOL    HW2 8467   6.000   4.550   2.824 -0.5999 -0.5452 -0.5723
 2154SOL     OW 8468  10.676   4.990   9.014 -0.2224  0.1481  0.3827
 2154SOL    HW1 8469  10.716   4.991   9.101  0.0003  0.4629  0.2781
 2154SOL    HW2 8470  10.636   5.076   9.006 -1.4788 -0.3702  0.7397
 2155SOL     OW 8471   5.584   3.389   2.818 -0.5455 -0.8110 -0.2519
 2155SOL    HW1 8472   5.617   3.319   2.763  0.2337  0.8420 -2.0039
 2155SOL    HW2 8473   5.654   3.454   2.820 -1.2759  0.0078  1.2101
 2156SOL     OW 8474   2.620   8.289   8.964  0.4239 -0.3035 -0.1707
 2156SOL    HW1 8475   2.690   8.247   8.915 -0.5168 -1.5287 -0.5157
 2156SOL    HW2 8476   2.604   8.372   8.918 -0.2814 -1.3140 -1.8394
 2157SOL     OW 8477   0.835   3.501   6.647 -0.1882 -0.2065 -0.3324
 2157SOL    HW1 8478   0.907   3.563   6.660  1.4209 -2.0263 -0.0601
 2157SOL    HW2 8479   0.845   3.472   6.557 -0.7992 -0.2277 -0.3941
 2158SOL     OW 8480   0.304   1.839   6.749 -0.2637  0.1565  0.0882
 2158SOL    HW1 8481   0.305   1.750   6.784  0.2102  0.0579 -0.1729
 2158SOL    HW2 8482   0.369   1.886   6.802 -0.6167  0.3877  0.3229
 2159SOL     OW 8483   7.560   3.663   4.802  0.4846 -0.8789  0.5995
 2159SOL    HW1 8484   7.491   3.724   4.830  0.6035  1.0019 -2.7107
 2159SOL    HW2 8485   7.519   3.609   4.735  1.5119 -1.5688  0.5131
 2160SOL     OW 8486   4.019   3.646   3.146  0.1051 -0.4889  0.2037
 2160SOL    HW1 8487   3.981   3.558   3.142  0.5755 -0.7017  0.3356
 2160SOL    HW2 8488   4.005   3.682   3.059  0.8204 -1.0829 -0.1686
 2161SOL     OW 8489   2.850   5.914   8.034  0.2944  0.2649 -0.2182
 2161SOL    HW1 8490   2.755   5.916   8.019  0.5270  2.4317 -2.1445
 2161SOL    HW2 8491   2.876   5.824   8.014 -1.2248 -0.0729 -0.8357
 2162SOL     OW 8492  10.919   2.546   8.999 -0.3151  0.4392 -0.2052
 2162SOL    HW1 8493  10.824   2.552   8.984  0.1133  0.8389 -3.5042
 2162SOL    HW2 8494  10.946   2.636   9.017 -0.4910  0.3693  0.4457
 2163SOL     OW 8495   2.843   4.677   2.540  0.4406 -0.4236  0.6891
 2163SOL    HW1 8496   2.779   4.716   2.480 -1.3556  0.7942  3.2145
 2163SOL    HW2 8497   2.906   4.634   2.483 -1.0075  0.8363 -2.0560
 2164SOL     OW 8498   4.162  10.393   5.377  0.0690 -0.1957  0.5481
 2164SOL    HW1 8499   4.140  10.311   5.421  0.1965  0.2509  1.4754
 2164SOL    HW2 8500   4.243  10.373   5.329 -0.8676 -1.1010 -0.7380
 2165SOL     OW 8501   2.500   3.617   2.767 -0.0696 -0.3543  0.3570
 2165SOL    HW1 8502   2.585   3.572   2.771  0.3693  0.3307 -0.8514
 2165SOL    HW2 8503   2.519   3.707   2.792  0.0418  0.3771 -2.0633
 2166SOL     OW 8504   4.803   1.731   6.656  0.5932 -0.1381  0.2010
 2166SOL    HW1 8505   4.735   1.703   6.718 -1.3297  0.8833 -1.3079
 2166SOL    HW2 8506   4.843   1.808   6.697 -0.2720  0.1837  0.4761
 2167SOL     OW 8507   8.151   7.506  10.489 -0.2596 -0.2121  0.3766
 2167SOL    HW1 8508   8.243   7.501  10.463 -0.7557 -1.3753 -1.2929
 2167SOL    HW2 8509   8.118   7.586  10.446  0.4356  1.5040  2.7945
 2168SOL     OW 8510   8.130   3.325   1.659 -0.2582 -0.3540  0.0870
 2168SOL    HW1 8511   8.135   3.282   1.574  0.1876  0.3887 -0.2766
 2168SOL    HW2 8512   8.054   3.384   1.652  1.8072  2.3702 -1.1138
 2169SOL     OW 8513   1.154   2.588   8.161  1.1118 -0.0103  0.5056
 2169SOL    HW1 8514   1.108   2.587   8.245  0.7510 -1.1486  0.3148
 2169SOL    HW2 8515   1.204   2.506   8.159  3.0836  1.1260  0.6383
 2170SOL     OW 8516   6.025   2.266   2.668  0.5190 -0.1493  0.4224
 2170SOL    HW1 8517   5.930   2.267   2.681  0.5279  1.0154  0.5011
 2170SOL    HW2 8518   6.040   2.199   2.601 -0.1817 -1.5563  1.6003
 2171SOL     OW 8519   3.537   3.564   5.498 -0.6277 -0.4385 -0.2087
 2171SOL    HW1 8520   3.552   3.569   5.592 -0.7181  0.4416 -0.2297
 2171SOL    HW2 8521   3.486   3.642   5.478  0.0847 -0.1834 -1.1115
 2172SOL     OW 8522   2.555   6.417   4.438 -0.3374  0.2336 -0.0300
 2172SOL    HW1 8523   2.649   6.407   4.449 -0.2567 -0.5589 -1.2489
 2172SOL    HW2 8524   2.521   6.428   4.527  0.7270 -1.0770  0.5762
 2173SOL     OW 8525   7.539   9.250   7.938  0.5631  0.0995  0.1199
 2173SOL    HW1 8526   7.444   9.251   7.927  0.2590 -3.9571  0.7921
 2173SOL    HW2 8527   7.561   9.338   7.968 -3.2681  0.6840  1.7973
 2174SOL     OW 8528   6.300   3.922   2.611 -0.8419  0.2799 -0.1322
 2174SOL    HW1 8529   6.302   3.957   2.700  1.2473  1.6650 -0.6375
 2174SOL    HW2 8530   6.236   3.976   2.565 -0.2815  1.0737 -0.0046
 2175SOL     OW 8531   8.387   6.357   3.931 -0.1873  0.2077  0.6385
 2175SOL    HW1 8532   8.351   6.445   3.918 -0.3999 -0.0463 -0.6093
 2175SOL    HW2 8533   8.310   6.303   3.947 -0.3103 -0.1623 -1.0444
 2176SOL     OW 8534   9.532   2.751   9.836  0.0208  0.2205  0.1123
 2176SOL    HW1 8535   9.546   2.668   9.882 -0.9782 -0.0359 -0.0206
 2176SOL    HW2 8536   9.590   2.747   9.760 -0.6977 -0.7775 -0.4068
 2177SOL     OW 8537   4.000   7.682   8.759  0.2502 -0.0686  0.1785
 2177SOL    HW1 8538   4.072   7.744   8.769  0.8444 -0.6886 -0.1525
 2177SOL    HW2 8539   4.027   7.627   8.686 -1.9169  1.5623 -2.0150
 2178SOL     OW 8540   4.430   1.242   4.421  0.4423 -0.3317  0.7069
 2178SOL    HW1 8541   4.463   1.230   4.332  0.4993  0.9853  0.5339
 2178SOL    HW2 8542   4.413   1.336   4.428 -0.8507 -0.6142  1.6437
 2179SOL     OW 8543   7.920   5.402  10.213  0.1142  0.3637 -0.2746
 2179SOL    HW1 8544   8.006   5.444  10.207  0.1980  0.4809  1.2824
 2179SOL    HW2 8545   7.926   5.327  10.154  1.7505 -0.3735  0.7515
 2180SOL     OW 8546   3.466   5.556   8.442  0.1879 -0.3642 -0.0722
 2180SOL    HW1 8547   3.394   5.552   8.505 -1.0858 -1.2957 -1.5059
 2180SOL    HW2 8548   3.459   5.643   8.403  0.5863 -0.0216  0.5982
 2181SOL     OW 8549   3.609   2.673   8.627 -0.0744 -0.0671  0.0245
 2181SOL    HW1 8550   3.635   2.621   8.550  0.2358  1.3343 -0.8474
 2181SOL    HW2 8551   3.637   2.620   8.701  0.7653 -0.8972 -0.8454
 2182SOL     OW 8552   0.875  10.145   8.624 -0.5304 -0.0806 -0.1277
 2182SOL    HW1 8553   0.915  10.211   8.568 -3.2604  2.7267  0.9682
 2182SOL    HW2 8554   0.909  10.163   8.712 -0.7110 -0.6388  0.0645
 2183SOL     OW 8555  11.070   9.669   3.416  0.1845  0.6569  0.0311
 2183SOL    HW1 8556  10.989   9.664   3.468 -0.3376  0.9418 -0.7441
 2183SOL    HW2 8557  11.117   9.589   3.439 -0.6688  0.1066 -0.0668
 2184SOL     OW 8558   5.447   1.430   6.673  0.1926  0.3897  0.0734
 2184SOL    HW1 8559   5.417   1.346   6.638 -0.5332 -0.7595  3.0932
 2184SOL    HW2 8560   5.394   1.495   6.626 -1.0061 -1.0305 -0.6498
 2185SOL     OW 8561   5.961   3.688  10.801 -0.1057 -0.2661  0.3218
 2185SOL    HW1 8562   5.904   3.643  10.739 -0.0416  0.3522 -0.2048
 2185SOL    HW2 8563   6.018   3.742  10.746  0.3210 -0.1222  0.8918
 2186SOL     OW 8564   2.507  10.210   4.043  0.1954 -0.1665 -0.0045
 2186SOL    HW1 8565   2.550  10.127   4.021 -0.4173 -0.6104  0.4159
 2186SOL    HW2 8566   2.559  10.277   4.000  0.3565 -0.8227 -0.8483
 2187SOL     OW 8567   4.146   4.228   8.353 -0.5351 -0.1556  0.3086
 2187SOL    HW1 8568   4.187   4.146   8.323 -1.5420 -0.5715  0.0367
 2187SOL    HW2 8569   4.119   4.272   8.272 -1.1808 -0.1801  0.5095
 2188SOL     OW 8570   1.141   9.931   4.477 -0.5975  0.1271  0.3037
 2188SOL    HW1 8571   1.223   9.961   4.438 -0.4378 -1.7209 -0.9267
 2188SOL    HW2 8572   1.150   9.949   4.570  0.1663  2.1890 -0.1307
 2189SOL     OW 8573  10.258   0.999   3.621 -0.1308 -0.0263  0.2626
 2189SOL    HW1 8574  10.241   0.905   3.612  1.1380 -0.3446  0.8736
 2189SOL    HW2 8575  10.182   1.041   3.582 -0.7057 -1.3092 -0.0650
 2190SOL     OW 8576   2.287   1.954   5.440  0.3288 -0.2524  0.6487
 2190SOL    HW1 8577   2.220   1.990   5.499 -0.4493 -1.2746  0.4118
 2190SOL    HW2 8578   2.364   2.009   5.455 -0.2886  0.3821  1.5894
 2191SOL     OW 8579   2.089   9.499   5.522  0.5728  0.2493 -0.3164
 2191SOL    HW1 8580   2.086   9.403   5.516  0.9294  0.1018  1.4813
 2191SOL    HW2 8581   2.180   9.521   5.502  0.4772  0.2250 -0.7885
 2192SOL     OW 8582   8.307   4.784   0.424 -0.2518 -0.1913  0.2016
 2192SOL    HW1 8583   8.322   4.727   0.500  0.3774  0.7163  0.7760
 2192SOL    HW2 8584   8.390   4.782   0.376 -0.5897 -0.6217 -0.3758
 2193SOL     OW 8585   0.681   3.004   6.670 -0.1870  0.4747 -0.4687
 2193SOL    HW1 8586   0.644   2.987   6.583  0.6114  0.1736 -0.7619
 2193SOL    HW2 8587   0.774   3.020   6.653  0.2933 -1.0961  0.4909
 2194SOL     OW 8588   2.239   1.164   2.215 -0.1650 -0.6371  0.1312
 2194SOL    HW1 8589   2.198   1.166   2.301 -1.0727  1.0200 -0.2907
 2194SOL    HW2 8590   2.324   1.206   2.228 -0.1482 -0.7267  0.2999
 2195SOL     OW 8591   0.882   8.307   7.060 -0.1931  0.5332 -0.1819
 2195SOL    HW1 8592   0.934   8.278   7.135  0.4674  1.7242 -0.1505
 2195SOL    HW2 8593   0.860   8.226   7.013 -2.1865 -0.4713  2.2304
 2196SOL     OW 8594   4.189   6.414  11.011 -0.4724 -0.1990  0.3085
 2196SOL    HW1 8595   4.217   6.451  11.095  0.1488  0.1355 -0.0391
 2196SOL    HW2 8596   4.101   6.448  10.998  0.1168  1.2600 -0.0429
 2197SOL     OW 8597   9.937   2.425   8.317  0.0231 -0.3924 -0.1856
 2197SOL    HW1 8598   9.846   2.446   8.294  0.4495  0.3631 -1.2696
 2197SOL    HW2 8599   9.947   2.332   8.296  0.0144 -0.0393 -1.8613
 2198SOL     OW 8600   4.978  10.649   4.761 -0.0005  0.2283 -0.2293
 2198SOL    HW1 8601   4.941  10.729   4.723 -1.8029 -0.1008  0.7092
 2198SOL    HW2 8602   5.029  10.679   4.835 -1.8467  0.4946  1.0116
 2199SOL     OW 8603   1.395  10.746   5.724  0.5383 -0.4225 -0.3595
 2199SOL    HW1 8604   1.434  10.708   5.645  0.8618  0.4084 -0.6146
 2199SOL    HW2 8605   1.424  10.837   5.723 -1.0965  0.1267 -0.3507
 2200SOL     OW 8606  10.525  10.672   1.879 -0.1545 -0.0915 -0.3856
 2200SOL    HW1 8607  10.439  10.631   1.880  0.5908 -1.7342  0.2336
 2200SOL    HW2 8608  10.507  10.766   1.879 -1.9274 -0.3820  0.9820
 2201SOL     OW 8609   3.433   8.707  10.315  0.4522  0.5176 -0.1308
 2201SOL    HW1 8610   3.475   8.641  10.261  0.9173 -0.4437  1.3467
 2201SOL    HW2 8611   3.389   8.658  10.385 -2.0101  1.5678 -0.8229
 2202SOL     OW 8612   3.050   3.609   9.726  0.3136  0.0205 -0.2480
 2202SOL    HW1 8613   3.028   3.629   9.817 -0.2218 -0.5503 -0.2485
 2202SOL    HW2 8614   3.107   3.681   9.699 -1.0245  1.1935 -0.0540
 2203SOL     OW 8615   1.803   5.754  10.005  0.1860  0.5102  0.2836
 2203SOL    HW1 8616   1.755   5.816  10.059 -0.1758 -0.4473  1.0906
 2203SOL    HW2 8617   1.894   5.783  10.009 -0.0033  1.0633  0.5345
 2204SOL     OW 8618  10.932   0.910   4.147  0.1492 -0.0021  0.4285
 2204SOL    HW1 8619  10.957   0.818   4.154  1.7107  0.4010  0.4090
 2204SOL    HW2 8620  10.852   0.908   4.094  2.5742 -1.0906 -3.6565
 2205SOL     OW 8621   7.920   9.009   7.211 -0.6134 -0.3430  0.4280
 2205SOL    HW1 8622   7.826   9.026   7.205 -0.1849  2.2418 -0.4441
 2205SOL    HW2 8623   7.950   9.064   7.283  0.1113 -1.9548  1.4048
 2206SOL     OW 8624  10.272  11.030   4.183 -0.6847  0.2640  0.0580
 2206SOL    HW1 8625  10.196  10.995   4.136 -1.3185  1.1653  0.3903
 2206SOL    HW2 8626  10.239  11.107   4.229  0.0524 -0.2806  1.5523
 2207SOL     OW 8627   4.343   4.705   8.047 -0.5346 -0.4296  0.1288
 2207SOL    HW1 8628   4.336   4.616   8.013  0.8302 -0.2591 -0.6582
 2207SOL    HW2 8629   4.329   4.761   7.972 -1.0881  0.0208  0.5640
 2208SOL     OW 8630   5.094   7.564   5.285  0.1988  0.3057  0.6012
 2208SOL    HW1 8631   5.090   7.579   5.190 -1.9885  1.8868  0.8754
 2208SOL    HW2 8632   5.110   7.470   5.293 -0.8594 -0.1051 -1.3607
 2209SOL     OW 8633   6.658   2.395   7.210  0.2612  0.0565  0.6699
 2209SOL    HW1 8634   6.664   2.489   7.192 -0.2230  0.1263  0.8664
 2209SOL    HW2 8635   6.596   2.388   7.282  0.4227 -0.4045  0.7675
 2210SOL     OW 8636   4.472   6.756   7.521 -0.5698  0.2928  0.0432
 2210SOL    HW1 8637   4.443   6.806   7.445  0.3901  1.0080  0.1291
 2210SOL    HW2 8638   4.511   6.677   7.483  0.5412  0.9685 -0.2675
 2211SOL     OW 8639   0.883   2.898   1.859  0.0046 -0.3160 -0.4749
 2211SOL    HW1 8640   0.840   2.949   1.928  1.2177  0.4744 -0.2604
 2211SOL    HW2 8641   0.912   2.963   1.795 -0.9119 -1.0240 -1.6401
 2212SOL     OW 8642   0.691   6.343   6.334  0.1108 -0.2107  0.4227
 2212SOL    HW1 8643   0.701   6.413   6.269 -0.9379  0.2288  0.7179
 2212SOL    HW2 8644   0.771   6.348   6.387  0.4993  0.1031 -0.1819
 2213SOL     OW 8645   3.472   8.682   1.699 -0.0344  0.2752  0.1201
 2213SOL    HW1 8646   3.394   8.720   1.741 -0.6209 -0.1707 -0.5516
 2213SOL    HW2 8647   3.496   8.746   1.632 -0.7161 -0.2708 -0.6654
 2214SOL     OW 8648   4.086   2.143   6.520  0.1602  0.4389  0.4421
 2214SOL    HW1 8649   4.073   2.137   6.425 -1.0657  0.4626  0.5919
 2214SOL    HW2 8650   4.007   2.104   6.558  0.2709  1.1561  1.4512
 2215SOL     OW 8651   9.859   5.490   9.604 -0.1453 -0.0231 -0.3126
 2215SOL    HW1 8652   9.947   5.454   9.616 -0.5462 -0.8031  0.3841
 2215SOL    HW2 8653   9.801   5.426   9.644 -0.8433  1.7566  1.7412
 2216SOL     OW 8654  10.896   0.010   0.143  0.0011 -0.1938  0.0240
 2216SOL    HW1 8655  10.907   0.058   0.061  0.2696 -3.3991 -1.9882
 2216SOL    HW2 8656  10.830   0.060   0.191  0.9053  2.6088 -1.4126
 2217SOL     OW 8657   9.168   5.084   9.811 -0.0557  0.4585  0.0594
 2217SOL    HW1 8658   9.086   5.037   9.797  0.1373 -0.8879  2.8771
 2217SOL    HW2 8659   9.143   5.162   9.861  0.2258  0.9312 -0.5166
 2218SOL     OW 8660   0.230   1.776   1.806  0.1406  0.0946 -0.1897
 2218SOL    HW1 8661   0.162   1.715   1.779  2.0196 -1.4847 -1.6490
 2218SOL    HW2 8662   0.291   1.723   1.858  0.1175  1.5384  1.3773
 2219SOL     OW 8663   0.685   1.839   8.372  0.2913 -0.0946  0.2620
 2219SOL    HW1 8664   0.594   1.869   8.367  0.4175  0.1080 -1.7563
 2219SOL    HW2 8665   0.729   1.887   8.302  2.0257  0.0085  1.3886
 2220SOL     OW 8666  11.029  10.616   1.532 -0.3779 -0.0510 -0.1852
 2220SOL    HW1 8667  11.012  10.677   1.460 -1.2184 -1.3148 -1.1024
 2220SOL    HW2 8668  11.124  10.617   1.542 -0.2627  0.2937 -1.1911
 2221SOL     OW 8669   0.215   0.942  10.236  0.2432 -0.2318  0.3058
 2221SOL    HW1 8670   0.145   0.884  10.206  0.4267  0.3129 -1.2677
 2221SOL    HW2 8671   0.288   0.925  10.177  0.9448  0.2787  0.9968
 2222SOL     OW 8672   0.570   3.912   6.556 -0.1328  0.3615 -0.1648
 2222SOL    HW1 8673   0.590   3.818   6.560 -1.2355  0.0568 -1.4302
 2222SOL    HW2 8674   0.622   3.950   6.627 -0.2612 -1.3104  0.8799
 2223SOL     OW 8675   0.388   9.677   5.937 -0.1021 -0.0722 -0.2623
 2223SOL    HW1 8676   0.371   9.753   5.993  1.0679  1.5511 -1.9555
 2223SOL    HW2 8677   0.443   9.620   5.991 -1.5248 -0.0886  1.2729
 2224SOL     OW 8678   2.829   2.155  10.762 -0.0740  0.3959  0.2161
 2224SOL    HW1 8679   2.858   2.216  10.695  0.4530 -0.1749 -0.0765
 2224SOL    HW2 8680   2.879   2.180  10.840 -1.1841  1.4969  0.5934
 2225SOL     OW 8681   1.769   9.492   6.938  0.4998 -0.2426  0.1960
 2225SOL    HW1 8682   1.838   9.539   6.892  0.0417 -0.8040 -1.1270
 2225SOL    HW2 8683   1.804   9.477   7.025  1.4574  0.7527  0.0031
 2226SOL     OW 8684   5.637   7.902   0.397  0.4536 -0.0258  0.3965
 2226SOL    HW1 8685   5.683   7.916   0.480  4.9247 -2.2992 -1.3202
 2226SOL    HW2 8686   5.642   7.807   0.383  0.3724  0.3229 -2.6649
 2227SOL     OW 8687   4.524   8.905   8.046  0.8197  0.0615 -0.1284
 2227SOL    HW1 8688   4.526   8.979   7.985 -1.1970 -1.0144 -1.6286
 2227SOL    HW2 8689   4.567   8.834   7.998 -1.2588 -0.9486 -0.6234
 2228SOL     OW 8690   4.906   8.532   1.240 -0.2444 -0.2166 -0.7216
 2228SOL    HW1 8691   4.939   8.475   1.309 -2.4211  0.0097  0.6145
 2228SOL    HW2 8692   4.871   8.473   1.173 -1.2484 -0.4752  0.0144
 2229SOL     OW 8693   3.310   7.398   1.127  0.0068  0.1929  0.5989
 2229SOL    HW1 8694   3.321   7.375   1.220 -1.3459  3.6072  1.7659
 2229SOL    HW2 8695   3.373   7.469   1.113 -1.9629  1.8871 -0.1032
 2230SOL     OW 8696   9.036   3.889   7.758  0.2445 -0.2690  0.2593
 2230SOL    HW1 8697   9.006   3.801   7.779  1.1590 -0.2111  2.0149
 2230SOL    HW2 8698   9.018   3.899   7.664  2.2786 -3.2464 -0.6183
 2231SOL     OW 8699  10.872   3.881   2.023  0.1275  0.0347  0.3486
 2231SOL    HW1 8700  10.828   3.936   2.088  0.5832  0.0061  0.6826
 2231SOL    HW2 8701  10.961   3.915   2.018  0.0541  0.1312 -0.3743
 2232SOL     OW 8702   7.197   3.388   1.539  0.2715 -0.4826  0.2314
 2232SOL    HW1 8703   7.160   3.459   1.487 -0.2842 -1.9553 -1.4924
 2232SOL    HW2 8704   7.122   3.348   1.582  0.3948 -0.8862  0.0765
 2233SOL     OW 8705   2.183   8.472   6.231  0.0663  0.0351  0.2150
 2233SOL    HW1 8706   2.147   8.444   6.147  1.3102  0.8459 -0.6171
 2233SOL    HW2 8707   2.237   8.548   6.211  0.6916  0.0322  1.6960
 2234SOL     OW 8708   6.667   9.447   6.891 -0.1432 -0.5545 -0.2725
 2234SOL    HW1 8709   6.652   9.539   6.869  1.2719 -0.2767 -0.1262
 2234SOL    HW2 8710   6.744   9.422   6.840 -0.6143 -1.7166 -0.4440
 2235SOL     OW 8711   4.301   6.683   8.816  0.2518  0.0341 -0.3217
 2235SOL    HW1 8712   4.218   6.729   8.811  0.2624 -0.0199 -1.4213
 2235SOL    HW2 8713   4.286   6.602   8.767  1.0284  0.1755 -0.8185
 2236SOL     OW 8714  10.284   0.260   5.059 -0.0174 -0.1174  0.7302
 2236SOL    HW1 8715  10.261   0.235   5.149  0.1472 -0.1571  0.7622
 2236SOL    HW2 8716  10.242   0.345   5.047 -3.2362 -1.6764 -0.4232
 2237SOL     OW 8717   1.949   4.339   1.563  0.2178  1.0359  0.4153
 2237SOL    HW1 8718   1.930   4.288   1.484 -0.0896  2.0792 -0.2076
 2237SOL    HW2 8719   1.865   4.344   1.609  0.6908 -0.7490  1.5502
 2238SOL     OW 8720   0.249   9.361   5.490 -0.6739 -0.2237  0.3738
 2238SOL    HW1 8721   0.182   9.381   5.556 -1.0863 -2.2700  0.6445
 2238SOL    HW2 8722   0.316   9.312   5.538 -0.1386 -0.2548 -0.3946
 2239SOL     OW 8723   6.610   9.515   1.690  0.2305  0.2607  0.5916
 2239SOL    HW1 8724   6.665   9.564   1.752  0.6236  1.9286 -0.9840
 2239SOL    HW2 8725   6.662   9.438   1.668  3.0234  2.6391 -2.2255
 2240SOL     OW 8726   5.069   0.698   3.127 -0.1244 -0.0057 -0.3316
 2240SOL    HW1 8727   5.153   0.703   3.173  0.3415 -0.2923 -1.1443
 2240SOL    HW2 8728   5.090   0.710   3.035 -1.1422  1.2322 -0.4283
 2241SOL     OW 8729   7.194   9.024   1.386 -0.3657 -0.1012  0.1428
 2241SOL    HW1 8730   7.104   9.001   1.409 -0.0628 -0.7468  0.7313
 2241SOL    HW2 8731   7.201   9.117   1.406 -0.3306 -0.4762  2.0617
 2242SOL     OW 8732  10.483   6.991   8.855 -0.3736  0.3206 -0.4444
 2242SOL    HW1 8733  10.515   7.061   8.797 -0.7917  1.4903  0.6769
 2242SOL    HW2 8734  10.410   6.952   8.806  0.8712 -0.4328 -1.7722
 2243SOL     OW 8735   0.101   0.451   9.146 -0.2192 -0.2708  0.0985
 2243SOL    HW1 8736   0.056   0.367   9.139  0.3266 -0.4872 -1.0810
 2243SOL    HW2 8737   0.130   0.471   9.057  1.9268 -0.0932  0.7650
 2244SOL     OW 8738   9.955   2.348   5.422 -0.6371  0.1082 -0.6335
 2244SOL    HW1 8739   9.970   2.254   5.413  0.2857  0.1196  0.5329
 2244SOL    HW2 8740  10.038   2.388   5.396 -0.5899  0.5194  0.1249
 2245SOL     OW 8741   5.725   8.982   2.200 -0.5556  0.3278 -0.2427
 2245SOL    HW1 8742   5.639   8.953   2.170 -1.1139  0.6754  0.9820
 2245SOL    HW2 8743   5.707   9.048   2.267  0.6640  0.4565 -0.0172
 2246SOL     OW 8744   0.077   0.702   9.013  0.0617 -0.0760  0.1053
 2246SOL    HW1 8745   0.127   0.624   8.989  1.1918  0.7523 -0.2889
 2246SOL    HW2 8746  -0.009   0.668   9.038  0.2005 -1.3562 -1.0402
 2247SOL     OW 8747   2.586   2.226   4.548 -0.2519 -0.2584 -0.2497
 2247SOL    HW1 8748   2.655   2.282   4.584  0.8918 -0.8628 -1.4022
 2247SOL    HW2 8749   2.572   2.259   4.459 -0.1079 -1.2655 -0.6727
 2248SOL     OW 8750   4.483   6.475  10.688 -0.4918  0.0693  0.3077
 2248SOL    HW1 8751   4.475   6.457  10.782  1.9066 -0.8111  0.4157
 2248SOL    HW2 8752   4.503   6.390  10.649 -0.5454  0.5826 -0.8599
 2249SOL     OW 8753   2.201   1.071   9.606  0.3280 -0.4305 -0.2197
 2249SOL    HW1 8754   2.172   1.054   9.516  0.1069 -2.4777  0.2050
 2249SOL    HW2 8755   2.273   1.009   9.620  0.2145 -0.2836  1.0863
 2250SOL     OW 8756   4.705   8.374   8.951 -0.1749  0.4580  0.1629
 2250SOL    HW1 8757   4.683   8.349   9.041  1.2189 -1.0615  0.1232
 2250SOL    HW2 8758   4.629   8.346   8.900 -0.3362 -0.0678  0.6741
 2251SOL     OW 8759   0.426   3.982   3.967 -0.3642  0.3595 -0.6548
 2251SOL    HW1 8760   0.512   4.023   3.970 -0.0396 -0.1051 -2.3858
 2251SOL    HW2 8761   0.442   3.889   3.983 -0.7569  0.4742  0.5190
 2252SOL     OW 8762   0.233   9.643   8.784 -0.2851  0.1372 -0.4684
 2252SOL    HW1 8763   0.320   9.640   8.745 -0.2906  0.2625 -0.4931
 2252SOL    HW2 8764   0.229   9.566   8.840  0.2920  0.7544  0.4609
 2253SOL     OW 8765   7.858   3.518   5.975  0.0340 -0.1616  0.6280
 2253SOL    HW1 8766   7.808   3.576   6.033  0.5573  1.7157 -0.7142
 2253SOL    HW2 8767   7.792   3.476   5.921 -0.2710  0.1935  0.7202
 2254SOL     OW 8768   2.950   6.908   7.797  0.1646 -0.0378  0.3235
 2254SOL    HW1 8769   3.044   6.894   7.807  0.0152 -0.4326  1.2862
 2254SOL    HW2 8770   2.910   6.829   7.833 -0.5476  0.1384 -0.0449
 2255SOL     OW 8771  10.617   4.668   6.701  0.1914  0.7306 -0.1914
 2255SOL    HW1 8772  10.604   4.573   6.692  2.1630  0.5772 -2.0223
 2255SOL    HW2 8773  10.529   4.702   6.717 -0.6791 -1.3237 -0.2408
 2256SOL     OW 8774  10.250   7.709  10.301  0.4377  0.2412  0.1477
 2256SOL    HW1 8775  10.288   7.729  10.215 -1.0509  0.7231 -0.4280
 2256SOL    HW2 8776  10.212   7.792  10.330 -0.9923 -0.4299  0.2605
 2257SOL     OW 8777   2.888   6.614   4.168 -0.5280  0.2227  0.2553
 2257SOL    HW1 8778   2.976   6.652   4.176  0.6874 -2.3146 -0.1281
 2257SOL    HW2 8779   2.903   6.525   4.136 -3.3336  0.0959 -1.0348
 2258SOL     OW 8780   1.900  10.913   3.970 -0.2558 -0.2551  0.0481
 2258SOL    HW1 8781   1.920  10.881   4.058 -0.6046 -1.6050 -0.3420
 2258SOL    HW2 8782   1.982  10.952   3.940  0.7882 -2.4705 -0.1550
 2259SOL     OW 8783   2.839   1.953   1.226  0.1391  0.3153  0.0916
 2259SOL    HW1 8784   2.836   1.893   1.300  0.5249 -1.9486 -1.6231
 2259SOL    HW2 8785   2.929   1.983   1.222  0.4478 -0.6197 -0.2242
 2260SOL     OW 8786   2.269   7.215   8.501 -0.1334 -0.6299 -0.0449
 2260SOL    HW1 8787   2.287   7.134   8.452 -0.5324 -1.5107  1.2063
 2260SOL    HW2 8788   2.327   7.210   8.577  0.2323  0.5545 -0.2274
 2261SOL     OW 8789   2.369   1.755   8.006  0.5457 -0.1367  0.2506
 2261SOL    HW1 8790   2.375   1.833   8.062 -1.4839  0.1584  0.1332
 2261SOL    HW2 8791   2.405   1.685   8.060  0.7667  0.5646  1.0448
 2262SOL     OW 8792   1.193   9.534   4.667 -0.3762 -0.2657 -0.0912
 2262SOL    HW1 8793   1.269   9.477   4.654 -1.4538 -1.4102 -1.8035
 2262SOL    HW2 8794   1.186   9.585   4.587 -0.5588  0.9190  0.6581
 2263SOL     OW 8795   1.758   8.673   8.171  0.2696 -0.5182  0.2986
 2263SOL    HW1 8796   1.786   8.687   8.261  1.2232 -2.3251  0.3259
 2263SOL    HW2 8797   1.825   8.718   8.118 -0.6715  1.1515  0.4487
 2264SOL     OW 8798   8.998   8.425   8.753  0.5971  0.1313 -0.3723
 2264SOL    HW1 8799   9.092   8.435   8.739  0.4582  0.7082 -0.9532
 2264SOL    HW2 8800   8.959   8.437   8.667 -0.0420  0.2979 -0.0705
 2265SOL     OW 8801   0.741   6.716   3.747  0.2614 -0.0314 -0.6106
 2265SOL    HW1 8802   0.795   6.735   3.824 -2.2155 -0.5137  1.3717
 2265SOL    HW2 8803   0.719   6.623   3.755  1.4762 -0.6126 -3.0143
 2266SOL     OW 8804   3.955   2.750   9.394 -0.4522  0.2108 -0.3256
 2266SOL    HW1 8805   3.991   2.779   9.478 -0.9252  1.0157 -0.3858
 2266SOL    HW2 8806   3.934   2.831   9.348 -1.0776 -0.2349 -0.8401
 2267SOL     OW 8807   1.327  10.707   0.899  0.3158  1.0566  0.1022
 2267SOL    HW1 8808   1.413  10.666   0.897  0.1777  0.7874 -0.6393
 2267SOL    HW2 8809   1.293  10.688   0.987  0.2269 -0.4913 -0.2364
 2268SOL     OW 8810   8.783   2.856   3.016 -0.8461  0.4054  0.1501
 2268SOL    HW1 8811   8.740   2.822   3.094  0.8847  1.7451  1.7855
 2268SOL    HW2 8812   8.842   2.924   3.048 -0.7852  1.7244 -2.4468
 2269SOL     OW 8813   6.922   2.052   9.191 -0.4921  0.4769  0.0144
 2269SOL    HW1 8814   6.878   2.034   9.274  0.4928  3.0288  1.1809
 2269SOL    HW2 8815   6.992   1.986   9.187 -0.7459  0.1265  1.0359
 2270SOL     OW 8816   1.444   1.499   0.585 -0.3740  0.0935 -0.5688
 2270SOL    HW1 8817   1.424   1.463   0.499 -1.1870  1.9534 -1.1881
 2270SOL    HW2 8818   1.369   1.553   0.608  0.0757  0.1017  1.0680
 2271SOL     OW 8819   1.542   3.871   1.919  0.1625  0.5456 -0.5441
 2271SOL    HW1 8820   1.629   3.832   1.926 -0.2619 -0.1490  1.9477
 2271SOL    HW2 8821   1.498   3.846   2.000 -1.3711  3.3340 -0.3913
 2272SOL     OW 8822   0.540   9.478   8.309 -0.3305 -0.5197  0.0337
 2272SOL    HW1 8823   0.468   9.501   8.250  0.0710 -1.0790 -0.7088
 2272SOL    HW2 8824   0.545   9.382   8.304  0.0268 -0.5342  0.6043
 2273SOL     OW 8825   8.473   8.243   7.533  0.0609  0.0804  0.1519
 2273SOL    HW1 8826   8.480   8.234   7.628  1.6185  0.6206  0.1166
 2273SOL    HW2 8827   8.384   8.275   7.519  0.2768  1.4483  1.5654
 2274SOL     OW 8828   0.411   0.879   7.110  0.2036  0.0775 -0.3106
 2274SOL    HW1 8829   0.455   0.930   7.178 -2.8755  1.5177  0.7635
 2274SOL    HW2 8830   0.421   0.931   7.030 -1.6884  1.7726  0.4853
 2275SOL     OW 8831   1.629   2.933   1.317 -0.5285 -0.0105 -0.2510
 2275SOL    HW1 8832   1.653   2.841   1.329  1.6082  0.6725  1.1853
 2275SOL    HW2 8833   1.668   2.956   1.232 -0.0911 -0.1532 -0.0940
 2276SOL     OW 8834   0.804   0.094   8.654  0.8697  0.4857  0.2268
 2276SOL    HW1 8835   0.825   0.103   8.747 -0.4989 -0.3624  0.6559
 2276SOL    HW2 8836   0.739   0.162   8.637  0.7815  0.3460 -0.0010
 2277SOL     OW 8837   2.081   1.304   8.664  0.9831  0.4585  0.0637
 2277SOL    HW1 8838   2.094   1.278   8.573  0.1926 -0.8841  0.3048
 2277SOL    HW2 8839   1.991   1.335   8.668  0.8862  0.1425  0.4557
 2278SOL     OW 8840   1.849   5.555   3.312 -0.6099 -0.5481 -0.3907
 2278SOL    HW1 8841   1.852   5.475   3.259  0.3729 -2.5763  2.5152
 2278SOL    HW2 8842   1.764   5.553   3.354  0.1489 -1.1278  1.1677
 2279SOL     OW 8843   2.311   8.936   7.732 -0.6354 -0.0118 -0.3169
 2279SOL    HW1 8844   2.382   8.981   7.778 -1.7368  0.6153  0.8436
 2279SOL    HW2 8845   2.231   8.975   7.768 -1.6163  1.4074 -3.6397
 2280SOL     OW 8846   6.805   9.281   5.272  0.1449  0.1470 -0.3381
 2280SOL    HW1 8847   6.861   9.342   5.319 -0.7086  0.4293  0.3450
 2280SOL    HW2 8848   6.774   9.220   5.339  0.1758 -0.4157 -0.8265
 2281SOL     OW 8849   6.307   0.238   9.854  0.1145 -0.2634 -0.4225
 2281SOL    HW1 8850   6.319   0.243   9.759  0.4228  2.3156 -0.3259
 2281SOL    HW2 8851   6.390   0.269   9.889 -0.6035  0.5031  0.6409
 2282SOL     OW 8852   8.818   4.860   5.907 -0.2116 -0.5820  0.5476
 2282SOL    HW1 8853   8.877   4.845   5.981  0.8858  0.7031 -0.0237
 2282SOL    HW2 8854   8.829   4.784   5.851  1.0295 -0.3119  0.3951
 2283SOL     OW 8855   1.318  10.641  10.798  0.5590 -0.7214  1.0795
 2283SOL    HW1 8856   1.405  10.640  10.757  0.0961  1.4196 -0.0912
 2283SOL    HW2 8857   1.328  10.698  10.874  0.2125 -0.6531  1.0744
 2284SOL     OW 8858   3.221   9.550   6.156  0.1582 -0.0450  0.0809
 2284SOL    HW1 8859   3.129   9.557   6.131  0.5435 -2.3729 -2.4009
 2284SOL    HW2 8860   3.270   9.581   6.079  1.4160 -1.1283  0.3910
 2285SOL     OW 8861   8.900   6.954   2.838 -0.4124 -0.3826 -0.4765
 2285SOL    HW1 8862   8.979   6.927   2.886  0.0226  0.9419 -0.4185
 2285SOL    HW2 8863   8.865   7.027   2.889 -2.1139 -1.4018 -0.0958
 2286SOL     OW 8864   8.675   3.821   5.533 -0.1255  0.0227  0.3231
 2286SOL    HW1 8865   8.749   3.882   5.537  0.0573 -0.2718  2.8707
 2286SOL    HW2 8866   8.643   3.828   5.443  1.7281  1.6647 -0.2697
 2287SOL     OW 8867   9.275   1.593   5.079  0.1596  0.0079  0.5066
 2287SOL    HW1 8868   9.224   1.577   5.158 -1.8211  2.0018 -0.2578
 2287SOL    HW2 8869   9.330   1.668   5.101 -0.8254  0.9496 -0.1100
 2288SOL     OW 8870   9.495   2.611   3.405  0.8891  0.1894 -0.2333
 2288SOL    HW1 8871   9.543   2.606   3.487  2.7952  0.9867 -1.2438
 2288SOL    HW2 8872   9.488   2.705   3.386  1.9798  0.0046 -1.7753
 2289SOL     OW 8873  10.746  10.929   7.337  0.7492 -0.4632  0.4082
 2289SOL    HW1 8874  10.673  10.891   7.287  0.2928 -3.1338  2.8645
 2289SOL    HW2 8875  10.789  10.988   7.275 -3.9197  1.9854 -0.9766
 2290SOL     OW 8876   4.622   9.445   0.464  0.0372 -0.1734  0.0939
 2290SOL    HW1 8877   4.609   9.373   0.401 -0.2482 -0.4273  0.4391
 2290SOL    HW2 8878   4.549   9.504   0.447 -0.3964 -0.5517  0.6019
 2291SOL     OW 8879   0.750   2.613   5.348 -0.6271  0.0636 -0.1481
 2291SOL    HW1 8880   0.749   2.557   5.426 -0.9324  0.0011 -0.1968
 2291SOL    HW2 8881   0.661   2.646   5.341 -0.1415  1.6549  0.6686
 2292SOL     OW 8882   5.054   8.873   5.506 -0.3668 -0.6905  0.4773
 2292SOL    HW1 8883   5.022   8.788   5.536  0.3673 -1.0329  0.3161
 2292SOL    HW2 8884   5.003   8.937   5.557 -1.3176 -1.2054  0.1990
 2293SOL     OW 8885   1.754   4.448   1.276 -0.3434  0.0143  0.1186
 2293SOL    HW1 8886   1.752   4.372   1.333  0.1012 -0.0455  0.0558
 2293SOL    HW2 8887   1.717   4.519   1.328  0.3160  0.0263  0.5764
 2294SOL     OW 8888   9.479   6.036   6.600 -0.4190 -0.1718  0.2118
 2294SOL    HW1 8889   9.529   6.002   6.526 -1.4191 -0.2961 -0.4253
 2294SOL    HW2 8890   9.544   6.050   6.668  0.4162 -0.7563 -0.4407
 2295SOL     OW 8891   6.718   3.389   6.102 -0.0863  0.0828  0.0451
 2295SOL    HW1 8892   6.763   3.454   6.050  0.6232 -0.0181  0.5258
 2295SOL    HW2 8893   6.638   3.433   6.131 -0.1633  0.3555 -0.5690
 2296SOL     OW 8894   1.285   0.734   8.752  0.5028  0.0537  0.3043
 2296SOL    HW1 8895   1.191   0.747   8.766  0.5787  0.9595  0.0586
 2296SOL    HW2 8896   1.297   0.749   8.658  1.0241  0.8454  0.4917
 2297SOL     OW 8897   0.843  10.215   3.106  0.6453 -0.6632 -0.2445
 2297SOL    HW1 8898   0.911  10.172   3.054  1.3834 -1.6316  1.4183
 2297SOL    HW2 8899   0.802  10.276   3.046  0.8895 -2.2916 -2.1894
 2298SOL     OW 8900   2.879   8.530   5.269  0.1083  0.0490  0.3389
 2298SOL    HW1 8901   2.832   8.586   5.207  1.1362 -0.3483 -0.8657
 2298SOL    HW2 8902   2.965   8.571   5.278  0.2013 -0.2754  0.9671
 2299SOL     OW 8903   4.095   3.215   7.761  0.0478 -0.4092 -0.8063
 2299SOL    HW1 8904   4.160   3.213   7.832  1.0006 -1.0091 -1.6694
 2299SOL    HW2 8905   4.102   3.129   7.720 -2.1153 -0.9298 -0.2327
 2300SOL     OW 8906   1.743   3.764   5.966 -0.2885 -0.4013 -0.5227
 2300SOL    HW1 8907   1.727   3.687   5.912 -1.4044 -0.9107  0.4811
 2300SOL    HW2 8908   1.711   3.838   5.913  0.2532 -0.6760 -1.2477
 2301SOL     OW 8909   4.136   0.486   6.804  0.8534 -0.2166  0.2384
 2301SOL    HW1 8910   4.092   0.439   6.733  0.8023 -0.3859  0.3818
 2301SOL    HW2 8911   4.116   0.435   6.883 -0.6845  0.9627  0.6928
 2302SOL     OW 8912   9.018   2.818   2.595  0.7783  0.2110  0.1178
 2302SOL    HW1 8913   9.029   2.724   2.611  0.7851  0.4106  1.3541
 2302SOL    HW2 8914   9.031   2.827   2.501 -0.6943 -1.2347 -0.2678
 2303SOL     OW 8915   3.492   7.527   7.373  0.0586 -0.3707  0.0820
 2303SOL    HW1 8916   3.545   7.523   7.293 -0.2903 -0.3240 -0.1523
 2303SOL    HW2 8917   3.447   7.443   7.377  0.4693 -0.5712  0.5032
 2304SOL     OW 8918   9.708   5.887  10.794  0.2535  0.2412  0.0019
 2304SOL    HW1 8919   9.638   5.933  10.839 -0.7627 -0.2116 -1.0725
 2304SOL    HW2 8920   9.665   5.841  10.721  1.4495 -1.1775  0.1310
 2305SOL     OW 8921   1.734   8.048   8.539  0.2146  0.4922 -0.4350
 2305SOL    HW1 8922   1.709   8.140   8.540  0.0895  0.4597 -0.6430
 2305SOL    HW2 8923   1.733   8.022   8.631 -1.2264  0.3017 -0.4870
 2306SOL     OW 8924   2.606   0.751   2.784 -0.0519  0.2140  0.4874
 2306SOL    HW1 8925   2.550   0.674   2.790  2.4405 -1.9781 -1.8592
 2306SOL    HW2 8926   2.573   0.800   2.709  0.1545 -0.1869  0.1320
 2307SOL     OW 8927   6.593   1.860   3.492  0.5760 -0.1522  0.8410
 2307SOL    HW1 8928   6.542   1.849   3.411  2.1561 -1.9923  0.0238
 2307SOL    HW2 8929   6.605   1.955   3.499 -1.1685  0.1916 -0.0382
 2308SOL     OW 8930   7.326   1.631   2.782  0.2223 -0.1090  0.7234
 2308SOL    HW1 8931   7.368   1.619   2.697 -0.3198  0.0580  0.4294
 2308SOL    HW2 8932   7.309   1.542   2.813 -0.4568 -0.1596  0.2160
 2309SOL     OW 8933   9.052   1.807   8.742  0.0817 -0.1243  0.0025
 2309SOL    HW1 8934   8.994   1.866   8.695 -0.3084 -1.1692 -0.8694
 2309SOL    HW2 8935   9.129   1.797   8.686  0.4387  0.0538  0.4457
 2310SOL     OW 8936   4.970   0.635   2.422 -0.2025  0.6379 -0.1999
 2310SOL    HW1 8937   4.926   0.578   2.485  3.2420  0.5060  2.3681
 2310SOL    HW2 8938   4.972   0.584   2.341  0.8417 -2.0687  1.4005
 2311SOL     OW 8939  10.198  11.038   0.499 -0.3178 -1.0812 -0.1151
 2311SOL    HW1 8940  10.154  11.102   0.442  1.8287  0.5926 -0.0294
 2311SOL    HW2 8941  10.257  10.991   0.441 -1.5522 -2.7407 -0.0831
 2312SOL     OW 8942   2.217   9.546   7.726  0.6472 -0.3540  0.0142
 2312SOL    HW1 8943   2.186   9.549   7.636  0.3907  2.3264  0.1144
 2312SOL    HW2 8944   2.279   9.473   7.728  0.1249 -0.9117 -2.1308
 2313SOL     OW 8945   9.711   6.927   5.337 -0.3858 -0.5530 -0.4368
 2313SOL    HW1 8946   9.749   6.851   5.380  0.7849 -1.1422 -2.3761
 2313SOL    HW2 8947   9.786   6.983   5.317 -1.1427  0.7424  0.2191
 2314SOL     OW 8948   8.388   2.003   9.695  0.3717 -0.1684 -0.0052
 2314SOL    HW1 8949   8.347   1.954   9.767 -1.3002  1.2009  0.0321
 2314SOL    HW2 8950   8.397   2.092   9.729  0.5430  0.2486 -1.1149
 2315SOL     OW 8951   3.226   8.765   4.766 -0.0209 -0.6286  0.0050
 2315SOL    HW1 8952   3.211   8.802   4.853 -1.1776 -0.7626 -0.1212
 2315SOL    HW2 8953   3.317   8.737   4.767 -0.0041 -0.5738  1.1577
 2316SOL     OW 8954  10.623   8.123   6.346 -0.0260  0.5645 -0.4645
 2316SOL    HW1 8955  10.643   8.213   6.372  0.5422  0.0760  0.8856
 2316SOL    HW2 8956  10.701   8.073   6.371 -1.1369 -0.6539  0.7900
 2317SOL     OW 8957   6.549   9.434   0.217 -0.3952  0.4569 -0.0573
 2317SOL    HW1 8958   6.628   9.434   0.271 -0.8865 -1.4402  0.7589
 2317SOL    HW2 8959   6.582   9.417   0.128  0.2437  1.4596 -0.0262
 2318SOL     OW 8960   3.283   0.711   6.416 -0.2811 -0.2530 -0.0513
 2318SOL    HW1 8961   3.280   0.757   6.500  1.8216  0.9403 -0.5535
 2318SOL    HW2 8962   3.370   0.671   6.414  0.3864  1.1665 -2.3386
 2319SOL     OW 8963  10.576   9.691   1.617  0.3263  0.1312  0.3014
 2319SOL    HW1 8964  10.589   9.754   1.547  1.6483 -0.1442  0.2822
 2319SOL    HW2 8965  10.622   9.728   1.692  0.7766 -0.6040  0.3991
 2320SOL     OW 8966   9.217  10.078   0.174  0.1650 -0.2609 -0.5533
 2320SOL    HW1 8967   9.129  10.108   0.152 -0.3843 -0.1655  1.5417
 2320SOL    HW2 8968   9.275  10.148   0.145 -0.2521 -0.9261 -3.2251
 2321SOL     OW 8969   2.762   7.595  10.178  0.5044  0.4102 -0.3095
 2321SOL    HW1 8970   2.738   7.502  10.174  1.3507  0.1977 -0.5890
 2321SOL    HW2 8971   2.828   7.599  10.248  0.9447  0.6906 -0.7370
 2322SOL     OW 8972   4.035   8.473   2.842  0.1394 -0.5930 -0.5417
 2322SOL    HW1 8973   4.109   8.451   2.898  1.0135  0.9170 -1.0398
 2322SOL    HW2 8974   3.982   8.393   2.839  0.3491 -0.8861  1.9413
 2323SOL     OW 8975   8.460   5.118   5.924 -0.4622  0.5820  0.0467
 2323SOL    HW1 8976   8.487   5.072   5.844  0.0006  3.4106 -1.5615
 2323SOL    HW2 8977   8.536   5.109   5.983  1.0693  2.1183 -1.5696
 2324SOL     OW 8978   5.326   8.459  10.186 -0.2143 -0.4929  0.1102
 2324SOL    HW1 8979   5.268   8.532  10.163  2.3341  1.5418 -0.3700
 2324SOL    HW2 8980   5.374   8.490  10.263 -0.8049 -2.7580  1.4923
 2325SOL     OW 8981   4.450   9.134   4.313  0.0590 -0.3722 -0.3100
 2325SOL    HW1 8982   4.545   9.140   4.303  0.1419 -0.4183  0.3850
 2325SOL    HW2 8983   4.438   9.067   4.381 -0.5812 -2.6273 -2.5119
 2326SOL     OW 8984   4.096   3.522   7.409 -0.4616 -0.4875 -0.1860
 2326SOL    HW1 8985   4.121   3.493   7.497 -0.2408  0.2594  0.0017
 2326SOL    HW2 8986   4.069   3.442   7.364 -1.1021 -0.8053  0.7350
 2327SOL     OW 8987   8.903   3.675  10.459  0.1267 -0.2832 -0.0066
 2327SOL    HW1 8988   8.972   3.623  10.417 -0.1107  0.7700 -1.8218
 2327SOL    HW2 8989   8.951   3.742  10.507  0.3957 -1.2112  1.0720
 2328SOL     OW 8990   1.653   0.018  10.393 -0.4055  0.1856 -0.0049
 2328SOL    HW1 8991   1.591  -0.002  10.324  0.9494 -2.5610 -0.5648
 2328SOL    HW2 8992   1.739   0.017  10.350  0.4050 -0.8699  1.5468
 2329SOL     OW 8993   0.777   6.959   7.563 -0.2193  0.3542  0.6772
 2329SOL    HW1 8994   0.691   6.992   7.587 -0.7542  0.1916 -0.9203
 2329SOL    HW2 8995   0.837   7.032   7.579 -0.9209  1.0597  0.1452
 2330SOL     OW 8996   2.042   2.071   5.305 -0.3035  0.4725  0.5068
 2330SOL    HW1 8997   2.130   2.034   5.298 -0.4992  0.1246 -0.2312
 2330SOL    HW2 8998   1.989   2.019   5.244 -1.2811 -0.1085  1.8146
 2331SOL     OW 8999   1.357   5.235   4.687 -0.1319  0.3432  0.3917
 2331SOL    HW1 9000   1.336   5.264   4.598 -0.4217 -1.6517 -0.2396
 2331SOL    HW2 9001   1.351   5.315   4.740 -1.4258  1.3109 -1.1147
 2332SOL     OW 9002   6.538   0.913   2.008  0.1466 -0.6193 -0.6560
 2332SOL    HW1 9003   6.516   0.823   2.030  0.0801 -0.7883 -1.3748
 2332SOL    HW2 9004   6.622   0.929   2.050 -0.8482 -0.2942  1.2922
 2333SOL     OW 9005   3.922   7.979   7.160 -0.1919  0.1464 -0.3197
 2333SOL    HW1 9006   3.889   7.931   7.085  1.2047  0.8417 -1.4376
 2333SOL    HW2 9007   3.898   8.070   7.143  0.2132  0.3222  0.0166
 2334SOL     OW 9008   2.176   3.907   9.219  0.0968  0.2630  0.1957
 2334SOL    HW1 9009   2.222   3.937   9.141  0.8935 -1.8486 -0.2057
 2334SOL    HW2 9010   2.174   3.984   9.276  1.0763  1.3589 -1.1729
 2335SOL     OW 9011   8.639   4.360   9.628 -0.0706 -0.1627  0.9651
 2335SOL    HW1 9012   8.728   4.325   9.624 -0.3489 -0.7570 -1.1087
 2335SOL    HW2 9013   8.650   4.453   9.645  0.9483 -0.2196  0.6733
 2336SOL     OW 9014  10.576   6.847   9.358  0.6842  0.7712 -0.5111
 2336SOL    HW1 9015  10.535   6.888   9.283  0.3577 -0.1242 -0.8367
 2336SOL    HW2 9016  10.619   6.769   9.323 -0.9913 -0.6683  0.4711
 2337SOL     OW 9017   4.595   1.775   0.969  0.1788 -0.1349  0.5176
 2337SOL    HW1 9018   4.645   1.765   0.889  0.7522  0.0901  0.8414
 2337SOL    HW2 9019   4.613   1.865   0.998 -1.1797  0.2895  0.1302
 2338SOL     OW 9020   0.780   6.875   3.519 -0.3020  0.3570 -0.5258
 2338SOL    HW1 9021   0.780   6.841   3.609 -1.1501  0.8833 -0.3163
 2338SOL    HW2 9022   0.832   6.812   3.470  0.8875  0.4989  0.4935
 2339SOL     OW 9023   9.290   5.302  10.912 -0.3373 -0.1943  0.6058
 2339SOL    HW1 9024   9.325   5.386  10.943 -1.3445 -0.4611  2.6507
 2339SOL    HW2 9025   9.210   5.325  10.865  0.4806  0.1166 -0.6802
 2340SOL     OW 9026  10.372   1.715   3.692 -0.0092 -0.2434  0.6132
 2340SOL    HW1 9027  10.451   1.756   3.658 -0.4217  0.5756  0.6278
 2340SOL    HW2 9028  10.309   1.787   3.701 -0.6282 -0.8176  0.9736
 2341SOL     OW 9029  10.694   3.040   2.062 -0.0719  0.2431  0.1997
 2341SOL    HW1 9030  10.681   3.109   2.128  1.4270  1.2323 -0.4822
 2341SOL    HW2 9031  10.774   3.067   2.015  0.0234 -1.4927 -0.6904
 2342SOL     OW 9032  10.287   1.152   3.309  0.4900  0.9801  0.1970
 2342SOL    HW1 9033  10.306   1.167   3.216  1.6842  0.6119  0.3764
 2342SOL    HW2 9034  10.356   1.199   3.355 -0.0892  1.1443  0.9159
 2343SOL     OW 9035   1.994   5.881   8.705 -0.5730  0.1175 -0.2047
 2343SOL    HW1 9036   2.060   5.813   8.721 -0.0120  0.9725  1.3041
 2343SOL    HW2 9037   1.938   5.878   8.782 -2.3417 -0.5840 -1.4681
 2344SOL     OW 9038   2.597   4.047  10.568  0.5763  0.2512 -0.0231
 2344SOL    HW1 9039   2.546   4.119  10.531  1.0651 -0.3970 -2.1310
 2344SOL    HW2 9040   2.654   4.019  10.496  2.4075 -0.4201  1.6074
 2345SOL     OW 9041   4.644   1.183   1.102 -0.4202  0.2087 -0.9413
 2345SOL    HW1 9042   4.643   1.258   1.162 -0.7125 -0.7057  0.2298
 2345SOL    HW2 9043   4.737   1.167   1.085 -0.1744 -0.9368  1.1448
 2346SOL     OW 9044   0.210   7.512   1.123  0.1809  0.8567 -0.3646
 2346SOL    HW1 9045   0.162   7.482   1.046  1.4801  0.1653 -0.9205
 2346SOL    HW2 9046   0.272   7.576   1.090  0.3746  0.9641  0.1977
 2347SOL     OW 9047   0.791   1.863   7.865 -0.2446 -0.6869 -0.4153
 2347SOL    HW1 9048   0.780   1.931   7.799  2.6992  0.0311 -0.3314
 2347SOL    HW2 9049   0.744   1.787   7.829 -2.5364  0.9516 -1.1024
 2348SOL     OW 9050  10.388   4.663   3.540  0.0829  0.1482  0.0208
 2348SOL    HW1 9051  10.440   4.724   3.592  0.2726  0.2683 -0.3022
 2348SOL    HW2 9052  10.297   4.687   3.558  0.1582  0.5665 -0.1491
 2349SOL     OW 9053   8.077   2.525   0.932  0.1678  0.0953 -0.5176
 2349SOL    HW1 9054   8.157   2.572   0.956  0.4569 -0.1474 -1.0001
 2349SOL    HW2 9055   8.108   2.441   0.897 -0.3635 -1.8364  3.1237
 2350SOL     OW 9056   9.855   5.780   3.896  0.0235 -0.0877  0.5036
 2350SOL    HW1 9057   9.876   5.855   3.841 -1.6830  1.3012  1.6210
 2350SOL    HW2 9058   9.930   5.769   3.954 -0.0364  1.3259  0.8785
 2351SOL     OW 9059   0.851   4.396  10.031 -0.1928  0.5241  0.0786
 2351SOL    HW1 9060   0.928   4.427   9.984  0.4870 -2.3251 -0.8475
 2351SOL    HW2 9061   0.869   4.417  10.123  2.0787 -0.7080 -0.0217
 2352SOL     OW 9062   1.659   4.895   1.427 -0.2338 -0.1558 -0.1967
 2352SOL    HW1 9063   1.692   4.818   1.474  0.7757  0.8402  0.7725
 2352SOL    HW2 9064   1.565   4.895   1.445 -0.4088 -1.6366 -0.9351
 2353SOL     OW 9065   9.747   1.815   5.351  0.5216 -0.5863 -0.4995
 2353SOL    HW1 9066   9.687   1.841   5.281  1.4143 -0.1063 -1.0999
 2353SOL    HW2 9067   9.738   1.720   5.356 -0.1396 -0.5409 -0.7145
 2354SOL     OW 9068   1.573   8.412   7.659  0.6652  0.2422  0.1113
 2354SOL    HW1 9069   1.575   8.507   7.664  0.9769  0.2403  0.0659
 2354SOL    HW2 9070   1.607   8.382   7.743 -0.4737  0.1581  0.5602
 2355SOL     OW 9071   5.847   9.946   6.054 -0.2560 -0.0390 -0.0307
 2355SOL    HW1 9072   5.887   9.873   6.102  1.5311  0.8545 -0.0736
 2355SOL    HW2 9073   5.759   9.954   6.091  0.0980 -1.1637  1.1114
 2356SOL     OW 9074   0.121   8.646   1.585 -0.0561  0.0719 -0.1672
 2356SOL    HW1 9075   0.210   8.611   1.580  0.2232  0.9068 -1.5573
 2356SOL    HW2 9076   0.086   8.633   1.497 -1.4367 -0.5140  0.4371
 2357SOL     OW 9077   2.500   0.179   0.336  0.4232 -0.8494  0.3535
 2357SOL    HW1 9078   2.427   0.225   0.297 -0.6145 -1.2000  1.7941
 2357SOL    HW2 9079   2.569   0.245   0.343 -0.1193 -0.2298 -0.0314
 2358SOL     OW 9080   6.635   4.279  10.415 -0.6676 -0.5044  0.3611
 2358SOL    HW1 9081   6.564   4.219  10.394 -1.0991 -0.5515  1.8693
 2358SOL    HW2 9082   6.684   4.236  10.485 -0.4105  0.4500  0.7908
 2359SOL     OW 9083  10.213   2.185   0.220 -0.3873 -0.2029 -0.0345
 2359SOL    HW1 9084  10.306   2.179   0.245 -0.5270  0.0222  0.5571
 2359SOL    HW2 9085  10.213   2.244   0.145 -0.0720 -0.0233  0.1034
 2360SOL     OW 9086   5.062   1.767   4.711 -0.1546  0.1416 -0.3529
 2360SOL    HW1 9087   5.134   1.729   4.762 -0.4488  0.1928  0.1004
 2360SOL    HW2 9088   5.076   1.734   4.622 -0.2727 -0.8545 -0.0142
 2361SOL     OW 9089   2.566  10.717   6.261  0.0915 -0.4082  0.0808
 2361SOL    HW1 9090   2.545  10.803   6.297 -0.3079 -0.5577  0.2092
 2361SOL    HW2 9091   2.506  10.707   6.187  0.1377 -0.5726  0.0660
 2362SOL     OW 9092  10.023   1.843   7.063  0.3776  0.0079  0.0769
 2362SOL    HW1 9093   9.936   1.808   7.045  0.2404  1.1685 -1.7885
 2362SOL    HW2 9094  10.083   1.773   7.039  0.0072 -0.0544 -0.7048
 2363SOL     OW 9095   0.132   7.220   2.134  0.5232  0.3029  0.1047
 2363SOL    HW1 9096   0.187   7.169   2.073 -1.7861 -2.3377  0.0189
 2363SOL    HW2 9097   0.138   7.310   2.102  1.8596 -0.4703 -2.0986
 2364SOL     OW 9098   2.008   4.623   9.528  0.5755 -0.6866 -0.3533
 2364SOL    HW1 9099   2.085   4.620   9.471 -0.0191  1.0153 -1.3148
 2364SOL    HW2 9100   1.956   4.696   9.495 -1.0449 -1.2442  0.8203
 2365SOL     OW 9101   1.370  10.893   6.722  0.4509  0.2003  0.4112
 2365SOL    HW1 9102   1.393  10.915   6.813  2.4987  0.9432 -0.2327
 2365SOL    HW2 9103   1.395  10.801   6.713 -0.2077 -0.0127  0.7303
 2366SOL     OW 9104   1.692   0.196   7.593 -0.3257  0.2336  0.3348
 2366SOL    HW1 9105   1.610   0.197   7.642 -0.1896 -0.5112  0.5895
 2366SOL    HW2 9106   1.756   0.158   7.654  0.1600  0.5920  0.0591
 2367SOL     OW 9107   2.126   6.554   7.464  0.6388  0.2609 -0.3163
 2367SOL    HW1 9108   2.052   6.540   7.405 -1.0204  0.5294  1.5913
 2367SOL    HW2 9109   2.199   6.577   7.406 -0.6017 -0.5605 -2.3104
 2368SOL     OW 9110   7.748   9.800   2.294  0.1695  0.2598  0.1087
 2368SOL    HW1 9111   7.691   9.873   2.317  1.0023  0.2487  2.4533
 2368SOL    HW2 9112   7.728   9.732   2.358  0.7754 -0.8647 -0.8446
 2369SOL     OW 9113   1.154   5.971   2.849 -0.2562 -0.0786  0.7826
 2369SOL    HW1 9114   1.244   5.983   2.882  0.4001  1.8572 -1.4760
 2369SOL    HW2 9115   1.149   5.878   2.828  1.9873  0.1157 -0.9483
 2370SOL     OW 9116   1.202   1.690  10.699 -0.0893 -0.3555 -0.1136
 2370SOL    HW1 9117   1.281   1.647  10.734 -0.0377 -0.3033 -0.1663
 2370SOL    HW2 9118   1.194   1.771  10.750 -0.1511 -0.3966 -0.0579
 2371SOL     OW 9119   5.148  10.977   8.395  0.8584  0.1034  0.1711
 2371SOL    HW1 9120   5.233  10.970   8.351  0.0682  1.7793 -1.7557
 2371SOL    HW2 9121   5.164  11.036   8.469  0.8097  3.2049 -2.0910
 2372SOL     OW 9122   1.958  11.029   0.381 -0.2750  0.1163  0.1085
 2372SOL    HW1 9123   1.924  11.024   0.471  0.8188 -1.1806  0.4769
 2372SOL    HW2 9124   2.053  11.036   0.392 -0.2753  3.5029 -0.8937
 2373SOL     OW 9125   6.012   8.948   7.760 -0.2748 -0.6882  0.1821
 2373SOL    HW1 9126   5.928   8.988   7.734  1.0623  2.0323 -0.2995
 2373SOL    HW2 9127   6.078   9.000   7.714  1.8429 -0.7518  2.9413
 2374SOL     OW 9128   9.063   1.738   0.730 -0.3034  0.3122  0.0068
 2374SOL    HW1 9129   9.050   1.643   0.726 -1.1019  0.3336  1.2312
 2374SOL    HW2 9130   9.026   1.763   0.815  1.1015  1.5414  0.2974
 2375SOL     OW 9131   6.677   1.605  10.626 -0.5581 -0.0936  0.1097
 2375SOL    HW1 9132   6.731   1.677  10.659  1.2116 -1.0041 -0.6654
 2375SOL    HW2 9133   6.691   1.606  10.531 -0.3168 -1.5948  0.1065
 2376SOL     OW 9134  10.594   3.152   4.829 -0.2578  0.5006 -0.0131
 2376SOL    HW1 9135  10.615   3.110   4.913  4.0135 -0.6804 -1.4106
 2376SOL    HW2 9136  10.557   3.236   4.853  1.0641  0.3488  3.1080
 2377SOL     OW 9137   1.282   0.159   0.949 -0.4709 -0.2488 -0.0644
 2377SOL    HW1 9138   1.226   0.084   0.929  0.3686 -0.7893 -0.4886
 2377SOL    HW2 9139   1.236   0.206   1.018 -0.8762 -1.3279  0.4300
 2378SOL     OW 9140   7.096   2.392  10.633  0.0342 -0.2682 -0.1865
 2378SOL    HW1 9141   7.033   2.446  10.585 -0.9972  0.0939  1.4889
 2378SOL    HW2 9142   7.072   2.302  10.613  0.8158 -0.1562 -1.8023
 2379SOL     OW 9143   6.863   9.022   1.027 -0.4659 -0.1912  0.1148
 2379SOL    HW1 9144   6.789   9.009   1.087 -0.2478 -1.8801  0.0888
 2379SOL    HW2 9145   6.822   9.046   0.944 -0.8248  1.2396  0.6764
 2380SOL     OW 9146   0.721   1.993   6.355  0.5236  0.0594 -0.4755
 2380SOL    HW1 9147   0.680   2.060   6.301 -0.9088 -1.1266 -0.9063
 2380SOL    HW2 9148   0.754   1.929   6.293 -0.9768 -1.2281 -0.0049
 2381SOL     OW 9149   3.244   3.637   7.467  0.1890 -0.5749 -0.0858
 2381SOL    HW1 9150   3.293   3.656   7.547  0.5543 -1.4408 -0.0895
 2381SOL    HW2 9151   3.193   3.559   7.487 -1.3448  0.4007 -0.0378
 2382SOL     OW 9152   4.961   5.124   1.325 -0.3621 -0.6624  0.5344
 2382SOL    HW1 9153   4.890   5.076   1.283 -0.0161 -1.0818  0.4136
 2382SOL    HW2 9154   4.951   5.107   1.418 -0.2808 -0.9243  0.4973
 2383SOL     OW 9155   0.350  10.454   9.080  0.1912  0.3143  0.1304
 2383SOL    HW1 9156   0.388  10.506   9.151  0.2526  2.5899 -1.4700
 2383SOL    HW2 9157   0.415  10.457   9.010 -0.3292 -0.9634 -0.4411
 2384SOL     OW 9158   3.604   8.946   9.329  0.0312  0.3703  0.4923
 2384SOL    HW1 9159   3.526   8.913   9.374  0.8281 -1.1475  0.8521
 2384SOL    HW2 9160   3.670   8.950   9.398 -0.0998  3.2352  0.5598
 2385SOL     OW 9161   6.675   0.597   2.981  0.1247  0.1847  0.1403
 2385SOL    HW1 9162   6.596   0.611   2.930  0.7308 -0.6957 -1.0869
 2385SOL    HW2 9163   6.746   0.626   2.923  0.6337  3.4346  2.1252
 2386SOL     OW 9164   0.234   5.759   7.508 -0.3567 -0.2693  0.1121
 2386SOL    HW1 9165   0.247   5.667   7.528 -1.3887 -1.3731 -3.5913
 2386SOL    HW2 9166   0.311   5.784   7.457 -0.7712  0.5363 -0.1440
 2387SOL     OW 9167   9.135   6.858   6.496 -0.5111 -0.6500  0.2501
 2387SOL    HW1 9168   9.148   6.853   6.591 -2.2402  0.1070  0.5585
 2387SOL    HW2 9169   9.108   6.770   6.471  1.1731 -1.1952  0.2186
 2388SOL     OW 9170  10.467   7.650   9.712 -0.0754  0.5120 -0.1118
 2388SOL    HW1 9171  10.522   7.726   9.732  0.5376 -0.2746  1.3519
 2388SOL    HW2 9172  10.510   7.608   9.638  1.7122 -0.3987  1.3433
 2389SOL     OW 9173   4.570   2.501   0.337 -0.0721  0.3391 -0.3587
 2389SOL    HW1 9174   4.485   2.535   0.364  0.0792 -0.5819  1.4966
 2389SOL    HW2 9175   4.599   2.449   0.412  1.2871 -0.9028 -1.6828
 2390SOL     OW 9176  10.982   9.659   6.730 -0.1297 -0.1941 -0.1976
 2390SOL    HW1 9177  10.935   9.622   6.655  1.0162  0.9630 -1.5312
 2390SOL    HW2 9178  10.973   9.754   6.719  1.8292  0.0443 -0.0667
 2391SOL     OW 9179   7.944   3.468   4.136  0.2359 -0.4453  0.0029
 2391SOL    HW1 9180   8.033   3.448   4.109  0.3149 -0.7539  0.4719
 2391SOL    HW2 9181   7.939   3.437   4.227 -0.1094  0.2653  0.2387
 2392SOL     OW 9182  10.483   8.090   5.251  0.0907  0.9910  0.7887
 2392SOL    HW1 9183  10.566   8.124   5.285  0.2585  0.2179  1.1666
 2392SOL    HW2 9184  10.476   8.128   5.163  1.8500 -0.5335 -0.0697
 2393SOL     OW 9185   0.761   8.964   9.491  0.2340 -0.1387 -0.4762
 2393SOL    HW1 9186   0.760   8.948   9.585  2.0597  1.1049 -0.1932
 2393SOL    HW2 9187   0.822   8.899   9.456  1.6440  1.0861 -0.3863
 2394SOL     OW 9188   4.992   4.711   1.233  0.5605  0.0774  0.7791
 2394SOL    HW1 9189   5.075   4.708   1.281 -0.4651 -1.1158  2.5755
 2394SOL    HW2 9190   4.926   4.720   1.301 -1.0685 -2.8927 -0.2431
 2395SOL     OW 9191   4.377   2.394  10.723 -0.4454  0.0020  0.0955
 2395SOL    HW1 9192   4.412   2.312  10.687  0.0918  0.9976 -1.7684
 2395SOL    HW2 9193   4.325   2.431  10.652  0.8985  2.2310  0.2095
 2396SOL     OW 9194   5.507   0.463   6.598 -0.5487  0.2440 -0.4977
 2396SOL    HW1 9195   5.464   0.430   6.520 -0.6988  0.4345 -0.4971
 2396SOL    HW2 9196   5.436   0.489   6.656 -0.4746 -1.4500  0.4000
 2397SOL     OW 9197   0.692   4.280   0.067  0.3161  1.0725  0.9347
 2397SOL    HW1 9198   0.621   4.251   0.124  0.8097  0.5379  1.2848
 2397SOL    HW2 9199   0.715   4.204   0.015  0.4145  1.3342  0.5896
 2398SOL     OW 9200   0.641   3.339   0.484  0.3492  0.1140 -0.2512
 2398SOL    HW1 9201   0.604   3.290   0.411 -0.0832  1.2656 -0.8331
 2398SOL    HW2 9202   0.572   3.339   0.550  0.2638  0.1187 -0.3396
 2399SOL     OW 9203   4.609  10.556   8.295  0.9166  0.0070 -0.0358
 2399SOL    HW1 9204   4.515  10.571   8.286  0.4035 -2.5922  0.0919
 2399SOL    HW2 9205   4.631  10.592   8.381  0.2508  1.3742 -0.4034
 2400SOL     OW 9206   6.402   0.225   3.499 -0.2320 -0.1845 -0.2644
 2400SOL    HW1 9207   6.345   0.226   3.423  0.3442  0.8022 -0.6976
 2400SOL    HW2 9208   6.345   0.249   3.572 -0.5988 -0.2663 -0.5210
 2401SOL     OW 9209   5.893   7.294   2.723  0.3974 -0.7492  0.5620
 2401SOL    HW1 9210   5.871   7.304   2.630  1.2064 -1.2776  0.3024
 2401SOL    HW2 9211   5.834   7.225   2.754 -1.3711  0.8686  1.0012
 2402SOL     OW 9212   2.166   7.768   9.380  0.3906 -0.1460 -0.7387
 2402SOL    HW1 9213   2.178   7.842   9.439  0.7397 -1.2600  0.6312
 2402SOL    HW2 9214   2.129   7.699   9.435  2.1491 -1.7342 -1.4209
 2403SOL     OW 9215   8.780   1.019   2.967 -0.1609  0.0882 -0.1474
 2403SOL    HW1 9216   8.736   1.093   3.009  1.0601  0.4323  0.5938
 2403SOL    HW2 9217   8.864   1.055   2.937 -0.6058 -0.3857 -2.1038
 2404SOL     OW 9218   9.212   2.609  10.576  0.2341  0.1507  0.0210
 2404SOL    HW1 9219   9.278   2.579  10.639 -2.4527 -1.2022  2.4023
 2404SOL    HW2 9220   9.250   2.689  10.538  3.4494 -0.8862  0.7616
 2405SOL     OW 9221  10.073   4.954   3.064 -0.1174 -0.1543 -0.0495
 2405SOL    HW1 9222  10.038   4.874   3.024 -0.1976  0.3829 -1.0984
 2405SOL    HW2 9223  10.162   4.930   3.092  0.2056 -0.3804 -1.1978
 2406SOL     OW 9224   0.896   3.766   4.059  0.2128 -0.1147 -0.9577
 2406SOL    HW1 9225   0.912   3.821   3.982  0.9581  1.6179  0.3688
 2406SOL    HW2 9226   0.982   3.757   4.101 -0.6699  1.9768  1.5560
 2407SOL     OW 9227  10.666   7.206   4.642 -0.7220  0.2342  0.8202
 2407SOL    HW1 9228  10.685   7.168   4.556 -0.8714 -0.7129  1.1998
 2407SOL    HW2 9229  10.576   7.238   4.634 -0.3204  1.2758  0.2428
 2408SOL     OW 9230   3.578   0.436   0.760  0.5438 -0.2830  0.4570
 2408SOL    HW1 9231   3.662   0.429   0.805  1.0672 -0.0077 -0.4400
 2408SOL    HW2 9232   3.553   0.346   0.742  1.1134 -0.3361 -0.0936
 2409SOL     OW 9233   0.858   5.089   8.056 -0.2288 -0.0428 -0.4474
 2409SOL    HW1 9234   0.872   5.149   8.129  0.4574 -0.8722  0.1270
 2409SOL    HW2 9235   0.809   5.016   8.094  0.3952 -0.6218 -0.7311
 2410SOL     OW 9236   3.302   2.345   7.013 -0.6345 -0.1050  0.6289
 2410SOL    HW1 9237   3.367   2.275   7.019  1.1656  1.4658  0.4313
 2410SOL    HW2 9238   3.265   2.351   7.101  1.4068  0.6589  1.4880
 2411SOL     OW 9239   6.806   3.752   1.696 -0.5673 -0.2837 -0.0385
 2411SOL    HW1 9240   6.711   3.748   1.691 -0.5743 -2.4813  0.9614
 2411SOL    HW2 9241   6.836   3.708   1.617 -0.3606  0.0470 -0.1482
 2412SOL     OW 9242   5.636   4.234   4.405 -0.0642  0.0014  0.4598
 2412SOL    HW1 9243   5.552   4.279   4.401  0.5676  1.1193 -1.2517
 2412SOL    HW2 9244   5.672   4.243   4.317  1.7308 -0.7012  1.0860
 2413SOL     OW 9245   0.612   1.645   8.562 -0.7978  0.2836  0.0807
 2413SOL    HW1 9246   0.648   1.712   8.503  0.5416 -0.1868  0.3128
 2413SOL    HW2 9247   0.664   1.653   8.642 -2.9857  1.3244  1.4916
 2414SOL     OW 9248   4.162   1.237   2.941  0.0566 -0.1044 -0.4152
 2414SOL    HW1 9249   4.067   1.246   2.948  0.0716 -0.6360  0.6463
 2414SOL    HW2 9250   4.194   1.238   3.031  0.8175 -2.2529 -0.5979
 2415SOL     OW 9251   7.819  10.407  11.089  0.7005  0.2119 -0.4630
 2415SOL    HW1 9252   7.783  10.493  11.068  1.7793  0.9136  0.4018
 2415SOL    HW2 9253   7.860  10.419  11.175  1.9665 -0.8312 -0.8943
 2416SOL     OW 9254   1.962   0.324   3.394 -0.0423 -0.1342  0.1812
 2416SOL    HW1 9255   2.056   0.313   3.403 -0.0082 -1.5600 -1.5441
 2416SOL    HW2 9256   1.931   0.241   3.358 -2.0150  0.1936  0.9846
 2417SOL     OW 9257  11.003   4.992   5.523  0.4251  0.4185  0.0139
 2417SOL    HW1 9258  11.086   5.035   5.506  0.8281 -0.2961  0.1432
 2417SOL    HW2 9259  11.000   4.919   5.460 -0.0584  0.3800  0.0722
 2418SOL     OW 9260   0.592   7.677  10.332 -0.1653  0.2051 -0.3935
 2418SOL    HW1 9261   0.614   7.682  10.425 -1.2926 -0.3383 -0.0809
 2418SOL    HW2 9262   0.624   7.591  10.304  1.5041  0.9451 -0.9029
 2419SOL     OW 9263   3.176   4.988  10.893 -0.0721 -0.5763 -0.4265
 2419SOL    HW1 9264   3.183   5.031  10.808  0.3267  1.1088  0.4250
 2419SOL    HW2 9265   3.100   4.931  10.884 -1.3703  1.1907 -1.2356
 2420SOL     OW 9266   7.606   6.780   5.682  0.4817  0.3931  0.4250
 2420SOL    HW1 9267   7.569   6.868   5.676 -2.4666 -0.6393  1.8706
 2420SOL    HW2 9268   7.593   6.742   5.596  0.0932  0.7479  0.3280
 2421SOL     OW 9269   0.724   5.761   5.399  0.1960  0.2867 -0.0450
 2421SOL    HW1 9270   0.791   5.699   5.370 -1.3870 -0.5708 -2.1135
 2421SOL    HW2 9271   0.645   5.708   5.408 -0.7577  1.6675  0.0029
 2422SOL     OW 9272   9.912   9.090   0.498  0.1470  0.1312 -0.1129
 2422SOL    HW1 9273   9.869   9.060   0.578 -1.2075  0.0633 -0.8232
 2422SOL    HW2 9274   9.891   9.023   0.433  1.8808 -0.2091 -0.3678
 2423SOL     OW 9275   7.190   5.586   1.860 -0.7175 -0.2142 -0.3356
 2423SOL    HW1 9276   7.232   5.508   1.895 -1.7132 -0.4704  0.3347
 2423SOL    HW2 9277   7.261   5.636   1.819 -0.1190 -1.6196 -1.0846
 2424SOL     OW 9278  10.779   2.791   6.173  0.0668 -0.3212  0.0084
 2424SOL    HW1 9279  10.685   2.784   6.156 -0.0044 -0.4231  0.4321
 2424SOL    HW2 9280  10.819   2.794   6.086 -0.4507  1.4514 -0.2175
 2425SOL     OW 9281   6.628   3.347   2.780  0.2442 -0.6592  0.7804
 2425SOL    HW1 9282   6.683   3.361   2.703  0.8074  0.7842  1.4061
 2425SOL    HW2 9283   6.559   3.287   2.750  0.0397  0.4163 -1.0383
 2426SOL     OW 9284   9.591  10.987   0.019  0.1826  0.0775 -0.4523
 2426SOL    HW1 9285   9.599  11.032  -0.066  0.3040  0.8982 -0.0143
 2426SOL    HW2 9286   9.497  10.990   0.039  0.4875  3.0740  1.0955
 2427SOL     OW 9287  10.520   2.663   2.579  0.3490  0.0094  0.5283
 2427SOL    HW1 9288  10.526   2.682   2.485  0.8374 -2.1266  0.0902
 2427SOL    HW2 9289  10.591   2.714   2.618  1.4112 -0.5984 -0.5368
 2428SOL     OW 9290   8.770   5.986   6.124  0.1052  0.3224  0.2986
 2428SOL    HW1 9291   8.722   5.937   6.057  0.4942  0.1457  0.1449
 2428SOL    HW2 9292   8.808   5.918   6.180  0.8614  0.4406 -0.0618
 2429SOL     OW 9293   7.318   8.556   0.419 -0.1948 -0.1045  0.0633
 2429SOL    HW1 9294   7.248   8.595   0.472 -0.4974 -1.2723  0.5610
 2429SOL    HW2 9295   7.355   8.629   0.370  0.4289  1.1202  2.2468
 2430SOL     OW 9296   7.895   9.138   9.147 -0.7000 -0.3244  0.0696
 2430SOL    HW1 9297   7.988   9.157   9.152 -1.0930  2.2618 -0.9938
 2430SOL    HW2 9298   7.863   9.151   9.237 -0.2228 -0.0547  0.2028
 2431SOL     OW 9299  10.654   1.141   2.575 -0.5602  0.0884 -0.3611
 2431SOL    HW1 9300  10.692   1.151   2.487 -0.3193 -0.7726 -0.3661
 2431SOL    HW2 9301  10.730   1.144   2.633 -0.6979  0.4339 -0.1973
 2432SOL     OW 9302  10.518   5.967   8.398  0.4448 -0.4398  0.5264
 2432SOL    HW1 9303  10.560   6.017   8.328  0.4562 -2.0404 -0.6801
 2432SOL    HW2 9304  10.589   5.947   8.459  0.9426 -0.9648 -0.1982
 2433SOL     OW 9305   2.511   4.142   9.079  0.6288 -0.2882 -0.0304
 2433SOL    HW1 9306   2.595   4.134   9.124  0.0973 -0.7831  0.9081
 2433SOL    HW2 9307   2.499   4.236   9.067  1.6613 -0.2534 -0.8594
 2434SOL     OW 9308   2.730  10.247   5.940 -0.2437 -0.1242  0.9005
 2434SOL    HW1 9309   2.662  10.216   6.001 -0.3108 -2.0840 -0.0810
 2434SOL    HW2 9310   2.695  10.225   5.854  0.9390  0.3502  0.2894
 2435SOL     OW 9311   7.862   1.517   7.866  0.6539  0.2135  0.0328
 2435SOL    HW1 9312   7.914   1.593   7.842 -0.0208  0.9555  0.8689
 2435SOL    HW2 9313   7.892   1.493   7.954  1.0171 -0.6383 -0.3070
 2436SOL     OW 9314   8.499   4.457   5.289 -0.5603 -0.1376 -0.1063
 2436SOL    HW1 9315   8.499   4.403   5.209  1.1064 -2.2730  1.2421
 2436SOL    HW2 9316   8.590   4.457   5.318 -0.5748  3.0998  0.2594
 2437SOL     OW 9317   7.197   0.584   7.293 -0.0010  0.2859 -0.1390
 2437SOL    HW1 9318   7.120   0.579   7.349  2.0517 -1.6286  2.7643
 2437SOL    HW2 9319   7.256   0.645   7.338  0.4709  1.2858 -2.0068
 2438SOL     OW 9320   4.861  11.002   7.793 -0.0016  0.1151 -0.0568
 2438SOL    HW1 9321   4.801  11.060   7.745 -0.1536 -0.1216 -0.1533
 2438SOL    HW2 9322   4.841  11.017   7.885 -0.2721 -0.0347 -0.0928
 2439SOL     OW 9323  10.226   3.621   4.006 -0.0235 -0.6720 -0.4972
 2439SOL    HW1 9324  10.279   3.693   3.972  1.3990 -1.3710  0.1569
 2439SOL    HW2 9325  10.142   3.662   4.030  0.9047  0.8585  0.2833
 2440SOL     OW 9326   9.070   3.545   7.065 -0.3183  0.1141 -0.1315
 2440SOL    HW1 9327   8.979   3.515   7.070  0.0164 -0.9443 -0.1833
 2440SOL    HW2 9328   9.116   3.492   7.129  0.5864 -0.5928 -1.3328
 2441SOL     OW 9329   1.592   2.721   2.957 -0.6025 -0.2342 -0.1442
 2441SOL    HW1 9330   1.611   2.776   2.882  1.4907  1.7805  1.7155
 2441SOL    HW2 9331   1.573   2.782   3.028 -0.5875 -1.9581  1.4286
 2442SOL     OW 9332   0.935   1.418   7.815 -0.2108 -0.3754 -0.6493
 2442SOL    HW1 9333   0.955   1.484   7.749  0.0373  0.8941  0.6370
 2442SOL    HW2 9334   0.990   1.442   7.890 -2.0233 -0.5023  0.7845
 2443SOL     OW 9335   1.745   6.390   0.168  0.8455 -0.4174 -0.8990
 2443SOL    HW1 9336   1.836   6.368   0.146  0.7443 -1.4337 -0.3188
 2443SOL    HW2 9337   1.744   6.396   0.263 -0.1195 -2.4562 -0.7335
 2444SOL     OW 9338   2.153   3.676   8.576 -0.2709 -0.0838 -0.4112
 2444SOL    HW1 9339   2.107   3.722   8.506 -0.4913 -0.1895 -0.3369
 2444SOL    HW2 9340   2.151   3.584   8.550  1.2292  0.0560 -1.1729
 2445SOL     OW 9341   7.860   4.021   9.813 -0.0414 -0.4052  0.2318
 2445SOL    HW1 9342   7.885   3.960   9.882 -0.1553  1.3320  1.8661
 2445SOL    HW2 9343   7.766   4.033   9.825  0.1824  1.0061  0.7132
 2446SOL     OW 9344   0.359   8.049   9.712 -0.1462  0.2699 -0.2384
 2446SOL    HW1 9345   0.326   8.133   9.745  0.3758  0.4713 -0.2128
 2446SOL    HW2 9346   0.322   8.042   9.624  0.1930  0.7597 -0.4237
 2447SOL     OW 9347   1.981   9.867   2.132 -0.7183 -0.3532  0.0727
 2447SOL    HW1 9348   2.020   9.780   2.120 -1.7024 -0.7684 -0.1941
 2447SOL    HW2 9349   2.039   9.926   2.086 -0.7272 -1.0416 -0.8465
 2448SOL     OW 9350   9.075   2.327   8.533 -0.7655 -0.3939  0.3327
 2448SOL    HW1 9351   9.065   2.415   8.497  0.5626 -0.2890  0.1476
 2448SOL    HW2 9352   9.113   2.276   8.461 -1.7614 -1.2022  0.3499
 2449SOL     OW 9353   6.244   1.424   0.671  0.4082 -0.3384  0.0408
 2449SOL    HW1 9354   6.312   1.357   0.662  0.8104 -0.0440  0.8215
 2449SOL    HW2 9355   6.251   1.454   0.762  2.8442  3.4554 -1.1073
 2450SOL     OW 9356   5.236   2.219   3.986 -0.1171 -0.2475 -0.0837
 2450SOL    HW1 9357   5.288   2.148   4.023 -1.8301 -1.2656  0.4649
 2450SOL    HW2 9358   5.161   2.176   3.945 -1.1248  1.2070  0.1359
 2451SOL     OW 9359   3.654   4.650   2.978 -0.6063  0.1699 -0.1246
 2451SOL    HW1 9360   3.580   4.622   3.032 -0.1881  0.2215  0.4781
 2451SOL    HW2 9361   3.614   4.680   2.897 -1.4035  1.8783  0.8526
 2452SOL     OW 9362   4.456  10.268   2.541  0.4304 -0.4203  0.3235
 2452SOL    HW1 9363   4.523  10.314   2.490  0.2822  0.3178  0.7850
 2452SOL    HW2 9364   4.374  10.309   2.515  0.3466 -0.0753  1.1032
 2453SOL     OW 9365   4.606  10.125   4.604  0.6260  0.3383  0.1629
 2453SOL    HW1 9366   4.529  10.161   4.560  0.3089 -1.6366 -1.0227
 2453SOL    HW2 9367   4.617  10.179   4.682 -2.0630  0.6080  0.4337
 2454SOL     OW 9368   8.229   3.313  10.949 -0.2700  0.2382 -0.1707
 2454SOL    HW1 9369   8.324   3.311  10.961  0.4503  4.6933 -2.8475
 2454SOL    HW2 9370   8.195   3.354  11.029  0.3168  0.2452  0.0745
 2455SOL     OW 9371   1.750   0.962   2.333  0.2906 -0.1550  0.2859
 2455SOL    HW1 9372   1.791   0.972   2.247  0.0426  0.3333  0.2212
 2455SOL    HW2 9373   1.812   1.000   2.394  0.6693 -0.9067  0.3801
 2456SOL     OW 9374   1.865   9.251   8.096  0.6408 -0.7037  0.0831
 2456SOL    HW1 9375   1.901   9.178   8.147 -0.3273 -0.1168  1.6796
 2456SOL    HW2 9376   1.815   9.208   8.027 -0.0777 -1.5904  1.1062
 2457SOL     OW 9377   6.376   5.859   3.856 -0.1441 -0.0286 -0.1201
 2457SOL    HW1 9378   6.305   5.861   3.920  0.8101 -0.0847  0.9757
 2457SOL    HW2 9379   6.448   5.906   3.899  0.1033  1.1209 -1.6908
 2458SOL     OW 9380   2.099   7.670   0.893 -0.0755  0.4402 -0.2901
 2458SOL    HW1 9381   2.034   7.649   0.826  1.3158  0.1203 -1.5948
 2458SOL    HW2 9382   2.111   7.765   0.885 -0.4137  0.5108 -0.0003
 2459SOL     OW 9383   2.341   1.653   9.944 -0.2159 -0.2439  0.3881
 2459SOL    HW1 9384   2.338   1.746   9.968  0.3265 -0.3832  1.0395
 2459SOL    HW2 9385   2.274   1.613   9.998 -0.8759 -0.1460 -0.3423
 2460SOL     OW 9386   7.173   8.850   3.736 -0.6507 -0.0257 -0.3493
 2460SOL    HW1 9387   7.082   8.837   3.707 -0.6565  0.3245 -0.4865
 2460SOL    HW2 9388   7.225   8.840   3.657 -0.5880 -0.0049 -0.3103
 2461SOL     OW 9389   3.563   0.302   7.455  0.2854 -0.6119 -0.7310
 2461SOL    HW1 9390   3.492   0.276   7.397  0.6294 -0.8745 -1.0370
 2461SOL    HW2 9391   3.631   0.235   7.443  0.4724 -0.5178 -0.2349
 2462SOL     OW 9392   0.242   9.675  10.476 -0.4353 -0.1851  0.1107
 2462SOL    HW1 9393   0.216   9.612  10.409 -0.7750  1.5227 -1.4803
 2462SOL    HW2 9394   0.164   9.689  10.529 -0.3525 -1.0834  0.4771
 2463SOL     OW 9395  10.089   2.635   8.240 -0.2240 -0.2597  0.1747
 2463SOL    HW1 9396  10.045   2.551   8.253 -0.6699  0.0154  0.4448
 2463SOL    HW2 9397  10.069   2.686   8.318  1.0227 -0.3166  0.5522
 2464SOL     OW 9398  10.746   1.192  10.482  0.1282  0.1241  0.5130
 2464SOL    HW1 9399  10.800   1.144  10.420  1.1505 -1.2720  2.3696
 2464SOL    HW2 9400  10.806   1.255  10.523 -0.6694  1.4461 -0.2660
 2465SOL     OW 9401   4.596   3.264   3.056  0.2620 -0.4769  0.4728
 2465SOL    HW1 9402   4.662   3.331   3.038 -0.3117 -0.2043 -0.7632
 2465SOL    HW2 9403   4.551   3.295   3.135 -1.7314  2.0476 -1.4694
 2466SOL     OW 9404   4.272   9.735   7.145 -0.4166 -0.2832  0.4610
 2466SOL    HW1 9405   4.267   9.762   7.237 -1.9738 -0.8397  0.5696
 2466SOL    HW2 9406   4.181   9.729   7.117 -0.0366 -2.0660 -0.5274
 2467SOL     OW 9407   2.171   0.398   1.085 -0.2099  0.3472  0.4322
 2467SOL    HW1 9408   2.103   0.412   1.151  0.0208  0.1684  0.7121
 2467SOL    HW2 9409   2.237   0.464   1.104 -0.8888  1.3643 -0.6419
 2468SOL     OW 9410   8.390   0.039   1.347 -0.1198 -0.1009 -0.0750
 2468SOL    HW1 9411   8.408   0.099   1.274 -0.6188  0.6353  0.4020
 2468SOL    HW2 9412   8.313  -0.010   1.319  1.2918 -1.8067 -1.2279
 2469SOL     OW 9413   4.245   3.480   8.567 -0.1999 -0.1000  0.1298
 2469SOL    HW1 9414   4.207   3.407   8.616  2.5195  1.1376  4.6531
 2469SOL    HW2 9415   4.327   3.445   8.531 -0.1645  0.0803  0.0315
 2470SOL     OW 9416   1.891   7.544   5.802 -0.3861  0.2174  0.0523
 2470SOL    HW1 9417   1.958   7.478   5.782 -2.6481 -1.9599 -0.8409
 2470SOL    HW2 9418   1.853   7.566   5.717  0.3439  2.8152  0.3238
 2471SOL     OW 9419   1.509   3.077   7.665  0.2144  0.2281 -0.6193
 2471SOL    HW1 9420   1.419   3.098   7.688  0.1887 -0.8790  0.3689
 2471SOL    HW2 9421   1.562   3.116   7.735  0.4571  0.3074 -0.8429
 2472SOL     OW 9422  10.077  10.014   1.771  0.1369 -0.0849 -0.2776
 2472SOL    HW1 9423  10.094  10.082   1.836  0.6132 -1.0436  0.6287
 2472SOL    HW2 9424  10.151   9.954   1.779  1.8419  1.2566 -3.7819
 2473SOL     OW 9425   6.077   5.802   0.147 -0.2773 -0.3908  0.4692
 2473SOL    HW1 9426   6.082   5.855   0.226 -0.4752 -2.0444  1.6497
 2473SOL    HW2 9427   5.983   5.794   0.129 -0.2213  0.3410 -0.2186
 2474SOL     OW 9428   0.398   2.903   8.891 -0.1623 -0.2065  0.5495
 2474SOL    HW1 9429   0.380   2.992   8.861 -0.7574 -0.9815 -1.6380
 2474SOL    HW2 9430   0.473   2.912   8.949 -0.6153  1.7853  0.9077
 2475SOL     OW 9431   2.967   3.438   2.202  0.5403 -0.0331  0.2131
 2475SOL    HW1 9432   2.931   3.508   2.148 -4.0084 -1.2232  1.2674
 2475SOL    HW2 9433   2.986   3.367   2.140  0.2896  0.3569 -0.3130
 2476SOL     OW 9434   1.863   2.823   9.752  0.0713 -0.0510  0.2458
 2476SOL    HW1 9435   1.873   2.871   9.834 -1.0003  1.2781 -0.3586
 2476SOL    HW2 9436   1.903   2.879   9.686 -1.1084 -0.0120 -0.4672
 2477SOL     OW 9437   3.520   9.361   1.612  0.7572 -0.6851 -0.7524
 2477SOL    HW1 9438   3.601   9.341   1.565  1.2713 -3.2893  1.0973
 2477SOL    HW2 9439   3.533   9.327   1.700 -2.4135 -1.3594 -0.4199
 2478SOL     OW 9440   5.266   9.870   9.021  0.0560 -0.1675  0.1362
 2478SOL    HW1 9441   5.297   9.959   9.008 -0.9942  0.2839  0.5705
 2478SOL    HW2 9442   5.252   9.836   8.933  0.9527 -0.1006 -0.0444
 2479SOL     OW 9443   4.072   6.709   9.923  0.1342  0.1562  0.1632
 2479SOL    HW1 9444   4.074   6.636   9.861  1.3033  1.6938 -1.7221
 2479SOL    HW2 9445   4.042   6.784   9.872  0.2916  1.3112  1.6827
 2480SOL     OW 9446   8.472   4.818   0.186  0.2007  0.2102  0.0108
 2480SOL    HW1 9447   8.412   4.785   0.119 -0.8069  0.6518  0.6783
 2480SOL    HW2 9448   8.548   4.848   0.136 -0.8505  1.2451 -1.0261
 2481SOL     OW 9449  11.001   2.264   6.025  0.2434 -0.5071 -0.2542
 2481SOL    HW1 9450  11.096   2.267   6.010  0.1002  1.0037 -1.0878
 2481SOL    HW2 9451  10.974   2.178   5.992  1.3819 -1.1631  0.4644
 2482SOL     OW 9452   3.132   8.860   8.785  0.1126 -0.2262 -0.0997
 2482SOL    HW1 9453   3.157   8.931   8.845  0.7636 -0.4303 -0.1175
 2482SOL    HW2 9454   3.211   8.806   8.779 -0.6642 -1.4861  0.6459
 2483SOL     OW 9455   3.037   3.500   2.780 -0.7724 -0.0193 -0.3845
 2483SOL    HW1 9456   3.026   3.575   2.838  0.2636  1.7065 -2.2570
 2483SOL    HW2 9457   2.958   3.447   2.792 -2.4276  2.3333 -0.2882
 2484SOL     OW 9458   0.834   1.934   7.426 -0.8017  0.0038  0.3367
 2484SOL    HW1 9459   0.866   1.870   7.363 -1.8116  0.7361 -0.9675
 2484SOL    HW2 9460   0.836   2.017   7.379 -2.4333  0.4282  0.9382
 2485SOL     OW 9461   7.864   3.056   1.589  0.0445  0.1461 -0.1313
 2485SOL    HW1 9462   7.796   3.026   1.649 -0.1264  1.6850  0.4803
 2485SOL    HW2 9463   7.946   3.039   1.636 -0.0411  0.4398  0.1282
 2486SOL     OW 9464   2.559   9.915  10.880  0.0557  0.2067  0.0908
 2486SOL    HW1 9465   2.534   9.921  10.972 -0.5762  0.1166 -0.0696
 2486SOL    HW2 9466   2.509   9.841  10.847  2.0847 -1.3330  0.2505
 2487SOL     OW 9467   0.324   4.781   0.110 -0.3395 -0.0316 -0.5374
 2487SOL    HW1 9468   0.304   4.706   0.055  0.0804 -0.1464 -0.5403
 2487SOL    HW2 9469   0.296   4.857   0.059  0.2093 -0.1267 -0.9828
 2488SOL     OW 9470   4.633  10.983   3.130 -0.7639 -0.1921 -0.6499
 2488SOL    HW1 9471   4.644  10.956   3.039 -0.8221  1.2784 -1.1228
 2488SOL    HW2 9472   4.585  11.066   3.125  1.8324  1.5465  0.4837
 2489SOL     OW 9473   8.923   9.434   3.733  1.0199 -0.3998 -0.5020
 2489SOL    HW1 9474   8.977   9.513   3.732 -0.6725  1.0207  2.6773
 2489SOL    HW2 9475   8.833   9.467   3.727  0.3130 -2.3022 -1.1811
 2490SOL     OW 9476   3.741   2.703   9.051  0.0540  0.6514  0.6463
 2490SOL    HW1 9477   3.743   2.655   8.968  1.0388 -1.4056  1.7780
 2490SOL    HW2 9478   3.659   2.676   9.092  1.2076 -1.2081  1.8606
 2491SOL     OW 9479   4.230   7.916   4.073 -0.2198  0.1303  0.2718
 2491SOL    HW1 9480   4.193   7.969   4.002 -2.0890 -2.4738 -0.8506
 2491SOL    HW2 9481   4.284   7.851   4.029 -1.4176 -1.5339  1.1385
 2492SOL     OW 9482   7.922   4.700   1.509  0.1582 -0.1116  0.3098
 2492SOL    HW1 9483   7.940   4.702   1.603  0.1813 -0.2202  0.3086
 2492SOL    HW2 9484   7.921   4.606   1.487 -0.4160 -0.1105  0.3125
 2493SOL     OW 9485   4.319   0.733  10.080  0.1884  1.2891  0.5096
 2493SOL    HW1 9486   4.227   0.754  10.099 -0.0909  0.5613 -0.0121
 2493SOL    HW2 9487   4.327   0.640  10.101  0.5182  1.0803 -0.5001
 2494SOL     OW 9488   9.548   4.570  10.901 -0.1029 -0.4212 -0.2349
 2494SOL    HW1 9489   9.530   4.483  10.937 -0.6692 -0.7818 -1.3531
 2494SOL    HW2 9490   9.463   4.603  10.874 -0.4917  1.9861  3.2812
 2495SOL     OW 9491   5.502   4.936   1.082 -0.1122  0.8912 -0.1240
 2495SOL    HW1 9492   5.535   4.903   1.166  0.2497 -1.6731 -1.1944
 2495SOL    HW2 9493   5.581   4.955   1.032 -0.2537 -0.4155 -0.8899
 2496SOL     OW 9494  10.909   3.634   0.337  0.0649 -0.1631  0.9036
 2496SOL    HW1 9495  10.916   3.607   0.246 -0.7401  0.0383  0.7723
 2496SOL    HW2 9496  10.898   3.552   0.386 -3.4412 -0.1459  0.4038
 2497SOL     OW 9497   7.035   2.960   9.563  0.0040 -0.5321  0.2920
 2497SOL    HW1 9498   7.011   2.910   9.485 -0.1050 -0.0183 -0.0100
 2497SOL    HW2 9499   7.039   2.895   9.633  0.1838 -1.0091 -0.1571
 2498SOL     OW 9500   5.085   2.441   6.041 -0.0198 -0.0401  0.6669
 2498SOL    HW1 9501   5.075   2.412   6.132 -4.1758 -0.0354  0.3941
 2498SOL    HW2 9502   5.065   2.364   5.988  0.3426  0.4677 -0.2348
 2499SOL     OW 9503   1.993  10.145   1.395  0.2997 -0.5303 -0.3803
 2499SOL    HW1 9504   2.016  10.151   1.302  0.9299 -1.5046 -0.3025
 2499SOL    HW2 9505   2.075  10.161   1.441 -0.3341  1.6313  0.0802
 2500SOL     OW 9506   9.565   8.870   3.712 -0.3481 -0.2817 -0.1576
 2500SOL    HW1 9507   9.547   8.939   3.775 -0.5419 -1.1295  0.7350
 2500SOL    HW2 9508   9.596   8.916   3.634 -1.7578  0.8858 -0.0646
 2501SOL     OW 9509   7.791   5.801   0.669 -0.3291  0.0955 -0.4063
 2501SOL    HW1 9510   7.744   5.727   0.709  0.9426 -0.5110  0.0508
 2501SOL    HW2 9511   7.751   5.879   0.707  0.4661 -0.4470  1.7098
 2502SOL     OW 9512   7.817   8.926  10.701 -0.3117 -0.6225  0.0513
 2502SOL    HW1 9513   7.764   8.848  10.691 -0.4410 -0.6244  0.6854
 2502SOL    HW2 9514   7.907   8.894  10.701 -0.3672 -0.7790  0.3779
 2503SOL     OW 9515  10.270   2.319   4.586  0.5042 -0.1582 -0.1319
 2503SOL    HW1 9516  10.301   2.243   4.538 -1.3043 -0.6266 -0.6389
 2503SOL    HW2 9517  10.332   2.330   4.658  1.0490 -1.8282 -0.3183
 2504SOL     OW 9518   5.128   7.695   7.549 -0.0869  0.2397 -0.0833
 2504SOL    HW1 9519   5.055   7.757   7.551  0.2811  0.8344 -2.4846
 2504SOL    HW2 9520   5.205   7.749   7.530  0.7986 -0.5689  1.0267
 2505SOL     OW 9521   8.714   7.875   9.015 -0.1158  0.2613 -0.0441
 2505SOL    HW1 9522   8.657   7.926   8.956 -0.0595  2.6505  1.7974
 2505SOL    HW2 9523   8.653   7.825   9.070 -0.2345 -0.4288 -0.7805
 2506SOL     OW 9524   6.900   2.767   0.282  0.3897 -0.2735  0.0708
 2506SOL    HW1 9525   6.954   2.725   0.215  2.2040 -0.5235  1.5875
 2506SOL    HW2 9526   6.847   2.831   0.235  1.4576 -0.5737 -1.5958
 2507SOL     OW 9527   5.568   5.372   1.124 -0.3506 -0.3404  0.3567
 2507SOL    HW1 9528   5.643   5.312   1.124  0.2599  0.3921  1.4173
 2507SOL    HW2 9529   5.493   5.316   1.107  0.2119 -1.4023  1.2165
 2508SOL     OW 9530   3.502   5.587   4.332 -0.1180 -0.2486 -0.0721
 2508SOL    HW1 9531   3.448   5.523   4.378  0.0200  0.4520  1.1138
 2508SOL    HW2 9532   3.586   5.543   4.320 -0.7351 -1.1221 -1.3805
 2509SOL     OW 9533   0.387   5.611   0.392  0.9682 -0.0407 -0.6793
 2509SOL    HW1 9534   0.387   5.694   0.440  1.1988 -0.0384 -0.6851
 2509SOL    HW2 9535   0.302   5.571   0.414  1.2580 -0.2490  0.0847
 2510SOL     OW 9536  10.043   2.307   3.360  0.0964 -0.2819 -0.1444
 2510SOL    HW1 9537  10.022   2.381   3.417 -0.6602 -1.5471  1.2621
 2510SOL    HW2 9538   9.975   2.310   3.292 -0.4802 -0.2009  0.4221
 2511SOL     OW 9539   7.504   4.776   9.594 -0.1007 -0.0862  0.6627
 2511SOL    HW1 9540   7.560   4.831   9.648 -0.0887 -1.7845  2.4938
 2511SOL    HW2 9541   7.545   4.689   9.595 -0.8387 -0.5118 -0.9830
 2512SOL     OW 9542   8.365   6.550   6.338 -0.3523  0.1167  0.2863
 2512SOL    HW1 9543   8.312   6.604   6.396  0.1502  3.1235 -1.8304
 2512SOL    HW2 9544   8.365   6.463   6.379 -1.4208  1.6027  3.7833
 2513SOL     OW 9545   1.933   0.958   1.307 -0.0252  0.3084  0.1396
 2513SOL    HW1 9546   1.913   1.049   1.331 -1.9817 -0.1969  0.5315
 2513SOL    HW2 9547   1.966   0.919   1.388 -1.0697  0.1675  0.5152
 2514SOL     OW 9548   5.673   2.247   0.297  0.1294 -0.4418 -0.3632
 2514SOL    HW1 9549   5.751   2.294   0.327 -0.9716  0.4235  1.2620
 2514SOL    HW2 9550   5.669   2.266   0.203  1.4212  0.1406 -0.3286
 2515SOL     OW 9551   5.409   2.381   2.993  0.0621 -0.0709 -0.0751
 2515SOL    HW1 9552   5.330   2.355   2.946 -0.1381  2.5508 -1.3641
 2515SOL    HW2 9553   5.405   2.333   3.076 -2.9752  0.1140 -0.0196
 2516SOL     OW 9554   5.747   5.575   0.331 -0.3123  0.0099  0.1791
 2516SOL    HW1 9555   5.794   5.631   0.393  0.6229  0.3559 -0.8100
 2516SOL    HW2 9556   5.688   5.634   0.285 -1.0196 -0.2500  0.7325
 2517SOL     OW 9557   9.131   8.400   1.330  0.7319  0.2955 -0.1217
 2517SOL    HW1 9558   9.189   8.475   1.320 -1.0641  1.6288 -1.0830
 2517SOL    HW2 9559   9.063   8.412   1.263 -1.1795 -0.6825  1.5209
 2518SOL     OW 9560   1.972   5.433   3.832  0.0669  0.7337  0.3950
 2518SOL    HW1 9561   2.050   5.451   3.779 -0.7321  1.5041 -0.5504
 2518SOL    HW2 9562   1.992   5.472   3.917  1.7120 -1.2702  1.0126
 2519SOL     OW 9563   7.068   5.837  10.371  0.1655 -0.0839 -0.0821
 2519SOL    HW1 9564   7.095   5.769  10.309 -0.8279 -1.1681  0.6202
 2519SOL    HW2 9565   7.006   5.890  10.321  0.0183 -0.4414 -0.2918
 2520SOL     OW 9566   5.911   1.506   6.023 -0.0316 -0.8451 -0.9209
 2520SOL    HW1 9567   5.994   1.541   6.055 -0.6921  0.0431 -0.0735
 2520SOL    HW2 9568   5.916   1.511   5.928  1.1679 -1.5314 -0.9070
 2521SOL     OW 9569   2.239   7.507  10.412  0.2170  0.4967  0.1258
 2521SOL    HW1 9570   2.164   7.542  10.364  1.0404  0.4943 -1.2153
 2521SOL    HW2 9571   2.284   7.450  10.350  2.1014  1.5611  0.4089
 2522SOL     OW 9572   4.293   1.155   8.017  0.3517  0.1065 -0.4449
 2522SOL    HW1 9573   4.224   1.157   8.083  1.7697  0.3196  1.0809
 2522SOL    HW2 9574   4.295   1.064   7.987  0.3183 -0.2126  0.4949
 2523SOL     OW 9575   0.181   2.204   6.035 -0.4171  0.6557  0.4627
 2523SOL    HW1 9576   0.227   2.152   5.969 -0.1564  0.5309  0.7419
 2523SOL    HW2 9577   0.224   2.181   6.118 -2.5603 -1.3478  1.1129
 2524SOL     OW 9578   1.056   3.670   2.731 -0.1580 -0.1567 -0.0762
 2524SOL    HW1 9579   1.084   3.757   2.763  0.3989  0.3887 -1.9406
 2524SOL    HW2 9580   1.138   3.624   2.714 -0.4553 -0.6353 -0.2247
 2525SOL     OW 9581   2.796   3.617  10.592  0.7476 -0.2799 -0.0953
 2525SOL    HW1 9582   2.848   3.574  10.524  0.4343 -0.4840 -0.2066
 2525SOL    HW2 9583   2.807   3.561  10.669 -2.1242 -2.3488 -1.0235
 2526SOL     OW 9584   4.171   1.634   2.759 -0.4476 -0.0683  0.2050
 2526SOL    HW1 9585   4.176   1.730   2.767 -1.8156  0.1012 -0.5277
 2526SOL    HW2 9586   4.221   1.614   2.680  1.9732 -0.2840  1.6921
 2527SOL     OW 9587   4.505   3.792   7.954  0.0956  0.4874 -0.1713
 2527SOL    HW1 9588   4.524   3.865   8.013  0.9673 -0.1415  0.3491
 2527SOL    HW2 9589   4.589   3.768   7.917 -0.1453 -0.3826 -0.1752
 2528SOL     OW 9590   4.079   1.493   6.888  0.0981 -0.3101  0.2245
 2528SOL    HW1 9591   4.021   1.554   6.932  1.2939  1.2805 -0.2953
 2528SOL    HW2 9592   4.148   1.475   6.952  2.5835  3.0668 -1.2232
 2529SOL     OW 9593   5.533   1.163   8.721 -0.0795 -0.0681  0.0400
 2529SOL    HW1 9594   5.490   1.248   8.729 -0.7958 -0.3129 -0.9524
 2529SOL    HW2 9595   5.611   1.170   8.776  1.1341  2.0500 -1.7609
 2530SOL     OW 9596   6.928   3.164   5.002 -0.0003 -0.2688  0.0527
 2530SOL    HW1 9597   6.905   3.074   5.021 -2.8429  0.0212 -1.4776
 2530SOL    HW2 9598   6.970   3.160   4.916  0.3016 -0.1582  0.1919
 2531SOL     OW 9599  10.877   2.463   0.106 -0.7200 -0.5897 -0.3315
 2531SOL    HW1 9600  10.950   2.408   0.078 -1.0349 -1.6233  0.7865
 2531SOL    HW2 9601  10.907   2.552   0.090  1.0208 -0.9571  0.5807
 2532SOL     OW 9602   6.768   1.608   6.471 -0.0126 -0.3262 -0.0038
 2532SOL    HW1 9603   6.775   1.515   6.493 -0.9356 -0.2977  0.4941
 2532SOL    HW2 9604   6.840   1.625   6.410  0.4018 -1.2720  0.2116
 2533SOL     OW 9605   3.822   9.852   1.458  0.0777  0.0747  0.0702
 2533SOL    HW1 9606   3.861   9.765   1.456  1.5206  0.6992 -0.3164
 2533SOL    HW2 9607   3.829   9.879   1.550 -1.3858 -0.6177  0.4215
 2534SOL     OW 9608   5.100   4.775   4.041 -0.1114 -0.0177 -0.6154
 2534SOL    HW1 9609   5.054   4.708   3.991  0.2677 -1.9284  1.4008
 2534SOL    HW2 9610   5.191   4.769   4.012  0.0634 -0.9601  0.0681
 2535SOL     OW 9611   1.336   0.257   2.815  0.3123 -0.1285 -0.1441
 2535SOL    HW1 9612   1.302   0.251   2.726  1.3479 -0.1680 -0.5574
 2535SOL    HW2 9613   1.406   0.191   2.818 -1.7622 -2.4474  1.7148
 2536SOL     OW 9614   5.798   6.837   0.288 -0.4931  0.1812  0.3018
 2536SOL    HW1 9615   5.859   6.882   0.347 -0.4568 -1.0120  1.2282
 2536SOL    HW2 9616   5.714   6.880   0.302 -0.2267  0.7009  0.3182
 2537SOL     OW 9617   2.907   0.935  10.690  0.1657 -0.1578 -0.2323
 2537SOL    HW1 9618   2.937   1.018  10.728  0.6222 -0.4933  0.1568
 2537SOL    HW2 9619   2.898   0.876  10.765 -0.6201 -0.3240 -0.4526
 2538SOL     OW 9620  10.155   2.660   6.033 -0.0568  0.1533  0.5948
 2538SOL    HW1 9621  10.090   2.721   5.998 -0.3002 -0.1841  0.4546
 2538SOL    HW2 9622  10.203   2.711   6.099 -1.3005  0.0278  1.6236
 2539SOL     OW 9623  10.021   4.638   4.520  0.3667  0.6761 -0.0149
 2539SOL    HW1 9624  10.016   4.562   4.577  2.4438 -0.6891 -1.5101
 2539SOL    HW2 9625   9.933   4.676   4.523 -0.6059 -1.4727  1.1692
 2540SOL     OW 9626  10.395  10.078   3.993  0.2634 -0.5560 -0.1702
 2540SOL    HW1 9627  10.389  10.108   4.083 -1.2374  0.1088 -0.4630
 2540SOL    HW2 9628  10.377   9.984   3.997 -2.6497 -0.0833 -0.0171
 2541SOL     OW 9629   0.875   3.407   6.929 -0.0218 -0.0325 -0.0625
 2541SOL    HW1 9630   0.804   3.405   6.993 -0.0905 -1.0190 -0.1422
 2541SOL    HW2 9631   0.833   3.379   6.847 -0.3025  2.7716 -0.9620
 2542SOL     OW 9632   3.268  10.497   2.367  0.5589 -0.8733 -0.0936
 2542SOL    HW1 9633   3.198  10.435   2.346  1.8159 -2.1399 -0.7218
 2542SOL    HW2 9634   3.248  10.527   2.455  0.5370 -3.1185  0.7253
 2543SOL     OW 9635   9.132   2.675   8.126 -0.1485  0.4591  0.0164
 2543SOL    HW1 9636   9.132   2.717   8.040  0.5361 -0.1010 -0.2688
 2543SOL    HW2 9637   9.092   2.739   8.184 -0.0807  1.0796 -0.6082
 2544SOL     OW 9638   6.194  10.427   3.350 -0.0006 -0.3671  0.1126
 2544SOL    HW1 9639   6.209  10.521   3.338  0.9072 -0.4947  0.1111
 2544SOL    HW2 9640   6.114  10.422   3.401  0.4654  0.4555  0.9721
 2545SOL     OW 9641   4.360   1.907   8.152 -0.1427  0.7989  0.4355
 2545SOL    HW1 9642   4.347   1.852   8.229  0.7848  0.3760  0.3107
 2545SOL    HW2 9643   4.354   1.846   8.078  0.8265  0.8518  0.2935
 2546SOL     OW 9644   5.416   5.249  10.916  0.6124 -0.2087  0.1461
 2546SOL    HW1 9645   5.415   5.182  10.984 -2.0099 -0.1036  0.3354
 2546SOL    HW2 9646   5.434   5.200  10.835  2.2582 -0.5577  0.6989
 2547SOL     OW 9647   0.617   7.410   0.457 -0.5451 -0.9208 -0.1057
 2547SOL    HW1 9648   0.695   7.360   0.435 -0.9924 -1.2478 -0.9743
 2547SOL    HW2 9649   0.632   7.496   0.417  0.6034 -0.0031  2.0877
 2548SOL     OW 9650   8.928   3.889  10.067 -0.0287 -0.0767 -0.4021
 2548SOL    HW1 9651   8.868   3.951  10.108  0.3204 -0.5747  0.9144
 2548SOL    HW2 9652   8.893   3.803  10.089 -0.5526 -0.3874 -2.2770
 2549SOL     OW 9653   8.936   6.528   4.988 -0.2001  0.4446 -0.2650
 2549SOL    HW1 9654   8.937   6.539   5.083  0.1141 -0.1174 -0.2008
 2549SOL    HW2 9655   8.968   6.612   4.955 -0.7076  0.7889  0.1058
 2550SOL     OW 9656   9.681   1.027   7.846 -0.1457 -0.1099  0.7902
 2550SOL    HW1 9657   9.749   1.092   7.831  0.3212 -0.5083  1.1339
 2550SOL    HW2 9658   9.729   0.946   7.864 -0.7047 -0.3567  1.2066
 2551SOL     OW 9659   8.645   1.490   4.177  0.0619 -0.0553  0.6167
 2551SOL    HW1 9660   8.563   1.518   4.217  0.3451  0.9647  0.5094
 2551SOL    HW2 9661   8.693   1.571   4.161  0.2656 -0.4804 -1.1475
 2552SOL     OW 9662   8.560   2.064   5.945  0.1957 -0.5050 -0.0331
 2552SOL    HW1 9663   8.580   2.135   5.883 -0.9391 -0.5804 -0.5096
 2552SOL    HW2 9664   8.516   2.107   6.018  3.0913 -0.1316  1.6685
 2553SOL     OW 9665   8.692   2.689   0.725  0.5808  0.3227  0.0208
 2553SOL    HW1 9666   8.669   2.759   0.664  0.2265  2.3452  2.3165
 2553SOL    HW2 9667   8.786   2.675   0.711  0.3893  0.2848 -1.3733
 2554SOL     OW 9668   5.244   1.841   2.906 -0.1722  0.0124 -0.4883
 2554SOL    HW1 9669   5.309   1.785   2.863 -0.2780 -0.8115  0.3886
 2554SOL    HW2 9670   5.187   1.780   2.953 -1.3193  0.7460 -0.8580
 2555SOL     OW 9671   8.211  10.602  10.271 -0.4555  0.2169  0.1108
 2555SOL    HW1 9672   8.217  10.648  10.188  0.2533 -0.5267 -0.2641
 2555SOL    HW2 9673   8.117  10.593  10.288 -0.5974  0.6575 -0.4447
 2556SOL     OW 9674   2.770   7.059   9.520 -0.6271  0.4060 -0.2045
 2556SOL    HW1 9675   2.814   7.011   9.450 -1.8373  0.5428 -1.0920
 2556SOL    HW2 9676   2.811   7.028   9.600  2.0593  1.5258 -1.0282
 2557SOL     OW 9677   7.438   7.841  10.638  0.2249  0.2399 -0.1599
 2557SOL    HW1 9678   7.412   7.805  10.554 -1.0339 -1.2950  0.8208
 2557SOL    HW2 9679   7.498   7.775  10.674 -0.0699  0.3641  0.5753
 2558SOL     OW 9680   5.225   0.786   8.618 -0.4659  0.2977  0.1095
 2558SOL    HW1 9681   5.221   0.851   8.688 -1.3381  0.5012 -0.1136
 2558SOL    HW2 9682   5.296   0.727   8.643  0.7322  1.6675  0.0352
 2559SOL     OW 9683  10.170   4.170   9.047 -0.5698 -0.2045  0.1961
 2559SOL    HW1 9684  10.148   4.256   9.012 -0.5268  0.6675  2.1812
 2559SOL    HW2 9685  10.179   4.114   8.969 -1.1575  1.4245 -1.1069
 2560SOL     OW 9686   1.167   1.648   9.676  0.2988 -0.0203 -0.1408
 2560SOL    HW1 9687   1.086   1.600   9.692  1.4840 -1.7345  1.0424
 2560SOL    HW2 9688   1.143   1.740   9.690 -1.6341 -0.3740 -0.7622
 2561SOL     OW 9689   4.986   2.058   2.827  0.1211  0.2548  0.0839
 2561SOL    HW1 9690   5.022   2.139   2.864  1.3091 -0.5496  0.7510
 2561SOL    HW2 9691   5.030   2.048   2.743 -1.6953  1.4478 -1.0845
 2562SOL     OW 9692  10.138   4.623   8.212  0.1083 -0.0175 -0.0532
 2562SOL    HW1 9693  10.108   4.557   8.275  1.3852  0.1912  0.7964
 2562SOL    HW2 9694  10.222   4.590   8.181  0.6333  1.0759  0.1846
 2563SOL     OW 9695   1.245   4.527   9.644  0.6084  0.6294 -0.0049
 2563SOL    HW1 9696   1.167   4.531   9.589  1.6916  0.9899 -1.5717
 2563SOL    HW2 9697   1.302   4.596   9.609  0.8728  1.6843  2.3388
 2564SOL     OW 9698   2.534   9.533   3.565 -0.0503 -0.1965  0.3740
 2564SOL    HW1 9699   2.562   9.443   3.574 -0.0870 -0.2085  0.3728
 2564SOL    HW2 9700   2.499   9.557   3.651  2.2709  0.6279  1.1557
 2565SOL     OW 9701   3.656   1.069   6.947 -0.6860  0.1607  0.2792
 2565SOL    HW1 9702   3.690   1.025   7.025 -0.6548  0.5563  0.4911
 2565SOL    HW2 9703   3.692   1.158   6.952 -0.3366  0.0634 -0.4105
 2566SOL     OW 9704   4.583   2.069   0.452  0.0937 -0.4041  0.4355
 2566SOL    HW1 9705   4.629   2.033   0.376  0.4408 -0.9175  0.8812
 2566SOL    HW2 9706   4.606   2.162   0.452 -0.4672 -0.2525 -0.4795
 2567SOL     OW 9707  10.106   2.600   1.361  0.2186 -0.4146 -0.2820
 2567SOL    HW1 9708  10.087   2.562   1.446 -1.8054  0.2229 -0.3964
 2567SOL    HW2 9709  10.200   2.619   1.364  0.1063  0.0602  1.9779
 2568SOL     OW 9710  10.514   0.841   8.089  0.3657  0.3364 -0.0065
 2568SOL    HW1 9711  10.461   0.863   8.012  0.0514  1.8168  0.6024
 2568SOL    HW2 9712  10.451   0.832   8.160  0.7868  0.4530  0.3874
 2569SOL     OW 9713   3.335   1.919   0.799  0.8576 -0.3984  0.2010
 2569SOL    HW1 9714   3.261   1.859   0.794  0.5225  0.0348 -0.1642
 2569SOL    HW2 9715   3.408   1.872   0.757  0.8950 -0.9700  0.8958
 2570SOL     OW 9716   5.190   4.224   1.255 -0.6770  0.1040 -0.2265
 2570SOL    HW1 9717   5.135   4.148   1.233 -0.6570 -0.0163  0.1223
 2570SOL    HW2 9718   5.135   4.277   1.312 -0.8831  0.6299 -0.9022
 2571SOL     OW 9719   0.746   1.467   3.087 -0.3319  0.7121  0.1884
 2571SOL    HW1 9720   0.762   1.507   3.172  0.5795  0.6594  0.0596
 2571SOL    HW2 9721   0.735   1.374   3.106 -1.4843  0.8786  0.3840
 2572SOL     OW 9722   8.703   3.667   2.543  0.1461 -0.2468 -0.2623
 2572SOL    HW1 9723   8.611   3.662   2.566 -0.1593 -3.7525 -1.5269
 2572SOL    HW2 9724   8.703   3.687   2.449  0.5227 -1.7942 -0.6245
 2573SOL     OW 9725   8.077   0.852   1.077 -0.3562  0.6498 -0.0183
 2573SOL    HW1 9726   8.125   0.933   1.061 -0.3537  0.5937 -0.2957
 2573SOL    HW2 9727   8.142   0.792   1.114 -0.0975  0.4242 -0.8183
 2574SOL     OW 9728   7.996   0.582   3.747 -0.6938  0.6436 -0.1384
 2574SOL    HW1 9729   8.013   0.488   3.750 -0.4367  0.7040  1.7672
 2574SOL    HW2 9730   8.016   0.613   3.836 -0.4417  2.5562 -0.8133
 2575SOL     OW 9731   7.013   2.226   2.723  0.2162 -0.4415 -0.4696
 2575SOL    HW1 9732   6.946   2.247   2.658 -0.9325 -0.0481  0.7987
 2575SOL    HW2 9733   6.979   2.150   2.769  0.8369 -0.4837 -0.0720
 2576SOL     OW 9734   2.130   3.435   4.936 -0.1181  0.2065 -0.0989
 2576SOL    HW1 9735   2.064   3.366   4.924 -1.0454  1.4013 -2.7814
 2576SOL    HW2 9736   2.161   3.455   4.848  1.5962  1.8499  0.7819
 2577SOL     OW 9737   1.863   4.010  10.556 -0.4137  0.4639  0.5537
 2577SOL    HW1 9738   1.813   3.965  10.488  0.7039 -1.3095  0.8335
 2577SOL    HW2 9739   1.903   4.085  10.511 -1.1439  0.3524 -0.2996
 2578SOL     OW 9740  10.808   4.481   7.201 -0.2014 -0.1421 -0.2391
 2578SOL    HW1 9741  10.861   4.410   7.237  0.6157  0.4978 -0.1232
 2578SOL    HW2 9742  10.830   4.483   7.108  0.2162  0.3136 -0.1356
 2579SOL     OW 9743   1.736   0.601   1.350  0.2472 -0.2264 -0.2563
 2579SOL    HW1 9744   1.708   0.692   1.345 -0.4448 -0.3989  0.3493
 2579SOL    HW2 9745   1.656   0.551   1.363  0.7975 -0.7096  1.7034
 2580SOL     OW 9746  10.383   9.546   6.549 -0.2334  0.0769 -0.1129
 2580SOL    HW1 9747  10.365   9.527   6.457  2.6375  0.7485 -0.9158
 2580SOL    HW2 9748  10.322   9.491   6.597 -2.1033 -0.0080 -2.3898
 2581SOL     OW 9749   3.747   0.418   4.902 -0.9057 -0.2553 -0.7843
 2581SOL    HW1 9750   3.803   0.454   4.971 -1.6104 -1.2095  0.3228
 2581SOL    HW2 9751   3.796   0.432   4.821 -1.0238  2.9480 -0.4238
 2582SOL     OW 9752  10.421   0.665   8.540 -0.1819  0.1292 -0.6711
 2582SOL    HW1 9753  10.355   0.600   8.565  0.4741 -0.8404 -1.3412
 2582SOL    HW2 9754  10.501   0.613   8.528  0.2995  1.0307 -1.4606
 2583SOL     OW 9755   3.535   1.268  10.451  0.0871 -0.3222  0.0210
 2583SOL    HW1 9756   3.568   1.245  10.364 -3.0527  0.7570 -1.6310
 2583SOL    HW2 9757   3.555   1.361  10.461 -0.4848 -0.1880 -0.0454
 2584SOL     OW 9758   4.749   7.509   3.268 -0.1340 -0.6430  0.0496
 2584SOL    HW1 9759   4.794   7.441   3.219  0.9353  0.6127 -0.7731
 2584SOL    HW2 9760   4.747   7.585   3.209  0.6315  0.7187  1.6767
 2585SOL     OW 9761   2.641   5.774   3.658 -0.0237 -0.2284  0.0441
 2585SOL    HW1 9762   2.559   5.749   3.701 -0.5491  1.4107  0.0740
 2585SOL    HW2 9763   2.695   5.809   3.728 -0.8315  2.3311 -0.5222
 2586SOL     OW 9764   3.382   0.632   1.625 -0.3547 -0.0648 -0.0513
 2586SOL    HW1 9765   3.322   0.637   1.550 -0.1626  0.0531 -0.1995
 2586SOL    HW2 9766   3.360   0.708   1.678  1.3147  1.4113 -1.3591
 2587SOL     OW 9767  10.323   7.318   2.094  0.4083  0.1979  0.3154
 2587SOL    HW1 9768  10.339   7.273   2.177 -3.3578  0.5388  1.3863
 2587SOL    HW2 9769  10.322   7.411   2.118 -1.6990  0.2523  0.1959
 2588SOL     OW 9770   7.429   9.135  11.008  0.3627 -0.2140  0.3052
 2588SOL    HW1 9771   7.367   9.177  10.949 -0.4492 -0.7671  0.7355
 2588SOL    HW2 9772   7.460   9.205  11.065 -3.0179 -0.4948  2.8189
 2589SOL     OW 9773   4.441   6.428   3.038  0.0316 -0.1452 -0.2124
 2589SOL    HW1 9774   4.406   6.489   2.974  0.4921  0.5540  0.1889
 2589SOL    HW2 9775   4.364   6.388   3.078 -0.2596 -0.6375 -1.2357
 2590SOL     OW 9776   8.672   2.146   4.589  0.4571 -0.4567 -0.6852
 2590SOL    HW1 9777   8.767   2.137   4.599  0.4630 -0.0566 -0.3706
 2590SOL    HW2 9778   8.650   2.085   4.519  0.7813 -1.3801  0.0019
 2591SOL     OW 9779   9.109  10.803   9.584  0.3407  0.4986 -0.1478
 2591SOL    HW1 9780   9.036  10.757   9.543  0.1071  0.1467  0.6496
 2591SOL    HW2 9781   9.186  10.771   9.538  0.1397 -0.3659  0.0959
 2592SOL     OW 9782  10.255   3.937   5.077  0.0558  0.7375 -0.5926
 2592SOL    HW1 9783  10.244   3.847   5.107  0.1375  0.5380 -1.1512
 2592SOL    HW2 9784  10.312   3.978   5.143 -0.4784  0.5600 -0.0081
 2593SOL     OW 9785   3.449   2.235   0.669 -0.6200 -0.0541  0.1007
 2593SOL    HW1 9786   3.451   2.295   0.594 -0.4032 -0.0860  0.0808
 2593SOL    HW2 9787   3.458   2.148   0.630 -0.9053 -0.0994  0.1322
 2594SOL     OW 9788   2.799   3.235   1.912  0.5519 -0.4219  0.3329
 2594SOL    HW1 9789   2.871   3.288   1.879 -0.6841  0.9678 -0.2735
 2594SOL    HW2 9790   2.839   3.151   1.934  2.1832  0.0159 -0.7587
 2595SOL     OW 9791   3.848   1.658   9.602 -0.1239  0.1919  0.6303
 2595SOL    HW1 9792   3.837   1.644   9.508 -0.2405  1.5518  0.4204
 2595SOL    HW2 9793   3.875   1.573   9.636 -1.3467 -0.6538 -0.4315
 2596SOL     OW 9794   9.654   7.400   3.195  0.6679 -0.3763 -0.7780
 2596SOL    HW1 9795   9.712   7.455   3.247 -0.1403  0.0544 -0.3111
 2596SOL    HW2 9796   9.644   7.448   3.113 -0.0425  0.1940 -0.3680
 2597SOL     OW 9797   1.289   6.034   1.243  0.6385  0.6086 -0.8088
 2597SOL    HW1 9798   1.361   6.059   1.300  0.1846 -0.3799  0.2492
 2597SOL    HW2 9799   1.324   5.962   1.190  0.4396  0.0979 -0.2631
 2598SOL     OW 9800  10.791   3.034  10.067 -0.3451 -0.3058 -0.0758
 2598SOL    HW1 9801  10.717   3.050  10.126  1.3266  0.6522  1.8778
 2598SOL    HW2 9802  10.834   2.957  10.105 -0.8074 -1.4410 -1.7430
 2599SOL     OW 9803  11.031   6.752   0.940 -0.3708  0.5954  0.1133
 2599SOL    HW1 9804  11.080   6.733   1.020  0.1796 -1.4132 -0.6504
 2599SOL    HW2 9805  10.993   6.838   0.956  1.2881  1.1008  1.7620
 2600SOL     OW 9806   8.125   8.121  10.489 -0.4478  0.5869 -0.1298
 2600SOL    HW1 9807   8.123   8.033  10.528 -2.5358  0.4591 -0.4104
 2600SOL    HW2 9808   8.170   8.109  10.406  0.0391 -0.0264  0.2085
 2601SOL     OW 9809   6.008   4.890   2.475  0.6956  0.1448 -0.8152
 2601SOL    HW1 9810   6.071   4.909   2.545  2.7479  0.2578 -2.5697
 2601SOL    HW2 9811   5.969   4.806   2.499 -0.7737  1.4637  1.8175
 2602SOL     OW 9812   8.050   5.861   4.862 -0.1321  0.2554  0.3950
 2602SOL    HW1 9813   8.115   5.810   4.816 -2.6202 -2.1638 -0.7277
 2602SOL    HW2 9814   8.051   5.946   4.819 -0.7176 -1.1579 -2.6486
 2603SOL     OW 9815   6.099  11.094  10.027 -0.5000  0.0011 -0.2870
 2603SOL    HW1 9816   6.192  11.114  10.040 -0.6540 -0.3299  1.6466
 2603SOL    HW2 9817   6.098  11.000  10.009 -0.4544  0.0173 -0.3770
 2604SOL     OW 9818   9.061   5.731   5.904  0.2218  0.3795  0.0275
 2604SOL    HW1 9819   9.152   5.701   5.911 -0.2448 -1.0122  0.4945
 2604SOL    HW2 9820   9.060   5.787   5.827  1.2385 -0.5255 -0.6833
 2605SOL     OW 9821   8.039   0.205   2.606 -0.1848 -0.1006  0.0111
 2605SOL    HW1 9822   8.078   0.157   2.533 -1.2386  0.6321 -1.0603
 2605SOL    HW2 9823   8.075   0.163   2.684  0.3799 -1.3853 -0.9131
 2606SOL     OW 9824   1.312   4.864   9.492 -0.0323 -0.3241 -0.0564
 2606SOL    HW1 9825   1.317   4.832   9.582 -1.8495  0.0009  0.2029
 2606SOL    HW2 9826   1.403   4.870   9.464  0.8751  2.5367  2.8104
 2607SOL     OW 9827   4.000   4.725   6.127 -0.1091 -0.1825  0.0611
 2607SOL    HW1 9828   4.079   4.672   6.138 -0.7054 -0.7048  2.4428
 2607SOL    HW2 9829   4.020   4.807   6.173 -1.2751 -0.7309  1.6114
 2608SOL     OW 9830   0.274   2.064   9.572 -0.6859 -0.2687 -0.1777
 2608SOL    HW1 9831   0.370   2.059   9.572 -0.4511  2.2334  1.5012
 2608SOL    HW2 9832   0.254   2.142   9.522 -1.4893  1.5024  2.6457
 2609SOL     OW 9833   7.523   9.076   6.731 -0.3996  0.1635  0.0297
 2609SOL    HW1 9834   7.613   9.101   6.754 -0.3638 -0.4137  0.5359
 2609SOL    HW2 9835   7.497   9.014   6.799 -1.1551  0.2585 -0.1615
 2610SOL     OW 9836   8.201   0.169   7.644  0.7033 -0.0949 -0.2965
 2610SOL    HW1 9837   8.130   0.211   7.693  0.7121  0.6694 -0.9237
 2610SOL    HW2 9838   8.171   0.079   7.632 -0.0194  0.1299 -0.2686
 2611SOL     OW 9839   4.389   6.946  10.854  0.0053  0.4168  0.0155
 2611SOL    HW1 9840   4.429   6.874  10.805 -0.3466 -1.0702  1.8156
 2611SOL    HW2 9841   4.428   7.025  10.816 -0.9162 -0.5483 -3.2293
 2612SOL     OW 9842   9.407   9.325  10.120 -0.2236 -0.5146  0.6902
 2612SOL    HW1 9843   9.373   9.278  10.196 -2.7382  0.1417  0.0540
 2612SOL    HW2 9844   9.341   9.392  10.101  1.9411  1.5609 -0.0530
 2613SOL     OW 9845  10.061   7.913   5.796  0.5118 -0.1141  0.2202
 2613SOL    HW1 9846  10.062   7.872   5.709 -0.5559  0.7165 -0.2107
 2613SOL    HW2 9847  10.146   7.954   5.805  1.0164 -1.0886  0.0033
 2614SOL     OW 9848   1.049   2.159   3.944 -0.4516 -0.0626  0.0499
 2614SOL    HW1 9849   1.033   2.082   3.998 -1.6806  0.0625 -0.0956
 2614SOL    HW2 9850   1.004   2.230   3.990  0.4122  0.5134  0.0253
 2615SOL     OW 9851  11.063   4.093   4.173 -0.4177 -0.1281  0.3078
 2615SOL    HW1 9852  11.099   4.156   4.235 -1.2568  0.3017  0.3760
 2615SOL    HW2 9853  11.139   4.063   4.123  0.0368  0.7725  0.4213
 2616SOL     OW 9854   1.657   3.312   7.293  0.4360 -0.1849  0.0130
 2616SOL    HW1 9855   1.582   3.276   7.341  1.1176  1.5100  2.5568
 2616SOL    HW2 9856   1.636   3.405   7.284  1.6880  0.0726 -0.3769
 2617SOL     OW 9857   3.883   5.379   2.753  0.1659  0.7877  0.0349
 2617SOL    HW1 9858   3.903   5.341   2.839  2.8427  0.6728 -0.5522
 2617SOL    HW2 9859   3.897   5.307   2.692 -2.9980  0.4893 -0.4999
 2618SOL     OW 9860   1.223   5.272   1.629 -0.1776  0.7048 -0.2190
 2618SOL    HW1 9861   1.258   5.361   1.626  0.6336  0.4045  0.1882
 2618SOL    HW2 9862   1.190   5.262   1.718 -1.7492  1.1400 -0.7216
 2619SOL     OW 9863   2.029   3.636   5.179 -0.7727  0.1044  0.3806
 2619SOL    HW1 9864   1.938   3.641   5.208 -0.7203  1.7258  0.3579
 2619SOL    HW2 9865   2.029   3.567   5.113 -2.0779  0.3533  0.0867
 2620SOL     OW 9866   8.271   2.706   3.756 -0.7270  1.0553  0.2373
 2620SOL    HW1 9867   8.186   2.701   3.712  0.6765 -1.6296 -2.5012
 2620SOL    HW2 9868   8.325   2.759   3.697  0.2457  0.3735  0.5000
 2621SOL     OW 9869   9.552   4.490   4.109 -0.9081  0.2446 -0.6897
 2621SOL    HW1 9870   9.646   4.480   4.095 -0.3468 -0.3845  2.7396
 2621SOL    HW2 9871   9.515   4.403   4.092 -0.1071 -0.7776  2.2591
 2622SOL     OW 9872   7.606   1.752   3.935 -0.3719 -0.1077  0.2355
 2622SOL    HW1 9873   7.557   1.670   3.924 -1.9264  0.7919  0.0525
 2622SOL    HW2 9874   7.668   1.753   3.862 -1.1659 -0.5809 -0.4779
 2623SOL     OW 9875   2.872   2.574   6.225  0.0438  0.4501 -0.1565
 2623SOL    HW1 9876   2.882   2.535   6.312 -0.6263 -1.4342 -0.8698
 2623SOL    HW2 9877   2.914   2.659   6.232  2.1642 -0.6377  1.3341
 2624SOL     OW 9878   2.900   4.033   7.196 -0.0049 -0.4454  0.1317
 2624SOL    HW1 9879   2.957   3.978   7.249 -1.0126 -1.7099 -0.0246
 2624SOL    HW2 9880   2.811   4.001   7.215 -0.4520 -0.4790 -1.7434
 2625SOL     OW 9881   5.042   1.854   1.712  0.5769 -0.8417  0.1934
 2625SOL    HW1 9882   5.016   1.936   1.671  0.5697 -0.6571  0.5639
 2625SOL    HW2 9883   5.133   1.869   1.739  1.4684 -1.8275 -2.0168
 2626SOL     OW 9884   3.414   5.704   1.642 -0.3097  0.6302  0.6256
 2626SOL    HW1 9885   3.421   5.781   1.584  0.4886 -0.2636 -0.5169
 2626SOL    HW2 9886   3.322   5.701   1.667 -0.2525  2.2819  1.1535
 2627SOL     OW 9887   6.832   3.424   6.406  0.0833  0.0442 -0.0639
 2627SOL    HW1 9888   6.761   3.478   6.370 -1.2221 -0.4346  1.6820
 2627SOL    HW2 9889   6.808   3.410   6.497  3.6594  1.8967  1.3403
 2628SOL     OW 9890   2.063   1.610   3.338  0.6075 -0.1000  0.1719
 2628SOL    HW1 9891   2.048   1.672   3.410 -4.0975 -0.4612 -0.1833
 2628SOL    HW2 9892   2.080   1.527   3.381 -2.5550 -0.4004  1.0805
 2629SOL     OW 9893   4.936   5.860   4.498 -0.2856 -0.1832 -1.0455
 2629SOL    HW1 9894   4.965   5.818   4.417  4.6745  0.2064  0.2127
 2629SOL    HW2 9895   4.959   5.798   4.567 -0.2024  1.2938  0.3311
 2630SOL     OW 9896   6.929  10.368   8.399  0.4905 -0.1089 -0.5209
 2630SOL    HW1 9897   7.002  10.412   8.356  0.3090 -0.4574 -1.2081
 2630SOL    HW2 9898   6.968  10.319   8.471  0.7221  0.9806  0.1099
 2631SOL     OW 9899   5.081   5.229   8.985  0.0476  0.3068  0.5656
 2631SOL    HW1 9900   4.996   5.222   8.941 -0.2208  0.0496  1.1176
 2631SOL    HW2 9901   5.144   5.238   8.914 -0.6414  2.8595  0.1561
 2632SOL     OW 9902   2.621   1.801  10.662  0.1920 -0.4223  0.6301
 2632SOL    HW1 9903   2.710   1.767  10.667  0.4321 -0.1978 -1.2248
 2632SOL    HW2 9904   2.618   1.874  10.723  1.2178 -0.5538  0.8426
 2633SOL     OW 9905  10.092   2.318   3.714 -0.7026 -0.1080 -0.4828
 2633SOL    HW1 9906  10.080   2.381   3.785 -0.0091 -0.1127 -0.3506
 2633SOL    HW2 9907  10.022   2.338   3.652 -0.9928  0.2450 -0.0524
 2634SOL     OW 9908   7.718   2.986   0.706  0.1178 -0.2743 -0.0239
 2634SOL    HW1 9909   7.761   3.066   0.737  0.3238 -1.2345  2.3412
 2634SOL    HW2 9910   7.676   2.949   0.784 -1.9950 -1.2602 -1.5293
 2635SOL     OW 9911   2.754   4.966  10.849 -0.0299 -0.5573  0.1808
 2635SOL    HW1 9912   2.803   5.048  10.847  0.5977 -0.8864  1.1932
 2635SOL    HW2 9913   2.821   4.898  10.859 -0.7075 -0.8932  3.4849
 2636SOL     OW 9914   5.723   6.863   9.834  0.0246 -0.2181 -0.0506
 2636SOL    HW1 9915   5.636   6.856   9.795  1.3430 -2.6339 -3.0183
 2636SOL    HW2 9916   5.710   6.915   9.913 -3.9074  0.3095 -0.8351
 2637SOL     OW 9917   1.219   6.073   0.350  0.9183 -0.6246 -0.2439
 2637SOL    HW1 9918   1.184   6.114   0.272 -1.3276 -0.0003  0.9941
 2637SOL    HW2 9919   1.263   5.994   0.318  0.7580  0.0157 -2.1746
 2638SOL     OW 9920   8.491   3.832   0.525  0.1486 -0.0802 -0.0278
 2638SOL    HW1 9921   8.419   3.830   0.587  1.3018 -1.5023  1.3535
 2638SOL    HW2 9922   8.458   3.883   0.451 -1.5041  1.1123  1.4518
 2639SOL     OW 9923   5.383   3.972   4.635  0.2172 -0.5440  0.2113
 2639SOL    HW1 9924   5.468   3.963   4.592  0.7190  0.6937  0.9068
 2639SOL    HW2 9925   5.333   3.895   4.605  1.1404 -0.6408 -1.1838
 2640SOL     OW 9926   2.001   4.524   8.776 -0.1845 -0.1954 -0.0373
 2640SOL    HW1 9927   2.078   4.502   8.723 -1.1901  0.4648 -1.8749
 2640SOL    HW2 9928   1.977   4.441   8.819  1.0921 -0.5778 -0.0025
 2641SOL     OW 9929   9.933   5.960   3.298  0.8865 -0.0229 -0.0682
 2641SOL    HW1 9930   9.956   5.911   3.377  0.0430 -0.0173  0.1987
 2641SOL    HW2 9931   9.978   6.044   3.307  1.9492 -0.5568 -0.2937
 2642SOL     OW 9932  10.758   6.755   2.864 -0.4822 -0.2214  0.2288
 2642SOL    HW1 9933  10.854   6.753   2.864 -0.4831 -0.3384  0.2275
 2642SOL    HW2 9934  10.733   6.668   2.896 -0.5909 -0.5022 -0.5797
 2643SOL     OW 9935   6.686   1.752   7.146  0.1065  0.9642 -0.8270
 2643SOL    HW1 9936   6.756   1.741   7.210  0.3971  0.8319 -1.1640
 2643SOL    HW2 9937   6.724   1.807   7.078 -0.4508  1.7635 -0.5126
 2644SOL     OW 9938   8.881   8.005   9.186  0.1962 -0.0154  0.2925
 2644SOL    HW1 9939   8.832   7.972   9.110  2.4126 -0.8315 -0.8845
 2644SOL    HW2 9940   8.838   7.966   9.261 -0.5355 -1.2966 -0.7441
 2645SOL     OW 9941   5.814   2.904   0.232 -0.5478  0.5484 -0.0980
 2645SOL    HW1 9942   5.852   2.929   0.316  2.4906 -0.7816 -0.9539
 2645SOL    HW2 9943   5.792   2.811   0.243  0.5303  0.1721 -0.9338
 2646SOL     OW 9944  10.697   2.781   8.183 -0.2653 -0.0891 -0.9276
 2646SOL    HW1 9945  10.627   2.782   8.248  0.2591 -1.1257 -0.3145
 2646SOL    HW2 9946  10.777   2.770   8.235  0.4941  2.0902 -1.5218
 2647SOL     OW 9947   1.496   6.136   4.978 -0.3303 -0.4478  0.1850
 2647SOL    HW1 9948   1.471   6.072   4.911 -0.4823 -0.8335  0.5976
 2647SOL    HW2 9949   1.555   6.088   5.036  0.8590  0.2671 -0.4083
 2648SOL     OW 9950   9.622   4.227   6.548  0.6674 -0.3821 -0.1340
 2648SOL    HW1 9951   9.685   4.177   6.601 -1.1849 -0.4559  2.1893
 2648SOL    HW2 9952   9.660   4.314   6.541  2.0228 -0.9884 -0.6876
 2649SOL     OW 9953  10.075   6.164   9.271  0.1982  0.2416  0.3644
 2649SOL    HW1 9954  10.037   6.077   9.261  1.7303 -0.4514  0.3765
 2649SOL    HW2 9955  10.001   6.224   9.258 -1.4248 -1.0619  2.7823
 2650SOL     OW 9956   8.608   4.398   6.484  0.0676  0.3414  0.1912
 2650SOL    HW1 9957   8.681   4.437   6.437  0.4696 -0.9956 -0.3083
 2650SOL    HW2 9958   8.596   4.312   6.445 -0.6824 -0.1339  1.3960
 2651SOL     OW 9959   4.129   4.288   7.665 -0.4224  0.7035  0.0611
 2651SOL    HW1 9960   4.093   4.316   7.581  0.5460  0.0713 -0.5822
 2651SOL    HW2 9961   4.150   4.195   7.652 -2.5161 -0.1123  1.7674
 2652SOL     OW 9962   1.290   2.385   4.390  0.1166 -0.2107 -0.3568
 2652SOL    HW1 9963   1.255   2.317   4.447  0.4617 -0.6300 -0.6432
 2652SOL    HW2 9964   1.326   2.450   4.450 -2.3188  0.9237  0.0283
 2653SOL     OW 9965   0.382   4.791   2.034  0.1449 -0.5374 -0.2920
 2653SOL    HW1 9966   0.438   4.806   2.110  0.8748 -1.1771 -0.6835
 2653SOL    HW2 9967   0.424   4.841   1.964 -2.1209  2.4991  0.3260
 2654SOL     OW 9968  10.739  11.015  10.911  0.0221 -0.2695 -0.3817
 2654SOL    HW1 9969  10.745  10.992  10.818  2.4074 -1.9508  0.1203
 2654SOL    HW2 9970  10.731  11.111  10.910 -0.2538 -0.2580 -2.3021
 2655SOL     OW 9971   9.990   5.239   4.828 -0.3807 -0.2834 -0.0416
 2655SOL    HW1 9972  10.062   5.237   4.892 -0.0418  0.8943 -0.3617
 2655SOL    HW2 9973   9.976   5.147   4.806 -0.8421 -0.7909  2.0845
 2656SOL     OW 9974   0.908   4.982   3.203 -0.0274  0.4367  0.2216
 2656SOL    HW1 9975   0.831   4.974   3.147 -0.8298 -0.3528  1.3935
 2656SOL    HW2 9976   0.882   4.942   3.286  2.2266 -1.5396  0.0962
 2657SOL     OW 9977  10.399   6.577   7.822  0.2308 -0.2372  0.4848
 2657SOL    HW1 9978  10.394   6.494   7.871  1.0096 -0.1625  0.7068
 2657SOL    HW2 9979  10.492   6.588   7.804 -0.1038 -0.8103 -1.9814
 2658SOL     OW 9980   7.115   8.692   2.954 -0.2524 -0.2982  0.3443
 2658SOL    HW1 9981   7.191   8.636   2.968 -0.1151 -0.0892  0.4548
 2658SOL    HW2 9982   7.050   8.636   2.911  1.1106  0.3148 -2.8130
 2659SOL     OW 9983   1.566   8.214   0.051 -0.1041  0.3082  0.6561
 2659SOL    HW1 9984   1.492   8.206   0.111 -0.8095 -0.9381 -0.3209
 2659SOL    HW2 9985   1.532   8.266  -0.022  0.6313  1.4922  1.1297
 2660SOL     OW 9986   8.409   4.250   9.847  1.1286 -0.7723 -1.0163
 2660SOL    HW1 9987   8.414   4.284   9.758 -0.4395 -1.6712 -1.4919
 2660SOL    HW2 9988   8.331   4.292   9.885  1.2651 -1.0805 -0.3774
 2661SOL     OW 9989   3.350   5.127   0.192 -0.1995 -0.7672 -0.1258
 2661SOL    HW1 9990   3.301   5.193   0.242 -0.4982 -0.4131 -0.8631
 2661SOL    HW2 9991   3.390   5.071   0.259 -1.8597 -1.2716  0.5062
 2662SOL     OW 9992  10.941   4.881   8.478 -0.5327  0.4325  0.0510
 2662SOL    HW1 9993  10.860   4.837   8.502 -0.5627 -0.4696 -1.5286
 2662SOL    HW2 9994  11.000   4.810   8.453 -0.5074  1.1994 -2.3403
 2663SOL     OW 9995   3.951   0.620   3.903 -0.4511 -0.1018 -0.1961
 2663SOL    HW1 9996   3.859   0.604   3.883 -0.0584 -0.9470 -1.5207
 2663SOL    HW2 9997   3.981   0.678   3.833 -0.0741  0.4998  0.4560
 2664SOL     OW 9998   7.371   7.461   1.992  0.5039 -0.3082  0.0033
 2664SOL    HW1 9999   7.430   7.534   1.976  0.0568  0.7086  2.6064
 2664SOL    HW210000   7.326   7.448   1.908 -0.0523  3.0427 -0.3531
 2665SOL     OW10001   4.367   9.062   3.887 -0.2373 -0.1609  0.1734
 2665SOL    HW110002   4.413   9.028   3.964  1.2861  0.2818 -0.4977
 2665SOL    HW210003   4.380   9.157   3.892 -2.8245  0.2283  1.0182
 2666SOL     OW10004  10.896   1.391   0.148  0.0229 -0.0252  0.0375
 2666SOL    HW110005  10.830   1.336   0.105 -1.3470  0.9949  0.7525
 2666SOL    HW210006  10.892   1.474   0.101 -1.2970  1.0124  1.8596
 2667SOL     OW10007   7.634   4.801   0.259  0.0884  0.3560  0.3040
 2667SOL    HW110008   7.702   4.736   0.242 -0.5493 -0.7075  1.5658
 2667SOL    HW210009   7.667   4.852   0.332 -0.4125 -0.1203  0.8767
 2668SOL     OW10010   4.274   3.933   6.906 -0.7047 -0.9441  0.7022
 2668SOL    HW110011   4.181   3.914   6.899 -1.0016  0.3310  0.9513
 2668SOL    HW210012   4.279   4.009   6.965  0.3841 -0.0957 -0.4307
 2669SOL     OW10013   2.672   1.157   2.321 -0.3826  0.0452 -0.2704
 2669SOL    HW110014   2.628   1.088   2.371  1.2251 -0.7918  0.0561
 2669SOL    HW210015   2.755   1.170   2.366 -0.7411  2.4293 -0.1644
 2670SOL     OW10016   3.198   9.112   0.601  0.0078 -0.0772 -0.0470
 2670SOL    HW110017   3.256   9.187   0.610 -0.2058 -0.0597  1.4186
 2670SOL    HW210018   3.157   9.102   0.687 -2.8375  0.4246 -1.2116
 2671SOL     OW10019   8.686   3.385   1.245  0.0805 -0.2646  0.6000
 2671SOL    HW110020   8.698   3.395   1.150  1.3226  0.5886  0.8324
 2671SOL    HW210021   8.593   3.403   1.259  0.2110  1.2117 -0.2649
 2672SOL     OW10022   9.771   6.859   0.336  0.4824 -0.2179 -0.0487
 2672SOL    HW110023   9.755   6.945   0.297 -1.9694  0.4096  2.0126
 2672SOL    HW210024   9.864   6.858   0.356  1.9210 -0.4813 -5.2264
 2673SOL     OW10025   8.939   9.010   6.616  0.0463 -0.2918 -0.1111
 2673SOL    HW110026   8.961   8.917   6.623  0.6010 -0.0525  2.6869
 2673SOL    HW210027   9.022   9.055   6.633 -0.5200  0.7003  0.1064
 2674SOL     OW10028  10.908   4.117   2.474  0.5211 -0.2993  0.2764
 2674SOL    HW110029  10.949   4.174   2.540 -0.2211 -0.3383  0.7824
 2674SOL    HW210030  10.817   4.146   2.470  0.8645  0.6696 -1.8154
 2675SOL     OW10031   3.923   5.032   0.636 -0.0161 -0.0053  0.3930
 2675SOL    HW110032   3.874   4.975   0.694 -1.4173 -0.4477 -1.1478
 2675SOL    HW210033   3.890   5.120   0.654 -1.3288 -0.2859 -0.5401
 2676SOL     OW10034   1.054   6.224   9.996  0.0498 -0.6653  0.9734
 2676SOL    HW110035   1.111   6.295   9.967 -2.0260  0.0318 -1.8128
 2676SOL    HW210036   1.032   6.246  10.086  0.1495  1.8256  0.4673
 2677SOL     OW10037   9.240   3.600   5.014  0.1331 -0.3836  0.8674
 2677SOL    HW110038   9.205   3.611   4.926  0.4323  1.6137  0.9600
 2677SOL    HW210039   9.335   3.599   5.002  0.2709  1.9178  1.2873
 2678SOL     OW10040   8.712   8.084   3.733  0.1002  0.2626 -0.2242
 2678SOL    HW110041   8.678   8.036   3.657 -0.2611  0.4211 -0.1610
 2678SOL    HW210042   8.701   8.023   3.806  0.8623 -0.0667 -0.3685
 2679SOL     OW10043   2.989   2.699   4.041 -0.2898  0.7524 -0.5636
 2679SOL    HW110044   2.979   2.711   3.946  0.2856 -0.5582 -0.8213
 2679SOL    HW210045   2.910   2.738   4.079 -1.1295  0.2010 -1.6750
 2680SOL     OW10046   8.604   1.773   2.625 -0.2528 -0.5561 -0.0724
 2680SOL    HW110047   8.529   1.741   2.675  0.1636  0.3070  1.1445
 2680SOL    HW210048   8.567   1.796   2.539 -0.7033 -3.5038 -0.8028
 2681SOL     OW10049   0.550   4.083   5.318  0.1887 -0.0428  0.6125
 2681SOL    HW110050   0.481   4.146   5.301  0.8656  0.0560 -2.2681
 2681SOL    HW210051   0.505   4.008   5.359 -1.3767  0.5242 -0.0083
 2682SOL     OW10052   9.557   2.862   4.031  0.1261 -0.3473  0.2384
 2682SOL    HW110053   9.647   2.883   4.008 -0.5716  2.6915 -0.1006
 2682SOL    HW210054   9.512   2.852   3.947 -0.8382  3.3027  0.1758
 2683SOL     OW10055   0.643   4.810   0.861  0.0184 -0.3170  0.1011
 2683SOL    HW110056   0.582   4.743   0.830  1.5388 -1.5542 -0.3233
 2683SOL    HW210057   0.586   4.878   0.898 -1.7871  0.0187 -2.9400
 2684SOL     OW10058   2.962   1.068   4.304  0.6065 -0.2588 -0.5072
 2684SOL    HW110059   3.028   1.041   4.240  2.1909  1.3116  0.3861
 2684SOL    HW210060   3.007   1.064   4.388 -0.1041  1.8776  0.0200
 2685SOL     OW10061   7.650   7.827   2.116  0.1986 -0.1043  0.4019
 2685SOL    HW110062   7.650   7.762   2.187 -0.5665  1.3079  1.7506
 2685SOL    HW210063   7.736   7.869   2.123 -0.8659  1.9514  2.4097
 2686SOL     OW10064   2.340   5.298   3.317 -0.9200 -0.0449 -0.5093
 2686SOL    HW110065   2.405   5.353   3.361 -0.8400 -0.3268 -0.2730
 2686SOL    HW210066   2.389   5.253   3.248 -0.5890 -1.1760  0.4291
 2687SOL     OW10067   1.756   4.646   9.098  0.4804 -0.5552 -0.5930
 2687SOL    HW110068   1.662   4.655   9.115  0.3506  0.3987 -1.7220
 2687SOL    HW210069   1.773   4.553   9.110 -0.5992 -0.7404 -0.3350
 2688SOL     OW10070   0.884   0.086   0.975  0.2526 -0.8957 -0.0693
 2688SOL    HW110071   0.813   0.111   0.915 -0.5409 -1.1902  0.7189
 2688SOL    HW210072   0.867  -0.006   0.995  1.1426 -1.1052 -0.2312
 2689SOL     OW10073   9.027   2.650   0.871 -0.2719 -0.1058 -0.4364
 2689SOL    HW110074   9.096   2.584   0.863  1.2426  1.0714  1.8382
 2689SOL    HW210075   9.016   2.685   0.783  0.5396 -1.7573 -1.2274
 2690SOL     OW10076   4.009   7.850   4.885  0.2402  0.2722 -0.3466
 2690SOL    HW110077   4.093   7.809   4.865 -0.1948  0.4175 -2.8848
 2690SOL    HW210078   4.030   7.941   4.904  0.7977 -0.0723  0.7100
 2691SOL     OW10079  10.532   0.950   6.710 -0.0370 -0.7521 -0.1046
 2691SOL    HW110080  10.494   0.939   6.797 -0.5891 -1.3008 -0.4085
 2691SOL    HW210081  10.608   1.007   6.724  0.0817 -1.1176  0.7834
 2692SOL     OW10082   2.421   3.924   1.196  0.1969  0.0366  0.0859
 2692SOL    HW110083   2.442   4.010   1.159  3.3328 -0.3897  0.5729
 2692SOL    HW210084   2.400   3.870   1.121 -0.4219  0.8776 -0.3586
 2693SOL     OW10085   8.989   6.981  10.734 -0.2836  1.0440  0.5837
 2693SOL    HW110086   9.008   7.067  10.697  0.3315  0.8792  0.5104
 2693SOL    HW210087   8.940   6.936  10.666  1.0480  0.6531 -0.1568
 2694SOL     OW10088   0.350   6.287  10.915 -0.3346  0.8297 -0.2507
 2694SOL    HW110089   0.337   6.252  11.003 -0.3368  1.0038 -0.1821
 2694SOL    HW210090   0.427   6.343  10.922 -0.1695  0.6285 -0.4225
 2695SOL     OW10091   5.007  10.315   6.818 -0.3014 -0.1210  0.2399
 2695SOL    HW110092   4.960  10.332   6.900  0.3293  0.0098  0.5812
 2695SOL    HW210093   5.055  10.234   6.834 -0.1305 -0.0652  0.0157
 2696SOL     OW10094   8.926   0.657   2.667  0.0580 -0.5778  0.0431
 2696SOL    HW110095   8.859   0.600   2.706  1.2530 -1.8710  0.2954
 2696SOL    HW210096   8.983   0.596   2.619  0.0101  0.6986 -1.7117
 2697SOL     OW10097   4.699   4.514   9.490  0.0694 -0.3564 -0.5860
 2697SOL    HW110098   4.720   4.479   9.577 -1.7208 -0.4124 -0.1521
 2697SOL    HW210099   4.724   4.606   9.495  1.2301 -0.6494 -0.4886
 2698SOL     OW10100   2.419   4.344   7.878  0.1985  0.2622  0.3736
 2698SOL    HW110101   2.386   4.255   7.892  0.6338  0.2722  1.6491
 2698SOL    HW210102   2.366   4.379   7.806  2.0866 -2.0707 -2.3493
 2699SOL     OW10103   7.604   5.215   3.437 -0.1581 -0.3071 -0.1450
 2699SOL    HW110104   7.514   5.208   3.405  0.2749  0.6680 -1.6662
 2699SOL    HW210105   7.616   5.309   3.455  0.7477 -0.3211 -0.6026
 2700SOL     OW10106   0.445   3.062   5.031 -0.4849  0.8254 -0.3851
 2700SOL    HW110107   0.472   3.149   5.061  0.2390  0.2207  0.7419
 2700SOL    HW210108   0.396   3.025   5.105  1.6564 -0.8396  0.2867
 2701SOL     OW10109  10.816   5.251   0.926  0.0649 -0.0954  0.0631
 2701SOL    HW110110  10.873   5.317   0.966 -2.5158  1.7383  0.9890
 2701SOL    HW210111  10.737   5.252   0.980 -1.5273 -1.3200 -2.0983
 2702SOL     OW10112   5.154   2.671   1.567 -0.0045 -0.3691  0.1287
 2702SOL    HW110113   5.077   2.701   1.518 -0.1321 -1.2637 -0.2290
 2702SOL    HW210114   5.227   2.717   1.526 -0.3405  0.5296  0.5059
 2703SOL     OW10115   5.569   8.833   4.589  0.6026  0.0885 -0.0624
 2703SOL    HW110116   5.642   8.778   4.618 -0.1824 -0.4069  1.0038
 2703SOL    HW210117   5.491   8.794   4.627 -0.3146  0.3338 -1.5790
 2704SOL     OW10118   3.374   7.004   3.173 -0.1361 -0.0586  0.3675
 2704SOL    HW110119   3.343   6.951   3.099 -0.8741  0.7269  0.0973
 2704SOL    HW210120   3.297   7.014   3.229 -0.2961  1.5796 -0.0999
 2705SOL     OW10121  11.014   7.066   2.676  0.3899  0.2868  0.2559
 2705SOL    HW110122  11.096   7.025   2.651 -0.1137 -0.9404  0.5186
 2705SOL    HW210123  10.987   7.019   2.755 -0.1791  1.1907  0.6143
 2706SOL     OW10124   4.376   5.397   6.304  0.4389 -0.7274 -0.0860
 2706SOL    HW110125   4.420   5.365   6.383  1.4542 -0.1664 -0.4075
 2706SOL    HW210126   4.441   5.452   6.261 -0.2513 -0.6831 -1.1028
 2707SOL     OW10127   6.620   1.110   7.216 -0.6156  0.2247 -0.0733
 2707SOL    HW110128   6.644   1.133   7.306 -0.3521 -0.3223 -0.0002
 2707SOL    HW210129   6.561   1.181   7.188 -0.7932  0.3383  0.5675
 2708SOL     OW10130  10.507   0.745  10.490  0.6961  0.2518  0.2924
 2708SOL    HW110131  10.438   0.779  10.547  1.0688  1.2615  0.1550
 2708SOL    HW210132  10.561   0.821  10.468  0.9861 -0.2439 -0.8163
 2709SOL     OW10133   2.679  10.598   8.756 -0.7212 -0.0612  0.0277
 2709SOL    HW110134   2.723  10.669   8.801  0.0592 -0.8863  0.6025
 2709SOL    HW210135   2.589  10.600   8.789 -0.6781  0.5823  0.1113
 2710SOL     OW10136   7.193   1.625   3.828 -0.1604 -0.3687  0.2559
 2710SOL    HW110137   7.217   1.629   3.736  0.1378  0.0256  0.3475
 2710SOL    HW210138   7.190   1.716   3.856  0.7596 -0.5170  0.8903
 2711SOL     OW10139   0.021   6.504   9.364 -0.1030 -0.0274 -0.1326
 2711SOL    HW110140  -0.034   6.455   9.303  1.5586 -0.8739 -1.0164
 2711SOL    HW210141   0.109   6.498   9.327  0.2111  3.9627 -0.5136
 2712SOL     OW10142   7.083   3.299   3.036  0.5661  0.7242 -0.3901
 2712SOL    HW110143   7.148   3.368   3.026  0.6717  0.7159  0.2513
 2712SOL    HW210144   7.004   3.336   2.995  0.7641  1.0209 -0.5120
 2713SOL     OW10145   2.121   4.651   4.916  0.0177  0.0838 -0.2463
 2713SOL    HW110146   2.188   4.594   4.955 -0.0986 -0.3315 -0.6481
 2713SOL    HW210147   2.130   4.639   4.822 -2.1288 -1.7890 -0.3044
 2714SOL     OW10148   0.047   0.373   3.276  0.5358  0.1844 -0.0829
 2714SOL    HW110149  -0.030   0.378   3.220 -0.2456  0.2326  0.9626
 2714SOL    HW210150   0.109   0.320   3.226 -0.3720 -0.3166 -0.7164
 2715SOL     OW10151   4.882   4.875   2.265  0.1418 -0.3295  0.8414
 2715SOL    HW110152   4.859   4.927   2.187 -2.8307 -1.6086  0.7320
 2715SOL    HW210153   4.865   4.934   2.339 -1.4670 -0.5010  0.6464
 2716SOL     OW10154   9.224  10.914  10.028 -0.1456  0.1193  0.1805
 2716SOL    HW110155   9.223  11.010  10.034 -1.3112  0.1099  0.3960
 2716SOL    HW210156   9.147  10.893   9.975  0.2639 -0.6943 -0.1046
 2717SOL     OW10157   0.436   0.048   3.570 -0.0401 -0.2367 -0.2363
 2717SOL    HW110158   0.431  -0.047   3.561 -2.4425 -0.3655  1.3540
 2717SOL    HW210159   0.434   0.063   3.665 -2.4505  1.3871 -0.4457
 2718SOL     OW10160  10.051   6.868  10.624  0.0121  0.2377  0.2146
 2718SOL    HW110161  10.146   6.877  10.618  0.0670  0.0455  0.7726
 2718SOL    HW210162  10.017   6.932  10.562  0.4612  1.3919  1.1443
 2719SOL     OW10163   4.404  11.049   2.398  0.9732 -0.6058 -0.1275
 2719SOL    HW110164   4.383  11.056   2.305  1.2037 -2.1485 -0.3203
 2719SOL    HW210165   4.338  10.990   2.434  0.0703  1.0010  1.0071
 2720SOL     OW10166   9.194   1.412   0.376 -0.2493 -0.2315  0.1512
 2720SOL    HW110167   9.287   1.400   0.357  0.1186  0.3218  1.5333
 2720SOL    HW210168   9.159   1.323   0.380 -0.2791 -0.4355 -2.4936
 2721SOL     OW10169   9.432   3.050   0.811 -0.2494  0.1269  0.0014
 2721SOL    HW110170   9.415   2.963   0.847  0.0876 -0.1812 -0.5754
 2721SOL    HW210171   9.390   3.110   0.873  0.2917 -0.3878  0.8948
 2722SOL     OW10172   7.798   9.655   7.782 -0.1330  0.2378  0.3010
 2722SOL    HW110173   7.849   9.591   7.832  0.9317  0.7608 -0.0826
 2722SOL    HW210174   7.767   9.718   7.847 -0.6944 -0.3403  0.6003
 2723SOL     OW10175   2.464  10.309   2.716  0.0880 -0.5439  0.0523
 2723SOL    HW110176   2.405  10.349   2.653  0.1340 -1.7886 -0.8138
 2723SOL    HW210177   2.551  10.338   2.689 -0.1161  2.4529  2.1662
 2724SOL     OW10178   0.178   2.255   9.045  0.7314  0.0591 -0.6282
 2724SOL    HW110179   0.092   2.289   9.069  0.7033  1.3943 -2.4225
 2724SOL    HW210180   0.234   2.274   9.120 -0.5025 -0.8869  0.5969
 2725SOL     OW10181   5.355   2.599   9.465  0.0119 -0.3779 -0.2472
 2725SOL    HW110182   5.266   2.601   9.499  0.3733  1.5435  0.7385
 2725SOL    HW210183   5.375   2.690   9.443  2.1996 -0.5039  0.8978
 2726SOL     OW10184   8.373   0.157   0.757  0.5359 -0.2552 -0.3538
 2726SOL    HW110185   8.440   0.152   0.689  1.7718  0.2594  0.7937
 2726SOL    HW210186   8.352   0.066   0.777  0.2122 -0.4113 -1.3572
 2727SOL     OW10187   8.962   8.894   9.257  0.3609  0.2257 -0.0490
 2727SOL    HW110188   8.893   8.916   9.195  0.6918 -0.2272 -0.5856
 2727SOL    HW210189   9.029   8.961   9.243 -0.3792  1.2674  1.1748
 2728SOL     OW10190   0.471   6.459   0.343 -0.9305  0.2742 -0.4186
 2728SOL    HW110191   0.422   6.451   0.425 -1.0643 -0.3968 -0.5531
 2728SOL    HW210192   0.411   6.503   0.284 -1.0367  0.2737 -0.3125
 2729SOL     OW10193   7.571   7.599   2.934  0.5009  0.3035 -0.5331
 2729SOL    HW110194   7.582   7.510   2.902 -0.5749  0.9870 -3.0560
 2729SOL    HW210195   7.555   7.589   3.028 -0.7136 -2.2473 -0.9194
 2730SOL     OW10196  10.713   6.055   0.749  0.5209 -0.3773 -0.5456
 2730SOL    HW110197  10.725   5.971   0.704  0.0282 -0.4172 -0.6143
 2730SOL    HW210198  10.618   6.070   0.746  0.3181 -0.9487  1.4992
 2731SOL     OW10199   3.411   6.492   9.895  0.0632  0.4490  0.3788
 2731SOL    HW110200   3.425   6.483   9.990 -0.5365 -1.8800  0.3084
 2731SOL    HW210201   3.499   6.500   9.859  0.5253 -1.4570  0.9554
 2732SOL     OW10202   8.088   9.106   2.932  0.2547  0.1022  0.3300
 2732SOL    HW110203   8.170   9.056   2.935 -0.5537 -1.3506 -0.5200
 2732SOL    HW210204   8.020   9.039   2.931 -1.0203  1.2847  2.1155
 2733SOL     OW10205   2.046   2.915   4.398  0.3811 -0.1726  0.2297
 2733SOL    HW110206   2.054   2.872   4.483  0.2520  0.9455  0.8206
 2733SOL    HW210207   2.124   2.970   4.391 -0.8846  1.8125  0.8476
 2734SOL     OW10208   9.100   3.622   9.829  0.4525  0.5497  0.0545
 2734SOL    HW110209   9.018   3.671   9.821  0.5285  0.6683 -0.0040
 2734SOL    HW210210   9.094   3.579   9.914  0.0306  0.0108 -0.2364
 2735SOL     OW10211  10.118  10.454   0.893 -0.4550  0.3545  0.0898
 2735SOL    HW110212  10.116  10.360   0.912 -0.7983  0.1327 -0.9829
 2735SOL    HW210213  10.049  10.467   0.827  0.0088  1.2546 -0.2318
 2736SOL     OW10214   2.606   7.026   5.107  0.1938 -0.3999  0.4077
 2736SOL    HW110215   2.637   7.116   5.110 -0.3739 -0.1863  0.0683
 2736SOL    HW210216   2.669   6.981   5.051  0.5685 -0.2573  0.7037
 2737SOL     OW10217   4.852   6.855   7.992 -0.6312  0.7402  0.0643
 2737SOL    HW110218   4.833   6.871   7.900  0.7545 -1.0716 -0.5941
 2737SOL    HW210219   4.777   6.805   8.024 -2.1817  3.1850  0.6076
 2738SOL     OW10220   5.921   3.211   2.266 -0.0018 -0.2718  0.4047
 2738SOL    HW110221   5.835   3.208   2.224  0.3019 -0.9658 -0.1964
 2738SOL    HW210222   5.966   3.133   2.233  0.5163 -0.4329  1.4672
 2739SOL     OW10223   6.673   6.215   0.988 -0.3332 -0.0919 -0.0505
 2739SOL    HW110224   6.730   6.286   0.956  1.8728 -1.9731 -0.5250
 2739SOL    HW210225   6.621   6.191   0.912  2.5987 -2.3471 -1.5379
 2740SOL     OW10226   5.503   8.262   3.962  0.5857 -0.6774  0.6675
 2740SOL    HW110227   5.498   8.212   4.043  0.9804 -1.0193  0.4801
 2740SOL    HW210228   5.594   8.255   3.934  0.6042 -0.0179  0.5351
 2741SOL     OW10229   1.444   7.572   1.075 -0.2827  0.2680 -0.1721
 2741SOL    HW110230   1.536   7.593   1.058 -0.6292  1.0018 -1.2896
 2741SOL    HW210231   1.404   7.656   1.097 -0.8627  0.1149 -0.6059
 2742SOL     OW10232   4.927   4.921   8.817 -0.0729  0.6836 -0.1989
 2742SOL    HW110233   4.901   4.838   8.778  1.8725  0.6150 -1.5179
 2742SOL    HW210234   5.019   4.909   8.840  0.1035  2.2952  0.1012
 2743SOL     OW10235   2.691   5.148  10.362  0.0370 -0.1923  0.2189
 2743SOL    HW110236   2.684   5.063  10.404  0.3711  0.6171  1.9835
 2743SOL    HW210237   2.639   5.207  10.417  0.4453  0.9025 -0.5220
 2744SOL     OW10238   3.389   6.158   4.154  0.1109  0.1782  0.2740
 2744SOL    HW110239   3.385   6.226   4.087 -2.6725  0.3554  0.4852
 2744SOL    HW210240   3.360   6.078   4.110  1.4206 -0.4547  0.5168
 2745SOL     OW10241   7.155   1.410   0.153  0.4418  0.2001  0.0153
 2745SOL    HW110242   7.126   1.501   0.149  0.3156  0.2240  1.0247
 2745SOL    HW210243   7.074   1.359   0.159  0.5320  0.0813  0.2539
 2746SOL     OW10244   3.770   2.040   5.732 -0.4080  0.3132  0.1624
 2746SOL    HW110245   3.819   2.120   5.713 -1.4901  0.7922 -0.7076
 2746SOL    HW210246   3.811   1.973   5.677 -1.4048  0.9588 -1.4417
 2747SOL     OW10247  10.554   3.189   4.389  0.3810  0.2161 -0.1183
 2747SOL    HW110248  10.624   3.216   4.448  1.1071 -1.0740 -0.3344
 2747SOL    HW210249  10.581   3.102   4.360 -1.1643 -0.1735 -0.4556
 2748SOL     OW10250   1.991   6.566   8.979  0.2810  0.0255 -0.0196
 2748SOL    HW110251   1.985   6.495   9.043  0.4779  1.3720  1.5678
 2748SOL    HW210252   1.900   6.586   8.956  0.1612  0.1238  0.5305
 2749SOL     OW10253   3.241   5.375   3.081  0.2928 -0.0698  0.5291
 2749SOL    HW110254   3.327   5.347   3.112  1.1361 -1.4614 -2.6459
 2749SOL    HW210255   3.181   5.306   3.108  0.2396  0.5801  2.1772
 2750SOL     OW10256   5.602   3.479   6.671 -0.5582 -0.0332 -0.4361
 2750SOL    HW110257   5.645   3.549   6.622  1.6642 -0.5327  0.6241
 2750SOL    HW210258   5.585   3.517   6.757 -0.7296 -0.3321 -0.3366
 2751SOL     OW10259   9.309   9.186   8.674 -0.9961 -0.7368  0.3822
 2751SOL    HW110260   9.249   9.190   8.600 -0.6966  0.0194  0.1704
 2751SOL    HW210261   9.386   9.235   8.646 -0.0018 -2.2155  0.4118
 2752SOL     OW10262   6.301   1.421   6.211 -0.3833  0.7398 -0.6152
 2752SOL    HW110263   6.283   1.480   6.137  0.1351  0.3473 -1.0624
 2752SOL    HW210264   6.395   1.427   6.224 -0.2551 -0.3386 -0.9650
 2753SOL     OW10265   7.572   7.993   9.754  0.2748  0.2889  0.5240
 2753SOL    HW110266   7.532   7.944   9.827  0.7748 -1.6764 -0.4438
 2753SOL    HW210267   7.497   8.018   9.700 -0.0909  1.6561  1.6034
 2754SOL     OW10268  10.600   1.017  10.721  0.0922 -0.3602  0.5966
 2754SOL    HW110269  10.562   0.933  10.746  1.0011 -1.2915 -1.0094
 2754SOL    HW210270  10.694   1.000  10.716  0.3019  0.7870  0.3756
 2755SOL     OW10271   2.089   8.035   5.102  0.1450  0.8024  0.4555
 2755SOL    HW110272   2.024   8.068   5.164 -0.7836  0.7656 -0.4712
 2755SOL    HW210273   2.105   7.945   5.130 -0.1491  0.8347  0.7341
 2756SOL     OW10274   3.306   7.110   0.879  0.1030 -0.3520 -0.4272
 2756SOL    HW110275   3.342   7.069   0.958 -2.3448 -0.9300  0.4780
 2756SOL    HW210276   3.333   7.201   0.886  2.4109 -0.9487 -0.5112
 2757SOL     OW10277   3.262   5.933   3.954 -0.5697 -0.1932  0.2787
 2757SOL    HW110278   3.186   5.920   4.010 -1.5716  0.3654 -0.8980
 2757SOL    HW210279   3.261   6.027   3.933 -1.8567 -0.7691 -2.8116
 2758SOL     OW10280   9.826   5.599   3.127 -0.4834  0.0262  0.8819
 2758SOL    HW110281   9.766   5.527   3.107  0.6739 -0.7014 -0.0895
 2758SOL    HW210282   9.785   5.645   3.201 -1.7001 -1.0635  0.9110
 2759SOL     OW10283   3.330   0.963   5.861  0.0474  0.3584  0.0507
 2759SOL    HW110284   3.374   0.948   5.778 -2.1961  2.4996 -1.6634
 2759SOL    HW210285   3.326   0.877   5.903  1.5183 -0.7098 -1.8674
 2760SOL     OW10286   7.766   2.052  10.592  0.4304 -0.0446 -0.3512
 2760SOL    HW110287   7.740   2.079  10.504  1.6297 -0.6502 -0.9048
 2760SOL    HW210288   7.849   2.097  10.607  0.6505 -0.6085  0.1434
 2761SOL     OW10289   3.417   6.992   1.132  0.1291 -0.5211  0.1656
 2761SOL    HW110290   3.333   6.996   1.176 -0.5669  1.8489 -1.2477
 2761SOL    HW210291   3.474   7.052   1.181 -0.7423  2.3906 -2.1177
 2762SOL     OW10292   3.175   8.926  11.064 -0.7235  0.0537  0.3339
 2762SOL    HW110293   3.271   8.930  11.066 -0.7425  0.5432  0.4354
 2762SOL    HW210294   3.152   8.950  10.974 -0.7581  0.1222  0.3613
 2763SOL     OW10295   0.764   4.761   2.391  0.4029 -0.0561 -0.0312
 2763SOL    HW110296   0.841   4.808   2.361  0.4853  0.1822  0.5297
 2763SOL    HW210297   0.769   4.675   2.350  0.5681  0.2223 -0.5894
 2764SOL     OW10298   0.235   3.260   3.518 -0.9818  1.0460 -0.0475
 2764SOL    HW110299   0.226   3.166   3.531 -2.2881  0.6830 -2.8098
 2764SOL    HW210300   0.321   3.271   3.478 -1.4129  0.8328 -1.0470
 2765SOL     OW10301   1.331   1.536   5.349  0.2405 -0.2500 -0.0793
 2765SOL    HW110302   1.424   1.558   5.345  0.1846  0.2545  0.9510
 2765SOL    HW210303   1.327   1.457   5.403 -0.0574  0.9387  1.7648
 2766SOL     OW10304   6.046   3.558   2.658  0.0264  0.0014 -0.5008
 2766SOL    HW110305   6.017   3.517   2.576  0.3219 -1.3542  0.0430
 2766SOL    HW210306   6.133   3.521   2.674  0.5165  1.2282 -0.2186
 2767SOL     OW10307   4.018   4.502   5.268 -0.0261  0.0789  0.0421
 2767SOL    HW110308   3.958   4.562   5.313 -1.0854 -0.3897 -0.7075
 2767SOL    HW210309   4.076   4.469   5.337  0.9135  2.3096  0.4090
 2768SOL     OW10310   2.083   4.420   4.081  0.1307 -0.1343  0.8660
 2768SOL    HW110311   2.023   4.346   4.083  0.2452 -0.2673  0.0842
 2768SOL    HW210312   2.164   4.386   4.118  0.0434 -0.2619  0.9420
 2769SOL     OW10313   6.874   8.809   0.454  0.1911 -0.7234 -0.5225
 2769SOL    HW110314   6.942   8.745   0.472  0.2872 -0.7293 -0.8919
 2769SOL    HW210315   6.917   8.875   0.399 -0.4740 -1.5101 -2.0567
 2770SOL     OW10316   4.005   6.495   9.742  0.4196  0.0184  0.8291
 2770SOL    HW110317   4.095   6.472   9.720  0.6921  0.6776  1.2248
 2770SOL    HW210318   3.957   6.489   9.659  0.7299 -0.7454  0.6941
 2771SOL     OW10319  10.703   5.590   6.807 -0.3018  0.1052  0.4541
 2771SOL    HW110320  10.766   5.633   6.750 -1.1316  0.0577 -0.5329
 2771SOL    HW210321  10.634   5.655   6.820 -1.4447 -0.7941 -0.8497
 2772SOL     OW10322   0.751   4.172   9.458 -0.2719 -0.0330  0.0493
 2772SOL    HW110323   0.822   4.110   9.475 -1.8739 -1.7971  0.6959
 2772SOL    HW210324   0.732   4.161   9.364 -3.4787 -4.1304  0.8361
 2773SOL     OW10325   8.132   8.973   8.659 -1.0821  1.0458  0.0822
 2773SOL    HW110326   8.078   8.941   8.732  1.6173 -1.9075  1.0066
 2773SOL    HW210327   8.215   8.997   8.700  0.1704  0.2564 -1.8873
 2774SOL     OW10328   4.355   7.037   3.189  0.0887 -0.1840 -0.3160
 2774SOL    HW110329   4.400   7.048   3.273  0.3279 -0.3155 -0.4276
 2774SOL    HW210330   4.337   7.127   3.160 -0.3637 -0.1429  0.0717
 2775SOL     OW10331   8.637   2.781  10.979 -0.5126  0.4427  0.7004
 2775SOL    HW110332   8.617   2.703  10.927 -0.7108 -0.3364  1.9078
 2775SOL    HW210333   8.554   2.830  10.982 -0.9711 -0.3595  1.6681
 2776SOL     OW10334   9.815   3.029   3.284  0.0526 -0.1403  0.4575
 2776SOL    HW110335   9.764   3.096   3.330  0.2211  1.3655 -1.4063
 2776SOL    HW210336   9.861   3.077   3.215 -0.0124 -2.1997 -1.1354
 2777SOL     OW10337   0.823   2.177   0.465 -0.2692 -0.0952  0.3457
 2777SOL    HW110338   0.866   2.186   0.380 -0.7020 -0.1467  0.1184
 2777SOL    HW210339   0.893   2.150   0.525  0.0800  0.1462  0.0513
 2778SOL     OW10340   1.335   8.738   9.564 -0.2109 -0.0460  0.3514
 2778SOL    HW110341   1.427   8.723   9.543 -0.3873 -1.5704  0.5299
 2778SOL    HW210342   1.310   8.663   9.617 -1.0089  1.4322  2.1545
 2779SOL     OW10343   2.141   4.512   2.607  0.0054  0.5805 -0.7360
 2779SOL    HW110344   2.140   4.417   2.618 -2.5793  0.7284  1.0002
 2779SOL    HW210345   2.052   4.534   2.581  0.8787  2.4704 -2.4434
 2780SOL     OW10346   0.486   1.536   6.273 -0.0280  0.0328 -0.4153
 2780SOL    HW110347   0.432   1.608   6.305 -2.2128 -1.6733 -0.0298
 2780SOL    HW210348   0.551   1.522   6.341 -0.2918  0.9166  0.0233
 2781SOL     OW10349   0.029  10.361   0.940 -0.5256  0.2089  0.0774
 2781SOL    HW110350  -0.009  10.388   1.023 -0.3158 -0.3328  0.3537
 2781SOL    HW210351  -0.015  10.278   0.919 -0.4430  0.2469 -0.2628
 2782SOL     OW10352   3.594   6.797   5.768 -0.5777 -0.9229 -0.0292
 2782SOL    HW110353   3.639   6.751   5.839 -0.5390 -1.2633 -0.2738
 2782SOL    HW210354   3.644   6.879   5.758 -1.6420 -0.0207  1.5320
 2783SOL     OW10355   0.576   4.622   0.129 -0.1936 -0.6284 -0.1531
 2783SOL    HW110356   0.520   4.545   0.142  0.1928 -1.0786 -1.0357
 2783SOL    HW210357   0.514   4.695   0.124 -0.5100 -0.7559  1.4840
 2784SOL     OW10358   3.682   4.272   0.785  0.4519  0.1287  0.2876
 2784SOL    HW110359   3.612   4.334   0.804 -2.8197 -3.3891  0.7672
 2784SOL    HW210360   3.678   4.259   0.691  1.3252  0.7153  0.1473
 2785SOL     OW10361   7.509  11.019   6.804  0.0291  0.9222  0.6152
 2785SOL    HW110362   7.491  11.111   6.823  1.2364  1.6085 -1.2203
 2785SOL    HW210363   7.597  11.020   6.766 -0.4233 -0.8221 -0.5940
 2786SOL     OW10364   3.026  11.084   5.826 -0.1881  0.5240 -0.3808
 2786SOL    HW110365   3.056  11.007   5.778  1.5767  2.2401 -2.2310
 2786SOL    HW210366   3.093  11.097   5.893 -0.7444  0.2107  0.2514
 2787SOL     OW10367   9.250   5.269   1.913  0.0186 -0.1288  1.1052
 2787SOL    HW110368   9.331   5.286   1.962  0.0173 -3.6012  2.5987
 2787SOL    HW210369   9.180   5.286   1.976 -0.2721  0.1358  0.7139
 2788SOL     OW10370   0.197   0.300   0.203  0.5130 -0.1176 -0.0093
 2788SOL    HW110371   0.103   0.280   0.201  0.4593  0.1555 -0.4211
 2788SOL    HW210372   0.210   0.361   0.131  1.3111 -1.4804 -1.0770
 2789SOL     OW10373   1.010   3.856   9.758 -0.1045  0.7845 -0.4964
 2789SOL    HW110374   0.983   3.780   9.705 -0.4490 -0.9426  1.9897
 2789SOL    HW210375   1.100   3.873   9.729  0.2099 -0.9935 -0.7373
 2790SOL     OW10376   8.381   9.695   5.113 -0.3344 -0.0166  0.2036
 2790SOL    HW110377   8.337   9.634   5.054 -1.7227 -0.1010  1.2691
 2790SOL    HW210378   8.473   9.666   5.113 -0.8991 -2.0027  0.5042
 2791SOL     OW10379  10.929   8.782   3.078 -0.0273  0.2213 -0.2049
 2791SOL    HW110380  10.922   8.690   3.103 -1.6771 -0.0653 -1.5428
 2791SOL    HW210381  10.880   8.829   3.145 -1.5368 -0.1927 -0.9696
 2792SOL     OW10382   6.531   7.382   2.775  0.2589  0.1594 -0.0322
 2792SOL    HW110383   6.446   7.407   2.737 -0.5070  1.3640  2.3091
 2792SOL    HW210384   6.530   7.286   2.776 -0.2533  0.1134 -1.7023
 2793SOL     OW10385   1.261   0.974   8.358 -0.0438  0.1148 -0.0217
 2793SOL    HW110386   1.293   0.909   8.296  1.9025  2.1408 -1.3040
 2793SOL    HW210387   1.319   0.966   8.434  0.0806  0.2203 -0.1047
 2794SOL     OW10388   0.069   7.329   7.513  0.2165 -0.3823  0.0307
 2794SOL    HW110389   0.013   7.275   7.457  1.4270 -0.9944 -0.6408
 2794SOL    HW210390   0.146   7.275   7.529  0.5511  0.3722  1.0626
 2795SOL     OW10391   2.822   6.536   9.473  0.2339  0.3580  0.3674
 2795SOL    HW110392   2.805   6.553   9.381 -1.7151 -0.3990  0.5463
 2795SOL    HW210393   2.839   6.622   9.511  0.5683  0.7233 -0.5919
 2796SOL     OW10394   6.183   6.504   4.177  0.3122 -0.4098 -0.4874
 2796SOL    HW110395   6.210   6.418   4.210  0.9009 -0.5677 -1.3494
 2796SOL    HW210396   6.262   6.541   4.139  0.1522  0.6972  0.2187
 2797SOL     OW10397   1.840   6.184   6.557 -0.5025 -0.2920  0.1969
 2797SOL    HW110398   1.888   6.146   6.483  0.1849  1.6238 -0.3950
 2797SOL    HW210399   1.851   6.120   6.627  1.0820 -0.9337 -0.5712
 2798SOL     OW10400   7.643   7.101   7.759 -0.2214 -0.6457 -0.3594
 2798SOL    HW110401   7.703   7.135   7.825  0.3867 -0.4899 -0.9778
 2798SOL    HW210402   7.686   7.022   7.726  0.3495  0.2115 -1.7828
 2799SOL     OW10403   4.809   3.634   4.179  0.1142  0.2011 -0.1556
 2799SOL    HW110404   4.868   3.560   4.162 -1.4070 -0.8449 -1.1942
 2799SOL    HW210405   4.831   3.663   4.267  2.8090  0.4897 -0.8314
 2800SOL     OW10406   1.255   4.669   0.324 -0.2071  0.4045 -0.7824
 2800SOL    HW110407   1.169   4.711   0.324 -0.6515 -0.4571 -0.5581
 2800SOL    HW210408   1.297   4.698   0.244 -0.6150  1.0248 -0.7775
 2801SOL     OW10409   7.191   6.400   7.567  0.0550 -0.0008 -0.2140
 2801SOL    HW110410   7.239   6.325   7.600  0.2527 -0.1052 -0.7346
 2801SOL    HW210411   7.245   6.476   7.591 -0.0531 -0.0333  0.1436
 2802SOL     OW10412   7.486   8.182   3.703  0.0730 -0.1132 -0.4411
 2802SOL    HW110413   7.427   8.116   3.739  0.7442 -0.3137  0.3135
 2802SOL    HW210414   7.572   8.159   3.738  0.3356  1.0831 -0.2773
 2803SOL     OW10415   0.917   2.471   0.214  0.0900  0.3415 -0.1440
 2803SOL    HW110416   0.972   2.473   0.293 -1.5887  0.1373  1.0771
 2803SOL    HW210417   0.883   2.560   0.207 -0.7061  0.0540  0.0542
 2804SOL     OW10418   8.706   0.679   7.674 -0.6977  0.4019  0.2427
 2804SOL    HW110419   8.728   0.585   7.675 -1.3503  0.2508  0.3990
 2804SOL    HW210420   8.791   0.723   7.672 -0.2123 -0.1248  3.6478
 2805SOL     OW10421  10.293  10.932   3.896  0.0727 -0.3261  0.5800
 2805SOL    HW110422  10.382  10.963   3.880  0.5260 -2.0178 -0.4768
 2805SOL    HW210423  10.250  11.004   3.942  1.7069  0.8952  0.2862
 2806SOL     OW10424   0.965   4.505   8.042  0.9631  0.3016 -0.2698
 2806SOL    HW110425   0.889   4.506   7.984 -1.1670 -1.9443  2.1989
 2806SOL    HW210426   1.007   4.590   8.028 -1.3467  1.2116 -2.5264
 2807SOL     OW10427   1.017   0.773   2.114  0.2920  0.1122 -0.2877
 2807SOL    HW110428   0.985   0.722   2.040 -2.0595 -1.6758  1.7686
 2807SOL    HW210429   1.112   0.765   2.110  0.1453 -1.2834 -2.1698
 2808SOL     OW10430   8.498   0.804  11.034 -0.5463  0.2644  0.1941
 2808SOL    HW110431   8.429   0.870  11.027 -2.0294 -1.2254  0.3005
 2808SOL    HW210432   8.457   0.731  11.080  0.7011 -1.1874 -0.9053
 2809SOL     OW10433  10.139   2.637   1.014 -0.4534  0.0882  0.1321
 2809SOL    HW110434  10.193   2.664   0.940 -0.2222 -0.0918  0.2333
 2809SOL    HW210435  10.092   2.716   1.040 -0.6521  0.1138 -0.3059
 2810SOL     OW10436   5.582   5.788   3.673 -0.1068 -0.0006 -0.2100
 2810SOL    HW110437   5.579   5.843   3.751  1.8181 -1.9515  1.3559
 2810SOL    HW210438   5.627   5.841   3.608 -0.7179  1.2437  0.3573
 2811SOL     OW10439   7.195   8.600   1.059  0.7941 -0.0965  0.2952
 2811SOL    HW110440   7.169   8.690   1.077  2.4413  0.6093 -0.5789
 2811SOL    HW210441   7.177   8.552   1.140 -1.0396  0.7612  0.4444
 2812SOL     OW10442   6.532   9.704   9.874  0.1923  0.0778  0.1409
 2812SOL    HW110443   6.552   9.719   9.967 -0.0917 -0.1840  0.2481
 2812SOL    HW210444   6.613   9.724   9.828  0.0281  1.2409  0.3462
 2813SOL     OW10445   9.155   4.385   1.967  0.0256 -0.3753 -0.5786
 2813SOL    HW110446   9.216   4.312   1.975 -2.1025 -2.1809  0.1061
 2813SOL    HW210447   9.207   4.462   1.991  2.2889 -1.6481 -1.1306
 2814SOL     OW10448   4.909   4.523   2.984 -0.4551  0.0764  0.0411
 2814SOL    HW110449   4.935   4.612   3.006  0.4879 -0.4998  1.3600
 2814SOL    HW210450   4.838   4.503   3.045 -0.6482 -0.0956 -0.2347
 2815SOL     OW10451   7.502   5.377   3.811  0.1937  0.2109  0.0772
 2815SOL    HW110452   7.459   5.319   3.875 -0.2104  0.4903  0.0617
 2815SOL    HW210453   7.432   5.402   3.751  0.5492  0.0509 -0.4017
 2816SOL     OW10454   7.611   7.788   4.046 -0.0893 -0.8253  0.3211
 2816SOL    HW110455   7.547   7.739   3.994 -0.2508 -0.9504  0.6360
 2816SOL    HW210456   7.695   7.768   4.004 -0.0242 -2.1870  1.0358
 2817SOL     OW10457   4.658   0.412   9.274  0.1499 -0.6073 -0.4908
 2817SOL    HW110458   4.700   0.403   9.359 -1.0469 -1.0129  0.0920
 2817SOL    HW210459   4.728   0.439   9.215  0.9063  0.1815  0.7179
 2818SOL     OW10460   9.534   1.827   4.448  0.0725  0.4070 -0.3324
 2818SOL    HW110461   9.485   1.847   4.528 -0.5697 -2.1119 -0.0074
 2818SOL    HW210462   9.474   1.851   4.377 -0.0022  1.1215 -0.0418
 2819SOL     OW10463   4.479   7.777   8.818  0.0987  0.0011 -0.2292
 2819SOL    HW110464   4.481   7.727   8.900 -0.0100 -0.1183 -0.2999
 2819SOL    HW210465   4.559   7.830   8.821 -0.2716  0.5578  0.3035
 2820SOL     OW10466   7.720   1.945   3.298  0.2147  0.5550 -0.3079
 2820SOL    HW110467   7.760   1.875   3.246 -0.5282 -0.3949  0.3490
 2820SOL    HW210468   7.750   2.026   3.256  3.0849 -0.0485  0.3446
 2821SOL     OW10469   2.178   3.836   4.827 -0.3715  0.3033  0.3678
 2821SOL    HW110470   2.253   3.895   4.836  2.1430 -2.7659  1.6038
 2821SOL    HW210471   2.211   3.765   4.772 -3.7228  0.6073 -2.3765
 2822SOL     OW10472   7.127   3.765   9.098 -0.1468  0.0930  0.3569
 2822SOL    HW110473   7.145   3.815   9.019 -0.0853  1.2419  1.0720
 2822SOL    HW210474   7.194   3.697   9.099  1.5103  1.6456  0.7268
 2823SOL     OW10475   2.170   6.003   1.493 -0.4821 -0.0573  0.3586
 2823SOL    HW110476   2.234   5.960   1.436 -1.9106  0.3312 -1.6576
 2823SOL    HW210477   2.217   6.078   1.530  0.9430 -1.2147  0.9739
 2824SOL     OW10478   7.812   9.771   2.033 -0.2280 -0.3907  0.0267
 2824SOL    HW110479   7.745   9.708   2.004 -0.2148 -0.3965  0.0089
 2824SOL    HW210480   7.794   9.784   2.126 -0.0032 -0.7031  0.1147
 2825SOL     OW10481   3.954   7.394   7.835  0.0247 -0.1673  0.0894
 2825SOL    HW110482   3.875   7.376   7.783 -0.8262 -0.6483  1.4716
 2825SOL    HW210483   4.019   7.424   7.772 -0.9461 -0.7750 -1.2445
 2826SOL     OW10484   1.650   3.020   2.802  0.4269 -0.1263  0.5282
 2826SOL    HW110485   1.674   3.067   2.882  1.5927 -0.6948  0.5360
 2826SOL    HW210486   1.720   3.042   2.740 -0.9572  1.0741 -0.6823
 2827SOL     OW10487   2.537   4.820   0.889 -0.3998 -0.2050 -0.2839
 2827SOL    HW110488   2.461   4.783   0.844  0.1550 -0.2683 -1.1931
 2827SOL    HW210489   2.612   4.790   0.837  0.3671 -1.3197  1.3853
 2828SOL     OW10490   0.228   1.595   2.424  0.5553  0.6410 -0.2626
 2828SOL    HW110491   0.193   1.547   2.499  0.6952 -0.9234 -1.1493
 2828SOL    HW210492   0.260   1.678   2.461  1.4701 -0.4608  1.5658
 2829SOL     OW10493  10.280   1.522   3.026 -0.1304  0.4191 -0.0705
 2829SOL    HW110494  10.249   1.601   3.072  0.1556  0.6467 -0.2637
 2829SOL    HW210495  10.251   1.535   2.936 -0.5012  0.0749 -0.0041
 2830SOL     OW10496   5.394   0.909   8.842 -0.3915  0.3509  0.3991
 2830SOL    HW110497   5.446   0.951   8.774 -0.8412 -0.5938 -0.5493
 2830SOL    HW210498   5.459   0.865   8.898 -0.0368  0.9880  0.4957
 2831SOL     OW10499   4.726   4.670   2.580  0.6901 -0.3950 -0.3176
 2831SOL    HW110500   4.820   4.662   2.599  0.2695 -0.9852  1.8025
 2831SOL    HW210501   4.709   4.764   2.584  0.9766 -0.3645  0.6803
 2832SOL     OW10502   9.228   8.318   7.022 -0.5863  0.0367  0.0263
 2832SOL    HW110503   9.203   8.246   6.965 -0.3064 -0.2367  0.2480
 2832SOL    HW210504   9.305   8.287   7.069  1.7473  1.6992 -2.3557
 2833SOL     OW10505   3.276   5.819   8.539 -0.0551  0.2337 -0.2627
 2833SOL    HW110506   3.368   5.827   8.564 -0.1525  2.0053 -0.3659
 2833SOL    HW210507   3.230   5.882   8.594 -0.8903  0.9316 -1.6866
 2834SOL     OW10508   9.380   5.160   5.600  0.0125 -0.0390  0.1166
 2834SOL    HW110509   9.415   5.200   5.520  0.2909 -0.6301 -0.0649
 2834SOL    HW210510   9.294   5.200   5.611  0.1284  0.3245 -0.2707
 2835SOL     OW10511   8.964   6.808   9.580  0.4726 -0.0679 -0.1827
 2835SOL    HW110512   8.980   6.832   9.671 -0.9006  1.8176 -0.3866
 2835SOL    HW210513   8.941   6.715   9.584 -1.9745  0.5066  1.7636
 2836SOL     OW10514  10.484   4.460   3.690  0.3757 -0.7794  0.3758
 2836SOL    HW110515  10.542   4.411   3.632  0.4673  0.6187 -0.7564
 2836SOL    HW210516  10.434   4.517   3.632 -0.0471  0.1535  1.6160
 2837SOL     OW10517   1.607   6.244   0.827 -0.0073  0.5435 -0.6653
 2837SOL    HW110518   1.548   6.170   0.813  0.5482  0.0704 -0.5268
 2837SOL    HW210519   1.587   6.275   0.915 -1.6391  1.8390 -1.4257
 2838SOL     OW10520   6.767   1.777   6.802 -0.6233 -0.2801  0.6010
 2838SOL    HW110521   6.757   1.776   6.707 -2.7018  1.0432  0.7541
 2838SOL    HW210522   6.695   1.723   6.834  0.2819 -1.0303  1.4391
 2839SOL     OW10523   7.289   4.005   3.347 -0.3386  0.6645 -0.3545
 2839SOL    HW110524   7.253   4.093   3.338  0.3618  0.9124 -0.8583
 2839SOL    HW210525   7.285   3.986   3.441 -0.8663  1.0670 -0.2917
 2840SOL     OW10526   8.638   6.518   8.034  0.2718  0.9053 -0.5261
 2840SOL    HW110527   8.629   6.433   7.990  0.1781 -0.5926  2.1837
 2840SOL    HW210528   8.731   6.540   8.026  1.1378 -1.3510  1.7712
 2841SOL     OW10529   8.042   5.841   6.981 -0.2180  0.3423 -0.1748
 2841SOL    HW110530   8.137   5.839   6.966 -0.3197  0.4839 -0.8683
 2841SOL    HW210531   8.004   5.822   6.896 -0.8074 -1.6760  0.4817
 2842SOL     OW10532   1.356   3.905   4.204 -0.0716 -0.2018 -0.1895
 2842SOL    HW110533   1.395   3.824   4.236 -0.6125 -0.2591  0.3449
 2842SOL    HW210534   1.267   3.880   4.178 -0.0072  0.0773 -0.6980
 2843SOL     OW10535   9.267   4.743   4.632  0.1826  0.1706 -0.3825
 2843SOL    HW110536   9.334   4.706   4.574 -0.9659  2.2096 -3.2458
 2843SOL    HW210537   9.203   4.781   4.572 -1.5243  1.7669  2.2963
 2844SOL     OW10538   4.504  10.779   6.524 -0.4674  0.3053 -0.3442
 2844SOL    HW110539   4.498  10.871   6.501  1.4945  0.9067  1.3049
 2844SOL    HW210540   4.486  10.776   6.618  1.3683 -0.6960  0.0215
 2845SOL     OW10541   5.615   2.673  10.188  0.2577  0.4544 -0.2041
 2845SOL    HW110542   5.547   2.626  10.140  0.5355  0.4188 -0.5654
 2845SOL    HW210543   5.570   2.705  10.267  0.5340 -2.1561  1.1230
 2846SOL     OW10544   0.115   4.370   0.337  0.0111  0.1124  0.1164
 2846SOL    HW110545   0.084   4.400   0.423 -0.8322 -0.1285 -0.0878
 2846SOL    HW210546   0.067   4.289   0.322  1.4301 -0.7613  0.1643
 2847SOL     OW10547   8.201   2.189   7.391  0.0871  0.1597  0.1577
 2847SOL    HW110548   8.168   2.258   7.448 -0.6873  0.3295 -0.4710
 2847SOL    HW210549   8.224   2.118   7.450  1.5017  1.1783  0.8719
 2848SOL     OW10550   9.996   2.653   3.359 -0.3375 -0.5038  0.0861
 2848SOL    HW110551   9.939   2.730   3.359  0.3344  0.0515 -2.1070
 2848SOL    HW210552   9.992   2.619   3.269  2.4542 -0.6752 -0.0618
 2849SOL     OW10553   3.465   2.078   1.817  1.6734  0.2269 -0.3461
 2849SOL    HW110554   3.486   2.170   1.829  0.9420  0.3376  0.1401
 2849SOL    HW210555   3.545   2.031   1.841  0.8777  0.5317  3.3625
 2850SOL     OW10556  10.948   3.134   2.071 -0.0814 -0.0065  0.1816
 2850SOL    HW110557  10.966   3.059   2.127  4.1745 -1.0270 -2.1463
 2850SOL    HW210558  10.999   3.205   2.108 -1.5547  0.9077  0.5529
 2851SOL     OW10559   4.147  10.247   4.141  0.7215 -0.3205 -0.0705
 2851SOL    HW110560   4.088  10.207   4.204  1.4994 -1.1975  0.1081
 2851SOL    HW210561   4.232  10.205   4.156  1.7143  1.7377  0.4820
 2852SOL     OW10562   3.890   5.102   1.350 -0.0666  0.1937  0.1680
 2852SOL    HW110563   3.813   5.052   1.377  0.4718 -0.6239  0.2122
 2852SOL    HW210564   3.860   5.154   1.275 -0.9407  0.7073  0.8420
 2853SOL     OW10565   0.519   7.154   7.703 -0.2420 -0.4908  0.0610
 2853SOL    HW110566   0.536   7.247   7.685  0.7546 -0.5881  0.4340
 2853SOL    HW210567   0.472   7.154   7.786  0.2656 -0.3398  0.3552
 2854SOL     OW10568   4.130   0.115   9.327 -0.0678  0.3938  0.0417
 2854SOL    HW110569   4.107   0.161   9.246  1.5239 -0.2512 -0.8529
 2854SOL    HW210570   4.188   0.176   9.373  0.6802 -0.0141 -0.3301
 2855SOL     OW10571   5.357   3.010   7.096  0.0598 -0.0956 -0.2514
 2855SOL    HW110572   5.335   3.049   7.012  0.7553 -0.5792 -0.6635
 2855SOL    HW210573   5.346   2.916   7.083  2.3559 -0.3874 -0.5105
 2856SOL     OW10574   2.266   6.998  10.471 -0.3235  0.0915 -0.0457
 2856SOL    HW110575   2.191   7.046  10.506  0.2881  0.7704  0.3421
 2856SOL    HW210576   2.273   6.921  10.528  0.0097  0.6453  0.6782
 2857SOL     OW10577   2.854  10.031   2.825 -0.0988  0.3539  0.3899
 2857SOL    HW110578   2.882  10.107   2.774 -0.1799  0.1506  0.0431
 2857SOL    HW210579   2.837   9.963   2.760 -0.6161  0.2254  0.6571
 2858SOL     OW10580   5.916   6.521   0.953 -0.2789  0.1874 -0.5466
 2858SOL    HW110581   5.975   6.568   1.011 -1.0944  1.8606 -1.0110
 2858SOL    HW210582   5.913   6.573   0.873 -2.1655  0.0395 -0.6361
 2859SOL     OW10583   6.304   6.265   7.701  0.6078 -0.1242  0.2055
 2859SOL    HW110584   6.345   6.236   7.782 -3.3625  0.2708  2.6235
 2859SOL    HW210585   6.263   6.186   7.665  0.8631  0.0463 -0.4738
 2860SOL     OW10586   0.517   3.144   1.414 -0.0987  0.3850 -0.3754
 2860SOL    HW110587   0.517   3.195   1.332  0.2289  0.5927 -0.2481
 2860SOL    HW210588   0.552   3.205   1.479 -0.2861  0.1928 -0.0952
 2861SOL     OW10589  10.630   7.862   8.704 -0.8270 -0.1387  0.0098
 2861SOL    HW110590  10.676   7.872   8.788 -0.6470 -2.5681  0.2961
 2861SOL    HW210591  10.594   7.773   8.708 -0.5299 -0.4532 -2.6168
 2862SOL     OW10592   1.850   0.140   6.009 -0.0343  0.8106 -0.4259
 2862SOL    HW110593   1.875   0.229   5.984 -0.3412  0.9094 -0.3822
 2862SOL    HW210594   1.870   0.086   5.932 -0.0202  0.9456 -0.5157
 2863SOL     OW10595   5.481  10.407   1.463 -0.4914  0.0797 -0.0396
 2863SOL    HW110596   5.525  10.457   1.394 -1.7555  0.1731 -0.8097
 2863SOL    HW210597   5.515  10.318   1.454  0.0719  0.3042 -0.1480
 2864SOL     OW10598   2.001   0.725   3.957  0.5105 -0.4451  0.0612
 2864SOL    HW110599   2.078   0.682   3.994  0.0234 -1.4691 -0.0741
 2864SOL    HW210600   1.937   0.654   3.947 -1.1293  0.6813  1.9309
 2865SOL     OW10601   4.291   5.100   0.366 -0.2744  0.1727 -0.0033
 2865SOL    HW110602   4.221   5.131   0.308  0.7970  0.8374 -1.0080
 2865SOL    HW210603   4.253   5.026   0.412 -1.5229  0.2912 -0.7848
 2866SOL     OW10604   6.797   6.833  11.053 -0.1753  0.3129  0.2287
 2866SOL    HW110605   6.718   6.786  11.024  0.5017  0.4790 -2.0513
 2866SOL    HW210606   6.843   6.770  11.109 -0.7429 -0.6526 -0.3659
 2867SOL     OW10607   9.999   7.003   8.290 -0.2202 -0.0821 -0.3474
 2867SOL    HW110608   9.950   6.936   8.243 -0.5818 -0.1448  0.1079
 2867SOL    HW210609   9.933   7.047   8.344  0.3217 -0.5907  0.7637
 2868SOL     OW10610   2.089  10.867   2.822  0.2176 -0.3015 -0.1313
 2868SOL    HW110611   2.023  10.807   2.858 -0.0893  1.1938  1.9991
 2868SOL    HW210612   2.073  10.949   2.868  1.0552  1.2427 -2.4778
 2869SOL     OW10613   9.254   4.997   0.167  0.1820 -0.0667 -0.6040
 2869SOL    HW110614   9.260   4.957   0.253 -0.6089 -0.3502 -0.6660
 2869SOL    HW210615   9.306   4.941   0.110  0.5437  0.0095 -0.3480
 2870SOL     OW10616   9.396   9.010   9.441 -0.3204  0.2525  0.3130
 2870SOL    HW110617   9.315   9.061   9.439 -0.7468 -0.3307  1.6444
 2870SOL    HW210618   9.394   8.958   9.361 -1.6968 -0.3833  0.7293
 2871SOL     OW10619   1.556   4.841   3.502 -0.4479  0.4497  0.0145
 2871SOL    HW110620   1.550   4.790   3.422  0.8597 -0.5389  0.4963
 2871SOL    HW210621   1.580   4.777   3.569  0.7317  1.5890  0.7435
 2872SOL     OW10622   0.871   2.545   1.792 -0.5351 -0.2021 -0.1148
 2872SOL    HW110623   0.956   2.516   1.760 -0.4954 -1.3779  0.9554
 2872SOL    HW210624   0.888   2.575   1.881 -1.0339  0.7770 -0.3353
 2873SOL     OW10625   8.693   7.957   7.664 -0.5746 -0.1364 -0.1401
 2873SOL    HW110626   8.743   7.888   7.709  1.0718  1.8292  1.2378
 2873SOL    HW210627   8.746   8.036   7.676 -2.7037  1.5147 -1.0830
 2874SOL     OW10628  11.034   4.305   2.977  0.3055 -0.4048  0.0145
 2874SOL    HW110629  11.066   4.263   3.057  2.8305  1.2002 -0.0573
 2874SOL    HW210630  11.058   4.397   2.986 -1.6528  0.3267 -1.4973
 2875SOL     OW10631   0.216   9.721  10.978  0.0941 -0.2943 -0.0952
 2875SOL    HW110632   0.205   9.770  10.897  0.1102 -0.4698 -0.2045
 2875SOL    HW210633   0.251   9.636  10.951  0.3339 -0.2651  0.1198
 2876SOL     OW10634   0.809   7.187   1.353  0.9392 -0.2508 -0.2221
 2876SOL    HW110635   0.808   7.105   1.303 -2.2648 -0.2537 -0.3739
 2876SOL    HW210636   0.792   7.159   1.443  3.4157  0.0403  0.4083
 2877SOL     OW10637   4.433   8.544   1.857 -0.5446 -0.1853 -0.4399
 2877SOL    HW110638   4.510   8.586   1.821  0.4531 -0.6661  1.0367
 2877SOL    HW210639   4.373   8.616   1.878  0.4087  0.3818  0.4050
 2878SOL     OW10640   7.089  11.054   4.810 -0.0298  0.2577 -0.0453
 2878SOL    HW110641   7.003  11.084   4.838  0.0439 -0.7997  1.3656
 2878SOL    HW210642   7.143  11.133   4.811 -0.7150  0.7349  0.0594
 2879SOL     OW10643   5.805   1.820   0.058  0.4050  0.3206 -0.3590
 2879SOL    HW110644   5.736   1.857   0.114 -0.5142 -1.1863 -0.4591
 2879SOL    HW210645   5.887   1.855   0.095 -0.3706  2.2185 -0.2913
 2880SOL     OW10646   4.792   1.697   3.987 -0.1945 -0.0307 -0.2670
 2880SOL    HW110647   4.851   1.631   3.949 -0.5307 -0.6819  0.3202
 2880SOL    HW210648   4.835   1.723   4.068 -0.9923 -0.9380  0.4582
 2881SOL     OW10649   7.048   7.599   1.602  0.6266 -0.3970  0.3564
 2881SOL    HW110650   7.122   7.645   1.561  0.5887  1.8855  2.5895
 2881SOL    HW210651   6.970   7.640   1.565  0.4169 -2.1541 -1.2892
 2882SOL     OW10652   1.531   6.034   4.628  0.1967 -0.2575  0.3920
 2882SOL    HW110653   1.567   6.112   4.586  1.3585 -0.8908  0.1925
 2882SOL    HW210654   1.607   5.985   4.658 -0.5323 -1.1805  0.7827
 2883SOL     OW10655   6.745   1.050   0.404 -0.2046 -0.2788  0.1328
 2883SOL    HW110656   6.649   1.053   0.410 -0.2632  0.6156 -1.0153
 2883SOL    HW210657   6.764   0.966   0.363 -0.5036 -0.3353  0.1078
 2884SOL     OW10658   2.665   7.431   7.371  0.6141  0.0469  0.4133
 2884SOL    HW110659   2.671   7.481   7.452  1.8476 -1.6745  1.4525
 2884SOL    HW210660   2.665   7.497   7.302 -1.1440  1.5977  1.7858
 2885SOL     OW10661   8.458   8.676   4.875 -0.1269  0.4888  0.4369
 2885SOL    HW110662   8.477   8.743   4.941 -1.9077  1.2305  0.2478
 2885SOL    HW210663   8.427   8.725   4.799  0.3616 -0.4598 -0.4008
 2886SOL     OW10664   6.359   7.735   6.357  0.0786  0.2363  0.2100
 2886SOL    HW110665   6.435   7.744   6.414 -0.1341 -0.1358  0.5570
 2886SOL    HW210666   6.389   7.767   6.272  0.3474  0.9730  0.5700
 2887SOL     OW10667  10.535   2.823   7.008 -0.9228  1.0213  0.2582
 2887SOL    HW110668  10.517   2.915   7.030 -1.1436  1.2703 -0.8686
 2887SOL    HW210669  10.552   2.825   6.913 -1.0861 -0.1255  0.1984
 2888SOL     OW10670   5.820   6.893   5.814 -0.0023 -0.0361 -0.5209
 2888SOL    HW110671   5.882   6.823   5.833 -0.7756  0.0033  2.6491
 2888SOL    HW210672   5.860   6.972   5.850 -0.8467  0.4279 -0.5629
 2889SOL     OW10673   3.996   5.657   2.978 -0.1216 -0.1241 -0.3323
 2889SOL    HW110674   3.916   5.706   2.959  0.2299  0.1119 -1.2353
 2889SOL    HW210675   4.024   5.690   3.064 -1.3066 -0.6427  0.2943
 2890SOL     OW10676   3.821   3.585   7.867 -0.1162 -0.3277  0.5757
 2890SOL    HW110677   3.806   3.579   7.772  0.3889 -0.8826  0.5250
 2890SOL    HW210678   3.861   3.672   7.879  0.2574 -0.4482  0.2184
 2891SOL     OW10679   0.928   6.101   9.000 -0.0180 -0.4659 -0.0742
 2891SOL    HW110680   0.924   6.150   8.918 -0.1919 -1.5811 -0.7553
 2891SOL    HW210681   1.022   6.091   9.017  0.0362 -1.2761 -0.7958
 2892SOL     OW10682   8.720   7.271   3.393  0.2639 -0.0738 -0.0915
 2892SOL    HW110683   8.652   7.334   3.372 -0.1926 -1.0893 -1.9585
 2892SOL    HW210684   8.674   7.200   3.439  0.3400 -0.0751 -0.0167
 2893SOL     OW10685   5.346   6.502   3.085 -0.1993 -0.5227  0.1817
 2893SOL    HW110686   5.337   6.560   3.160 -1.0364  0.0401 -0.3335
 2893SOL    HW210687   5.431   6.459   3.098  0.0682  0.2106  0.9881
 2894SOL     OW10688   0.234   9.043   5.573 -1.3548 -0.2794  0.3534
 2894SOL    HW110689   0.320   9.007   5.550 -0.2984  0.4425  2.7539
 2894SOL    HW210690   0.181   9.034   5.494  0.4855 -2.0953 -0.7640
 2895SOL     OW10691   2.529   3.242   1.335 -0.6868  0.1403  0.1093
 2895SOL    HW110692   2.473   3.312   1.369 -1.3654 -1.5928  2.9162
 2895SOL    HW210693   2.469   3.180   1.296 -0.4410 -0.3687  0.5313
 2896SOL     OW10694   1.901   0.874   0.018  0.1143 -0.0065  0.3182
 2896SOL    HW110695   1.871   0.785   0.038  0.1297  0.1603  1.0792
 2896SOL    HW210696   1.935   0.908   0.100 -0.6761  1.0164  0.2397
 2897SOL     OW10697   3.051   6.749   6.344  0.0050 -0.1227 -0.0247
 2897SOL    HW110698   3.068   6.814   6.412 -1.0702 -1.2236  1.3754
 2897SOL    HW210699   3.047   6.666   6.391  2.2725 -1.3829 -1.8838
 2898SOL     OW10700   1.458   3.747   3.369 -0.0494 -0.1447 -0.7502
 2898SOL    HW110701   1.420   3.735   3.456 -2.2712  0.3734 -1.5685
 2898SOL    HW210702   1.461   3.842   3.357 -0.1998 -0.2142 -1.3931
 2899SOL     OW10703   6.891   4.849   0.407  0.5026 -0.1317  0.1792
 2899SOL    HW110704   6.941   4.895   0.475  1.2017  1.6731 -1.4560
 2899SOL    HW210705   6.816   4.906   0.390 -1.4727 -2.1389  1.6066
 2900SOL     OW10706   2.442   0.012   9.518 -0.2431 -0.2108 -0.2610
 2900SOL    HW110707   2.428  -0.033   9.436  0.4485 -1.6793  0.3936
 2900SOL    HW210708   2.524   0.059   9.506 -0.3726 -0.0567 -0.5511
 2901SOL     OW10709   8.013   5.864   9.532  0.3435 -0.0636  0.1715
 2901SOL    HW110710   7.975   5.868   9.620  1.0053  1.9433  0.4336
 2901SOL    HW210711   8.081   5.797   9.537  1.0093  0.6739  1.4922
 2902SOL     OW10712   6.729   0.255   1.065 -0.0260  0.2247  0.6723
 2902SOL    HW110713   6.665   0.307   1.114 -0.9162 -1.5909  1.5084
 2902SOL    HW210714   6.723   0.289   0.975 -2.3676 -0.0369  0.6685
 2903SOL     OW10715   8.413   6.981   4.474 -0.2962  0.1878  0.2782
 2903SOL    HW110716   8.469   6.903   4.482  0.9934  0.9802 -0.6225
 2903SOL    HW210717   8.411   7.017   4.563 -0.3714 -0.5182  0.5717
 2904SOL     OW10718  10.841   5.784   1.453  0.3172  0.5394  0.5395
 2904SOL    HW110719  10.759   5.744   1.426  0.1739  1.4762 -0.4826
 2904SOL    HW210720  10.839   5.783   1.549 -1.0141  0.7948  0.5267
 2905SOL     OW10721   3.133   6.087   4.674 -0.3460 -0.5703 -0.3040
 2905SOL    HW110722   3.220   6.103   4.712 -0.9330  0.7869  0.5702
 2905SOL    HW210723   3.136   6.129   4.588 -0.1435 -0.5243 -0.2747
 2906SOL     OW10724   0.536   3.559   1.625  0.5938 -0.0592  0.1988
 2906SOL    HW110725   0.498   3.592   1.707 -0.2533  0.1020 -0.2391
 2906SOL    HW210726   0.630   3.571   1.635  0.3990  1.4263  0.5332
 2907SOL     OW10727   8.288   5.861   5.025  0.0591 -0.5681 -0.0399
 2907SOL    HW110728   8.328   5.947   5.034  0.3457 -0.6418 -0.5551
 2907SOL    HW210729   8.195   5.879   5.010 -0.0700 -0.3896  0.9601
 2908SOL     OW10730   2.939   6.264   3.245 -0.0162  0.3631  0.5900
 2908SOL    HW110731   2.997   6.278   3.170 -0.6974  1.6212  0.2555
 2908SOL    HW210732   2.993   6.283   3.322  1.4922 -3.5559  0.6875
 2909SOL     OW10733   6.178   7.804   0.486 -0.1548 -0.0011 -0.0702
 2909SOL    HW110734   6.178   7.873   0.419  4.4972  2.1409  1.6976
 2909SOL    HW210735   6.164   7.851   0.569  2.5192 -1.1391  1.1392
 2910SOL     OW10736   1.554   6.209   2.477  0.3442  0.1502  0.2859
 2910SOL    HW110737   1.585   6.257   2.554  1.1457 -1.1966  0.8268
 2910SOL    HW210738   1.596   6.254   2.403 -0.1261  1.2096  0.6447
 2911SOL     OW10739   8.417   4.601   4.367 -0.4315  0.4355 -0.3507
 2911SOL    HW110740   8.363   4.677   4.390 -1.4546 -0.1520 -0.7548
 2911SOL    HW210741   8.355   4.529   4.358  0.3738 -0.1711 -1.2400
 2912SOL     OW10742  10.244   5.394   4.238  0.1749 -0.1193 -0.0553
 2912SOL    HW110743  10.281   5.466   4.187  0.2376 -0.9792 -1.2826
 2912SOL    HW210744  10.184   5.350   4.176 -0.4330 -0.6668  0.9003
 2913SOL     OW10745   1.491   5.103   9.777 -0.0711 -0.7261  0.3028
 2913SOL    HW110746   1.535   5.147   9.850  1.2613 -1.4497 -0.0190
 2913SOL    HW210747   1.407   5.074   9.813 -1.4911  2.8577  0.2419
 2914SOL     OW10748   3.738   2.037   0.125 -0.2539 -0.1098 -0.5153
 2914SOL    HW110749   3.674   2.095   0.083  1.5191  1.6369 -0.9837
 2914SOL    HW210750   3.764   1.976   0.056 -1.3109 -0.7781 -0.3444
 2915SOL     OW10751   3.987   3.001   1.390  0.2847 -0.1704  0.3098
 2915SOL    HW110752   4.021   3.033   1.307  0.7929  0.4742  0.7558
 2915SOL    HW210753   3.907   2.954   1.367  0.3341  0.1459 -0.5218
 2916SOL     OW10754   5.671   4.890   2.486 -0.0541 -0.2470  0.2759
 2916SOL    HW110755   5.753   4.847   2.509  0.1052 -0.1062 -0.0275
 2916SOL    HW210756   5.629   4.830   2.425 -0.4136 -0.5571  0.8223
 2917SOL     OW10757   7.416   9.249   3.024  0.0817 -0.1595 -0.0031
 2917SOL    HW110758   7.357   9.232   2.951  0.3695  1.2350 -0.5868
 2917SOL    HW210759   7.499   9.209   2.998 -0.1707 -0.8104  0.1614
 2918SOL     OW10760   8.032   4.274   0.215  0.1110  0.1289  0.7661
 2918SOL    HW110761   8.032   4.275   0.119  0.6962 -1.0700  0.7276
 2918SOL    HW210762   8.065   4.360   0.240  2.6813 -0.4583 -0.1900
 2919SOL     OW10763   5.274   5.823   9.031  0.3212  0.2114  0.3769
 2919SOL    HW110764   5.208   5.831   8.963  0.1923  0.0448  0.4803
 2919SOL    HW210765   5.235   5.864   9.108 -0.2124 -1.0434  0.8154
 2920SOL     OW10766   2.298   2.488   7.429 -0.1293  0.4624 -0.1196
 2920SOL    HW110767   2.333   2.568   7.467  0.4272 -0.6029  1.7704
 2920SOL    HW210768   2.373   2.447   7.386  0.1539 -0.1061  0.8763
 2921SOL     OW10769   0.628   5.731   1.639 -0.3413 -0.0670  0.0035
 2921SOL    HW110770   0.692   5.763   1.704  0.7474  0.8219 -1.4385
 2921SOL    HW210771   0.669   5.654   1.601  1.0393  1.7638 -2.5201
 2922SOL     OW10772   9.067   7.794   2.471 -0.1661  0.1798 -0.1704
 2922SOL    HW110773   8.999   7.807   2.405 -1.2036 -1.7281  0.4482
 2922SOL    HW210774   9.064   7.874   2.524 -1.9058  0.1592 -0.1923
 2923SOL     OW10775   7.845   7.955   3.903 -0.2008  0.2954 -0.5905
 2923SOL    HW110776   7.850   7.866   3.937  1.3508  0.4096 -0.4512
 2923SOL    HW210777   7.806   7.946   3.816 -1.6864 -0.2979  0.1021
 2924SOL     OW10778   3.624   6.134   3.210  0.1004  0.2866 -0.3657
 2924SOL    HW110779   3.626   6.040   3.189 -0.9665  0.0271  0.5995
 2924SOL    HW210780   3.545   6.166   3.168  0.4935  0.7782 -0.7412
 2925SOL     OW10781   4.989   7.648  10.791 -0.8891 -0.1072 -0.3623
 2925SOL    HW110782   5.039   7.568  10.776 -1.6238 -0.7896  0.7150
 2925SOL    HW210783   5.003   7.700  10.712  3.6834  0.9619  0.8337
 2926SOL     OW10784   1.401   6.416   5.501 -0.4270  0.1762 -0.2479
 2926SOL    HW110785   1.409   6.400   5.407 -3.9098  0.8083 -0.7992
 2926SOL    HW210786   1.378   6.330   5.537  1.2184 -0.1320  0.1204
 2927SOL     OW10787   1.122   5.264   5.341 -0.2590 -0.2675  0.2215
 2927SOL    HW110788   1.195   5.221   5.387  1.0429  0.7830 -0.7805
 2927SOL    HW210789   1.060   5.285   5.410  0.0206 -1.8490  1.0161
 2928SOL     OW10790   2.581   1.321   8.038  0.4538 -0.0063 -0.4340
 2928SOL    HW110791   2.627   1.275   7.967 -1.6468 -1.9744 -0.6184
 2928SOL    HW210792   2.493   1.336   8.004 -0.6915 -1.2239  1.8307
 2929SOL     OW10793   6.617   5.975   1.794  0.1226  0.0007 -0.0134
 2929SOL    HW110794   6.555   6.036   1.755  1.5156  0.3128 -1.8870
 2929SOL    HW210795   6.702   6.019   1.788  0.8527 -1.2664  0.5419
 2930SOL     OW10796   7.819   2.929   3.717 -0.2846 -0.7933  0.0614
 2930SOL    HW110797   7.739   2.960   3.760 -0.8210 -4.3006  1.8964
 2930SOL    HW210798   7.797   2.843   3.683  2.6687 -1.8839  0.5797
 2931SOL     OW10799   4.092   6.046   5.650  0.2467  0.4650  0.6331
 2931SOL    HW110800   4.094   6.097   5.732  0.0337  0.3493  0.7125
 2931SOL    HW210801   4.092   6.113   5.581 -0.7438  0.6120  0.7462
 2932SOL     OW10802   2.286   9.566   7.155  0.4787  0.2600  0.5817
 2932SOL    HW110803   2.335   9.487   7.131  0.6200  0.7762 -0.9396
 2932SOL    HW210804   2.351   9.623   7.196  0.9414  0.5416 -0.5228
 2933SOL     OW10805   1.866  10.855   6.502 -0.6908 -0.1743  0.0473
 2933SOL    HW110806   1.830  10.941   6.522 -1.3232 -0.5567  0.6264
 2933SOL    HW210807   1.932  10.871   6.435 -3.2067  0.3989 -2.5197
 2934SOL     OW10808   9.621   2.095   5.773 -0.3022  0.4710 -0.2675
 2934SOL    HW110809   9.713   2.070   5.761 -0.5407 -0.3426 -0.4817
 2934SOL    HW210810   9.604   2.079   5.866 -0.3336  0.2382 -0.3122
 2935SOL     OW10811   9.477   5.998   8.340  0.0204 -0.2798  0.1030
 2935SOL    HW110812   9.386   5.970   8.338 -0.4591  1.1724  0.0243
 2935SOL    HW210813   9.520   5.939   8.402 -1.6386  0.8261  2.4444
 2936SOL     OW10814   6.340   6.165   1.932 -0.1394  0.1213 -0.0233
 2936SOL    HW110815   6.291   6.116   1.866  0.8676 -0.2728 -0.4948
 2936SOL    HW210816   6.272   6.211   1.982 -1.1321 -1.9114  0.5923
 2937SOL     OW10817   0.472   0.278  10.806  0.3276  0.5658  0.4348
 2937SOL    HW110818   0.554   0.236  10.833 -0.7641 -0.8069  1.8458
 2937SOL    HW210819   0.478   0.367  10.840  2.7481  1.7929 -2.7200
 2938SOL     OW10820   2.343   8.675   4.121  0.2221  0.0505  0.0169
 2938SOL    HW110821   2.406   8.737   4.157  0.8363 -0.5132 -0.0708
 2938SOL    HW210822   2.264   8.727   4.106  0.2883  0.5128  1.2042
 2939SOL     OW10823   0.049   4.442   6.698 -0.9042 -0.1928  0.2720
 2939SOL    HW110824   0.018   4.521   6.652 -0.4784 -1.5546 -2.5576
 2939SOL    HW210825   0.143   4.442   6.685 -0.7527 -0.6009  1.2745
 2940SOL     OW10826   2.852   9.644   2.249 -0.2754 -0.4050  0.5383
 2940SOL    HW110827   2.875   9.581   2.180  0.1493  0.0622  0.2483
 2940SOL    HW210828   2.830   9.589   2.324 -0.6842 -0.9244  0.0569
 2941SOL     OW10829   9.289   6.558   5.598 -0.0193  0.3838  0.2129
 2941SOL    HW110830   9.344   6.603   5.534  1.6102 -0.4521  0.9856
 2941SOL    HW210831   9.300   6.465   5.579 -1.2242  0.1963  0.3539
 2942SOL     OW10832   6.835   6.047   3.361 -0.1176  0.1310 -0.1360
 2942SOL    HW110833   6.741   6.050   3.344  0.0409  0.6942 -0.9729
 2942SOL    HW210834   6.847   5.969   3.416 -0.8613 -0.9228 -1.4078
 2943SOL     OW10835   6.651   1.294   1.848  0.3788 -0.4584 -0.1784
 2943SOL    HW110836   6.645   1.377   1.895 -0.3535  0.0371 -1.1181
 2943SOL    HW210837   6.728   1.251   1.886  0.3327  0.3060  0.8362
 2944SOL     OW10838  10.952   0.757   6.000 -0.2290 -0.2023  0.3722
 2944SOL    HW110839  10.929   0.850   5.997  1.3870  0.2232  0.1231
 2944SOL    HW210840  10.921   0.727   6.085  1.1537  1.1361  1.4066
 2945SOL     OW10841   4.753   4.644   7.555  0.6507 -1.0057  0.0722
 2945SOL    HW110842   4.728   4.725   7.511 -0.7094 -1.3201  0.2176
 2945SOL    HW210843   4.847   4.652   7.568  0.3640  1.3010  1.5225
 2946SOL     OW10844   5.020   4.135   8.355  0.0064  0.0850  0.5347
 2946SOL    HW110845   5.111   4.134   8.386  0.4258  0.7772 -0.6102
 2946SOL    HW210846   5.002   4.227   8.338 -0.3162 -0.2255 -0.9213
 2947SOL     OW10847   1.727   1.366   4.862  0.5851 -0.4036 -0.0158
 2947SOL    HW110848   1.814   1.343   4.830  0.5270 -0.4966 -0.1086
 2947SOL    HW210849   1.672   1.292   4.837  0.4073 -0.1877 -0.2633
 2948SOL     OW10850   0.537   1.325   0.870  0.5708 -0.2922  0.1179
 2948SOL    HW110851   0.561   1.248   0.818  0.6367  0.6272 -1.2631
 2948SOL    HW210852   0.442   1.316   0.882  0.4575 -0.2284 -0.6679
 2949SOL     OW10853   5.127   2.683   5.364 -0.0681 -0.2613 -0.2199
 2949SOL    HW110854   5.167   2.693   5.451 -1.2244  0.3988  0.2580
 2949SOL    HW210855   5.038   2.652   5.382 -1.4137  2.8611 -0.9270
 2950SOL     OW10856   3.756   1.908   4.462 -0.0315  0.0229 -0.4659
 2950SOL    HW110857   3.691   1.897   4.392  0.2008 -0.6142 -0.5869
 2950SOL    HW210858   3.822   1.967   4.423 -0.2576  0.2339 -0.5339
 2951SOL     OW10859   5.248   2.566   3.478  0.1266 -0.0531  0.3492
 2951SOL    HW110860   5.249   2.648   3.527 -0.2050 -0.5137  1.1533
 2951SOL    HW210861   5.246   2.498   3.546 -1.3028 -0.6940 -0.2804
 2952SOL     OW10862   3.087   6.687   3.128  0.8233 -0.5139 -0.5302
 2952SOL    HW110863   3.087   6.700   3.034 -0.2977  1.7074 -0.2961
 2952SOL    HW210864   3.051   6.600   3.142 -1.8559  0.2629 -2.0789
 2953SOL     OW10865  10.725   8.813   4.072  0.0790  0.1098  0.7741
 2953SOL    HW110866  10.726   8.726   4.111  0.8353 -0.3896 -0.2916
 2953SOL    HW210867  10.715   8.797   3.978  1.0755  1.1095  0.4690
 2954SOL     OW10868   3.151   6.902   1.250 -0.0882 -0.0370  0.0799
 2954SOL    HW110869   3.182   6.813   1.235  0.2026  0.1580 -0.5180
 2954SOL    HW210870   3.068   6.892   1.296  0.3627 -0.5928  0.7766
 2955SOL     OW10871   7.794   9.824   6.392  0.6200 -0.1943 -0.0114
 2955SOL    HW110872   7.769   9.750   6.336  1.5508 -0.8126  0.3595
 2955SOL    HW210873   7.717   9.841   6.446 -0.9422  1.4983 -2.5253
 2956SOL     OW10874  10.290   5.010   0.933  0.0728 -0.0709 -0.1617
 2956SOL    HW110875  10.278   5.003   0.839  1.1857  1.7805 -0.4894
 2956SOL    HW210876  10.211   4.969   0.970  0.0342 -1.6467 -1.8260
 2957SOL     OW10877   8.487   4.648   2.729 -0.0997  0.5217 -1.0071
 2957SOL    HW110878   8.456   4.738   2.740 -0.1845  0.5959 -1.7977
 2957SOL    HW210879   8.411   4.593   2.748 -0.2816  0.6482 -1.3684
 2958SOL     OW10880   2.620   2.923   9.286  0.4535  0.0201 -0.0628
 2958SOL    HW110881   2.692   2.984   9.302  1.6711 -0.8292 -1.9277
 2958SOL    HW210882   2.571   2.921   9.368  1.8382  1.5712  0.8541
 2959SOL     OW10883   0.880   8.741   9.410  0.7667 -0.5518  0.6897
 2959SOL    HW110884   0.954   8.705   9.361 -0.1585 -1.3932 -0.1304
 2959SOL    HW210885   0.818   8.669   9.417 -0.4897  0.4625  0.3355
 2960SOL     OW10886   2.208   5.195   2.128 -0.0073  0.1348 -0.2063
 2960SOL    HW110887   2.227   5.280   2.165 -1.9269 -0.4888  2.5512
 2960SOL    HW210888   2.120   5.203   2.092  0.3196 -0.3413 -1.1563
 2961SOL     OW10889  10.618   0.864   9.768 -0.4685 -0.5026  0.2400
 2961SOL    HW110890  10.699   0.813   9.768 -1.9046 -3.1187 -2.2512
 2961SOL    HW210891  10.641   0.945   9.724  0.4119 -2.3097 -2.9878
 2962SOL     OW10892   0.422   1.062   5.576 -0.2840 -0.0663 -0.1921
 2962SOL    HW110893   0.482   1.105   5.637  0.4847 -1.2280 -0.1048
 2962SOL    HW210894   0.352   1.126   5.563 -0.3564  0.3005  1.7122
 2963SOL     OW10895   3.882  10.869   2.233 -0.5991  0.4269  0.0591
 2963SOL    HW110896   3.839  10.860   2.149 -0.5059 -1.5314  0.1905
 2963SOL    HW210897   3.822  10.829   2.296 -1.5773  3.5057  1.3229
 2964SOL     OW10898   1.462   9.744   8.099 -0.4938 -0.4723  0.0443
 2964SOL    HW110899   1.378   9.790   8.097  0.2201  0.9278  0.6707
 2964SOL    HW210900   1.484   9.738   8.192  0.4631 -0.1224 -0.1482
 2965SOL     OW10901   3.755   0.740   2.701 -0.4478  0.0345  0.1296
 2965SOL    HW110902   3.838   0.785   2.720  1.0192 -2.6234  0.4682
 2965SOL    HW210903   3.744   0.747   2.606  0.1040  0.4869  0.0964
 2966SOL     OW10904   8.695   0.367   1.957 -0.2256  0.2596  0.2912
 2966SOL    HW110905   8.738   0.441   1.915 -0.7621  0.4088  0.0019
 2966SOL    HW210906   8.654   0.319   1.885 -2.0070  1.0671  0.7245
 2967SOL     OW10907   2.594   4.487   1.976 -0.3208 -0.5069 -0.7217
 2967SOL    HW110908   2.643   4.405   1.981 -1.2665 -1.0856 -0.8657
 2967SOL    HW210909   2.644   4.541   1.915  0.0799 -1.1302 -0.9502
 2968SOL     OW10910   8.135   5.733  10.738  0.6672 -0.5489 -0.1237
 2968SOL    HW110911   8.193   5.807  10.757  2.1075 -1.4602 -0.7774
 2968SOL    HW210912   8.149   5.715  10.645 -0.6102 -0.8612 -0.2617
 2969SOL     OW10913   5.190   1.451   9.314 -0.3456 -0.8807  0.2701
 2969SOL    HW110914   5.169   1.364   9.349 -0.6818 -1.6974 -1.8113
 2969SOL    HW210915   5.173   1.444   9.220  0.4178  1.2109 -0.0819
 2970SOL     OW10916   8.534   9.612   8.798 -0.3066  0.1294 -0.0344
 2970SOL    HW110917   8.501   9.671   8.866 -1.6055 -0.2041 -0.3461
 2970SOL    HW210918   8.482   9.532   8.808  0.6450 -0.5448 -0.3494
 2971SOL     OW10919   9.133   3.346   4.927  0.0316  0.1851  0.1713
 2971SOL    HW110920   9.160   3.364   5.017 -1.3191  1.4516  0.3690
 2971SOL    HW210921   9.135   3.432   4.884 -1.1336 -0.0866 -0.4741
 2972SOL     OW10922   1.867   4.819   2.710 -0.3842 -0.0506  0.0850
 2972SOL    HW110923   1.892   4.898   2.663  0.7385 -0.6348 -0.3435
 2972SOL    HW210924   1.913   4.825   2.794 -1.3496  0.3644  0.6054
 2973SOL     OW10925   6.471   6.096   2.428 -0.0326 -0.4511 -0.5308
 2973SOL    HW110926   6.490   6.166   2.365  0.9744  0.1084  0.3640
 2973SOL    HW210927   6.441   6.142   2.506  0.2945 -1.0287 -0.0570
 2974SOL     OW10928   5.272   0.023   5.786  0.1182  0.2141  0.8489
 2974SOL    HW110929   5.331   0.098   5.780 -0.2745  0.5608  1.2151
 2974SOL    HW210930   5.195   0.057   5.832 -0.9200  0.1261 -0.7236
 2975SOL     OW10931   9.393   9.159   2.285  0.4755 -0.5439 -0.0766
 2975SOL    HW110932   9.447   9.080   2.296  0.2067 -0.5219  1.6676
 2975SOL    HW210933   9.439   9.227   2.335  0.1623  0.1454 -0.7076
 2976SOL     OW10934   9.151   5.253   2.333  0.1888  0.4046 -0.1746
 2976SOL    HW110935   9.231   5.202   2.344  0.1712  0.5693  0.8960
 2976SOL    HW210936   9.119   5.231   2.245  2.1378  1.4047 -1.1840
 2977SOL     OW10937   7.398   6.477   4.153 -0.0372 -0.1344  0.5100
 2977SOL    HW110938   7.374   6.386   4.134 -0.8254 -0.0732  1.1974
 2977SOL    HW210939   7.484   6.487   4.111  0.6703 -1.5839  1.4890
 2978SOL     OW10940   4.333   1.492   4.616 -0.5846  0.5227  0.3363
 2978SOL    HW110941   4.254   1.439   4.607  0.4364 -1.1319  0.8882
 2978SOL    HW210942   4.347   1.500   4.710  1.2377 -1.3147  0.2847
 2979SOL     OW10943   7.677   2.244   3.714 -0.0061 -0.1670  0.1048
 2979SOL    HW110944   7.696   2.162   3.669 -0.2613 -0.5458  0.6765
 2979SOL    HW210945   7.756   2.263   3.765 -0.6376 -1.0875  1.4963
 2980SOL     OW10946  10.985   4.245   5.218 -0.0889 -0.1819  0.0244
 2980SOL    HW110947  11.065   4.211   5.178 -0.8591 -0.9169 -0.9638
 2980SOL    HW210948  10.947   4.169   5.262  0.5884  0.5503  1.9624
 2981SOL     OW10949   3.967   1.696   0.326  0.0196 -0.1126 -0.4510
 2981SOL    HW110950   3.969   1.635   0.400  2.7444 -0.7351 -0.9389
 2981SOL    HW210951   3.912   1.653   0.261  2.9304 -2.8892 -1.3202
 2982SOL     OW10952   2.159   6.824   4.830 -0.0964  0.4439  0.6030
 2982SOL    HW110953   2.208   6.896   4.870  0.3664 -0.1461  1.1178
 2982SOL    HW210954   2.209   6.746   4.852  0.7034  0.1683 -1.9492
 2983SOL     OW10955   4.336   8.044   4.505  0.3046 -0.5796  0.1013
 2983SOL    HW110956   4.359   7.951   4.506  0.8089 -0.4648 -0.3566
 2983SOL    HW210957   4.348   8.072   4.596 -0.3978 -1.0826  0.3638
 2984SOL     OW10958   5.294   2.885   7.812  0.2543 -0.5385 -0.2812
 2984SOL    HW110959   5.310   2.977   7.833  0.0664 -0.0993 -1.9577
 2984SOL    HW210960   5.357   2.837   7.865  0.9522  0.6139 -0.0437
 2985SOL     OW10961   1.981   6.777   7.650  0.5793 -0.2260 -0.1580
 2985SOL    HW110962   1.924   6.709   7.614  0.6651  0.8193 -2.3797
 2985SOL    HW210963   1.922   6.836   7.697  0.3420 -1.0909  0.6683
 2986SOL     OW10964  10.474   2.785   5.297 -1.0313 -0.0170  0.4822
 2986SOL    HW110965  10.458   2.691   5.294 -1.5834  0.0917 -0.4330
 2986SOL    HW210966  10.520   2.804   5.215 -0.1112  0.3751  1.0782
 2987SOL     OW10967   4.438   8.137   3.002  0.1043 -0.2676  0.2888
 2987SOL    HW110968   4.497   8.071   2.966 -2.5221 -2.5902 -0.1563
 2987SOL    HW210969   4.466   8.220   2.963  3.1946 -1.1346  0.4170
 2988SOL     OW10970   2.118   1.856   5.931 -0.1387  0.0681  0.1998
 2988SOL    HW110971   2.150   1.769   5.908  1.0349  0.2245  1.1663
 2988SOL    HW210972   2.040   1.868   5.876 -0.3444 -1.5976  0.0717
 2989SOL     OW10973   8.588   7.207   0.156 -0.0342 -0.4111  0.2586
 2989SOL    HW110974   8.612   7.179   0.244  0.7563  1.1386  0.5718
 2989SOL    HW210975   8.671   7.208   0.108 -0.1204  0.7157  0.0957
 2990SOL     OW10976  10.902   0.818   2.990 -0.6716 -0.5470  0.4679
 2990SOL    HW110977  10.961   0.888   3.017  1.0937 -2.5923  2.2953
 2990SOL    HW210978  10.952   0.768   2.926 -1.4781 -0.7897  0.0144
 2991SOL     OW10979   8.816   4.630   7.044  0.2182  0.1367  0.2509
 2991SOL    HW110980   8.758   4.694   7.002 -1.4708 -0.7709  1.0579
 2991SOL    HW210981   8.863   4.589   6.972  0.5724  1.5706 -0.3581
 2992SOL     OW10982   5.247   4.090   2.681 -0.4199 -0.2455 -0.0011
 2992SOL    HW110983   5.321   4.142   2.713 -0.1292  0.6008 -1.9365
 2992SOL    HW210984   5.170   4.133   2.719 -0.0441  0.2151  0.2486
 2993SOL     OW10985  10.304   0.815   5.352 -0.1390  0.3633  0.4529
 2993SOL    HW110986  10.277   0.803   5.261 -0.6578 -2.9724  0.9284
 2993SOL    HW210987  10.255   0.891   5.382 -0.8696  0.7959 -1.6846
 2994SOL     OW10988   1.466   3.395   9.003  0.0089  0.4850 -0.0445
 2994SOL    HW110989   1.462   3.300   9.009  0.6562  0.4168 -0.5522
 2994SOL    HW210990   1.414   3.426   9.076  1.0869 -0.2676  1.0923
 2995SOL     OW10991   2.590   3.875   4.097  0.3033 -0.4874  0.0913
 2995SOL    HW110992   2.600   3.818   4.173  1.6814  0.9125  1.0284
 2995SOL    HW210993   2.592   3.964   4.134 -1.3272  0.2071 -1.3588
 2996SOL     OW10994  10.649  10.575   1.435  0.2550  0.1135 -0.1068
 2996SOL    HW110995  10.719  10.512   1.453  1.1310  1.4270  1.2531
 2996SOL    HW210996  10.572  10.537   1.476  0.6813 -0.2864  0.3394
 2997SOL     OW10997   5.571  10.288   5.146  0.1151  0.1655  0.5830
 2997SOL    HW110998   5.570  10.199   5.182 -0.6628  0.0768  0.3555
 2997SOL    HW210999   5.479  10.310   5.135  0.3292  0.5207 -0.5523
 2998SOL     OW11000   5.915   6.543   2.044 -0.3752  0.0710  0.0218
 2998SOL    HW111001   5.882   6.620   1.999  3.6341  0.7677 -2.2349
 2998SOL    HW211002   5.967   6.577   2.117 -1.2246 -0.7270  1.0386
 2999SOL     OW11003  10.113   4.614   3.271 -0.4376 -0.2309 -0.1272
 2999SOL    HW111004  10.209   4.613   3.271 -0.4167 -1.7581 -1.2082
 2999SOL    HW211005  10.091   4.706   3.254  0.9319 -0.2857 -2.8782
 3000SOL     OW11006   1.794   8.646   1.820 -0.0070 -0.0946 -0.2150
 3000SOL    HW111007   1.785   8.551   1.809  0.4940 -0.3530  1.3126
 3000SOL    HW211008   1.721   8.683   1.772  0.5714 -1.1668 -2.0205
 3001SOL     OW11009   2.997   5.318   8.335 -0.3293  0.1152 -0.1121
 3001SOL    HW111010   2.950   5.382   8.388  3.4445  2.1907  1.0894
 3001SOL    HW211011   2.964   5.332   8.246 -2.1768  1.1349  0.6869
 3002SOL     OW11012  11.006   9.248   9.064  0.7157  0.1115 -0.4197
 3002SOL    HW111013  11.059   9.170   9.048 -0.0129 -0.4507 -0.1253
 3002SOL    HW211014  10.981   9.242   9.156  2.3279  1.7497  0.2005
 3003SOL     OW11015   2.887  10.694   0.655  0.1047  0.0691  0.1433
 3003SOL    HW111016   2.948  10.768   0.655  0.2441 -0.0222  1.3342
 3003SOL    HW211017   2.819  10.719   0.718  1.0385 -1.4803  1.8709
 3004SOL     OW11018   0.524   3.598   5.000 -0.7243  0.2376  0.3306
 3004SOL    HW111019   0.540   3.558   4.914  0.7718  0.3556  0.5395
 3004SOL    HW211020   0.471   3.533   5.046 -1.1253 -0.0421 -0.4891
 3005SOL     OW11021   9.982   4.043  10.283  0.2284 -0.1844  0.1040
 3005SOL    HW111022   9.922   4.070  10.214 -0.7226  0.3403  1.1093
 3005SOL    HW211023  10.031   4.123  10.304  0.0393 -0.1785  0.5127
 3006SOL     OW11024   7.796   5.837   4.987 -0.5336 -0.4253  0.3670
 3006SOL    HW111025   7.794   5.927   5.019  1.3294  0.3859 -1.5407
 3006SOL    HW211026   7.852   5.841   4.910 -0.8630 -3.1419 -0.0932
 3007SOL     OW11027   4.297   5.048   4.816 -0.2057 -0.3135  0.4693
 3007SOL    HW111028   4.299   5.129   4.868  1.7932 -0.5942  0.8958
 3007SOL    HW211029   4.332   4.981   4.875 -3.9366 -2.1108  0.9710
 3008SOL     OW11030  10.637   3.560   4.589  0.6981  0.1021 -0.0581
 3008SOL    HW111031  10.569   3.604   4.537 -1.0719 -0.1798  1.8684
 3008SOL    HW211032  10.653   3.478   4.543 -0.4389  0.0863 -0.4679
 3009SOL     OW11033   9.729   4.404   5.220 -0.0266  0.2269 -0.2578
 3009SOL    HW111034   9.738   4.325   5.273 -2.0101  2.2043  3.3892
 3009SOL    HW211035   9.772   4.472   5.271 -2.8722  2.4650 -0.5850
 3010SOL     OW11036   0.646   2.563   9.461 -0.6371 -0.3155 -0.0124
 3010SOL    HW111037   0.712   2.604   9.516 -0.1618  0.0677 -0.8369
 3010SOL    HW211038   0.592   2.637   9.431 -2.3912 -0.7722  1.8439
 3011SOL     OW11039   5.944   3.794   1.166 -0.5859  0.1308  0.0822
 3011SOL    HW111040   5.960   3.733   1.237 -0.7827 -0.5477 -0.4464
 3011SOL    HW211041   5.853   3.779   1.141 -0.8909  1.2039  0.4645
 3012SOL     OW11042   2.685   6.445  11.089 -0.1331  0.1893  0.1195
 3012SOL    HW111043   2.698   6.483  11.176 -0.5194  0.3695  0.1029
 3012SOL    HW211044   2.599   6.403  11.094  1.1942 -2.6597  0.8261
 3013SOL     OW11045   7.048   1.339   8.914 -0.1295  0.2023 -0.1740
 3013SOL    HW111046   7.051   1.424   8.958 -2.8365  0.1389  0.3064
 3013SOL    HW211047   7.112   1.285   8.961 -0.4281  1.1573  1.4039
 3014SOL     OW11048   0.042   3.866   4.787  0.6665  0.0654 -0.1125
 3014SOL    HW111049  -0.006   3.787   4.815  0.3337 -0.3496 -1.7248
 3014SOL    HW211050  -0.025   3.921   4.746  0.6722  1.7473  1.9654
 3015SOL     OW11051   7.273   1.379   2.870  0.2607 -0.1732  0.1772
 3015SOL    HW111052   7.253   1.366   2.963 -0.7131 -1.4248 -0.1722
 3015SOL    HW211053   7.321   1.300   2.845 -0.6844 -0.5017 -0.6771
 3016SOL     OW11054   1.099   4.622   4.912  0.2040  0.5080  0.2446
 3016SOL    HW111055   1.035   4.562   4.874 -0.0099 -0.0314  1.4034
 3016SOL    HW211056   1.182   4.574   4.908  0.5246  1.1507 -1.1277
 3017SOL     OW11057   7.669   3.946   2.545  0.0091 -0.8847 -0.7206
 3017SOL    HW111058   7.588   3.931   2.594  0.3829 -0.6534 -0.0221
 3017SOL    HW211059   7.644   4.010   2.478 -0.0625  0.3505  0.4359
 3018SOL     OW11060   3.800   8.123  11.013 -0.4483  0.6600 -0.6963
 3018SOL    HW111061   3.831   8.041  10.974  1.3334 -0.4488  2.6363
 3018SOL    HW211062   3.766   8.096  11.099 -0.8249  3.3040  0.0503
 3019SOL     OW11063   3.510   6.959  10.441 -0.2726  0.0810  0.3147
 3019SOL    HW111064   3.570   6.941  10.368 -0.4223 -0.6694  0.3735
 3019SOL    HW211065   3.426   6.975  10.399 -0.6546 -1.6241  0.3734
 3020SOL     OW11066  10.940   5.435   3.061  0.5028 -0.7014 -0.2515
 3020SOL    HW111067  10.892   5.372   3.007 -0.3463  0.4314 -0.8808
 3020SOL    HW211068  10.952   5.391   3.145 -2.0359 -0.9078  0.0745
 3021SOL     OW11069   7.840   2.161   8.051 -0.1739  0.9137 -0.3904
 3021SOL    HW111070   7.911   2.172   7.987  2.4705  1.0892  2.3217
 3021SOL    HW211071   7.789   2.241   8.043  1.1219  1.7163 -1.1250
 3022SOL     OW11072   3.600   9.413   2.581  0.2484 -0.0634  0.1082
 3022SOL    HW111073   3.593   9.503   2.613 -1.7148  0.2272 -0.9552
 3022SOL    HW211074   3.560   9.360   2.649  0.4845 -0.0223  0.2807
 3023SOL     OW11075   2.073   0.919   9.851 -0.0483 -0.3148 -0.2249
 3023SOL    HW111076   2.110   0.904   9.938  0.5303  2.0219  0.0016
 3023SOL    HW211077   2.094   1.011   9.832 -2.3457 -0.0454 -1.7820
 3024SOL     OW11078   0.900   5.064   2.424  0.0324 -0.1485 -0.0989
 3024SOL    HW111079   0.932   4.988   2.377 -0.8391 -1.4023  1.2590
 3024SOL    HW211080   0.972   5.089   2.482  0.0916 -0.3376 -0.0921
 3025SOL     OW11081   0.606   9.058  10.564  0.7436 -0.1194  0.6499
 3025SOL    HW111082   0.577   8.997  10.632 -1.3603  0.6582  0.5231
 3025SOL    HW211083   0.692   9.088  10.595  1.2556 -2.1091  1.3622
 3026SOL     OW11084   1.206   7.939   6.588 -0.4644  0.4604  0.1670
 3026SOL    HW111085   1.166   7.873   6.644  1.6786  0.5967  1.9796
 3026SOL    HW211086   1.201   7.902   6.500 -2.6575 -0.3942  0.5867
 3027SOL     OW11087   8.104   0.554   8.009 -0.0811  0.5391  0.4089
 3027SOL    HW111088   8.179   0.497   8.029 -0.6624  0.0305  1.1898
 3027SOL    HW211089   8.089   0.603   8.090 -0.5759  0.6676  0.2385
 3028SOL     OW11090   9.331   4.182   1.967  0.3714  0.2738 -0.0336
 3028SOL    HW111091   9.265   4.124   2.005 -1.0740  2.3447  0.8100
 3028SOL    HW211092   9.414   4.137   1.982 -0.5151 -0.8079  2.1148
 3029SOL     OW11093   3.993   4.683   1.210 -0.0901 -0.5786  0.1038
 3029SOL    HW111094   4.029   4.594   1.211 -1.8374 -1.3122  0.4201
 3029SOL    HW211095   3.963   4.698   1.300 -1.4320 -0.3714 -0.3554
 3030SOL     OW11096  10.510   1.709  10.532 -0.6381  0.0836 -0.1739
 3030SOL    HW111097  10.483   1.787  10.483 -1.3480  1.1948  1.8383
 3030SOL    HW211098  10.431   1.655  10.536 -0.6097  0.0399 -0.2067
 3031SOL     OW11099   8.911   3.062   8.493 -0.4920 -0.4322 -0.3345
 3031SOL    HW111100   8.928   2.978   8.535  0.6479 -0.0664 -0.0077
 3031SOL    HW211101   8.868   3.114   8.560 -0.6938 -0.5730 -0.3549
 3032SOL     OW11102   7.282   5.694   8.928 -0.0026 -0.4276 -0.1090
 3032SOL    HW111103   7.213   5.632   8.948 -0.9922  0.9147  0.7968
 3032SOL    HW211104   7.248   5.745   8.854 -0.9277  1.5495  1.5726
 3033SOL     OW11105   3.492   8.668   2.459  0.6603 -0.2683 -0.0484
 3033SOL    HW111106   3.519   8.616   2.383 -1.0675  1.2707 -1.8149
 3033SOL    HW211107   3.418   8.720   2.428 -0.2686  0.2932  2.7711
 3034SOL     OW11108   0.219   1.335   4.220 -0.1886 -0.1458  0.4922
 3034SOL    HW111109   0.299   1.374   4.255 -0.4457  0.6512  0.2093
 3034SOL    HW211110   0.163   1.410   4.199 -1.4525 -0.7134  1.7078
 3035SOL     OW11111   0.883  10.056  10.851 -0.2936 -0.2865 -0.2214
 3035SOL    HW111112   0.802  10.050  10.800  0.7026 -1.4791 -1.7841
 3035SOL    HW211113   0.868  10.000  10.927 -1.7063  1.2892  0.7169
 3036SOL     OW11114   1.023   7.420   9.810  0.0039  0.8005  0.0225
 3036SOL    HW111115   0.988   7.444   9.896 -0.4374  1.6585 -0.3751
 3036SOL    HW211116   0.998   7.493   9.753  0.3600  0.2862 -0.8183
 3037SOL     OW11117   4.002   5.267   3.028 -0.1062  0.6115  0.3086
 3037SOL    HW111118   3.977   5.275   3.120  0.4301 -1.8190  0.7451
 3037SOL    HW211119   4.058   5.342   3.012  1.2809  0.1428  2.5239
 3038SOL     OW11120   4.784   9.043   8.654 -0.0559  0.0564  0.0906
 3038SOL    HW111121   4.838   9.027   8.577  0.2292  0.4274  0.2065
 3038SOL    HW211122   4.804   8.970   8.713  0.3168  0.1829  0.1262
 3039SOL     OW11123   3.035   1.379   0.801  0.2833  0.1370 -0.3648
 3039SOL    HW111124   3.123   1.360   0.768 -0.3192 -1.5812 -1.1178
 3039SOL    HW211125   2.985   1.299   0.782 -1.8967  1.6650 -1.5014
 3040SOL     OW11126   7.635   4.389  10.458 -0.7857 -0.0174  0.2237
 3040SOL    HW111127   7.614   4.420  10.546  2.0728  0.2732  0.8984
 3040SOL    HW211128   7.665   4.299  10.472  0.3064  0.2474 -0.3209
 3041SOL     OW11129   5.809   8.491   4.255  0.1807  0.7213 -0.5737
 3041SOL    HW111130   5.807   8.395   4.260  0.1757  0.7123 -0.7312
 3041SOL    HW211131   5.775   8.521   4.339  0.0104  0.5852 -0.5942
 3042SOL     OW11132   1.063   6.510   5.519 -0.0639  0.0349  0.0443
 3042SOL    HW111133   1.098   6.526   5.607 -2.7594  0.2722  1.1929
 3042SOL    HW211134   1.120   6.559   5.460  0.8925  1.1969  1.8551
 3043SOL     OW11135  10.400   4.735   6.327  0.0960 -0.1993  0.4974
 3043SOL    HW111136  10.311   4.756   6.300  0.0514 -1.8111 -0.8012
 3043SOL    HW211137  10.401   4.747   6.421 -1.7125 -0.8123  0.6318
 3044SOL     OW11138   2.494   4.427   2.261  0.0308 -0.5651 -0.3269
 3044SOL    HW111139   2.469   4.428   2.169  0.5627  1.3381 -0.4907
 3044SOL    HW211140   2.427   4.479   2.305 -0.3067 -1.5875  0.4148
 3045SOL     OW11141   0.567   8.464   6.843  0.2425 -0.2137  0.5656
 3045SOL    HW111142   0.618   8.460   6.762 -0.0014  0.0765  0.3972
 3045SOL    HW211143   0.619   8.414   6.906 -0.8576 -2.8315 -0.4589
 3046SOL     OW11144   0.783   5.524   0.729 -0.2052 -0.5237  1.0122
 3046SOL    HW111145   0.782   5.593   0.796 -0.1254  1.5812 -1.0388
 3046SOL    HW211146   0.740   5.563   0.653  0.3234 -2.5748 -0.4213
 3047SOL     OW11147   3.890   5.488   7.285  0.0623 -0.0456 -0.0589
 3047SOL    HW111148   3.965   5.534   7.247  0.0902  0.1875  0.2754
 3047SOL    HW211149   3.816   5.548   7.273 -0.3579 -0.7940 -1.5462
 3048SOL     OW11150   1.128   1.888   0.971 -0.4600  0.3039 -0.1375
 3048SOL    HW111151   1.203   1.832   0.953  0.4341  1.4727 -0.1757
 3048SOL    HW211152   1.164   1.976   0.975 -1.3991  0.6641  2.3834
 3049SOL     OW11153  10.571   1.561   8.736 -0.3061 -0.0736 -0.8924
 3049SOL    HW111154  10.496   1.510   8.704 -0.6168  0.2501 -0.6972
 3049SOL    HW211155  10.629   1.496   8.776 -0.8123 -0.2499 -0.4322
 3050SOL     OW11156   6.923   3.784   8.729 -0.0538  0.8973  0.0161
 3050SOL    HW111157   6.991   3.844   8.758  0.1106  1.2292 -0.9905
 3050SOL    HW211158   6.970   3.703   8.710 -0.4255  0.0598  2.3884
 3051SOL     OW11159  10.830   1.211   8.322  0.4194 -0.8962 -0.0280
 3051SOL    HW111160  10.758   1.191   8.263  0.8648  2.1338 -1.7894
 3051SOL    HW211161  10.793   1.200   8.410 -1.7736 -0.7232 -0.8745
 3052SOL     OW11162   0.748   0.003   5.285 -0.1047  0.0439 -0.0810
 3052SOL    HW111163   0.656  -0.014   5.305 -0.2391  1.1376  0.3242
 3052SOL    HW211164   0.794  -0.015   5.367 -0.0745  0.2994 -0.0399
 3053SOL     OW11165   8.942   4.181   6.828 -0.3408  0.1023 -0.8009
 3053SOL    HW111166   8.944   4.137   6.913  0.8649  1.8264  0.1206
 3053SOL    HW211167   8.987   4.121   6.769 -1.5280 -1.2972 -0.3415
 3054SOL     OW11168   1.986   7.762   3.112  0.6074  0.2374  0.1016
 3054SOL    HW111169   1.914   7.757   3.050  2.0370 -0.0511 -1.5947
 3054SOL    HW211170   2.006   7.855   3.119  1.1007  0.1995 -0.6876
 3055SOL     OW11171   0.019   6.505   5.063 -0.6336  0.0783  1.0871
 3055SOL    HW111172   0.022   6.563   4.987 -2.0014 -0.8815  0.2477
 3055SOL    HW211173   0.027   6.564   5.138 -0.7966  1.2235  0.2386
 3056SOL     OW11174   7.231   7.248   3.017 -0.4797 -0.1683  0.2336
 3056SOL    HW111175   7.238   7.262   2.922 -1.1596  0.5909  0.2805
 3056SOL    HW211176   7.202   7.158   3.026 -1.6832  0.1442 -0.3484
 3057SOL     OW11177   0.920   9.262   5.124  0.0019  0.5045  0.1773
 3057SOL    HW111178   0.914   9.352   5.157  0.0335  0.7630 -0.5050
 3057SOL    HW211179   0.912   9.208   5.203 -4.1461  0.9507  0.3166
 3058SOL     OW11180   8.020  10.929   3.733 -0.3089 -0.4763  0.2820
 3058SOL    HW111181   8.020  10.870   3.808  1.7037 -1.8114 -0.6795
 3058SOL    HW211182   7.943  10.904   3.682 -1.3345  0.0272  1.5248
 3059SOL     OW11183   7.007   3.415   5.251 -0.6212  0.1016 -0.1603
 3059SOL    HW111184   7.035   3.326   5.271 -0.3555  0.2273  0.0273
 3059SOL    HW211185   7.083   3.470   5.272 -0.7690  0.3682 -0.3109
 3060SOL     OW11186   9.512   4.627   4.925 -0.3658  0.3545  0.3258
 3060SOL    HW111187   9.461   4.702   4.894 -2.4142 -0.5018  1.4116
 3060SOL    HW211188   9.454   4.552   4.913  1.5271 -1.0639 -0.4952
 3061SOL     OW11189   4.810   6.819   9.404 -0.3930  0.4021  0.6470
 3061SOL    HW111190   4.806   6.723   9.403 -0.1544  0.3875  0.9453
 3061SOL    HW211191   4.720   6.847   9.419 -0.5137  0.2326  0.2607
 3062SOL     OW11192   0.982   1.322   7.483  0.1491 -0.0862 -0.3226
 3062SOL    HW111193   1.028   1.402   7.507  0.3724 -0.2347 -0.2551
 3062SOL    HW211194   1.017   1.255   7.542  0.4845 -0.3876 -0.8572
 3063SOL     OW11195   1.335  10.308   9.149 -0.3829 -0.0938 -0.1854
 3063SOL    HW111196   1.428  10.300   9.169 -0.2067 -2.1532 -1.5524
 3063SOL    HW211197   1.330  10.299   9.054 -1.9000  1.2282 -0.2781
 3064SOL     OW11198   5.054   4.718   0.858  0.0897  0.5495 -0.4008
 3064SOL    HW111199   5.127   4.748   0.912 -0.0353  0.2245 -0.0438
 3064SOL    HW211200   4.976   4.752   0.902 -0.1347 -1.1347  0.6258
 3065SOL     OW11201   6.796   3.105   0.770  0.2124  0.9379  0.6194
 3065SOL    HW111202   6.828   3.131   0.856  1.8599 -0.4761  0.4648
 3065SOL    HW211203   6.846   3.027   0.747 -0.5387  0.9844 -1.4131
 3066SOL     OW11204   5.892   8.742   4.914  0.1770 -0.1529  0.3224
 3066SOL    HW111205   5.953   8.681   4.954  0.7039 -1.2644 -2.0191
 3066SOL    HW211206   5.891   8.817   4.974  1.7095 -1.2287  1.8069
 3067SOL     OW11207   0.630   7.415  10.853  0.5124  0.3126  0.4063
 3067SOL    HW111208   0.711   7.415  10.904  0.2729 -0.8665  0.8206
 3067SOL    HW211209   0.651   7.464  10.774  1.0567  1.7114  1.3749
 3068SOL     OW11210   6.787   2.340   8.273 -0.2909 -0.5336  0.2598
 3068SOL    HW111211   6.834   2.258   8.263  1.1110  0.3834 -1.1591
 3068SOL    HW211212   6.835   2.388   8.340 -0.9722 -0.7465  0.9208
 3069SOL     OW11213   9.565  10.477   7.548  0.3489  0.3883 -0.0132
 3069SOL    HW111214   9.542  10.567   7.528 -1.4288  0.6133  2.4566
 3069SOL    HW211215   9.624  10.483   7.623  0.3456 -0.4669  0.0757
 3070SOL     OW11216   4.014   3.760   5.611 -0.4214  0.2025  0.0420
 3070SOL    HW111217   3.981   3.850   5.616  1.5567  1.0456 -0.9113
 3070SOL    HW211218   3.942   3.710   5.572 -1.5420  1.3664  0.5417
 3071SOL     OW11219   9.914   5.930   0.040  0.0867  0.3448  0.0523
 3071SOL    HW111220   9.947   5.983  -0.033 -1.0468  2.1017  0.7359
 3071SOL    HW211221   9.894   5.845   0.001  2.3251  0.2402 -1.0207
 3072SOL     OW11222   8.051   0.869   1.443 -0.2946 -0.5966 -0.0509
 3072SOL    HW111223   8.137   0.846   1.478 -0.2646 -0.1684  0.1632
 3072SOL    HW211224   8.069   0.936   1.378 -0.5460  0.1817  0.6633
 3073SOL     OW11225  10.335   9.871   1.015 -0.3572  0.2627 -0.0636
 3073SOL    HW111226  10.311   9.866   1.107 -0.2826 -1.0641 -0.0969
 3073SOL    HW211227  10.400   9.941   1.011 -0.4994  0.4625  0.8470
 3074SOL     OW11228   9.012   6.476  10.516  0.0891 -0.2156  0.3190
 3074SOL    HW111229   8.922   6.500  10.491 -0.6320 -1.6120  1.4004
 3074SOL    HW211230   9.011   6.478  10.612  1.4251  0.4324  0.3283
 3075SOL     OW11231   7.018   8.416   0.617 -0.6359  0.0290  0.3161
 3075SOL    HW111232   6.998   8.420   0.523  0.6457 -0.3596  0.0003
 3075SOL    HW211233   7.064   8.497   0.636  0.9401 -0.7697  0.1116
 3076SOL     OW11234  10.601   4.320   4.628 -0.3478 -0.1300 -0.2453
 3076SOL    HW111235  10.683   4.354   4.666 -0.6958  0.3983  0.0448
 3076SOL    HW211236  10.593   4.232   4.665 -0.0911 -0.0519  0.0059
 3077SOL     OW11237   4.248   7.631   2.824 -0.0827 -0.1007  0.3258
 3077SOL    HW111238   4.241   7.538   2.803 -2.4582  0.1542 -0.3851
 3077SOL    HW211239   4.168   7.669   2.787 -0.4967  1.7894  2.9328
 3078SOL     OW11240   5.137   5.025   4.816  0.0399 -0.5473  0.3274
 3078SOL    HW111241   5.169   5.079   4.888 -1.4062 -0.7872  1.1963
 3078SOL    HW211242   5.204   4.958   4.804  0.5840 -0.1375  1.0390
 3079SOL     OW11243   6.066   0.191   5.549  0.5261 -0.1007 -0.1167
 3079SOL    HW111244   6.098   0.278   5.526  1.0236  0.2038  1.5930
 3079SOL    HW211245   6.002   0.170   5.481  0.0614  1.7879 -0.3165
 3080SOL     OW11246   9.322   5.632   5.909  0.2544 -0.3566  0.9717
 3080SOL    HW111247   9.310   5.557   5.850  0.2269  0.9958 -0.8167
 3080SOL    HW211248   9.397   5.679   5.872  0.7646  0.0986  2.5245
 3081SOL     OW11249   0.713   8.651   8.376 -0.2806 -0.3480  0.2566
 3081SOL    HW111250   0.719   8.656   8.471  0.9655  1.2263  0.1316
 3081SOL    HW211251   0.794   8.691   8.344 -1.3869  0.6550 -1.4864
 3082SOL     OW11252   2.601   4.751   4.285  0.0366 -0.2763  0.7814
 3082SOL    HW111253   2.643   4.666   4.297 -0.2239 -0.7756 -1.3706
 3082SOL    HW211254   2.515   4.741   4.325 -0.4433 -1.4662 -0.4674
 3083SOL     OW11255   3.864   3.597   5.940  0.0515  0.5333 -0.2856
 3083SOL    HW111256   3.837   3.661   6.006  2.0580 -0.1903  1.3492
 3083SOL    HW211257   3.939   3.637   5.896  0.8161 -0.3452  0.1946
 3084SOL     OW11258   7.417   8.945   3.016  0.0695 -0.0722  0.1457
 3084SOL    HW111259   7.473   8.867   3.022 -0.3208 -0.4779 -1.1195
 3084SOL    HW211260   7.474   9.017   3.043  0.7092 -0.6865  0.4686
 3085SOL     OW11261   6.996   6.955   3.943 -0.3668 -0.0815 -0.2081
 3085SOL    HW111262   7.079   6.910   3.928  1.7458  3.8646 -2.1348
 3085SOL    HW211263   7.008   7.002   4.025  0.4626  2.3601 -1.6017
 3086SOL     OW11264   4.218   3.836   4.668  0.0621  0.4044  0.1139
 3086SOL    HW111265   4.269   3.812   4.590 -0.4523 -1.1454  0.2283
 3086SOL    HW211266   4.254   3.921   4.694  1.7087 -0.0383 -0.5654
 3087SOL     OW11267   1.244   9.433   6.120  0.4185 -0.1985  0.1137
 3087SOL    HW111268   1.249   9.341   6.147 -0.6137 -0.8788 -1.7743
 3087SOL    HW211269   1.197   9.430   6.037  1.4754  1.9331 -0.6259
 3088SOL     OW11270   3.685   4.493   9.189 -0.5119  0.3134 -0.0066
 3088SOL    HW111271   3.766   4.506   9.238  0.0376  0.4508 -0.9460
 3088SOL    HW211272   3.654   4.407   9.218  0.6608 -0.3280 -0.6078
 3089SOL     OW11273  10.999   2.691   6.607  0.4956  0.1596 -0.2238
 3089SOL    HW111274  11.066   2.752   6.639  0.3945  0.8992 -1.3759
 3089SOL    HW211275  10.918   2.721   6.649  0.7873 -0.4449  0.7977
 3090SOL     OW11276   2.695   2.292   7.394  0.2501  0.3365  0.0684
 3090SOL    HW111277   2.628   2.314   7.330  0.6302  2.0292  0.2154
 3090SOL    HW211278   2.746   2.372   7.405 -0.2081  0.3252  2.9877
 3091SOL     OW11279   9.230   4.213   5.756  0.3652  0.1791 -0.0253
 3091SOL    HW111280   9.251   4.126   5.723 -1.2563  0.1222 -1.0351
 3091SOL    HW211281   9.314   4.251   5.781  1.5661 -0.3537 -2.8981
 3092SOL     OW11282   9.792   7.643   2.231  0.2240 -0.2584  0.0598
 3092SOL    HW111283   9.762   7.711   2.171  1.0120 -0.8591 -1.0547
 3092SOL    HW211284   9.732   7.569   2.215  1.3737 -0.9652 -1.1536
 3093SOL     OW11285   7.590  10.859   4.771 -0.5801  0.0441 -0.1159
 3093SOL    HW111286   7.592  10.952   4.750 -0.4001 -0.0636 -0.5908
 3093SOL    HW211287   7.505  10.845   4.812 -0.8246  0.3137 -0.5289
 3094SOL     OW11288   6.056   1.066   6.118  0.4058 -0.6416  0.5997
 3094SOL    HW111289   6.027   1.142   6.169 -0.4453  0.1284 -0.9491
 3094SOL    HW211290   5.978   1.038   6.071  1.7274  0.6316 -2.6332
 3095SOL     OW11291   1.851   3.952   0.648 -0.0852 -0.4631  0.0082
 3095SOL    HW111292   1.890   4.032   0.613 -1.0169 -0.6952 -1.7052
 3095SOL    HW211293   1.841   3.969   0.742  1.0739  0.8407 -0.0710
 3096SOL     OW11294   2.348   1.498  10.970 -0.3449  0.1625 -0.0282
 3096SOL    HW111295   2.418   1.530  10.913  0.6950 -1.3001  0.3649
 3096SOL    HW211296   2.279   1.471  10.910  0.1718 -0.0721 -0.5284
 3097SOL     OW11297   1.284   7.161   7.782  0.1148 -0.8409 -0.3325
 3097SOL    HW111298   1.332   7.214   7.846 -0.8903  1.0949 -1.1013
 3097SOL    HW211299   1.339   7.084   7.769  0.2854 -1.4467  2.9801
 3098SOL     OW11300   8.461   3.818   8.585  0.2685 -0.0162 -0.6106
 3098SOL    HW111301   8.515   3.749   8.623 -0.2578 -0.8899 -1.4094
 3098SOL    HW211302   8.454   3.884   8.654 -0.5258 -1.4688  0.7533
 3099SOL     OW11303  10.043   1.031   2.351 -0.0677 -0.2979 -0.3132
 3099SOL    HW111304  10.028   1.013   2.443  0.2207  1.3288  0.0792
 3099SOL    HW211305  10.131   1.069   2.348 -0.3197  0.2482 -1.1717
 3100SOL     OW11306   2.089   1.622   5.007 -0.5277 -0.0050 -0.3014
 3100SOL    HW111307   2.166   1.570   5.031 -0.3313  0.6306  0.4974
 3100SOL    HW211308   2.037   1.564   4.952  0.6020 -0.3888 -0.9964
 3101SOL     OW11309   0.780   7.817  10.194 -0.1687  0.7999 -0.7389
 3101SOL    HW111310   0.747   7.765  10.121 -1.5031 -0.1188  0.4738
 3101SOL    HW211311   0.728   7.789  10.269  1.3754  1.4935  0.6425
 3102SOL     OW11312   3.219   5.658   9.455  0.1301 -0.3257  0.2401
 3102SOL    HW111313   3.271   5.733   9.485 -0.3390 -0.1305  0.5722
 3102SOL    HW211314   3.134   5.694   9.434  0.3612 -0.5100 -1.0896
 3103SOL     OW11315  10.681   1.732   3.348  0.4466  0.2272  0.0219
 3103SOL    HW111316  10.774   1.711   3.364  0.3085 -1.6788 -1.2829
 3103SOL    HW211317  10.661   1.689   3.265 -0.5459  4.0807 -1.9690
 3104SOL     OW11318   7.378   0.283   4.171 -0.1811  0.2466  0.3520
 3104SOL    HW111319   7.313   0.273   4.100  0.1984 -0.1900  0.0572
 3104SOL    HW211320   7.422   0.366   4.152  0.6269 -0.3550 -0.5304
 3105SOL     OW11321   2.197   0.287   4.923 -0.0814 -0.0853 -0.0102
 3105SOL    HW111322   2.269   0.340   4.956 -0.1815 -0.0823  0.2064
 3105SOL    HW211323   2.118   0.327   4.960 -0.1679 -0.3019  0.0459
 3106SOL     OW11324   0.853   6.747   2.558  0.3654  0.0998  0.4042
 3106SOL    HW111325   0.945   6.767   2.541  0.3895 -0.0011  0.4142
 3106SOL    HW211326   0.805   6.817   2.515  0.2905 -1.5925 -2.5136
 3107SOL     OW11327   0.277   6.988   3.846 -0.5175 -0.2835  0.3869
 3107SOL    HW111328   0.327   6.906   3.846  0.4297  0.2675 -0.2009
 3107SOL    HW211329   0.280   7.017   3.754 -0.8850  0.3830  0.5807
 3108SOL     OW11330   6.695   2.706   3.351  0.0239 -0.2057  0.2511
 3108SOL    HW111331   6.739   2.786   3.323 -1.4727  1.0614  1.4125
 3108SOL    HW211332   6.766   2.651   3.383  1.2658 -0.0133 -1.9148
 3109SOL     OW11333  10.972   4.122   8.712  0.2108  0.1964 -0.2246
 3109SOL    HW111334  11.013   4.187   8.768  0.4540  0.7445 -1.0206
 3109SOL    HW211335  10.882   4.153   8.702  0.3459  0.4619 -0.6622
 3110SOL     OW11336   2.063   3.689   9.955 -0.2730  0.3806  0.2331
 3110SOL    HW111337   2.070   3.744   9.877  0.4222  0.7587  0.5552
 3110SOL    HW211338   1.978   3.713   9.993 -0.1845  0.9050  0.1129
 3111SOL     OW11339   8.567   0.091   2.032  0.1037  0.7069 -0.0648
 3111SOL    HW111340   8.562   0.148   1.956  0.4729  0.9820  0.1105
 3111SOL    HW211341   8.477   0.086   2.065 -0.1381  0.2033 -0.7883
 3112SOL     OW11342   1.480   7.174   1.359 -0.1840 -0.1012  0.0030
 3112SOL    HW111343   1.508   7.146   1.271  0.3687 -0.3606  0.2550
 3112SOL    HW211344   1.447   7.263   1.346  2.0433  0.7792 -0.1140
 3113SOL     OW11345   4.640   1.849  10.960  0.1057 -0.0493 -0.3199
 3113SOL    HW111346   4.581   1.912  11.001  1.6466  0.6172  0.9838
 3113SOL    HW211347   4.583   1.779  10.927 -1.3531  0.3301  1.3082
 3114SOL     OW11348   2.086   7.158   4.852  0.0982  0.1289 -0.1977
 3114SOL    HW111349   2.002   7.116   4.835  0.6525 -1.3938  0.5956
 3114SOL    HW211350   2.096   7.154   4.947 -0.7192  3.9807  0.2062
 3115SOL     OW11351   8.646   3.722   7.082  0.0538 -0.0428 -0.3615
 3115SOL    HW111352   8.636   3.745   6.989 -0.0423  1.5473  0.0120
 3115SOL    HW211353   8.709   3.649   7.082  0.9628  0.6978 -1.6090
 3116SOL     OW11354   6.282   2.757   6.781 -0.2912 -0.4912  0.5511
 3116SOL    HW111355   6.286   2.723   6.871  2.1035 -0.9538  0.3450
 3116SOL    HW211356   6.256   2.849   6.792 -0.8006 -0.7478  1.6415
 3117SOL     OW11357   2.791   3.794   7.568  0.0811  0.4629 -0.6383
 3117SOL    HW111358   2.813   3.887   7.562  0.0009  0.6187  0.8939
 3117SOL    HW211359   2.786   3.764   7.478  1.4200  1.6329 -1.1345
 3118SOL     OW11360   1.141   6.434   3.954  0.2754  0.3074 -0.5142
 3118SOL    HW111361   1.210   6.499   3.940  1.5149 -0.7850  0.3090
 3118SOL    HW211362   1.183   6.350   3.937 -0.9446 -0.3698 -0.3015
 3119SOL     OW11363   6.665   2.275   7.693 -0.3960 -0.9929 -0.2842
 3119SOL    HW111364   6.689   2.234   7.775  1.1995 -0.0226 -0.2290
 3119SOL    HW211365   6.748   2.301   7.653 -1.2244  2.7319  0.0113
 3120SOL     OW11366   3.272   3.683   5.238 -0.3674  0.1142 -0.0248
 3120SOL    HW111367   3.360   3.663   5.206  0.1766 -0.5319  1.7120
 3120SOL    HW211368   3.284   3.757   5.297 -1.1324  0.5402 -0.3842
 3121SOL     OW11369   2.064   1.065   3.859 -0.2289 -0.0980  1.1339
 3121SOL    HW111370   2.064   1.158   3.883  1.0860  0.0152  0.7490
 3121SOL    HW211371   2.136   1.028   3.909  2.4206  0.0722 -2.2423
 3122SOL     OW11372   8.555   5.666   3.884  0.2643  0.5725  0.0151
 3122SOL    HW111373   8.576   5.591   3.828 -0.1197 -0.5400  1.3113
 3122SOL    HW211374   8.477   5.638   3.933 -0.4564  2.1846 -0.1406
 3123SOL     OW11375   6.552   3.267  10.621 -0.6995  0.5435  0.4414
 3123SOL    HW111376   6.587   3.218  10.696 -0.4215  0.9363  0.5696
 3123SOL    HW211377   6.515   3.199  10.564 -4.1494  0.3814  2.5583
 3124SOL     OW11378   2.347   5.944   3.010  0.1227 -0.1480 -0.0148
 3124SOL    HW111379   2.343   5.881   2.938  0.9058 -0.9263  0.6016
 3124SOL    HW211380   2.279   5.915   3.071  0.2852 -0.2320  0.1290
 3125SOL     OW11381   2.263   6.636   1.923 -0.4199  0.2412  0.2627
 3125SOL    HW111382   2.335   6.694   1.948  0.5978 -0.0897 -1.6954
 3125SOL    HW211383   2.187   6.672   1.967  0.7267  1.2989  1.4685
 3126SOL     OW11384   7.049   9.514   3.432 -0.3274  0.3838  0.2324
 3126SOL    HW111385   7.051   9.445   3.367  1.5232  0.1683  0.4526
 3126SOL    HW211386   7.102   9.585   3.394 -1.4929  1.3674  0.3636
 3127SOL     OW11387   5.343   4.924   5.727 -0.0764  0.0127 -0.0858
 3127SOL    HW111388   5.289   4.991   5.686  0.0096  0.0188 -0.1880
 3127SOL    HW211389   5.295   4.900   5.807 -1.3382 -1.4829 -1.2082
 3128SOL     OW11390   3.561   7.322   5.263 -0.3523  0.4952 -0.3181
 3128SOL    HW111391   3.638   7.376   5.243 -0.5074  0.3837 -1.2213
 3128SOL    HW211392   3.504   7.380   5.313  0.1808  0.6726  0.0963
 3129SOL     OW11393   8.579   6.309   5.345 -0.3426  0.5550 -0.1287
 3129SOL    HW111394   8.561   6.357   5.264 -0.0111  1.4466  0.3127
 3129SOL    HW211395   8.545   6.221   5.329 -1.1132  0.9824 -0.8935
 3130SOL     OW11396   4.174   3.603   8.322  0.2881 -0.0731  0.1579
 3130SOL    HW111397   4.163   3.597   8.417  3.0643  0.4126  0.5968
 3130SOL    HW211398   4.138   3.521   8.288 -1.2757 -0.0017  1.5413
 3131SOL     OW11399   1.525   6.714   2.903  0.4847  0.1378 -0.4578
 3131SOL    HW111400   1.616   6.726   2.874  0.7498  2.0394  0.9449
 3131SOL    HW211401   1.532   6.661   2.983  0.2486 -0.5272 -0.8689
 3132SOL     OW11402  10.706   8.326   9.869  0.2685  0.4735  0.1542
 3132SOL    HW111403  10.663   8.252   9.912 -1.2736  2.0368  1.4283
 3132SOL    HW211404  10.791   8.333   9.912  1.8927 -2.4723 -2.1882
 3133SOL     OW11405   2.188   7.503   8.425 -0.0464  0.3901 -0.0028
 3133SOL    HW111406   2.256   7.443   8.455  0.8815  1.0988 -0.6316
 3133SOL    HW211407   2.127   7.448   8.375 -0.3715 -0.3832  1.1964
 3134SOL     OW11408   4.215   0.646   4.641  0.0336 -0.4997  0.4158
 3134SOL    HW111409   4.298   0.603   4.623 -0.3033 -0.5402 -1.1867
 3134SOL    HW211410   4.156   0.575   4.668  0.3863 -0.5293  1.1359
 3135SOL     OW11411  10.646   3.672   6.324  0.4273  0.1511  0.1158
 3135SOL    HW111412  10.738   3.687   6.305  0.1391  0.8049 -0.8221
 3135SOL    HW211413  10.599   3.731   6.266 -0.6202 -0.9980 -0.2588
 3136SOL     OW11414   0.623   6.976   3.988 -0.3398  0.1948 -0.4577
 3136SOL    HW111415   0.540   6.931   4.004  0.4003 -0.9657  0.3548
 3136SOL    HW211416   0.688   6.922   4.035  0.5997  2.1263  0.5704
 3137SOL     OW11417   2.138  10.296   6.253 -0.0806 -0.1897  0.3806
 3137SOL    HW111418   2.081  10.293   6.175 -2.7139  2.5140  2.0020
 3137SOL    HW211419   2.222  10.329   6.220 -1.3376  1.5717 -1.3069
 3138SOL     OW11420   3.005   1.632   1.239  0.4773  0.2660  0.1725
 3138SOL    HW111421   2.924   1.642   1.289 -0.1728 -1.1311 -0.5467
 3138SOL    HW211422   2.976   1.603   1.152  1.5836  2.3527 -0.9808
 3139SOL     OW11423   8.895   7.423   2.350  0.4931 -0.6353 -0.2926
 3139SOL    HW111424   8.847   7.506   2.354 -0.4279 -1.1823  2.3367
 3139SOL    HW211425   8.974   7.443   2.301 -1.4179  0.8030 -3.0652
 3140SOL     OW11426   7.800   7.203   2.414  0.1433  0.3082 -0.5160
 3140SOL    HW111427   7.735   7.258   2.370 -1.4669 -0.0903  1.2197
 3140SOL    HW211428   7.884   7.241   2.391 -0.8709  3.3073  0.2817
 3141SOL     OW11429   5.858   9.279   3.152 -0.2824  0.7622  0.0883
 3141SOL    HW111430   5.813   9.278   3.237 -1.2999 -0.0263 -0.4404
 3141SOL    HW211431   5.825   9.358   3.109 -0.3004  0.7918  0.1549
 3142SOL     OW11432   6.880   6.355   6.556  0.1030 -0.5439 -0.0536
 3142SOL    HW111433   6.912   6.425   6.500 -0.8905  1.6216  1.9340
 3142SOL    HW211434   6.786   6.349   6.537  0.2732 -1.8234 -0.6405
 3143SOL     OW11435   1.861   4.325   2.867  0.4104  0.3998  0.2390
 3143SOL    HW111436   1.786   4.362   2.820 -0.9447 -1.9104  0.4321
 3143SOL    HW211437   1.873   4.383   2.943 -2.7452 -0.4153  1.5176
 3144SOL     OW11438   7.557   0.024   4.670  0.2418  0.3056  0.2938
 3144SOL    HW111439   7.587  -0.025   4.593 -1.3286 -0.7726  0.3089
 3144SOL    HW211440   7.512   0.100   4.634 -1.7516 -0.9212 -0.0032
 3145SOL     OW11441  10.958   1.127   7.833  0.0892 -0.1092  0.6858
 3145SOL    HW111442  10.952   1.085   7.919 -0.1761  0.2727  0.8565
 3145SOL    HW211443  10.939   1.057   7.771 -1.2628 -0.0502  1.0099
 3146SOL     OW11444   3.876   5.221   5.625 -0.3161  0.0131  0.1158
 3146SOL    HW111445   3.901   5.165   5.552 -3.2310 -1.3538  0.0642
 3146SOL    HW211446   3.839   5.299   5.583  3.1915  1.9377  0.1976
 3147SOL     OW11447   2.213   4.307   9.981  0.2500  0.1504  0.1525
 3147SOL    HW111448   2.150   4.333  10.047 -1.1005  1.4877 -1.5516
 3147SOL    HW211449   2.184   4.221   9.951  2.6738 -2.0123  3.3172
 3148SOL     OW11450   0.590   6.640   8.437  0.6963  0.4457  0.0524
 3148SOL    HW111451   0.667   6.594   8.405  0.6785  0.3432  0.1567
 3148SOL    HW211452   0.521   6.574   8.436  0.1232  0.9904 -1.8580
 3149SOL     OW11453   0.422   8.777   2.826  0.7288  0.9081  0.0948
 3149SOL    HW111454   0.331   8.778   2.796  1.1818 -0.6338 -1.4990
 3149SOL    HW211455   0.417   8.753   2.918 -0.5243  2.2440  0.4200
 3150SOL     OW11456   9.227   6.905   8.138  0.3455 -0.7855 -0.5636
 3150SOL    HW111457   9.257   6.817   8.113  0.6640 -0.4822 -1.2559
 3150SOL    HW211458   9.153   6.888   8.197  0.5720 -1.5220 -0.4712
 3151SOL     OW11459  11.096   7.155   3.774  0.3358 -0.2811 -0.2303
 3151SOL    HW111460  11.025   7.129   3.833  0.6650 -2.8677 -0.8882
 3151SOL    HW211461  11.162   7.194   3.831 -0.7102  0.2839  0.6413
 3152SOL     OW11462   8.171   5.305   3.292  0.0783  0.0023  0.0105
 3152SOL    HW111463   8.226   5.259   3.355  0.3579  1.7796  1.1173
 3152SOL    HW211464   8.230   5.364   3.245 -0.4555  0.0570 -0.6234
 3153SOL     OW11465   3.786   0.885   4.091 -0.2072 -0.0099 -0.0885
 3153SOL    HW111466   3.836   0.828   4.149 -2.0684 -1.2513  0.3753
 3153SOL    HW211467   3.785   0.970   4.136 -0.5614 -0.6228  1.0921
 3154SOL     OW11468   8.505  10.185   8.724  0.4232 -0.2785 -0.5636
 3154SOL    HW111469   8.521  10.116   8.788 -0.1031 -1.1226 -1.3184
 3154SOL    HW211470   8.410  10.197   8.726  0.4049 -0.2889 -1.1508
 3155SOL     OW11471   3.534   1.064   9.847 -0.0481  0.0548  0.4209
 3155SOL    HW111472   3.610   1.008   9.856  0.0660  0.2708  0.8352
 3155SOL    HW211473   3.487   1.054   9.930  0.1226  0.7894  0.6074
 3156SOL     OW11474   0.768   3.662   5.710  0.3678  0.6541  0.4528
 3156SOL    HW111475   0.688   3.613   5.730  0.0533  1.3166  0.8242
 3156SOL    HW211476   0.823   3.599   5.663 -0.3576  0.1883  0.2151
 3157SOL     OW11477   6.314   9.609   9.767  0.0671 -0.3644  0.0994
 3157SOL    HW111478   6.351   9.536   9.716  0.4605  0.9409 -1.5692
 3157SOL    HW211479   6.391   9.653   9.805  0.1591  1.1450 -1.6984
 3158SOL     OW11480   5.462   2.755   7.255  0.8471  0.1354 -0.3152
 3158SOL    HW111481   5.542   2.807   7.260  0.6867  0.4946 -1.1652
 3158SOL    HW211482   5.404   2.794   7.321  2.0581 -1.4374  1.7716
 3159SOL     OW11483   8.526   3.829   2.765 -0.6423 -0.3386  0.7765
 3159SOL    HW111484   8.479   3.779   2.698  0.8617 -0.2966 -0.3591
 3159SOL    HW211485   8.530   3.918   2.730  1.8620 -0.7230 -0.0690
 3160SOL     OW11486   0.843  10.733   4.431 -0.5259 -0.3717  0.6096
 3160SOL    HW111487   0.816  10.807   4.378  3.5111  1.1579  0.3178
 3160SOL    HW211488   0.830  10.657   4.375  0.4304  0.8199 -1.3149
 3161SOL     OW11489   0.231   4.469   4.976  0.5516  0.1664 -0.2841
 3161SOL    HW111490   0.320   4.475   4.939 -0.0129 -0.3010 -1.7674
 3161SOL    HW211491   0.175   4.450   4.901 -1.1232  2.5952  0.2399
 3162SOL     OW11492   3.352   1.557   2.059  0.2133  0.5608 -0.3145
 3162SOL    HW111493   3.385   1.627   2.002  1.6168  0.0604 -0.1558
 3162SOL    HW211494   3.410   1.558   2.135  0.1147 -0.6187 -0.1969
 3163SOL     OW11495   5.019   9.905  10.172 -0.2751 -0.0870  0.7289
 3163SOL    HW111496   4.980   9.853  10.102 -0.9805  0.7388  0.4922
 3163SOL    HW211497   5.089   9.954  10.130 -0.4323  0.1009  0.6837
 3164SOL     OW11498   5.025   6.888   2.079 -0.0968 -0.0195 -0.5226
 3164SOL    HW111499   5.072   6.971   2.090 -0.9629  0.3012  0.8487
 3164SOL    HW211500   4.975   6.900   1.998  2.9957 -0.8142 -2.7780
 3165SOL     OW11501   1.292   4.002   7.567  0.2506 -0.1158 -0.1058
 3165SOL    HW111502   1.239   3.948   7.508  1.4043 -1.4381 -0.0058
 3165SOL    HW211503   1.229   4.042   7.627 -0.7977 -0.0188 -1.2357
 3166SOL     OW11504   1.572   2.608   5.921  0.1849  0.4429 -0.0240
 3166SOL    HW111505   1.498   2.592   5.863  0.5799 -0.1258 -0.3749
 3166SOL    HW211506   1.630   2.533   5.908  0.0156  0.0099  1.5358
 3167SOL     OW11507   0.156   5.822   4.205 -0.0507 -0.3439 -0.5058
 3167SOL    HW111508   0.153   5.888   4.275  0.1191 -1.6118  0.7520
 3167SOL    HW211509   0.197   5.746   4.247 -1.6727 -1.7958 -1.4403
 3168SOL     OW11510   3.098   0.058   6.307 -0.0430  0.1146 -0.4116
 3168SOL    HW111511   3.108   0.020   6.394 -0.0839  0.4798 -0.2481
 3168SOL    HW211512   3.056   0.142   6.321  1.3875  0.9031 -0.6178
 3169SOL     OW11513   0.567   4.093   7.245  0.3952 -0.2261  0.1059
 3169SOL    HW111514   0.641   4.105   7.305  1.3268  0.5740 -1.1574
 3169SOL    HW211515   0.607   4.089   7.158 -1.0472  0.2546 -0.6086
 3170SOL     OW11516  10.294   6.039   4.406 -0.3661  0.5036 -0.6126
 3170SOL    HW111517  10.350   6.054   4.482  1.2229  1.4579 -1.9147
 3170SOL    HW211518  10.230   5.974   4.436 -0.3774  1.5176  1.7979
 3171SOL     OW11519   2.714   8.317   8.343  0.2298  0.5792 -0.1604
 3171SOL    HW111520   2.787   8.290   8.289 -1.7272  0.3711 -2.9107
 3171SOL    HW211521   2.664   8.236   8.358 -0.9811  1.1529 -0.9121
 3172SOL     OW11522  10.058   4.968  10.929 -0.2590  0.6997 -0.4607
 3172SOL    HW111523   9.966   4.953  10.954 -0.1848 -0.2736 -0.7500
 3172SOL    HW211524  10.055   4.980  10.834  0.2100 -2.0799 -0.8919
 3173SOL     OW11525   1.352   6.395   3.182 -0.7774 -0.1993  0.6569
 3173SOL    HW111526   1.318   6.361   3.099  0.3636 -0.4792  0.2882
 3173SOL    HW211527   1.317   6.484   3.188  0.4939  0.4459 -0.9677
 3174SOL     OW11528   0.547   8.044   4.844  0.2234 -1.0077 -0.0129
 3174SOL    HW111529   0.606   8.034   4.768  2.0486  0.7721  1.0546
 3174SOL    HW211530   0.549   8.138   4.863  3.1656 -1.6999  4.6534
 3175SOL     OW11531   4.079   7.305   0.481  0.0659  0.2164  0.2750
 3175SOL    HW111532   4.139   7.249   0.432 -0.5300 -1.8187  1.7559
 3175SOL    HW211533   4.125   7.389   0.489  0.1261  0.7473 -3.7960
 3176SOL     OW11534   0.904  10.163   1.608  0.0583 -0.0899 -0.2373
 3176SOL    HW111535   0.823  10.170   1.557  0.4106  1.6723 -0.6030
 3176SOL    HW211536   0.922  10.069   1.611 -1.3237 -0.4172 -1.2207
 3177SOL     OW11537  10.111   2.245   7.872  0.3586  0.0144 -0.4170
 3177SOL    HW111538  10.062   2.287   7.801 -0.8461  0.0281  0.3961
 3177SOL    HW211539  10.198   2.284   7.868  0.5921 -0.6093 -2.4296
 3178SOL     OW11540   3.900   6.831   3.529 -0.2738  0.0098  0.3293
 3178SOL    HW111541   3.985   6.854   3.565  1.7869 -3.0236 -2.0839
 3178SOL    HW211542   3.890   6.888   3.452  0.1618 -0.3895 -0.0319
 3179SOL     OW11543  10.522   3.811   4.003 -0.5956 -0.3533 -0.1352
 3179SOL    HW111544  10.604   3.852   4.029  0.6458 -2.4399 -0.5013
 3179SOL    HW211545  10.465   3.884   3.977  0.7705  1.2096  1.0867
 3180SOL     OW11546  10.346   8.215   6.552 -0.2346  0.1194  0.6686
 3180SOL    HW111547  10.342   8.213   6.456  1.6143  0.3809  0.5615
 3180SOL    HW211548  10.364   8.307   6.573  0.7469 -0.1823  1.1871
 3181SOL     OW11549  10.219   4.230   7.042 -0.2217 -0.2749 -0.0119
 3181SOL    HW111550  10.235   4.236   7.136  0.2961  1.6309 -0.1749
 3181SOL    HW211551  10.169   4.309   7.021 -0.4008 -0.7102 -1.3338
 3182SOL     OW11552   8.043   5.441   4.947  0.3967 -0.0079 -0.0350
 3182SOL    HW111553   8.112   5.409   5.005  0.9052  0.8641 -0.1350
 3182SOL    HW211554   8.082   5.439   4.860 -0.1442 -0.7033 -0.2701
 3183SOL     OW11555   4.396   5.464   8.375 -0.2020  0.2149 -0.1832
 3183SOL    HW111556   4.462   5.523   8.410 -1.0171  0.8339  0.3358
 3183SOL    HW211557   4.425   5.445   8.286  2.1171 -1.6835  0.8526
 3184SOL     OW11558   0.662   0.853   7.600  0.2074  0.5507 -0.2932
 3184SOL    HW111559   0.749   0.890   7.580  0.4671  0.5351  0.7753
 3184SOL    HW211560   0.667   0.827   7.692 -1.5289  2.2475  0.3462
 3185SOL     OW11561   0.038   8.887   8.115 -0.0926  0.0316 -0.7030
 3185SOL    HW111562   0.032   8.949   8.043 -2.5257  0.3377 -0.3262
 3185SOL    HW211563   0.096   8.818   8.082  1.2597  1.5928 -1.7763
 3186SOL     OW11564   2.059  10.154   5.268 -0.0434  0.5464 -0.2189
 3186SOL    HW111565   2.120  10.192   5.205 -0.1972  1.1558 -0.0070
 3186SOL    HW211566   2.098  10.070   5.291  0.4162  0.6696 -0.5285
 3187SOL     OW11567   1.702   6.842   7.786 -0.5255  0.0815 -0.8344
 3187SOL    HW111568   1.709   6.859   7.880  0.0023  2.1350 -1.1939
 3187SOL    HW211569   1.719   6.749   7.777  1.1318  0.1449  0.9487
 3188SOL     OW11570   8.967   3.548   3.761 -0.3854 -0.2501 -0.0265
 3188SOL    HW111571   9.032   3.617   3.749 -0.4489 -0.0044  0.9892
 3188SOL    HW211572   8.986   3.485   3.691 -0.0984  0.6128 -0.7470
 3189SOL     OW11573   2.743   3.917   5.630 -0.0811  0.1293  0.0094
 3189SOL    HW111574   2.730   3.833   5.586  0.4813 -1.1747  2.1857
 3189SOL    HW211575   2.672   3.921   5.694 -0.9028  1.9930 -0.9489
 3190SOL     OW11576   3.998   1.737   7.017 -0.1501  0.0128 -0.0195
 3190SOL    HW111577   4.070   1.773   6.965 -0.4055  1.2712  0.4634
 3190SOL    HW211578   3.921   1.784   6.985 -0.7442 -1.2143 -0.4207
 3191SOL     OW11579   3.530   0.284   3.263 -0.4518  0.4797  0.2924
 3191SOL    HW111580   3.436   0.272   3.271 -0.0935 -1.7786  2.3182
 3191SOL    HW211581   3.556   0.329   3.343  0.1790  1.4830 -0.4445
 3192SOL     OW11582   8.868   4.428   3.276 -0.0925 -0.3063 -0.1428
 3192SOL    HW111583   8.855   4.513   3.317 -2.2174 -0.3190 -0.7146
 3192SOL    HW211584   8.835   4.365   3.339 -2.1350 -0.4116 -1.2397
 3193SOL     OW11585   7.992   9.624   6.582  0.9140 -0.7356 -0.2755
 3193SOL    HW111586   7.909   9.580   6.564  1.3938 -0.9089 -2.4036
 3193SOL    HW211587   8.048   9.557   6.619  0.5197 -0.9727 -0.1042
 3194SOL     OW11588   9.800   5.553   4.520 -0.0524 -0.5381 -0.1798
 3194SOL    HW111589   9.831   5.478   4.571  0.4582 -0.5272 -0.4561
 3194SOL    HW211590   9.876   5.578   4.467  0.5397  1.6331  1.5708
 3195SOL     OW11591  11.058   4.317   2.683  0.1576 -0.4750 -0.2083
 3195SOL    HW111592  11.153   4.321   2.670  0.1991 -1.4145 -0.2329
 3195SOL    HW211593  11.048   4.287   2.773 -0.1223 -0.1510 -0.1296
 3196SOL     OW11594   2.885   0.652   0.581 -0.0712  0.1896 -0.1990
 3196SOL    HW111595   2.873   0.698   0.664  0.5755  0.2257 -0.1224
 3196SOL    HW211596   2.814   0.587   0.579  0.5153 -0.5193  0.8708
 3197SOL     OW11597   2.977   8.217   8.560 -0.1439 -0.0624  0.3956
 3197SOL    HW111598   2.905   8.154   8.560  0.8764 -1.2700 -0.0825
 3197SOL    HW211599   3.027   8.197   8.481  0.3179  1.2373  0.3323
 3198SOL     OW11600   4.596   5.877   3.634 -0.7599 -0.4923  0.4157
 3198SOL    HW111601   4.674   5.829   3.663 -0.4252 -0.6441 -0.6730
 3198SOL    HW211602   4.541   5.811   3.593 -0.1864  0.0405 -1.3193
 3199SOL     OW11603   8.635   3.460   6.292  0.3322  0.0824  0.6891
 3199SOL    HW111604   8.657   3.541   6.247 -0.7407 -0.6485 -1.2971
 3199SOL    HW211605   8.545   3.473   6.323 -0.3663 -0.7463 -0.8316
 3200SOL     OW11606   1.870  10.377   2.487  0.1517 -0.0156  0.0633
 3200SOL    HW111607   1.933  10.427   2.539 -0.9785  0.2426  1.2325
 3200SOL    HW211608   1.885  10.286   2.511 -1.2768  0.1913  1.9772
 3201SOL     OW11609   8.779   7.129   6.912 -0.1813 -0.4386 -0.7612
 3201SOL    HW111610   8.787   7.060   6.845  0.0555 -1.5609  0.3848
 3201SOL    HW211611   8.869   7.153   6.932 -0.2058  2.8316 -3.6682
 3202SOL     OW11612   4.013   3.426   5.745 -0.2351 -0.6998  0.5961
 3202SOL    HW111613   3.941   3.363   5.745 -1.0282  0.0887 -1.7712
 3202SOL    HW211614   3.976   3.506   5.708  1.1508  0.7122  2.0509
 3203SOL     OW11615  10.544   0.859   1.642 -0.3062 -0.3923  0.3059
 3203SOL    HW111616  10.507   0.788   1.591 -0.5459 -0.3048  0.3595
 3203SOL    HW211617  10.570   0.924   1.577  0.1859 -0.6525  0.2340
 3204SOL     OW11618   2.580   4.516   3.636 -0.2516 -0.4545 -0.0140
 3204SOL    HW111619   2.496   4.472   3.629  0.4954 -1.8675 -0.5322
 3204SOL    HW211620   2.627   4.468   3.704  1.0824 -1.3530 -1.5082
 3205SOL     OW11621   8.704   2.214   6.407 -0.0539 -0.0370 -0.1190
 3205SOL    HW111622   8.665   2.131   6.383 -0.7080  0.3577 -0.4480
 3205SOL    HW211623   8.754   2.195   6.487  0.0619 -0.8017 -0.3641
 3206SOL     OW11624   3.791   6.594   6.809 -0.0754 -0.6267 -0.5410
 3206SOL    HW111625   3.872   6.563   6.851  0.2832  1.0541  0.1318
 3206SOL    HW211626   3.818   6.673   6.762 -0.9769 -1.1253 -1.9256
 3207SOL     OW11627   1.495   9.540   5.818 -0.1650  0.3995  0.3200
 3207SOL    HW111628   1.490   9.634   5.833  1.2063  0.8433 -1.6405
 3207SOL    HW211629   1.438   9.525   5.742  0.3349 -0.1926  0.0550
 3208SOL     OW11630   3.414   8.531   4.683  0.0719  0.2292  0.3856
 3208SOL    HW111631   3.368   8.481   4.750 -0.6066  1.8377  1.1721
 3208SOL    HW211632   3.409   8.477   4.605  0.7917 -1.6454  1.5690
 3209SOL     OW11633   2.489   1.352   6.008 -0.6820 -0.1916  0.5096
 3209SOL    HW111634   2.573   1.306   6.006 -1.5853 -1.8773 -0.5927
 3209SOL    HW211635   2.499   1.423   5.944  0.3267  0.5053  1.3884
 3210SOL     OW11636   0.949   1.049   3.431 -0.5061 -0.1363  0.1393
 3210SOL    HW111637   1.027   1.001   3.403  0.2065  0.8081  0.4554
 3210SOL    HW211638   0.953   1.132   3.383 -1.0002  0.1636  0.5986
 3211SOL     OW11639   2.643   1.171   9.511 -0.3527 -0.2061 -0.2168
 3211SOL    HW111640   2.726   1.161   9.464 -0.9004  1.4475 -1.6324
 3211SOL    HW211641   2.648   1.257   9.552 -1.4040  0.0057 -0.4770
 3212SOL     OW11642   9.645   8.137   0.595  0.3165  0.2422 -0.4591
 3212SOL    HW111643   9.731   8.107   0.626  0.4745  1.6047  0.5142
 3212SOL    HW211644   9.651   8.232   0.596 -2.2307  0.5569  2.8668
 3213SOL     OW11645   2.186   8.279   7.633  0.2308 -0.0644  0.3494
 3213SOL    HW111646   2.142   8.297   7.550 -0.3818  2.1722  1.0808
 3213SOL    HW211647   2.128   8.217   7.678 -0.3027  0.0254 -0.2014
 3214SOL     OW11648   5.220   5.006   9.464 -0.5366 -0.0689 -0.3837
 3214SOL    HW111649   5.280   4.975   9.531 -0.7692  2.4302  1.1452
 3214SOL    HW211650   5.153   4.938   9.458  0.2249 -0.9800  0.9435
 3215SOL     OW11651   4.408  10.648   4.221 -0.3440  0.3241 -0.2079
 3215SOL    HW111652   4.412  10.576   4.157  0.7863  0.2620 -0.0861
 3215SOL    HW211653   4.497  10.653   4.256 -1.1835 -0.3800  2.2029
 3216SOL     OW11654   0.451   4.947   4.964 -0.7209  0.1652  0.2024
 3216SOL    HW111655   0.471   5.007   4.892  0.7175  0.3942  0.7554
 3216SOL    HW211656   0.356   4.949   4.971 -0.7298  2.1946  0.0393
 3217SOL     OW11657   6.436   5.299  10.281 -0.3653  0.3270  0.3569
 3217SOL    HW111658   6.527   5.276  10.263 -0.8440  0.0565 -2.0007
 3217SOL    HW211659   6.435   5.394  10.281 -0.5957  0.4566 -3.2561
 3218SOL     OW11660  10.310   0.670   6.149 -0.3929 -0.8612 -0.2639
 3218SOL    HW111661  10.329   0.639   6.238 -3.0298  1.2163  1.1798
 3218SOL    HW211662  10.332   0.763   6.151  3.6271 -1.5116 -3.2667
 3219SOL     OW11663   2.293   2.518   3.636 -0.1105 -0.3872  0.8091
 3219SOL    HW111664   2.344   2.550   3.562 -0.1966  1.2273  1.3996
 3219SOL    HW211665   2.326   2.568   3.711 -1.8917 -0.0026  1.3843
 3220SOL     OW11666  10.833   4.154   5.654  0.2476 -0.5309 -0.0725
 3220SOL    HW111667  10.880   4.072   5.641 -1.6104 -1.4258 -1.6824
 3220SOL    HW211668  10.741   4.127   5.664 -0.4879  1.3751 -1.2760
 3221SOL     OW11669   6.025   3.555   4.701  0.1310 -0.1082 -0.1730
 3221SOL    HW111670   6.049   3.467   4.671 -1.5702 -0.0243 -2.0358
 3221SOL    HW211671   5.940   3.544   4.743 -1.0382  0.8237 -2.1238
 3222SOL     OW11672   4.277   0.353   5.162 -0.4642 -0.5684 -0.3664
 3222SOL    HW111673   4.254   0.264   5.134  1.1726 -1.3365  0.6196
 3222SOL    HW211674   4.304   0.397   5.081 -0.8507 -1.1036 -0.7949
 3223SOL     OW11675   0.673   4.452   4.682 -0.5290  0.1155  0.7561
 3223SOL    HW111676   0.695   4.541   4.654  1.4290 -0.1288  1.3456
 3223SOL    HW211677   0.669   4.401   4.601  1.5624  0.1335  0.5758
 3224SOL     OW11678   3.271   2.308   0.324  0.3099 -0.8632  0.1464
 3224SOL    HW111679   3.188   2.344   0.356  2.0736  1.7319  2.2144
 3224SOL    HW211680   3.277   2.341   0.234  0.4060  1.5260  0.9642
 3225SOL     OW11681  10.169   6.479   8.945  0.0792 -0.1278 -0.0479
 3225SOL    HW111682  10.223   6.403   8.924  1.8717  1.1501 -0.2752
 3225SOL    HW211683  10.161   6.527   8.863  0.1011  0.5931  0.3554
 3226SOL     OW11684   6.174   4.324   3.708  0.0704  0.6351 -0.4282
 3226SOL    HW111685   6.182   4.231   3.731  1.8912  0.7988 -0.2213
 3226SOL    HW211686   6.098   4.328   3.651 -1.8733 -0.5181  1.8773
 3227SOL     OW11687  10.624   5.247   9.097  0.1556  0.0779 -0.0999
 3227SOL    HW111688  10.570   5.293   9.032  0.5220 -0.1669 -0.5828
 3227SOL    HW211689  10.711   5.285   9.086 -0.1491  1.3901  1.5520
 3228SOL     OW11690   8.019   8.513   8.280 -0.7322  0.1367  0.2125
 3228SOL    HW111691   8.036   8.483   8.191 -1.5417 -0.3355  0.2074
 3228SOL    HW211692   7.951   8.454   8.313 -1.1030  0.8854  0.8260
 3229SOL     OW11693  10.980   9.895  11.039  0.0916 -0.5725 -0.1083
 3229SOL    HW111694  11.000   9.952  10.965  1.0403 -1.3098 -0.4523
 3229SOL    HW211695  11.049   9.912  11.103  0.1583 -1.0290 -0.0487
 3230SOL     OW11696   5.340   2.880   6.059  0.2644  0.5178  0.1142
 3230SOL    HW111697   5.353   2.945   6.128  0.1875  0.3130  0.3260
 3230SOL    HW211698   5.428   2.847   6.040  0.4111  1.3103 -0.6214
 3231SOL     OW11699   0.974   4.587   0.524 -0.5635  0.9306  0.0634
 3231SOL    HW111700   0.935   4.590   0.437 -1.0739 -0.4271  0.2225
 3231SOL    HW211701   0.901   4.568   0.583  0.0872 -0.2555  0.5221
 3232SOL     OW11702   8.571   6.550   3.357 -0.3305  0.6088  0.1305
 3232SOL    HW111703   8.575   6.458   3.383  0.9949  0.5649 -0.1929
 3232SOL    HW211704   8.596   6.598   3.436  0.1695  0.6330 -0.0398
 3233SOL     OW11705   7.859   6.482   1.334  0.2008 -0.4289  0.1121
 3233SOL    HW111706   7.815   6.424   1.396  0.0807 -0.3308  0.1189
 3233SOL    HW211707   7.801   6.557   1.326  1.3653  0.7010  1.7246
 3234SOL     OW11708   1.341   4.874   1.469  0.0623 -0.1752 -0.1202
 3234SOL    HW111709   1.260   4.887   1.517  1.2621  0.8140  1.7870
 3234SOL    HW211710   1.367   4.784   1.490  0.7778  0.3729  1.5246
 3235SOL     OW11711  10.647   5.315   6.664  0.2617 -0.0495 -0.7169
 3235SOL    HW111712  10.695   5.397   6.678 -0.2514  0.0277  0.7741
 3235SOL    HW211713  10.555   5.341   6.664 -0.1602 -0.9170  3.1909
 3236SOL     OW11714   8.516   5.488   2.600  0.3893  0.6772 -0.0632
 3236SOL    HW111715   8.421   5.480   2.591  0.5207 -0.2679 -0.7653
 3236SOL    HW211716   8.544   5.404   2.635  0.8082  1.5206  1.7159
 3237SOL     OW11717  10.944   4.961   6.010 -0.2088 -0.4284 -0.3635
 3237SOL    HW111718  10.978   5.027   5.950 -0.8169 -0.3041 -0.5792
 3237SOL    HW211719  10.944   5.004   6.096 -2.4617  0.5812 -0.8021
 3238SOL     OW11720   0.490   7.117   4.594  0.1824 -0.4072 -0.4119
 3238SOL    HW111721   0.482   7.202   4.639  0.8405  0.7331 -2.3354
 3238SOL    HW211722   0.513   7.055   4.663  1.0583  1.2497  0.8389
 3239SOL     OW11723   6.529   6.353   8.585  0.1436 -0.2337 -0.0758
 3239SOL    HW111724   6.565   6.302   8.658 -0.4899 -1.5316 -0.6285
 3239SOL    HW211725   6.536   6.444   8.613  1.9471 -0.5643  0.6731
 3240SOL     OW11726   3.501   0.045   4.825  0.0112  0.4965 -0.0964
 3240SOL    HW111727   3.468  -0.042   4.849  2.0837 -0.6209 -0.9923
 3240SOL    HW211728   3.525   0.085   4.908  0.3498 -0.3714  0.2417
 3241SOL     OW11729   8.552   2.882   6.849  0.4351 -0.0420 -0.2431
 3241SOL    HW111730   8.526   2.841   6.931 -1.7029 -1.3891 -1.5057
 3241SOL    HW211731   8.539   2.976   6.864  0.4269 -0.2306  1.0397
 3242SOL     OW11732   9.963  10.592   2.587 -0.0205 -0.4236 -0.1737
 3242SOL    HW111733   9.923  10.515   2.545 -1.6762  0.4619 -0.2755
 3242SOL    HW211734   9.904  10.614   2.659  0.0977  1.1299 -0.5182
 3243SOL     OW11735   6.406   7.390   7.614  0.0815 -0.5066 -0.0197
 3243SOL    HW111736   6.312   7.389   7.630  0.4079  0.4381  2.3999
 3243SOL    HW211737   6.415   7.372   7.520 -2.6110  1.6311 -0.8147
 3244SOL     OW11738   2.413   2.534   6.096  0.3558  0.3130 -0.0730
 3244SOL    HW111739   2.344   2.471   6.072 -0.1745  0.2321  1.5822
 3244SOL    HW211740   2.486   2.511   6.038 -0.4464 -0.6481 -0.7539
 3245SOL     OW11741   2.241   2.350   4.713 -0.3572  0.3508  0.7251
 3245SOL    HW111742   2.304   2.422   4.716 -0.7368  0.6817  0.9003
 3245SOL    HW211743   2.244   2.313   4.801  1.5353 -1.3490  0.0133
 3246SOL     OW11744   8.241   1.772   6.919  0.1144  0.0339 -0.2929
 3246SOL    HW111745   8.156   1.794   6.881 -0.7145  0.9465  1.9678
 3246SOL    HW211746   8.274   1.856   6.953  0.6776 -0.7663  1.2164
 3247SOL     OW11747   8.888  10.907   7.458  0.6621 -0.2564  0.5658
 3247SOL    HW111748   8.819  10.850   7.493 -0.3168 -0.2223 -1.2154
 3247SOL    HW211749   8.843  10.988   7.436  0.7672 -0.8831 -2.4359
 3248SOL     OW11750   4.918   6.964   8.797 -0.4351 -0.0144  0.3540
 3248SOL    HW111751   4.944   7.050   8.831 -0.4465 -0.3936  1.3642
 3248SOL    HW211752   4.863   6.927   8.866  0.2832 -1.1928  0.3147
 3249SOL     OW11753   3.066   4.049   5.886 -0.5946 -0.3277  0.0904
 3249SOL    HW111754   3.064   3.959   5.918  1.3146  0.4666  2.9184
 3249SOL    HW211755   2.983   4.087   5.914 -1.9423 -1.4040 -2.1645
 3250SOL     OW11756   5.002   7.234   0.695  0.2499  0.2798 -0.2645
 3250SOL    HW111757   4.916   7.274   0.702 -1.0821 -2.2783 -0.7474
 3250SOL    HW211758   5.006   7.173   0.768  1.0752 -0.6285 -1.0422
 3251SOL     OW11759   8.049   8.653   3.733 -0.3255 -0.1225 -0.2174
 3251SOL    HW111760   8.036   8.733   3.783  0.4303 -0.6331  0.8233
 3251SOL    HW211761   8.143   8.649   3.718 -0.4502 -0.3991 -0.9891
 3252SOL     OW11762   5.341   5.870  10.355 -0.2211  0.1890  0.1807
 3252SOL    HW111763   5.247   5.862  10.339 -0.6177  0.3114  2.1666
 3252SOL    HW211764   5.352   5.957  10.392  0.4642 -0.2937  1.1672
 3253SOL     OW11765   4.316   4.464   7.922  0.4093 -0.6626 -0.5606
 3253SOL    HW111766   4.351   4.385   7.963  0.8262 -0.1585  0.0858
 3253SOL    HW211767   4.361   4.469   7.837  3.1850  0.7922  0.8572
 3254SOL     OW11768   2.043   9.045   9.464  0.3321  0.2752  0.4436
 3254SOL    HW111769   2.060   9.032   9.557  0.1788 -0.8199  0.3360
 3254SOL    HW211770   1.952   9.017   9.452  0.8712 -1.2712 -0.3207
 3255SOL     OW11771   6.776   7.865   5.462 -0.0755 -0.4891  0.8679
 3255SOL    HW111772   6.798   7.810   5.387  0.3517 -0.3303  0.8792
 3255SOL    HW211773   6.797   7.811   5.538 -2.1602 -1.3468  0.9060
 3256SOL     OW11774  10.630   4.532   8.022  0.0183 -0.0567 -0.2891
 3256SOL    HW111775  10.539   4.543   7.992 -0.3624 -0.5565  0.6549
 3256SOL    HW211776  10.640   4.596   8.092  0.4423  0.0866 -0.4762
 3257SOL     OW11777   8.987   0.357   7.456 -0.1046 -0.6480  0.1764
 3257SOL    HW111778   9.020   0.419   7.391 -0.6790  2.1440  2.3355
 3257SOL    HW211779   9.065   0.332   7.507  0.0781 -1.5156 -0.5071
 3258SOL     OW11780   2.240   3.172   5.239  0.1720  0.3656 -0.1629
 3258SOL    HW111781   2.168   3.162   5.302  0.6304 -1.7083  0.0933
 3258SOL    HW211782   2.196   3.196   5.157 -0.6615  0.6765  0.3548
 3259SOL     OW11783   4.175   3.094   9.142  0.7634  0.2606  0.2906
 3259SOL    HW111784   4.215   3.075   9.057  0.5758 -0.1005  0.2806
 3259SOL    HW211785   4.244   3.077   9.206  0.3233 -1.4833  0.3627
 3260SOL     OW11786   0.666   5.831   8.297 -0.4251 -0.1913 -0.2158
 3260SOL    HW111787   0.718   5.770   8.349 -0.4106 -1.2524 -1.4408
 3260SOL    HW211788   0.577   5.795   8.300 -1.3774  1.9985  2.4814
 3261SOL     OW11789   6.772   4.727   1.919 -0.0779 -0.6445  0.6924
 3261SOL    HW111790   6.737   4.786   1.852  1.1515 -1.2629 -0.5416
 3261SOL    HW211791   6.860   4.759   1.935  0.8799 -2.4684 -0.5018
 3262SOL     OW11792   2.279   8.424   5.178  0.0856  0.1142  0.2551
 3262SOL    HW111793   2.318   8.408   5.092 -0.4912 -1.1792  0.2083
 3262SOL    HW211794   2.346   8.474   5.225  0.3733  0.9212 -0.9605
 3263SOL     OW11795   0.268   0.549   4.984  0.3338 -0.1624  0.2381
 3263SOL    HW111796   0.263   0.468   5.035 -1.5254 -1.7560 -2.2361
 3263SOL    HW211797   0.187   0.596   5.005  0.9115  0.5963  0.8520
 3264SOL     OW11798   5.461   1.322   5.637  0.2290 -0.3135  0.1394
 3264SOL    HW111799   5.550   1.287   5.627  0.4158  0.3752 -0.6461
 3264SOL    HW211800   5.458   1.353   5.728  0.7077 -0.5603  0.2421
 3265SOL     OW11801   2.225  10.842   1.404  0.2878 -0.6888 -0.1790
 3265SOL    HW111802   2.296  10.868   1.463 -0.3583 -0.8111  0.6683
 3265SOL    HW211803   2.163  10.795   1.460 -1.7924  1.7196 -0.3076
 3266SOL     OW11804   4.942  10.016   5.175  0.7104  0.5803 -0.3773
 3266SOL    HW111805   4.879   9.945   5.185  0.2881  0.9605 -0.3190
 3266SOL    HW211806   4.983  10.001   5.090 -0.6482  1.2713 -1.1772
 3267SOL     OW11807   2.977   9.478   7.383  0.1105 -0.4691  0.6478
 3267SOL    HW111808   3.009   9.540   7.449  0.6876  2.1196 -1.8664
 3267SOL    HW211809   3.045   9.479   7.315 -1.5292 -1.1530 -1.0803
 3268SOL     OW11810   1.589   5.347   5.485  0.2501  0.2079  0.4882
 3268SOL    HW111811   1.588   5.441   5.466  0.0561  0.6244  2.3668
 3268SOL    HW211812   1.502   5.330   5.522 -0.1676 -0.9995 -0.9300
 3269SOL     OW11813   5.144   0.246   1.199 -0.7650  0.0503  0.4806
 3269SOL    HW111814   5.234   0.224   1.177 -1.5023 -1.7438 -1.0611
 3269SOL    HW211815   5.147   0.338   1.226  1.4526  0.1191  0.1351
 3270SOL     OW11816   5.059   6.468  10.530  0.3133 -0.0952 -0.1032
 3270SOL    HW111817   4.987   6.407  10.546 -1.8618  2.5875  1.3724
 3270SOL    HW211818   5.081   6.503  10.616  0.8636  1.7784 -0.9496
 3271SOL     OW11819   4.426   4.623   4.894  0.3311 -0.6495 -0.2291
 3271SOL    HW111820   4.366   4.578   4.952  0.1669 -0.0872  0.0449
 3271SOL    HW211821   4.371   4.683   4.844  0.6471 -0.1689 -0.0128
 3272SOL     OW11822   7.367   5.243   3.280  0.4608 -0.4802  0.1271
 3272SOL    HW111823   7.285   5.269   3.322  0.8275  0.4792  0.2866
 3272SOL    HW211824   7.357   5.150   3.262 -1.0979 -0.1811 -0.8071
 3273SOL     OW11825   8.367   3.174   9.241  0.3511 -0.4392 -0.4271
 3273SOL    HW111826   8.455   3.148   9.214  0.8995 -0.2412  1.1168
 3273SOL    HW211827   8.378   3.212   9.328 -1.2692 -0.4738 -0.1759
 3274SOL     OW11828   3.797   8.011   5.239 -0.7860  0.3532 -0.0717
 3274SOL    HW111829   3.841   8.095   5.252 -1.7200  0.7777  0.5298
 3274SOL    HW211830   3.707   8.036   5.215 -0.5203 -0.4693 -2.0819
 3275SOL     OW11831   0.651   8.977   4.721 -0.2522 -0.2385  0.0862
 3275SOL    HW111832   0.661   9.024   4.804  0.5249  0.7387 -0.5347
 3275SOL    HW211833   0.589   9.031   4.671 -0.1347 -0.4168 -0.2534
 3276SOL     OW11834   5.992  10.360   6.220  0.4762  0.3250  0.5306
 3276SOL    HW111835   5.956  10.375   6.307 -0.4293  1.9818 -0.0899
 3276SOL    HW211836   6.086  10.372   6.231  0.5644 -0.9735  1.5427
 3277SOL     OW11837   2.035   9.840   5.186  0.8651  0.0463 -0.0211
 3277SOL    HW111838   2.127   9.861   5.170  1.3480 -2.0318 -0.3183
 3277SOL    HW211839   2.038   9.768   5.249 -0.6845  1.5727  1.9256
 3278SOL     OW11840   3.322   7.055   5.962  0.4056  0.5062  0.3704
 3278SOL    HW111841   3.416   7.049   5.977  0.4260  1.1336  0.5075
 3278SOL    HW211842   3.284   6.988   6.019  0.8241 -0.3853 -0.3636
 3279SOL     OW11843   0.940   0.066   4.746  0.7364  0.2930 -0.6629
 3279SOL    HW111844   0.949   0.032   4.656 -0.2494  0.2043 -0.7307
 3279SOL    HW211845   0.846   0.070   4.761  0.8754  1.2884  0.0111
 3280SOL     OW11846   2.991   4.799  10.769  0.0916 -0.0469  0.3852
 3280SOL    HW111847   2.929   4.733  10.738  1.1019 -1.5066  1.3338
 3280SOL    HW211848   3.068   4.787  10.714  0.8494 -0.7409  1.5622
 3281SOL     OW11849   5.863   1.957   7.068 -0.0739  0.0537  0.4215
 3281SOL    HW111850   5.786   1.918   7.025  0.5282 -1.3720  0.5839
 3281SOL    HW211851   5.898   1.887   7.122  0.2036  1.2923  1.9248
 3282SOL     OW11852   4.220   3.383   1.152 -0.0051  0.1597  0.3237
 3282SOL    HW111853   4.153   3.415   1.213 -0.7061 -0.8354  0.0957
 3282SOL    HW211854   4.175   3.379   1.067  0.6256  0.4026 -0.0282
 3283SOL     OW11855  10.708   9.291   5.382 -0.1840 -0.5904 -0.6702
 3283SOL    HW111856  10.677   9.345   5.454  1.5340  1.4474 -1.3445
 3283SOL    HW211857  10.699   9.348   5.305  2.2298 -0.9645 -1.3237
 3284SOL     OW11858   4.329   5.605  11.015  0.1514  0.1785  0.4597
 3284SOL    HW111859   4.260   5.541  11.030  0.0550  0.4532  1.2677
 3284SOL    HW211860   4.404   5.571  11.064  0.4209  0.1600  0.0390
 3285SOL     OW11861  10.641   7.907   3.844 -0.0717 -0.2505  0.1486
 3285SOL    HW111862  10.733   7.893   3.820 -0.4236 -0.1874 -1.3653
 3285SOL    HW211863  10.616   7.828   3.890  0.0034 -1.5117 -1.8540
 3286SOL     OW11864   9.568   3.414  10.679 -0.6612 -0.2222  0.0058
 3286SOL    HW111865   9.490   3.430  10.732 -1.1316 -0.1837 -0.6815
 3286SOL    HW211866   9.569   3.319  10.665 -0.3468 -0.2722  0.3733
 3287SOL     OW11867   0.684   6.865   6.600 -0.3608 -0.0876  0.1996
 3287SOL    HW111868   0.677   6.812   6.680  0.9774  0.1406  0.4945
 3287SOL    HW211869   0.778   6.876   6.587 -0.5954  1.2437 -0.5037
 3288SOL     OW11870   0.352   7.787   3.030 -0.7341  0.3311  0.4300
 3288SOL    HW111871   0.311   7.792   3.117 -0.4519 -1.8422  0.7551
 3288SOL    HW211872   0.438   7.750   3.047  0.1618  1.8646 -0.5943
 3289SOL     OW11873   3.560   6.001   8.599  0.5630 -0.3571 -0.0327
 3289SOL    HW111874   3.468   6.001   8.624  0.5544 -0.1951 -0.0669
 3289SOL    HW211875   3.561   6.038   8.511  0.7020  0.0072  0.1191
 3290SOL     OW11876   2.090   3.433   2.411  0.4483  0.7426  0.3250
 3290SOL    HW111877   2.147   3.434   2.488 -0.2136  1.7552  0.8178
 3290SOL    HW211878   2.141   3.387   2.345 -0.0205 -2.8032  2.1369
 3291SOL     OW11879   9.618   6.201   8.113 -0.0062 -0.4654  0.6217
 3291SOL    HW111880   9.696   6.204   8.056 -0.8596 -0.7674 -0.6099
 3291SOL    HW211881   9.632   6.124   8.168  1.1024  0.1512  1.2316
 3292SOL     OW11882   5.190   9.534  10.039  0.5008 -0.4987 -0.1349
 3292SOL    HW111883   5.223   9.620  10.067 -0.0031  0.4887 -2.3022
 3292SOL    HW211884   5.251   9.507   9.970 -1.4311  0.0094 -2.1798
 3293SOL     OW11885   9.864   0.537   3.721 -0.6162  0.2320 -0.2127
 3293SOL    HW111886   9.949   0.570   3.694 -0.4903  0.6448  0.6476
 3293SOL    HW211887   9.850   0.458   3.668  1.4665 -1.3256  1.3887
 3294SOL     OW11888   4.695   2.061   9.945  0.0028  0.8061 -0.0785
 3294SOL    HW111889   4.752   2.132   9.915  0.9407  0.6408  1.2434
 3294SOL    HW211890   4.606   2.090   9.921  0.4925  1.7673 -0.7937
 3295SOL     OW11891   3.961   9.562   2.249 -0.2328  1.2143  0.7450
 3295SOL    HW111892   3.901   9.584   2.177  1.0239  3.2203  0.2429
 3295SOL    HW211893   3.904   9.556   2.326 -1.6318 -1.1491 -0.3558
 3296SOL     OW11894   0.816   0.268   5.764  0.4750 -0.6353 -0.0921
 3296SOL    HW111895   0.810   0.233   5.675 -0.0659 -2.4052  0.6096
 3296SOL    HW211896   0.875   0.343   5.756 -0.8991  0.3136 -2.2507
 3297SOL     OW11897   0.301   4.703   5.119 -0.4460 -0.4969  0.0954
 3297SOL    HW111898   0.217   4.748   5.130  0.8480  2.3182 -0.6437
 3297SOL    HW211899   0.286   4.642   5.046 -1.2617  1.7702 -1.7590
 3298SOL     OW11900   3.260   4.217   0.270  0.1520 -0.4791  0.4931
 3298SOL    HW111901   3.288   4.198   0.180  0.1364  0.1678  0.3491
 3298SOL    HW211902   3.338   4.253   0.312  0.6342 -2.2378  1.2177
 3299SOL     OW11903  10.829   2.928   7.489 -0.3267 -0.1324 -0.7955
 3299SOL    HW111904  10.850   2.989   7.418  0.3455 -0.7881 -1.1826
 3299SOL    HW211905  10.899   2.862   7.484 -1.1380 -1.0283 -0.5035
 3300SOL     OW11906   2.758   6.357   7.665 -0.0865  0.3637  0.6518
 3300SOL    HW111907   2.770   6.267   7.693 -0.5486 -0.1121 -0.6096
 3300SOL    HW211908   2.674   6.357   7.618  0.2922  1.2715 -0.0529
 3301SOL     OW11909   4.705   7.613   2.429  0.2021 -0.3756  0.2951
 3301SOL    HW111910   4.718   7.690   2.373 -0.5919 -1.2950 -1.2128
 3301SOL    HW211911   4.648   7.556   2.379  1.6908 -2.5020  0.8661
 3302SOL     OW11912   2.591  10.907   3.880  0.1822  0.6319  0.1141
 3302SOL    HW111913   2.577  10.860   3.798  1.2655 -0.0857  0.3195
 3302SOL    HW211914   2.504  10.933   3.909 -0.4513 -1.2908  0.0176
 3303SOL     OW11915   4.131   7.035   8.671 -0.5632  0.3924 -0.2102
 3303SOL    HW111916   4.172   7.104   8.619 -0.0011  0.4970  0.3585
 3303SOL    HW211917   4.152   6.954   8.624  0.4046  0.4314  0.1209
 3304SOL     OW11918   1.393   0.911   6.395 -0.1436  0.4281 -0.4700
 3304SOL    HW111919   1.302   0.885   6.409 -0.3589  1.1529 -0.4877
 3304SOL    HW211920   1.443   0.830   6.404 -0.7228  0.1333  0.1594
 3305SOL     OW11921  10.075   4.076   7.557  0.2287 -0.1471  0.0177
 3305SOL    HW111922  10.031   4.122   7.628 -0.7153 -0.4674 -0.3483
 3305SOL    HW211923  10.162   4.117   7.553 -0.0510  0.5502  0.6943
 3306SOL     OW11924   1.315   0.531   6.493  0.0575 -0.0824  0.1328
 3306SOL    HW111925   1.325   0.528   6.589 -1.3806  0.1040  0.3070
 3306SOL    HW211926   1.403   0.554   6.461  0.4509  0.3301  1.4346
 3307SOL     OW11927   1.282   4.516   3.438 -0.7560  0.0907  0.2481
 3307SOL    HW111928   1.299   4.424   3.456  3.2535  0.7515  0.6199
 3307SOL    HW211929   1.224   4.544   3.509 -4.7831 -2.6501 -1.5569
 3308SOL     OW11930   3.038   7.196   8.703  0.4084 -0.0975  0.1082
 3308SOL    HW111931   2.958   7.203   8.755  1.1179 -1.2780  1.4079
 3308SOL    HW211932   3.107   7.227   8.761  0.9814  0.4111 -0.8214
 3309SOL     OW11933   3.845   3.501   4.271 -0.4942  0.3369 -0.4062
 3309SOL    HW111934   3.825   3.593   4.257 -1.2137  0.3734  0.7605
 3309SOL    HW211935   3.796   3.477   4.350  0.6426 -0.7205  0.0211
 3310SOL     OW11936   7.640   7.715   7.053  0.0167  0.5314  0.3632
 3310SOL    HW111937   7.554   7.684   7.027 -0.5302 -0.8993  3.4077
 3310SOL    HW211938   7.699   7.643   7.032 -0.1074  0.1649  1.2344
 3311SOL     OW11939   1.051   8.325   9.517  0.3683  0.4021  0.4377
 3311SOL    HW111940   1.005   8.367   9.445 -1.3508 -1.0746  0.6054
 3311SOL    HW211941   1.123   8.384   9.538  0.3350  1.3287 -1.8348
 3312SOL     OW11942   9.801   4.846   0.003  0.3326  0.0227  0.3704
 3312SOL    HW111943   9.762   4.868  -0.082 -2.0045 -1.4191  0.9583
 3312SOL    HW211944   9.851   4.766  -0.014 -0.5710 -0.5702  0.4060
 3313SOL     OW11945   2.343   3.327   8.628  0.2336  0.1994  0.2324
 3313SOL    HW111946   2.418   3.355   8.574  0.2928  1.0931  0.7536
 3313SOL    HW211947   2.269   3.324   8.568  0.7037 -0.8461 -0.3242
 3314SOL     OW11948   1.139   1.594   4.117  0.4400  0.5895 -0.3271
 3314SOL    HW111949   1.126   1.527   4.184  0.1718  1.5565  0.6159
 3314SOL    HW211950   1.206   1.557   4.059 -1.1898 -1.3988 -1.0850
 3315SOL     OW11951  10.795   5.220   5.221  0.5735  0.6033  0.3208
 3315SOL    HW111952  10.763   5.137   5.257  0.9987  0.1623 -0.2928
 3315SOL    HW211953  10.863   5.194   5.158  1.1477  1.4413  0.5705
 3316SOL     OW11954   2.885   5.546   6.654 -0.3690 -0.1854  0.1446
 3316SOL    HW111955   2.852   5.506   6.574  1.6694 -0.6250 -0.5113
 3316SOL    HW211956   2.807   5.553   6.710 -1.2698 -2.8523 -0.6002
 3317SOL     OW11957  10.381   4.907   7.239 -0.3204 -0.0515 -0.0520
 3317SOL    HW111958  10.320   4.871   7.303  1.3103 -0.1520  1.5199
 3317SOL    HW211959  10.338   4.987   7.207 -0.9980  0.2210  1.4846
 3318SOL     OW11960   5.088   4.367   3.875  0.1449 -0.2084 -0.0784
 3318SOL    HW111961   5.097   4.336   3.785 -0.1352 -0.4528 -0.0224
 3318SOL    HW211962   5.055   4.291   3.924  0.9608 -0.2935  0.3707
 3319SOL     OW11963   9.474   9.991   6.254 -0.4031  0.0829  0.3196
 3319SOL    HW111964   9.470   9.983   6.349  0.1917 -0.9238  0.2765
 3319SOL    HW211965   9.565   9.971   6.233 -0.3423  1.0811 -0.3979
 3320SOL     OW11966   1.904   4.924   6.211 -0.5968  0.3819  0.3108
 3320SOL    HW111967   1.855   5.006   6.222 -0.4631  0.3085  1.5687
 3320SOL    HW211968   1.988   4.940   6.254  0.2716  0.2788 -1.2510
 3321SOL     OW11969   0.053   2.483  10.626 -0.3683  0.4605  0.3262
 3321SOL    HW111970   0.127   2.482  10.687 -0.0247  0.0629 -0.0968
 3321SOL    HW211971   0.056   2.571  10.587 -0.6117  0.7319  0.8996
 3322SOL     OW11972   9.914   6.175   2.184  0.0462 -0.0389  0.3684
 3322SOL    HW111973   9.863   6.094   2.180 -0.4759  0.3276 -0.8625
 3322SOL    HW211974   9.851   6.243   2.163  0.4754  0.7049  1.4362
 3323SOL     OW11975   1.485   6.917   9.140  0.3033  0.7218  0.3043
 3323SOL    HW111976   1.522   7.005   9.137  1.8396  0.0670 -0.9329
 3323SOL    HW211977   1.509   6.877   9.057 -2.5288 -0.0691 -0.2586
 3324SOL     OW11978   9.563   3.713   7.022  0.1594 -0.1688 -0.0477
 3324SOL    HW111979   9.657   3.730   7.020 -0.1840  2.4743  1.3352
 3324SOL    HW211980   9.541   3.708   7.115 -0.9394 -1.8489 -0.3619
 3325SOL     OW11981   7.293   0.949   4.330 -0.1087 -0.5767  0.5785
 3325SOL    HW111982   7.363   0.899   4.370  0.6615  0.4403  0.5548
 3325SOL    HW211983   7.215   0.929   4.382  0.2826 -1.4150  0.8435
 3326SOL     OW11984   4.972   5.463   0.444 -0.0452 -0.0552 -0.3728
 3326SOL    HW111985   4.955   5.547   0.489 -0.5048 -0.8443  1.0024
 3326SOL    HW211986   5.002   5.488   0.357  1.6050  1.5921  0.5938
 3327SOL     OW11987   5.934   3.173   0.883  0.7631  0.0755 -0.1788
 3327SOL    HW111988   5.994   3.244   0.910 -0.3580  0.6831  0.8314
 3327SOL    HW211989   5.850   3.217   0.868  0.5401 -0.7645 -1.5639
 3328SOL     OW11990   1.714   5.015   7.896 -0.6179  0.0544  0.4894
 3328SOL    HW111991   1.729   5.033   7.989  0.8650  1.4976  0.0186
 3328SOL    HW211992   1.668   5.093   7.865  1.1121  0.7385 -0.4803
 3329SOL     OW11993   3.181   5.161   2.178 -0.0847 -0.5306  0.1958
 3329SOL    HW111994   3.234   5.111   2.116  1.4036 -1.5546  2.1561
 3329SOL    HW211995   3.239   5.232   2.206 -0.9210  0.2235  0.0369
 3330SOL     OW11996   6.709   1.577   2.330 -0.3961  0.2683 -0.5254
 3330SOL    HW111997   6.787   1.547   2.283  0.4086  1.2118  0.1455
 3330SOL    HW211998   6.712   1.673   2.321 -0.3379  0.4613  1.2188
 3331SOL     OW11999   8.595   4.155   6.363  0.2615  0.5447  0.0208
 3331SOL    HW112000   8.531   4.100   6.408  0.9122  0.9256  1.4521
 3331SOL    HW212001   8.552   4.178   6.280 -0.8947 -0.3107  0.3553
 3332SOL     OW12002  10.811   4.635   6.475  0.5049 -0.6684  0.1491
 3332SOL    HW112003  10.818   4.541   6.492  1.0717 -0.6102  0.2363
 3332SOL    HW212004  10.747   4.666   6.539  1.6948 -0.6684  1.3914
 3333SOL     OW12005  10.507   1.736   1.487  0.3663 -0.0458  0.4742
 3333SOL    HW112006  10.465   1.714   1.404  0.7875  1.4477 -0.1676
 3333SOL    HW212007  10.584   1.786   1.463  1.1121 -0.5258  1.7392
 3334SOL     OW12008   9.308  10.237   7.641 -0.4905  0.0728  0.2189
 3334SOL    HW112009   9.399  10.211   7.628 -1.0731 -1.6158 -0.7363
 3334SOL    HW212010   9.284  10.203   7.727 -0.1951  0.6332  0.5277
 3335SOL     OW12011   8.723  10.833   4.875  0.0100 -0.0717 -0.0849
 3335SOL    HW112012   8.813  10.852   4.902 -0.1694  1.3798 -0.3813
 3335SOL    HW212013   8.722  10.739   4.858  1.1100 -0.3545  1.2321
 3336SOL     OW12014  10.045   5.673  10.026 -0.0225 -0.0795 -0.2724
 3336SOL    HW112015   9.961   5.718  10.017 -0.2933 -0.3181  0.9211
 3336SOL    HW212016  10.095   5.702   9.950 -0.5326  1.5094 -0.0567
 3337SOL     OW12017   9.312  10.448   1.450  0.5679 -0.1644  0.1504
 3337SOL    HW112018   9.315  10.353   1.464  1.1782 -0.2238 -0.3209
 3337SOL    HW212019   9.399  10.469   1.415 -0.4118  0.1541 -2.2701
 3338SOL     OW12020   9.138   1.161   7.929  0.7637 -0.2265 -0.2113
 3338SOL    HW112021   9.148   1.067   7.942 -0.9511 -0.2810  1.1824
 3338SOL    HW212022   9.111   1.170   7.838  0.7221 -1.1099 -0.2978
 3339SOL     OW12023   5.593   3.524   1.258 -0.1493 -0.5631  0.4311
 3339SOL    HW112024   5.539   3.568   1.323  1.7348  1.1530  0.9467
 3339SOL    HW212025   5.630   3.595   1.206  1.3486 -1.6760 -0.0882
 3340SOL     OW12026   0.031   3.728   7.301  1.1247  0.0669 -0.0075
 3340SOL    HW112027   0.004   3.820   7.292  2.2327  0.3794 -0.3309
 3340SOL    HW212028  -0.039   3.687   7.350  0.9035  1.2382  0.6925
 3341SOL     OW12029   9.573   4.035   4.900  0.1669 -0.1560  0.7557
 3341SOL    HW112030   9.626   4.012   4.976  2.2393  1.8357  0.0446
 3341SOL    HW212031   9.519   4.108   4.929 -0.3147 -0.5017  0.7502
 3342SOL     OW12032   2.727   7.204   4.663 -0.9446 -0.4244 -0.4647
 3342SOL    HW112033   2.737   7.262   4.738  1.0004  0.5936 -1.4167
 3342SOL    HW212034   2.677   7.129   4.696 -2.1960  1.0633  1.1930
 3343SOL     OW12035   5.358   6.498   4.654  0.2032  0.5508 -0.1064
 3343SOL    HW112036   5.321   6.437   4.718 -1.2245 -1.3025 -2.5245
 3343SOL    HW212037   5.450   6.471   4.645 -0.3968 -1.3227 -1.1160
 3344SOL     OW12038  10.419   3.592   3.190 -0.1262  0.5104 -0.0322
 3344SOL    HW112039  10.431   3.507   3.232 -0.4587  0.4200 -0.1207
 3344SOL    HW212040  10.336   3.624   3.224 -0.8487  0.0335 -1.2881
 3345SOL     OW12041   0.198   2.317   5.639 -0.2364 -0.3984  0.2222
 3345SOL    HW112042   0.187   2.374   5.564 -1.8331  0.1827  0.8489
 3345SOL    HW212043   0.160   2.233   5.611  1.0097 -0.8214 -0.2800
 3346SOL     OW12044   2.269   7.632   6.197 -0.2931  0.2807 -0.0189
 3346SOL    HW112045   2.245   7.545   6.164  1.2400 -0.9106  1.7415
 3346SOL    HW212046   2.303   7.615   6.285  1.5284  2.4641 -0.2055
 3347SOL     OW12047   1.607   4.373   5.712  0.0071  0.3112 -0.0727
 3347SOL    HW112048   1.540   4.374   5.780  0.5781  2.0325  0.5057
 3347SOL    HW212049   1.597   4.457   5.667  1.8637  0.7016  0.1480
 3348SOL     OW12050   0.541   6.989   2.738  0.1625 -0.6976 -0.7936
 3348SOL    HW112051   0.468   6.927   2.727  1.3682 -2.4348  0.4914
 3348SOL    HW212052   0.558   6.988   2.832  2.0482 -0.5584 -1.1122
 3349SOL     OW12053   4.212   4.712  10.858 -0.0002 -0.3040 -0.5504
 3349SOL    HW112054   4.204   4.791  10.912 -0.0339 -1.3306  1.0126
 3349SOL    HW212055   4.121   4.684  10.844 -0.0670  0.5699 -2.1692
 3350SOL     OW12056   5.042  10.814   0.615 -0.0596  0.3955 -0.8334
 3350SOL    HW112057   4.964  10.763   0.636  0.9103 -0.2797  1.4622
 3350SOL    HW212058   5.033  10.835   0.522 -1.4282 -2.3640 -1.4376
 3351SOL     OW12059   2.008   7.297   7.381 -0.2273 -0.1211 -0.4120
 3351SOL    HW112060   1.983   7.207   7.358 -0.9235  0.1564 -0.7642
 3351SOL    HW212061   2.029   7.293   7.474 -0.2264 -0.6519 -0.4307
 3352SOL     OW12062   1.417   6.764   2.319  0.7798 -0.3886 -0.4486
 3352SOL    HW112063   1.460   6.791   2.238  0.8203 -0.8136 -0.5701
 3352SOL    HW212064   1.395   6.672   2.305 -0.4991 -0.0782 -0.5248
 3353SOL     OW12065  10.766   4.520   7.595 -0.0070  0.0202  0.3310
 3353SOL    HW112066  10.717   4.449   7.555 -1.7425  1.3032  0.0346
 3353SOL    HW212067  10.795   4.485   7.679 -0.4398 -1.1806 -0.0043
 3354SOL     OW12068   2.411   1.485   5.441 -0.1142 -0.0426 -0.4548
 3354SOL    HW112069   2.346   1.419   5.420 -0.4561  1.2133 -3.9429
 3354SOL    HW212070   2.490   1.456   5.396  0.4126  0.7428 -0.0662
 3355SOL     OW12071   1.864   3.621   4.349 -0.6581  0.2914 -0.1265
 3355SOL    HW112072   1.856   3.557   4.278 -1.1148 -0.3415  0.4698
 3355SOL    HW212073   1.782   3.671   4.345  0.0800  1.4535 -1.1516
 3356SOL     OW12074   3.212   2.910   0.483  0.1480  0.1463 -0.1633
 3356SOL    HW112075   3.284   2.920   0.545  0.1634  1.1679 -0.3254
 3356SOL    HW212076   3.243   2.846   0.420  0.1011 -0.9779  0.9202
 3357SOL     OW12077   7.988   8.613   4.307  0.2067 -0.4650  0.1771
 3357SOL    HW112078   7.973   8.519   4.317 -0.5547 -0.2838  0.8279
 3357SOL    HW212079   8.016   8.623   4.216 -0.1447 -1.2716 -0.0258
 3358SOL     OW12080   4.349   4.041   8.623 -0.5646 -0.6029  0.0699
 3358SOL    HW112081   4.407   4.025   8.697 -1.2581  0.8513  0.9755
 3358SOL    HW212082   4.286   4.105   8.655 -3.2196 -2.6914 -0.5946
 3359SOL     OW12083  10.105   7.192   9.023 -0.1747 -0.4049 -0.1223
 3359SOL    HW112084  10.129   7.273   8.978 -1.7826  0.0167 -0.2901
 3359SOL    HW212085  10.114   7.124   8.956  0.9219 -0.3463 -0.0541
 3360SOL     OW12086   2.746   2.876   4.078  0.2713  0.1482  0.2227
 3360SOL    HW112087   2.692   2.835   4.145  1.6018 -0.6963  0.8178
 3360SOL    HW212088   2.788   2.951   4.121  1.1203 -0.3892  0.3592
 3361SOL     OW12089   0.569   0.975   3.134  0.0694 -0.4828  0.2911
 3361SOL    HW112090   0.482   0.959   3.170 -1.0098 -0.2668 -2.0355
 3361SOL    HW212091   0.612   0.889   3.136 -0.0597 -0.5415  1.6909
 3362SOL     OW12092   2.427   3.197  10.602 -0.6281 -0.1952  0.0495
 3362SOL    HW112093   2.357   3.132  10.605 -0.8173  0.0161  3.0482
 3362SOL    HW212094   2.383   3.279  10.583 -0.5687 -0.6267 -2.2804
 3363SOL     OW12095  10.523   1.306   9.004 -0.0619 -0.0495  0.2952
 3363SOL    HW112096  10.473   1.386   9.015  0.7496  0.7331 -1.3826
 3363SOL    HW212097  10.610   1.327   9.040  0.7877  0.5741 -1.9486
 3364SOL     OW12098   2.321   6.417   1.553  0.0833  0.4365  0.0840
 3364SOL    HW112099   2.322   6.329   1.590  1.6287 -0.8705 -2.7309
 3364SOL    HW212100   2.231   6.447   1.564 -0.8156 -2.0211  0.0332
 3365SOL     OW12101   2.381   4.110   3.528 -0.0002 -0.0113 -0.1302
 3365SOL    HW112102   2.417   4.182   3.581 -1.1931  0.3079  0.2841
 3365SOL    HW212103   2.381   4.035   3.588 -1.8185  0.4687  0.5583
 3366SOL     OW12104   0.432   2.512   1.887  0.0920  0.3801  0.0691
 3366SOL    HW112105   0.487   2.483   1.959 -1.1967 -0.0057  0.9422
 3366SOL    HW212106   0.490   2.514   1.811  0.9626 -1.4106  0.6397
 3367SOL     OW12107   4.650   0.450   3.091 -0.0915 -0.1097 -0.0793
 3367SOL    HW112108   4.600   0.500   3.027  0.4359  1.1821  0.4867
 3367SOL    HW212109   4.723   0.413   3.040  0.6013  1.3144 -0.1683
 3368SOL     OW12110   9.181   4.410   8.328  0.2285 -0.3798 -0.7045
 3368SOL    HW112111   9.181   4.479   8.263 -0.0290 -1.9594 -2.4622
 3368SOL    HW212112   9.090   4.401   8.355  0.3705  0.4394  0.1079
 3369SOL     OW12113   2.381   5.555   7.126 -0.5382  0.0440 -0.1394
 3369SOL    HW112114   2.337   5.510   7.054  1.3792  1.3248 -2.2360
 3369SOL    HW212115   2.411   5.637   7.088  1.6620  0.2296  1.7766
 3370SOL     OW12116   8.639   5.332   6.568  0.4607 -0.7035  0.0457
 3370SOL    HW112117   8.553   5.355   6.606 -0.6311  1.4196 -3.2875
 3370SOL    HW212118   8.667   5.256   6.618 -2.3413 -0.1928  2.7331
 3371SOL     OW12119   3.603   6.786   6.150 -0.0992  0.2838 -0.0724
 3371SOL    HW112120   3.649   6.731   6.087  0.1980  0.9209 -0.4195
 3371SOL    HW212121   3.528   6.733   6.178  0.4252 -0.4725 -0.0580
 3372SOL     OW12122   6.174   4.471   1.300 -0.2795 -0.1753  0.0304
 3372SOL    HW112123   6.148   4.395   1.248 -0.3631 -2.1396  2.7097
 3372SOL    HW212124   6.263   4.490   1.271 -0.3875 -1.0533 -0.9618
 3373SOL     OW12125  10.832   4.168   4.078  0.2952  0.0960 -0.6241
 3373SOL    HW112126  10.777   4.187   4.154  0.9965 -0.2108 -0.0301
 3373SOL    HW212127  10.911   4.128   4.114  0.7364  0.1415 -1.4963
 3374SOL     OW12128   4.685   5.786   8.658  0.7344  0.1250 -0.5069
 3374SOL    HW112129   4.699   5.773   8.564 -2.7585 -3.6018 -0.7958
 3374SOL    HW212130   4.738   5.718   8.700 -1.9216 -2.0318 -0.3721
 3375SOL     OW12131   4.192   9.969   5.132  0.7246  0.1265 -0.2887
 3375SOL    HW112132   4.154  10.056   5.126 -0.6723 -0.4723 -0.5396
 3375SOL    HW212133   4.196   9.951   5.226 -2.4115 -0.9140 -0.2409
 3376SOL     OW12134   4.957   1.924   6.839 -0.7471 -0.2004  0.0580
 3376SOL    HW112135   5.043   1.883   6.838 -0.1301  1.0306  0.5763
 3376SOL    HW212136   4.972   2.010   6.879 -2.0093  0.4961 -0.9002
 3377SOL     OW12137   9.928   4.947   6.666 -0.5352  0.3251 -0.5764
 3377SOL    HW112138   9.927   5.031   6.620  1.3535  0.6498 -0.1090
 3377SOL    HW212139   9.900   4.883   6.600  0.0256  1.0574 -1.5580
 3378SOL     OW12140   9.785   1.680   7.161 -0.3991  0.3919 -0.7094
 3378SOL    HW112141   9.776   1.743   7.233 -2.5737  0.1307 -0.6826
 3378SOL    HW212142   9.810   1.598   7.203 -1.2002  0.3574 -0.2806
 3379SOL     OW12143   1.775   4.294   8.603  0.9152  0.2550 -0.0327
 3379SOL    HW112144   1.779   4.366   8.667 -3.5960  1.5965 -0.8746
 3379SOL    HW212145   1.754   4.217   8.656  1.2890  0.4777  0.4560
 3380SOL     OW12146   3.115   4.152   6.584 -0.8253 -0.2933 -0.5732
 3380SOL    HW112147   3.033   4.134   6.539 -1.2347  0.9701 -0.3507
 3380SOL    HW212148   3.088   4.186   6.670 -0.0743  0.6209 -0.6928
 3381SOL     OW12149   4.794   6.390   2.115  0.1428 -0.0467  0.1782
 3381SOL    HW112150   4.837   6.329   2.176  3.3372  1.6600 -0.1295
 3381SOL    HW212151   4.832   6.368   2.030 -0.9580  0.4238 -0.4445
 3382SOL     OW12152   7.353  11.053   6.554  0.2715  0.4722 -0.1785
 3382SOL    HW112153   7.429  11.045   6.496  0.8654  1.3741  0.4448
 3382SOL    HW212154   7.390  11.045   6.642 -0.1800  2.0672  0.1771
 3383SOL     OW12155   1.243   8.889   2.402 -0.2535  0.4943 -0.1592
 3383SOL    HW112156   1.282   8.952   2.341  0.0864 -0.3874 -0.8776
 3383SOL    HW212157   1.275   8.804   2.372  1.7259  0.1728  2.5714
 3384SOL     OW12158   7.164   3.515   2.912 -0.0902 -0.2783 -0.1204
 3384SOL    HW112159   7.248   3.513   2.868  0.6807 -0.4752  1.3049
 3384SOL    HW212160   7.103   3.551   2.847  1.2529  0.6962 -0.8753
 3385SOL     OW12161   9.598   2.891   3.647  0.8913  0.6916 -0.5173
 3385SOL    HW112162   9.513   2.910   3.688  1.4415  1.3123  0.3620
 3385SOL    HW212163   9.618   2.802   3.674  0.4882  0.5112 -0.7947
 3386SOL     OW12164  10.656   3.935   6.812  0.0234 -0.1421 -0.1113
 3386SOL    HW112165  10.741   3.969   6.784 -0.4027  0.3859 -0.7821
 3386SOL    HW212166  10.644   3.855   6.761  0.8002 -1.0747  1.1069
 3387SOL     OW12167   0.700   2.897   5.229  0.0760 -0.4451 -0.0748
 3387SOL    HW112168   0.652   2.816   5.240 -1.5940  0.6727  1.3475
 3387SOL    HW212169   0.753   2.905   5.309  0.1418 -0.0729 -0.1521
 3388SOL     OW12170   3.138  10.135   2.309  0.2319 -0.2454  0.1665
 3388SOL    HW112171   3.101  10.212   2.351  1.5023  0.3128  0.2951
 3388SOL    HW212172   3.064  10.074   2.301 -0.2193 -0.0866  2.5244
 3389SOL     OW12173   2.355   6.628   7.293  0.0404  0.1144 -0.9217
 3389SOL    HW112174   2.394   6.673   7.368  2.0268 -0.4194 -1.5500
 3389SOL    HW212175   2.366   6.690   7.221  1.5449 -0.7729 -1.5040
 3390SOL     OW12176   3.045   8.402   1.299 -0.6322 -0.7123 -0.3153
 3390SOL    HW112177   3.138   8.424   1.302 -0.5758 -0.9844 -0.0217
 3390SOL    HW212178   3.042   8.307   1.311 -1.0172 -0.5411  1.0874
 3391SOL     OW12179   8.002   7.060   3.742 -0.4673 -0.0016 -0.2032
 3391SOL    HW112180   8.050   7.139   3.768 -0.6706  0.5642 -1.4581
 3391SOL    HW212181   7.910   7.086   3.745 -0.5111 -0.0252 -1.0909
 3392SOL     OW12182   1.356   0.548   7.262 -0.3570 -0.4262  0.0807
 3392SOL    HW112183   1.346   0.456   7.285 -0.9817 -0.7309 -1.3177
 3392SOL    HW212184   1.275   0.572   7.218  0.1358  0.5555 -0.3465
 3393SOL     OW12185   9.620   6.495   5.666  0.0234  0.0679  0.5008
 3393SOL    HW112186   9.668   6.578   5.670 -0.8620  0.5906  0.6692
 3393SOL    HW212187   9.562   6.505   5.590  1.4924 -1.3090 -0.8916
 3394SOL     OW12188   0.420   6.206   6.065  0.3666 -0.3005  0.0138
 3394SOL    HW112189   0.481   6.140   6.032  0.4053 -0.8289  1.0831
 3394SOL    HW212190   0.391   6.253   5.987 -1.7455 -3.3287 -1.2209
 3395SOL     OW12191   4.988   4.375   9.392 -0.4264  0.7653 -0.4521
 3395SOL    HW112192   5.012   4.342   9.305 -2.6428  1.1348 -1.2590
 3395SOL    HW212193   4.898   4.406   9.382 -0.8997  0.4165  2.0957
 3396SOL     OW12194  10.653   6.501   2.907 -0.2806 -0.2561  0.3054
 3396SOL    HW112195  10.671   6.455   2.989 -1.0460 -0.3962  0.4003
 3396SOL    HW212196  10.558   6.515   2.907 -0.0233  1.9083  0.5956
 3397SOL     OW12197   0.410  10.440   0.400  0.1662  0.6183 -0.7867
 3397SOL    HW112198   0.421  10.400   0.313 -1.7570  0.0474 -0.8137
 3397SOL    HW212199   0.333  10.496   0.390 -0.4073  0.1263  0.6808
 3398SOL     OW12200   4.224   4.966   0.882  0.1918 -0.5264 -0.3078
 3398SOL    HW112201   4.161   4.964   0.953  1.6795 -1.1538  1.0737
 3398SOL    HW212202   4.264   5.053   0.887  0.6667 -0.7544 -0.0019
 3399SOL     OW12203   0.166   5.770   7.161 -0.3221  0.2607 -0.3952
 3399SOL    HW112204   0.225   5.845   7.166  0.7925 -0.6646  1.3181
 3399SOL    HW212205   0.222   5.694   7.179 -1.4138 -1.0223 -2.0467
 3400SOL     OW12206   8.790   2.076  10.980 -0.2576 -0.0944 -0.2810
 3400SOL    HW112207   8.724   2.026  11.028  0.1603 -0.8461 -0.4634
 3400SOL    HW212208   8.744   2.114  10.906 -0.2212 -1.8240 -1.2485
 3401SOL     OW12209   4.639   6.870   9.775 -0.1939  0.3209  0.1780
 3401SOL    HW112210   4.595   6.786   9.790 -1.3794  0.3787 -2.4825
 3401SOL    HW212211   4.580   6.935   9.813  0.5607  0.0326  1.9373
 3402SOL     OW12212   3.526   7.315  10.807 -0.3304  0.2740 -0.2614
 3402SOL    HW112213   3.601   7.292  10.753 -1.1516 -0.2391 -1.2127
 3402SOL    HW212214   3.464   7.356  10.747 -2.3485 -2.5873 -0.3504
 3403SOL     OW12215   8.202   1.482   8.788 -0.2447 -0.0292 -0.5887
 3403SOL    HW112216   8.286   1.493   8.743  0.9195  0.8915  1.6900
 3403SOL    HW212217   8.197   1.388   8.806  0.7941  0.0289  0.0975
 3404SOL     OW12218   4.818   6.652   4.331 -0.6354 -0.0422 -0.7367
 3404SOL    HW112219   4.746   6.671   4.391  0.0656 -0.8810  0.4119
 3404SOL    HW212220   4.888   6.713   4.357 -0.4341 -0.1935 -0.9162
 3405SOL     OW12221   7.498   8.461   9.583 -0.4183  0.0924 -0.0443
 3405SOL    HW112222   7.458   8.413   9.655  0.8662 -1.2947 -0.2176
 3405SOL    HW212223   7.592   8.460   9.603 -0.2395  1.4590 -0.7027
 3406SOL     OW12224   7.670   6.191   9.885  0.5268  0.3075 -0.0328
 3406SOL    HW112225   7.740   6.233   9.836  1.8149  0.5531  1.8977
 3406SOL    HW212226   7.609   6.261   9.905  0.8033  0.5189  0.0667
 3407SOL     OW12227   9.004   5.848   7.037  0.1143  0.3528 -0.0683
 3407SOL    HW112228   8.945   5.776   7.059  0.2153  0.4941  0.6952
 3407SOL    HW212229   9.084   5.829   7.086  0.9570 -0.1571 -1.5487
 3408SOL     OW12230   0.744   4.986   4.498 -0.1848 -0.2850  0.4336
 3408SOL    HW112231   0.657   4.977   4.461 -0.6439 -0.5055  1.5315
 3408SOL    HW212232   0.771   5.075   4.476 -0.1397 -0.6347 -1.0198
 3409SOL     OW12233   8.600   7.408   3.809 -0.2698  0.0377 -0.8086
 3409SOL    HW112234   8.614   7.385   3.901  0.2600 -1.7506 -1.3036
 3409SOL    HW212235   8.612   7.503   3.806  1.3174 -0.0747  0.6805
 3410SOL     OW12236   8.802   5.679   7.112  0.1959 -0.3380 -0.5077
 3410SOL    HW112237   8.754   5.662   7.194  0.1203 -0.5807 -0.6026
 3410SOL    HW212238   8.817   5.593   7.075  2.6541 -0.4678  0.5919
 3411SOL     OW12239   5.172   3.415   5.589 -0.0023  0.4990 -0.5356
 3411SOL    HW112240   5.153   3.380   5.502 -2.4744  0.8778 -0.2213
 3411SOL    HW212241   5.224   3.494   5.572 -2.6942  2.1003 -1.9380
 3412SOL     OW12242   9.513   7.958   3.078 -0.2826 -0.4794  0.9173
 3412SOL    HW112243   9.589   7.998   3.036 -0.7713 -1.0470 -0.5480
 3412SOL    HW212244   9.442   7.970   3.016 -0.9331 -1.7323  1.3880
 3413SOL     OW12245  10.631   0.177   5.115 -0.2134 -0.4550 -0.8023
 3413SOL    HW112246  10.680   0.193   5.195 -1.6475  1.1709 -0.2019
 3413SOL    HW212247  10.618   0.082   5.113  0.0575 -0.5399  0.7519
 3414SOL     OW12248   0.815   3.499   2.833 -0.0912 -0.2626  0.1918
 3414SOL    HW112249   0.868   3.542   2.767 -1.1749  0.0434 -0.4979
 3414SOL    HW212250   0.867   3.505   2.913  1.1997 -0.5667 -0.5986
 3415SOL     OW12251   7.009   6.971   0.751  0.3132 -0.2133  0.8276
 3415SOL    HW112252   7.081   7.033   0.763  0.2837 -0.1285  0.5793
 3415SOL    HW212253   7.051   6.885   0.745  0.4741 -0.0797 -0.1565
 3416SOL     OW12254   2.151   0.293   0.630 -0.9741 -0.5000 -0.5410
 3416SOL    HW112255   2.214   0.267   0.698  1.1051  0.7246 -1.9284
 3416SOL    HW212256   2.078   0.232   0.643 -0.8056 -0.2125  2.8998
 3417SOL     OW12257   8.775   1.326   5.739  0.6899  0.6490 -0.6454
 3417SOL    HW112258   8.777   1.243   5.786 -2.4812  0.1565 -1.1263
 3417SOL    HW212259   8.784   1.392   5.807  0.2976 -0.0811  0.1414
 3418SOL     OW12260   7.732   0.351   6.952 -0.0006 -0.7356  0.8938
 3418SOL    HW112261   7.666   0.290   6.920  0.2013 -0.7069  0.4188
 3418SOL    HW212262   7.683   0.432   6.969 -0.0999 -0.7325  0.5976
 3419SOL     OW12263   7.581   6.365   7.301  0.3657 -0.0217 -0.2816
 3419SOL    HW112264   7.560   6.443   7.251  0.7625 -1.5871 -3.0810
 3419SOL    HW212265   7.673   6.347   7.282  0.0138 -1.7198 -0.5535
 3420SOL     OW12266   5.514   4.199   7.410  0.3942 -0.3287  0.5554
 3420SOL    HW112267   5.574   4.249   7.354  2.1607 -1.5813  1.2221
 3420SOL    HW212268   5.451   4.160   7.349 -0.0907  1.4254 -0.1214
 3421SOL     OW12269   8.981   2.405   8.792 -0.1925 -0.0888  0.3807
 3421SOL    HW112270   9.014   2.375   8.707 -1.3881  2.0553 -0.9382
 3421SOL    HW212271   9.040   2.367   8.856  2.6195  0.6424 -1.5975
 3422SOL     OW12272   6.776   0.602   4.436  0.5173 -0.2525 -0.6555
 3422SOL    HW112273   6.756   0.627   4.346 -0.1661 -1.2797 -0.8029
 3422SOL    HW212274   6.745   0.675   4.489 -1.4538 -0.7264 -1.0757
 3423SOL     OW12275   2.077  10.470   2.638 -0.1204 -0.4114  0.1586
 3423SOL    HW112276   2.101  10.528   2.710 -2.1853  0.1773  0.4517
 3423SOL    HW212277   2.147  10.479   2.575  0.3611  1.2321  0.8794
 3424SOL     OW12278  10.804   9.344   9.730 -0.1428 -0.6470 -0.2266
 3424SOL    HW112279  10.799   9.282   9.657 -0.4940  0.0652 -0.8193
 3424SOL    HW212280  10.788   9.430   9.690  1.2282 -0.0466  0.4237
 3425SOL     OW12281   0.553  10.336  10.967  0.7552 -0.2403  0.0917
 3425SOL    HW112282   0.516  10.304  10.885  0.9297  0.2894 -0.1985
 3425SOL    HW212283   0.484  10.322  11.031  0.1287  0.5440 -0.4037
 3426SOL     OW12284   6.362   8.250   6.484  0.0694  0.5389 -0.1141
 3426SOL    HW112285   6.310   8.170   6.473  1.9072 -0.5915 -0.9308
 3426SOL    HW212286   6.340   8.303   6.408  0.6158 -0.2388 -0.8309
 3427SOL     OW12287   4.701   5.752   8.131 -0.1823 -0.3412  0.1966
 3427SOL    HW112288   4.627   5.802   8.165  1.0261  1.4828  0.3099
 3427SOL    HW212289   4.716   5.788   8.044  0.7250 -0.4787  0.2856
 3428SOL     OW12290   7.181   8.445   1.277  0.5455  0.3957 -0.2889
 3428SOL    HW112291   7.266   8.431   1.319 -0.0104 -0.2458  0.6591
 3428SOL    HW212292   7.128   8.489   1.343 -0.7679 -1.8181  0.2614
 3429SOL     OW12293   8.665   3.164   9.193  0.0156 -0.1850 -0.3217
 3429SOL    HW112294   8.721   3.087   9.180 -0.5234 -0.4893 -0.9110
 3429SOL    HW212295   8.659   3.174   9.288  0.0080 -0.9318 -0.2394
 3430SOL     OW12296   0.842   4.217   6.536 -0.4985  0.0973 -0.4543
 3430SOL    HW112297   0.864   4.308   6.559  0.9761  0.0943 -1.7099
 3430SOL    HW212298   0.811   4.222   6.446  2.2569 -0.9196 -1.5750
 3431SOL     OW12299   8.176   3.878   9.551 -0.0803  0.0603  0.1866
 3431SOL    HW112300   8.092   3.867   9.506  0.6196  1.1149 -1.4702
 3431SOL    HW212301   8.174   3.969   9.583  0.5592  0.1943 -0.1519
 3432SOL     OW12302   4.143   0.698   9.462 -0.4654  0.4219 -0.1331
 3432SOL    HW112303   4.144   0.609   9.428  0.7270  0.1856  0.4756
 3432SOL    HW212304   4.086   0.746   9.402 -0.8300 -0.6610 -0.6766
 3433SOL     OW12305   2.386   5.018   9.796 -0.0325  0.3237 -0.6578
 3433SOL    HW112306   2.428   5.102   9.779  0.8460 -0.1701 -0.9368
 3433SOL    HW212307   2.437   4.979   9.867  0.1761 -0.4081 -1.1936
 3434SOL     OW12308   5.548   6.648   8.017  0.5208 -0.0617 -0.2832
 3434SOL    HW112309   5.468   6.609   8.051 -0.3354 -0.1733 -2.2835
 3434SOL    HW212310   5.567   6.598   7.937  2.1489  0.4746 -0.2720
 3435SOL     OW12311   3.595   4.873   1.102 -0.2056  0.1718  0.7805
 3435SOL    HW112312   3.676   4.837   1.064 -1.3734 -1.5136 -0.2573
 3435SOL    HW212313   3.537   4.797   1.109 -2.7406  1.7734 -1.2508
 3436SOL     OW12314   6.195   4.647   9.319  0.2664 -0.1440  0.1994
 3436SOL    HW112315   6.179   4.563   9.363  0.1411  0.4588  1.3365
 3436SOL    HW212316   6.223   4.706   9.389 -0.9599  1.1339 -0.3233
 3437SOL     OW12317   3.125   6.669  10.957 -0.0129  0.1324  0.4095
 3437SOL    HW112318   3.133   6.752  10.910  0.2276  0.0103  0.2319
 3437SOL    HW212319   3.033   6.644  10.947 -0.0396  0.2759  0.2945
 3438SOL     OW12320   1.676   9.527   8.482  0.4343  0.2957  0.1124
 3438SOL    HW112321   1.612   9.597   8.470 -0.2122 -0.4376 -0.9367
 3438SOL    HW212322   1.679   9.483   8.397  1.5028 -0.3862  0.4828
 3439SOL     OW12323   7.722   3.574   3.696 -0.1884 -0.2699  0.2280
 3439SOL    HW112324   7.711   3.575   3.601 -1.2669  1.2062  0.3201
 3439SOL    HW212325   7.803   3.623   3.712 -1.0276  1.2292  0.1143
 3440SOL     OW12326   3.448   9.051   8.937 -0.1308  0.0474 -0.0359
 3440SOL    HW112327   3.527   9.095   8.906 -0.8398 -0.1882 -2.4219
 3440SOL    HW212328   3.480   8.970   8.976  0.7994 -0.5205 -1.8576
 3441SOL     OW12329   0.672   6.741   6.848 -0.0320 -0.0783 -0.0564
 3441SOL    HW112330   0.649   6.678   6.915  1.5706  0.9889  1.5958
 3441SOL    HW212331   0.589   6.777   6.819 -0.8533 -1.7096  0.1764
 3442SOL     OW12332  10.915   2.259   5.033  0.6571  0.5093 -0.1068
 3442SOL    HW112333  10.872   2.308   4.963 -1.9455 -0.8562  0.4027
 3442SOL    HW212334  10.938   2.326   5.098 -1.0760  1.3180 -0.2604
 3443SOL     OW12335   4.768   6.080   4.816  0.3201  0.0300 -0.0673
 3443SOL    HW112336   4.767   6.174   4.834  1.6951  0.2457 -1.0040
 3443SOL    HW212337   4.789   6.074   4.723  0.9390 -1.2217  0.1338
 3444SOL     OW12338  10.157   1.534   1.252 -0.2984  0.2472 -0.3263
 3444SOL    HW112339  10.159   1.520   1.347 -1.1283  2.3279  0.0694
 3444SOL    HW212340  10.183   1.451   1.214  0.1315 -0.6136  1.7381
 3445SOL     OW12341   1.981   1.376   8.952 -0.3313 -0.0550  0.2853
 3445SOL    HW112342   1.898   1.347   8.990 -1.2241 -0.5755 -1.9192
 3445SOL    HW212343   1.957   1.450   8.895  0.8920  0.5033  0.4569
 3446SOL     OW12344   4.467   7.065   9.848 -0.2541  0.6722 -0.0303
 3446SOL    HW112345   4.469   7.095   9.939 -2.5076  1.9207 -0.3121
 3446SOL    HW212346   4.474   7.145   9.796  0.8449 -0.0049 -0.9663
 3447SOL     OW12347   4.004   3.944   4.386 -0.5234  0.9017  0.4755
 3447SOL    HW112348   3.955   3.944   4.304  0.1237  0.3500  0.0835
 3447SOL    HW212349   4.096   3.947   4.360 -0.2231 -1.1350  1.1097
 3448SOL     OW12350   0.216  10.737   0.100  0.4436  0.4146 -0.0463
 3448SOL    HW112351   0.212  10.726   0.005 -0.0984  1.2622 -0.1312
 3448SOL    HW212352   0.162  10.667   0.135  2.3406 -1.2385 -0.2386
 3449SOL     OW12353   6.356   6.742  10.998  0.2424  0.3871  0.1395
 3449SOL    HW112354   6.279   6.703  11.039  0.1290  0.0412 -0.3938
 3449SOL    HW212355   6.330   6.757  10.907  1.1633 -0.7821 -0.3423
 3450SOL     OW12356   0.444   6.008   9.745  0.2298  0.5266  0.1584
 3450SOL    HW112357   0.435   6.090   9.793 -0.9958 -0.2351  1.3239
 3450SOL    HW212358   0.423   6.030   9.654 -0.9587  1.3450  0.6063
 3451SOL     OW12359   8.822   6.455   8.465 -0.7368  0.0458  0.1917
 3451SOL    HW112360   8.890   6.507   8.508  0.6569 -0.7293 -0.9705
 3451SOL    HW212361   8.768   6.421   8.536  1.0091 -0.5470  1.2797
 3452SOL     OW12362   9.770   9.334   6.662  0.1386 -0.2603 -0.5958
 3452SOL    HW112363   9.707   9.392   6.705  0.6474  0.7121 -1.1035
 3452SOL    HW212364   9.792   9.268   6.727  1.2753  1.4560  0.8468
 3453SOL     OW12365   5.702   3.028   6.720  0.2471 -0.1652  0.0835
 3453SOL    HW112366   5.774   3.037   6.657 -1.3825 -0.1313 -1.8627
 3453SOL    HW212367   5.629   3.075   6.680 -1.6153 -2.3022  0.7690
 3454SOL     OW12368   8.422   3.973   6.507 -0.2252  0.6383 -0.1212
 3454SOL    HW112369   8.480   3.945   6.578 -0.9005 -1.9932 -0.5082
 3454SOL    HW212370   8.334   3.956   6.541 -0.5517 -2.5403 -2.1391
 3455SOL     OW12371   8.280  11.051   4.945  0.0895  0.3927 -0.2713
 3455SOL    HW112372   8.200  11.048   4.893 -0.8947 -0.2543  1.1985
 3455SOL    HW212373   8.264  11.120   5.009  0.2543 -0.4229  0.6840
 3456SOL     OW12374  10.358   9.419   4.405  0.4055  0.1222  0.9344
 3456SOL    HW112375  10.448   9.390   4.420  1.3092 -1.1282 -4.7104
 3456SOL    HW212376  10.306   9.338   4.409 -0.4643  0.7023  3.1417
 3457SOL     OW12377   8.881   2.178   7.901  0.1432  0.0163 -0.8198
 3457SOL    HW112378   8.801   2.211   7.860  0.0611  1.3400  0.3315
 3457SOL    HW212379   8.869   2.083   7.904 -0.8705  0.0999 -1.7131
 3458SOL     OW12380   6.921   6.861   7.155 -0.3949 -0.2575  0.0609
 3458SOL    HW112381   6.921   6.857   7.251  0.9263  1.9430  0.2184
 3458SOL    HW212382   6.873   6.783   7.128 -3.2217  0.4404  2.5700
 3459SOL     OW12383   2.490   7.532   8.567 -0.2900  0.0613  0.1721
 3459SOL    HW112384   2.551   7.479   8.618  0.4448 -0.4982 -1.2218
 3459SOL    HW212385   2.455   7.596   8.629  0.2781 -0.8217  1.4352
 3460SOL     OW12386   3.959   7.155  10.771 -0.0311  0.5950 -0.2004
 3460SOL    HW112387   3.930   7.181  10.859 -0.5840 -0.2811 -0.1111
 3460SOL    HW212388   3.919   7.070  10.757  1.0382  0.1819 -0.8365
 3461SOL     OW12389   7.811   8.623   7.757  0.6892 -0.5146  0.0857
 3461SOL    HW112390   7.807   8.693   7.692  0.8959  0.4929  1.1424
 3461SOL    HW212391   7.810   8.667   7.841  0.8129 -1.7854  0.7855
 3462SOL     OW12392   3.342   2.905   4.149 -0.1848  0.2743  0.6206
 3462SOL    HW112393   3.416   2.864   4.194  0.5815  1.5171  0.5376
 3462SOL    HW212394   3.272   2.907   4.214 -0.5287 -1.8731  0.3806
 3463SOL     OW12395   0.774   9.074  10.940 -0.0815  0.0380  0.3543
 3463SOL    HW112396   0.827   9.107  11.013  0.0105 -1.0867  0.8174
 3463SOL    HW212397   0.701   9.029  10.981 -0.0382 -0.6016 -0.2476
 3464SOL     OW12398   1.482   0.203   2.330 -0.4045  0.0216 -0.6743
 3464SOL    HW112399   1.465   0.255   2.252  0.0776  0.5790 -0.4184
 3464SOL    HW212400   1.425   0.241   2.397  1.4153  1.5753  0.0545
 3465SOL     OW12401   3.407   4.375   5.218 -0.5025  1.0017  0.3650
 3465SOL    HW112402   3.372   4.322   5.146 -2.3921  1.0368  1.1941
 3465SOL    HW212403   3.481   4.422   5.179 -0.2747 -0.4088 -1.0254
 3466SOL     OW12404   5.510   5.612   0.519 -0.4097  0.3896 -0.2335
 3466SOL    HW112405   5.561   5.553   0.462 -1.3297 -0.3349 -0.3310
 3466SOL    HW212406   5.461   5.667   0.458  0.7668  1.5889 -0.1504
 3467SOL     OW12407   9.957   5.388   5.801  0.7242  0.9370 -0.1213
 3467SOL    HW112408   9.986   5.342   5.880  0.6459  0.0040 -0.6320
 3467SOL    HW212409   9.863   5.399   5.812  0.3669 -0.9139 -0.9266
 3468SOL     OW12410   0.338   1.683   9.660  0.3615  0.0352  0.5409
 3468SOL    HW112411   0.316   1.743   9.588  0.8679  0.1743  0.4951
 3468SOL    HW212412   0.308   1.729   9.738 -0.6431 -0.3363  0.3871
 3469SOL     OW12413   9.198   2.179   8.364  0.0933  0.5685  0.5745
 3469SOL    HW112414   9.147   2.100   8.345  0.0233 -0.1383  3.2597
 3469SOL    HW212415   9.288   2.155   8.341  0.2259 -0.7145  2.1634
 3470SOL     OW12416   8.408   7.127   5.981  0.1103 -0.2339  0.1780
 3470SOL    HW112417   8.359   7.086   6.053 -1.0294  1.2862  0.3239
 3470SOL    HW212418   8.495   7.140   6.016 -0.6020  1.0781  1.5786
 3471SOL     OW12419   3.353   2.050   9.912 -0.0685  0.0344  0.0274
 3471SOL    HW112420   3.275   2.080   9.959  1.3256  0.4404  2.2467
 3471SOL    HW212421   3.337   2.074   9.821 -0.8762  3.7645  0.9990
 3472SOL     OW12422  10.238   2.830   6.224 -0.0611  0.5407  0.0683
 3472SOL    HW112423  10.159   2.836   6.277  1.9159  3.4205  3.0239
 3472SOL    HW212424  10.241   2.912   6.175 -0.2367 -0.7537 -2.2661
 3473SOL     OW12425   0.652   1.480   6.478  0.2919 -0.1380  0.1316
 3473SOL    HW112426   0.655   1.554   6.538 -0.5184 -0.3404  0.4249
 3473SOL    HW212427   0.743   1.452   6.470  0.7588  1.4627 -0.7094
 3474SOL     OW12428   5.257   0.462  10.813 -0.4845  0.1437 -0.4142
 3474SOL    HW112429   5.286   0.532  10.871 -2.4850  0.7580 -0.0869
 3474SOL    HW212430   5.244   0.506  10.729 -4.7185  1.0184  0.4917
 3475SOL     OW12431   4.031   4.957   1.070  0.5495 -0.1417  0.2545
 3475SOL    HW112432   4.075   4.969   1.154  0.2630 -0.3599  0.4382
 3475SOL    HW212433   3.981   4.875   1.080  0.2650 -0.0053 -0.0170
 3476SOL     OW12434   5.828   1.875   4.110  0.9026 -0.3245  0.0525
 3476SOL    HW112435   5.859   1.797   4.155 -1.1373 -0.8143  0.7114
 3476SOL    HW212436   5.889   1.887   4.037  2.2775 -1.4900  0.9759
 3477SOL     OW12437   1.194   6.156   8.683  0.3829 -0.0311  0.1799
 3477SOL    HW112438   1.195   6.202   8.599  1.6664 -1.8026 -0.8331
 3477SOL    HW212439   1.111   6.182   8.723  0.2127  1.6805 -1.1416
 3478SOL     OW12440   3.604   6.378   8.562 -0.1670  1.0284 -0.3243
 3478SOL    HW112441   3.645   6.457   8.596 -0.4277  1.0282 -0.0066
 3478SOL    HW212442   3.661   6.351   8.490  1.2477  0.1473  1.0756
 3479SOL     OW12443   3.241   4.920   6.311 -0.1042 -0.2453 -0.2405
 3479SOL    HW112444   3.329   4.915   6.349 -0.0391  0.2357 -0.3139
 3479SOL    HW212445   3.207   5.004   6.342 -0.5448 -0.4392 -0.1989
 3480SOL     OW12446   4.410   0.016   8.652  0.3906  0.4968  0.0017
 3480SOL    HW112447   4.487   0.056   8.693 -0.0328  2.8384 -1.2975
 3480SOL    HW212448   4.409   0.052   8.563 -1.5286 -0.4453 -0.4110
 3481SOL     OW12449  11.041   8.799   5.144 -0.5325 -0.4565 -0.1680
 3481SOL    HW112450  11.051   8.887   5.106  1.2906 -0.3609  0.4172
 3481SOL    HW212451  10.999   8.748   5.075 -3.4205  1.2743  0.1405
 3482SOL     OW12452   3.540   7.364   5.779  0.0103  0.0917  0.6096
 3482SOL    HW112453   3.560   7.321   5.697 -1.8353  1.6278 -0.7437
 3482SOL    HW212454   3.452   7.332   5.802  0.7852 -0.8857  2.4237
 3483SOL     OW12455   8.155   1.893   8.693  0.8805 -0.3378  0.4025
 3483SOL    HW112456   8.137   1.946   8.770  1.3596  0.9942 -0.3681
 3483SOL    HW212457   8.180   1.808   8.728  1.8094  0.4576  1.7591
 3484SOL     OW12458   3.207   1.118   7.797  0.3395  0.3437 -0.0448
 3484SOL    HW112459   3.301   1.121   7.815  0.9105  0.5354 -2.5560
 3484SOL    HW212460   3.174   1.204   7.821  1.0349  0.6267 -0.1010
 3485SOL     OW12461  10.294   2.551   7.564  0.9737 -0.6002 -0.1907
 3485SOL    HW112462  10.371   2.497   7.549 -0.5792 -2.4117 -2.4673
 3485SOL    HW212463  10.233   2.493   7.610  0.3226  0.1713 -0.0600
 3486SOL     OW12464   5.248   4.667   1.365  0.3003  0.3667  0.0245
 3486SOL    HW112465   5.253   4.571   1.368 -0.7244  0.3181  1.0649
 3486SOL    HW212466   5.310   4.696   1.432 -0.4577  0.3533  0.7590
 3487SOL     OW12467   3.169   2.333   7.283  0.3426  0.2240  0.2502
 3487SOL    HW112468   3.122   2.252   7.268 -1.2479  1.3693 -1.4109
 3487SOL    HW212469   3.187   2.334   7.377 -2.5142 -0.5667  0.8784
 3488SOL     OW12470   0.444   2.147   6.486 -0.3836  0.4928 -0.4892
 3488SOL    HW112471   0.483   2.063   6.509  0.9842  0.9950 -0.8919
 3488SOL    HW212472   0.387   2.168   6.560 -0.6147 -0.6924 -0.3041
 3489SOL     OW12473   8.594   2.694  10.000  0.0077 -0.7752 -0.7836
 3489SOL    HW112474   8.597   2.728  10.090 -1.6477  1.4414 -1.4836
 3489SOL    HW212475   8.677   2.723   9.961 -0.4671  0.7149 -0.7421
 3490SOL     OW12476   1.341   4.612   6.695  0.1789  0.4698 -0.3652
 3490SOL    HW112477   1.392   4.693   6.698  0.5111  0.3356 -1.5678
 3490SOL    HW212478   1.344   4.586   6.603 -1.6987  0.2164 -0.3974
 3491SOL     OW12479   3.450   6.672   9.441 -1.0907  0.7336  0.2856
 3491SOL    HW112480   3.484   6.670   9.351  0.8363  2.1410  0.9138
 3491SOL    HW212481   3.369   6.622   9.437 -0.2590 -0.5715 -1.8972
 3492SOL     OW12482   0.814   4.508   7.592 -0.1660 -0.1933  0.3821
 3492SOL    HW112483   0.796   4.501   7.498 -0.5557 -0.6629  0.4843
 3492SOL    HW212484   0.906   4.486   7.601  0.6133  2.4790 -0.1887
 3493SOL     OW12485   1.299   1.238   6.219  0.2276 -0.1212 -0.3695
 3493SOL    HW112486   1.250   1.170   6.173 -0.6837 -0.1417  0.6058
 3493SOL    HW212487   1.274   1.319   6.174  0.4465 -0.2941 -0.8127
 3494SOL     OW12488   2.979   2.841  10.146  0.2316 -0.1968  0.6101
 3494SOL    HW112489   2.995   2.751  10.119  1.5073 -0.1224  1.0262
 3494SOL    HW212490   2.931   2.880  10.073  2.2003 -0.4238 -0.8746
 3495SOL     OW12491   1.400   0.783   6.143  0.5640  0.4786  0.3680
 3495SOL    HW112492   1.340   0.715   6.174  0.4154  0.3607 -0.1569
 3495SOL    HW212493   1.398   0.850   6.211  0.8748 -0.1350  0.9974
 3496SOL     OW12494   9.836   1.077   2.958  0.4346 -0.7434  0.0494
 3496SOL    HW112495   9.814   1.110   2.872  0.8884  1.4850  0.7209
 3496SOL    HW212496   9.755   1.083   3.008 -0.3762 -3.9540 -0.6805
 3497SOL     OW12497   2.634   0.334   5.997 -0.0780 -0.2817 -0.2530
 3497SOL    HW112498   2.550   0.378   5.984  0.3708  0.5935 -0.2850
 3497SOL    HW212499   2.665   0.366   6.082  0.8928  0.5349 -0.8975
 3498SOL     OW12500   6.728   2.287  10.604 -0.6171 -0.2347  0.2483
 3498SOL    HW112501   6.796   2.285  10.537 -0.2405 -0.6650  0.6369
 3498SOL    HW212502   6.716   2.380  10.623  0.6434 -0.1976  0.9530
 3499SOL     OW12503   0.756   2.131   0.827  0.2337  0.4715  0.5230
 3499SOL    HW112504   0.750   2.123   0.922  0.6812  1.7051  0.6712
 3499SOL    HW212505   0.690   2.071   0.793 -0.0382  0.1429  1.6176
 3500SOL     OW12506   4.934   5.857   2.171 -0.0743  0.0487  0.0650
 3500SOL    HW112507   4.975   5.895   2.248  1.0431  0.9822 -0.9547
 3500SOL    HW212508   4.841   5.857   2.191  0.2620 -0.7779  1.8540
 3501SOL     OW12509   1.012   5.221   8.693 -0.7556 -0.0869 -0.3890
 3501SOL    HW112510   1.082   5.163   8.664 -0.2111 -0.2988  1.2329
 3501SOL    HW212511   1.002   5.202   8.786 -0.7346  2.2341  0.1546
 3502SOL     OW12512   4.280   7.271   9.362  0.3554  0.3261  0.0020
 3502SOL    HW112513   4.260   7.305   9.450  1.1005  1.5454 -0.2647
 3502SOL    HW212514   4.215   7.312   9.305  1.5009  1.6952 -0.3815
 3503SOL     OW12515   2.449   2.567   1.699  0.6907  0.1640  0.8150
 3503SOL    HW112516   2.472   2.528   1.783 -0.7326  0.8349  1.5582
 3503SOL    HW212517   2.354   2.578   1.703  0.3952 -0.9276 -1.3852
 3504SOL     OW12518   4.445   5.862   4.158  0.5665 -0.2611 -0.6245
 3504SOL    HW112519   4.365   5.914   4.166  1.4169  1.0101 -0.1112
 3504SOL    HW212520   4.479   5.856   4.247  0.2448 -2.1373 -0.5977
 3505SOL     OW12521   9.599   1.959   7.666  0.4511  0.5168 -0.1582
 3505SOL    HW112522   9.513   1.979   7.628  0.6463 -0.4160 -1.1201
 3505SOL    HW212523   9.643   2.044   7.672 -0.7063  1.0767  0.8093
 3506SOL     OW12524   1.008   9.361   4.468 -0.3329 -0.5225 -0.0321
 3506SOL    HW112525   1.092   9.341   4.426 -0.4182 -0.9470 -0.0052
 3506SOL    HW212526   1.029   9.364   4.562  0.0647  1.4368 -0.1366
 3507SOL     OW12527   2.130   6.783   9.020  0.0000 -0.7052 -0.6642
 3507SOL    HW112528   2.091   6.706   8.979  0.9284 -0.7263 -1.5388
 3507SOL    HW212529   2.070   6.854   9.000 -0.7357 -1.1387 -0.0616
 3508SOL     OW12530   3.692   5.971   5.067 -0.0372 -0.8924 -0.3062
 3508SOL    HW112531   3.642   5.981   4.986  0.6334  0.2140 -0.5984
 3508SOL    HW212532   3.649   5.898   5.112 -1.4402 -0.4607 -0.8875
 3509SOL     OW12533   2.637   1.091   0.586 -0.1667  0.0505 -0.1113
 3509SOL    HW112534   2.627   1.163   0.525 -0.8350  1.2368  1.3429
 3509SOL    HW212535   2.549   1.054   0.595 -0.2138  0.3333  0.6503
 3510SOL     OW12536   9.894   7.634   8.847  0.2018 -0.2533 -0.0175
 3510SOL    HW112537   9.871   7.659   8.757  1.2450 -1.0009 -0.5157
 3510SOL    HW212538   9.867   7.709   8.900  0.0762  0.4343 -1.0172
 3511SOL     OW12539   9.705   1.254  10.125 -0.6440  0.3238 -0.1326
 3511SOL    HW112540   9.715   1.166  10.161  0.0583 -0.1195 -1.3482
 3511SOL    HW212541   9.742   1.312  10.191 -0.4212 -0.3578  0.3458
 3512SOL     OW12542   4.762   1.241   5.516  0.4391  0.7649  0.4238
 3512SOL    HW112543   4.799   1.242   5.605 -1.1964  0.3120  1.1608
 3512SOL    HW212544   4.836   1.224   5.459  1.2459 -1.0870  1.9011
 3513SOL     OW12545   0.438   4.202  10.043 -0.3842  0.0885  0.2601
 3513SOL    HW112546   0.354   4.158  10.028  0.0373 -0.6124 -0.0544
 3513SOL    HW212547   0.429   4.285   9.996 -0.9426  0.0667  0.3145
 3514SOL     OW12548   3.328   4.312   1.026 -0.3581  0.1554 -0.7106
 3514SOL    HW112549   3.345   4.220   1.002  0.1057 -0.0078  0.2116
 3514SOL    HW212550   3.253   4.308   1.085 -0.8252  0.4575 -1.2678
 3515SOL     OW12551   2.551   5.857   9.920 -0.1711 -0.5084  0.2256
 3515SOL    HW112552   2.520   5.935   9.968  0.4413 -0.7153  0.9728
 3515SOL    HW212553   2.646   5.865   9.921 -0.0527 -1.8514  1.3087
 3516SOL     OW12554   1.353   5.615  10.434 -0.0905 -0.4872 -0.1568
 3516SOL    HW112555   1.303   5.634  10.513 -1.6946 -0.1485 -1.1995
 3516SOL    HW212556   1.344   5.693  10.381  2.5364  0.0391  0.0394
 3517SOL     OW12557   2.427   7.114   1.098  0.0172  0.0770 -0.6430
 3517SOL    HW112558   2.362   7.184   1.105  0.3428  0.2897  0.4497
 3517SOL    HW212559   2.419   7.083   1.008 -1.0660  0.6079 -0.7466
 3518SOL     OW12560   6.256   2.567   0.959 -0.1015 -0.6214 -0.2907
 3518SOL    HW112561   6.301   2.483   0.971 -1.0199 -1.0746  0.0469
 3518SOL    HW212562   6.179   2.562   1.015  1.8913  2.0663  3.1333
 3519SOL     OW12563   4.043   5.002   9.416 -0.1398  0.4809  0.2438
 3519SOL    HW112564   4.108   4.940   9.384 -1.7090 -0.6038 -1.0213
 3519SOL    HW212565   3.984   4.949   9.470 -0.1843  1.3712  1.0998
 3520SOL     OW12566   1.383   4.013   5.782  0.2437 -0.2590  0.0954
 3520SOL    HW112567   1.404   4.056   5.698  2.7709 -0.0286  0.7623
 3520SOL    HW212568   1.430   3.930   5.777  1.9308  0.5067  1.9216
 3521SOL     OW12569   2.918   6.327   5.583  0.0704 -0.0899 -0.6382
 3521SOL    HW112570   2.962   6.405   5.551  2.6645 -0.6670  1.1768
 3521SOL    HW212571   2.873   6.356   5.663 -1.8397  0.2011 -1.7631
 3522SOL     OW12572   5.691   2.210  10.109  0.1035  0.2886  0.3398
 3522SOL    HW112573   5.770   2.169  10.074 -0.9352 -0.7875 -0.8108
 3522SOL    HW212574   5.717   2.302  10.123  1.7626 -0.1971  0.7194
 3523SOL     OW12575   4.668   5.492   8.457  0.4731  0.1971 -0.0161
 3523SOL    HW112576   4.737   5.443   8.412  0.0551 -0.2358 -0.1998
 3523SOL    HW212577   4.701   5.582   8.460  0.7334  0.1383 -0.7343
 3524SOL     OW12578   3.289   4.464   2.829 -0.1631 -0.0686 -0.2511
 3524SOL    HW112579   3.237   4.518   2.768 -1.2330  0.1186  0.7892
 3524SOL    HW212580   3.249   4.377   2.822  0.3203 -0.2696 -0.5091
 3525SOL     OW12581   9.108   1.736  10.881  0.2515 -0.5504  0.3598
 3525SOL    HW112582   9.022   1.776  10.889  1.5415  2.0994  2.5623
 3525SOL    HW212583   9.121   1.687  10.962  1.1498 -0.1561  0.4726
 3526SOL     OW12584   8.149   4.846   7.726 -0.3519 -0.0615 -0.1496
 3526SOL    HW112585   8.219   4.902   7.759  0.9941 -2.1561  0.6971
 3526SOL    HW212586   8.081   4.850   7.793 -0.1537  0.3159  0.0315
 3527SOL     OW12587   3.299   0.623   9.434  0.4143 -0.3902 -0.3597
 3527SOL    HW112588   3.262   0.647   9.348  0.0980  0.0315 -0.1092
 3527SOL    HW212589   3.393   0.616   9.418  0.6512  1.8892 -0.2779
 3528SOL     OW12590   2.587   3.046   5.762  0.4210 -0.3671  0.1580
 3528SOL    HW112591   2.570   3.083   5.849  1.3242 -0.3076  0.3176
 3528SOL    HW212592   2.680   3.025   5.762  0.7756  0.9851 -1.2990
 3529SOL     OW12593   8.349   8.997   6.337  0.4083 -0.3513  0.4820
 3529SOL    HW112594   8.440   8.973   6.321  0.5924  0.6411 -0.0749
 3529SOL    HW212595   8.343   9.008   6.431  1.0706  0.2989  0.4637
 3530SOL     OW12596   4.095   6.350   7.696  0.2039 -0.1631  1.1154
 3530SOL    HW112597   4.091   6.288   7.623 -2.6756  0.5882  0.5140
 3530SOL    HW212598   4.125   6.432   7.656  0.2192 -0.1645  1.1236
 3531SOL     OW12599   1.965   5.029   9.916 -0.3248  0.0680  0.7281
 3531SOL    HW112600   1.956   5.083   9.838  1.5409  0.3827  0.6855
 3531SOL    HW212601   2.049   4.985   9.905  0.3470  0.6900  2.8758
 3532SOL     OW12602   2.610   1.814   9.946  0.5190  0.1419 -0.7140
 3532SOL    HW112603   2.539   1.877   9.938 -0.6079 -1.0281 -0.1860
 3532SOL    HW212604   2.627   1.785   9.856 -0.1305 -0.0612 -0.7761
 3533SOL     OW12605   7.372   5.737   9.180 -0.1692 -0.0753 -0.5349
 3533SOL    HW112606   7.303   5.703   9.237 -1.5370  1.3364 -1.2848
 3533SOL    HW212607   7.342   5.719   9.091  0.3891  0.6327 -0.8788
 3534SOL     OW12608   8.173   4.981   8.258  0.5332  0.1273 -0.0515
 3534SOL    HW112609   8.130   4.911   8.307  1.2539  0.5396  1.2223
 3534SOL    HW212610   8.262   4.984   8.294 -0.0783  3.1131  1.5232
 3535SOL     OW12611   4.072   9.350   8.282 -0.5080  0.1381 -0.0961
 3535SOL    HW112612   4.138   9.353   8.212 -0.2978  1.7706  0.1554
 3535SOL    HW212613   4.072   9.258   8.310  3.4713  0.4593  1.6003
 3536SOL     OW12614   9.277   7.747   6.205  0.5315 -0.7228 -0.0463
 3536SOL    HW112615   9.271   7.770   6.298  1.6206 -0.1233 -0.1093
 3536SOL    HW212616   9.294   7.830   6.161 -0.4769 -0.9242 -0.8505
 3537SOL     OW12617   6.245   3.490   7.133  0.0978  0.0056 -0.2734
 3537SOL    HW112618   6.282   3.499   7.045 -0.1657 -0.0278 -0.3898
 3537SOL    HW212619   6.188   3.566   7.143  0.3313  0.1493 -0.0284
 3538SOL     OW12620   8.134   5.344   6.212 -0.1106  0.6897 -0.1614
 3538SOL    HW112621   8.089   5.368   6.293  0.5247 -0.5823  0.6044
 3538SOL    HW212622   8.174   5.259   6.231 -0.7673 -0.1199 -2.1235
 3539SOL     OW12623   0.149   9.630   7.241  0.0753 -0.0417  0.5096
 3539SOL    HW112624   0.064   9.654   7.205 -0.3782 -3.4370 -1.1672
 3539SOL    HW212625   0.165   9.693   7.312 -2.9470  1.8024 -0.2828
 3540SOL     OW12626   0.226   6.793   0.787 -0.4118  0.7061  0.2192
 3540SOL    HW112627   0.256   6.872   0.833 -1.6816  1.4170 -0.1499
 3540SOL    HW212628   0.135   6.784   0.813 -0.0908 -1.1180  0.8833
 3541SOL     OW12629   6.941  10.357   6.923  0.5250 -0.1374  0.1066
 3541SOL    HW112630   7.010  10.361   6.857 -0.2930  0.6671 -0.7167
 3541SOL    HW212631   6.986  10.328   7.003  1.8622  0.6310 -0.3421
 3542SOL     OW12632   0.858   2.820   4.190 -0.4101  0.0954 -0.1807
 3542SOL    HW112633   0.840   2.834   4.283  0.9768  1.3050 -0.0439
 3542SOL    HW212634   0.952   2.802   4.187 -0.7925 -2.0640 -1.1699
 3543SOL     OW12635   4.927   1.426   8.526 -0.0525 -0.0800 -0.6752
 3543SOL    HW112636   4.839   1.427   8.488 -0.0177 -0.8035 -0.7833
 3543SOL    HW212637   4.944   1.334   8.545 -0.0329  0.2398  1.0283
 3544SOL     OW12638   2.958   9.968   7.796 -0.0755 -0.2674  0.4307
 3544SOL    HW112639   2.873  10.007   7.815 -0.0662  0.4181 -0.8828
 3544SOL    HW212640   2.963   9.893   7.855 -1.2118  0.1819  1.1328
 3545SOL     OW12641   0.050   8.080   0.903 -0.3144  0.2646 -0.1252
 3545SOL    HW112642  -0.012   8.011   0.878  0.6501 -0.8044  0.3044
 3545SOL    HW212643  -0.005   8.155   0.926 -1.3425  0.1993 -2.1579
 3546SOL     OW12644   2.909   8.334   1.696  0.0786  0.5346  0.1377
 3546SOL    HW112645   2.833   8.349   1.752  0.7093  0.8483  0.9395
 3546SOL    HW212646   2.888   8.255   1.646 -2.4047  2.6359 -2.5084
 3547SOL     OW12647   3.982   2.971   5.291  0.2164  0.1996  0.4183
 3547SOL    HW112648   3.975   3.026   5.369  1.8227  0.7544  0.2144
 3547SOL    HW212649   4.067   2.994   5.253  1.0410 -2.5270  0.4128
 3548SOL     OW12650   6.746   2.173   9.546 -1.1802  0.3259  0.2885
 3548SOL    HW112651   6.695   2.206   9.472 -0.5735  1.2670  0.2718
 3548SOL    HW212652   6.717   2.225   9.620 -0.8085  0.3205  0.4392
 3549SOL     OW12653   4.177   6.428   2.269  0.3936  0.5252  0.9917
 3549SOL    HW112654   4.125   6.467   2.339  1.9791  0.6539  2.1414
 3549SOL    HW212655   4.250   6.489   2.257  0.7693 -0.0961  0.0278
 3550SOL     OW12656   7.906   0.766   8.419 -0.0698  0.2952  0.0855
 3550SOL    HW112657   7.859   0.692   8.381 -1.1075  0.4800  0.9366
 3550SOL    HW212658   7.969   0.726   8.479  1.1478  0.0308 -1.3243
 3551SOL     OW12659   4.251   8.695   9.564  0.0122 -0.1708  0.0798
 3551SOL    HW112660   4.311   8.690   9.638  0.5076 -1.4122 -0.3901
 3551SOL    HW212661   4.196   8.771   9.583  0.6973  0.0411  1.2877
 3552SOL     OW12662  10.958   5.007   8.734 -0.3807 -0.3810  0.4781
 3552SOL    HW112663  10.933   4.971   8.649 -0.9623 -2.3520  1.4277
 3552SOL    HW212664  10.879   5.003   8.787  0.2584 -0.2488  1.4680
 3553SOL     OW12665   9.982   8.125   6.001  0.4757 -0.6397  0.0426
 3553SOL    HW112666   9.937   8.141   6.084  0.3226  0.1961 -0.1990
 3553SOL    HW212667  10.051   8.062   6.024  0.9450  0.1793  0.9709
 3554SOL     OW12668   0.033   8.195   9.004  0.0571  0.4034  0.3535
 3554SOL    HW112669   0.044   8.240   8.921  1.7179  2.0045  1.3596
 3554SOL    HW212670  -0.062   8.187   9.014 -0.2015 -2.0529 -2.7442
 3555SOL     OW12671  10.914   1.381   7.907  0.4782  0.3742 -0.0352
 3555SOL    HW112672  10.912   1.295   7.865  1.5850  0.7788 -0.9553
 3555SOL    HW212673  10.898   1.362   8.000 -0.8750 -0.6471 -0.4454
 3556SOL     OW12674  10.616  10.042   7.635  1.0549  0.7730  0.0581
 3556SOL    HW112675  10.633  10.044   7.729  0.0852  1.2171  0.2429
 3556SOL    HW212676  10.598  10.133   7.612 -0.8547  0.4066 -0.1083
 3557SOL     OW12677   0.431   3.141   7.819 -0.1870  0.1637 -0.1650
 3557SOL    HW112678   0.517   3.123   7.781  0.5844  1.1443  1.0074
 3557SOL    HW212679   0.419   3.235   7.807 -0.5293  0.2498  0.7594
 3558SOL     OW12680   0.447   3.082   0.562  1.0638  0.2251 -0.5163
 3558SOL    HW112681   0.458   3.017   0.631  0.7923  0.6172 -0.1061
 3558SOL    HW212682   0.389   3.148   0.599  0.8902  0.4264 -1.1258
 3559SOL     OW12683   0.254   0.801   1.200 -0.3321  0.0321 -0.2986
 3559SOL    HW112684   0.211   0.855   1.266 -1.4497 -0.0807 -0.9133
 3559SOL    HW212685   0.282   0.863   1.132  1.9157  0.3175  0.7852
 3560SOL     OW12686   2.202   2.850   4.614  0.1085 -0.2503  0.6096
 3560SOL    HW112687   2.158   2.767   4.627  1.2284 -0.7788  1.1758
 3560SOL    HW212688   2.295   2.830   4.624  0.5827  0.6399 -1.4538
 3561SOL     OW12689   7.678   3.405   6.300 -0.3035  0.0196 -0.5135
 3561SOL    HW112690   7.640   3.340   6.241 -0.1073 -0.7507  0.1870
 3561SOL    HW212691   7.629   3.396   6.381 -1.0764  1.5964 -0.7678
 3562SOL     OW12692  11.011   9.543   0.831  0.0844 -0.2531  0.0408
 3562SOL    HW112693  11.042   9.498   0.909  0.2135 -0.7663 -0.3015
 3562SOL    HW212694  11.089   9.585   0.795 -0.2494  1.3400  1.0456
 3563SOL     OW12695   7.629   9.161   0.146  0.0921  0.0429  0.0723
 3563SOL    HW112696   7.668   9.114   0.072 -0.5450 -1.1547  0.4604
 3563SOL    HW212697   7.625   9.095   0.216 -2.3567  0.1600  0.1279
 3564SOL     OW12698   2.983   0.972   7.883  0.0940 -0.6751 -0.5768
 3564SOL    HW112699   3.061   1.007   7.839 -0.0127 -0.5738 -0.6860
 3564SOL    HW212700   3.002   0.981   7.976 -1.1745  2.6134 -0.5045
 3565SOL     OW12701  10.186   5.771   9.805  0.0918  0.1664  0.2319
 3565SOL    HW112702  10.221   5.850   9.847  0.5482  0.5404 -0.7887
 3565SOL    HW212703  10.246   5.701   9.830  0.8249  0.5424 -0.4107
 3566SOL     OW12704   1.245   5.151   0.212 -0.1278 -0.3526  0.1099
 3566SOL    HW112705   1.234   5.110   0.126 -2.0285 -0.1827  0.2228
 3566SOL    HW212706   1.334   5.187   0.210 -0.9694  2.0231 -2.8597
 3567SOL     OW12707   2.799   1.015   8.250 -0.2570 -0.4589 -0.6464
 3567SOL    HW112708   2.892   1.012   8.225  0.2225  1.8390  0.5471
 3567SOL    HW212709   2.800   1.007   8.345 -1.3277 -0.6020 -0.6374
 3568SOL     OW12710   9.069   5.354   9.539  0.3053 -0.1401  0.1590
 3568SOL    HW112711   9.131   5.404   9.592  1.7103  0.6079 -2.0831
 3568SOL    HW212712   9.114   5.272   9.520 -0.5484 -0.7816  0.8134
 3569SOL     OW12713  10.032  10.424   9.517  0.0893 -0.0580 -0.1954
 3569SOL    HW112714  10.040  10.362   9.445  0.3218 -1.0225  0.6207
 3569SOL    HW212715  10.116  10.470   9.519  0.0936 -0.0522 -0.5167
 3570SOL     OW12716   8.250   4.892   4.933 -0.8599 -0.3867  0.3790
 3570SOL    HW112717   8.241   4.828   4.863  1.8563  0.4838 -0.9341
 3570SOL    HW212718   8.329   4.941   4.910 -0.7722  1.0271  3.2310
 3571SOL     OW12719   9.067   2.478   0.569  0.4722 -0.3060 -0.1203
 3571SOL    HW112720   9.086   2.465   0.662  1.2276 -1.3871 -0.3903
 3571SOL    HW212721   8.982   2.436   0.556  0.2986 -0.0268  0.1133
 3572SOL     OW12722  10.387  10.488   7.268 -0.0030  0.2315 -0.4881
 3572SOL    HW112723  10.475  10.469   7.235 -0.2862 -0.5527 -0.8123
 3572SOL    HW212724  10.401  10.555   7.335  0.8951 -0.2046 -0.2179
 3573SOL     OW12725   6.634   2.812   8.001 -0.6383 -0.4101 -0.2477
 3573SOL    HW112726   6.665   2.773   7.919 -0.0716  0.1096 -0.2929
 3573SOL    HW212727   6.540   2.793   8.003 -0.3694 -1.8434 -0.2092
 3574SOL     OW12728  10.862   0.495   7.284  0.2036 -0.6431 -0.1737
 3574SOL    HW112729  10.905   0.546   7.215  0.7350  0.5584  0.9886
 3574SOL    HW212730  10.935   0.454   7.331  0.0233  0.2656  0.9429
 3575SOL     OW12731   9.092   4.117   4.593  0.1765 -0.7907 -0.1730
 3575SOL    HW112732   9.163   4.056   4.574 -0.0721 -0.8755 -0.8349
 3575SOL    HW212733   9.131   4.204   4.586  0.0323 -0.8113 -1.3308
 3576SOL     OW12734   2.501   9.768   0.280 -0.2790  0.3151 -0.0780
 3576SOL    HW112735   2.509   9.693   0.221 -1.7168 -0.5664  0.7835
 3576SOL    HW212736   2.590   9.781   0.314  0.0327 -0.8671 -0.4058
 3577SOL     OW12737   3.517   4.472   6.268  0.0460 -0.1167 -0.1638
 3577SOL    HW112738   3.524   4.545   6.206  0.2361  0.0020 -0.0035
 3577SOL    HW212739   3.457   4.410   6.225  1.0539 -0.5531 -0.9746
 3578SOL     OW12740   0.247   7.904   5.417  0.5001  0.6674 -0.0332
 3578SOL    HW112741   0.256   7.832   5.480 -0.9055  1.6457  1.3750
 3578SOL    HW212742   0.249   7.861   5.331 -1.2181 -1.2201  0.7678
 3579SOL     OW12743   8.128   8.845   7.889 -0.0387  0.0884  0.8872
 3579SOL    HW112744   8.114   8.922   7.833  0.4511  0.8061  1.7075
 3579SOL    HW212745   8.218   8.819   7.871 -0.3335 -0.5646  0.3084
 3580SOL     OW12746   1.998  10.209   6.056 -0.1538  0.2356  0.4195
 3580SOL    HW112747   1.982  10.122   6.094  0.7325 -0.1187 -0.0015
 3580SOL    HW212748   1.921  10.226   6.001  1.4768 -2.1946 -2.9590
 3581SOL     OW12749   4.579   4.047   6.153 -0.1249 -0.4154 -0.4907
 3581SOL    HW112750   4.585   4.033   6.248  1.3225  1.7019 -0.1901
 3581SOL    HW212751   4.566   3.960   6.117  2.7089 -1.8110  1.4450
 3582SOL     OW12752   6.810   0.911   2.614  0.4636 -0.3031 -0.2548
 3582SOL    HW112753   6.856   0.854   2.675  0.3209 -0.0824  0.0625
 3582SOL    HW212754   6.852   0.996   2.624  1.8302 -0.7288 -1.9697
 3583SOL     OW12755   9.813   3.390   6.543 -1.2026  1.0564  0.3599
 3583SOL    HW112756   9.787   3.299   6.535  0.0786  0.7404 -0.5414
 3583SOL    HW212757   9.756   3.426   6.612 -2.5187 -0.0983 -0.0902
 3584SOL     OW12758   9.758   9.706   6.260 -0.2390  0.1699  0.1499
 3584SOL    HW112759   9.706   9.659   6.324  1.5432 -2.2411 -0.0148
 3584SOL    HW212760   9.770   9.793   6.297 -2.8615  0.2485  0.9581
 3585SOL     OW12761   7.515  10.897   5.621 -0.5703  0.5876 -0.7274
 3585SOL    HW112762   7.461  10.914   5.698  1.3968  1.6276  0.5014
 3585SOL    HW212763   7.455  10.901   5.547 -2.4260  0.0773  0.6930
 3586SOL     OW12764   1.791   6.831   7.360  0.0150  0.6149  0.1614
 3586SOL    HW112765   1.727   6.859   7.427 -0.8955  0.1347 -0.4862
 3586SOL    HW212766   1.738   6.809   7.284  1.0803  1.7053 -0.9438
 3587SOL     OW12767   8.655   1.918  10.360  0.2315  0.0015  0.2172
 3587SOL    HW112768   8.666   2.013  10.356 -0.2312  0.1106  1.1961
 3587SOL    HW212769   8.561   1.903  10.348  0.3059 -0.3403  0.0248
 3588SOL     OW12770   3.195   7.560   3.249 -0.8923  0.0414 -0.4054
 3588SOL    HW112771   3.129   7.498   3.279  0.2576 -0.8780  0.3444
 3588SOL    HW212772   3.194   7.630   3.315 -0.8381 -0.1756 -0.1739
 3589SOL     OW12773   4.404  10.748  10.606  0.0232  0.1307 -0.7484
 3589SOL    HW112774   4.357  10.704  10.534  1.4868 -0.8441 -1.1568
 3589SOL    HW212775   4.420  10.836  10.573 -1.7554  0.6099 -0.4663
 3590SOL     OW12776   3.621   0.028   3.162  0.3009  0.0038  0.5158
 3590SOL    HW112777   3.585  -0.006   3.244 -1.9200 -0.3380 -0.5417
 3590SOL    HW212778   3.595   0.120   3.160  0.4318  0.0365  0.2196
 3591SOL     OW12779   6.315   3.084   0.910  0.0427  0.0039 -0.2673
 3591SOL    HW112780   6.291   3.117   0.996 -0.5462 -1.5626  0.2112
 3591SOL    HW212781   6.306   2.989   0.917 -2.2269 -0.0883 -2.6735
 3592SOL     OW12782   5.252   4.316   9.067 -0.3219 -0.7480 -0.4336
 3592SOL    HW112783   5.208   4.384   9.119 -0.4671 -1.2164  0.0648
 3592SOL    HW212784   5.337   4.354   9.045 -0.4819 -0.3248 -0.3361
 3593SOL     OW12785   6.435   8.838   9.291 -0.0302  0.0743 -0.0196
 3593SOL    HW112786   6.483   8.833   9.374  0.3330  0.4266 -0.2009
 3593SOL    HW212787   6.362   8.777   9.301  1.1295 -1.3990 -0.1732
 3594SOL     OW12788   2.183   7.958   8.798 -0.4377 -0.2638  0.3809
 3594SOL    HW112789   2.196   7.935   8.890 -0.6057  1.5938  0.8976
 3594SOL    HW212790   2.211   8.049   8.791 -0.1656 -0.4583 -1.4801
 3595SOL     OW12791   1.397   2.904   0.144 -0.2656  0.6889  0.1856
 3595SOL    HW112792   1.454   2.828   0.131 -0.5123  0.3685  0.9042
 3595SOL    HW212793   1.453   2.979   0.128 -0.0260  0.3581 -0.5785
 3596SOL     OW12794   8.545   4.326   5.042 -0.5035 -1.0064  0.0213
 3596SOL    HW112795   8.633   4.288   5.041 -0.7270 -1.5587  0.4824
 3596SOL    HW212796   8.487   4.250   5.044 -0.9832 -0.6375  0.2139
 3597SOL     OW12797   2.295   4.101   7.954  0.7432  0.6349  0.0864
 3597SOL    HW112798   2.331   4.013   7.940  1.5402  0.9555  0.0629
 3597SOL    HW212799   2.270   4.102   8.046  1.2170  0.5510  0.2196
 3598SOL     OW12800   7.146   4.349   9.323 -0.0185 -0.0300  0.1362
 3598SOL    HW112801   7.057   4.379   9.306  0.1769 -0.0025 -0.9025
 3598SOL    HW212802   7.157   4.357   9.418 -0.8223  0.7880  0.1671
 3599SOL     OW12803   7.747   1.627   1.942 -0.1352  0.2165  0.2092
 3599SOL    HW112804   7.746   1.667   1.855  1.2484  1.9310  0.9382
 3599SOL    HW212805   7.833   1.585   1.949 -0.1841  0.1997  0.8039
 3600SOL     OW12806   1.791   7.408   8.437  0.1884 -0.5071  0.6325
 3600SOL    HW112807   1.810   7.415   8.531  0.1252 -1.2113  0.7024
 3600SOL    HW212808   1.803   7.316   8.417  2.0011 -0.0947 -0.4487
 3601SOL     OW12809   0.354   9.557   7.717 -0.2369  0.2230 -0.4246
 3601SOL    HW112810   0.270   9.539   7.674 -0.2279  0.2625 -0.4588
 3601SOL    HW212811   0.393   9.471   7.731 -1.6432 -0.0912  2.3948
 3602SOL     OW12812  10.701   5.429   8.500  0.3692 -0.0429  0.1659
 3602SOL    HW112813  10.694   5.336   8.521 -0.7507 -0.4730 -1.8400
 3602SOL    HW212814  10.718   5.431   8.406 -1.8671  1.7801 -0.2821
 3603SOL     OW12815   1.579   9.584   9.282 -0.9070 -0.2156  0.0538
 3603SOL    HW112816   1.580   9.652   9.215 -0.8753  1.2868  1.5195
 3603SOL    HW212817   1.665   9.589   9.323 -0.1869 -2.4481 -1.0096
 3604SOL     OW12818   3.090   5.806  10.179 -0.3835  0.3439  0.1914
 3604SOL    HW112819   3.182   5.817  10.204 -0.4332 -1.4831  1.3807
 3604SOL    HW212820   3.049   5.769  10.257 -1.8691  0.0166 -0.7183
 3605SOL     OW12821   4.987   2.092   7.261  0.3335 -0.0155  0.9045
 3605SOL    HW112822   4.945   2.178   7.261 -1.4923 -0.8411  2.2672
 3605SOL    HW212823   5.034   2.089   7.344 -1.6766 -1.2143  2.0652
 3606SOL     OW12824   0.637  10.787   3.054 -0.0681  0.4813  0.4977
 3606SOL    HW112825   0.699  10.825   2.992  0.9787 -0.8593  0.6755
 3606SOL    HW212826   0.645  10.842   3.132  1.6702 -0.2725  0.8786
 3607SOL     OW12827  10.249   0.754  11.098  0.0484 -0.7278 -0.6182
 3607SOL    HW112828  10.233   0.807  11.019  0.7241  0.8846  0.2794
 3607SOL    HW212829  10.207   0.804  11.168  0.7986 -1.3364  0.2810
 3608SOL     OW12830   2.658   5.848   1.806  0.4825  0.0065  0.1089
 3608SOL    HW112831   2.646   5.768   1.754 -1.2118  0.1116  0.2719
 3608SOL    HW212832   2.708   5.819   1.882  0.5033 -0.7627 -0.1799
 3609SOL     OW12833   8.996   8.512   4.474  0.0080 -0.2908  0.6141
 3609SOL    HW112834   9.051   8.463   4.536 -1.3150 -0.8591  1.3622
 3609SOL    HW212835   8.917   8.533   4.523 -1.3458 -1.2731 -1.0578
 3610SOL     OW12836  10.512   2.235   1.370 -0.7221  0.0407  0.0903
 3610SOL    HW112837  10.512   2.243   1.465  2.2529  0.8255  0.1272
 3610SOL    HW212838  10.446   2.169   1.351 -1.9042  0.3931  2.6181
 3611SOL     OW12839  10.814   5.525   7.872  0.6804 -0.2646 -0.4114
 3611SOL    HW112840  10.845   5.611   7.844 -0.5783 -0.3604 -2.3263
 3611SOL    HW212841  10.893   5.475   7.892  1.4094  1.8695  2.7160
 3612SOL     OW12842   1.047   3.969   3.196  0.1881  0.5974 -0.0621
 3612SOL    HW112843   1.137   3.994   3.217 -0.4162  0.8318  2.4831
 3612SOL    HW212844   1.012   4.044   3.147  1.6282  0.0737 -2.0265
 3613SOL     OW12845   9.242   6.821   5.937 -0.3418  0.7566 -0.0169
 3613SOL    HW112846   9.322   6.841   5.985  0.1710 -1.2442  0.0441
 3613SOL    HW212847   9.266   6.829   5.845 -0.1499  0.4419  0.0058
 3614SOL     OW12848   7.204  11.051   6.941 -0.2220  0.8592  0.0448
 3614SOL    HW112849   7.167  10.967   6.912 -0.9906  1.1240  0.2265
 3614SOL    HW212850   7.216  11.101   6.861  2.4975 -0.2755 -0.3323
 3615SOL     OW12851   1.791   7.495   7.465  0.1020 -0.3562  0.0650
 3615SOL    HW112852   1.859   7.440   7.504  0.7785  0.5354  0.1775
 3615SOL    HW212853   1.805   7.581   7.503  0.3662  0.3983 -1.6372
 3616SOL     OW12854   2.952   4.541   8.664  0.2455 -0.0225  0.5139
 3616SOL    HW112855   2.867   4.552   8.621  0.4338 -0.2984  0.0622
 3616SOL    HW212856   2.973   4.628   8.697  0.4296  0.3733 -0.5861
 3617SOL     OW12857   8.917   2.755   5.384 -0.7492  0.9389 -0.2038
 3617SOL    HW112858   8.888   2.759   5.293 -0.8150  0.8231 -0.1884
 3617SOL    HW212859   8.996   2.809   5.387  0.6845 -1.0106 -0.8751
 3618SOL     OW12860   3.495   8.583   9.959 -0.3636 -0.6867  0.1325
 3618SOL    HW112861   3.588   8.605   9.956 -0.3102 -0.9039  0.1442
 3618SOL    HW212862   3.479   8.564  10.052 -0.1020 -1.9756 -0.0669
 3619SOL     OW12863   0.870   7.547   5.494  0.1954 -0.0573  0.5504
 3619SOL    HW112864   0.797   7.564   5.434  0.5045  0.6080  0.3497
 3619SOL    HW212865   0.851   7.462   5.532 -0.7175  0.1370  0.5485
 3620SOL     OW12866   8.893   1.281   7.032 -0.7879  0.2593 -0.9207
 3620SOL    HW112867   8.919   1.372   7.021 -0.1906  0.1055 -0.8229
 3620SOL    HW212868   8.835   1.263   6.957  1.8537 -0.2812 -2.9707
 3621SOL     OW12869   9.310  10.324  10.375 -0.1574 -0.4776 -0.1222
 3621SOL    HW112870   9.243  10.256  10.367 -1.4810  0.8221 -0.6070
 3621SOL    HW212871   9.354  10.305  10.458 -1.7990 -0.8213  0.7250
 3622SOL     OW12872   8.456   6.625   2.144 -0.0901 -0.4234  0.0494
 3622SOL    HW112873   8.445   6.551   2.203 -1.5604 -0.7385 -0.5931
 3622SOL    HW212874   8.434   6.701   2.198 -0.0630 -0.5775  0.2841
 3623SOL     OW12875   4.686   8.242   6.195  0.3119  0.2176 -0.1579
 3623SOL    HW112876   4.597   8.267   6.217  0.6759  1.1801  0.2580
 3623SOL    HW212877   4.738   8.320   6.211  1.1150 -0.0776 -1.1836
 3624SOL     OW12878   2.758   4.832  10.196  0.7183  0.1280 -0.2233
 3624SOL    HW112879   2.750   4.916  10.151 -0.1564  0.2193  0.0853
 3624SOL    HW212880   2.749   4.855  10.289  1.5520 -0.1752 -0.0648
 3625SOL     OW12881  10.929   5.543   8.326  0.2060  0.0890 -0.3210
 3625SOL    HW112882  10.897   5.458   8.296 -2.7902  0.9577  0.1253
 3625SOL    HW212883  10.964   5.527   8.413  0.7293 -0.8637 -0.6933
 3626SOL     OW12884  10.349   2.085   5.325 -0.5382 -0.2915 -0.3898
 3626SOL    HW112885  10.385   2.067   5.239  0.6461 -1.4340  0.3091
 3626SOL    HW212886  10.333   1.999   5.363 -0.1460  0.1750  0.8908
 3627SOL     OW12887   9.363   1.828   6.032 -0.4067  0.4043 -0.7668
 3627SOL    HW112888   9.283   1.880   6.044 -0.3362  0.1166  1.4457
 3627SOL    HW212889   9.339   1.741   6.064  0.9449  0.4933  0.6113
 3628SOL     OW12890   4.601   5.613   1.713 -0.3431 -0.1974 -0.3730
 3628SOL    HW112891   4.570   5.642   1.798 -1.0607  2.5230 -1.4636
 3628SOL    HW212892   4.525   5.572   1.671  0.3415 -2.7460  0.6830
 3629SOL     OW12893   8.398   5.030   6.445  0.7186  0.3298  0.3864
 3629SOL    HW112894   8.400   5.051   6.538  1.2885  2.1826 -0.0081
 3629SOL    HW212895   8.434   4.941   6.440  0.1671 -0.0111  1.9658
 3630SOL     OW12896   0.375   5.641   9.935 -0.0272 -0.0502  0.2415
 3630SOL    HW112897   0.298   5.697   9.943  0.0695  0.2095 -0.5549
 3630SOL    HW212898   0.449   5.701   9.948  0.0435 -0.3783  1.4469
 3631SOL     OW12899   4.554   4.840   1.604  0.0236 -0.0158  0.2584
 3631SOL    HW112900   4.613   4.913   1.624 -2.4829  2.1967  0.0880
 3631SOL    HW212901   4.592   4.799   1.526  1.1460  1.5010 -0.0390
 3632SOL     OW12902   3.406   3.088   4.666 -0.6417  0.0893  0.5671
 3632SOL    HW112903   3.315   3.115   4.676 -0.8418  0.0064 -0.7787
 3632SOL    HW212904   3.407   2.996   4.692 -0.8222  0.2528  1.1454
 3633SOL     OW12905   5.517   6.916   7.985  0.0765  0.2087 -0.6754
 3633SOL    HW112906   5.477   6.910   7.898 -0.5161  0.6983 -0.4452
 3633SOL    HW212907   5.549   6.827   8.002 -0.5373 -0.0978 -1.0479
 3634SOL     OW12908   8.455   6.833   9.390  0.2142 -0.4595 -0.1190
 3634SOL    HW112909   8.480   6.743   9.409  1.8802  0.0049 -0.0159
 3634SOL    HW212910   8.522   6.887   9.431  0.5348  0.7678 -2.1023
 3635SOL     OW12911   5.946   3.246   8.268 -0.1832 -0.2307  0.3911
 3635SOL    HW112912   6.018   3.297   8.304 -0.4706 -0.2390  0.9956
 3635SOL    HW212913   5.877   3.310   8.251 -0.3382 -0.3352  0.6144
 3636SOL     OW12914   1.942   0.642   7.102 -0.7020  0.0929 -0.2886
 3636SOL    HW112915   2.022   0.599   7.132 -0.2132  1.3322  0.2137
 3636SOL    HW212916   1.910   0.690   7.178 -2.0113 -0.4771 -0.4452
 3637SOL     OW12917   1.187  10.716   7.562  0.8050  0.1637 -0.3645
 3637SOL    HW112918   1.242  10.715   7.641 -1.1644  0.5604  1.0869
 3637SOL    HW212919   1.121  10.649   7.577  1.0629 -0.5606 -2.2351
 3638SOL     OW12920   5.931   6.614   9.575  0.5194  0.1859 -0.0732
 3638SOL    HW112921   5.987   6.692   9.572  1.9286 -0.8315 -1.6992
 3638SOL    HW212922   5.926   6.584   9.484 -2.4224 -0.0069  0.0360
 3639SOL     OW12923   8.942   0.271   5.705 -0.0576 -0.2395  0.1970
 3639SOL    HW112924   8.953   0.326   5.782 -0.8587 -1.0756  0.9372
 3639SOL    HW212925   9.030   0.240   5.685  0.1321 -0.1940  0.9163
 3640SOL     OW12926   3.175   7.627   2.976 -0.3279  0.3357 -0.6924
 3640SOL    HW112927   3.203   7.598   3.063  0.2201  0.0459 -0.9594
 3640SOL    HW212928   3.103   7.569   2.954 -0.2009  0.1407 -0.6010
 3641SOL     OW12929   3.716   3.302   0.330  0.1414  0.0325  0.1385
 3641SOL    HW112930   3.646   3.254   0.375  1.1601 -0.1161  1.6477
 3641SOL    HW212931   3.737   3.374   0.390  2.5667 -1.0310  0.6967
 3642SOL     OW12932   1.146   8.682   0.002 -0.4544 -0.2189 -0.2651
 3642SOL    HW112933   1.206   8.746   0.038  0.7535 -1.9300  0.9218
 3642SOL    HW212934   1.168   8.600   0.046 -3.0647 -1.1219 -0.4472
 3643SOL     OW12935   0.417   6.772   4.081  0.0953  0.1195  0.0880
 3643SOL    HW112936   0.374   6.686   4.077  0.7406 -0.1740 -1.2640
 3643SOL    HW212937   0.349   6.832   4.110 -0.7207 -0.6478 -0.2039
 3644SOL     OW12938   0.858   3.603   0.954  0.1499 -0.5176 -0.5607
 3644SOL    HW112939   0.806   3.527   0.978  1.2241 -1.2150 -0.3835
 3644SOL    HW212940   0.944   3.567   0.929  0.1301  0.4720 -2.1920
 3645SOL     OW12941   7.167   3.244   1.859  0.3922  0.5607  0.0562
 3645SOL    HW112942   7.098   3.180   1.878  0.4144  0.4201 -0.3197
 3645SOL    HW212943   7.173   3.297   1.938 -0.2993  0.7103  0.0205
 3646SOL     OW12944   9.940   3.712   5.599 -0.0345 -0.5850 -0.0661
 3646SOL    HW112945   9.872   3.647   5.617 -0.4974 -0.5740 -1.6248
 3646SOL    HW212946   9.932   3.775   5.670 -2.0288 -0.2844 -0.5008
 3647SOL     OW12947   7.452   9.367   9.617  0.0906 -0.0866  0.8623
 3647SOL    HW112948   7.533   9.398   9.576 -0.6332  0.3412 -0.3161
 3647SOL    HW212949   7.418   9.301   9.556 -2.1606  2.1423 -0.4848
 3648SOL     OW12950   9.313  10.205   6.170 -0.2366 -0.6051 -0.1524
 3648SOL    HW112951   9.394  10.164   6.200 -0.8105 -1.3874  0.3866
 3648SOL    HW212952   9.288  10.155   6.093  1.1005  1.2428 -1.8720
 3649SOL     OW12953   4.583   1.649   6.854 -0.1727  0.0364 -0.2980
 3649SOL    HW112954   4.574   1.666   6.947 -1.4770 -0.6430 -0.2782
 3649SOL    HW212955   4.611   1.557   6.849  0.0278  0.1115 -0.5709
 3650SOL     OW12956   1.184   3.146   9.922  0.1193  0.2585 -0.3418
 3650SOL    HW112957   1.168   3.087   9.996 -1.4922 -0.5597 -1.2853
 3650SOL    HW212958   1.147   3.230   9.950 -1.3642 -0.3038 -0.5673
 3651SOL     OW12959   3.039   0.989   8.167 -0.0531 -0.6082 -0.0657
 3651SOL    HW112960   3.084   0.993   8.252  0.5851 -0.9108 -0.3855
 3651SOL    HW212961   3.049   0.898   8.139 -4.2120 -1.8136  1.6415
 3652SOL     OW12962   3.392   9.377   9.431 -0.3540  0.0731 -0.1502
 3652SOL    HW112963   3.396   9.325   9.350  0.6778  0.1190 -0.1489
 3652SOL    HW212964   3.440   9.324   9.495 -0.5377  0.3686  0.2326
 3653SOL     OW12965   2.534  10.587   8.436 -1.1553  0.0331 -0.1854
 3653SOL    HW112966   2.469  10.521   8.414  0.3055 -1.2861 -0.7912
 3653SOL    HW212967   2.487  10.651   8.490 -3.1374 -0.3566 -1.3459
 3654SOL     OW12968  10.237   4.127   3.233  0.2252 -0.2981  0.0896
 3654SOL    HW112969  10.259   4.217   3.208 -1.2542 -0.3601 -1.7469
 3654SOL    HW212970  10.308   4.074   3.198 -0.3942 -0.0825 -1.6230
 3655SOL     OW12971   0.083   4.349   3.750 -0.4720 -0.4867 -0.1407
 3655SOL    HW112972   0.142   4.291   3.799 -0.5727  0.2294  0.8693
 3655SOL    HW212973   0.127   4.434   3.753 -0.4373 -0.4536 -1.4083
 3656SOL     OW12974   7.321   2.387   9.764 -0.1509 -0.0703 -0.3795
 3656SOL    HW112975   7.408   2.396   9.726 -0.5069  1.8658 -0.8758
 3656SOL    HW212976   7.265   2.362   9.690 -0.2741  0.3295 -0.4260
 3657SOL     OW12977   2.240   1.010   6.314 -0.4124 -0.4523 -0.1619
 3657SOL    HW112978   2.232   1.097   6.274 -2.5519 -1.6462 -2.6520
 3657SOL    HW212979   2.162   1.002   6.369 -0.4805 -0.9787 -0.3319
 3658SOL     OW12980   8.581   0.220   2.612  0.2518 -0.4057  0.4351
 3658SOL    HW112981   8.540   0.243   2.529  0.6622 -1.3463 -0.0435
 3658SOL    HW212982   8.668   0.188   2.588  0.0303 -1.5916  1.1366
 3659SOL     OW12983   5.789   4.606   9.796 -0.5332 -0.5094  0.3464
 3659SOL    HW112984   5.730   4.596   9.871 -0.5403 -0.1217  0.3949
 3659SOL    HW212985   5.739   4.573   9.721 -0.4221 -1.1665  0.5552
 3660SOL     OW12986   4.950   6.272   9.841  0.9054  0.2740 -0.1810
 3660SOL    HW112987   4.945   6.232   9.754 -1.6317  1.0576 -0.4698
 3660SOL    HW212988   4.899   6.214   9.897 -0.4098  1.5399 -0.0033
 3661SOL     OW12989   9.658   6.126   1.626  0.1369 -0.2812  0.3441
 3661SOL    HW112990   9.685   6.057   1.564  0.0042 -2.6262  2.7104
 3661SOL    HW212991   9.565   6.110   1.641 -0.2271  1.3008 -0.0167
 3662SOL     OW12992   6.584   4.168   2.178 -0.3588  0.1799 -0.1745
 3662SOL    HW112993   6.568   4.205   2.091  0.0160 -1.7185 -1.0960
 3662SOL    HW212994   6.679   4.159   2.183 -0.5039 -2.2880 -0.7456
 3663SOL     OW12995  11.093   5.171   0.445  0.0174  0.2616  0.1006
 3663SOL    HW112996  11.166   5.110   0.455 -0.0043  0.2957  0.4752
 3663SOL    HW212997  11.072   5.198   0.534 -0.3876  0.3277 -0.0122
 3664SOL     OW12998  10.740   8.103  10.955  0.2652  0.3299  0.4585
 3664SOL    HW112999  10.736   8.198  10.965  1.4581  0.2531  1.9353
 3664SOL    HW213000  10.820   8.077  11.000  1.1247 -1.1685 -1.7970
 3665SOL     OW13001   9.584   5.999  10.208 -0.4038 -0.5221 -0.0187
 3665SOL    HW113002   9.638   5.921  10.218 -0.6289 -0.7015 -0.1911
 3665SOL    HW213003   9.504   5.980  10.257  0.6096  0.6620  2.2141
 3666SOL     OW13004   9.420   6.368   0.714  0.0725  0.6939  0.3032
 3666SOL    HW113005   9.389   6.277   0.710 -0.0604  0.6054  2.2917
 3666SOL    HW213006   9.389   6.408   0.632 -0.7733 -0.7611 -0.1232
 3667SOL     OW13007   6.257   6.534   0.418  0.1247  0.2226  0.2729
 3667SOL    HW113008   6.239   6.482   0.339  0.0200 -1.5086  1.3780
 3667SOL    HW213009   6.351   6.551   0.413 -0.1164  1.4186 -0.9307
 3668SOL     OW13010   0.875   1.833  10.342  0.0794  0.0383  0.1963
 3668SOL    HW113011   0.881   1.788  10.426  0.6296  1.2882  0.8570
 3668SOL    HW213012   0.949   1.799  10.291  0.9406  0.7395  0.9627
 3669SOL     OW13013   8.092   0.028   2.830  0.4519 -0.5483 -0.3120
 3669SOL    HW113014   8.126   0.032   2.919  0.8870 -0.2773 -0.4902
 3669SOL    HW213015   8.036  -0.049   2.830 -0.4510  0.0773  0.5093
 3670SOL     OW13016   6.842   5.577   9.238 -0.2036  0.0373 -0.1081
 3670SOL    HW113017   6.927   5.540   9.211 -1.1171 -3.2912  1.0960
 3670SOL    HW213018   6.805   5.511   9.296 -2.2448  2.8716  2.0563
 3671SOL     OW13019   8.786   0.350   1.095  0.0570 -0.4108 -0.3830
 3671SOL    HW113020   8.828   0.292   1.032  0.5307 -0.1120 -0.3492
 3671SOL    HW213021   8.692   0.337   1.082  0.1303 -2.1254  0.4682
 3672SOL     OW13022   4.648   6.223   7.979  0.5926  0.8763 -0.3024
 3672SOL    HW113023   4.583   6.294   7.979 -0.9674 -0.4627 -1.7567
 3672SOL    HW213024   4.682   6.222   7.890  1.5121  0.5724  0.0423
 3673SOL     OW13025   8.270   4.134  10.191 -0.2693  0.4144  0.3035
 3673SOL    HW113026   8.253   4.175  10.276  0.0746 -0.6737  0.9095
 3673SOL    HW213027   8.189   4.149  10.142 -0.8920  0.1421  1.2015
 3674SOL     OW13028   1.999   5.200   1.217 -0.4082  0.2799  0.2719
 3674SOL    HW113029   1.943   5.163   1.148  0.3215 -1.8108  0.7166
 3674SOL    HW213030   1.962   5.166   1.298 -0.8461  2.1623  0.8912
 3675SOL     OW13031   9.068   5.114   4.628  0.1120  0.0083 -0.1157
 3675SOL    HW113032   9.034   5.064   4.702 -0.0381  0.3187  0.0289
 3675SOL    HW213033   9.139   5.166   4.665 -0.4945  0.7822  0.0022
 3676SOL     OW13034   9.842   9.471   8.399  0.2096  0.5060 -0.1653
 3676SOL    HW113035   9.863   9.506   8.313  0.1794 -1.1201 -0.8661
 3676SOL    HW213036   9.866   9.541   8.460  3.0318  0.5923 -1.2635
 3677SOL     OW13037   9.826  10.885   3.368  0.0694  0.5994 -0.5646
 3677SOL    HW113038   9.883  10.856   3.297 -0.7767 -1.5511 -0.4550
 3677SOL    HW213039   9.743  10.905   3.324 -0.4440 -0.6967 -0.2230
 3678SOL     OW13040   6.503   5.561   1.319 -0.2622  0.2153  0.0228
 3678SOL    HW113041   6.446   5.507   1.373 -0.2185  0.7115  0.5766
 3678SOL    HW213042   6.469   5.650   1.328  1.1031  0.6620  1.0660
 3679SOL     OW13043  10.123   0.456   9.538  0.4732 -0.4292 -0.6815
 3679SOL    HW113044  10.135   0.496   9.624  1.1283 -3.1473  0.6199
 3679SOL    HW213045  10.208   0.467   9.494  0.9367 -1.1163  0.0139
 3680SOL     OW13046   0.256   6.271  10.037  0.2155 -0.4919 -0.2573
 3680SOL    HW113047   0.313   6.312  10.102  2.2332 -3.0326 -0.3148
 3680SOL    HW213048   0.187   6.230  10.088  1.3210 -1.7485  0.2799
 3681SOL     OW13049  10.558   5.089   7.661  0.1201  0.0434 -0.3610
 3681SOL    HW113050  10.652   5.106   7.656  0.5290 -2.0481 -0.7141
 3681SOL    HW213051  10.531   5.071   7.571 -1.1130  2.5912 -0.6141
 3682SOL     OW13052   8.540   3.898   1.190  0.2316  0.8707 -0.5711
 3682SOL    HW113053   8.525   3.910   1.284  2.2085  1.2072 -0.2573
 3682SOL    HW213054   8.469   3.946   1.149 -1.1071  0.1084  0.7296
 3683SOL     OW13055   9.087   1.176   4.523 -0.4716  0.5575  0.7098
 3683SOL    HW113056   9.004   1.167   4.569 -1.0420  1.9198  0.0066
 3683SOL    HW213057   9.074   1.129   4.440 -0.3683  0.3505  0.8112
 3684SOL     OW13058   8.581   7.155   8.827 -0.5212  0.2677  0.1961
 3684SOL    HW113059   8.515   7.186   8.889 -0.9746 -0.2379 -0.0246
 3684SOL    HW213060   8.604   7.233   8.776 -1.2583  0.3636 -0.0034
 3685SOL     OW13061   0.339   3.821   1.095  0.1457  0.5229  0.3550
 3685SOL    HW113062   0.269   3.817   1.030  0.4031  1.0931  0.0345
 3685SOL    HW213063   0.419   3.815   1.044  0.3381 -0.2356  0.7307
 3686SOL     OW13064   1.207   8.663   1.859  0.5011  0.9149 -0.5434
 3686SOL    HW113065   1.204   8.753   1.828  1.1570  0.1020 -3.2019
 3686SOL    HW213066   1.128   8.622   1.823  0.8713  0.1167 -0.4828
 3687SOL     OW13067  10.690  10.615   7.953 -0.2983 -0.1388 -0.0028
 3687SOL    HW113068  10.692  10.656   8.039  0.6751 -1.7671  0.8058
 3687SOL    HW213069  10.627  10.543   7.961  0.2226 -0.6656 -0.4512
 3688SOL     OW13070   8.930   7.668   9.112 -0.4895 -0.3294 -0.3258
 3688SOL    HW113071   8.962   7.599   9.054 -1.8428 -0.2621 -1.1779
 3688SOL    HW213072   8.913   7.742   9.055 -3.3829 -0.7749 -0.1666
 3689SOL     OW13073   4.434   3.937  10.927 -0.2971 -0.8574 -0.0794
 3689SOL    HW113074   4.365   3.921  10.863  0.6792  0.1209 -1.4437
 3689SOL    HW213075   4.515   3.927  10.877  0.4923  0.4287  0.8832
 3690SOL     OW13076   1.615   4.719   4.537  0.2567  0.0965 -0.2699
 3690SOL    HW113077   1.649   4.807   4.522 -0.1135  0.5052  1.1743
 3690SOL    HW213078   1.689   4.669   4.569  0.4378 -0.1066 -0.9772
 3691SOL     OW13079   4.304   3.191   1.590 -0.4380 -0.5856  0.5402
 3691SOL    HW113080   4.297   3.151   1.504  1.2183 -0.3944  0.2800
 3691SOL    HW213081   4.398   3.195   1.607 -0.5234  2.4303  0.8805
 3692SOL     OW13082   8.626   8.668   3.949 -0.0933 -0.2628  0.1723
 3692SOL    HW113083   8.578   8.586   3.936 -2.5069  1.2595 -1.5244
 3692SOL    HW213084   8.653   8.694   3.860  1.0379  0.5588  0.7314
 3693SOL     OW13085   6.130   4.949   9.241  0.1219 -0.4834 -0.4010
 3693SOL    HW113086   6.191   4.924   9.172 -0.2546 -0.8173 -0.6175
 3693SOL    HW213087   6.132   4.876   9.303 -0.2513 -0.6162 -0.5432
 3694SOL     OW13088   8.502   6.745   8.127 -0.2140 -0.1517 -0.6576
 3694SOL    HW113089   8.534   6.661   8.094  0.1699 -0.9815  1.6734
 3694SOL    HW213090   8.567   6.772   8.191 -2.4324 -0.2637  1.7978
 3695SOL     OW13091   5.699   3.856   2.672  0.0332 -0.3816 -0.3521
 3695SOL    HW113092   5.670   3.856   2.581  1.5716  0.3239 -0.8734
 3695SOL    HW213093   5.749   3.937   2.682 -0.8467 -0.0070  1.3828
 3696SOL     OW13094   4.457   0.143   5.922 -0.0143  0.2008 -0.1913
 3696SOL    HW113095   4.472   0.052   5.949  1.1525  0.5815  0.5487
 3696SOL    HW213096   4.363   0.155   5.928  0.0215 -0.1067  2.7002
 3697SOL     OW13097   1.906   1.747   2.685  0.5071 -0.4420  0.5544
 3697SOL    HW113098   1.976   1.723   2.745 -0.8457  0.1365  2.4725
 3697SOL    HW213099   1.847   1.802   2.737 -1.2666 -0.7314 -1.0149
 3698SOL     OW13100  10.513   2.795   6.131 -0.0979 -0.1424 -0.3554
 3698SOL    HW113101  10.458   2.736   6.181  0.3788  1.3199  2.0494
 3698SOL    HW213102  10.470   2.881   6.139  1.9582  0.8536  0.8423
 3699SOL     OW13103   3.242   1.225  10.390  0.5131 -0.1444 -0.1125
 3699SOL    HW113104   3.201   1.146  10.427 -0.5447 -0.0431 -1.0290
 3699SOL    HW213105   3.327   1.230  10.434 -0.7944  0.1828  2.5993
 3700SOL     OW13106   1.815   2.823   8.180  0.0179 -0.5775  0.0260
 3700SOL    HW113107   1.879   2.759   8.211 -0.9309 -1.7325 -0.3244
 3700SOL    HW213108   1.745   2.770   8.142  0.9152  0.6805 -3.8184
 3701SOL     OW13109   8.005   7.368   2.305 -0.3112  0.2921 -0.2557
 3701SOL    HW113110   8.030   7.460   2.302 -0.6344  0.3540 -1.5195
 3701SOL    HW213111   8.014   7.337   2.215 -0.5283 -0.8269  0.0900
 3702SOL     OW13112   3.427  10.946   7.097  0.3403  0.1688  0.0152
 3702SOL    HW113113   3.357  10.881   7.101 -0.4777  0.4549 -4.2608
 3702SOL    HW213114   3.499  10.900   7.053  0.6853  1.4117 -0.7695
 3703SOL     OW13115   9.544   4.233   6.849  0.2961  0.0890  0.4628
 3703SOL    HW113116   9.555   4.138   6.849 -1.7787 -0.2160  1.9300
 3703SOL    HW213117   9.454   4.247   6.818  0.2979  1.5292  1.0347
 3704SOL     OW13118   4.734   6.773   2.440 -0.2944 -0.4873 -0.2449
 3704SOL    HW113119   4.758   6.744   2.529  1.9931  0.4557 -0.4886
 3704SOL    HW213120   4.818   6.788   2.397 -1.3767  1.2813 -1.8446
 3705SOL     OW13121   0.642   6.731   4.457  0.1560 -0.0594 -0.1389
 3705SOL    HW113122   0.676   6.647   4.488  2.0095  0.2280 -1.2482
 3705SOL    HW213123   0.695   6.797   4.501  1.9436  0.3798 -2.7287
 3706SOL     OW13124   0.546   4.235   0.369  0.5175  0.1774 -0.0905
 3706SOL    HW113125   0.489   4.208   0.441  1.6194  1.3344  1.2988
 3706SOL    HW213126   0.627   4.263   0.412  1.6013 -0.0454 -1.8789
 3707SOL     OW13127   9.479   0.221   7.837 -0.1433  0.1804 -0.4082
 3707SOL    HW113128   9.522   0.305   7.855 -0.2055 -0.4168  3.2592
 3707SOL    HW213129   9.479   0.176   7.921 -2.5353 -2.4045 -1.6557
 3708SOL     OW13130   2.578   5.650   8.664  0.0577 -0.0344 -0.4981
 3708SOL    HW113131   2.649   5.598   8.702  0.3003  0.6997  0.0921
 3708SOL    HW213132   2.588   5.736   8.705 -2.3492 -0.4250  1.1119
 3709SOL     OW13133   1.410   2.408   1.515  0.2105 -0.2720 -0.0622
 3709SOL    HW113134   1.326   2.454   1.515  1.0465  1.3818 -1.0616
 3709SOL    HW213135   1.442   2.417   1.425  1.7867 -0.1880  0.4732
 3710SOL     OW13136   8.897   5.226   9.006 -0.8016 -0.8606  0.4313
 3710SOL    HW113137   8.831   5.247   9.073 -0.4071 -0.1313  0.6115
 3710SOL    HW213138   8.860   5.154   8.956 -1.4555 -0.8787  0.9392
 3711SOL     OW13139  10.765   6.351   6.668  0.1517  0.2965 -0.0723
 3711SOL    HW113140  10.789   6.400   6.589 -0.3667  0.8284  0.0894
 3711SOL    HW213141  10.848   6.335   6.713  0.3103  1.3168  0.0284
 3712SOL     OW13142   0.399   0.803   7.636  0.2727 -0.7379  0.6970
 3712SOL    HW113143   0.486   0.842   7.633  0.1667 -0.5331  0.1625
 3712SOL    HW213144   0.414   0.710   7.620  0.4019 -0.7152  0.6853
 3713SOL     OW13145   6.630   5.838   6.238 -0.3592  0.4196 -0.1657
 3713SOL    HW113146   6.723   5.815   6.244 -0.6786 -1.2933 -1.2728
 3713SOL    HW213147   6.585   5.766   6.283 -1.2488  0.2394 -1.3230
 3714SOL     OW13148   1.394   1.462   2.984  0.1764  0.0910  0.0555
 3714SOL    HW113149   1.411   1.444   3.076  1.6605  3.1478  0.5201
 3714SOL    HW213150   1.475   1.503   2.952  0.1769 -1.9454 -3.0031
 3715SOL     OW13151   4.419   9.620   6.736 -0.5673  0.5887 -0.2577
 3715SOL    HW113152   4.329   9.651   6.724 -0.5054  0.4847 -1.0647
 3715SOL    HW213153   4.472   9.700   6.733 -0.7086  0.7716  1.3015
 3716SOL     OW13154   6.551   9.262   9.470  0.1601  0.2780 -0.0695
 3716SOL    HW113155   6.547   9.208   9.392  0.4610 -0.9100  0.7069
 3716SOL    HW213156   6.626   9.229   9.519 -1.4093 -0.6704  1.8651
 3717SOL     OW13157   2.208   0.010   5.102 -0.2351 -0.5811 -0.0581
 3717SOL    HW113158   2.215   0.105   5.111 -0.4918 -0.5496 -0.1918
 3717SOL    HW213159   2.271  -0.013   5.034  0.5852 -0.6335  0.6919
 3718SOL     OW13160   1.212   9.591   4.042  0.3672  0.2120 -0.0019
 3718SOL    HW113161   1.143   9.624   3.984  0.4878 -0.6850 -0.6811
 3718SOL    HW213162   1.197   9.497   4.045  1.5441  0.0068 -0.1350
 3719SOL     OW13163   9.124   2.728   7.277 -0.6273  0.2192  0.0304
 3719SOL    HW113164   9.197   2.707   7.220 -1.2153  0.0356 -0.6754
 3719SOL    HW213165   9.127   2.661   7.346 -0.3760 -0.0364 -0.2243
 3720SOL     OW13166   3.461   1.702   7.130 -0.6582  0.3480 -0.2830
 3720SOL    HW113167   3.476   1.661   7.046 -1.5717 -0.6217  0.0112
 3720SOL    HW213168   3.513   1.650   7.192 -1.6829 -0.2916  0.0628
 3721SOL     OW13169   2.396   0.887   1.718  0.1426 -0.0985 -0.1318
 3721SOL    HW113170   2.353   0.931   1.792  0.5129  2.0670 -1.1346
 3721SOL    HW213171   2.487   0.915   1.723  0.1102  0.3114 -1.5731
 3722SOL     OW13172   2.040   5.060   0.550 -0.5615 -0.7655  0.4941
 3722SOL    HW113173   1.949   5.056   0.520 -0.3234  1.6940 -0.8470
 3722SOL    HW213174   2.062   5.153   0.546  1.4359 -1.0492  2.6975
 3723SOL     OW13175   8.565   6.895  10.775 -0.1071 -0.1293 -0.4769
 3723SOL    HW113176   8.587   6.981  10.741  1.7943 -0.1384  0.5679
 3723SOL    HW213177   8.482   6.907  10.819  1.6459  2.1066  2.6102
 3724SOL     OW13178   5.418   4.578   7.310 -0.6114  0.1358 -0.6237
 3724SOL    HW113179   5.360   4.609   7.380 -0.3751 -0.9650  0.0946
 3724SOL    HW213180   5.501   4.621   7.327 -0.1508 -1.1761  0.6451
 3725SOL     OW13181   2.018   5.207   1.911  0.3049 -0.0400  0.3497
 3725SOL    HW113182   2.006   5.237   1.820 -0.0101  0.4530  0.5477
 3725SOL    HW213183   1.987   5.117   1.911 -0.8771  0.3523  0.2422
 3726SOL     OW13184   2.908   2.486  10.772 -0.3660  0.2048 -0.0470
 3726SOL    HW113185   2.909   2.449  10.860  0.3825  2.3686  0.9028
 3726SOL    HW213186   3.000   2.489  10.746 -0.5276  0.2162 -0.6459
 3727SOL     OW13187   8.852   4.211   3.535  0.0063 -0.2283 -0.5947
 3727SOL    HW113188   8.908   4.289   3.535 -0.6777  0.2878  0.4371
 3727SOL    HW213189   8.903   4.146   3.584 -0.4864  0.4170  0.8398
 3728SOL     OW13190   5.929   7.058  10.581  0.1238  0.5177  0.2749
 3728SOL    HW113191   5.966   7.076  10.494  0.4324 -0.2737  0.2301
 3728SOL    HW213192   5.848   7.011  10.563 -0.4525  1.4516  0.3947
 3729SOL     OW13193   9.153   5.712   1.847  0.1507 -0.0726 -0.6538
 3729SOL    HW113194   9.092   5.662   1.902 -0.5220  0.8637 -0.5329
 3729SOL    HW213195   9.227   5.652   1.833  0.3768 -0.3415  1.3210
 3730SOL     OW13196  10.701   9.407   5.723  0.1183 -0.1612  0.1929
 3730SOL    HW113197  10.677   9.459   5.646 -2.4657 -0.7313  0.5228
 3730SOL    HW213198  10.705   9.317   5.691  2.4735 -0.0830  0.0735
 3731SOL     OW13199   8.747   5.708   7.518 -0.0921  0.0201 -0.3777
 3731SOL    HW113200   8.678   5.688   7.455 -0.2594 -0.4795 -0.0403
 3731SOL    HW213201   8.812   5.639   7.505 -0.0177  0.0497 -0.1587
 3732SOL     OW13202   0.573   1.264   8.203 -0.3659 -0.3409  0.1463
 3732SOL    HW113203   0.593   1.323   8.130 -0.4226  0.0190  0.4186
 3732SOL    HW213204   0.563   1.322   8.279  0.4382 -0.7769  0.5940
 3733SOL     OW13205   9.598   4.203   1.331 -0.5591 -0.3261  0.5216
 3733SOL    HW113206   9.556   4.268   1.389  0.9088  2.6795 -1.5482
 3733SOL    HW213207   9.555   4.216   1.247 -0.3391 -2.2523  0.0874
 3734SOL     OW13208   8.749   4.130   4.057 -0.0542  0.4481 -0.5875
 3734SOL    HW113209   8.671   4.184   4.043  1.4459  2.8302 -0.1027
 3734SOL    HW213210   8.803   4.144   3.979  0.2073 -0.7147 -0.6400
 3735SOL     OW13211   2.861   9.833   5.330  0.3969 -0.3558 -0.3376
 3735SOL    HW113212   2.805   9.839   5.407  0.4156 -0.7372 -0.2928
 3735SOL    HW213213   2.835   9.907   5.276  0.7563  0.2273  0.2810
 3736SOL     OW13214   5.880   8.349   8.626  0.2163  0.2333  0.5396
 3736SOL    HW113215   5.813   8.386   8.569  1.8464 -0.8673 -2.3470
 3736SOL    HW213216   5.853   8.258   8.639  0.7824 -0.0462 -0.1348
 3737SOL     OW13217   3.212   4.732   2.648 -0.2420  0.2382 -0.1298
 3737SOL    HW113218   3.135   4.775   2.685 -0.9582  1.4228 -2.7295
 3737SOL    HW213219   3.286   4.787   2.672 -0.6990  1.0131 -0.4524
 3738SOL     OW13220   8.330  10.895   6.846 -0.9224 -0.0192 -0.2270
 3738SOL    HW113221   8.283  10.928   6.923 -0.1707  0.6003 -0.0194
 3738SOL    HW213222   8.356  10.806   6.870 -0.2676  0.3388  0.4453
 3739SOL     OW13223   0.222   5.670   0.750 -0.3900  0.1655 -0.2758
 3739SOL    HW113224   0.133   5.684   0.782 -0.4973  0.7491 -0.8029
 3739SOL    HW213225   0.234   5.738   0.684  1.1218  1.2742  1.0966
 3740SOL     OW13226   5.972   1.797   0.406  0.3704  0.4073 -0.6146
 3740SOL    HW113227   5.950   1.890   0.402  0.6749  0.5773  0.9066
 3740SOL    HW213228   5.933   1.767   0.488  1.4721 -0.4716 -0.3876
 3741SOL     OW13229   8.107   6.088   6.703 -0.2269  0.3149 -0.4093
 3741SOL    HW113230   8.190   6.041   6.704 -0.9805 -1.0680 -0.6421
 3741SOL    HW213231   8.090   6.109   6.795 -0.7385 -1.4739 -0.0617
 3742SOL     OW13232   2.073   3.562   6.792  0.2041 -0.4633  0.1219
 3742SOL    HW113233   2.059   3.636   6.850  1.7985 -0.4743  0.5514
 3742SOL    HW213234   2.007   3.498   6.819 -0.9402  0.6126 -0.0041
 3743SOL     OW13235   9.997   6.890   1.622 -0.5910 -0.4484 -0.7595
 3743SOL    HW113236   9.927   6.888   1.556 -2.0995 -2.8760  0.7741
 3743SOL    HW213237  10.058   6.822   1.593 -1.6433 -2.0677  0.6042
 3744SOL     OW13238   0.644  10.677   5.039 -0.3515 -0.0225 -0.5103
 3744SOL    HW113239   0.726  10.696   4.993  0.2875 -2.4478 -0.5193
 3744SOL    HW213240   0.660  10.703   5.130  1.3288 -2.5002 -0.0018
 3745SOL     OW13241   8.606   6.535   1.488  0.0799  0.7938 -0.3842
 3745SOL    HW113242   8.667   6.473   1.526  1.0542  0.1550 -2.8264
 3745SOL    HW213243   8.519   6.501   1.511  0.6091  0.2267  0.8407
 3746SOL     OW13244   2.000   6.986   0.017 -0.1158 -0.1207 -0.2991
 3746SOL    HW113245   1.966   6.899   0.037  0.6580 -0.0046  1.8337
 3746SOL    HW213246   2.056   7.008   0.092 -0.0566  2.0950 -0.9046
 3747SOL     OW13247   5.389   8.267   9.790  0.3317 -0.0542  0.5056
 3747SOL    HW113248   5.456   8.247   9.855 -0.7047 -0.3333  1.5278
 3747SOL    HW213249   5.309   8.281   9.842  0.0881  2.6797 -0.4649
 3748SOL     OW13250   9.270   5.675   4.450  0.5806 -0.3700  0.0109
 3748SOL    HW113251   9.308   5.639   4.369 -0.3743 -2.3382  0.3619
 3748SOL    HW213252   9.198   5.731   4.420  1.2836  0.2635 -0.5294
 3749SOL     OW13253   6.008   2.585   8.237  0.1498 -0.2463  0.7564
 3749SOL    HW113254   5.983   2.564   8.147  0.5577 -1.6134  0.9301
 3749SOL    HW213255   6.058   2.666   8.231 -2.7572  1.6124  0.1982
 3750SOL     OW13256   0.940   1.209   1.027  0.7857  0.4180  0.1237
 3750SOL    HW113257   0.881   1.269   0.982  1.5151  0.0224 -1.4174
 3750SOL    HW213258   0.913   1.214   1.119  0.4098  2.6049 -0.0400
 3751SOL     OW13259   0.194   7.031   1.217  0.1318  0.3265 -0.1027
 3751SOL    HW113260   0.139   6.964   1.257 -2.2557  1.9995 -0.4356
 3751SOL    HW213261   0.140   7.109   1.215  1.8281  1.5552 -2.3046
 3752SOL     OW13262   3.193   4.639   0.997  0.3254  0.4264 -0.0158
 3752SOL    HW113263   3.131   4.688   1.051 -0.5479  0.1389 -0.7415
 3752SOL    HW213264   3.156   4.642   0.908  0.3326 -1.3931 -0.1160
 3753SOL     OW13265   6.490   1.009  10.668  0.1541 -0.7209 -0.4830
 3753SOL    HW113266   6.559   1.069  10.698  0.3124 -0.1057 -1.9823
 3753SOL    HW213267   6.473   1.036  10.577 -2.5658 -0.4132  0.0501
 3754SOL     OW13268   5.432   2.333   2.423  0.3404  0.7227 -0.0652
 3754SOL    HW113269   5.342   2.317   2.395  0.8001 -0.9390 -0.7474
 3754SOL    HW213270   5.474   2.376   2.349 -0.2985  3.1757  0.9105
 3755SOL     OW13271   6.702   1.827   2.286 -0.1872  0.4642  0.1894
 3755SOL    HW113272   6.642   1.846   2.214  0.8768 -0.9346 -1.1271
 3755SOL    HW213273   6.753   1.908   2.296 -1.2711  1.1577  0.3540
 3756SOL     OW13274   3.803   2.189   7.822  0.8521 -0.6312  0.2564
 3756SOL    HW113275   3.752   2.246   7.879  0.9816 -1.4481  1.2221
 3756SOL    HW213276   3.765   2.201   7.735  0.2804  0.2078  0.6152
 3757SOL     OW13277   9.832   4.771   1.413  0.3930  0.4872  0.0872
 3757SOL    HW113278   9.815   4.835   1.483  1.5417  0.2367  0.6172
 3757SOL    HW213279   9.822   4.822   1.332  0.7886  1.2242  0.4863
 3758SOL     OW13280   5.548   6.404   0.860  0.4169 -0.3919  0.3522
 3758SOL    HW113281   5.614   6.348   0.902 -1.7641 -2.5603  1.1405
 3758SOL    HW213282   5.479   6.413   0.926 -0.7687  0.5320 -0.9567
 3759SOL     OW13283   1.936   6.119  10.621 -0.1121  0.3967 -0.1691
 3759SOL    HW113284   2.003   6.183  10.597  0.9514 -0.6470 -0.0640
 3759SOL    HW213285   1.896   6.154  10.700  0.6082  0.8108  0.0155
 3760SOL     OW13286   4.642  10.445   1.892  0.3184 -0.0743 -0.5139
 3760SOL    HW113287   4.734  10.470   1.898  0.3036 -0.0552 -0.3698
 3760SOL    HW213288   4.621  10.455   1.799  0.2878  0.5590 -0.4446
 3761SOL     OW13289   1.032   4.948   0.811 -1.1383 -0.1962  0.6954
 3761SOL    HW113290   1.076   5.033   0.798  0.9519 -1.1741  0.9559
 3761SOL    HW213291   1.046   4.901   0.729  0.9489 -1.6113  1.7759
 3762SOL     OW13292   1.049   5.117   9.246 -0.1988  0.6243 -0.2205
 3762SOL    HW113293   1.005   5.078   9.321  0.2285  1.0794  0.2816
 3762SOL    HW213294   1.142   5.114   9.269  0.0235 -0.0702 -1.1372
 3763SOL     OW13295   0.423   5.218   9.752 -0.0676 -0.2439  0.3145
 3763SOL    HW113296   0.456   5.305   9.772 -0.6647  0.3681 -1.2062
 3763SOL    HW213297   0.335   5.233   9.715 -0.2050 -1.4761  0.0855
 3764SOL     OW13298   2.467   4.146   8.477 -0.2375  0.1790 -0.0436
 3764SOL    HW113299   2.449   4.119   8.388 -0.3265  0.1957 -0.0308
 3764SOL    HW213300   2.380   4.155   8.518 -0.1787 -0.3758  0.2082
 3765SOL     OW13301   8.110   4.013   2.248 -0.0878  0.2048 -0.5458
 3765SOL    HW113302   8.126   4.082   2.184 -1.8079 -0.9759 -2.3411
 3765SOL    HW213303   8.045   4.051   2.308  0.0858  0.6476 -0.6348
 3766SOL     OW13304   4.096   3.110   2.454  0.1043  0.1065 -0.2481
 3766SOL    HW113305   4.083   3.160   2.534 -3.6069 -2.6917  1.2145
 3766SOL    HW213306   4.163   3.045   2.476 -0.0348  0.1129  0.2010
 3767SOL     OW13307   3.379  10.306  11.070 -0.1414 -0.0650  0.2184
 3767SOL    HW113308   3.459  10.299  11.018 -0.1335  0.3782  0.1606
 3767SOL    HW213309   3.311  10.269  11.014  0.2101 -1.5766  0.7483
 3768SOL     OW13310   1.459   1.899   9.275  1.1314  0.1515  0.3965
 3768SOL    HW113311   1.523   1.956   9.318 -0.0598 -0.1194  2.6624
 3768SOL    HW213312   1.419   1.850   9.346 -2.5634  1.2486 -0.6828
 3769SOL     OW13313   9.195   7.908   8.513  0.1385 -0.1319 -0.6781
 3769SOL    HW113314   9.279   7.864   8.509  0.1601 -0.2528  0.6363
 3769SOL    HW213315   9.209   7.981   8.573  0.0839  1.6846 -2.7414
 3770SOL     OW13316   3.419   1.253   1.966 -0.0407  0.3648 -0.1224
 3770SOL    HW113317   3.364   1.330   1.981  0.6194  0.5330  1.6886
 3770SOL    HW213318   3.500   1.287   1.928 -0.0640  0.4569 -0.0884
 3771SOL     OW13319   1.907  10.743   5.859 -0.3075  0.5671  0.2036
 3771SOL    HW113320   1.968  10.798   5.908 -0.0414 -0.2380  0.7939
 3771SOL    HW213321   1.873  10.682   5.923 -0.7680  0.1826 -0.4003
 3772SOL     OW13322   2.333   8.339   8.077  0.0753  0.1190  0.5378
 3772SOL    HW113323   2.359   8.333   7.985 -0.3405  0.1266  0.4170
 3772SOL    HW213324   2.415   8.350   8.125  0.4489 -1.5093  0.3173
 3773SOL     OW13325   4.230   1.333   9.567 -0.4007 -0.0277  0.0926
 3773SOL    HW113326   4.187   1.295   9.643 -0.9802 -0.5034 -0.4631
 3773SOL    HW213327   4.159   1.351   9.505 -0.0525  1.2323  0.0216
 3774SOL     OW13328   6.074   9.072   1.168  0.2028  0.3546 -0.3101
 3774SOL    HW113329   6.004   9.012   1.195 -0.1987  0.4006 -1.2184
 3774SOL    HW213330   6.038   9.160   1.186 -0.1478  0.3918 -1.1651
 3775SOL     OW13331   5.091   0.040   0.707  0.2034 -0.4222 -0.0893
 3775SOL    HW113332   5.072   0.082   0.623 -0.3259 -0.9537 -0.2462
 3775SOL    HW213333   5.155  -0.028   0.686 -0.7549 -1.2945 -0.2736
 3776SOL     OW13334   8.368   9.395   9.276 -0.0929 -0.0709 -0.0856
 3776SOL    HW113335   8.299   9.407   9.211  0.4381 -0.9331 -0.8352
 3776SOL    HW213336   8.416   9.478   9.275  1.2410 -0.7767 -2.4286
 3777SOL     OW13337   9.578   4.603   9.777  0.2754 -0.6970 -0.3608
 3777SOL    HW113338   9.647   4.583   9.840  1.0109  2.9548  0.2076
 3777SOL    HW213339   9.506   4.636   9.831 -0.2015 -0.2842 -1.2371
 3778SOL     OW13340   0.823   4.228   2.112 -0.2035 -0.0291  0.0844
 3778SOL    HW113341   0.889   4.184   2.059 -0.5025  0.3299 -0.5967
 3778SOL    HW213342   0.797   4.305   2.061  1.0809  1.5868  1.7184
 3779SOL     OW13343   4.534   0.147   2.066  0.4325 -0.3814 -0.1838
 3779SOL    HW113344   4.600   0.139   2.134 -0.2507  1.7505  0.8194
 3779SOL    HW213345   4.475   0.072   2.080  0.6981 -0.3565  1.1160
 3780SOL     OW13346   4.362   5.276   4.960 -0.4550 -0.3699 -0.2249
 3780SOL    HW113347   4.315   5.358   4.977 -0.8028 -0.8481  1.2123
 3780SOL    HW213348   4.415   5.262   5.039 -0.4921 -1.5952 -0.4009
 3781SOL     OW13349  10.187   3.428   1.845 -0.5900 -0.2368  0.7810
 3781SOL    HW113350  10.213   3.468   1.927  1.2399 -0.6304  0.4291
 3781SOL    HW213351  10.248   3.463   1.780 -2.1181  0.2277 -0.4822
 3782SOL     OW13352   9.126   0.276   3.466  0.0207  0.0116  0.4375
 3782SOL    HW113353   9.129   0.218   3.542 -1.7129 -1.0189 -0.2470
 3782SOL    HW213354   9.218   0.296   3.448  0.6176 -1.9300  1.1259
 3783SOL     OW13355   4.459   3.812   0.749 -0.4852 -0.0751 -0.2355
 3783SOL    HW113356   4.402   3.874   0.705 -0.4215 -0.2882 -0.6247
 3783SOL    HW213357   4.548   3.840   0.726 -0.4482 -0.0810 -0.0995
 3784SOL     OW13358   3.568   1.821   5.785 -0.1915  0.6052 -0.5122
 3784SOL    HW113359   3.591   1.788   5.699  0.2594  0.5871 -0.3883
 3784SOL    HW213360   3.630   1.893   5.800  1.9597 -1.4299  1.1477
 3785SOL     OW13361   4.595   5.291   0.360  0.3061 -0.2067 -0.2191
 3785SOL    HW113362   4.619   5.281   0.453  0.0988 -1.7290 -0.3068
 3785SOL    HW213363   4.507   5.328   0.362 -0.0239 -0.9984  0.2149
 3786SOL     OW13364   1.148   3.045   6.392 -0.0972 -0.2760  0.1312
 3786SOL    HW113365   1.228   3.068   6.345 -0.4881 -0.0723 -0.4470
 3786SOL    HW213366   1.082   3.035   6.324 -0.5225 -0.6428  0.5856
 3787SOL     OW13367   1.929   3.577   8.195 -0.0030 -0.0522  0.1044
 3787SOL    HW113368   1.854   3.552   8.249  1.0047 -1.5177  0.8917
 3787SOL    HW213369   1.900   3.656   8.150 -0.8999  1.2753  2.7912
 3788SOL     OW13370   2.831  10.630   7.946 -0.2194 -0.0066 -0.5120
 3788SOL    HW113371   2.839  10.691   8.019 -0.1947  2.1105 -2.1910
 3788SOL    HW213372   2.748  10.585   7.962  0.3865 -0.5324  1.4502
 3789SOL     OW13373   6.185   4.729   9.921  0.1996 -0.0767 -0.5123
 3789SOL    HW113374   6.269   4.742   9.877  0.0533 -0.8111 -1.0326
 3789SOL    HW213375   6.120   4.737   9.851 -0.3396  2.3111  0.1725
 3790SOL     OW13376   1.440   5.223  10.150 -0.4055  0.3602 -0.4006
 3790SOL    HW113377   1.349   5.210  10.176 -0.8006  0.7357 -1.5056
 3790SOL    HW213378   1.472   5.294  10.205 -0.3205 -0.7371  0.9991
 3791SOL     OW13379   0.173   0.275   2.345  0.5240  0.0916 -0.4613
 3791SOL    HW113380   0.260   0.235   2.341  0.3466 -0.5303  0.8965
 3791SOL    HW213381   0.134   0.257   2.260  0.9891 -1.4342 -0.3841
 3792SOL     OW13382  10.213   8.512   7.824 -0.0583  0.0224  0.0348
 3792SOL    HW113383  10.220   8.519   7.728  0.5091 -1.1859 -0.0355
 3792SOL    HW213384  10.289   8.559   7.857 -1.4871  2.4841  0.0232
 3793SOL     OW13385  11.036   3.403   9.957 -0.5155 -0.1212 -0.2693
 3793SOL    HW113386  11.032   3.433   9.866 -0.4436 -1.8489 -0.8897
 3793SOL    HW213387  11.001   3.314   9.954 -0.4351 -0.2387  1.3909
 3794SOL     OW13388   2.499   5.751   9.296  0.3020 -0.5336 -0.0297
 3794SOL    HW113389   2.484   5.666   9.338  0.6095  0.0750  1.3765
 3794SOL    HW213390   2.518   5.730   9.205 -2.9603 -1.7724 -0.5750
 3795SOL     OW13391   1.970   0.397   1.698 -0.2132 -0.5006 -0.1476
 3795SOL    HW113392   1.996   0.358   1.614  1.6912  0.3968 -0.0324
 3795SOL    HW213393   1.952   0.322   1.755 -1.9085 -1.1272 -1.4245
 3796SOL     OW13394   5.433   3.368   6.362 -0.0833 -0.4279 -0.1075
 3796SOL    HW113395   5.504   3.432   6.353  0.2838 -0.6530  0.9509
 3796SOL    HW213396   5.371   3.390   6.293 -1.2781  2.7733  1.8015
 3797SOL     OW13397   3.953   7.894   7.598  0.4005 -0.1618 -0.9116
 3797SOL    HW113398   3.885   7.897   7.531  1.0310 -0.2275 -1.5712
 3797SOL    HW213399   4.017   7.832   7.565  1.6605  1.2117 -1.1806
 3798SOL     OW13400   5.696   6.889  10.498 -0.2708 -0.5000 -0.7172
 3798SOL    HW113401   5.754   6.812  10.495 -0.6585 -0.8334  0.1459
 3798SOL    HW213402   5.608   6.853  10.500 -0.4309 -0.1574  2.1900
 3799SOL     OW13403   1.573   5.846   6.889 -0.2112  0.3047 -0.2920
 3799SOL    HW113404   1.615   5.928   6.916  0.3510  0.2437 -0.9595
 3799SOL    HW213405   1.482   5.870   6.872  0.1647  0.9924 -1.4117
 3800SOL     OW13406   8.015   3.250   5.225 -0.0365 -0.0090  0.4533
 3800SOL    HW113407   7.920   3.257   5.214 -0.2786  0.8400  2.5834
 3800SOL    HW213408   8.045   3.341   5.227  0.5524 -0.2089  1.5521
 3801SOL     OW13409   7.491  10.593   6.010  0.6064  0.4620 -0.3038
 3801SOL    HW113410   7.510  10.566   5.920  1.8991 -1.2098  0.4283
 3801SOL    HW213411   7.457  10.515   6.052 -1.2580  1.5753  0.3524
 3802SOL     OW13412   7.366   1.260   3.535 -0.5764  0.1305 -0.0341
 3802SOL    HW113413   7.439   1.239   3.478 -0.4522  0.5417 -0.0313
 3802SOL    HW213414   7.329   1.341   3.498 -1.2824 -0.2920 -0.2788
 3803SOL     OW13415   7.864   5.909   2.263 -0.0112 -0.3571 -0.4263
 3803SOL    HW113416   7.813   5.925   2.183 -1.9072 -1.8907  0.3817
 3803SOL    HW213417   7.945   5.956   2.249 -0.4595 -0.1815 -3.0748
 3804SOL     OW13418   5.710   4.537   0.142  0.5015 -0.1064 -0.6032
 3804SOL    HW113419   5.777   4.502   0.200  0.0273 -0.0248  0.0020
 3804SOL    HW213420   5.631   4.540   0.195  0.0948  0.1192 -1.2069
 3805SOL     OW13421   0.358   9.969   9.771  0.8753  0.3830  0.2924
 3805SOL    HW113422   0.444   9.933   9.792  0.0398 -2.1120 -0.1880
 3805SOL    HW213423   0.371  10.064   9.772  3.3265  0.1194  1.3861
 3806SOL     OW13424   5.919   2.986   9.134 -0.6848  0.3690 -0.1018
 3806SOL    HW113425   5.912   2.934   9.214  0.3384  0.8684  0.3266
 3806SOL    HW213426   6.013   2.998   9.121 -0.8974  2.1122 -0.1852
 3807SOL     OW13427   0.125   0.198   0.680  0.1669  0.1577  0.6280
 3807SOL    HW113428   0.162   0.145   0.751 -0.7526 -2.6644 -0.8406
 3807SOL    HW213429   0.201   0.223   0.627  0.6707  0.8441  1.6221
 3808SOL     OW13430  10.326   6.954   3.575 -0.2361 -0.2279  0.2246
 3808SOL    HW113431  10.264   6.977   3.506 -0.1727 -0.8732 -0.0536
 3808SOL    HW213432  10.380   6.885   3.537  0.7010  0.3705  0.4428
 3809SOL     OW13433   2.519   3.523   5.285  0.1749 -0.4515 -0.3734
 3809SOL    HW113434   2.555   3.608   5.256  3.4861 -1.0605  1.4451
 3809SOL    HW213435   2.547   3.462   5.218 -1.1366 -0.3551 -1.0414
 3810SOL     OW13436   5.031   3.547   4.814  0.1086  0.1513 -0.1182
 3810SOL    HW113437   4.949   3.527   4.858 -0.3110  1.7880 -0.0612
 3810SOL    HW213438   5.083   3.467   4.821 -0.0826  0.1681  2.9966
 3811SOL     OW13439   6.419   8.326   9.691  0.0121  0.4126 -0.4129
 3811SOL    HW113440   6.420   8.380   9.770  0.2586  1.2917 -1.0122
 3811SOL    HW213441   6.338   8.349   9.647  0.8666  1.5366 -1.4902
 3812SOL     OW13442   5.523   3.464   5.200 -0.3143 -0.1372  0.2284
 3812SOL    HW113443   5.432   3.483   5.221 -0.3007 -1.9399  2.2014
 3812SOL    HW213444   5.535   3.372   5.225  1.5993 -0.4596 -1.5998
 3813SOL     OW13445   9.587   1.030   3.386  0.1126 -0.2716  0.4851
 3813SOL    HW113446   9.561   1.100   3.446 -1.0941 -1.4809  1.4027
 3813SOL    HW213447   9.676   1.006   3.414 -0.1096 -0.2339  1.2326
 3814SOL     OW13448   1.608   3.459   2.773 -0.4378 -0.1930 -0.2889
 3814SOL    HW113449   1.643   3.370   2.770 -0.5227 -0.2781  0.7917
 3814SOL    HW213450   1.676   3.510   2.816  0.3258  0.6468 -2.3798
 3815SOL     OW13451   6.273   0.514   4.259  0.5607 -0.0710 -0.1350
 3815SOL    HW113452   6.338   0.575   4.294  0.7031 -1.2396  1.7340
 3815SOL    HW213453   6.321   0.462   4.194  1.2750 -0.3555  0.6156
 3816SOL     OW13454   0.833   0.619   7.224  0.7928 -0.2663 -0.3012
 3816SOL    HW113455   0.799   0.704   7.197  0.0310 -0.1024  1.1239
 3816SOL    HW213456   0.780   0.555   7.177  0.1003  0.0251  0.0790
 3817SOL     OW13457   9.450   8.276   1.459  0.1920  0.2357  0.0494
 3817SOL    HW113458   9.508   8.278   1.383 -0.1758  0.4707 -0.2290
 3817SOL    HW213459   9.435   8.368   1.480 -0.3363  0.1877 -0.0870
 3818SOL     OW13460   0.335   5.408   8.297  0.6129  0.3119 -0.4169
 3818SOL    HW113461   0.413   5.380   8.249  0.2560 -1.0030 -0.2860
 3818SOL    HW213462   0.283   5.328   8.306 -0.4819  1.0442  0.0065
 3819SOL     OW13463   8.068   6.837   2.281 -0.0160  0.1880  0.3801
 3819SOL    HW113464   8.090   6.904   2.216  1.7061 -0.0514  0.6840
 3819SOL    HW213465   8.023   6.886   2.351  1.7315  1.1818  0.8670
 3820SOL     OW13466   2.253   2.015   8.344 -0.3428 -0.2564  0.1101
 3820SOL    HW113467   2.217   2.103   8.359  3.0410  1.4228 -0.7412
 3820SOL    HW213468   2.271   1.982   8.432  0.0359  0.7112  0.4151
 3821SOL     OW13469   2.419   5.732   7.619 -0.6125  0.5813  0.0942
 3821SOL    HW113470   2.479   5.728   7.693 -0.7790 -0.9382  0.1904
 3821SOL    HW213471   2.345   5.785   7.650  0.4988  2.2125  0.0755
 3822SOL     OW13472   5.024   9.835   3.488  0.5901  0.0195 -0.4182
 3822SOL    HW113473   4.963   9.770   3.521 -0.8576  0.7816 -1.5072
 3822SOL    HW213474   5.023   9.824   3.393  4.2442 -1.7708 -0.4473
 3823SOL     OW13475   1.264   2.291   0.152  0.2427 -0.0222 -0.0709
 3823SOL    HW113476   1.207   2.351   0.201 -1.6215 -0.3117 -1.7576
 3823SOL    HW213477   1.318   2.349   0.099 -0.4351  0.2381 -0.5013
 3824SOL     OW13478  11.031   5.479  10.520 -0.5138 -0.0827 -1.1467
 3824SOL    HW113479  11.029   5.467  10.425 -2.2810 -1.2665 -1.0029
 3824SOL    HW213480  10.984   5.404  10.555  1.0077 -0.2421  0.7642
 3825SOL     OW13481   4.110   1.078  10.409  0.5986  0.3391  0.2574
 3825SOL    HW113482   4.116   1.163  10.452 -1.3682  1.1481 -0.9333
 3825SOL    HW213483   4.028   1.040  10.443  1.0176 -0.7167  0.1313
 3826SOL     OW13484   2.161   6.339   9.757 -0.6387 -0.4018  0.1676
 3826SOL    HW113485   2.149   6.398   9.682 -0.3749 -2.1505 -1.3270
 3826SOL    HW213486   2.239   6.373   9.801 -1.0394  0.9086 -0.0861
 3827SOL     OW13487   7.012   6.296   6.776  0.3189  0.2048  0.2233
 3827SOL    HW113488   6.988   6.308   6.684 -0.8043 -3.2327 -0.0864
 3827SOL    HW213489   7.089   6.353   6.788  0.3701  0.9568 -2.7500
 3828SOL     OW13490   3.428   5.425   1.396  0.0777 -0.2560 -0.0374
 3828SOL    HW113491   3.377   5.371   1.336 -0.1039 -2.0807  1.6330
 3828SOL    HW213492   3.507   5.447   1.347 -1.4397  1.1124 -2.0374
 3829SOL     OW13493   0.328   6.813   2.702  0.0122 -0.1094 -0.4589
 3829SOL    HW113494   0.258   6.754   2.731  1.2460 -0.8226  1.2206
 3829SOL    HW213495   0.405   6.757   2.692  0.5497  0.7807 -1.5504
 3830SOL     OW13496   7.593   9.726  10.055 -0.3532  0.3725  0.3423
 3830SOL    HW113497   7.617   9.634  10.046 -0.3395  0.4751 -0.9353
 3830SOL    HW213498   7.671   9.768  10.091 -0.4129 -0.1239  1.0801
 3831SOL     OW13499   3.147   2.254   4.729 -0.2360  0.6844  0.1819
 3831SOL    HW113500   3.060   2.235   4.766 -1.5688  2.4047 -1.8551
 3831SOL    HW213501   3.136   2.338   4.684  2.4303  0.7831 -0.4174
 3832SOL     OW13502   5.985   1.230   2.229  0.6785 -0.5943 -0.2990
 3832SOL    HW113503   6.069   1.185   2.231 -0.3661 -2.6957 -0.2734
 3832SOL    HW213504   5.951   1.214   2.140 -0.0219 -0.4398 -0.0712
 3833SOL     OW13505   1.165   3.445   9.452  0.4552  0.1530  0.3480
 3833SOL    HW113506   1.237   3.440   9.515  3.4728 -1.9107 -2.9259
 3833SOL    HW213507   1.124   3.359   9.457  1.9646 -0.7566 -1.6759
 3834SOL     OW13508   5.604   3.300   9.852  0.3083  0.3304  0.1982
 3834SOL    HW113509   5.697   3.289   9.832  0.1934 -0.2209 -0.0401
 3834SOL    HW213510   5.570   3.354   9.781 -0.0041 -1.2538 -0.8881
 3835SOL     OW13511  10.209  10.972   3.530  0.0251 -0.0666  0.0388
 3835SOL    HW113512  10.179  10.916   3.601 -0.2978 -0.3758 -0.3337
 3835SOL    HW213513  10.176  11.059   3.552 -0.3477 -0.2230  0.1087
 3836SOL     OW13514   3.291   3.812   5.481  0.1257 -0.4019  0.0934
 3836SOL    HW113515   3.200   3.840   5.482 -0.2752 -1.5990 -1.0274
 3836SOL    HW213516   3.340   3.894   5.469 -0.7818  0.2476  0.6575
 3837SOL     OW13517  10.527   6.681   2.359  0.6183  0.3411 -0.6504
 3837SOL    HW113518  10.498   6.754   2.413  0.4293 -0.3712  0.2444
 3837SOL    HW213519  10.465   6.678   2.286 -0.4082  0.0388  0.2058
 3838SOL     OW13520   8.770   7.097   9.256 -0.0617  0.3333  0.3581
 3838SOL    HW113521   8.844   7.053   9.212 -1.3891 -0.6086 -1.0476
 3838SOL    HW213522   8.740   7.034   9.321 -2.2420 -1.2261 -1.9489
 3839SOL     OW13523   3.840  10.180   6.605 -0.4504  0.2303  0.4485
 3839SOL    HW113524   3.852  10.086   6.599  1.6232  0.4970 -0.8580
 3839SOL    HW213525   3.854  10.212   6.515 -1.3572  1.7593  0.8085
 3840SOL     OW13526   5.282   2.990   3.025  0.6032  0.1484 -0.6049
 3840SOL    HW113527   5.205   3.022   2.978  1.2699 -0.4931 -2.2255
 3840SOL    HW213528   5.351   3.053   3.005  0.6544  0.4239  0.3890
 3841SOL     OW13529   2.862   5.269   9.244  0.5335  0.2647 -0.6316
 3841SOL    HW113530   2.936   5.328   9.228  1.7798 -0.5967  1.5689
 3841SOL    HW213531   2.871   5.201   9.177  1.6538  0.2674 -0.5034
 3842SOL     OW13532  10.072   3.130   4.279  0.2866 -0.6875  0.6749
 3842SOL    HW113533  10.066   3.225   4.270  1.1195 -0.4690  2.0079
 3842SOL    HW213534  10.029   3.095   4.201  0.0597  0.7781  0.1095
 3843SOL     OW13535   0.186   7.091   9.259 -0.1104  0.1616  0.6400
 3843SOL    HW113536   0.165   7.072   9.350 -1.9855 -0.3304  0.1385
 3843SOL    HW213537   0.104   7.123   9.221  0.9791  1.6976 -0.5516
 3844SOL     OW13538   5.877   8.249   2.201 -0.3753 -0.7581  0.1678
 3844SOL    HW113539   5.955   8.304   2.196  1.0409 -2.6857 -4.7213
 3844SOL    HW213540   5.814   8.301   2.252  2.5356  2.9038  0.4523
 3845SOL     OW13541   2.177   6.519   5.719 -0.3365 -0.3308 -0.0220
 3845SOL    HW113542   2.172   6.603   5.675  1.3482 -0.3565 -0.3145
 3845SOL    HW213543   2.270   6.497   5.720 -0.8055 -2.6528 -0.8265
 3846SOL     OW13544   0.020   8.998   9.053  0.4877 -0.1649  0.1557
 3846SOL    HW113545   0.109   8.983   9.085  0.4589 -0.2152  0.2114
 3846SOL    HW213546   0.001   8.922   8.998  0.1075 -0.6485  0.9412
 3847SOL     OW13547   2.148   6.205   3.656  0.1812 -0.2405 -0.1068
 3847SOL    HW113548   2.071   6.231   3.705  0.9413 -1.0331  1.6026
 3847SOL    HW213549   2.158   6.272   3.589 -1.9032 -0.0620 -0.3019
 3848SOL     OW13550   8.808   3.438   0.240  0.1705  0.2778  0.0017
 3848SOL    HW113551   8.794   3.529   0.213 -1.1699 -0.2866 -1.3434
 3848SOL    HW213552   8.723   3.409   0.271  1.3410  0.5131  4.0037
 3849SOL     OW13553   3.729   7.154   0.782  0.0533 -0.1591 -0.4411
 3849SOL    HW113554   3.814   7.193   0.759 -1.0873  3.1326  0.3598
 3849SOL    HW213555   3.751   7.074   0.830  2.5879 -1.1561 -2.9777
 3850SOL     OW13556   5.142  10.964   6.583 -0.1457  0.5320 -0.2095
 3850SOL    HW113557   5.212  11.015   6.543  1.5050 -0.3245  1.4202
 3850SOL    HW213558   5.171  10.873   6.574 -0.6367  0.2155  1.1812
 3851SOL     OW13559   1.940   9.211  10.351 -0.4582 -0.6112 -1.0575
 3851SOL    HW113560   1.856   9.167  10.361  0.0552 -1.1017  1.7291
 3851SOL    HW213561   2.003   9.140  10.338 -0.2667 -0.3308 -1.7192
 3852SOL     OW13562  10.051   6.055   5.538  0.1830 -0.0035  0.2318
 3852SOL    HW113563  10.020   6.108   5.612  0.2900 -0.4867  0.6272
 3852SOL    HW213564  10.026   6.105   5.461 -1.7450 -0.4664  0.5216
 3853SOL     OW13565   0.446   8.489   8.699 -0.2640 -0.6287  0.2420
 3853SOL    HW113566   0.439   8.429   8.624  1.5017 -0.6704  0.0671
 3853SOL    HW213567   0.373   8.464   8.756 -1.9817 -0.2717 -1.6575
 3854SOL     OW13568  10.008   8.308   1.206  0.0354 -0.7050  0.8132
 3854SOL    HW113569  10.025   8.378   1.269  1.0674  0.3038 -0.5053
 3854SOL    HW213570  10.090   8.257   1.203  0.4526 -0.0196 -0.5252
 3855SOL     OW13571   0.782   4.150   2.485 -0.0119 -0.1128 -0.8814
 3855SOL    HW113572   0.727   4.085   2.529  0.8898  0.2777  0.9198
 3855SOL    HW213573   0.720   4.213   2.449 -0.7947  0.3044  1.0806
 3856SOL     OW13574  11.046   1.030   8.084 -0.0541 -0.5609  0.3041
 3856SOL    HW113575  10.978   0.997   8.143 -0.6912  3.3832  2.0898
 3856SOL    HW213576  11.121   1.048   8.141  1.2069 -1.4025 -1.0202
 3857SOL     OW13577   2.406   4.194   5.586  0.2002  0.7281  0.1298
 3857SOL    HW113578   2.439   4.157   5.668  0.9022  0.6571 -0.1828
 3857SOL    HW213579   2.389   4.118   5.531  3.3910  0.8437 -1.1967
 3858SOL     OW13580   4.194   7.206   0.893 -0.6839 -0.3660  0.7281
 3858SOL    HW113581   4.271   7.262   0.883 -0.7466 -0.4577 -0.4557
 3858SOL    HW213582   4.216   7.146   0.964  1.2706 -1.8469 -0.9952
 3859SOL     OW13583   8.293   4.828   8.666 -0.3472  0.4522  0.1820
 3859SOL    HW113584   8.303   4.787   8.580  0.1585  0.4641  0.2346
 3859SOL    HW213585   8.370   4.884   8.675 -0.8423  1.1298  0.2697
 3860SOL     OW13586   1.844   7.311   3.610  0.1864  0.1578 -0.6454
 3860SOL    HW113587   1.851   7.403   3.634  0.0403 -0.0439  0.1987
 3860SOL    HW213588   1.875   7.264   3.688  1.3812 -0.4883 -1.4686
 3861SOL     OW13589  10.731   8.153   0.813  0.0980 -0.2277 -0.6798
 3861SOL    HW113590  10.682   8.201   0.879  0.9668 -0.1456 -0.0794
 3861SOL    HW213591  10.671   8.145   0.739 -0.9125 -0.3972  0.1479
 3862SOL     OW13592   3.796   7.611   2.140  0.2088  0.0838 -0.3202
 3862SOL    HW113593   3.710   7.589   2.177 -0.2921  3.4652  0.8417
 3862SOL    HW213594   3.856   7.598   2.214  0.3076  0.2046 -0.3815
 3863SOL     OW13595   0.170   5.013   1.778 -0.2294 -0.0408 -0.3916
 3863SOL    HW113596   0.220   4.952   1.831 -1.1909  0.3180  0.9998
 3863SOL    HW213597   0.138   5.079   1.840 -2.5785 -0.3655 -1.1336
 3864SOL     OW13598   0.577   2.787   2.123  0.2832  0.2021  0.4147
 3864SOL    HW113599   0.635   2.752   2.190 -0.1200 -1.5900 -0.1254
 3864SOL    HW213600   0.489   2.775   2.158  0.1010 -0.1139 -0.1319
 3865SOL     OW13601   5.163   5.512   1.482  0.3659  0.4629 -0.2192
 3865SOL    HW113602   5.140   5.532   1.392 -1.0647  2.2030  0.4744
 3865SOL    HW213603   5.250   5.549   1.495  0.2001  1.0083 -0.6456
 3866SOL     OW13604   3.935   8.124   7.754  0.1497 -0.0793  0.2125
 3866SOL    HW113605   3.839   8.125   7.745  0.2587  1.8052 -1.3348
 3866SOL    HW213606   3.961   8.037   7.726 -1.0069 -0.0561 -1.0212
 3867SOL     OW13607   5.268   8.813   0.953  0.9965  0.3314  0.2076
 3867SOL    HW113608   5.203   8.851   1.012 -0.3158  1.2526 -1.7359
 3867SOL    HW213609   5.319   8.889   0.922  0.2543  0.2020 -1.4560
 3868SOL     OW13610   2.488   8.170   3.200 -0.1703 -0.3360  0.3269
 3868SOL    HW113611   2.492   8.133   3.111  0.4243  1.9539 -0.6642
 3868SOL    HW213612   2.571   8.142   3.241 -0.4465 -1.4029  0.1879
 3869SOL     OW13613   3.919   4.965   8.783 -0.2421  0.6086 -0.5450
 3869SOL    HW113614   3.915   4.878   8.822 -4.3255  0.7085 -0.3291
 3869SOL    HW213615   3.933   4.949   8.689  1.4173 -0.0802 -0.2084
 3870SOL     OW13616   0.764   5.982   2.746  0.1045  0.1981  0.0087
 3870SOL    HW113617   0.670   5.995   2.734  0.2391  1.1481 -0.0851
 3870SOL    HW213618   0.771   5.899   2.792 -0.8197  0.4311  0.5941
 3871SOL     OW13619  10.099   4.864   0.325 -0.0394  0.1030  0.0923
 3871SOL    HW113620  10.176   4.916   0.299 -0.2805 -0.2641 -1.4540
 3871SOL    HW213621  10.095   4.794   0.261 -2.4587  0.8780 -0.7153
 3872SOL     OW13622   2.550   9.343   9.663 -0.3329  0.2893 -0.0866
 3872SOL    HW113623   2.586   9.302   9.741  1.9241  0.2443 -1.0666
 3872SOL    HW213624   2.530   9.433   9.689 -0.1354  0.1107  0.6881
 3873SOL     OW13625   8.162   9.848   3.671  0.1668  0.0226  0.5773
 3873SOL    HW113626   8.132   9.767   3.712  0.2132 -0.9941 -1.3154
 3873SOL    HW213627   8.254   9.833   3.652  0.2290  0.6088  0.3923
 3874SOL     OW13628   8.958   2.375   8.209  0.0328  0.0494  0.4790
 3874SOL    HW113629   8.970   2.410   8.297 -0.5896 -0.1505  0.6451
 3874SOL    HW213630   8.936   2.283   8.222 -1.2524  0.2954  0.1764
 3875SOL     OW13631   0.295   5.510   9.226  0.3058 -0.4431 -0.9104
 3875SOL    HW113632   0.359   5.457   9.180  1.5512 -0.9872  1.2964
 3875SOL    HW213633   0.347   5.567   9.283 -1.1086  0.7607 -0.7517
 3876SOL     OW13634   8.838   7.635   4.249 -0.3106 -0.0406  0.0914
 3876SOL    HW113635   8.828   7.555   4.300  0.5984  0.5689  1.2778
 3876SOL    HW213636   8.877   7.605   4.166 -0.2513 -0.8504  0.3997
 3877SOL     OW13637   1.618   5.368   9.239 -0.4560  0.0357  0.1720
 3877SOL    HW113638   1.583   5.281   9.219 -0.4733  0.1491 -0.3152
 3877SOL    HW213639   1.540   5.422   9.253 -0.4546 -0.5457  2.9313
 3878SOL     OW13640   2.342   9.445   0.988  0.4127  0.8185  0.1672
 3878SOL    HW113641   2.364   9.369   0.933  1.7691  0.4282  1.1963
 3878SOL    HW213642   2.369   9.420   1.076  0.1944  2.2184  0.6619
 3879SOL     OW13643   2.413   0.238   9.690  0.0048  0.2790 -0.0209
 3879SOL    HW113644   2.402   0.166   9.628  0.4403 -0.0883  0.3154
 3879SOL    HW213645   2.450   0.196   9.768 -0.7646  0.6904  0.5806
 3880SOL     OW13646   8.185   1.317   2.592  0.5426  0.2597 -0.0170
 3880SOL    HW113647   8.148   1.229   2.580  0.5193  0.5415 -2.5879
 3880SOL    HW213648   8.260   1.303   2.651  2.0920 -1.9851 -2.3044
 3881SOL     OW13649   1.828   9.332   1.392  0.1203 -0.1354 -0.8001
 3881SOL    HW113650   1.769   9.318   1.318 -0.4460  2.6935 -1.0251
 3881SOL    HW213651   1.902   9.381   1.354  0.9576 -0.6737  0.0988
 3882SOL     OW13652  11.061  10.368   4.653 -0.6570  0.0008 -0.1846
 3882SOL    HW113653  11.078  10.310   4.727 -2.1386  1.3820  1.3248
 3882SOL    HW213654  11.147  10.405   4.631  0.0119 -1.4156 -0.0391
 3883SOL     OW13655   5.879   9.275   2.217 -0.6123 -0.0310  0.0912
 3883SOL    HW113656   5.823   9.297   2.143 -0.6068  0.2954  0.1836
 3883SOL    HW213657   5.960   9.241   2.176 -1.5516 -2.3157 -0.0498
 3884SOL     OW13658   5.356   5.015   4.014 -0.3522  0.4474  0.0828
 3884SOL    HW113659   5.332   5.089   4.070 -0.4960  1.5528 -1.3525
 3884SOL    HW213660   5.316   5.036   3.929  0.5631 -0.7304 -0.6705
 3885SOL     OW13661   8.810   6.046   7.299 -0.8219  0.8079 -0.1828
 3885SOL    HW113662   8.831   5.972   7.357  0.3167  1.9969  0.9968
 3885SOL    HW213663   8.780   6.005   7.218  0.5109 -0.9725  0.1538
 3886SOL     OW13664   9.390   6.525   9.611 -0.7784 -0.6008 -0.2302
 3886SOL    HW113665   9.376   6.455   9.675 -1.4531 -2.1936 -2.0108
 3886SOL    HW213666   9.485   6.527   9.597 -0.3329  1.2655  2.3070
 3887SOL     OW13667  10.257   9.948   5.723  0.0716 -0.3149  0.4546
 3887SOL    HW113668  10.349   9.973   5.726 -0.5426  2.3248 -0.0025
 3887SOL    HW213669  10.223   9.969   5.810 -0.1524 -1.1129  0.5674
 3888SOL     OW13670   0.165   4.783   8.730 -0.3289  0.0353  0.0126
 3888SOL    HW113671   0.257   4.804   8.749 -0.3321  0.1155 -0.0575
 3888SOL    HW213672   0.117   4.819   8.805 -0.2055 -0.9726  0.6004
 3889SOL     OW13673   8.435   9.108   7.964  0.4982  0.4269 -0.1831
 3889SOL    HW113674   8.525   9.139   7.978  1.4933 -2.5340  0.8873
 3889SOL    HW213675   8.443   9.043   7.894 -0.2414 -1.7265  1.5978
 3890SOL     OW13676   2.234   4.203   8.614 -0.6058 -0.2522  0.0563
 3890SOL    HW113677   2.256   4.252   8.693  0.4547 -0.1617 -0.2747
 3890SOL    HW213678   2.148   4.236   8.588 -1.8693 -1.6499  2.2119
 3891SOL     OW13679   7.424   7.894   3.228  0.0882  0.1049 -0.0340
 3891SOL    HW113680   7.348   7.945   3.198  0.8690  0.5574 -1.3542
 3891SOL    HW213681   7.482   7.892   3.152  0.5900 -1.8182  0.3446
 3892SOL     OW13682   0.015   1.739   0.626 -0.1905  0.0459  0.2372
 3892SOL    HW113683  -0.080   1.752   0.628 -0.1055  0.6137  1.3791
 3892SOL    HW213684   0.030   1.665   0.684 -0.0672 -1.1480 -1.2654
 3893SOL     OW13685   9.498   0.592   6.937 -0.1071  0.0964  0.5928
 3893SOL    HW113686   9.499   0.683   6.967 -0.0922 -0.3810  2.1143
 3893SOL    HW213687   9.408   0.564   6.951 -0.4617  0.2421 -1.1419
 3894SOL     OW13688   0.250   7.078   5.025  0.0999 -0.1562 -0.2204
 3894SOL    HW113689   0.226   7.045   4.939 -1.8943 -1.6482  0.8274
 3894SOL    HW213690   0.274   7.000   5.075 -0.2414  0.4973  1.0026
 3895SOL     OW13691   0.088  10.917   6.086  0.1982 -0.1119  0.4440
 3895SOL    HW113692   0.002  10.888   6.116  0.4994 -1.1839  0.3190
 3895SOL    HW213693   0.149  10.851   6.121  0.9867  0.6787  0.6090
 3896SOL     OW13694   8.564   9.294   6.524 -0.4854 -0.2372  0.2533
 3896SOL    HW113695   8.477   9.310   6.487 -0.5555  0.2748  0.6275
 3896SOL    HW213696   8.595   9.214   6.480  0.1733  1.2684 -2.2338
 3897SOL     OW13697   7.210   6.274   8.688  0.0384  0.3166 -0.2287
 3897SOL    HW113698   7.201   6.255   8.782 -0.7001 -1.0326 -0.5467
 3897SOL    HW213699   7.298   6.311   8.680  2.4075 -4.4147  0.3260
 3898SOL     OW13700   1.510   1.511   6.545  0.3086 -0.1514 -0.0912
 3898SOL    HW113701   1.449   1.440   6.565 -0.1099 -0.0261 -0.8652
 3898SOL    HW213702   1.484   1.583   6.602  0.7558 -0.6127  0.7242
 3899SOL     OW13703   2.247   9.351   9.847  0.3617  0.3953  0.8408
 3899SOL    HW113704   2.254   9.290   9.774  0.1278  1.2434  0.0917
 3899SOL    HW213705   2.261   9.297   9.925 -3.2169 -1.3373  0.4762
 3900SOL     OW13706  10.018   7.561   3.775 -0.1454  0.4921 -0.6495
 3900SOL    HW113707  10.087   7.502   3.746 -0.2635 -1.5433  2.6502
 3900SOL    HW213708   9.937   7.519   3.748 -0.1867  0.2221 -0.1119
 3901SOL     OW13709   3.230   8.709   0.819  0.2486 -0.3823  0.6346
 3901SOL    HW113710   3.148   8.660   0.811 -0.2420  0.5191  0.1035
 3901SOL    HW213711   3.232   8.766   0.743  1.4850 -0.5432  0.5206
 3902SOL     OW13712   3.316   5.878  10.316  0.0814  0.1170  0.1000
 3902SOL    HW113713   3.403   5.883  10.277 -0.2386 -0.0500 -0.6688
 3902SOL    HW213714   3.314   5.949  10.381  0.4517  0.7755 -0.5873
 3903SOL     OW13715   6.606   6.679  10.927  0.1856  0.1526 -0.9166
 3903SOL    HW113716   6.604   6.647  10.837 -1.3534 -0.5128 -0.6774
 3903SOL    HW213717   6.514   6.684  10.953  0.5201  1.7274  0.1444
 3904SOL     OW13718   2.169   5.132   4.480  0.0204 -0.0642 -0.1492
 3904SOL    HW113719   2.231   5.066   4.448  1.1189  0.4074  0.9506
 3904SOL    HW213720   2.140   5.178   4.402 -1.5263 -2.4439 -1.0926
 3905SOL     OW13721   1.005   6.211  10.927  0.0874 -0.6678  0.0914
 3905SOL    HW113722   0.910   6.211  10.943 -0.3230  1.2897 -1.8116
 3905SOL    HW213723   1.037   6.289  10.972 -0.2393  1.8600 -3.6009
 3906SOL     OW13724   1.362   0.565  10.948  0.1867 -0.1108  0.1308
 3906SOL    HW113725   1.284   0.511  10.931 -0.2505  0.3729  0.5708
 3906SOL    HW213726   1.406   0.521  11.020 -0.1881  0.1354  0.5118
 3907SOL     OW13727   0.705   7.477  10.119 -0.3529  0.0907 -0.1079
 3907SOL    HW113728   0.798   7.454  10.110 -0.5988 -0.4941 -1.4741
 3907SOL    HW213729   0.687   7.531  10.041 -2.0191 -2.9004 -1.9749
 3908SOL     OW13730   5.909   7.387   5.890  0.0844  0.2803 -0.1865
 3908SOL    HW113731   5.940   7.395   5.800  1.3233  2.6017  0.3652
 3908SOL    HW213732   5.987   7.399   5.944 -0.7783 -0.1541  1.2119
 3909SOL     OW13733   3.475   8.604   0.703  0.6135  0.0694  0.3175
 3909SOL    HW113734   3.406   8.639   0.758  0.1696 -0.8949  0.3994
 3909SOL    HW213735   3.491   8.516   0.737 -1.1348 -1.4015 -2.3147
 3910SOL     OW13736   3.534   1.581   2.285 -0.2068  0.1217 -0.0117
 3910SOL    HW113737   3.616   1.630   2.296  0.1114 -0.7251  1.8509
 3910SOL    HW213738   3.473   1.624   2.345  0.1616 -1.8370  1.8860
 3911SOL     OW13739   9.106  10.514   6.668 -0.0481 -0.2183  0.2421
 3911SOL    HW113740   9.178  10.558   6.622 -0.8251  1.2537  0.3481
 3911SOL    HW213741   9.130  10.422   6.668  0.4737 -0.1447 -2.2190
 3912SOL     OW13742   5.683   3.271   7.389 -0.2056  0.0695 -0.4305
 3912SOL    HW113743   5.675   3.289   7.483  0.8253  0.4165 -0.3931
 3912SOL    HW213744   5.633   3.190   7.376  3.3102 -2.6970  1.3286
 3913SOL     OW13745   0.196   7.651   1.817  0.4243 -0.7029  0.8553
 3913SOL    HW113746   0.205   7.739   1.852  0.2338 -1.7107  3.7052
 3913SOL    HW213747   0.129   7.658   1.749  1.6364  1.5973 -0.2000
 3914SOL     OW13748   8.455   0.620   9.884 -0.1228  0.1181 -0.1472
 3914SOL    HW113749   8.511   0.682   9.838  1.0562 -0.8462 -0.0506
 3914SOL    HW213750   8.366   0.655   9.872  0.4005  1.2195 -1.0133
 3915SOL     OW13751   8.086   9.299   5.126  0.9396  0.5375  0.3684
 3915SOL    HW113752   7.995   9.278   5.149  1.2911 -0.8975  0.5148
 3915SOL    HW213753   8.086   9.303   5.031  0.7741  0.2877  0.3572
 3916SOL     OW13754   3.795   2.915   0.320  0.0860 -0.0499  0.2851
 3916SOL    HW113755   3.830   2.982   0.260  2.3440 -0.1187  1.4480
 3916SOL    HW213756   3.742   2.965   0.382 -2.1849  0.0395 -1.5987
 3917SOL     OW13757   5.392  10.559   8.052  0.2407  0.0904 -0.2644
 3917SOL    HW113758   5.419  10.472   8.081  1.3452  0.6236  0.3626
 3917SOL    HW213759   5.333  10.542   7.979 -0.5606 -1.2154  0.6294
 3918SOL     OW13760   6.743   8.502   5.989 -0.3683  0.0749  0.2072
 3918SOL    HW113761   6.685   8.435   6.025  0.8528 -0.2850  1.6236
 3918SOL    HW213762   6.761   8.473   5.899 -1.0371 -0.6884  0.3067
 3919SOL     OW13763   8.033   3.807   5.919 -0.7785 -0.0848 -0.7149
 3919SOL    HW113764   8.060   3.718   5.896  0.8386  0.6331 -1.6911
 3919SOL    HW213765   8.024   3.852   5.835 -0.8132  0.8924 -0.1997
 3920SOL     OW13766   5.494   6.114   3.312 -0.0171 -0.7971  0.0898
 3920SOL    HW113767   5.448   6.040   3.274 -0.7916  0.1066 -0.8043
 3920SOL    HW213768   5.448   6.131   3.394  0.4066 -1.5259  0.4881
 3921SOL     OW13769   9.967   1.291   1.958 -0.0708  0.2663  0.4378
 3921SOL    HW113770   9.874   1.290   1.982 -0.6676  0.7403 -1.6867
 3921SOL    HW213771   9.981   1.208   1.913  0.3310  0.5835 -0.0274
 3922SOL     OW13772   0.309   0.405   6.002 -0.2581  0.1870  0.0904
 3922SOL    HW113773   0.392   0.391   6.047  0.8599  1.0895 -1.5645
 3922SOL    HW213774   0.243   0.373   6.063  1.4040 -2.6210  0.6199
 3923SOL     OW13775   3.341   4.195   6.453  0.6362 -0.2908 -0.5748
 3923SOL    HW113776   3.384   4.272   6.490  0.2812 -0.1980 -0.3532
 3923SOL    HW213777   3.260   4.185   6.504  2.0818 -2.6304  1.5093
 3924SOL     OW13778   5.757   4.113   7.956 -0.0395  0.3441  0.2953
 3924SOL    HW113779   5.796   4.050   7.896 -2.9376  1.1249 -2.6650
 3924SOL    HW213780   5.773   4.076   8.043  2.7733 -1.7816 -0.9806
 3925SOL     OW13781   9.237   4.789  10.112  0.2233  0.9013  0.1634
 3925SOL    HW113782   9.251   4.862  10.172 -1.3181  2.8757 -1.7377
 3925SOL    HW213783   9.186   4.726  10.163 -0.3527  2.1466  1.1718
 3926SOL     OW13784   0.638   1.624   2.892 -0.0664  0.5842 -0.3605
 3926SOL    HW113785   0.673   1.582   2.970  0.1099 -1.7362 -1.6142
 3926SOL    HW213786   0.714   1.663   2.849 -0.2151  2.2180  0.7388
 3927SOL     OW13787   6.378   6.554   4.681 -0.4909  0.0327  0.0421
 3927SOL    HW113788   6.435   6.480   4.659  0.3817  0.6437  0.1827
 3927SOL    HW213789   6.381   6.558   4.777  0.3173  0.8873 -0.0068
 3928SOL     OW13790   1.778   8.220   0.206  0.0990 -0.2798 -0.5314
 3928SOL    HW113791   1.745   8.246   0.292 -0.3486 -0.9236 -0.4978
 3928SOL    HW213792   1.703   8.230   0.148  0.0904 -0.8662 -0.6332
 3929SOL     OW13793   2.040   0.211  10.180  0.4494 -0.2376  0.2416
 3929SOL    HW113794   2.031   0.129  10.229  1.5170  0.1743  1.1541
 3929SOL    HW213795   1.972   0.267  10.215 -1.3814 -1.2369 -1.5262
 3930SOL     OW13796   9.516   8.195  11.100  0.8241 -0.1956 -0.0323
 3930SOL    HW113797   9.592   8.137  11.089  0.4391 -0.5985 -0.6471
 3930SOL    HW213798   9.553   8.283  11.101  1.2645 -0.3568 -0.8560
 3931SOL     OW13799   8.340   5.261   6.751  0.1011 -0.1582  0.1808
 3931SOL    HW113800   8.270   5.237   6.690 -0.9853 -0.5243  1.5255
 3931SOL    HW213801   8.386   5.179   6.769  1.5264  0.2268 -1.4078
 3932SOL     OW13802   1.240   8.367  10.154 -0.2509  0.0018  0.3954
 3932SOL    HW113803   1.202   8.280  10.144 -0.8221  0.1031  1.4493
 3932SOL    HW213804   1.316   8.354  10.211 -0.5809  0.2317  0.9029
 3933SOL     OW13805   9.027   7.288   9.144  0.3529 -0.3772 -0.3004
 3933SOL    HW113806   8.934   7.293   9.121  0.2163 -0.3455  0.2332
 3933SOL    HW213807   9.039   7.360   9.206  0.7335 -0.3803 -0.3711
 3934SOL     OW13808   1.514   6.125  10.765 -0.6319  0.2515 -0.3570
 3934SOL    HW113809   1.470   6.042  10.749 -0.8943  0.1012  0.9784
 3934SOL    HW213810   1.467   6.163  10.840  0.3065  0.9784 -0.1125
 3935SOL     OW13811   9.580   4.002   2.964 -0.1422  0.5640  0.0205
 3935SOL    HW113812   9.669   3.969   2.963 -0.2378  0.3159 -0.4618
 3935SOL    HW213813   9.577   4.066   2.892 -0.4412  0.3203 -0.1871
 3936SOL     OW13814   5.427   5.954   8.258 -0.3657  0.4863 -0.0249
 3936SOL    HW113815   5.388   6.032   8.219 -2.0420  0.1866  0.9613
 3936SOL    HW213816   5.487   5.988   8.324 -0.7548  0.9555  0.0928
 3937SOL     OW13817   7.597  10.567   7.065  0.1752  0.4756 -0.0703
 3937SOL    HW113818   7.603  10.593   7.156  1.2507  4.0743 -1.0086
 3937SOL    HW213819   7.506  10.584   7.041  0.5173  2.2242 -0.2788
 3938SOL     OW13820   2.147   1.653   2.825  0.2326 -0.4059 -0.6019
 3938SOL    HW113821   2.175   1.664   2.915 -1.2072  0.8835 -0.2615
 3938SOL    HW213822   2.092   1.574   2.825 -2.3045  1.2304  0.3846
 3939SOL     OW13823   1.746   9.129   0.802  0.4643 -0.0708  0.2093
 3939SOL    HW113824   1.773   9.042   0.831 -0.6818  0.2982  2.6453
 3939SOL    HW213825   1.792   9.189   0.861 -1.3656  0.7926  0.8231
 3940SOL     OW13826   5.058   5.255   9.336 -0.6693 -0.4510  0.2718
 3940SOL    HW113827   5.119   5.207   9.393 -1.0912 -0.1099  1.0197
 3940SOL    HW213828   5.022   5.324   9.392  0.6463  1.3923 -1.0145
 3941SOL     OW13829   2.697   0.697   4.494  0.1119  0.3076  0.2923
 3941SOL    HW113830   2.697   0.783   4.451 -1.0052  1.2935  2.1337
 3941SOL    HW213831   2.605   0.679   4.511  0.3938 -0.9288  0.6003
 3942SOL     OW13832  10.121   9.758   2.407  0.3979 -0.0831  0.0233
 3942SOL    HW113833  10.151   9.670   2.431  1.6022  0.8163  2.0916
 3942SOL    HW213834  10.087   9.794   2.488  0.6254  1.6361 -0.6138
 3943SOL     OW13835  11.085   3.062   2.620  0.2097  0.3408 -0.1915
 3943SOL    HW113836  11.117   3.143   2.660 -1.8765  0.5161  1.3415
 3943SOL    HW213837  11.105   2.995   2.685  1.0287 -0.2213 -1.0094
 3944SOL     OW13838   2.491   2.335   9.127 -0.2925 -0.0639 -0.2266
 3944SOL    HW113839   2.424   2.397   9.098  0.4227  0.6837 -0.3027
 3944SOL    HW213840   2.490   2.342   9.223 -0.6654 -0.4217 -0.2030
 3945SOL     OW13841   2.996   4.032   6.209 -0.4090  0.4178 -0.2558
 3945SOL    HW113842   3.023   4.123   6.219 -1.0471  0.9756 -2.7528
 3945SOL    HW213843   3.052   3.982   6.269  0.4885  2.3531  0.5773
 3946SOL     OW13844   4.810   1.552  10.790 -0.9470 -0.2667  0.5443
 3946SOL    HW113845   4.802   1.594  10.704  0.5260 -0.8233  0.1084
 3946SOL    HW213846   4.841   1.621  10.848 -1.5059 -0.0024  0.5368
 3947SOL     OW13847  10.948   2.343   3.132 -0.6924 -0.2976  0.4658
 3947SOL    HW113848  11.039   2.340   3.161 -0.3565 -1.0147 -0.6390
 3947SOL    HW213849  10.915   2.427   3.166  0.4476  0.0956  0.6361
 3948SOL     OW13850   9.661   8.540   7.717 -0.0262  0.3931 -0.1254
 3948SOL    HW113851   9.605   8.617   7.702 -2.0180 -0.4082  2.4693
 3948SOL    HW213852   9.607   8.466   7.688  1.0101 -0.2011 -0.5765
 3949SOL     OW13853   1.658   0.866   9.014 -0.0193  0.2124  0.4079
 3949SOL    HW113854   1.746   0.879   9.050  0.6124 -0.6945 -0.7314
 3949SOL    HW213855   1.604   0.844   9.090  0.9508 -0.1733  0.9997
 3950SOL     OW13856   0.727   8.382   6.645  0.2536  0.3151  0.6903
 3950SOL    HW113857   0.800   8.353   6.700 -0.7178 -2.1918  0.8158
 3950SOL    HW213858   0.702   8.303   6.596 -2.7581  0.8741  1.1306
 3951SOL     OW13859   0.550   6.086   9.248  0.2194 -0.2960  0.0095
 3951SOL    HW113860   0.555   6.180   9.230  0.6508 -0.2923  0.1498
 3951SOL    HW213861   0.581   6.044   9.168  2.6404 -0.2736  0.8571
 3952SOL     OW13862   4.308   6.535   9.057  0.6737 -0.2446  0.4988
 3952SOL    HW113863   4.328   6.575   9.141  1.8776 -0.9713  0.5814
 3952SOL    HW213864   4.293   6.609   8.998 -0.6611  0.2695  1.4342
 3953SOL     OW13865   1.609   5.766   4.959 -0.4132  0.7629  0.2263
 3953SOL    HW113866   1.669   5.834   4.991  1.8526 -0.4444 -1.2026
 3953SOL    HW213867   1.626   5.691   5.015 -2.3753  1.0593  1.3208
 3954SOL     OW13868   9.289  11.041   3.923 -0.2162 -0.5609 -0.3275
 3954SOL    HW113869   9.331  10.991   3.993 -1.5020 -0.3689  0.6044
 3954SOL    HW213870   9.313  10.993   3.843  2.6646  0.1590 -0.0068
 3955SOL     OW13871   9.832   6.524   3.372  0.2545 -0.0356  0.3896
 3955SOL    HW113872   9.888   6.458   3.331 -0.5751 -0.7478  0.3730
 3955SOL    HW213873   9.868   6.607   3.342  1.6940 -0.4424  0.9016
 3956SOL     OW13874   2.827   6.907   1.301  0.1042 -0.3560  0.4928
 3956SOL    HW113875   2.791   6.970   1.239  0.0081 -1.4987 -0.6451
 3956SOL    HW213876   2.759   6.898   1.368 -1.0328 -1.1977 -0.7286
 3957SOL     OW13877   0.192   6.370   5.637 -0.1375 -0.2978  0.4773
 3957SOL    HW113878   0.106   6.390   5.600 -0.4661 -0.8458  0.9265
 3957SOL    HW213879   0.218   6.288   5.597 -0.7600 -1.2045  1.8507
 3958SOL     OW13880   9.921   3.337   0.125  0.2994  0.2464  0.3267
 3958SOL    HW113881   9.830   3.361   0.142 -0.5014 -0.6701 -2.2720
 3958SOL    HW213882   9.924   3.243   0.143  0.9543  0.4117  1.1396
 3959SOL     OW13883   4.433   6.735   3.178 -0.5470  0.0581  0.0096
 3959SOL    HW113884   4.399   6.767   3.262 -2.4779 -0.8268 -0.3842
 3959SOL    HW213885   4.357   6.738   3.119  0.7139  0.4404 -1.6599
 3960SOL     OW13886   3.192   9.609   3.993  0.7431 -0.3006 -0.6868
 3960SOL    HW113887   3.108   9.635   3.954 -0.0755 -0.0168  1.1591
 3960SOL    HW213888   3.214   9.680   4.053  1.9075 -0.7534 -0.5504
 3961SOL     OW13889   2.639   8.510   8.162 -0.3416  0.7236 -0.2947
 3961SOL    HW113890   2.672   8.487   8.249 -0.2582  0.7643 -0.3158
 3961SOL    HW213891   2.658   8.434   8.108 -2.0736 -0.0800  0.1545
 3962SOL     OW13892   0.623   4.227  10.390  0.0153  0.1470  0.6343
 3962SOL    HW113893   0.568   4.300  10.365 -0.6919 -0.3759  0.6337
 3962SOL    HW213894   0.629   4.172  10.312  1.1655  0.5662  0.4004
 3963SOL     OW13895   8.555   3.207   9.468  0.2713 -0.1655  0.2268
 3963SOL    HW113896   8.549   3.303   9.462  0.9169 -0.1833 -1.1367
 3963SOL    HW213897   8.636   3.191   9.516 -0.3809 -0.0529  1.4222
 3964SOL     OW13898   7.303   8.550   6.615 -0.2846 -0.2810  0.0565
 3964SOL    HW113899   7.230   8.501   6.654 -0.7664  1.3018  1.2241
 3964SOL    HW213900   7.380   8.495   6.632 -0.7840 -0.5967  1.4224
 3965SOL     OW13901   9.436   5.782   3.074 -0.3231  0.7127 -0.4397
 3965SOL    HW113902   9.445   5.878   3.068 -0.1913  0.6482 -1.4672
 3965SOL    HW213903   9.510   5.748   3.023 -0.9070  0.0700 -0.8717
 3966SOL     OW13904   1.667   9.038  10.079  0.0631 -0.3373  0.0941
 3966SOL    HW113905   1.608   8.998  10.015 -0.0058 -0.2813  0.1235
 3966SOL    HW213906   1.681   8.971  10.145 -0.5929 -0.0803  0.5014
 3967SOL     OW13907   0.315   8.354  10.406 -0.6534  0.5732 -0.4415
 3967SOL    HW113908   0.324   8.288  10.337 -0.7369  0.4405 -0.3276
 3967SOL    HW213909   0.241   8.322  10.459 -0.1309  0.2902  0.1346
 3968SOL     OW13910   4.880   6.060   2.884  0.2457 -0.0789 -0.1689
 3968SOL    HW113911   4.937   6.055   2.807  1.9460  1.1394  0.9646
 3968SOL    HW213912   4.917   6.129   2.938 -1.6060 -0.0885  1.2282
 3969SOL     OW13913  10.377  10.303   2.579 -0.1034 -0.1022 -0.9019
 3969SOL    HW113914  10.392  10.263   2.664  1.2287 -0.7486 -1.4086
 3969SOL    HW213915  10.414  10.391   2.587 -1.7129  0.5523 -0.2448
 3970SOL     OW13916   9.018   6.833   9.894  0.7994 -0.9109 -0.1888
 3970SOL    HW113917   9.055   6.759   9.942 -0.9038 -0.8784  1.2787
 3970SOL    HW213918   8.925   6.814   9.888  0.7280 -0.1452 -2.2024
 3971SOL     OW13919  10.348   1.941   8.158  0.5217  0.1711 -0.8567
 3971SOL    HW113920  10.437   1.962   8.188  0.7054 -0.2698 -1.0882
 3971SOL    HW213921  10.358   1.859   8.110 -0.4825 -1.6688  1.8174
 3972SOL     OW13922  10.364   3.487   5.105 -0.2855  0.1798  0.2627
 3972SOL    HW113923  10.331   3.400   5.126  1.5420 -0.3423  1.1644
 3972SOL    HW213924  10.403   3.477   5.018  0.3310 -0.0409  0.5574
 3973SOL     OW13925   0.671   4.543   9.094 -0.8552  0.3011  0.5759
 3973SOL    HW113926   0.654   4.450   9.079 -0.0610  0.2319 -0.0024
 3973SOL    HW213927   0.754   4.544   9.143 -0.8542  0.6971  0.5706
 3974SOL     OW13928  10.436   6.069   9.780  0.0335 -0.3734 -0.1382
 3974SOL    HW113929  10.519   6.058   9.734 -0.7488 -0.1590 -1.6676
 3974SOL    HW213930  10.370   6.039   9.718 -1.1831  1.1587  0.3589
 3975SOL     OW13931   8.097   6.308   9.047  0.2462  0.2166  0.2437
 3975SOL    HW113932   8.049   6.280   9.125  1.4502 -2.2530  0.1888
 3975SOL    HW213933   8.163   6.370   9.080 -0.1842  0.3080  0.9513
 3976SOL     OW13934   1.709   0.288   3.594 -0.2155 -0.4091 -0.1791
 3976SOL    HW113935   1.785   0.306   3.538  0.3154 -1.4666  0.1864
 3976SOL    HW213936   1.667   0.373   3.605  0.7466  0.1373 -0.6290
 3977SOL     OW13937   6.879   4.468   9.354  0.0664 -0.1582 -0.5360
 3977SOL    HW113938   6.860   4.379   9.383  1.6388  0.0261  1.3595
 3977SOL    HW213939   6.870   4.521   9.434  3.3825  0.6277 -0.5435
 3978SOL     OW13940  10.463   4.573   1.434  0.1547 -0.0351  0.3713
 3978SOL    HW113941  10.373   4.592   1.461  0.1441  1.5767 -0.6267
 3978SOL    HW213942  10.511   4.654   1.453  0.7863  0.0770 -1.5350
 3979SOL     OW13943   3.194   4.690   5.204  0.1353 -0.0314  0.9617
 3979SOL    HW113944   3.157   4.728   5.125  0.1594  1.3563  1.5814
 3979SOL    HW213945   3.200   4.596   5.186  0.8683  0.3473 -0.9638
 3980SOL     OW13946   5.993   9.376   9.599 -0.0004  0.7224  0.2342
 3980SOL    HW113947   6.045   9.408   9.526  1.7625  0.0946  1.1534
 3980SOL    HW213948   5.904   9.371   9.565  0.8564 -0.1073 -2.0609
 3981SOL     OW13949   0.623   0.878   1.974 -0.1582  0.3742  0.0202
 3981SOL    HW113950   0.685   0.947   2.000  0.8983  0.1434 -1.7374
 3981SOL    HW213951   0.596   0.839   2.057  2.4144  0.1884  0.8801
 3982SOL     OW13952   2.469   4.216   0.173  0.1581  0.6457  0.0988
 3982SOL    HW113953   2.390   4.265   0.150 -0.2115 -0.6672 -1.6570
 3982SOL    HW213954   2.541   4.274   0.152 -0.2942  0.8544 -0.9255
 3983SOL     OW13955  10.386  10.944   1.286 -0.0861  0.4613  0.3464
 3983SOL    HW113956  10.391  10.995   1.205  0.9498  1.3102  0.9152
 3983SOL    HW213957  10.297  10.957   1.318 -0.0652  1.2999  0.0764
 3984SOL     OW13958   3.778   9.681   2.080  0.6927  0.3318  0.4048
 3984SOL    HW113959   3.831   9.732   2.019 -1.0619  1.2772 -0.4014
 3984SOL    HW213960   3.692   9.724   2.080 -0.4864 -1.8413  0.6837
 3985SOL     OW13961   8.604   5.119   1.426 -0.1082 -0.6787 -0.0704
 3985SOL    HW113962   8.566   5.037   1.459 -1.6600  0.1974  0.3976
 3985SOL    HW213963   8.657   5.092   1.351 -0.3510 -2.1476  0.2572
 3986SOL     OW13964   8.695   2.727   2.775 -0.6847  0.3069  0.0852
 3986SOL    HW113965   8.734   2.770   2.852 -0.0958  1.5352 -0.8713
 3986SOL    HW213966   8.620   2.679   2.810 -0.2769  0.6328  1.4694
 3987SOL     OW13967   1.177   3.660   3.478  0.1479  0.3242 -0.2387
 3987SOL    HW113968   1.272   3.669   3.474  0.1356  0.4554 -0.2425
 3987SOL    HW213969   1.145   3.750   3.485 -0.1714  0.5782 -3.4967
 3988SOL     OW13970   0.201   3.583   1.132 -0.2842 -0.1777  0.0345
 3988SOL    HW113971   0.127   3.644   1.128  0.7537  1.2864  1.6999
 3988SOL    HW213972   0.276   3.638   1.156  1.4648 -1.5539 -1.9663
 3989SOL     OW13973   6.580   4.474   6.946 -0.5768 -0.6966  0.5089
 3989SOL    HW113974   6.487   4.449   6.940 -0.8318 -0.4026  2.4380
 3989SOL    HW213975   6.603   4.501   6.858 -2.4680 -0.3710  0.0601
 3990SOL     OW13976   9.765   6.130   4.628  0.3468  0.4129  0.1158
 3990SOL    HW113977   9.819   6.192   4.677  2.0349  0.1643 -1.3282
 3990SOL    HW213978   9.729   6.180   4.555  0.9104 -0.0552 -0.4973
 3991SOL     OW13979   4.052   6.618  10.587  0.1842  0.2813 -0.0964
 3991SOL    HW113980   4.013   6.704  10.568  0.5823  0.1310 -1.7947
 3991SOL    HW213981   4.140   6.638  10.618  0.4172  0.5071 -0.8658
 3992SOL     OW13982   4.290   9.240   7.648  0.3525 -0.1819 -0.1004
 3992SOL    HW113983   4.200   9.255   7.677 -0.1231  0.1601 -1.6571
 3992SOL    HW213984   4.291   9.150   7.617  0.8396 -0.5289  0.9101
 3993SOL     OW13985   1.831   8.236   9.995  0.0182  0.1735 -0.0272
 3993SOL    HW113986   1.825   8.332   9.994 -0.8660  0.1851  2.2458
 3993SOL    HW213987   1.779   8.209  10.070  1.3086 -2.0340  0.1601
 3994SOL     OW13988   2.495   4.163   5.910  0.5381  0.0337  0.2483
 3994SOL    HW113989   2.428   4.114   5.957  0.7738  1.3176  2.0472
 3994SOL    HW213990   2.559   4.097   5.883 -0.4705 -0.9502  0.2029
 3995SOL     OW13991   8.761   6.923   8.880 -0.0665 -0.0601  0.0698
 3995SOL    HW113992   8.750   7.017   8.871 -0.0806 -0.0702 -0.0229
 3995SOL    HW213993   8.828   6.901   8.814 -0.7196 -0.2496 -0.5454
 3996SOL     OW13994   4.263   9.533   9.690  0.0407 -0.0033  0.2217
 3996SOL    HW113995   4.268   9.460   9.751  0.2030  0.0460  0.2697
 3996SOL    HW213996   4.300   9.607   9.738  2.0896 -0.4077 -0.6153
 3997SOL     OW13997   8.810   8.575   5.105  0.5118  0.1006 -0.1550
 3997SOL    HW113998   8.760   8.548   5.028  1.3216 -2.0925  0.0238
 3997SOL    HW213999   8.884   8.624   5.068  0.6843 -0.5941 -0.7566
 3998SOL     OW14000   2.433   4.152   0.626 -0.2870 -0.2158 -0.2711
 3998SOL    HW114001   2.412   4.207   0.551 -0.1836 -0.2499 -0.3250
 3998SOL    HW214002   2.509   4.194   0.666  0.9933 -1.3354 -1.3989
 3999SOL     OW14003   9.510   3.532   1.204 -0.0851  0.1290  0.1533
 3999SOL    HW114004   9.548   3.454   1.164  0.6570  0.0170  1.0287
 3999SOL    HW214005   9.585   3.578   1.243 -0.7837  0.1005  1.6195
 4000SOL     OW14006   6.716   0.799   3.897  0.1759 -0.0133  1.3118
 4000SOL    HW114007   6.811   0.805   3.891  0.3035 -1.2015  1.9373
 4000SOL    HW214008   6.684   0.859   3.829  1.3715 -0.1672  0.5870
 4001SOL     OW14009   0.738   4.274   5.217  0.4732  0.5888 -0.7460
 4001SOL    HW114010   0.672   4.210   5.244 -0.3804  0.9703 -1.8630
 4001SOL    HW214011   0.778   4.235   5.139 -1.1048  2.0398 -2.3556
 4002SOL     OW14012   8.741   4.853  10.231 -0.1559 -0.4388  0.5289
 4002SOL    HW114013   8.653   4.853  10.269 -0.5165 -0.4848 -0.3034
 4002SOL    HW214014   8.798   4.832  10.305 -0.9536 -1.6640  0.8282
 4003SOL     OW14015   8.951   2.079   4.644 -0.0531  0.3282 -0.3173
 4003SOL    HW114016   9.023   2.086   4.582  0.2872 -0.2322  0.0027
 4003SOL    HW214017   8.980   2.012   4.706 -0.9208 -0.0157 -0.2796
 4004SOL     OW14018   0.228   9.321  10.373 -0.1007  0.2723 -0.7210
 4004SOL    HW114019   0.319   9.298  10.354  0.0252  1.2574 -1.3608
 4004SOL    HW214020   0.188   9.337  10.287 -0.8436 -0.0028 -0.4424
 4005SOL     OW14021   1.741   9.800   5.064 -0.0369 -0.0848  0.0908
 4005SOL    HW114022   1.743   9.736   5.135 -0.9124 -2.1073 -1.5831
 4005SOL    HW214023   1.656   9.843   5.072 -1.4046 -2.3123 -1.2576
 4006SOL     OW14024   0.849   5.321   3.232 -0.0249 -0.8322  0.1338
 4006SOL    HW114025   0.811   5.360   3.153  0.0782  0.3246  0.6365
 4006SOL    HW214026   0.859   5.228   3.211 -0.7746 -0.6894 -0.9116
 4007SOL     OW14027   7.311   2.379  10.052 -0.0084  0.8818 -0.0416
 4007SOL    HW114028   7.344   2.340   9.971 -2.1846  0.4289 -0.7715
 4007SOL    HW214029   7.286   2.468  10.028  2.5726  1.9909  1.0275
 4008SOL     OW14030  10.193   8.610   1.634  0.1353  0.1767  0.1675
 4008SOL    HW114031  10.247   8.619   1.712 -1.3868 -2.5865  1.6882
 4008SOL    HW214032  10.140   8.690   1.632  1.2472  0.9654  1.0747
 4009SOL     OW14033   6.698   0.897   7.081 -0.2432  0.0102 -0.0985
 4009SOL    HW114034   6.613   0.900   7.037  0.5268 -0.7829 -1.7287
 4009SOL    HW214035   6.689   0.958   7.154 -2.2327 -0.1173 -0.1745
 4010SOL     OW14036   8.059   5.116   8.934  0.0704 -0.0489 -0.3078
 4010SOL    HW114037   8.139   5.150   8.974  0.1650  1.0095 -1.3500
 4010SOL    HW214038   8.004   5.090   9.008  0.6660  0.8612  0.4794
 4011SOL     OW14039   0.129   6.989   5.281  0.2765  0.3086  0.2120
 4011SOL    HW114040   0.191   6.946   5.223  0.1185  0.5909 -0.1660
 4011SOL    HW214041   0.128   6.935   5.360  0.6560  0.0498  0.0375
 4012SOL     OW14042   2.973   9.962   3.562  0.7754  0.0600  0.3752
 4012SOL    HW114043   2.901   9.961   3.499  2.0797 -0.0199 -1.1700
 4012SOL    HW214044   2.964   9.879   3.609  0.5312 -0.4939 -0.6026
 4013SOL     OW14045  10.981   7.822   2.071  1.0050 -0.6050  0.7791
 4013SOL    HW114046  11.025   7.906   2.081  1.5856 -1.0714  2.6603
 4013SOL    HW214047  11.037   7.760   2.119 -1.0286 -1.4569  2.1992
 4014SOL     OW14048   5.995   2.128   4.208 -0.5760  1.1263 -0.5139
 4014SOL    HW114049   6.081   2.145   4.246 -0.9002  1.4948  0.0636
 4014SOL    HW214050   6.011   2.124   4.114  0.1341  0.8157 -0.3905
 4015SOL     OW14051   9.217   5.994  11.064 -0.2969 -0.3498 -0.0070
 4015SOL    HW114052   9.248   5.968  11.150 -1.5873 -0.6983  0.3775
 4015SOL    HW214053   9.175   6.078  11.078  0.9667  0.4138 -0.6338
 4016SOL     OW14054   3.589  10.450   0.666 -0.1691 -0.3223 -0.2382
 4016SOL    HW114055   3.561  10.539   0.647 -0.8497 -0.6322 -0.7619
 4016SOL    HW214056   3.645  10.425   0.592 -1.2407 -0.8502 -0.9112
 4017SOL     OW14057   8.014   4.719   6.008  0.6504  0.1155  0.6286
 4017SOL    HW114058   7.961   4.692   6.083  1.3229 -0.5238  0.8796
 4017SOL    HW214059   7.998   4.814   6.001 -2.9744 -0.4382 -1.2135
 4018SOL     OW14060   9.891   8.372   2.408 -0.6590  0.0829 -0.2765
 4018SOL    HW114061   9.932   8.435   2.467  0.2850  0.9723 -1.8235
 4018SOL    HW214062   9.818   8.336   2.458  0.5610  0.2283  1.6920
 4019SOL     OW14063   0.964   8.678   6.861  0.4194  0.2736 -0.2245
 4019SOL    HW114064   0.936   8.677   6.770  0.2865  0.1685 -0.1837
 4019SOL    HW214065   0.882   8.679   6.911  0.3484 -3.0075 -0.0362
 4020SOL     OW14066   5.595   7.980   6.195 -0.1534  0.4392 -0.4514
 4020SOL    HW114067   5.676   7.953   6.239  0.2672  1.2461 -0.7198
 4020SOL    HW214068   5.550   8.036   6.258 -0.1501  0.5801 -0.5739
 4021SOL     OW14069   8.336   8.779   4.648 -0.6267 -0.6427 -0.5219
 4021SOL    HW114070   8.364   8.780   4.557 -0.8585  0.0033 -0.5875
 4021SOL    HW214071   8.262   8.718   4.650 -1.4639  0.3156 -1.0265
 4022SOL     OW14072   7.502   1.643   7.123 -0.2446  0.2288  0.2217
 4022SOL    HW114073   7.566   1.571   7.115 -0.3957  0.1291 -0.1354
 4022SOL    HW214074   7.531   1.707   7.057 -1.3280 -0.4511 -0.9619
 4023SOL     OW14075   4.378   5.060   2.380 -0.3825 -0.3013 -0.3702
 4023SOL    HW114076   4.413   5.007   2.452  0.0007  0.9675  0.4151
 4023SOL    HW214077   4.293   5.020   2.360 -0.9791 -0.0907  1.4981
 4024SOL     OW14078   4.831   6.820  10.957  0.0960 -0.0147 -0.4446
 4024SOL    HW114079   4.849   6.749  11.018  1.2932  0.2462 -0.4602
 4024SOL    HW214080   4.918   6.847  10.926 -0.3671  1.2019 -0.7202
 4025SOL     OW14081  10.251   7.240   4.066 -0.1862  0.1872  0.3646
 4025SOL    HW114082  10.328   7.296   4.078 -0.5645  0.6857  0.4999
 4025SOL    HW214083  10.274   7.183   3.993 -0.7177  2.1406 -1.4024
 4026SOL     OW14084  11.010   3.520   4.124 -0.2266  0.2225 -0.1647
 4026SOL    HW114085  11.066   3.566   4.063 -2.0040  1.8992 -0.6419
 4026SOL    HW214086  10.956   3.463   4.070 -0.3478  0.1150  0.0645
 4027SOL     OW14087   5.147   8.516   1.455 -0.4684  0.0580 -0.1656
 4027SOL    HW114088   5.106   8.441   1.412 -1.4513  0.8216 -0.5909
 4027SOL    HW214089   5.083   8.543   1.521  0.2724 -0.0147  0.6160
 4028SOL     OW14090   5.418   8.877   2.667  0.3256  0.1372 -0.5068
 4028SOL    HW114091   5.397   8.819   2.593  0.2725 -1.4008  0.6686
 4028SOL    HW214092   5.472   8.823   2.725  0.7582  1.4660  0.3635
 4029SOL     OW14093   6.127   6.058   2.623 -0.2815  0.1330 -0.1982
 4029SOL    HW114094   6.138   6.084   2.715 -1.2083 -0.4659  0.1000
 4029SOL    HW214095   6.194   5.992   2.609 -0.3003  0.0396  0.1342
 4030SOL     OW14096   9.244   7.084   2.988  0.8390  0.5504 -0.1575
 4030SOL    HW114097   9.211   6.999   3.017  2.2666  0.1563  0.3644
 4030SOL    HW214098   9.191   7.105   2.911 -0.1706 -0.3515  0.2697
 4031SOL     OW14099   1.682   6.870  10.790  0.3001 -0.0103  0.2481
 4031SOL    HW114100   1.739   6.863  10.713  0.1985 -0.9686  0.2443
 4031SOL    HW214101   1.707   6.796  10.845 -0.7148 -0.2611  0.3932
 4032SOL     OW14102   1.397   6.841   0.124  0.1414 -0.1770 -0.1572
 4032SOL    HW114103   1.410   6.873   0.035 -0.0438  0.7476  0.1309
 4032SOL    HW214104   1.358   6.915   0.170  0.0208 -0.7207  0.6357
 4033SOL     OW14105   3.354   9.318   8.630  0.2723 -0.4689 -0.7148
 4033SOL    HW114106   3.269   9.281   8.655  0.3590 -0.9342 -1.0786
 4033SOL    HW214107   3.357   9.307   8.535  0.2082  0.6948 -0.8663
 4034SOL     OW14108  11.027   5.409   1.013 -0.1454 -0.2475  0.1281
 4034SOL    HW114109  11.036   5.452   0.928 -1.9972 -1.1296 -0.5497
 4034SOL    HW214110  11.112   5.367   1.027  1.4291  2.7569  0.3971
 4035SOL     OW14111   8.311   6.747   2.367  0.2820  1.0723 -0.1352
 4035SOL    HW114112   8.281   6.670   2.414  1.5971 -0.0464 -1.0422
 4035SOL    HW214113   8.234   6.780   2.321 -0.5221  0.9259  1.0723
 4036SOL     OW14114   0.182   5.043  10.317  0.1313  0.3790 -0.3778
 4036SOL    HW114115   0.129   5.040  10.397  0.0474  0.0675 -0.4475
 4036SOL    HW214116   0.272   5.031  10.348  0.1886  1.0903 -0.2380
 4037SOL     OW14117   5.362   0.158  10.914 -0.0810  0.2763 -0.1359
 4037SOL    HW114118   5.294   0.205  10.963  0.0629  0.1995  0.1402
 4037SOL    HW214119   5.369   0.206  10.832 -1.3034 -0.3975 -0.6698
 4038SOL     OW14120   0.506  10.178   3.860  0.3866 -0.0468 -0.3934
 4038SOL    HW114121   0.414  10.158   3.876  0.0148  1.4655 -0.4872
 4038SOL    HW214122   0.522  10.257   3.911  1.2329  0.5224 -1.4984
 4039SOL     OW14123   9.845  10.248   5.334  0.4481 -0.0426 -1.0613
 4039SOL    HW114124   9.864  10.155   5.334  1.8965  0.2320 -1.1017
 4039SOL    HW214125   9.860  10.276   5.244 -1.5105 -0.0345 -1.4259
 4040SOL     OW14126   1.281   8.775   2.878  0.2365  0.1963 -0.2037
 4040SOL    HW114127   1.248   8.834   2.811  1.1676 -0.0191 -0.8682
 4040SOL    HW214128   1.366   8.746   2.845  0.2425 -0.7289  0.5758
 4041SOL     OW14129   6.091   7.190   8.209  0.2517  1.0188 -0.2230
 4041SOL    HW114130   6.019   7.144   8.166  0.4325  1.8495 -1.4649
 4041SOL    HW214131   6.056   7.276   8.229  0.8405  1.3711 -0.6886
 4042SOL     OW14132   0.117   5.715  11.002  0.1300 -0.5340 -0.4045
 4042SOL    HW114133   0.104   5.761  10.919  1.0647  1.2396  0.3891
 4042SOL    HW214134   0.090   5.777  11.069  1.0827 -1.2702  0.7030
 4043SOL     OW14135   6.549   5.595   0.053  0.4270  0.7664 -0.0885
 4043SOL    HW114136   6.463   5.585   0.094  0.4708 -1.3741 -0.4218
 4043SOL    HW214137   6.529   5.624  -0.036  0.1316  1.5024  0.2083
 4044SOL     OW14138   8.359   8.879   7.144  0.2402  0.0478  0.4413
 4044SOL    HW114139   8.357   8.789   7.176 -0.6364  0.4619  1.6221
 4044SOL    HW214140   8.270   8.912   7.161  0.5393  1.1222 -0.0105
 4045SOL     OW14141   3.619   4.936   3.772  0.5704 -0.4339 -0.3866
 4045SOL    HW114142   3.594   5.022   3.738  2.0486 -0.3426 -1.3016
 4045SOL    HW214143   3.688   4.954   3.835 -0.6997 -0.7976  1.1935
 4046SOL     OW14144   1.633   9.301   9.933  0.3682  0.3184  0.3643
 4046SOL    HW114145   1.542   9.276   9.952  0.2725 -0.6523 -1.2408
 4046SOL    HW214146   1.681   9.218   9.933  0.7930  0.5459 -1.1472
 4047SOL     OW14147   9.678   7.864   6.810 -0.1380 -0.0948 -0.3123
 4047SOL    HW114148   9.695   7.880   6.903  0.1715 -0.0025 -0.3835
 4047SOL    HW214149   9.591   7.824   6.808 -0.7952  1.2638 -0.0967
 4048SOL     OW14150   6.408   7.304   8.870  0.0654  0.2060  0.4744
 4048SOL    HW114151   6.336   7.240   8.870 -0.8379  1.0841  3.0037
 4048SOL    HW214152   6.375   7.377   8.923  1.8391  1.8860 -0.5981
 4049SOL     OW14153   0.141   6.281   2.854 -0.4468  0.7089  0.1256
 4049SOL    HW114154   0.182   6.196   2.873 -1.3437  0.4714  1.1579
 4049SOL    HW214155   0.133   6.283   2.758 -1.3700 -0.8715  0.1293
 4050SOL     OW14156   4.823   8.993   5.673 -0.0121  0.5806  0.5153
 4050SOL    HW114157   4.755   9.048   5.712 -3.3429 -2.4586 -0.3467
 4050SOL    HW214158   4.797   8.985   5.581  3.4113  1.6773 -0.6937
 4051SOL     OW14159   5.410   5.068  10.668  0.4689  0.2456  0.1632
 4051SOL    HW114160   5.322   5.036  10.649  0.8075 -1.6083  1.4600
 4051SOL    HW214161   5.468   5.008  10.622  1.1119 -1.1636  2.6064
 4052SOL     OW14162  10.411   3.013   3.758 -0.1443 -0.5433  0.0899
 4052SOL    HW114163  10.456   3.098   3.769  1.2783 -1.1788 -0.5108
 4052SOL    HW214164  10.392   2.985   3.847  0.6752 -0.2479  0.3684
 4053SOL     OW14165   9.766   5.683   3.371 -0.6209  0.4282 -0.0305
 4053SOL    HW114166   9.785   5.639   3.454  1.1323  0.1997 -0.5042
 4053SOL    HW214167   9.831   5.753   3.366 -2.2286  1.9774 -0.1322
 4054SOL     OW14168   3.121  10.455   7.162 -1.0716 -0.2826 -0.0357
 4054SOL    HW114169   3.110  10.368   7.199  0.6144  0.0035  1.2639
 4054SOL    HW214170   3.061  10.510   7.212 -1.1219 -0.4484  0.0900
 4055SOL     OW14171  10.541   6.752   3.544 -0.5622 -0.3549 -0.1534
 4055SOL    HW114172  10.477   6.683   3.559 -1.3152  0.1209 -1.1313
 4055SOL    HW214173  10.584   6.763   3.629  0.1185 -2.5285 -0.1378
 4056SOL     OW14174   1.317   3.604   6.836 -0.4149 -0.0790 -0.1148
 4056SOL    HW114175   1.250   3.574   6.774  1.4128 -0.4324 -2.0366
 4056SOL    HW214176   1.343   3.690   6.803 -1.2779  0.9791  1.7978
 4057SOL     OW14177   1.111   9.458   2.466  0.1199  0.3670 -0.0339
 4057SOL    HW114178   1.090   9.548   2.493  0.5981  0.0046  1.6616
 4057SOL    HW214179   1.207   9.456   2.463  0.0894  0.1564 -0.9786
 4058SOL     OW14180  10.108   8.924  10.898  0.3777 -0.1805  0.6394
 4058SOL    HW114181  10.125   8.910  10.991 -0.4046 -0.6957  0.7172
 4058SOL    HW214182  10.194   8.936  10.859  0.7685 -0.6927  1.3232
 4059SOL     OW14183   1.884   7.467   1.528 -0.0642 -0.1041 -0.1852
 4059SOL    HW114184   1.832   7.406   1.581  0.3924 -0.6715 -0.3796
 4059SOL    HW214185   1.844   7.462   1.441  0.5425 -0.8295 -0.4295
 4060SOL     OW14186   3.555   7.506   4.604  0.2527 -0.3638  0.2848
 4060SOL    HW114187   3.552   7.493   4.698 -0.1218  0.2642  0.3693
 4060SOL    HW214188   3.629   7.565   4.590 -0.4742  0.5928  0.3353
 4061SOL     OW14189   2.709   7.041   8.758 -0.3570  0.5711 -0.1881
 4061SOL    HW114190   2.677   7.076   8.842  1.2504  0.3566  0.5590
 4061SOL    HW214191   2.708   7.116   8.699 -0.8090  0.9104  0.2388
 4062SOL     OW14192   3.578   8.274   8.507  0.4800  0.1240  0.5278
 4062SOL    HW114193   3.622   8.307   8.429 -2.0926  2.2367 -0.1646
 4062SOL    HW214194   3.529   8.197   8.477  0.0851  0.4957  0.2033
 4063SOL     OW14195   3.848   9.319   2.818  0.2391 -0.3550  0.3436
 4063SOL    HW114196   3.821   9.258   2.750  0.2853 -0.7231  0.6545
 4063SOL    HW214197   3.943   9.308   2.825  0.1302 -0.9336  1.0528
 4064SOL     OW14198   5.578   4.507   9.983  0.0593  0.5625  0.2290
 4064SOL    HW114199   5.594   4.545  10.070  2.1013  0.1268  0.0998
 4064SOL    HW214200   5.628   4.425   9.983 -0.0781  0.4524 -1.2788
 4065SOL     OW14201   3.238   6.163  10.150  0.0357  0.3128  0.6315
 4065SOL    HW114202   3.285   6.090  10.109 -0.7864  0.0659  0.0896
 4065SOL    HW214203   3.153   6.163  10.106 -0.3888  0.8823  1.4350
 4066SOL     OW14204   4.509   6.746  10.684 -0.2014  0.3537 -0.2174
 4066SOL    HW114205   4.519   6.760  10.589  0.0587 -0.0004 -0.2449
 4066SOL    HW214206   4.492   6.652  10.692 -0.4884  0.4276  0.0706
 4067SOL     OW14207   0.818   7.139   4.149  0.1733 -0.0607 -0.3171
 4067SOL    HW114208   0.756   7.128   4.221  0.6486  0.3307  0.1599
 4067SOL    HW214209   0.766   7.176   4.077 -0.0612  0.6533  0.2127
 4068SOL     OW14210   2.083   7.157   2.710  0.2698 -0.1921  0.0917
 4068SOL    HW114211   2.151   7.180   2.647  0.0079  2.7664  0.7604
 4068SOL    HW214212   2.006   7.136   2.657 -0.4045  3.7216 -0.7538
 4069SOL     OW14213   1.692  10.757  10.483 -0.2316 -0.0807 -0.3560
 4069SOL    HW114214   1.761  10.740  10.419  0.3394  1.1254 -0.0911
 4069SOL    HW214215   1.693  10.852  10.495 -1.0208 -0.1799  0.6683
 4070SOL     OW14216   7.598   2.871   0.218  0.1069 -0.0085  0.5127
 4070SOL    HW114217   7.597   2.870   0.122  0.8777 -2.0125  0.4741
 4070SOL    HW214218   7.676   2.921   0.241 -0.4602  1.0718  0.1195
 4071SOL     OW14219   6.763   3.132   1.238 -0.0271  0.5376 -0.4261
 4071SOL    HW114220   6.777   3.105   1.329  1.6708  0.4970 -0.6712
 4071SOL    HW214221   6.738   3.224   1.244  0.4660  0.6466  0.0690
 4072SOL     OW14222   7.133   4.198   1.776 -0.1079  0.3864 -0.0932
 4072SOL    HW114223   7.155   4.291   1.768 -0.1393  0.3005 -1.4361
 4072SOL    HW214224   7.070   4.195   1.848  0.1958  1.3490  0.2331
 4073SOL     OW14225  10.426   7.704  10.802 -0.6701  0.1432  0.5246
 4073SOL    HW114226  10.417   7.669  10.713  1.7926 -0.1684  0.3278
 4073SOL    HW214227  10.409   7.629  10.859  1.9680 -0.8364  0.1557
 4074SOL     OW14228   6.419  10.097  10.279  0.4325 -0.0816 -0.1309
 4074SOL    HW114229   6.515  10.095  10.283  0.5014  2.5585  1.4087
 4074SOL    HW214230   6.391  10.070  10.367 -0.3610 -2.4694 -1.0434
 4075SOL     OW14231   3.141   8.830   0.561 -0.1941  0.5353 -0.1953
 4075SOL    HW114232   3.214   8.792   0.513 -0.2164  0.1193  0.0905
 4075SOL    HW214233   3.158   8.925   0.560  0.8653  0.3853  0.6760
 4076SOL     OW14234  10.421   4.739   8.833 -0.0623  0.0148 -0.2740
 4076SOL    HW114235  10.404   4.722   8.740 -0.2618  0.4089 -0.3090
 4076SOL    HW214236  10.366   4.814   8.855 -0.7812 -0.6854  0.4169
 4077SOL     OW14237   7.368  10.199   8.253  0.5052 -0.1145  0.0053
 4077SOL    HW114238   7.378  10.199   8.157  0.9522 -1.1872  0.0310
 4077SOL    HW214239   7.458  10.207   8.286  0.6443 -2.2759  0.2986
 4078SOL     OW14240   0.957  10.915   2.472  0.2182  0.2650  0.1705
 4078SOL    HW114241   0.905  10.950   2.400  0.0304  0.5792  0.4549
 4078SOL    HW214242   0.896  10.910   2.546  0.6168  0.7700  0.5484
 4079SOL     OW14243   9.981   4.770   3.649  0.3455 -0.0212  0.2891
 4079SOL    HW114244  10.011   4.723   3.727 -0.3482 -1.5531 -0.3370
 4079SOL    HW214245   9.933   4.845   3.684  0.8678 -0.1435  1.3216
 4080SOL     OW14246   1.495   4.692   9.163  0.4233  0.0898  0.2204
 4080SOL    HW114247   1.453   4.738   9.090  0.9965 -0.4434 -0.4601
 4080SOL    HW214248   1.422   4.655   9.213 -0.0973  2.1301  1.0941
 4081SOL     OW14249   1.296   5.596   3.407 -0.1329 -0.5607 -0.0266
 4081SOL    HW114250   1.358   5.572   3.337 -0.0423  0.8935 -0.4674
 4081SOL    HW214251   1.250   5.673   3.373  1.3136  1.4500  2.2782
 4082SOL     OW14252  10.322   8.697   7.015  0.3313 -0.3429  0.0700
 4082SOL    HW114253  10.395   8.682   6.955  1.6773  0.0650  1.5177
 4082SOL    HW214254  10.247   8.655   6.973  1.2270 -0.2101 -1.7971
 4083SOL     OW14255  10.232   7.258   1.842  0.2561  0.1037 -0.5196
 4083SOL    HW114256  10.270   7.276   1.928 -1.4189  0.0436  0.2903
 4083SOL    HW214257  10.217   7.164   1.841  1.8291 -0.1633 -1.5979
 4084SOL     OW14258   2.913   9.888   9.660 -0.1935  0.1100 -0.1224
 4084SOL    HW114259   2.908   9.801   9.620 -0.4927  0.2869 -0.4724
 4084SOL    HW214260   2.832   9.897   9.709 -0.4817  0.4596 -0.6467
 4085SOL     OW14261   4.742   0.589   1.634  0.2212  0.7707 -0.0905
 4085SOL    HW114262   4.697   0.597   1.718  0.8919  2.5870  0.1489
 4085SOL    HW214263   4.684   0.633   1.572 -0.1255 -0.2917 -0.5334
 4086SOL     OW14264   1.396   2.240   0.642 -0.4086  0.1417 -0.0747
 4086SOL    HW114265   1.449   2.319   0.651 -0.7514  0.1830  2.0615
 4086SOL    HW214266   1.459   2.169   0.635  0.1417 -0.0008  4.0508
 4087SOL     OW14267   2.219   9.346   9.127 -0.1812 -0.1121  0.2898
 4087SOL    HW114268   2.188   9.337   9.217 -1.2604  1.2082  0.0907
 4087SOL    HW214269   2.148   9.392   9.082 -0.8845 -3.0700 -1.9295
 4088SOL     OW14270   4.753   1.956   4.613  0.0268  0.2901  0.0477
 4088SOL    HW114271   4.760   1.863   4.593 -0.6439  0.0722  0.7529
 4088SOL    HW214272   4.660   1.970   4.627  0.3462  0.4729  2.5416
 4089SOL     OW14273   5.943   3.694   7.497 -0.0318 -0.0872 -0.2606
 4089SOL    HW114274   5.996   3.757   7.546 -0.2439 -0.8341  0.9658
 4089SOL    HW214275   5.879   3.748   7.450 -1.0306  0.6011  1.7439
 4090SOL     OW14276   0.245   3.250   5.467 -0.7331 -0.4353  0.0696
 4090SOL    HW114277   0.215   3.173   5.418 -0.5052 -0.2805 -0.3157
 4090SOL    HW214278   0.260   3.316   5.400  0.7871 -0.6061  0.2176
 4091SOL     OW14279   0.812   9.574   8.915 -0.5679  0.2775  0.3074
 4091SOL    HW114280   0.899   9.534   8.916 -1.4340 -1.7824  2.3926
 4091SOL    HW214281   0.826   9.661   8.952  0.8134  0.6112 -0.8868
 4092SOL     OW14282   3.184   5.540   0.258 -0.2991 -0.4338 -0.3525
 4092SOL    HW114283   3.179   5.513   0.350  1.6974  0.1873 -0.0020
 4092SOL    HW214284   3.275   5.523   0.234 -0.0468  1.9249 -1.3727
 4093SOL     OW14285   1.255   2.198   8.483  0.6517 -0.0699 -0.4594
 4093SOL    HW114286   1.347   2.181   8.461  0.6550 -1.0426  0.2551
 4093SOL    HW214287   1.251   2.192   8.578 -0.0944  0.2908 -0.4583
 4094SOL     OW14288   1.487   2.808   7.780 -0.3273  0.2699 -0.2165
 4094SOL    HW114289   1.534   2.885   7.749  0.1095  0.6117  1.2049
 4094SOL    HW214290   1.521   2.736   7.727  1.9380  0.4851  0.8113
 4095SOL     OW14291   1.227   7.452   4.604 -0.2649 -0.0398 -0.3556
 4095SOL    HW114292   1.206   7.489   4.689 -1.9750 -0.4616 -0.5562
 4095SOL    HW214293   1.318   7.424   4.611 -0.0050  1.0334  0.9097
 4096SOL     OW14294   3.993   0.285   0.173 -0.2054 -0.2694 -0.3869
 4096SOL    HW114295   4.025   0.249   0.255 -2.0246 -0.2558  0.3688
 4096SOL    HW214296   3.972   0.376   0.193 -1.5196 -0.5099 -0.6049
 4097SOL     OW14297   3.664   3.106   1.468 -0.6892 -0.3555 -0.0985
 4097SOL    HW114298   3.583   3.137   1.428 -0.6874 -1.3230 -0.8830
 4097SOL    HW214299   3.680   3.021   1.428  0.5695 -0.3091  0.2605
 4098SOL     OW14300   5.075   9.550   0.626  0.3954  0.4644 -0.0872
 4098SOL    HW114301   5.041   9.465   0.654 -0.2915  0.4659 -0.8802
 4098SOL    HW214302   5.078   9.602   0.706  1.0863 -0.3879  0.4596
 4099SOL     OW14303   8.361   4.741   3.956 -0.1614 -0.6649 -0.2785
 4099SOL    HW114304   8.454   4.759   3.968 -0.4928  0.3274  0.9355
 4099SOL    HW214305   8.343   4.771   3.867  0.5997 -0.5467 -0.4030
 4100SOL     OW14306   9.672   6.593   3.021 -0.3380 -0.0157 -0.0740
 4100SOL    HW114307   9.657   6.670   3.076  0.4097  0.6266 -0.7640
 4100SOL    HW214308   9.767   6.588   3.011 -0.4552 -0.2269 -1.1698
 4101SOL     OW14309   4.224   4.788   0.333 -0.1929  0.1442 -0.0133
 4101SOL    HW114310   4.143   4.755   0.294 -0.2875  0.6916 -0.2900
 4101SOL    HW214311   4.194   4.847   0.402 -0.0620 -2.3345  2.3114
 4102SOL     OW14312   2.415   7.149   3.097 -0.6028 -0.0802  0.1404
 4102SOL    HW114313   2.478   7.145   3.169 -1.4405 -2.3927  0.8153
 4102SOL    HW214314   2.467   7.126   3.020 -0.0770  0.7282  0.2272
 4103SOL     OW14315   4.860   2.757   8.490 -0.0875 -0.3140  0.2101
 4103SOL    HW114316   4.926   2.824   8.511 -0.5407 -0.2162  1.4013
 4103SOL    HW214317   4.907   2.674   8.499  0.1844 -0.2010 -0.1453
 4104SOL     OW14318  10.395   9.057   6.537  0.3538  0.2863 -0.0253
 4104SOL    HW114319  10.399   9.043   6.632  1.2789 -1.5120 -0.2869
 4104SOL    HW214320  10.482   9.088   6.514  0.8967 -1.5325 -0.5651
 4105SOL     OW14321   0.041   7.558   5.932  0.0970  0.7515 -0.4045
 4105SOL    HW114322  -0.048   7.575   5.963 -0.0362 -1.2845  0.4784
 4105SOL    HW214323   0.095   7.622   5.979 -0.7305  1.0819  0.1143
 4106SOL     OW14324   1.668   5.040   1.976 -0.1083  0.0674  0.0149
 4106SOL    HW114325   1.674   5.033   2.071  1.3368 -1.8465 -0.1561
 4106SOL    HW214326   1.747   4.998   1.944 -0.5708  0.6534 -2.0632
 4107SOL     OW14327   9.937   3.576   4.385 -0.1201 -0.1705 -0.4053
 4107SOL    HW114328   9.853   3.571   4.339 -0.4679  0.5404  0.1364
 4107SOL    HW214329   9.946   3.668   4.408  0.9520 -0.1953 -0.7089
 4108SOL     OW14330   3.797   6.047   5.833  0.0380  0.4369  0.3169
 4108SOL    HW114331   3.877   6.051   5.781 -0.3140  0.4042 -0.2337
 4108SOL    HW214332   3.827   6.028   5.922  0.5641 -0.8922 -0.1115
 4109SOL     OW14333   1.851   8.900   5.016 -0.6702  0.3544 -0.3314
 4109SOL    HW114334   1.859   8.875   4.924 -1.8827  0.7745 -0.5733
 4109SOL    HW214335   1.765   8.943   5.021 -0.6775  0.2013  1.0249
 4110SOL     OW14336   3.106   8.650   5.383 -0.3686  0.1714 -0.2364
 4110SOL    HW114337   3.103   8.669   5.477  1.4446  1.2648 -0.3574
 4110SOL    HW214338   3.141   8.561   5.378 -2.0409 -0.5556  0.1229
 4111SOL     OW14339   0.322   7.185  11.067 -0.2916  0.3933 -0.0680
 4111SOL    HW114340   0.358   7.166  10.980 -1.1240  0.1674 -0.3788
 4111SOL    HW214341   0.372   7.259  11.098  0.0461  0.4543 -0.7309
 4112SOL     OW14342   3.234   3.854   2.778 -0.1460  0.2954  0.7115
 4112SOL    HW114343   3.148   3.817   2.798 -0.6323  1.3488  0.6055
 4112SOL    HW214344   3.295   3.802   2.831 -0.9811  0.3460  1.7498
 4113SOL     OW14345   7.557   5.778   3.671  0.1329 -0.3339 -0.2367
 4113SOL    HW114346   7.571   5.780   3.577 -0.3428 -0.0899 -0.3093
 4113SOL    HW214347   7.545   5.870   3.695  0.8254 -0.3402  0.1579
 4114SOL     OW14348   4.223   7.841   1.464 -0.6749  0.2761  0.2878
 4114SOL    HW114349   4.142   7.789   1.461 -0.5216  0.0793 -0.9110
 4114SOL    HW214350   4.209   7.902   1.537 -1.9858  0.3638  0.0032
 4115SOL     OW14351   1.059   4.080   4.339  0.2193  0.4071  0.2794
 4115SOL    HW114352   1.088   4.150   4.398 -1.1484  1.5097 -0.3071
 4115SOL    HW214353   1.060   4.119   4.252 -2.0726  0.2364  0.1196
 4116SOL     OW14354   1.029   4.797   5.127  0.1642 -0.1289  0.1530
 4116SOL    HW114355   1.016   4.736   5.200  0.8905  0.3002  0.6548
 4116SOL    HW214356   1.069   4.744   5.058  1.9799  0.0069  1.0331
 4117SOL     OW14357   8.411   6.069   0.584  0.5730  0.1773  0.3367
 4117SOL    HW114358   8.502   6.039   0.588  0.6314  0.3780  0.5157
 4117SOL    HW214359   8.360   5.994   0.615  0.7034  0.1880  0.5788
 4118SOL     OW14360  10.232   4.224   8.392 -0.2813 -0.1294 -0.4056
 4118SOL    HW114361  10.319   4.227   8.354 -0.6476  0.6039 -1.2140
 4118SOL    HW214362  10.200   4.136   8.371  0.1676 -0.3247 -0.2927
 4119SOL     OW14363   0.618   7.648   1.864 -0.5721  0.7524 -0.1748
 4119SOL    HW114364   0.660   7.669   1.781  0.7026  0.6720  0.4336
 4119SOL    HW214365   0.631   7.725   1.918  1.6892 -0.4337  1.1164
 4120SOL     OW14366   2.044   6.635   0.702 -0.0764  0.4118  0.1909
 4120SOL    HW114367   2.102   6.567   0.737 -1.9192 -1.2338  0.1962
 4120SOL    HW214368   1.964   6.628   0.754 -0.8636  1.5926 -0.8089
 4121SOL     OW14369   6.367   3.981   7.252 -0.5208  0.1049 -0.4219
 4121SOL    HW114370   6.385   4.050   7.187  0.6007  0.9130  0.7009
 4121SOL    HW214371   6.448   3.931   7.257 -1.3235 -1.3132 -1.2042
 4122SOL     OW14372  10.177   8.376   9.435  0.5951  0.5901  0.3836
 4122SOL    HW114373  10.219   8.387   9.350 -1.0834  0.5908 -0.4772
 4122SOL    HW214374  10.127   8.295   9.428 -1.5404  1.8111  0.4661
 4123SOL     OW14375   6.460   5.745   3.149  0.3354 -0.7751 -1.2876
 4123SOL    HW114376   6.543   5.758   3.195 -0.1931  0.7139 -0.6888
 4123SOL    HW214377   6.429   5.659   3.180  0.7221 -0.4720  0.0279
 4124SOL     OW14378   2.521   7.622   4.451 -0.2373 -0.0998 -0.2910
 4124SOL    HW114379   2.543   7.653   4.539 -2.8300  0.8868  0.0824
 4124SOL    HW214380   2.517   7.527   4.460  2.9469 -0.3463 -0.2676
 4125SOL     OW14381   6.869   2.267   2.189  0.0450  0.4620  0.0278
 4125SOL    HW114382   6.956   2.229   2.195 -0.0064  0.1363 -1.1745
 4125SOL    HW214383   6.838   2.246   2.101 -1.7150 -0.4146  0.7984
 4126SOL     OW14384   4.341   4.336   9.294  0.4616  0.2456  0.3883
 4126SOL    HW114385   4.372   4.412   9.246 -0.9819  0.4562 -0.2659
 4126SOL    HW214386   4.334   4.267   9.228 -0.8181  0.3273  0.4063
 4127SOL     OW14387   2.093   5.157   3.240  0.6058 -0.1124 -0.0467
 4127SOL    HW114388   2.157   5.219   3.275  0.6078  0.1684 -0.5472
 4127SOL    HW214389   2.135   5.118   3.163 -0.6923  1.8263 -1.8527
 4128SOL     OW14390   9.589   4.234   3.596 -0.4270 -0.2025 -0.0998
 4128SOL    HW114391   9.527   4.213   3.666  0.5683 -0.6837  0.6680
 4128SOL    HW214392   9.598   4.151   3.547  0.7803 -0.6002  0.7508
 4129SOL     OW14393   4.992   8.631   2.439  0.3232 -0.1536  0.5958
 4129SOL    HW114394   4.966   8.717   2.405  2.1014 -0.0782 -0.6621
 4129SOL    HW214395   5.033   8.650   2.523 -1.0825 -0.0063  1.2780
 4130SOL     OW14396   0.092   8.869   9.362  0.2185 -0.0643 -0.3085
 4130SOL    HW114397   0.059   8.958   9.376  1.1671  0.1513  0.6646
 4130SOL    HW214398   0.152   8.877   9.288 -1.5150 -0.3843 -1.8244
 4131SOL     OW14399   2.895   9.558   8.805 -0.3322 -0.0998  0.0760
 4131SOL    HW114400   2.869   9.490   8.866  1.5158 -0.3014  0.7140
 4131SOL    HW214401   2.986   9.578   8.829  0.0978  0.5711 -1.9120
 4132SOL     OW14402   2.616   4.710   9.361 -0.1981  0.0509  0.1552
 4132SOL    HW114403   2.527   4.742   9.346 -0.0867  0.8396  1.0685
 4132SOL    HW214404   2.611   4.616   9.341 -0.6565  0.5067 -2.0988
 4133SOL     OW14405   6.549   4.721   3.053  0.9783 -0.5870  0.0544
 4133SOL    HW114406   6.630   4.715   3.003  0.5180  0.8114 -0.9397
 4133SOL    HW214407   6.563   4.794   3.113  0.2795  0.0659 -0.5428
 4134SOL     OW14408   2.560   8.075  10.411  0.2365 -0.1532 -0.0867
 4134SOL    HW114409   2.525   8.158  10.445 -0.0786  0.1619 -1.1457
 4134SOL    HW214410   2.654   8.093  10.399  0.1011  0.1859 -0.6807
 4135SOL     OW14411   0.582   1.990   5.657 -0.1111  0.7380 -0.8132
 4135SOL    HW114412   0.495   1.953   5.670 -0.3952  0.8339 -2.2339
 4135SOL    HW214413   0.565   2.082   5.636  0.3018  0.6995 -1.3342
 4136SOL     OW14414   1.002   4.802   6.351 -0.5624 -0.2213  0.3514
 4136SOL    HW114415   0.956   4.741   6.294  0.2626 -0.2120 -0.3569
 4136SOL    HW214416   1.088   4.762   6.364  0.3593  1.2091 -0.9338
 4137SOL     OW14417  11.036  10.646   2.542  0.0612 -0.8303 -0.4372
 4137SOL    HW114418  11.063  10.674   2.454  1.0359 -0.2159  0.0326
 4137SOL    HW214419  11.047  10.551   2.541  0.1420 -0.8206 -0.9563
 4138SOL     OW14420   3.625   5.059   2.691  0.2591  0.3200 -0.6613
 4138SOL    HW114421   3.589   5.098   2.770  1.5201 -0.8279  0.5246
 4138SOL    HW214422   3.720   5.071   2.699  0.3841  0.7704 -2.3373
 4139SOL     OW14423   7.035   7.714   0.272  0.0469 -0.2542 -0.4553
 4139SOL    HW114424   7.002   7.632   0.234  0.0279  0.3511 -1.8280
 4139SOL    HW214425   7.100   7.745   0.209  1.6523 -0.2899  1.1108
 4140SOL     OW14426   5.492   9.397   3.488 -0.3141 -0.5073  0.3415
 4140SOL    HW114427   5.503   9.491   3.471 -0.0088 -0.7634 -0.9925
 4140SOL    HW214428   5.422   9.370   3.428  0.1548 -1.2793  0.1254
 4141SOL     OW14429   4.838   6.016   9.891  0.1424  0.3306 -0.2131
 4141SOL    HW114430   4.770   5.968   9.844  0.4324  2.0638 -2.5579
 4141SOL    HW214431   4.905   6.034   9.825  2.5123 -0.5050  1.7999
 4142SOL     OW14432   2.549   6.701   7.780 -0.3790 -0.1042 -1.1346
 4142SOL    HW114433   2.642   6.682   7.767 -0.0011  1.2715 -0.4964
 4142SOL    HW214434   2.509   6.614   7.790  1.2533 -0.6773  1.4519
 4143SOL     OW14435   5.432   6.693   2.769 -0.3363 -0.0303  0.1300
 4143SOL    HW114436   5.507   6.707   2.826 -1.0617  0.5793  0.9768
 4143SOL    HW214437   5.421   6.598   2.766  0.7654 -0.1579 -0.4349
 4144SOL     OW14438   3.840   8.916   1.084  0.4169 -0.5131  0.0478
 4144SOL    HW114439   3.784   8.849   1.124 -0.3596  0.0441 -0.0680
 4144SOL    HW214440   3.779   8.987   1.062  1.2830  0.3905  0.5141
 4145SOL     OW14441   5.067   3.179   8.716  0.1141 -0.3337 -0.0366
 4145SOL    HW114442   5.050   3.195   8.809 -0.5338  0.2443 -0.2491
 4145SOL    HW214443   5.022   3.249   8.671  0.7702 -0.3735 -0.7777
 4146SOL     OW14444   5.767   1.224   1.383  0.1409  0.1538 -0.0823
 4146SOL    HW114445   5.714   1.238   1.461 -0.8689  0.5350 -0.8165
 4146SOL    HW214446   5.857   1.222   1.415 -0.3470 -1.4459  1.3330
 4147SOL     OW14447   3.175   7.415  10.728 -0.0250  0.2619  0.3038
 4147SOL    HW114448   3.215   7.498  10.701 -1.5565  1.6866  2.1494
 4147SOL    HW214449   3.216   7.349  10.672  0.6084  2.3519 -1.8293
 4148SOL     OW14450   6.543   2.668   7.140 -0.5079 -0.5874 -0.1692
 4148SOL    HW114451   6.573   2.696   7.054 -1.8800 -0.7518 -0.7200
 4148SOL    HW214452   6.594   2.722   7.201 -1.2583  1.3127 -1.1290
 4149SOL     OW14453  10.220   8.991   4.377 -0.1071  0.0306  0.0480
 4149SOL    HW114454  10.252   8.945   4.299 -0.4910 -0.6263  0.2739
 4149SOL    HW214455  10.189   9.075   4.344 -0.7455 -0.4500 -0.5913
 4150SOL     OW14456   8.888   6.070   1.800  0.6451 -0.3027  0.2903
 4150SOL    HW114457   8.827   6.081   1.727  0.2156 -1.2855  0.4897
 4150SOL    HW214458   8.974   6.092   1.763  0.1345  1.6437  0.1524
 4151SOL     OW14459   4.099   6.963   4.670 -0.8969  0.0933  0.0014
 4151SOL    HW114460   4.148   7.023   4.726 -0.6513 -1.0028  0.9857
 4151SOL    HW214461   4.086   6.885   4.723  1.1495 -1.8477 -2.1041
 4152SOL     OW14462  11.021   5.274   0.685 -0.5299  0.4193 -0.1939
 4152SOL    HW114463  11.097   5.331   0.686 -0.4316  0.2869  0.6977
 4152SOL    HW214464  10.949   5.329   0.714 -0.6941  0.4364 -0.6327
 4153SOL     OW14465  10.984   7.240   1.617  0.1767 -0.2711 -0.0268
 4153SOL    HW114466  11.040   7.168   1.645  0.5475  0.2619  0.6466
 4153SOL    HW214467  10.939   7.267   1.697 -1.1450 -0.7602 -0.5757
 4154SOL     OW14468   1.898   5.629   7.331 -0.1407 -0.0240 -0.4201
 4154SOL    HW114469   1.970   5.667   7.381 -0.6942 -0.2792  0.6209
 4154SOL    HW214470   1.868   5.700   7.274 -0.3088  0.7096  0.5442
 4155SOL     OW14471   7.083   2.092   0.212 -0.6100  0.2475 -0.4907
 4155SOL    HW114472   7.074   2.180   0.249  0.8564  0.4544 -0.5680
 4155SOL    HW214473   7.178   2.077   0.208 -0.8255 -1.3587 -0.4292
 4156SOL     OW14474   7.492   1.408  10.889 -0.0117  0.7566 -0.0933
 4156SOL    HW114475   7.432   1.351  10.938  0.6378  1.1891  1.2341
 4156SOL    HW214476   7.511   1.480  10.949  2.1150  0.4457 -0.3331
 4157SOL     OW14477   9.714   5.975   2.020 -0.1195 -0.1712  0.1728
 4157SOL    HW114478   9.706   5.962   2.114 -0.0288  1.2226  0.3936
 4157SOL    HW214479   9.629   5.948   1.984 -0.1000 -0.8460  0.6285
 4158SOL     OW14480   4.348  11.080   1.144  0.2171 -0.0371 -0.5561
 4158SOL    HW114481   4.352  11.052   1.236 -1.2372 -1.6331 -0.9374
 4158SOL    HW214482   4.432  11.052   1.107 -0.2431 -1.8226 -0.3283
 4159SOL     OW14483   8.222   8.073   1.696  0.0076 -0.0758 -0.2651
 4159SOL    HW114484   8.171   8.072   1.615 -2.3271  0.3836  1.1224
 4159SOL    HW214485   8.225   8.165   1.722 -0.0459 -0.3177  0.6374
 4160SOL     OW14486   9.368   1.672   6.414  0.8379 -0.1984 -0.2462
 4160SOL    HW114487   9.322   1.756   6.412  1.0095 -0.1148 -1.0634
 4160SOL    HW214488   9.320   1.620   6.478 -0.2765 -0.0496 -0.9414
 4161SOL     OW14489   5.842   7.333   7.907  0.2474  0.1929  0.2442
 4161SOL    HW114490   5.820   7.250   7.949  0.9604  1.2754  3.0237
 4161SOL    HW214491   5.758   7.377   7.894 -0.0013 -0.2498  0.3344
 4162SOL     OW14492   0.621   6.899   1.396  0.0361 -0.4299 -0.3639
 4162SOL    HW114493   0.591   6.822   1.444 -0.1098  0.3498  0.8276
 4162SOL    HW214494   0.547   6.960   1.398  0.7051  0.3986  0.1832
 4163SOL     OW14495  10.011   8.813   1.326 -0.7522  0.3572 -0.1538
 4163SOL    HW114496  10.024   8.907   1.312  0.4677  0.1211 -0.7451
 4163SOL    HW214497   9.988   8.805   1.419  0.3149  1.1397  0.1977
 4164SOL     OW14498   6.591   6.293  10.355  0.2280  0.1462  0.2407
 4164SOL    HW114499   6.583   6.272  10.448 -0.6381  1.5191  0.5001
 4164SOL    HW214500   6.659   6.360  10.351  0.3085  0.0444 -0.1205
 4165SOL     OW14501   8.474   8.392   1.101  0.1641  0.7298  0.1825
 4165SOL    HW114502   8.481   8.297   1.104  0.8037  0.7609 -0.3183
 4165SOL    HW214503   8.490   8.415   1.009 -2.6987  1.1181 -0.3182
 4166SOL     OW14504   9.996   5.481   6.355 -0.4705  0.3893  0.0414
 4166SOL    HW114505   9.984   5.480   6.450 -1.8759 -0.2089 -0.1301
 4166SOL    HW214506  10.000   5.574   6.333 -1.2315  0.5585  0.5706
 4167SOL     OW14507   9.592   2.646   8.183 -0.2947 -0.6710 -0.9057
 4167SOL    HW114508   9.573   2.553   8.195 -0.5490 -0.5755 -0.5410
 4167SOL    HW214509   9.535   2.673   8.111 -0.5548 -0.6990 -0.7154
 4168SOL     OW14510   3.458   8.971  10.995 -0.3754 -0.5755  0.2249
 4168SOL    HW114511   3.511   8.922  11.058 -0.6338 -0.5735  0.4448
 4168SOL    HW214512   3.522   9.012  10.936 -0.1561 -1.3489 -0.0919
 4169SOL     OW14513   1.607   6.382   4.909  0.0470  0.1768 -0.5048
 4169SOL    HW114514   1.562   6.307   4.948 -0.0468 -1.5233 -3.5165
 4169SOL    HW214515   1.545   6.417   4.845  1.3135  0.6838 -1.5181
 4170SOL     OW14516   6.760   9.918  10.052 -0.6118 -0.8781 -0.5875
 4170SOL    HW114517   6.852   9.893  10.059 -0.2033  0.7368  0.4026
 4170SOL    HW214518   6.760   9.996   9.997 -1.6960 -2.1432 -2.5193
 4171SOL     OW14519   1.632   8.777   9.476 -0.2059  0.1073  0.5096
 4171SOL    HW114520   1.617   8.811   9.388  1.3489 -2.6868 -1.0105
 4171SOL    HW214521   1.693   8.839   9.516 -1.7158  1.9612  0.0805
 4172SOL     OW14522   2.883   9.918  10.733  0.0097  0.5400 -0.1161
 4172SOL    HW114523   2.874   9.822  10.731  1.0539  0.4438 -0.7697
 4172SOL    HW214524   2.962   9.933  10.785  0.6229  0.9807 -1.1480
 4173SOL     OW14525   0.504   0.201   0.992  0.0576  0.3552  0.0759
 4173SOL    HW114526   0.538   0.168   1.075 -1.1832 -1.5753 -0.1063
 4173SOL    HW214527   0.552   0.151   0.926 -0.2559  0.5445 -0.2984
 4174SOL     OW14528   4.119   6.863   9.379 -0.0520  0.3700 -0.0102
 4174SOL    HW114529   4.156   6.877   9.466  0.7425 -0.4096 -0.2135
 4174SOL    HW214530   4.059   6.937   9.367 -1.7644 -0.5908  2.0177
 4175SOL     OW14531   4.420   1.266  10.287 -0.6827 -0.0025 -0.0628
 4175SOL    HW114532   4.477   1.254  10.363 -1.6744  1.9227  1.0498
 4175SOL    HW214533   4.331   1.257  10.322 -1.1220 -0.9873 -1.3839
 4176SOL     OW14534  10.437   1.333   0.451 -0.0570  0.4098 -0.1151
 4176SOL    HW114535  10.405   1.379   0.373  1.8957  1.0627 -0.5861
 4176SOL    HW214536  10.403   1.244   0.441 -2.5926  1.2751  0.0194
 4177SOL     OW14537  10.963   4.054   4.676 -0.2880 -0.0148 -0.1490
 4177SOL    HW114538  11.034   4.087   4.621  0.8246 -1.3767  0.3790
 4177SOL    HW214539  10.910   4.000   4.618 -1.0758  1.2215 -0.6068
 4178SOL     OW14540  10.511   9.150   4.314 -0.1755  0.3666 -0.5037
 4178SOL    HW114541  10.602   9.140   4.286 -0.5391 -0.7486 -1.3459
 4178SOL    HW214542  10.495   9.076   4.372  0.1704  1.9432  1.7230
 4179SOL     OW14543   3.334   5.597  10.375  0.1541  0.3531 -0.3395
 4179SOL    HW114544   3.313   5.689  10.356 -2.0295  0.0740  0.5129
 4179SOL    HW214545   3.326   5.553  10.290  0.0431  0.7309 -0.5275
 4180SOL     OW14546   3.343   3.823   9.977 -0.4471  0.0386 -0.3948
 4180SOL    HW114547   3.376   3.864  10.057  2.1290 -0.0801 -1.2886
 4180SOL    HW214548   3.300   3.742  10.007 -2.0108  1.3216  1.0330
 4181SOL     OW14549  10.983   8.949   9.824 -0.4991 -0.4685 -0.6023
 4181SOL    HW114550  10.916   8.948   9.892 -0.6158 -1.0584 -0.7281
 4181SOL    HW214551  10.958   8.880   9.763 -0.8967  0.6185 -1.7334
 4182SOL     OW14552   4.886   3.550   1.410 -0.1576  0.8693 -0.2947
 4182SOL    HW114553   4.945   3.590   1.474 -1.1108  1.7631  0.0452
 4182SOL    HW214554   4.925   3.464   1.392  1.1459  1.3688  0.0468
 4183SOL     OW14555   5.302  11.080   2.600 -0.2283 -0.2707 -0.0356
 4183SOL    HW114556   5.372  11.142   2.617 -1.2095  0.6655  0.7051
 4183SOL    HW214557   5.313  11.056   2.507  1.5648 -0.8316  0.2907
 4184SOL     OW14558   0.640   0.655   4.920  0.1924 -0.9701 -0.7833
 4184SOL    HW114559   0.628   0.622   4.831 -2.4746 -0.5564 -0.6590
 4184SOL    HW214560   0.607   0.745   4.917  2.0074 -0.2101  0.1983
 4185SOL     OW14561   3.932   6.275   0.273  0.4322  0.5140 -0.2084
 4185SOL    HW114562   3.942   6.192   0.226  0.1797  1.3221 -1.7557
 4185SOL    HW214563   3.919   6.249   0.364 -0.1797 -1.1734 -0.7298
 4186SOL     OW14564  10.318   3.494   2.932  0.0115  0.1623 -0.1498
 4186SOL    HW114565  10.348   3.558   2.997 -0.1911 -0.9727  1.1131
 4186SOL    HW214566  10.265   3.432   2.983 -1.1228 -0.1232 -1.6137
 4187SOL     OW14567   1.322   7.174   6.297 -0.0332  0.2423  0.2753
 4187SOL    HW114568   1.395   7.186   6.237 -1.4980 -0.9792 -1.9001
 4187SOL    HW214569   1.347   7.098   6.350  1.3396  1.4158  1.3635
 4188SOL     OW14570   4.572   3.554   5.564 -0.1304 -0.8558 -0.6074
 4188SOL    HW114571   4.624   3.498   5.622 -0.0903 -0.9376 -0.7214
 4188SOL    HW214572   4.492   3.572   5.614 -0.1212 -0.9731 -0.5497
 4189SOL     OW14573   8.514  10.227   5.270  0.1921 -0.3731 -0.1263
 4189SOL    HW114574   8.490  10.317   5.293 -0.9158 -0.7539  0.2777
 4189SOL    HW214575   8.552  10.191   5.349 -0.8028 -0.7291  0.2095
 4190SOL     OW14576   7.090   5.466   7.428 -0.2679 -0.3584 -0.1531
 4190SOL    HW114577   7.151   5.414   7.375  0.4440  1.0534 -0.7571
 4190SOL    HW214578   7.004   5.425   7.412  0.4098 -2.0364  0.2897
 4191SOL     OW14579   7.636   3.055   3.153 -0.0453 -0.1878 -0.4467
 4191SOL    HW114580   7.663   2.963   3.156  0.4921 -0.0316 -0.2869
 4191SOL    HW214581   7.564   3.057   3.090 -1.1120 -0.9627  0.7114
 4192SOL     OW14582   3.903   5.636   3.629  0.2107  0.1762 -0.1731
 4192SOL    HW114583   3.882   5.704   3.693 -0.1639  0.6855 -0.8183
 4192SOL    HW214584   3.845   5.563   3.651  1.1409 -0.2491  0.9943
 4193SOL     OW14585   5.919   3.989   2.247 -0.4855  0.3405 -0.5847
 4193SOL    HW114586   5.902   3.924   2.178  0.6563 -2.3016  1.4412
 4193SOL    HW214587   5.855   3.970   2.315 -0.5476  1.8268 -0.1905
 4194SOL     OW14588   3.253   8.542   1.891  0.5281  0.2802  0.4160
 4194SOL    HW114589   3.190   8.613   1.874  2.3067  1.9031  0.3284
 4194SOL    HW214590   3.199   8.463   1.892 -1.5256  1.5947  0.3969
 4195SOL     OW14591   6.132   9.187   0.907 -0.4651  1.1457 -0.1297
 4195SOL    HW114592   6.099   9.149   0.825  0.9209  0.3761 -0.3483
 4195SOL    HW214593   6.106   9.124   0.974 -3.9505  2.9892  0.5262
 4196SOL     OW14594   1.744   4.970   4.420 -0.7700  0.6390 -0.0137
 4196SOL    HW114595   1.717   5.050   4.464 -2.0358  0.9460 -1.2760
 4196SOL    HW214596   1.784   5.000   4.338 -0.9698 -0.0168 -0.3549
 4197SOL     OW14597   7.473   7.626   3.202  0.0909  0.6227  0.2495
 4197SOL    HW114598   7.402   7.582   3.248  1.6613 -0.8425  1.4223
 4197SOL    HW214599   7.452   7.719   3.209 -1.3248  0.2732  1.1964
 4198SOL     OW14600   3.237   0.054   5.967  0.2759 -0.7340 -0.1843
 4198SOL    HW114601   3.268   0.022   6.052 -1.5920 -1.3948  0.2888
 4198SOL    HW214602   3.298   0.015   5.904  0.2361 -2.2726  0.6772
 4199SOL     OW14603   6.637   2.130   5.370 -0.7368  0.3075 -0.6899
 4199SOL    HW114604   6.704   2.199   5.366  0.5954 -0.9476 -0.7358
 4199SOL    HW214605   6.617   2.121   5.463  0.8501 -0.8383 -0.4191
 4200SOL     OW14606   5.090  11.005   6.267  0.2707 -0.1473 -0.6201
 4200SOL    HW114607   5.079  11.028   6.175  2.7025  2.1339 -0.4688
 4200SOL    HW214608   5.184  11.018   6.284 -0.3616  1.3109  2.5853
 4201SOL     OW14609   1.856   8.731   2.088  0.9985 -0.1430  0.2206
 4201SOL    HW114610   1.863   8.645   2.130  0.3068 -0.8736 -1.0693
 4201SOL    HW214611   1.836   8.710   1.996 -0.2079  1.4104  0.0929
 4202SOL     OW14612   2.024   3.769   8.963 -0.6978  0.5351  0.1621
 4202SOL    HW114613   2.000   3.678   8.979 -0.8241  0.4527 -0.4728
 4202SOL    HW214614   2.119   3.767   8.950 -0.6866  0.5116  0.2436
 4203SOL     OW14615   2.754   9.264   5.813 -0.0531  0.3930  0.0026
 4203SOL    HW114616   2.843   9.266   5.778 -0.8536  1.4134 -2.1722
 4203SOL    HW214617   2.741   9.352   5.850 -0.2051  0.2857  0.2074
 4204SOL     OW14618   2.174   2.246   3.305  0.4014 -0.0463  0.8717
 4204SOL    HW114619   2.110   2.235   3.376 -0.8553  0.3246 -0.1599
 4204SOL    HW214620   2.251   2.282   3.348  0.1339 -1.0677  2.2522
 4205SOL     OW14621   5.601   0.458   4.339  0.0345  0.2309  0.1222
 4205SOL    HW114622   5.634   0.524   4.278 -1.4387  0.9412  0.0475
 4205SOL    HW214623   5.613   0.375   4.294 -0.9666  0.7385 -1.1528
 4206SOL     OW14624   3.211   7.639   4.013 -0.3179  0.5423  0.0325
 4206SOL    HW114625   3.266   7.606   3.942  2.6239  0.3452  2.2047
 4206SOL    HW214626   3.124   7.604   3.995  0.4057  0.0274 -3.0832
 4207SOL     OW14627   6.072   5.163   3.283 -0.2316  0.6214 -0.3811
 4207SOL    HW114628   6.037   5.100   3.219  0.0934  1.4640 -1.4199
 4207SOL    HW214629   6.079   5.245   3.234  2.4185  0.6989  0.0029
 4208SOL     OW14630   1.813   7.894   2.910  0.3760  0.0501  0.4138
 4208SOL    HW114631   1.866   7.959   2.955  1.7485 -0.6167 -0.1899
 4208SOL    HW214632   1.737   7.943   2.879  1.5870  1.4800 -0.4122
 4209SOL     OW14633   4.055   4.809   9.833 -0.2279 -0.1413 -0.4088
 4209SOL    HW114634   4.128   4.749   9.814  0.6983  0.8205  0.0405
 4209SOL    HW214635   4.044   4.859   9.752  1.4263  1.5640  0.3541
 4210SOL     OW14636   8.455   7.406   6.362  0.1075 -0.3072  0.3494
 4210SOL    HW114637   8.545   7.387   6.335  0.1218 -1.4401  1.1276
 4210SOL    HW214638   8.424   7.472   6.299  0.4018 -2.2003 -1.9512
 4211SOL     OW14639   2.112   3.527  10.301 -0.2306  0.1993  0.2601
 4211SOL    HW114640   2.162   3.591  10.249 -3.0719  1.8836 -0.6853
 4211SOL    HW214641   2.027   3.569  10.313 -1.9142 -3.0059  0.5462
 4212SOL     OW14642   0.122   1.654   1.543 -0.4979  0.4909 -0.3870
 4212SOL    HW114643   0.111   1.747   1.524 -2.0107  0.3208 -0.4419
 4212SOL    HW214644   0.070   1.639   1.622 -0.5644 -0.3848 -0.5873
 4213SOL     OW14645   2.798   4.236   3.584  0.0894 -0.2878 -0.0450
 4213SOL    HW114646   2.760   4.184   3.514 -1.0914  1.2093 -0.5507
 4213SOL    HW214647   2.824   4.318   3.542 -0.7504  0.6806  1.2629
 4214SOL     OW14648   0.591   0.425   3.975 -0.1685 -0.1235  0.3510
 4214SOL    HW114649   0.663   0.479   3.944  0.8196 -1.4952  0.1467
 4214SOL    HW214650   0.516   0.451   3.920  0.6078  0.1187 -0.6251
 4215SOL     OW14651  10.007   3.225   8.111  0.1628 -0.1765  0.3584
 4215SOL    HW114652  10.063   3.226   8.189  0.2884  2.3597  0.3104
 4215SOL    HW214653   9.940   3.291   8.129  0.0746  0.3128 -1.5933
 4216SOL     OW14654   3.160   0.106   6.930 -0.4996  0.1008 -0.2625
 4216SOL    HW114655   3.168   0.069   6.842 -1.7714 -0.8929 -0.0043
 4216SOL    HW214656   3.184   0.033   6.988  1.9906  1.2403  0.2194
 4217SOL     OW14657   3.068   6.718   5.243  0.6636  0.1167  0.0008
 4217SOL    HW114658   2.985   6.757   5.272 -0.1815 -1.3555 -0.3255
 4217SOL    HW214659   3.133   6.786   5.259 -0.3233  0.6958  1.9499
 4218SOL     OW14660   4.117   7.438   2.201  0.8117  0.0663 -0.1327
 4218SOL    HW114661   4.083   7.482   2.279 -0.2306 -1.0906  0.1130
 4218SOL    HW214662   4.144   7.509   2.143 -1.0891  1.0678  0.1035
 4219SOL     OW14663   5.627   2.904   3.383  0.1302  1.0522 -0.3922
 4219SOL    HW114664   5.700   2.937   3.435  0.7048 -1.6157  0.6441
 4219SOL    HW214665   5.550   2.921   3.436  0.4909  0.1517  0.4384
 4220SOL     OW14666  10.473   5.042   4.971  0.1834 -0.1193 -0.6087
 4220SOL    HW114667  10.503   5.060   4.882  1.1556 -0.1623 -0.3064
 4220SOL    HW214668  10.491   4.949   4.984  1.0520  0.1207 -0.0062
 4221SOL     OW14669   3.085   3.675   0.712 -0.0717  0.0786  0.0892
 4221SOL    HW114670   3.012   3.656   0.771  0.5518  0.8649  1.1470
 4221SOL    HW214671   3.163   3.650   0.761  0.4301  0.1008 -0.6812
 4222SOL     OW14672   5.742   3.606   2.774 -0.3685 -0.3109  0.5415
 4222SOL    HW114673   5.707   3.685   2.732 -1.4425 -0.1899  1.6150
 4222SOL    HW214674   5.829   3.595   2.735 -0.9119  0.3678 -0.9358
 4223SOL     OW14675   5.426   3.904   2.235 -0.2457 -0.4499 -0.2376
 4223SOL    HW114676   5.355   3.878   2.176  0.0272 -1.9548  0.0628
 4223SOL    HW214677   5.392   3.886   2.323 -0.2110  0.6720  0.0169
 4224SOL     OW14678   9.723   5.848   7.086  0.0878 -0.7464  0.3188
 4224SOL    HW114679   9.785   5.919   7.070  0.4764 -1.5617 -2.1454
 4224SOL    HW214680   9.773   5.768   7.070 -1.0365 -1.4985  0.4793
 4225SOL     OW14681   8.936   5.026   1.008 -0.6535  0.4208  0.1542
 4225SOL    HW114682   9.000   4.999   1.074 -0.0626 -0.1485 -0.6391
 4225SOL    HW214683   8.987   5.070   0.941 -0.9842 -0.5910 -0.7891
 4226SOL     OW14684   0.677   4.721   1.360 -0.1885 -0.2710 -0.1647
 4226SOL    HW114685   0.739   4.685   1.424 -0.4565  0.2314  0.3814
 4226SOL    HW214686   0.672   4.654   1.292  1.1454 -0.2291 -0.3433
 4227SOL     OW14687   4.765   1.272   1.492 -0.2783  0.4679  0.0544
 4227SOL    HW114688   4.712   1.272   1.412  1.0595  0.3495 -0.8788
 4227SOL    HW214689   4.793   1.181   1.502  0.4374  0.6734  0.0221
 4228SOL     OW14690   2.378   8.230   1.189 -0.3858  0.2136  0.1261
 4228SOL    HW114691   2.414   8.258   1.105 -1.6038  0.4112 -0.3568
 4228SOL    HW214692   2.454   8.222   1.246  0.7171 -1.6815 -1.4596
 4229SOL     OW14693   9.445   8.990   2.687  0.1746  0.0354 -0.3455
 4229SOL    HW114694   9.475   8.993   2.596 -1.0601 -2.0174 -0.8923
 4229SOL    HW214695   9.392   8.910   2.692 -2.1213  1.5355  1.4512
 4230SOL     OW14696   0.222   5.236   2.462  0.6236 -0.8919 -0.3267
 4230SOL    HW114697   0.154   5.213   2.525  0.3725  0.1277 -0.2080
 4230SOL    HW214698   0.282   5.161   2.462  0.1255 -1.2975  0.4243
 4231SOL     OW14699   0.236   4.261   8.914 -0.3343 -0.0445 -0.1994
 4231SOL    HW114700   0.313   4.206   8.929 -0.3621  0.0683  0.3727
 4231SOL    HW214701   0.262   4.348   8.944  0.4952  0.8458 -3.1328
 4232SOL     OW14702  10.251   8.651  10.783  0.4373  0.0367 -0.5542
 4232SOL    HW114703  10.332   8.600  10.778  1.7476  2.0661 -1.3141
 4232SOL    HW214704  10.273   8.726  10.839 -1.3416 -0.0513  0.3384
 4233SOL     OW14705   4.395   9.864   3.005  0.0033  0.2352  0.0066
 4233SOL    HW114706   4.380   9.915   3.085 -0.2805  0.4104 -0.1570
 4233SOL    HW214707   4.324   9.891   2.946 -0.3451 -0.5771  0.0376
 4234SOL     OW14708   2.772   4.873   8.110  0.2256 -0.6041  0.0161
 4234SOL    HW114709   2.839   4.900   8.048  0.0454  0.5351  0.3047
 4234SOL    HW214710   2.698   4.931   8.093 -0.2222 -0.9971  0.5762
 4235SOL     OW14711   0.419   5.148   1.656  0.2459 -0.1194 -0.2310
 4235SOL    HW114712   0.490   5.147   1.720  0.6827 -0.3894 -0.7169
 4235SOL    HW214713   0.405   5.241   1.637  1.4448 -0.1189 -1.1963
 4236SOL     OW14714   1.926  11.058   8.976 -0.3017  0.3103 -0.7729
 4236SOL    HW114715   1.854  11.107   9.016 -0.8689 -0.1441 -1.2322
 4236SOL    HW214716   1.891  11.028   8.893  0.0194 -0.9499 -0.4618
 4237SOL     OW14717   6.965   7.935   1.283 -0.3405 -0.3601 -0.2525
 4237SOL    HW114718   6.993   8.024   1.262  0.3813 -0.1892  1.3046
 4237SOL    HW214719   6.885   7.947   1.334  0.6721 -0.4816  1.4294
 4238SOL     OW14720  10.099   8.409   4.385 -0.6261 -0.0952  0.1800
 4238SOL    HW114721  10.073   8.470   4.317  1.2188  1.2489  0.6090
 4238SOL    HW214722  10.151   8.343   4.339 -0.5724  0.0247  0.0676
 4239SOL     OW14723   5.996   2.067   0.506  0.2664 -0.2033 -0.6692
 4239SOL    HW114724   5.984   2.157   0.534  2.6302 -0.3536  1.0545
 4239SOL    HW214725   5.983   2.015   0.585  4.1175 -0.8836 -0.3278
 4240SOL     OW14726   7.467   5.868   0.476 -0.3661  0.4743 -0.1540
 4240SOL    HW114727   7.563   5.864   0.478 -0.3781 -1.2117 -1.0757
 4240SOL    HW214728   7.448   5.958   0.451  0.9511  1.0105  0.6302
 4241SOL     OW14729   1.187   1.729   1.966 -0.0416 -0.4573 -0.2212
 4241SOL    HW114730   1.215   1.726   2.057  2.1379  1.9129 -0.6655
 4241SOL    HW214731   1.130   1.806   1.961  1.3545  0.5745 -1.1172
 4242SOL     OW14732   2.584   8.930   8.547  0.2638  0.2532  0.0246
 4242SOL    HW114733   2.640   8.868   8.500  0.1980 -1.7048  2.2970
 4242SOL    HW214734   2.644   8.981   8.601  0.0204 -2.5222  3.2208
 4243SOL     OW14735   1.606   7.538   9.031 -0.3187  0.0571 -0.2209
 4243SOL    HW114736   1.676   7.508   8.974 -0.0651  0.0025  0.1190
 4243SOL    HW214737   1.529   7.541   8.975  0.1375  0.9812 -0.8251
 4244SOL     OW14738   7.039   1.356   3.276  0.3469  0.2308  0.3517
 4244SOL    HW114739   6.958   1.350   3.327 -0.8399 -1.9044 -1.5290
 4244SOL    HW214740   7.101   1.299   3.322  1.3356  2.8956  2.5316
 4245SOL     OW14741   8.528   4.300   4.062  0.4077 -0.4595 -0.4686
 4245SOL    HW114742   8.565   4.378   4.104  0.4027  0.7144 -2.4942
 4245SOL    HW214743   8.450   4.280   4.113 -0.5593  1.9322 -0.8795
 4246SOL     OW14744  11.081   1.319   4.621 -0.0233 -0.6950 -0.2236
 4246SOL    HW114745  11.132   1.257   4.570  1.9348  1.0872 -0.5586
 4246SOL    HW214746  11.097   1.404   4.580  0.5133  0.6165  2.4335
 4247SOL     OW14747  10.203   6.646   5.220 -0.0452  0.3980  0.1043
 4247SOL    HW114748  10.186   6.566   5.169 -2.1378  0.9462 -0.1611
 4247SOL    HW214749  10.295   6.639   5.245  0.2015 -1.4223 -1.0816
 4248SOL     OW14750   6.964   9.784   3.824  0.2492 -0.3702  0.4157
 4248SOL    HW114751   6.987   9.705   3.775  0.2395 -0.8498  1.1858
 4248SOL    HW214752   6.870   9.777   3.839  0.1443  0.0667 -0.0004
 4249SOL     OW14753   7.924   4.152   3.488  0.1649  0.0610  0.4208
 4249SOL    HW114754   7.938   4.240   3.455  2.4212 -0.9999 -1.8275
 4249SOL    HW214755   7.879   4.107   3.417 -1.0244 -0.6113  1.5647
 4250SOL     OW14756   3.847   1.679   3.130 -0.3746 -0.3462  0.3005
 4250SOL    HW114757   3.897   1.603   3.099  0.8910  0.4838  0.2627
 4250SOL    HW214758   3.900   1.755   3.106 -1.9643  0.6194 -0.3083
 4251SOL     OW14759   0.920   7.488  10.444  0.1894  0.0044 -0.4700
 4251SOL    HW114760   0.836   7.511  10.483  0.2470 -1.4189  0.5914
 4251SOL    HW214761   0.905   7.403  10.402  1.1468 -0.4195 -0.0008
 4252SOL     OW14762  10.444   6.777   7.603 -0.3378  0.2939  0.4136
 4252SOL    HW114763  10.526   6.825   7.592 -0.2420  0.2097  0.7306
 4252SOL    HW214764  10.467   6.686   7.583 -0.9491  0.6230 -2.1066
 4253SOL     OW14765   0.168   3.910   3.427  0.0845 -0.1275 -0.0313
 4253SOL    HW114766   0.149   3.940   3.516 -0.2612 -0.6882  0.0933
 4253SOL    HW214767   0.257   3.940   3.409 -0.8137  2.4483 -0.5595
 4254SOL     OW14768   0.509   7.101   6.327  0.4703  0.4968 -0.3724
 4254SOL    HW114769   0.426   7.059   6.306  1.1662 -0.4631 -1.3355
 4254SOL    HW214770   0.517   7.094   6.423 -0.3640  0.2629 -0.3172
 4255SOL     OW14771   1.377   6.524   8.661  0.0694  0.6088  0.9967
 4255SOL    HW114772   1.368   6.474   8.742 -1.5582  0.0337  0.5006
 4255SOL    HW214773   1.465   6.502   8.628  0.3211  0.0084  2.0426
 4256SOL     OW14774   2.807   7.840   6.687  0.0484 -0.2739  0.0886
 4256SOL    HW114775   2.783   7.891   6.764 -0.5437 -0.6193  0.1335
 4256SOL    HW214776   2.737   7.776   6.677  0.7537 -1.0416 -0.0047
 4257SOL     OW14777  10.417   2.171   2.307  0.0300 -0.1094  0.1271
 4257SOL    HW114778  10.487   2.216   2.260  0.0144 -0.4298 -0.1989
 4257SOL    HW214779  10.361   2.242   2.339 -0.3546  0.0907 -0.9464
 4258SOL     OW14780   5.125   0.227   0.148 -0.0749  0.1864  0.0532
 4258SOL    HW114781   5.105   0.216   0.055 -0.7500 -1.7419  0.3797
 4258SOL    HW214782   5.067   0.297   0.177 -0.1268  0.5456 -0.8782
 4259SOL     OW14783   2.399   0.132   7.054 -0.3190 -0.1847 -0.0440
 4259SOL    HW114784   2.487   0.152   7.085 -0.9502  0.5975  1.3046
 4259SOL    HW214785   2.404   0.040   7.026  0.3128 -1.0074  2.4788
 4260SOL     OW14786   1.303   4.152   8.386 -0.7714 -0.4369  0.3809
 4260SOL    HW114787   1.312   4.064   8.348 -0.1592  0.2347 -1.0901
 4260SOL    HW214788   1.391   4.188   8.385 -1.0882  0.3628  0.5730
 4261SOL     OW14789   6.955   8.155   8.466  0.2347 -0.0483 -0.3224
 4261SOL    HW114790   6.886   8.095   8.496 -1.5626  1.2216 -1.6963
 4261SOL    HW214791   6.907   8.229   8.429  2.3781  0.9378 -1.2621
 4262SOL     OW14792   1.786   0.614   9.306  0.0353 -0.2746 -0.6797
 4262SOL    HW114793   1.721   0.544   9.306  0.6707 -1.0401  2.6963
 4262SOL    HW214794   1.847   0.590   9.236 -0.5525 -2.2878 -0.5663
 4263SOL     OW14795   5.014  11.046   7.199  0.1393  0.0886  0.0773
 4263SOL    HW114796   5.107  11.066   7.182  0.1258  0.0877  0.0022
 4263SOL    HW214797   5.009  10.951   7.191  0.4991 -0.1136  1.8643
 4264SOL     OW14798   9.007   7.220  10.596  0.5613 -0.1940 -0.3314
 4264SOL    HW114799   9.009   7.283  10.523 -1.1583 -0.1226 -0.3392
 4264SOL    HW214800   9.032   7.272  10.672  0.9662  0.0556 -0.6254
 4265SOL     OW14801   5.709   8.525   3.979  0.3376 -0.3338 -0.4290
 4265SOL    HW114802   5.727   8.555   4.068  1.0595  2.6195 -1.4638
 4265SOL    HW214803   5.615   8.538   3.967  0.2811 -0.5130 -0.1816
 4266SOL     OW14804   1.961   6.695  10.488 -0.2196 -0.8584  0.7423
 4266SOL    HW114805   1.932   6.676  10.399 -1.9135 -0.3216  1.1472
 4266SOL    HW214806   1.988   6.610  10.523  1.0276 -0.9966 -0.4381
 4267SOL     OW14807   1.295   7.163   0.419  0.0141  0.2827 -0.0448
 4267SOL    HW114808   1.279   7.224   0.491 -0.9000  2.5093 -1.9935
 4267SOL    HW214809   1.383   7.185   0.389 -0.4542  0.9606 -0.9804
 4268SOL     OW14810  10.545   3.900   0.108 -0.1726 -0.3574  0.6078
 4268SOL    HW114811  10.582   3.849   0.180  3.3069  0.0031 -0.7365
 4268SOL    HW214812  10.548   3.840   0.033  1.8834  0.9981 -0.4805
 4269SOL     OW14813   2.567   4.141   4.165 -0.1589 -0.5110  0.2664
 4269SOL    HW114814   2.612   4.225   4.155  0.8749 -1.0500  0.2860
 4269SOL    HW214815   2.484   4.164   4.208 -0.7504  0.7199 -1.3951
 4270SOL     OW14816   7.783   5.415   2.020 -0.4155  0.6902  0.4046
 4270SOL    HW114817   7.799   5.509   2.018  0.1963  0.5870 -1.1728
 4270SOL    HW214818   7.790   5.387   1.929 -2.0479 -0.6654  0.6432
 4271SOL     OW14819   2.955   9.707   3.668  0.0367  0.2392  0.7131
 4271SOL    HW114820   2.932   9.620   3.636 -2.0992  1.5577 -1.7686
 4271SOL    HW214821   3.050   9.713   3.655  0.1750 -1.5914  0.6555
 4272SOL     OW14822  10.366   9.034   8.842  0.0129 -0.0394  0.4012
 4272SOL    HW114823  10.330   9.036   8.754 -0.9418  0.2392  0.7836
 4272SOL    HW214824  10.459   9.013   8.830 -0.3696 -1.2862 -0.5896
 4273SOL     OW14825   9.971   1.813   1.551 -0.2743 -0.0971  0.1940
 4273SOL    HW114826  10.030   1.737   1.554  0.1467  0.1580 -0.9769
 4273SOL    HW214827   9.885   1.775   1.531  0.2084 -0.1908 -1.9847
 4274SOL     OW14828   0.612   7.231   2.612  0.2703 -0.4455 -0.1020
 4274SOL    HW114829   0.534   7.178   2.631  0.2511 -0.3759  0.0196
 4274SOL    HW214830   0.665   7.224   2.691  0.7499 -1.1133 -0.4793
 4275SOL     OW14831   5.827   5.195   9.529  0.2668  0.1684 -0.2899
 4275SOL    HW114832   5.909   5.160   9.564  0.3563 -0.4429 -1.0955
 4275SOL    HW214833   5.830   5.288   9.550 -0.5126 -0.4195  2.9914
 4276SOL     OW14834   2.939  10.935   3.542  0.3783 -0.4948 -0.0214
 4276SOL    HW114835   2.955  11.015   3.492 -2.2451  0.0486 -0.1144
 4276SOL    HW214836   2.991  10.945   3.621  1.5303  0.4283 -0.8632
 4277SOL     OW14837   5.623   2.479   3.563 -0.0935 -0.3546 -0.1681
 4277SOL    HW114838   5.679   2.550   3.595  0.5086 -0.4494 -0.9691
 4277SOL    HW214839   5.546   2.481   3.620  0.4146  0.2277  0.5152
 4278SOL     OW14840  10.900   7.474   0.767  0.1921 -0.1244  0.1419
 4278SOL    HW114841  10.876   7.500   0.856  0.7580 -0.5507  0.4223
 4278SOL    HW214842  10.846   7.397   0.749  0.9372 -0.7600  0.5720
 4279SOL     OW14843   4.008   7.977   8.252  0.5188 -0.1966  0.2584
 4279SOL    HW114844   4.093   7.934   8.253  1.4249  1.4391 -0.9777
 4279SOL    HW214845   4.013   8.042   8.322  1.2140  1.4614 -1.2577
 4280SOL     OW14846   9.537   6.811   4.712  0.0531 -0.1736  0.0789
 4280SOL    HW114847   9.583   6.779   4.790  0.3115 -1.7278 -0.6643
 4280SOL    HW214848   9.445   6.815   4.738  0.3602  1.1967  1.0290
 4281SOL     OW14849   3.295   8.230   0.801 -0.3659  0.7227  0.1835
 4281SOL    HW114850   3.276   8.310   0.849 -1.7880 -0.1602  1.1610
 4281SOL    HW214851   3.291   8.161   0.867 -0.5936 -0.3130 -0.8839
 4282SOL     OW14852   2.182   4.311   4.635 -0.0989 -0.1040 -0.5140
 4282SOL    HW114853   2.143   4.356   4.560  0.2347  0.7329 -0.1916
 4282SOL    HW214854   2.107   4.270   4.678 -0.7565  1.8667  0.3583
 4283SOL     OW14855   6.523   8.330   8.049  0.3871 -0.0447  0.6346
 4283SOL    HW114856   6.515   8.235   8.034  0.7110 -0.0605  0.5561
 4283SOL    HW214857   6.610   8.352   8.017  1.1586 -0.0938  2.5763
 4284SOL     OW14858   3.221   3.651   8.462 -0.5280 -0.0675 -0.3652
 4284SOL    HW114859   3.148   3.602   8.424 -0.5672  1.8155 -2.9917
 4284SOL    HW214860   3.184   3.739   8.478  0.4979  0.1922  0.7104
 4285SOL     OW14861   1.340   7.908   0.767  0.0468  0.5745  0.0363
 4285SOL    HW114862   1.295   7.978   0.815 -0.0625  0.8958 -0.5275
 4285SOL    HW214863   1.279   7.834   0.772  0.6018  0.1824  1.5006
 4286SOL     OW14864   4.734   2.209   3.703  0.0296  0.0402 -0.0701
 4286SOL    HW114865   4.817   2.238   3.666 -0.4825 -0.2540 -1.5117
 4286SOL    HW214866   4.750   2.119   3.733  0.2694  0.0231 -0.2508
 4287SOL     OW14867   2.790   4.354  10.107 -0.4469  0.1446 -0.4958
 4287SOL    HW114868   2.841   4.301  10.046 -0.9541  1.3350 -2.0362
 4287SOL    HW214869   2.708   4.307  10.117 -0.4099  0.0002 -0.8403
 4288SOL     OW14870   8.198   3.123   0.625  0.2404 -0.0217 -0.7911
 4288SOL    HW114871   8.257   3.178   0.676  0.1953  0.2928 -1.0795
 4288SOL    HW214872   8.159   3.064   0.689  0.1863  0.3705 -0.4627
 4289SOL     OW14873   0.231   4.419   6.114  0.6264  0.2639 -0.3429
 4289SOL    HW114874   0.322   4.389   6.118  0.7009  0.6116  1.5320
 4289SOL    HW214875   0.234   4.495   6.057  1.7310  0.8675  0.4681
 4290SOL     OW14876   8.600   5.444   3.729  0.2498  0.2270 -0.8283
 4290SOL    HW114877   8.663   5.394   3.678  0.8487  0.7266 -0.5970
 4290SOL    HW214878   8.517   5.434   3.682 -0.1163 -2.5617  0.2385
 4291SOL     OW14879   2.149   5.112   8.959  0.0235 -0.0090  0.0147
 4291SOL    HW114880   2.190   5.160   8.887  1.9036 -1.8958 -0.2877
 4291SOL    HW214881   2.178   5.158   9.038  1.7032 -0.4829 -0.2731
 4292SOL     OW14882   4.500   0.419   4.387 -0.1200  0.1249  0.0669
 4292SOL    HW114883   4.500   0.515   4.383  1.3055  0.1221 -0.4435
 4292SOL    HW214884   4.512   0.399   4.479 -1.6427  0.4094  0.3539
 4293SOL     OW14885   3.581   7.566   3.023  0.5006  0.3861 -0.3839
 4293SOL    HW114886   3.593   7.596   2.933 -0.7159  2.0559 -0.0349
 4293SOL    HW214887   3.515   7.497   3.017 -0.6988  1.5160 -0.6557
 4294SOL     OW14888   5.516   1.947   5.853  0.1157  0.2248  0.0175
 4294SOL    HW114889   5.422   1.947   5.836  0.2324  1.2293 -0.6837
 4294SOL    HW214890   5.552   2.009   5.791  1.5422 -1.6887 -1.1718
 4295SOL     OW14891   2.361   0.242  11.018 -0.4545  0.4318  0.4563
 4295SOL    HW114892   2.385   0.332  10.995  0.4465  0.2077  0.5012
 4295SOL    HW214893   2.300   0.215  10.948  0.5383  0.5268 -0.4725
 4296SOL     OW14894   7.828   3.854  10.058 -0.4859  0.1271  0.0184
 4296SOL    HW114895   7.912   3.818  10.087  0.5518  1.4027 -1.2514
 4296SOL    HW214896   7.769   3.778  10.054  1.1621 -1.1777 -0.9947
 4297SOL     OW14897   8.511   3.409   0.256  0.1781 -0.5525 -0.0477
 4297SOL    HW114898   8.520   3.407   0.351  0.6583 -1.7629 -0.1019
 4297SOL    HW214899   8.442   3.345   0.237 -0.3611  0.1380 -0.4844
 4298SOL     OW14900   6.773   1.442   3.578 -0.2128 -0.0311 -0.1245
 4298SOL    HW114901   6.814   1.444   3.664 -0.1774  1.5637 -0.1620
 4298SOL    HW214902   6.774   1.532   3.548 -0.1500 -0.5628 -1.8521
 4299SOL     OW14903  10.014   4.413   9.718 -0.0759 -0.2431  0.0881
 4299SOL    HW114904   9.996   4.448   9.805  1.4059 -0.1272  0.3751
 4299SOL    HW214905  10.014   4.489   9.660 -1.5800 -0.3823 -0.1242
 4300SOL     OW14906   3.155   6.905   9.656 -0.1108  0.2047 -0.0468
 4300SOL    HW114907   3.089   6.949   9.709 -1.0729 -1.4810  0.2502
 4300SOL    HW214908   3.191   6.838   9.715  0.5610 -0.0879 -0.7738
 4301SOL     OW14909   8.437   0.731   3.898 -0.0677  0.0874  0.0744
 4301SOL    HW114910   8.436   0.638   3.875  0.1438  0.2930 -0.7965
 4301SOL    HW214911   8.424   0.732   3.993 -2.7007 -0.7386 -0.1902
 4302SOL     OW14912   9.189   7.274   4.112 -0.6215  0.5384 -0.2668
 4302SOL    HW114913   9.121   7.228   4.162  0.0799 -1.4193 -1.0246
 4302SOL    HW214914   9.197   7.359   4.156  0.0305 -1.0608  3.0553
 4303SOL     OW14915   9.198   7.570   7.491  0.1509  0.1052 -0.5418
 4303SOL    HW114916   9.219   7.661   7.471 -1.2924  0.6330  0.1907
 4303SOL    HW214917   9.132   7.575   7.560  0.4283 -1.5134 -0.1091
 4304SOL     OW14918  10.711   8.347   4.781 -0.2291  0.2904 -0.1788
 4304SOL    HW114919  10.695   8.341   4.875  0.1211  2.4311  0.0860
 4304SOL    HW214920  10.736   8.439   4.768  0.2484 -0.0988 -2.2862
 4305SOL     OW14921   5.604   4.937   2.909 -0.1087  0.0772 -0.0650
 4305SOL    HW114922   5.561   4.974   2.831 -0.9258  1.4599  1.0066
 4305SOL    HW214923   5.656   4.865   2.874 -0.3754  0.7050 -1.9195
 4306SOL     OW14924   2.689   8.906   0.493  0.1480  0.4838  0.5123
 4306SOL    HW114925   2.610   8.924   0.543  0.8499  1.1714  1.4265
 4306SOL    HW214926   2.698   8.981   0.434 -0.1686  0.1384  0.0189
 4307SOL     OW14927   0.798   6.458   1.577 -0.2278 -0.4423 -0.3370
 4307SOL    HW114928   0.838   6.378   1.542 -0.3563 -0.6687  0.0216
 4307SOL    HW214929   0.725   6.426   1.630  0.6938 -0.1881  1.1484
 4308SOL     OW14930  10.455   8.250   8.837 -0.0580 -0.4203 -0.8756
 4308SOL    HW114931  10.494   8.233   8.923 -0.1903  4.2353  0.4358
 4308SOL    HW214932  10.521   8.301   8.791 -1.9917  2.0853 -1.1369
 4309SOL     OW14933   2.341  10.340   3.241  0.2622 -0.6012 -0.3716
 4309SOL    HW114934   2.371  10.250   3.251  1.2919 -0.1095  1.4949
 4309SOL    HW214935   2.308  10.345   3.152  1.0326 -2.5799 -0.8085
 4310SOL     OW14936  10.481   2.875   8.342 -0.2563  0.5702 -0.1918
 4310SOL    HW114937  10.415   2.881   8.412 -1.0409  0.9174 -0.9381
 4310SOL    HW214938  10.436   2.910   8.265  0.3565 -0.4677 -1.0339
 4311SOL     OW14939   1.157   1.063   1.892 -0.4288 -0.3882 -0.7582
 4311SOL    HW114940   1.246   1.040   1.866  0.9085  2.3802  0.8865
 4311SOL    HW214941   1.135   1.139   1.839 -1.6929 -0.7970 -0.8617
 4312SOL     OW14942   4.941   1.666   5.503 -0.1553 -0.0931 -0.4451
 4312SOL    HW114943   5.002   1.731   5.469  0.2137 -0.3621 -0.3204
 4312SOL    HW214944   4.988   1.582   5.493  0.1576 -0.1421  1.0793
 4313SOL     OW14945   9.577   6.866   5.846 -0.3010 -0.0059 -0.3532
 4313SOL    HW114946   9.533   6.909   5.920 -0.5254 -0.9370  0.0704
 4313SOL    HW214947   9.607   6.783   5.881 -0.6358 -0.5794 -1.3721
 4314SOL     OW14948   8.467   1.456   2.263  0.1416 -0.2285  0.0719
 4314SOL    HW114949   8.379   1.490   2.248  1.2844  2.8513 -0.1861
 4314SOL    HW214950   8.519   1.487   2.189  1.5730 -1.7045  0.3803
 4315SOL     OW14951   9.749   9.047   6.813 -0.8033  0.2598 -0.7646
 4315SOL    HW114952   9.829   9.038   6.761 -1.4936 -0.5691 -1.7386
 4315SOL    HW214953   9.708   8.961   6.808 -0.9718  0.2150  1.0630
 4316SOL     OW14954   2.589   7.686   9.997  0.0256 -0.0598  0.1036
 4316SOL    HW114955   2.661   7.658  10.054  0.6145 -1.6493 -1.3309
 4316SOL    HW214956   2.510   7.653  10.041  0.2332  0.7606  1.1374
 4317SOL     OW14957   0.524   3.543   0.222 -0.4020  0.0201  0.1359
 4317SOL    HW114958   0.507   3.550   0.128 -0.7315 -0.1352  0.1808
 4317SOL    HW214959   0.460   3.601   0.262 -0.8975 -0.6382  0.3123
 4318SOL     OW14960   8.431   6.050   3.348 -0.1861 -0.3371  0.1411
 4318SOL    HW114961   8.363   5.983   3.338 -1.1706  0.3190  1.9168
 4318SOL    HW214962   8.382   6.133   3.350  0.6258  0.1456  1.5509
 4319SOL     OW14963   5.913   6.215   3.451 -1.1179  0.6428 -0.0374
 4319SOL    HW114964   5.839   6.225   3.511  1.0733  0.0597  3.0576
 4319SOL    HW214965   5.954   6.301   3.448 -0.6985  0.4510  0.0598
 4320SOL     OW14966   6.956   6.584   2.395 -0.1376 -0.3100  0.0799
 4320SOL    HW114967   6.928   6.662   2.443  0.8480  0.7164 -0.9558
 4320SOL    HW214968   6.995   6.618   2.314  0.7407 -1.8600 -0.1885
 4321SOL     OW14969   1.623   4.593   1.845  0.0537 -0.0480 -0.7222
 4321SOL    HW114970   1.644   4.589   1.938  1.8771 -1.2189 -1.1327
 4321SOL    HW214971   1.583   4.680   1.833  1.3426  0.8141  0.8601
 4322SOL     OW14972   3.309   4.496  11.069  0.1378  0.8768 -0.5262
 4322SOL    HW114973   3.322   4.565  11.134  0.6831  0.3973 -0.1258
 4322SOL    HW214974   3.319   4.414  11.117 -0.7488  0.5040 -0.9485
 4323SOL     OW14975   1.104   8.397   4.986 -0.1481  0.0939 -0.4396
 4323SOL    HW114976   1.072   8.368   4.900  0.5800  0.9340 -1.0078
 4323SOL    HW214977   1.184   8.345   5.000 -1.6929 -2.0912  1.0332
 4324SOL     OW14978   7.566   6.121  10.605 -0.2476 -0.1741 -0.4800
 4324SOL    HW114979   7.614   6.194  10.564  0.2876  0.4467  1.1553
 4324SOL    HW214980   7.580   6.047  10.546  1.3564  0.4180 -0.8972
 4325SOL     OW14981   9.483   4.544   3.260  0.0933 -0.1331  0.0809
 4325SOL    HW114982   9.490   4.452   3.234 -2.1311 -0.3451  0.0601
 4325SOL    HW214983   9.570   4.566   3.294  0.7454 -2.1613 -0.1437
 4326SOL     OW14984   9.987   1.915  10.790 -0.2270  0.0649  0.6671
 4326SOL    HW114985   9.963   1.825  10.768 -0.0002 -0.1637  1.3472
 4326SOL    HW214986   9.905   1.957  10.813 -0.1084 -0.4802  2.1549
 4327SOL     OW14987   1.871   7.941   6.434  0.5716  0.2303 -0.5203
 4327SOL    HW114988   1.816   7.890   6.493  2.9336 -1.8019  0.1157
 4327SOL    HW214989   1.878   7.887   6.355  2.0324  0.1521 -0.3682
 4328SOL     OW14990   0.223   2.071   2.851 -0.7316 -0.0013 -0.0285
 4328SOL    HW114991   0.184   1.984   2.846  2.8460 -1.8022  0.2766
 4328SOL    HW214992   0.242   2.083   2.944  3.7534 -1.5376 -0.5129
 4329SOL     OW14993   9.243   7.807   0.627 -0.6096  0.1618  0.1835
 4329SOL    HW114994   9.200   7.816   0.542 -0.1334  0.6551 -0.0072
 4329SOL    HW214995   9.277   7.894   0.647  0.8141 -0.3498  0.0470
 4330SOL     OW14996   9.874   9.389   5.811 -0.4983  0.1313 -0.4639
 4330SOL    HW114997   9.897   9.349   5.727 -0.1108 -2.9153  0.9340
 4330SOL    HW214998   9.958   9.405   5.854 -0.7035  1.4424 -0.5199
 4331SOL     OW14999   9.416   2.656   9.455  0.2543 -0.2472 -0.2016
 4331SOL    HW115000   9.386   2.746   9.470  0.7318 -0.2569  0.9129
 4331SOL    HW215001   9.503   2.666   9.417  0.9303 -0.2136  1.2825
 4332SOL     OW15002   0.677   1.169   8.543 -0.4831 -0.4163 -0.3693
 4332SOL    HW115003   0.745   1.231   8.570  0.2581 -1.3544 -0.0157
 4332SOL    HW215004   0.595   1.214   8.561  0.0327  0.3678  0.0939
 4333SOL     OW15005   0.881   4.940   4.754  0.2404  0.2516 -0.0715
 4333SOL    HW115006   0.814   4.950   4.686  0.7806 -3.0559 -1.2631
 4333SOL    HW215007   0.921   5.027   4.761 -2.0881  1.5396 -1.5309
 4334SOL     OW15008   5.328  10.725   6.283 -0.4236 -0.4327  0.5111
 4334SOL    HW115009   5.303  10.787   6.215 -0.8860 -0.3738  0.7276
 4334SOL    HW215010   5.420  10.705   6.266 -0.7943 -1.1897 -0.7285
 4335SOL     OW15011   9.089   5.951   9.502  0.2808 -0.2313 -0.1686
 4335SOL    HW115012   9.127   5.964   9.589 -1.1545  1.2803  0.2918
 4335SOL    HW215013   9.067   5.858   9.499 -0.8904 -0.0690  1.6646
 4336SOL     OW15014   8.321   7.757   5.390  0.0456  0.3181 -0.0204
 4336SOL    HW115015   8.279   7.705   5.459 -0.5542  0.6002 -0.1698
 4336SOL    HW215016   8.414   7.743   5.404 -0.0561 -2.5866 -1.3728
 4337SOL     OW15017   8.522   1.654   5.392 -0.2282  0.0291 -0.1654
 4337SOL    HW115018   8.616   1.660   5.374 -0.7643  1.8038 -2.9958
 4337SOL    HW215019   8.510   1.702   5.474  1.2669  0.2114 -0.0253
 4338SOL     OW15020   7.076   9.207   1.059 -0.0469 -0.4249  0.1218
 4338SOL    HW115021   7.064   9.225   1.152 -0.5114 -1.2916  0.2332
 4338SOL    HW215022   7.004   9.149   1.036  0.0469 -0.1943 -0.7923
 4339SOL     OW15023   7.527   1.611   1.042 -0.0689 -0.0011  0.3219
 4339SOL    HW115024   7.538   1.523   1.006  1.6027  0.4414 -0.3471
 4339SOL    HW215025   7.434   1.616   1.064  0.0599 -2.4469  1.8214
 4340SOL     OW15026   4.448   8.423   1.036  0.0966 -0.0184  0.9967
 4340SOL    HW115027   4.357   8.451   1.050 -0.8404 -0.6918 -2.6307
 4340SOL    HW215028   4.447   8.329   1.055 -0.6254 -0.4937 -1.1202
 4341SOL     OW15029   0.103   4.592   0.167  0.4985 -0.3599 -0.1674
 4341SOL    HW115030   0.163   4.560   0.100  0.0430 -0.7754 -0.3872
 4341SOL    HW215031   0.104   4.524   0.234  1.6272  0.4689  0.6765
 4342SOL     OW15032   5.245   0.765   1.729 -0.2522  0.3595 -0.0190
 4342SOL    HW115033   5.289   0.816   1.797 -0.7434 -1.2461  1.5770
 4342SOL    HW215034   5.316   0.729   1.676  0.2161  0.2637  0.6711
 4343SOL     OW15035   6.119   5.409   4.347  0.0806  0.4987  0.7068
 4343SOL    HW115036   6.042   5.364   4.383  0.7722 -0.2796  1.2437
 4343SOL    HW215037   6.154   5.459   4.421  1.6843 -1.3463  1.2823
 4344SOL     OW15038   5.236   8.983   4.453 -0.2464  0.3433  0.0402
 4344SOL    HW115039   5.318   8.952   4.415 -0.5671 -0.4617 -0.0121
 4344SOL    HW215040   5.259   9.066   4.494  1.3099 -1.1582  2.5405
 4345SOL     OW15041   0.484   9.454   4.170  0.6282 -0.1410  0.5730
 4345SOL    HW115042   0.516   9.473   4.082 -1.7147  0.1330 -0.2686
 4345SOL    HW215043   0.499   9.535   4.219 -0.6619  0.7362 -0.4055
 4346SOL     OW15044   1.372   2.680   7.428 -0.2603  0.2260  0.5674
 4346SOL    HW115045   1.336   2.675   7.517  2.1653  1.8320  1.7725
 4346SOL    HW215046   1.433   2.607   7.423 -0.3403  0.1810  0.2652
 4347SOL     OW15047   7.231   2.143   4.516 -0.1722  0.8993  0.7599
 4347SOL    HW115048   7.194   2.224   4.552 -1.9107  0.9480 -0.9714
 4347SOL    HW215049   7.262   2.168   4.429  1.6264  0.2420  1.1759
 4348SOL     OW15050   2.459   1.553   9.202  0.2338  0.7057  0.2594
 4348SOL    HW115051   2.368   1.577   9.220  0.1384  0.5414  0.0094
 4348SOL    HW215052   2.488   1.509   9.282  0.3124  1.3642  0.5975
 4349SOL     OW15053   9.845   7.185   8.458  0.3333 -0.1702  0.1238
 4349SOL    HW115054   9.793   7.256   8.421 -0.4337 -0.7337  0.0818
 4349SOL    HW215055   9.899   7.227   8.525  0.6807  0.6181 -0.6294
 4350SOL     OW15056   0.891   2.795   4.986  0.4390 -0.5790 -0.1963
 4350SOL    HW115057   0.852   2.708   4.979 -1.2286  0.1521 -0.3275
 4350SOL    HW215058   0.920   2.802   5.077  0.0248 -1.0441 -0.0257
 4351SOL     OW15059   0.229   7.524   4.465  0.3847  0.2989  0.4076
 4351SOL    HW115060   0.289   7.597   4.483 -0.1886  0.5880  1.1397
 4351SOL    HW215061   0.175   7.517   4.543  1.0550 -1.5386  0.7555
 4352SOL     OW15062  11.009   8.995   2.142 -0.0761 -0.4360  0.5839
 4352SOL    HW115063  10.935   9.008   2.201  1.2071  1.2575  1.9013
 4352SOL    HW215064  10.977   9.026   2.057 -1.0233 -0.2236  1.0057
 4353SOL     OW15065   4.094   8.149  10.193 -0.5224  0.8072 -0.7751
 4353SOL    HW115066   4.065   8.069  10.148 -0.9672  0.3573  0.2662
 4353SOL    HW215067   4.037   8.155  10.269  0.9717  0.8836  0.3756
 4354SOL     OW15068   2.611   7.841  10.581  0.8171  0.1211 -0.1121
 4354SOL    HW115069   2.666   7.882  10.514  0.5764  0.4426 -0.1166
 4354SOL    HW215070   2.573   7.915  10.628  0.0158 -0.0906 -0.4120
 4355SOL     OW15071   5.691   5.372   4.764  0.0275 -0.0499  0.4065
 4355SOL    HW115072   5.690   5.416   4.679  1.7778 -1.8472 -0.6503
 4355SOL    HW215073   5.674   5.442   4.828  0.1266  1.6266 -1.3150
 4356SOL     OW15074   1.152   7.102   4.842 -0.2129  0.4194  0.0254
 4356SOL    HW115075   1.188   7.180   4.884  0.1126 -0.0832  0.7073
 4356SOL    HW215076   1.229   7.047   4.825 -0.5937 -0.4494  1.0423
 4357SOL     OW15077   2.665   4.476   4.134 -0.0290 -0.2701  0.5605
 4357SOL    HW115078   2.674   4.474   4.039 -1.4723 -0.5559  0.4211
 4357SOL    HW215079   2.745   4.520   4.164 -0.1975  1.0978 -0.8791
 4358SOL     OW15080  10.176   7.122   5.026  0.1462  0.1854 -0.9883
 4358SOL    HW115081  10.130   7.162   4.953 -1.0112 -0.9451 -0.9021
 4358SOL    HW215082  10.111   7.118   5.096  1.0130  0.5301 -0.1400
 4359SOL     OW15083   0.040   6.882  10.410  0.2900 -0.0314  0.6306
 4359SOL    HW115084   0.100   6.955  10.394  1.0611 -0.1747  2.6391
 4359SOL    HW215085  -0.044   6.923  10.427  0.5167  0.3548  0.8442
 4360SOL     OW15086   0.453  10.920   4.521 -0.3196 -0.1056  0.2272
 4360SOL    HW115087   0.378  10.950   4.573  1.3238  1.8202  1.6494
 4360SOL    HW215088   0.521  10.985   4.538  1.2301 -0.9887 -2.1576
 4361SOL     OW15089  10.277   1.137   2.416  0.4912 -0.8536  0.2760
 4361SOL    HW115090  10.299   1.189   2.339  1.8254  0.3317  1.3778
 4361SOL    HW215091  10.347   1.071   2.421 -0.1858 -1.6089 -0.1097
 4362SOL     OW15092   8.667   6.378   9.353  0.4674 -0.0640  0.1989
 4362SOL    HW115093   8.741   6.346   9.302  0.4846  1.2498 -0.6413
 4362SOL    HW215094   8.602   6.404   9.287 -0.0448  0.4287  0.8852
 4363SOL     OW15095  10.543   1.440   2.277  0.3883  0.2344 -0.3810
 4363SOL    HW115096  10.548   1.416   2.369 -0.7542 -2.1569 -0.8657
 4363SOL    HW215097  10.621   1.493   2.262  0.4635  0.8988  1.9859
 4364SOL     OW15098   5.618   8.954   0.930  0.7098 -0.2968  0.7433
 4364SOL    HW115099   5.603   9.042   0.896 -1.9992 -0.4975  1.2383
 4364SOL    HW215100   5.637   8.902   0.852 -2.6082 -0.1854 -0.2879
 4365SOL     OW15101   4.394   4.863   6.901 -0.2178 -0.4396 -0.6036
 4365SOL    HW115102   4.348   4.863   6.817  1.9124 -0.9247 -1.8714
 4365SOL    HW215103   4.450   4.785   6.897  0.9644  0.2944  0.6527
 4366SOL     OW15104   7.184   2.901  10.507 -0.3966  0.3454 -0.5970
 4366SOL    HW115105   7.240   2.863  10.439  0.0198 -0.8762  0.3925
 4366SOL    HW215106   7.097   2.864  10.490  0.0946 -1.5014  0.6226
 4367SOL     OW15107   0.785   0.146   2.947  0.0901  0.3655  0.0035
 4367SOL    HW115108   0.829   0.069   2.984 -1.0068  1.2845  3.7029
 4367SOL    HW215109   0.843   0.176   2.878  3.5525 -0.5191  2.2610
 4368SOL     OW15110   2.017   7.974  10.499  0.6454  0.1389 -0.2716
 4368SOL    HW115111   1.948   7.928  10.451  0.4519  0.9862 -0.8089
 4368SOL    HW215112   2.077   7.904  10.526 -1.1553 -0.8313  1.5117
 4369SOL     OW15113  10.243   1.753  10.047 -0.4042 -0.2678  0.0994
 4369SOL    HW115114  10.333   1.785  10.052  0.1599 -1.6356 -0.7820
 4369SOL    HW215115  10.233   1.722   9.957 -1.1348 -1.8234  0.6718
 4370SOL     OW15116   1.901   6.894   3.603 -0.3821 -0.1451 -0.2601
 4370SOL    HW115117   1.963   6.893   3.676  3.4789  0.2012 -3.2186
 4370SOL    HW215118   1.902   6.804   3.569  0.2348  0.3395 -1.5994
 4371SOL     OW15119  10.347   7.954   9.770 -0.2370  0.4418 -0.1716
 4371SOL    HW115120  10.411   7.983   9.834 -0.2486 -0.9682  0.5188
 4371SOL    HW215121  10.382   7.982   9.685  1.5443 -0.7400  0.1468
 4372SOL     OW15122  10.630   3.657   9.409 -0.1833 -0.0560 -0.0686
 4372SOL    HW115123  10.617   3.752   9.411  0.2806  0.0739 -1.5094
 4372SOL    HW215124  10.718   3.644   9.445 -1.3152 -0.2608  2.8821
 4373SOL     OW15125   2.562   0.854   1.058 -0.0184  0.5854  0.0049
 4373SOL    HW115126   2.584   0.900   0.977 -0.8915  0.4571 -0.3118
 4373SOL    HW215127   2.557   0.761   1.033 -2.9001  0.7670 -0.4289
 4374SOL     OW15128   1.031   4.560   3.995  0.0430 -0.2242  0.0258
 4374SOL    HW115129   1.052   4.643   3.952  1.1464 -1.4807 -2.0229
 4374SOL    HW215130   1.029   4.496   3.924 -4.0576 -1.4764  1.0354
 4375SOL     OW15131  10.724   3.291   6.296 -0.0392 -0.2349  0.0928
 4375SOL    HW115132  10.752   3.225   6.359  2.2462  1.4410  0.9732
 4375SOL    HW215133  10.689   3.362   6.349  0.0085  0.3545 -0.6413
 4376SOL     OW15134   5.771   1.522   0.101  0.0630  0.1866  0.1761
 4376SOL    HW115135   5.844   1.486   0.051 -1.5020 -1.3963 -1.1119
 4376SOL    HW215136   5.716   1.565   0.035 -2.0896 -1.9966  0.3875
 4377SOL     OW15137   9.252   5.234   5.049 -0.9231  0.0807 -0.5318
 4377SOL    HW115138   9.295   5.257   4.967 -1.5165 -0.6441 -1.0647
 4377SOL    HW215139   9.214   5.316   5.080 -0.6384  0.3733 -0.9475
 4378SOL     OW15140   7.285   6.623   5.442 -0.1681 -0.0663  0.7331
 4378SOL    HW115141   7.194   6.622   5.415 -0.1659 -0.2676  0.7281
 4378SOL    HW215142   7.327   6.687   5.384 -0.2136 -0.3128  0.4235
 4379SOL     OW15143   3.279   1.078   6.233  0.3694  0.3100 -0.2326
 4379SOL    HW115144   3.205   1.024   6.205 -0.7166  0.9230  1.3319
 4379SOL    HW215145   3.353   1.044   6.183 -0.5998 -1.5236 -0.5179
 4380SOL     OW15146   6.868   4.202   3.640  0.4748 -0.6182 -0.4260
 4380SOL    HW115147   6.885   4.231   3.730  0.9542 -0.9303 -0.4135
 4380SOL    HW215148   6.827   4.116   3.650 -0.6291 -0.1157 -0.4744
 4381SOL     OW15149   3.658   2.634   6.942 -0.0827  0.4815 -0.5286
 4381SOL    HW115150   3.689   2.708   6.994 -0.4597  0.0454  0.3489
 4381SOL    HW215151   3.690   2.651   6.854 -0.9081  2.1243 -0.5390
 4382SOL     OW15152   8.621   7.783   4.184  0.0212  0.0881 -0.0529
 4382SOL    HW115153   8.549   7.720   4.186  0.9047 -1.1023 -2.3302
 4382SOL    HW215154   8.696   7.735   4.221  0.7661 -0.4063 -2.0418
 4383SOL     OW15155   1.186   0.995   0.509  0.0705 -0.1781 -0.0152
 4383SOL    HW115156   1.273   0.962   0.486  1.1755  1.7031  1.1867
 4383SOL    HW215157   1.157   0.938   0.580  0.5691 -0.5103 -0.0688
 4384SOL     OW15158   7.664   9.471   9.408 -0.5181 -0.4109 -0.3978
 4384SOL    HW115159   7.669   9.560   9.442 -0.1561 -0.5021 -0.2082
 4384SOL    HW215160   7.594   9.474   9.342 -0.0739  0.1596 -0.8519
 4385SOL     OW15161   2.595   6.622   4.177 -0.1963  0.5125 -0.0059
 4385SOL    HW115162   2.685   6.653   4.184 -0.5173  1.1907  1.4375
 4385SOL    HW215163   2.590   6.548   4.238 -1.0442  1.5437  1.2013
 4386SOL     OW15164   3.524   5.619  10.980 -0.0304  0.3736 -0.3758
 4386SOL    HW115165   3.592   5.670  11.024  1.1366 -2.4397  1.3798
 4386SOL    HW215166   3.513   5.662  10.895  4.0166  1.0256 -0.8019
 4387SOL     OW15167   5.544  10.190   0.438  0.0118 -0.6380  0.2102
 4387SOL    HW115168   5.459  10.221   0.469 -0.5808 -1.9783 -0.0268
 4387SOL    HW215169   5.555  10.104   0.478  1.2673 -0.4893  0.2399
 4388SOL     OW15170   5.396   5.268   0.402 -0.1722 -0.1532  0.2729
 4388SOL    HW115171   5.415   5.271   0.308  3.8585 -0.3584  0.8980
 4388SOL    HW215172   5.363   5.356   0.423 -1.5869 -0.2476 -1.3271
 4389SOL     OW15173   0.929   1.829   4.831  0.0148  0.0761  0.4246
 4389SOL    HW115174   0.860   1.766   4.848 -1.7231  1.0043 -2.4165
 4389SOL    HW215175   0.892   1.914   4.856  1.1707  0.3380  1.3439
 4390SOL     OW15176   4.501   8.711   3.916 -0.1914 -0.2279 -0.3048
 4390SOL    HW115177   4.460   8.636   3.874  1.0483 -0.5314 -1.0218
 4390SOL    HW215178   4.580   8.727   3.865 -0.5324  1.7017 -0.2886
 4391SOL     OW15179  10.566   7.442   0.620  0.1721  0.2453  0.4836
 4391SOL    HW115180  10.566   7.478   0.709 -0.2393  0.2634  0.4758
 4391SOL    HW215181  10.583   7.349   0.632 -0.7847  0.0874  0.6465
 4392SOL     OW15182   3.070   4.873   2.956  0.0336 -0.2560  0.9047
 4392SOL    HW115183   3.051   4.924   3.035  2.9312  1.9866  0.3373
 4392SOL    HW215184   3.158   4.838   2.971  0.2039 -0.6699 -0.8710
 4393SOL     OW15185   4.390   2.030   5.497  0.1060  0.4160  0.1895
 4393SOL    HW115186   4.426   1.971   5.564  0.4220 -0.2217 -0.5206
 4393SOL    HW215187   4.412   1.987   5.414 -0.2530  1.2094 -0.3229
 4394SOL     OW15188   9.821  10.567   6.333  0.6040  0.1678 -0.0302
 4394SOL    HW115189   9.774  10.630   6.279 -0.5264 -0.4075  0.2631
 4394SOL    HW215190   9.826  10.608   6.419 -0.4902 -0.3019  0.2664
 4395SOL     OW15191   5.684   0.259   4.921  0.3276 -0.1150  0.1153
 4395SOL    HW115192   5.647   0.173   4.904  0.9375 -0.4228  0.2941
 4395SOL    HW215193   5.777   0.242   4.938  0.2684  0.4650  1.1111
 4396SOL     OW15194   7.230   7.997   3.529 -0.4283  0.1926  0.1640
 4396SOL    HW115195   7.172   8.031   3.597  1.0737 -0.5052  1.8754
 4396SOL    HW215196   7.172   7.947   3.472 -1.6367  0.1563  1.3527
 4397SOL     OW15197   9.066   3.267   8.652  0.1327  0.0377 -0.4850
 4397SOL    HW115198   8.974   3.295   8.657 -0.4821 -1.8318 -0.7907
 4397SOL    HW215199   9.109   3.336   8.602 -1.3471  0.3612 -1.3674
 4398SOL     OW15200   1.954   8.270   8.185  0.1992  0.1293  0.1227
 4398SOL    HW115201   1.994   8.245   8.268  1.4429  0.0485 -0.4773
 4398SOL    HW215202   2.022   8.256   8.120 -0.9711 -0.4711 -1.0238
 4399SOL     OW15203   5.005   8.303   1.379 -0.0510 -1.2892  0.2170
 4399SOL    HW115204   4.928   8.301   1.435 -0.1971 -1.7358 -0.0008
 4399SOL    HW215205   5.040   8.214   1.382 -1.3599 -1.9665 -2.1974
 4400SOL     OW15206   3.613   9.919   5.895  0.0284  0.6645 -0.1087
 4400SOL    HW115207   3.688   9.877   5.854  0.4861  1.2286  0.1355
 4400SOL    HW215208   3.650   9.992   5.944 -0.6821  0.9686 -0.0075
 4401SOL     OW15209   6.836   5.579  10.309  0.2254  0.0173  0.7370
 4401SOL    HW115210   6.797   5.542  10.230  0.4475 -0.1667  0.7122
 4401SOL    HW215211   6.929   5.561  10.301  0.1354 -0.8245  1.4770
 4402SOL     OW15212   9.829   7.153   9.134  0.0330 -0.0488  0.4662
 4402SOL    HW115213   9.910   7.132   9.089 -1.3582 -1.0761 -1.7344
 4402SOL    HW215214   9.798   7.233   9.091  0.0116  0.5463  1.5365
 4403SOL     OW15215   7.846   0.997   2.391  0.4099  0.6252 -0.0790
 4403SOL    HW115216   7.805   1.072   2.433  1.3342  1.0427  0.0973
 4403SOL    HW215217   7.872   0.940   2.464  0.4977  0.5508 -0.1679
 4404SOL     OW15218   3.744   7.027   5.717 -0.2590 -0.2128 -0.2647
 4404SOL    HW115219   3.723   7.106   5.667  4.4229  2.4551  1.2967
 4404SOL    HW215220   3.834   7.005   5.691 -0.8243 -4.2745  0.4988
 4405SOL     OW15221   2.082   6.916  10.799 -0.0896 -0.0018  0.2507
 4405SOL    HW115222   2.061   6.980  10.866  0.3770  0.2854  0.1285
 4405SOL    HW215223   2.031   6.943  10.723 -1.3138 -0.8414  0.7375
 4406SOL     OW15224   3.313  10.668   6.871  0.5571  0.1960 -0.0236
 4406SOL    HW115225   3.327  10.578   6.900  2.0634  0.5849  0.5471
 4406SOL    HW215226   3.290  10.716   6.951 -0.4332  0.3089 -0.3546
 4407SOL     OW15227   1.190   6.155   0.608  0.0321 -0.4450  0.2167
 4407SOL    HW115228   1.204   6.155   0.514 -0.4569 -0.3377  0.1409
 4407SOL    HW215229   1.110   6.206   0.621  0.3422 -0.0683  0.7300
 4408SOL     OW15230   2.534   7.642   2.199 -0.7040  0.3755 -0.5378
 4408SOL    HW115231   2.476   7.714   2.224 -0.1241  0.0405  2.1589
 4408SOL    HW215232   2.497   7.565   2.241  0.0309 -0.4378 -1.3346
 4409SOL     OW15233   4.812   4.478  10.517 -0.3377 -0.2210 -0.5548
 4409SOL    HW115234   4.756   4.526  10.577  0.0903 -1.5881  0.9849
 4409SOL    HW215235   4.768   4.486  10.432 -1.4124  0.9937  0.0758
 4410SOL     OW15236   3.046   4.411   3.965  0.5565  0.3608 -0.1320
 4410SOL    HW115237   2.971   4.354   3.948 -0.8216  2.0823 -0.1275
 4410SOL    HW215238   3.090   4.419   3.880 -0.1384  0.5145 -0.4822
 4411SOL     OW15239   0.094   9.641   0.638 -0.1381  0.5891  0.0979
 4411SOL    HW115240   0.052   9.572   0.587 -0.7517  0.7134  0.4162
 4411SOL    HW215241   0.179   9.605   0.663 -0.1444  0.2440 -0.3732
 4412SOL     OW15242   4.885   7.152   6.774 -0.1477 -0.4875  0.0242
 4412SOL    HW115243   4.948   7.083   6.793  0.9230  0.3294 -0.4628
 4412SOL    HW215244   4.879   7.202   6.856  0.2499 -0.2565 -0.0842
 4413SOL     OW15245   3.270   4.581   1.419  0.3057  0.4276 -0.1610
 4413SOL    HW115246   3.332   4.528   1.371 -0.2065  0.1807 -0.5599
 4413SOL    HW215247   3.284   4.559   1.511  0.2830 -0.1926 -0.3052
 4414SOL     OW15248   1.651   7.736   5.808  0.2258 -0.3038 -0.3203
 4414SOL    HW115249   1.679   7.728   5.900  1.5411  1.0774 -0.5465
 4414SOL    HW215250   1.714   7.683   5.759 -0.0683 -0.5063 -0.4785
 4415SOL     OW15251   1.234   6.562   9.563 -0.2693 -0.3978  0.6552
 4415SOL    HW115252   1.316   6.577   9.609  0.4957 -0.4707 -0.6472
 4415SOL    HW215253   1.249   6.482   9.513 -0.6897  0.2879 -0.5946
 4416SOL     OW15254   9.746   2.922  10.062  0.0260 -0.1694  0.5630
 4416SOL    HW115255   9.840   2.903  10.065  0.1378  0.2854  4.1809
 4416SOL    HW215256   9.704   2.841  10.091 -0.8489 -0.6222 -1.7483
 4417SOL     OW15257   6.003   9.310   2.804 -0.2845  0.2939  0.5450
 4417SOL    HW115258   5.990   9.318   2.710  1.2862  1.0336  0.3584
 4417SOL    HW215259   6.026   9.398   2.833  0.4230 -0.1544  1.4069
 4418SOL     OW15260   5.845   0.834   2.666  0.1292  0.0374 -0.3530
 4418SOL    HW115261   5.889   0.838   2.751  0.6657  0.8330 -0.6552
 4418SOL    HW215262   5.917   0.829   2.603 -0.2625 -2.7010 -0.7102
 4419SOL     OW15263  10.380   6.961   9.126 -0.0509 -0.2860 -0.2727
 4419SOL    HW115264  10.413   7.011   9.051 -0.5118 -0.4342 -0.5771
 4419SOL    HW215265  10.325   6.893   9.087  1.0631 -1.4262  0.1015
 4420SOL     OW15266   0.141  10.641   8.007 -0.4350 -0.2725 -0.5774
 4420SOL    HW115267   0.139  10.661   7.913  0.9917 -0.4737 -0.6804
 4420SOL    HW215268   0.221  10.590   8.018 -0.0916  0.5355  0.9089
 4421SOL     OW15269   9.442  10.781   8.034  0.2444  0.0657 -0.5249
 4421SOL    HW115270   9.430  10.854   7.973  2.5947  0.3820 -0.6998
 4421SOL    HW215271   9.449  10.822   8.120  0.7873 -0.0105 -0.5282
 4422SOL     OW15272   2.452   7.168   9.606 -0.2503 -0.0424 -0.6016
 4422SOL    HW115273   2.546   7.185   9.618 -0.6639  1.4405  0.8827
 4422SOL    HW215274   2.428   7.114   9.681 -0.7464  0.2624 -0.5403
 4423SOL     OW15275   1.585   7.113  10.813  0.2197 -0.0471 -0.2223
 4423SOL    HW115276   1.534   7.113  10.732 -0.7900 -1.4010  0.3730
 4423SOL    HW215277   1.627   7.027  10.815  0.9787  0.3298  0.2409
 4424SOL     OW15278   9.133   9.752   1.402  0.4045  0.3082 -0.0741
 4424SOL    HW115279   9.196   9.746   1.473 -0.0429 -0.2010  0.2929
 4424SOL    HW215280   9.120   9.661   1.374  0.3647  0.4759 -0.6166
 4425SOL     OW15281   6.130   3.204   4.529  0.3325 -0.4235  0.0307
 4425SOL    HW115282   6.162   3.240   4.612 -0.2214  3.2955 -1.1987
 4425SOL    HW215283   6.209   3.194   4.476  0.2744  3.5827 -1.1286
 4426SOL     OW15284   8.590   8.961   0.255  0.5070 -0.4253  0.0132
 4426SOL    HW115285   8.662   9.025   0.261 -0.0314  0.3375 -1.2813
 4426SOL    HW215286   8.511   9.013   0.272  0.0774 -0.7725 -0.8871
 4427SOL     OW15287   4.090   4.348   5.517 -0.1065  0.3714 -0.0315
 4427SOL    HW115288   4.125   4.282   5.456 -1.4980 -0.0809 -0.3741
 4427SOL    HW215289   4.006   4.312   5.545  0.0673  1.0407  1.4191
 4428SOL     OW15290  10.860   7.181   2.935 -0.2065 -0.1362 -1.0921
 4428SOL    HW115291  10.788   7.118   2.931  0.9179 -1.6656  0.9557
 4428SOL    HW215292  10.939   7.126   2.943  0.8681  1.5243  0.2205
 4429SOL     OW15293  10.768   9.535   5.977 -0.8208 -0.4119 -0.3073
 4429SOL    HW115294  10.727   9.504   5.896 -1.6270 -0.3412  0.0655
 4429SOL    HW215295  10.858   9.502   5.973 -0.3467  0.9744 -2.0005
 4430SOL     OW15296   3.596   7.898   9.706  0.1041  0.2463  0.2113
 4430SOL    HW115297   3.660   7.955   9.749  2.4242 -2.3342  0.4690
 4430SOL    HW215298   3.549   7.856   9.778  1.5620 -1.4486  0.2459
 4431SOL     OW15299   2.929   3.112   9.985  0.1100  0.2693  0.6885
 4431SOL    HW115300   2.934   3.067   9.900 -2.2433 -0.3298  0.8009
 4431SOL    HW215301   2.925   3.205   9.962 -2.9889  0.0421 -0.1193
 4432SOL     OW15302   7.149   1.119   5.299 -0.5571 -0.1594 -0.1515
 4432SOL    HW115303   7.236   1.085   5.282 -0.0163  0.6517  0.8673
 4432SOL    HW215304   7.095   1.041   5.314  0.3647 -0.6244  0.8550
 4433SOL     OW15305   2.451   8.156   7.524 -0.3613 -0.2214  0.7731
 4433SOL    HW115306   2.498   8.097   7.465 -1.2430  0.0282 -0.2116
 4433SOL    HW215307   2.450   8.240   7.478 -3.5834 -0.7152 -0.2933
 4434SOL     OW15308   0.017   2.943   4.082  0.6981 -0.5632 -0.1655
 4434SOL    HW115309   0.053   3.000   4.150  1.0726  0.0915 -0.9024
 4434SOL    HW215310   0.076   2.867   4.080  0.1562 -1.0250  0.8657
 4435SOL     OW15311   7.208   3.217   5.980 -0.6145  0.1599  0.0463
 4435SOL    HW115312   7.215   3.123   5.991 -2.8811  0.2346  3.9110
 4435SOL    HW215313   7.117   3.231   5.952 -0.3784  1.2242 -0.2493
 4436SOL     OW15314   8.064   7.319   4.895  0.5227  0.3450 -0.4081
 4436SOL    HW115315   8.093   7.320   4.804 -0.5515  0.8119 -0.7628
 4436SOL    HW215316   7.970   7.337   4.891 -0.0764 -2.1609  0.6157
 4437SOL     OW15317   2.576   0.477   6.375  0.4741 -0.8161  0.4339
 4437SOL    HW115318   2.484   0.455   6.384  0.3835 -0.6005  0.0795
 4437SOL    HW215319   2.590   0.550   6.435  0.1795 -0.2139 -0.2160
 4438SOL     OW15320   4.639   9.633   5.879 -0.5429  0.3418  0.2300
 4438SOL    HW115321   4.654   9.717   5.836 -3.2023  1.4618  1.2215
 4438SOL    HW215322   4.659   9.650   5.971  0.4651 -0.6357  0.2155
 4439SOL     OW15323   1.118   7.447   0.470 -0.0623 -0.7339 -0.3701
 4439SOL    HW115324   1.143   7.539   0.477 -1.6293 -0.2695 -0.5302
 4439SOL    HW215325   1.146   7.408   0.553  0.0392  0.0287 -0.0391
 4440SOL     OW15326  10.418   4.536   8.454 -0.4465  0.0087  0.1168
 4440SOL    HW115327  10.371   4.614   8.484  0.6789  0.5884  0.4480
 4440SOL    HW215328  10.423   4.480   8.531 -0.6228 -0.0660  0.0737
 4441SOL     OW15329   1.595   7.763   6.118 -0.2403 -0.1420  0.5086
 4441SOL    HW115330   1.574   7.855   6.105 -1.5680 -0.4928  0.0690
 4441SOL    HW215331   1.514   7.723   6.150  0.2696 -1.1944  0.5517
 4442SOL     OW15332   9.438   7.234   8.590  0.3813  0.0767 -0.2688
 4442SOL    HW115333   9.370   7.261   8.652  0.4349 -0.1959 -0.0891
 4442SOL    HW215334   9.498   7.308   8.587 -0.6797  0.9473 -1.5530
 4443SOL     OW15335   2.013   6.251   9.019  0.0931 -0.2295 -0.5473
 4443SOL    HW115336   2.038   6.181   9.079 -0.1662 -0.3803 -0.6129
 4443SOL    HW215337   2.095   6.274   8.974  0.1383 -0.6393 -0.6801
 4444SOL     OW15338   8.916   4.243   3.880  0.0215 -0.3215 -0.6169
 4444SOL    HW115339   8.998   4.204   3.910 -1.0494 -3.1691 -1.0649
 4444SOL    HW215340   8.943   4.323   3.836  2.4956 -0.8328 -0.1997
 4445SOL     OW15341   3.640   9.144   8.397 -0.4680  0.4712 -0.3573
 4445SOL    HW115342   3.548   9.170   8.405 -0.5019  0.1458  0.3825
 4445SOL    HW215343   3.646   9.101   8.311 -1.1202  0.0254 -0.1843
 4446SOL     OW15344   8.832   8.982   5.318 -0.1237 -0.1215 -0.0236
 4446SOL    HW115345   8.872   8.928   5.251  1.8189  0.1549  0.8536
 4446SOL    HW215346   8.874   8.955   5.399  0.4911  2.2802  0.5272
 4447SOL     OW15347   0.021   8.397  10.496  0.1065  0.1017 -0.0592
 4447SOL    HW115348  -0.065   8.376  10.533  0.9175 -1.4661  1.0551
 4447SOL    HW215349   0.007   8.395  10.401 -0.8960 -1.1079  0.0865
 4448SOL     OW15350   3.235   0.019   3.482 -0.0322  0.6606  0.2189
 4448SOL    HW115351   3.206   0.078   3.551  1.6128  0.4769  1.1399
 4448SOL    HW215352   3.219  -0.069   3.517  0.1558  0.5689  0.0784
 4449SOL     OW15353   2.490   6.505   0.815  0.0807 -0.4270 -0.2705
 4449SOL    HW115354   2.501   6.422   0.861  2.1018  0.7722  1.6192
 4449SOL    HW215355   2.521   6.487   0.726  0.4928 -1.7097  0.1012
 4450SOL     OW15356   1.709   1.505  10.228  0.5865 -0.6940 -0.2893
 4450SOL    HW115357   1.772   1.468  10.167 -0.0787 -0.2554 -1.2625
 4450SOL    HW215358   1.658   1.431  10.260  1.6399 -1.0672  0.5861
 4451SOL     OW15359   6.621   7.247   5.161  0.5494  0.0016 -0.2017
 4451SOL    HW115360   6.633   7.174   5.100 -3.1639 -0.4152 -0.6326
 4451SOL    HW215361   6.576   7.208   5.236 -0.2397  1.5781  0.1875
 4452SOL     OW15362   4.197   3.690   6.756  0.1352 -0.0771  0.0266
 4452SOL    HW115363   4.259   3.761   6.769 -1.4466  1.2223  0.8358
 4452SOL    HW215364   4.191   3.680   6.661  2.0345 -0.7009 -0.0681
 4453SOL     OW15365   1.779   2.354   0.859  0.2802  0.1351  0.1206
 4453SOL    HW115366   1.760   2.310   0.942 -1.3360  0.6233  0.0462
 4453SOL    HW215367   1.802   2.283   0.799  0.4782 -0.3177  0.7197
 4454SOL     OW15368   1.299   6.407   6.797 -0.2049  0.0248 -0.5805
 4454SOL    HW115369   1.251   6.362   6.727 -0.4890  0.4373 -0.6532
 4454SOL    HW215370   1.261   6.373   6.878  1.6216 -2.1469 -0.5360
 4455SOL     OW15371   1.681   5.734   0.056  0.4374  0.5820  0.4473
 4455SOL    HW115372   1.657   5.777  -0.026  1.0991  1.8429  0.8938
 4455SOL    HW215373   1.743   5.666   0.029 -1.0207 -0.4881 -0.3227
 4456SOL     OW15374   4.054   7.230   7.266 -0.4329 -0.3387  0.3044
 4456SOL    HW115375   4.061   7.297   7.198  2.9467 -0.9989 -0.1956
 4456SOL    HW215376   4.058   7.147   7.219  0.9013 -0.8092  1.1821
 4457SOL     OW15377  10.512   8.165   0.612  0.1171 -0.6303  0.8210
 4457SOL    HW115378  10.468   8.247   0.591 -0.6757 -1.4994 -1.1584
 4457SOL    HW215379  10.453   8.122   0.675 -0.2623 -0.3771  0.6439
 4458SOL     OW15380   3.264   9.317   6.722 -0.5020  0.0970  0.3770
 4458SOL    HW115381   3.276   9.409   6.744 -1.6913 -0.1609  2.3633
 4458SOL    HW215382   3.319   9.269   6.785  0.1196 -0.5696 -0.6430
 4459SOL     OW15383   3.977   2.553   5.189 -0.1073  0.6597  0.3730
 4459SOL    HW115384   3.917   2.621   5.220  1.4170  1.8664  0.8149
 4459SOL    HW215385   3.993   2.499   5.267 -2.9803 -1.6198 -0.4568
 4460SOL     OW15386   4.358   4.781   8.346  0.2935 -0.2935  0.5507
 4460SOL    HW115387   4.370   4.729   8.266  1.7079 -0.0821  0.5998
 4460SOL    HW215388   4.414   4.857   8.333  0.7390 -0.3844  1.8564
 4461SOL     OW15389   4.936   9.089   0.053  0.2301 -0.0984 -0.3463
 4461SOL    HW115390   4.852   9.060   0.089  0.6185  1.4996  2.0610
 4461SOL    HW215391   4.920   9.180   0.028  1.6589  0.8710  1.9621
 4462SOL     OW15392   1.159   5.465   0.969  0.0293 -0.5088 -0.2071
 4462SOL    HW115393   1.125   5.477   1.057 -0.4469 -0.8722 -0.3418
 4462SOL    HW215394   1.151   5.552   0.929 -0.3383 -0.4906 -0.0980
 4463SOL     OW15395   3.469   3.467   1.951  0.3122  0.0073 -0.3166
 4463SOL    HW115396   3.547   3.516   1.925  0.0642 -0.2336 -1.5889
 4463SOL    HW215397   3.404   3.488   1.884 -0.2188 -1.0221 -0.1406
 4464SOL     OW15398   5.342   7.006   8.716 -1.3675 -0.3243 -0.2033
 4464SOL    HW115399   5.332   6.937   8.782 -1.2410  1.3889  1.6977
 4464SOL    HW215400   5.436   7.026   8.717 -1.5872  0.7852  0.2908
 4465SOL     OW15401  10.862   0.859   2.203 -0.5695 -0.0507  0.0841
 4465SOL    HW115402  10.802   0.787   2.182 -0.5569  0.5072 -2.1077
 4465SOL    HW215403  10.874   0.905   2.120 -0.9031  2.7471  1.4695
 4466SOL     OW15404   8.953   4.702   7.257  0.0887  0.1601 -0.3757
 4466SOL    HW115405   8.919   4.677   7.171 -0.0677 -0.0658 -0.2496
 4466SOL    HW215406   9.045   4.725   7.241 -0.2340  1.2052 -0.7927
 4467SOL     OW15407  10.784   8.125   4.118  0.5474  0.0225 -0.2988
 4467SOL    HW115408  10.815   8.160   4.201  0.9683  1.4210 -1.0060
 4467SOL    HW215409  10.860   8.083   4.079  0.8540  0.9809 -0.7729
 4468SOL     OW15410   3.346   5.220   4.188 -0.2689 -0.3446 -0.0343
 4468SOL    HW115411   3.405   5.197   4.117  0.1070 -0.0107  0.1626
 4468SOL    HW215412   3.267   5.253   4.145 -1.0100 -2.3678 -0.3407
 4469SOL     OW15413   1.899   5.915   8.989 -0.1829 -0.2993  0.5525
 4469SOL    HW115414   1.834   5.852   9.020 -1.0134  0.9573  1.5000
 4469SOL    HW215415   1.958   5.926   9.063  0.1544 -0.2204  0.2717
 4470SOL     OW15416   5.084   3.526   7.764 -0.3217  0.3025  0.3190
 4470SOL    HW115417   5.059   3.584   7.692 -1.1896  0.5216  0.7777
 4470SOL    HW215418   5.043   3.564   7.841 -0.6399 -0.7341  0.6839
 4471SOL     OW15419   3.032   7.020   4.254  0.1633  0.1845 -0.2918
 4471SOL    HW115420   2.949   7.060   4.229 -0.0176  0.7546  1.1432
 4471SOL    HW215421   3.014   6.976   4.337  0.8862 -1.1152 -0.7888
 4472SOL     OW15422   7.771   1.929  10.122 -0.1961  0.3036  0.8152
 4472SOL    HW115423   7.865   1.946  10.124 -0.1049  0.7025 -2.2089
 4472SOL    HW215424   7.761   1.842  10.162  1.3645  0.4652  1.6178
 4473SOL     OW15425  10.706   7.033   9.044  0.5609 -0.2889 -0.2238
 4473SOL    HW115426  10.784   6.979   9.035 -0.8994 -3.1125  2.1656
 4473SOL    HW215427  10.656   7.017   8.964  0.1650 -2.6297  0.4286
 4474SOL     OW15428  10.508   3.826   6.127  0.3805 -0.0000  0.3971
 4474SOL    HW115429  10.522   3.921   6.122  0.2252  0.0531  0.9105
 4474SOL    HW215430  10.419   3.813   6.095  0.4726  0.0036  0.1358
 4475SOL     OW15431  10.963   8.314   0.731  0.2333  0.0318  0.2031
 4475SOL    HW115432  10.905   8.253   0.777  0.6193 -0.0771  0.5540
 4475SOL    HW215433  10.974   8.275   0.644  0.0126 -0.0958  0.2313
 4476SOL     OW15434  10.712   1.356  10.043 -0.8222 -0.6011  0.6164
 4476SOL    HW115435  10.667   1.410  10.108  1.4878  2.6956 -0.2671
 4476SOL    HW215436  10.799   1.343  10.080 -0.0779 -0.2753 -0.9744
 4477SOL     OW15437   4.262   2.156   5.031  0.6264 -0.1731  0.2570
 4477SOL    HW115438   4.253   2.154   5.126 -1.0474  2.2188  0.2184
 4477SOL    HW215439   4.353   2.183   5.016  0.6940  0.1359  1.1870
 4478SOL     OW15440  10.071   1.725   3.878 -1.0121  0.2913  0.6049
 4478SOL    HW115441  10.071   1.800   3.938  0.7188  1.4941 -0.7934
 4478SOL    HW215442  10.029   1.757   3.798 -1.7923 -0.7856  0.5526
 4479SOL     OW15443   2.657   6.300   4.723  0.1227 -0.0446  0.2553
 4479SOL    HW115444   2.735   6.288   4.777 -0.7696 -1.0384  1.3789
 4479SOL    HW215445   2.590   6.247   4.766 -1.2648  1.0424 -0.5036
 4480SOL     OW15446   5.520   0.048   2.958 -0.7142  0.2503 -0.0606
 4480SOL    HW115447   5.532  -0.017   2.889 -0.2709 -1.2280  1.3530
 4480SOL    HW215448   5.555   0.129   2.920  1.4871 -0.9778 -0.8476
 4481SOL     OW15449   6.295   0.229   7.143 -0.0099  0.0974  0.4063
 4481SOL    HW115450   6.233   0.162   7.114 -0.8579  1.3984 -0.9476
 4481SOL    HW215451   6.261   0.260   7.227 -1.6098  1.2011 -0.5856
 4482SOL     OW15452   6.840   3.968   6.951 -0.3171 -0.1379  0.9888
 4482SOL    HW115453   6.803   4.056   6.959 -1.1379 -0.4862  1.0152
 4482SOL    HW215454   6.867   3.962   6.859  1.8108  0.9451  1.4749
 4483SOL     OW15455   1.599   7.913   1.721 -0.3480  0.1167 -0.0505
 4483SOL    HW115456   1.608   7.819   1.738 -1.7300  0.1169  0.8771
 4483SOL    HW215457   1.517   7.920   1.671  0.6876  0.6876 -1.7564
 4484SOL     OW15458   8.925   3.942   7.486  0.0570  0.0262  0.0081
 4484SOL    HW115459   8.895   4.032   7.495 -0.9335 -0.3627  0.7484
 4484SOL    HW215460   8.871   3.905   7.417  0.7044  0.0870 -0.5421
 4485SOL     OW15461   4.346  10.953   9.259 -0.4448  0.1458  0.5324
 4485SOL    HW115462   4.286  10.901   9.312 -0.4335 -0.3684  0.0521
 4485SOL    HW215463   4.384  11.016   9.320  0.1509 -0.9387  1.2974
 4486SOL     OW15464   2.886  10.482   1.621 -0.1637 -0.3866 -0.1141
 4486SOL    HW115465   2.798  10.506   1.650 -0.3339 -3.0929  2.0676
 4486SOL    HW215466   2.905  10.401   1.669  3.2666 -0.2596 -1.0233
 4487SOL     OW15467   5.437   4.014   5.447  0.3951  0.0484  0.5855
 4487SOL    HW115468   5.465   4.031   5.537  0.9062 -0.6494  0.5694
 4487SOL    HW215469   5.467   4.090   5.398  0.6594  0.1533  0.9034
 4488SOL     OW15470   0.420   3.054   4.434  0.0705 -0.1206 -0.3702
 4488SOL    HW115471   0.471   3.024   4.509  0.4738  0.7144 -0.3042
 4488SOL    HW215472   0.371   3.129   4.467  0.5189  0.4719 -1.0418
 4489SOL     OW15473   6.495   2.258   6.483  0.2608 -0.2069  0.2963
 4489SOL    HW115474   6.414   2.284   6.527  0.7002  2.0427 -0.0900
 4489SOL    HW215475   6.554   2.232   6.554  0.3661  1.6247  0.9252
 4490SOL     OW15476   3.850   5.692   0.124  0.1458  0.0584 -0.6065
 4490SOL    HW115477   3.902   5.694   0.045  0.9527 -1.6643 -0.1683
 4490SOL    HW215478   3.819   5.601   0.131 -0.8931  0.4534  0.4206
 4491SOL     OW15479  10.644   3.371   0.728 -0.1792  0.2263  0.1342
 4491SOL    HW115480  10.610   3.388   0.640  0.8178 -0.4841 -0.4053
 4491SOL    HW215481  10.716   3.433   0.738  0.6184 -0.6389 -0.1163
 4492SOL     OW15482   6.662   1.796   7.698 -0.1909  0.3251 -0.0705
 4492SOL    HW115483   6.656   1.711   7.654 -0.9507 -0.8524  2.1522
 4492SOL    HW215484   6.572   1.824   7.710 -0.0698  0.1773  1.4348
 4493SOL     OW15485   3.635  10.672   8.169 -0.1675  0.5814 -0.0160
 4493SOL    HW115486   3.649  10.579   8.151 -0.9982  0.5788 -0.7039
 4493SOL    HW215487   3.705  10.695   8.230  0.2499 -0.4115 -0.0968
 4494SOL     OW15488   6.391   2.350  10.444 -0.3197  0.0971  0.1638
 4494SOL    HW115489   6.334   2.313  10.376 -1.6441  0.6525  0.9151
 4494SOL    HW215490   6.465   2.289  10.449 -0.7928 -0.6053 -0.9243
 4495SOL     OW15491   2.900   8.829   4.896 -0.1923 -0.5096 -0.0813
 4495SOL    HW115492   2.947   8.817   4.978 -1.2189 -1.1010  0.4405
 4495SOL    HW215493   2.878   8.922   4.894  1.1758 -0.1792 -0.4449
 4496SOL     OW15494   0.459   7.542   6.215  0.2644  0.0086  0.3321
 4496SOL    HW115495   0.456   7.520   6.308 -0.2565  0.4808  0.4306
 4496SOL    HW215496   0.452   7.457   6.171  1.2142 -0.2820  0.7215
 4497SOL     OW15497   8.981  10.881   4.939 -0.1637 -0.4052  0.6877
 4497SOL    HW115498   9.071  10.911   4.945  0.4325 -2.0570  0.3457
 4497SOL    HW215499   8.955  10.862   5.029 -0.0075 -0.3745  0.7386
 4498SOL     OW15500   1.950   4.262  10.497 -0.0729  0.0546 -0.1465
 4498SOL    HW115501   2.021   4.270  10.561  2.2716 -1.0036 -2.4037
 4498SOL    HW215502   1.930   4.352  10.472  0.5143  0.3771  0.5148
 4499SOL     OW15503   5.442   9.833   9.805 -0.6015 -0.1489  0.4077
 4499SOL    HW115504   5.501   9.875   9.742 -0.9590 -2.3119 -1.5150
 4499SOL    HW215505   5.501   9.794   9.870 -0.1463  1.0054  0.7107
 4500SOL     OW15506   3.702   4.820   8.165  0.4957 -0.3884 -0.3660
 4500SOL    HW115507   3.653   4.887   8.117  0.8587 -0.6277 -1.0817
 4500SOL    HW215508   3.750   4.772   8.097 -2.1407 -3.4265 -0.3222
 4501SOL     OW15509   3.543   5.669   9.537 -0.0706 -0.1189 -0.9892
 4501SOL    HW115510   3.488   5.747   9.551 -0.0842  0.0120 -1.7663
 4501SOL    HW215511   3.487   5.596   9.565 -0.4473  0.0610 -1.2579
 4502SOL     OW15512   0.157   1.216   3.389  0.3605 -0.0601  0.2626
 4502SOL    HW115513   0.124   1.255   3.469 -0.8927  0.0155 -0.2598
 4502SOL    HW215514   0.091   1.152   3.364  0.7344 -0.1067 -0.6886
 4503SOL     OW15515   7.237   8.810   5.005 -0.7185  0.2819  0.3789
 4503SOL    HW115516   7.275   8.879   5.059  0.0332  1.2693 -1.3316
 4503SOL    HW215517   7.291   8.733   5.024 -0.3436  0.6575  0.8794
 4504SOL     OW15518   4.963   1.834   2.962 -0.4309  0.1984  0.2001
 4504SOL    HW115519   4.900   1.861   3.030 -0.6694 -1.5383  0.7273
 4504SOL    HW215520   4.971   1.910   2.905 -1.8261  0.9959  1.0080
 4505SOL     OW15521   2.317   0.825   5.105  0.5900 -0.8742 -0.5254
 4505SOL    HW115522   2.223   0.836   5.087  0.4218 -0.6992  0.3599
 4505SOL    HW215523   2.322   0.742   5.153  1.2447 -2.2912 -2.8807
 4506SOL     OW15524  10.705   3.723   7.051 -0.3376  0.0699 -0.1571
 4506SOL    HW115525  10.657   3.645   7.025 -0.1900  0.2473 -0.9807
 4506SOL    HW215526  10.788   3.717   7.005  0.4036 -0.1695  1.1684
 4507SOL     OW15527   0.551   5.450   9.845  0.0679  0.0035  0.4203
 4507SOL    HW115528   0.471   5.500   9.861 -0.5449 -0.5172 -0.8313
 4507SOL    HW215529   0.620   5.499   9.890 -0.2394  2.7861 -1.8377
 4508SOL     OW15530   3.820   0.480   8.010  0.7852  0.6494 -0.3522
 4508SOL    HW115531   3.879   0.452   7.941  1.3500 -0.7615  0.6403
 4508SOL    HW215532   3.875   0.530   8.070  0.8645 -0.1110  0.2363
 4509SOL     OW15533   3.984   7.458   7.054  0.2892  0.9876 -0.4599
 4509SOL    HW115534   3.908   7.407   7.025  1.6707 -0.7526 -1.2437
 4509SOL    HW215535   3.991   7.530   6.991 -1.2236  1.7249  0.1763
 4510SOL     OW15536  10.112   3.508   0.253  0.3565 -0.1103 -0.6700
 4510SOL    HW115537  10.062   3.586   0.278 -0.7524 -1.0373  0.1268
 4510SOL    HW215538  10.045   3.441   0.235  1.2877 -1.0923 -0.6195
 4511SOL     OW15539   0.715   7.670   8.844  0.0735 -0.1992  0.4860
 4511SOL    HW115540   0.765   7.700   8.920 -1.5857 -1.1759  2.0455
 4511SOL    HW215541   0.729   7.738   8.778  1.1322  0.9709  1.8547
 4512SOL     OW15542   7.979   3.620   7.460  0.5767  0.0707  0.3483
 4512SOL    HW115543   7.972   3.532   7.423  3.0171  0.1571 -0.4403
 4512SOL    HW215544   7.996   3.677   7.386 -0.1444  1.1167  0.9576
 4513SOL     OW15545   0.850   4.283   1.631  0.1548  0.2039  0.3255
 4513SOL    HW115546   0.923   4.278   1.694  1.2601 -1.9020 -1.0031
 4513SOL    HW215547   0.780   4.231   1.672  0.7634 -0.9049  0.0114
 4514SOL     OW15548   7.910   8.889   1.724 -0.0891  0.1441  0.6393
 4514SOL    HW115549   7.954   8.953   1.779 -1.5772  2.1821 -0.4108
 4514SOL    HW215550   7.937   8.911   1.635 -1.6197  0.1692  0.1503
 4515SOL     OW15551   4.633  10.164   2.997 -0.3702  0.0842  0.1551
 4515SOL    HW115552   4.647  10.208   3.081 -0.8332  1.5990 -0.5224
 4515SOL    HW215553   4.712  10.112   2.983  0.2042  0.7155  0.9959
 4516SOL     OW15554   0.915   9.677   5.174 -0.0906  0.3264 -0.0397
 4516SOL    HW115555   0.943   9.708   5.088 -0.6712  1.8632  0.2977
 4516SOL    HW215556   0.852   9.742   5.204 -1.2024 -1.0812  0.8315
 4517SOL     OW15557   3.693   2.532   5.407 -0.1134 -0.0966  0.2268
 4517SOL    HW115558   3.754   2.605   5.416 -1.0074  0.7501 -0.2544
 4517SOL    HW215559   3.626   2.565   5.347 -0.8537 -1.1096  0.4654
 4518SOL     OW15560   2.899   0.064  11.061 -0.3526  0.6826  0.0928
 4518SOL    HW115561   2.979   0.013  11.076  0.1858  1.7450  0.9815
 4518SOL    HW215562   2.840   0.035  11.131 -0.3306  0.7284  0.1295
 4519SOL     OW15563   3.435   1.236   4.844  0.0210  0.6159  0.7726
 4519SOL    HW115564   3.372   1.299   4.810  0.1344 -0.0557 -0.7458
 4519SOL    HW215565   3.393   1.199   4.922  0.0701  2.7204  1.8457
 4520SOL     OW15566   4.280   6.758   6.277  0.5092 -0.0799 -0.1129
 4520SOL    HW115567   4.228   6.779   6.354 -1.1288  0.1274 -1.2199
 4520SOL    HW215568   4.252   6.670   6.252 -0.9909  0.8412 -1.9641
 4521SOL     OW15569   7.245   7.549   2.219  0.2884 -0.0424 -0.1970
 4521SOL    HW115570   7.188   7.473   2.210  0.8189 -0.5549  0.6580
 4521SOL    HW215571   7.304   7.544   2.144  0.6884 -0.8050  0.1585
 4522SOL     OW15572   1.694   8.400   8.150 -0.1121  0.2281 -0.1212
 4522SOL    HW115573   1.764   8.352   8.195 -0.3364 -0.7105 -0.7531
 4522SOL    HW215574   1.724   8.491   8.150  0.4328  0.0678  0.8903
 4523SOL     OW15575   9.471   4.806   5.903  0.0439  0.4696 -0.0417
 4523SOL    HW115576   9.515   4.865   5.841  1.6490  0.6224  1.2044
 4523SOL    HW215577   9.403   4.861   5.943 -2.9589 -0.3261 -3.5053
 4524SOL     OW15578   8.321   2.097   8.594 -0.2569 -0.0052  0.4353
 4524SOL    HW115579   8.311   2.089   8.499  0.1547 -2.3037  0.5120
 4524SOL    HW215580   8.237   2.066   8.629 -0.3398  0.6580  0.8314
 4525SOL     OW15581   7.970   1.143   5.182  0.3584 -0.3805  0.1989
 4525SOL    HW115582   8.064   1.162   5.182  0.1868  0.5313 -0.5006
 4525SOL    HW215583   7.960   1.072   5.246  1.3247  0.5497  1.4345
 4526SOL     OW15584  10.651  11.000   2.606 -0.6838 -0.6198 -0.2914
 4526SOL    HW115585  10.599  11.079   2.589 -0.3059 -0.6990 -2.0224
 4526SOL    HW215586  10.660  10.959   2.520  2.0297 -0.7239 -0.0384
 4527SOL     OW15587   6.305   7.625  10.054 -0.0482 -0.0347 -0.2477
 4527SOL    HW115588   6.299   7.631   9.958  0.7698  1.1588 -0.2501
 4527SOL    HW215589   6.347   7.707  10.080  0.0848 -0.5144  1.1119
 4528SOL     OW15590   1.334   6.537   7.063  0.6482  0.2029  0.1043
 4528SOL    HW115591   1.286   6.470   7.014  3.0581 -1.0168 -0.7481
 4528SOL    HW215592   1.272   6.610   7.071 -0.4224 -0.1247 -3.4411
 4529SOL     OW15593   9.440   4.927   4.741  0.5794 -0.1432 -0.1585
 4529SOL    HW115594   9.379   4.868   4.698  0.4489 -0.9797  1.1397
 4529SOL    HW215595   9.414   5.014   4.711 -0.3909 -0.5927 -0.6640
 4530SOL     OW15596   8.021   1.972   3.240  0.3773  0.0544  0.2330
 4530SOL    HW115597   8.058   1.993   3.155  0.5567  0.2488  0.3564
 4530SOL    HW215598   7.957   1.903   3.223  2.6573 -2.2498  0.3794
 4531SOL     OW15599   1.917   5.079   5.748 -0.1068 -0.0281 -0.1517
 4531SOL    HW115600   1.995   5.121   5.710 -0.4618  1.6548  0.8932
 4531SOL    HW215601   1.916   4.992   5.708  0.2195  1.1773 -3.1011
 4532SOL     OW15602   1.084   5.932   9.340 -0.1450  0.2201  0.6441
 4532SOL    HW115603   1.025   5.977   9.401  1.0367  1.2568  1.0759
 4532SOL    HW215604   1.133   5.870   9.394  0.7702  1.0057  0.7437
 4533SOL     OW15605   0.945   3.229   3.877 -0.0302 -0.0716  0.2413
 4533SOL    HW115606   0.917   3.152   3.926 -1.6109  0.5685  0.4239
 4533SOL    HW215607   1.001   3.277   3.938 -0.3819 -0.2679  0.7281
 4534SOL     OW15608   4.273   6.096   4.608 -0.2383 -0.4729  0.7504
 4534SOL    HW115609   4.203   6.100   4.672  0.0841 -1.0503  1.1452
 4534SOL    HW215610   4.336   6.162   4.637 -0.9886  0.6710 -0.0856
 4535SOL     OW15611   5.051   7.470   4.666 -0.5185 -0.2369  0.5777
 4535SOL    HW115612   5.099   7.452   4.746 -1.7349  3.0756  2.2464
 4535SOL    HW215613   4.961   7.443   4.684 -0.4707 -1.0855 -0.3624
 4536SOL     OW15614   1.769   8.520   9.947 -0.8196 -0.2672 -0.5160
 4536SOL    HW115615   1.776   8.560   9.861  2.0791 -0.7771 -0.6121
 4536SOL    HW215616   1.688   8.468   9.943 -1.8180  1.2893 -2.1717
 4537SOL     OW15617   0.484   0.078   3.131 -0.3622 -0.0100 -0.3681
 4537SOL    HW115618   0.402   0.107   3.170  0.1719  1.0983 -0.0003
 4537SOL    HW215619   0.458   0.019   3.061 -1.4939  0.6293 -0.5155
 4538SOL     OW15620   2.998   5.188   5.061  0.3322  0.1797 -0.0382
 4538SOL    HW115621   2.941   5.260   5.032 -1.3752 -1.6237 -1.5090
 4538SOL    HW215622   3.083   5.208   5.023 -0.3280  1.0337 -1.1457
 4539SOL     OW15623   8.543   4.035   6.098  0.0334  0.0060 -0.4897
 4539SOL    HW115624   8.544   4.010   6.190 -1.1208 -0.0967 -0.4900
 4539SOL    HW215625   8.529   4.130   6.099  1.6361  0.2716 -0.5456
 4540SOL     OW15626   4.439   5.839   8.753  0.2481  0.6858  0.0811
 4540SOL    HW115627   4.443   5.817   8.846 -0.0699  0.7130  0.1038
 4540SOL    HW215628   4.527   5.821   8.720  0.5863  1.4321  0.5539
 4541SOL     OW15629   4.621   2.784   0.115 -0.1755 -0.4279  0.6447
 4541SOL    HW115630   4.653   2.733   0.041 -0.9311  0.9755 -0.6960
 4541SOL    HW215631   4.681   2.858   0.122  0.2309 -0.8405  1.8296
 4542SOL     OW15632   1.437   6.950   7.784  0.1707  0.3670  0.1535
 4542SOL    HW115633   1.460   6.915   7.870  3.5140  0.8147 -0.4085
 4542SOL    HW215634   1.479   6.890   7.722 -2.5024 -0.1746 -1.2650
 4543SOL     OW15635   7.766   7.804   3.203 -0.4064  0.6382 -0.0775
 4543SOL    HW115636   7.832   7.869   3.177 -0.8539  1.5337  0.9425
 4543SOL    HW215637   7.716   7.788   3.123  0.1678  1.0073 -0.5218
 4544SOL     OW15638   7.918  10.151   4.760 -0.2920 -0.2250 -0.1969
 4544SOL    HW115639   7.980  10.224   4.761  1.0861 -1.3180  1.9772
 4544SOL    HW215640   7.873  10.159   4.676  0.7017  2.3503 -0.5773
 4545SOL     OW15641   1.908   9.322   1.669 -0.3963 -0.0302  0.5248
 4545SOL    HW115642   1.930   9.259   1.738  0.4687  1.2450  1.4460
 4545SOL    HW215643   1.961   9.293   1.594  2.0678  1.0683  1.7301
 4546SOL     OW15644   2.933   4.729   6.959  0.1080 -0.2441  0.1301
 4546SOL    HW115645   2.905   4.778   6.882  0.5771 -1.0467 -0.5755
 4546SOL    HW215646   2.992   4.662   6.924 -0.1112 -0.9771  1.1238
 4547SOL     OW15647   4.417   2.775   9.390 -0.1006  0.0434  0.0955
 4547SOL    HW115648   4.336   2.725   9.388  1.1226 -2.0125 -0.3848
 4547SOL    HW215649   4.454   2.759   9.477  1.3496 -1.7512 -0.7848
 4548SOL     OW15650   1.928   8.719   7.254 -0.4434 -0.3866  0.1917
 4548SOL    HW115651   1.886   8.749   7.174  0.4582  0.7068  0.1010
 4548SOL    HW215652   2.007   8.674   7.225 -0.0006  0.2026  0.4523
 4549SOL     OW15653   9.442   0.211   6.376  0.3676  0.0221 -0.3084
 4549SOL    HW115654   9.488   0.188   6.457  0.1498 -0.4493 -0.3143
 4549SOL    HW215655   9.500   0.273   6.332  0.0775  0.9928  0.6386
 4550SOL     OW15656   2.169  10.009   7.883 -0.2370  0.1236 -0.2395
 4550SOL    HW115657   2.201  10.093   7.849  0.5482  0.1944  0.6640
 4550SOL    HW215658   2.181   9.948   7.810  1.0304  0.3677 -0.2557
 4551SOL     OW15659   1.429   3.769   5.076 -0.3383  0.5386 -0.6509
 4551SOL    HW115660   1.343   3.779   5.117 -1.0789  2.3146 -2.4693
 4551SOL    HW215661   1.487   3.827   5.125 -1.0871  2.2052 -1.6433
 4552SOL     OW15662   0.755   5.388   5.930  0.2985  0.3762 -0.1158
 4552SOL    HW115663   0.688   5.338   5.883  0.9249 -1.0192  0.4302
 4552SOL    HW215664   0.824   5.401   5.865 -0.0833  1.0288 -0.4102
 4553SOL     OW15665   1.603   0.520   8.435 -0.2975  0.0942 -0.0710
 4553SOL    HW115666   1.664   0.574   8.485 -0.3092 -0.0883  0.1393
 4553SOL    HW215667   1.655   0.489   8.360 -0.8416  2.0863 -1.3569
 4554SOL     OW15668  10.091   0.526   2.067  0.0899 -0.6188  0.2152
 4554SOL    HW115669  10.146   0.589   2.113 -0.7411  0.0161  0.3817
 4554SOL    HW215670  10.128   0.519   1.980  1.1145 -1.0968  0.6767
 4555SOL     OW15671   2.272   9.423   0.506 -0.5699  0.0204  0.3525
 4555SOL    HW115672   2.193   9.387   0.465 -0.2236 -0.4252  0.0735
 4555SOL    HW215673   2.278   9.512   0.471 -0.8366 -0.0119  0.2182
 4556SOL     OW15674   4.663   1.818   0.701 -0.2019  0.4700 -0.1523
 4556SOL    HW115675   4.758   1.825   0.703 -0.0851 -0.7080  1.9971
 4556SOL    HW215676   4.644   1.762   0.626  1.1539 -2.2513  1.3922
 4557SOL     OW15677   0.267   7.565   6.463  0.2905 -0.6106  0.3055
 4557SOL    HW115678   0.195   7.551   6.401  0.5010  1.7241 -0.5865
 4557SOL    HW215679   0.226   7.557   6.549 -1.2627  1.2187 -0.1725
 4558SOL     OW15680   6.673   3.781   8.094  0.0268  0.4044  0.1256
 4558SOL    HW115681   6.661   3.744   8.007  1.1473  1.1539 -0.3716
 4558SOL    HW215682   6.675   3.876   8.080  0.9101  0.5117  0.8523
 4559SOL     OW15683   1.200   6.977   1.728  0.5122  0.0252  0.1609
 4559SOL    HW115684   1.268   6.939   1.673 -1.0747 -0.7730 -1.3667
 4559SOL    HW215685   1.157   6.902   1.769 -0.9936  0.2617 -0.8707
 4560SOL     OW15686  10.123   5.534   7.945  0.2478 -0.1012  0.4661
 4560SOL    HW115687  10.065   5.599   7.984  0.5676  0.0324  0.7218
 4560SOL    HW215688  10.199   5.531   8.003  0.0283 -1.0597  0.7258
 4561SOL     OW15689   0.518   8.267   8.097 -0.2651  0.2763 -0.5439
 4561SOL    HW115690   0.604   8.304   8.116  0.4586 -1.1477 -0.8933
 4561SOL    HW215691   0.456   8.338   8.116  0.8638  0.8733  1.1788
 4562SOL     OW15692   7.447  10.283   7.605 -0.5491 -0.1999  0.4667
 4562SOL    HW115693   7.509  10.297   7.677  0.6114 -0.9867 -0.3312
 4562SOL    HW215694   7.503  10.261   7.530 -1.8435 -2.9413  0.1738
 4563SOL     OW15695   5.640   2.458   8.015 -0.5430 -0.1063  0.0514
 4563SOL    HW115696   5.673   2.511   8.088 -1.2492  0.8878 -0.3201
 4563SOL    HW215697   5.627   2.371   8.052  0.2138  0.0946  0.8065
 4564SOL     OW15698   1.654   5.703   7.443  0.0217  0.5560 -0.5029
 4564SOL    HW115699   1.688   5.792   7.434  1.6840 -0.1543 -1.7488
 4564SOL    HW215700   1.730   5.647   7.430 -0.2754 -1.0766  3.4435
 4565SOL     OW15701  11.026   5.139   9.545  0.4997 -0.4268 -0.0883
 4565SOL    HW115702  11.050   5.049   9.523  1.0084 -0.3318  0.0670
 4565SOL    HW215703  11.093   5.168   9.607 -0.3312 -0.3395  0.7890
 4566SOL     OW15704   8.255   6.441   4.816 -0.1040 -0.0492  0.0315
 4566SOL    HW115705   8.176   6.469   4.862 -0.7062  0.3884 -1.2140
 4566SOL    HW215706   8.299   6.523   4.793  1.4455 -0.2801  1.8399
 4567SOL     OW15707  10.493   4.885   4.349 -0.0906  0.5332  0.5379
 4567SOL    HW115708  10.416   4.839   4.382  1.1305 -0.7746  1.6703
 4567SOL    HW215709  10.536   4.823   4.290  1.6155  0.1031  2.1366
 4568SOL     OW15710   3.768   7.216   2.140 -0.4123 -0.1768 -0.3950
 4568SOL    HW115711   3.698   7.260   2.188  1.6552  0.3339  2.4149
 4568SOL    HW215712   3.791   7.277   2.070 -2.2219 -0.0343 -0.9128
 4569SOL     OW15713   5.086   7.979  10.955 -0.0584  0.2961  0.0913
 4569SOL    HW115714   5.162   8.007  11.005 -0.2772  0.4059  0.3685
 4569SOL    HW215715   5.012   7.991  11.015 -0.6928  2.8860 -1.0860
 4570SOL     OW15716   0.548   5.572   6.716  0.4992  0.0332 -0.3169
 4570SOL    HW115717   0.556   5.664   6.689 -1.4768  0.1732 -0.5620
 4570SOL    HW215718   0.614   5.526   6.664  0.1138  1.0299 -1.7484
 4571SOL     OW15719   5.875   6.667   1.668  0.2252  0.3945  0.4453
 4571SOL    HW115720   5.787   6.678   1.632  0.5099 -1.1134 -0.8340
 4571SOL    HW215721   5.925   6.739   1.631 -0.2247  0.6615  0.3479
 4572SOL     OW15722   5.989   1.359   3.207 -0.7170  0.2470  0.1702
 4572SOL    HW115723   6.062   1.327   3.260 -0.1451  2.8861  1.1588
 4572SOL    HW215724   5.912   1.343   3.261 -0.8520 -1.8462 -0.5465
 4573SOL     OW15725  10.912   2.377  10.437  0.1087 -0.3769  0.4609
 4573SOL    HW115726  10.832   2.347  10.479 -1.1520  0.8175 -0.9715
 4573SOL    HW215727  10.959   2.426  10.505 -1.1593  0.2763  0.8904
 4574SOL     OW15728  11.091   7.894   1.570  0.1770 -0.0684 -0.1424
 4574SOL    HW115729  11.076   7.909   1.663 -2.4406 -1.9505 -0.1418
 4574SOL    HW215730  11.004   7.897   1.530  1.0383 -0.8179 -2.2604
 4575SOL     OW15731   2.899   7.899   0.973  0.6115 -0.1017  0.2396
 4575SOL    HW115732   2.816   7.851   0.971  1.3652 -1.4581 -1.0306
 4575SOL    HW215733   2.955   7.846   1.030  1.4358 -0.7624 -1.1262
 4576SOL     OW15734  10.835   6.852   5.792 -0.7567 -0.1548  0.0931
 4576SOL    HW115735  10.805   6.941   5.775 -0.2945  0.2264  1.1683
 4576SOL    HW215736  10.757   6.805   5.819 -1.2768 -0.4693 -1.8212
 4577SOL     OW15737   6.152   6.149   6.426  0.3781  0.1170 -0.2241
 4577SOL    HW115738   6.133   6.211   6.356  0.2759 -0.5111 -0.7601
 4577SOL    HW215739   6.173   6.067   6.381 -0.1536 -0.4258  0.4893
 4578SOL     OW15740   6.317   1.898   3.414 -0.1590 -0.1740  0.0089
 4578SOL    HW115741   6.274   1.835   3.472 -0.9619  0.8297  0.5221
 4578SOL    HW215742   6.314   1.981   3.461 -2.4081  1.0981 -2.1459
 4579SOL     OW15743   4.066   4.308   0.779 -0.2278 -0.0337 -0.0727
 4579SOL    HW115744   4.116   4.305   0.697  0.6109 -0.3647  0.4424
 4579SOL    HW215745   4.110   4.246   0.837 -1.4040 -0.5308  0.3116
 4580SOL     OW15746   1.293   5.451   5.214 -0.2707  0.2929  0.5679
 4580SOL    HW115747   1.343   5.477   5.292  0.3496  1.1242 -0.0833
 4580SOL    HW215748   1.228   5.390   5.247 -0.2335  0.8760  1.7975
 4581SOL     OW15749   2.109   1.467   6.105 -0.4661  0.6924 -0.0825
 4581SOL    HW115750   2.029   1.431   6.142  0.0011  0.6721  0.9529
 4581SOL    HW215751   2.170   1.394   6.104 -0.9532  0.2300 -2.5348
 4582SOL     OW15752   3.323   7.692   4.247  0.0838 -0.2717 -0.0105
 4582SOL    HW115753   3.348   7.606   4.279 -0.8766 -0.5239  0.1051
 4582SOL    HW215754   3.271   7.675   4.168 -1.7797  0.0510  1.0715
 4583SOL     OW15755   2.044  10.885   9.795 -0.0336  0.8846  0.5246
 4583SOL    HW115756   1.950  10.888   9.776 -0.3493  0.3608  1.8740
 4583SOL    HW215757   2.071  10.976   9.798 -0.6172  1.0547  0.6808
 4584SOL     OW15758   0.109   2.356   2.929 -0.2087 -0.2169  0.4428
 4584SOL    HW115759   0.113   2.341   3.024  2.2651 -0.3509  0.3760
 4584SOL    HW215760   0.200   2.357   2.901 -0.8311  1.0434 -1.7774
 4585SOL     OW15761   8.198   4.613   5.229  0.0448 -0.0107 -0.1695
 4585SOL    HW115762   8.110   4.625   5.193 -0.5991 -3.0647  0.1221
 4585SOL    HW215763   8.256   4.616   5.153 -0.4327  0.7373 -0.5195
 4586SOL     OW15764   3.562   6.260   9.746 -0.6459 -0.5601 -0.6259
 4586SOL    HW115765   3.590   6.331   9.687 -1.2236 -0.1312 -0.3969
 4586SOL    HW215766   3.530   6.192   9.687 -0.3517 -0.5193 -0.8381
 4587SOL     OW15767   9.796  10.520   0.999 -0.2654  0.0737  0.1620
 4587SOL    HW115768   9.831  10.502   0.911  2.3862  3.4670  0.3335
 4587SOL    HW215769   9.701  10.517   0.987 -0.0070 -0.3033 -2.6370
 4588SOL     OW15770   8.614   6.587   6.190  0.2251  0.1821  0.5422
 4588SOL    HW115771   8.595   6.552   6.103  1.3401 -1.9293  1.0766
 4588SOL    HW215772   8.531   6.578   6.237  0.0733 -0.2928  0.1980
 4589SOL     OW15773   3.786   0.349   7.136 -0.0673 -0.4255  0.5343
 4589SOL    HW115774   3.851   0.334   7.204  1.5882  0.3781 -0.7860
 4589SOL    HW215775   3.720   0.281   7.150  0.5375 -0.6555  2.5177
 4590SOL     OW15776   9.780  11.012   3.605  0.1242  0.4849  0.2049
 4590SOL    HW115777   9.838  10.996   3.678  0.7134  0.7512 -0.1998
 4590SOL    HW215778   9.819  10.964   3.532 -1.4640 -1.3853  0.4831
 4591SOL     OW15779   5.119   7.316   5.352  0.4310 -0.0313 -0.1165
 4591SOL    HW115780   5.145   7.264   5.276  0.5953 -0.8841  0.5087
 4591SOL    HW215781   5.150   7.266   5.428  1.9151  1.6948  0.4866
 4592SOL     OW15782   1.847   8.002   5.771 -0.3405 -0.0455 -0.1485
 4592SOL    HW115783   1.819   8.050   5.849 -0.0441 -0.3748  0.1637
 4592SOL    HW215784   1.890   7.924   5.805 -2.4231 -1.4822 -0.6463
 4593SOL     OW15785   9.049  10.936   1.785  0.0868  0.3542  0.3305
 4593SOL    HW115786   9.096  11.017   1.765 -0.1040  0.1699 -0.9808
 4593SOL    HW215787   8.993  10.957   1.860  0.5101  1.2456  0.4006
 4594SOL     OW15788   5.335   8.221   0.485 -0.7973 -0.0452  0.2151
 4594SOL    HW115789   5.363   8.133   0.511  0.0425  0.6184  1.6455
 4594SOL    HW215790   5.247   8.230   0.521 -0.2773  0.2612  1.4355
 4595SOL     OW15791   0.290   1.227   9.275  0.3285  0.0917  0.1849
 4595SOL    HW115792   0.270   1.202   9.185  0.6241 -0.9646  0.3950
 4595SOL    HW215793   0.218   1.190   9.326  0.9918 -0.7315  0.5518
 4596SOL     OW15794   2.211   9.674   5.733 -0.2680  0.7580 -0.7308
 4596SOL    HW115795   2.152   9.712   5.798 -0.4983  0.2269 -0.6265
 4596SOL    HW215796   2.153   9.638   5.666 -0.1097 -0.5668 -0.1873
 4597SOL     OW15797   8.015   8.617   7.469 -0.4991 -0.0228 -0.7525
 4597SOL    HW115798   7.922   8.605   7.487 -0.5680  2.2631  0.9758
 4597SOL    HW215799   8.057   8.611   7.555  0.8410 -0.1973 -1.3929
 4598SOL     OW15800   0.794  10.817   7.328  0.3795 -0.8570  0.4689
 4598SOL    HW115801   0.802  10.726   7.354  0.8644 -1.0178 -0.2243
 4598SOL    HW215802   0.883  10.852   7.330  0.3789 -0.7588 -0.5167
 4599SOL     OW15803   0.284   5.392   9.522 -0.5373  0.3380  0.4160
 4599SOL    HW115804   0.337   5.472   9.517 -0.9218  0.6219  0.8306
 4599SOL    HW215805   0.263   5.371   9.431  0.9205 -0.2078  0.1721
 4600SOL     OW15806   4.159  10.343   9.751 -0.4715 -0.2373  0.5864
 4600SOL    HW115807   4.129  10.415   9.695  0.2699 -0.3331  0.0619
 4600SOL    HW215808   4.087  10.281   9.751 -0.2220 -0.5373 -0.7883
 4601SOL     OW15809   4.522   8.475   2.202 -0.3571 -0.0611  0.4422
 4601SOL    HW115810   4.538   8.564   2.170 -0.7644 -1.0899 -3.0759
 4601SOL    HW215811   4.433   8.479   2.239 -0.0205  1.1454  1.2011
 4602SOL     OW15812  10.948   4.616   6.069  0.1493  0.2077  0.4496
 4602SOL    HW115813  11.024   4.673   6.085  0.3690 -0.0533  0.3466
 4602SOL    HW215814  10.874   4.666   6.103  0.3313  0.5803  0.3130
 4603SOL     OW15815   6.908   7.176   0.915 -0.3403  0.3096  0.0703
 4603SOL    HW115816   6.906   7.084   0.889 -1.7689  0.1736  0.5804
 4603SOL    HW215817   6.918   7.173   1.010  0.7977  0.7167 -0.0283
 4604SOL     OW15818   4.023  10.547   7.936 -0.0067  0.5475  0.6911
 4604SOL    HW115819   4.062  10.566   8.022  0.5556 -1.1499  0.8360
 4604SOL    HW215820   4.092  10.564   7.873 -0.0567  0.6775  0.6713
 4605SOL     OW15821   2.793   4.934   5.550  0.1510  0.9032  0.5527
 4605SOL    HW115822   2.705   4.897   5.563  0.2629  0.5874  0.4224
 4605SOL    HW215823   2.778   5.027   5.535 -0.1746  0.8240  0.3721
 4606SOL     OW15824   1.469   9.714   1.373 -0.0806  0.1014  0.5986
 4606SOL    HW115825   1.561   9.739   1.365 -0.0088 -0.1783  0.5407
 4606SOL    HW215826   1.425   9.794   1.403 -0.0642  0.6848 -0.8522
 4607SOL     OW15827   4.452   0.045   9.435 -0.0917 -0.6423 -0.1570
 4607SOL    HW115828   4.538   0.079   9.462 -0.2200 -0.2568 -0.2415
 4607SOL    HW215829   4.390   0.113   9.460  0.0310  1.1951 -4.1289
 4608SOL     OW15830   3.723   9.616   3.081 -0.7109  0.2288 -0.5238
 4608SOL    HW115831   3.793   9.672   3.114  0.0208 -0.3938 -0.9991
 4608SOL    HW215832   3.756   9.527   3.091 -0.9914 -0.0354 -1.7196
 4609SOL     OW15833   7.401   5.227   8.087  0.4488 -0.1624  0.3125
 4609SOL    HW115834   7.478   5.266   8.046  0.1772 -0.1295 -0.1719
 4609SOL    HW215835   7.387   5.279   8.166  0.3821  0.4118 -0.0709
 4610SOL     OW15836   7.128  10.133   6.037  0.2806 -0.2878 -0.3089
 4610SOL    HW115837   7.175  10.086   6.106  1.1415 -2.4229 -2.2358
 4610SOL    HW215838   7.051  10.170   6.081  0.8513 -1.4417  1.7921
 4611SOL     OW15839   4.317   9.737   8.588 -0.2131 -0.7770  0.1639
 4611SOL    HW115840   4.346   9.805   8.648 -2.7966 -0.8358  1.6412
 4611SOL    HW215841   4.279   9.785   8.514  0.9558 -0.6911 -0.4039
 4612SOL     OW15842   9.834   2.147   0.222  0.2149  0.6211 -0.3202
 4612SOL    HW115843   9.849   2.160   0.128 -2.6414 -2.0988 -1.3532
 4612SOL    HW215844   9.867   2.059   0.240  0.5603  1.0391  1.1975
 4613SOL     OW15845   1.299   2.912   2.216  0.1279  0.1512 -0.2047
 4613SOL    HW115846   1.393   2.911   2.199 -0.0814  1.0287 -1.5351
 4613SOL    HW215847   1.284   2.835   2.271  1.4165 -0.7776 -1.0986
 4614SOL     OW15848   1.071   5.032   7.821  0.4089 -0.0844 -0.0736
 4614SOL    HW115849   1.148   5.075   7.859 -0.4700 -0.2812  2.1238
 4614SOL    HW215850   1.005   5.036   7.891 -1.3767 -0.4843 -1.6541
 4615SOL     OW15851   8.029   6.918   1.578  0.8941 -0.2042 -0.1492
 4615SOL    HW115852   7.980   6.900   1.498 -0.8933  0.2775  0.7832
 4615SOL    HW215853   8.107   6.863   1.571  1.6604  1.0989 -2.9876
 4616SOL     OW15854   1.907   8.699  10.369  0.3265  0.1143  0.8098
 4616SOL    HW115855   1.859   8.705  10.286 -0.2438  0.5541  1.1626
 4616SOL    HW215856   1.975   8.633  10.353 -0.2279 -0.3289  0.2157
 4617SOL     OW15857  10.416   7.160   7.489 -0.1193  0.2934  0.2408
 4617SOL    HW115858  10.482   7.223   7.461  1.3091 -0.9648  0.6277
 4617SOL    HW215859  10.387   7.191   7.575 -0.6255  1.2805 -0.2755
 4618SOL     OW15860   2.416   5.510   4.551  0.1802 -0.5276 -0.3905
 4618SOL    HW115861   2.355   5.552   4.611  2.0132  1.6241  0.1171
 4618SOL    HW215862   2.442   5.429   4.595  0.2615  0.2233  1.0046
 4619SOL     OW15863   1.656   0.290   6.459 -0.3673 -0.5235  0.0768
 4619SOL    HW115864   1.719   0.323   6.524 -2.4612  1.1378  1.3784
 4619SOL    HW215865   1.612   0.217   6.503  0.2429 -1.3640 -0.6517
 4620SOL     OW15866   2.327   0.802   7.837 -0.2453 -0.2840  0.0936
 4620SOL    HW115867   2.410   0.763   7.863 -0.0813 -0.0311 -0.0517
 4620SOL    HW215868   2.325   0.793   7.742 -0.0540  0.3698  0.0292
 4621SOL     OW15869   2.212  10.014  10.005  0.1494  0.0492 -0.0381
 4621SOL    HW115870   2.271  10.089   9.996 -0.2742  0.3520 -0.3154
 4621SOL    HW215871   2.174  10.024  10.091  0.3253 -0.0209  0.0493
 4622SOL     OW15872   6.523   0.913   0.161 -0.0690 -0.2735 -0.2484
 4622SOL    HW115873   6.542   0.939   0.071 -0.6031 -0.9944 -0.5720
 4622SOL    HW215874   6.607   0.880   0.194  0.0662 -0.2417 -0.5579
 4623SOL     OW15875   7.623   2.793  10.248 -0.1196  0.6530  0.8448
 4623SOL    HW115876   7.638   2.870  10.194 -0.2331 -0.2239 -0.4721
 4623SOL    HW215877   7.709   2.752  10.258 -0.6643 -2.0646 -3.1936
 4624SOL     OW15878  10.525   0.304   0.005 -0.6099 -0.0436 -0.6132
 4624SOL    HW115879  10.582   0.277  -0.067 -1.3230  0.0121 -1.2172
 4624SOL    HW215880  10.437   0.304  -0.033 -1.3560 -2.4321  0.9061
 4625SOL     OW15881   9.370   8.101   9.277 -0.0510  0.1495  0.0469
 4625SOL    HW115882   9.402   8.031   9.334 -1.2746 -0.8973 -0.4860
 4625SOL    HW215883   9.365   8.061   9.191 -1.1529  0.7760 -0.1971
 4626SOL     OW15884   6.482   6.180   5.866 -0.3171  0.1035 -0.4537
 4626SOL    HW115885   6.460   6.089   5.844 -1.8687  0.0279  1.1782
 4626SOL    HW215886   6.447   6.192   5.954  1.0755  1.8935 -0.0919
 4627SOL     OW15887   7.883   8.580   6.026 -0.4427 -0.3087  0.5537
 4627SOL    HW115888   7.852   8.570   5.936  0.2943 -1.1124  0.3776
 4627SOL    HW215889   7.821   8.530   6.079 -0.4265 -0.4930  0.3997
 4628SOL     OW15890   9.326   2.394   0.528 -0.3355  0.5550 -0.0047
 4628SOL    HW115891   9.322   2.350   0.612 -0.3820  0.5290 -0.0201
 4628SOL    HW215892   9.240   2.435   0.519 -0.0761  1.1812  0.2959
 4629SOL     OW15893   8.524   0.869   8.687 -0.3373  0.1795  0.4506
 4629SOL    HW115894   8.521   0.965   8.691  0.2067  0.1880  0.8182
 4629SOL    HW215895   8.548   0.843   8.776  0.9711 -0.2318  0.0016
 4630SOL     OW15896   9.655   3.967   3.918  0.1501  0.3142 -0.1925
 4630SOL    HW115897   9.568   3.931   3.900  0.3178  1.0375 -3.0101
 4630SOL    HW215898   9.715   3.912   3.866  1.4088 -0.0691  1.5592
 4631SOL     OW15899   9.587   5.535   3.619 -0.2464  0.5030  0.1209
 4631SOL    HW115900   9.641   5.516   3.696 -1.2641 -1.5001  0.4105
 4631SOL    HW215901   9.515   5.589   3.654 -0.5223 -0.1106  0.5116
 4632SOL     OW15902   1.647   7.143   7.718  0.1521 -0.5580  0.4520
 4632SOL    HW115903   1.617   7.054   7.738 -0.4267 -0.0101  2.2036
 4632SOL    HW215904   1.636   7.151   7.623 -3.1592 -1.1937  0.6421
 4633SOL     OW15905   9.548   4.629   5.482 -0.0054 -0.4306  0.4517
 4633SOL    HW115906   9.530   4.722   5.467 -1.8980 -0.5087  1.7708
 4633SOL    HW215907   9.547   4.590   5.395 -1.9746  0.3950  0.0260
 4634SOL     OW15908  10.424   9.236   4.067  0.3694  0.1301 -0.5963
 4634SOL    HW115909  10.452   9.236   4.159 -1.0703 -0.2460 -0.1301
 4634SOL    HW215910  10.419   9.144   4.044 -0.6019  0.1717 -0.6055
 4635SOL     OW15911   0.593   4.856   5.207 -0.5682 -0.2677  0.5565
 4635SOL    HW115912   0.511   4.854   5.159  0.2006 -1.1341 -0.7924
 4635SOL    HW215913   0.660   4.832   5.142  0.6619 -0.2719  1.7681
 4636SOL     OW15914   3.015   6.564   0.900 -0.0359 -0.1357 -0.5781
 4636SOL    HW115915   3.063   6.604   0.828 -0.4214  1.4056 -0.0177
 4636SOL    HW215916   3.054   6.477   0.909  3.7532  1.4736  0.8078
 4637SOL     OW15917  10.849  10.543   9.455  0.0613 -0.2847 -0.5978
 4637SOL    HW115918  10.823  10.518   9.367  1.9426 -0.9401 -1.0189
 4637SOL    HW215919  10.784  10.608   9.482 -0.6971 -0.2553 -2.3543
 4638SOL     OW15920   8.525   5.010   5.651  0.2984 -0.4612  0.1203
 4638SOL    HW115921   8.469   5.010   5.574 -0.6376  1.5535  0.7349
 4638SOL    HW215922   8.614   5.017   5.616  0.1382 -2.4784 -0.8208
 4639SOL     OW15923   8.524   6.201   7.936  0.1392 -0.0798  0.0889
 4639SOL    HW115924   8.431   6.183   7.954 -0.2647  1.5516 -0.2513
 4639SOL    HW215925   8.526   6.231   7.846  1.2267 -1.4508 -0.3863
 4640SOL     OW15926   1.475   8.476   9.768 -0.3185 -1.1211  0.2907
 4640SOL    HW115927   1.549   8.527   9.735 -1.5957  1.8100  1.6364
 4640SOL    HW215928   1.506   8.440   9.851 -0.5365  0.7411  1.2389
 4641SOL     OW15929   0.158   3.521   7.152  0.0203 -0.1249  0.2644
 4641SOL    HW115930   0.133   3.593   7.210 -1.7611 -1.0959  0.7750
 4641SOL    HW215931   0.163   3.444   7.209  0.7466 -0.6286 -0.4591
 4642SOL     OW15932   4.264   7.571  10.917 -0.3068 -0.5442  0.1654
 4642SOL    HW115933   4.280   7.500  10.979 -0.4023 -0.6187  0.1056
 4642SOL    HW215934   4.300   7.540  10.834 -1.0031 -0.8312 -0.0364
 4643SOL     OW15935   4.431   5.041   8.102  0.7447 -0.3313 -0.5678
 4643SOL    HW115936   4.377   5.095   8.159 -0.4793 -0.8521 -1.2101
 4643SOL    HW215937   4.386   5.039   8.018  1.3379 -1.4222 -0.8966
 4644SOL     OW15938   9.088  10.670   6.408  0.4188 -0.7567  0.0524
 4644SOL    HW115939   9.126  10.589   6.372  1.9003 -1.1794  2.3397
 4644SOL    HW215940   9.141  10.740   6.370  0.8730 -1.0753  0.0816
 4645SOL     OW15941   7.675   3.310   6.781  0.4360 -0.0696  0.1113
 4645SOL    HW115942   7.641   3.344   6.864  1.2824 -0.4586  0.6457
 4645SOL    HW215943   7.708   3.387   6.735  2.2530 -0.0733  1.2708
 4646SOL     OW15944   2.072   5.497   4.726  0.1570 -0.2748  0.0197
 4646SOL    HW115945   2.057   5.485   4.820 -3.5822 -1.0357 -0.5257
 4646SOL    HW215946   2.127   5.575   4.720 -1.2039  1.0290  2.8007
 4647SOL     OW15947   9.113   0.610   4.138 -0.1653 -0.7063  1.1459
 4647SOL    HW115948   9.037   0.652   4.098  1.1445 -1.0188 -1.9396
 4647SOL    HW215949   9.083   0.522   4.161 -0.7854 -0.7683  0.1103
 4648SOL     OW15950  10.540   1.631   6.734 -0.4648  0.5854  0.2909
 4648SOL    HW115951  10.447   1.635   6.757 -0.7707 -1.1340 -0.4604
 4648SOL    HW215952  10.549   1.693   6.662 -1.3798 -0.2951 -0.6190
 4649SOL     OW15953   0.585   8.923   8.399 -0.1153  0.1366  0.2998
 4649SOL    HW115954   0.499   8.917   8.358  0.1528 -0.2273 -0.2119
 4649SOL    HW215955   0.616   8.833   8.402  0.8347  0.4167 -0.7655
 4650SOL     OW15956   2.526   7.516   4.718  0.1446  0.5784  0.2139
 4650SOL    HW115957   2.603   7.547   4.766 -0.5633 -0.3920  2.1144
 4650SOL    HW215958   2.460   7.503   4.786 -1.0294 -0.5906 -1.0889
 4651SOL     OW15959   6.495   7.853   8.754 -0.0176  0.1298  0.4604
 4651SOL    HW115960   6.525   7.801   8.828  1.5422  0.5169  0.1279
 4651SOL    HW215961   6.498   7.792   8.680  2.3703  0.7539 -0.0453
 4652SOL     OW15962   2.765   2.280   8.772 -0.3364  0.4710  0.1708
 4652SOL    HW115963   2.760   2.339   8.848 -0.1617  1.3301 -0.4786
 4652SOL    HW215964   2.675   2.274   8.741 -0.8301 -1.7086  1.7878
 4653SOL     OW15965   1.370   9.369   6.898  0.0817 -1.0708  0.5006
 4653SOL    HW115966   1.455   9.357   6.856  0.1736 -0.2639  0.4391
 4653SOL    HW215967   1.333   9.281   6.904 -0.4601 -1.1450 -2.3804
 4654SOL     OW15968   3.702   1.984   1.892  0.3528  0.3458 -0.0362
 4654SOL    HW115969   3.753   1.945   1.963  1.5508 -0.4299 -1.2662
 4654SOL    HW215970   3.721   1.929   1.816 -0.2669  1.6065 -1.1457
 4655SOL     OW15971   1.974   6.857   6.249  0.1467  0.1728 -0.0099
 4655SOL    HW115972   2.043   6.854   6.183 -0.5229 -0.3939 -0.7031
 4655SOL    HW215973   1.893   6.839   6.201 -0.4610  0.5454  0.8302
 4656SOL     OW15974   3.813   1.215   5.523  0.5141  0.1164  0.2823
 4656SOL    HW115975   3.855   1.302   5.522  2.3049 -0.6554  1.8323
 4656SOL    HW215976   3.737   1.225   5.466  1.0446  2.5136 -0.1403
 4657SOL     OW15977   3.540   0.405   7.954 -0.7727  0.9261 -0.1633
 4657SOL    HW115978   3.540   0.344   7.881 -0.4919  0.1667  0.4526
 4657SOL    HW215979   3.628   0.444   7.952  0.1721 -0.9218  1.2055
 4658SOL     OW15980   3.220  10.245   6.836  0.5257  0.0532 -0.3384
 4658SOL    HW115981   3.188  10.155   6.838 -4.0078  1.4085  1.7275
 4658SOL    HW215982   3.177  10.284   6.761  1.2745  0.8845 -0.3536
 4659SOL     OW15983   6.633   4.935   0.905 -0.4059 -0.2906 -0.0499
 4659SOL    HW115984   6.647   5.005   0.969 -0.3801  0.2417 -0.6225
 4659SOL    HW215985   6.559   4.965   0.853  0.2169 -0.2191 -0.9258
 4660SOL     OW15986  10.867   8.190   3.645 -0.0014 -0.4509  0.5346
 4660SOL    HW115987  10.807   8.128   3.686  0.2478 -1.2140 -0.2288
 4660SOL    HW215988  10.925   8.136   3.593  0.4260  0.4069  0.1044
 4661SOL     OW15989   9.998   6.883  10.899 -0.3389 -0.2754  0.4638
 4661SOL    HW115990  10.013   6.865  10.806  0.8309 -1.6061  0.8858
 4661SOL    HW215991   9.907   6.857  10.914 -0.1880 -1.1316 -0.0608
 4662SOL     OW15992   3.148   7.255   3.074  0.3691  0.2328 -0.0374
 4662SOL    HW115993   3.082   7.314   3.038  0.7571  0.4968 -0.3293
 4662SOL    HW215994   3.127   7.248   3.167 -0.9260 -0.8189 -0.3838
 4663SOL     OW15995   4.224   0.121   5.058  0.5432 -0.1269 -0.5435
 4663SOL    HW115996   4.248   0.092   4.970  1.4409 -1.3025  0.0560
 4663SOL    HW215997   4.167   0.052   5.091  0.5429  0.1018 -0.0589
 4664SOL     OW15998   1.877   2.972   1.995  0.5540 -0.3136 -0.4262
 4664SOL    HW115999   1.902   2.880   1.996  0.4869 -0.3654 -1.8186
 4664SOL    HW216000   1.783   2.972   1.976  0.3117  0.0269  0.6529
 4665SOL     OW16001   2.236   3.702   4.445 -0.0282 -0.5695 -0.5025
 4665SOL    HW116002   2.234   3.793   4.474  0.8276 -0.4741 -0.7055
 4665SOL    HW216003   2.256   3.651   4.524  1.8076 -0.3554 -0.7875
 4666SOL     OW16004   8.886  11.014   9.325 -0.1522  0.2340 -0.3822
 4666SOL    HW116005   8.911  11.063   9.246 -0.2655 -0.2780 -0.7441
 4666SOL    HW216006   8.814  11.065   9.363  1.7855  2.0984  1.0485
 4667SOL     OW16007   4.018   7.358   8.838 -0.5833 -0.0570 -0.6135
 4667SOL    HW116008   4.112   7.353   8.821 -0.8192  0.1253 -2.0541
 4667SOL    HW216009   3.989   7.435   8.791 -1.4719 -0.1351 -0.2073
 4668SOL     OW16010   5.897   5.523   1.694 -0.1397  0.0302 -0.2825
 4668SOL    HW116011   5.945   5.503   1.613  0.4124  2.6516 -0.6891
 4668SOL    HW216012   5.852   5.441   1.716  1.8906 -1.5733 -1.7023
 4669SOL     OW16013   9.424   6.100   9.965  0.2896  0.5305  0.5480
 4669SOL    HW116014   9.406   6.007   9.953 -0.5711  0.7683 -0.1324
 4669SOL    HW216015   9.459   6.106  10.054 -0.1256 -0.3774  0.7921
 4670SOL     OW16016   0.940   2.028   8.538  0.0155  0.7392  0.8358
 4670SOL    HW116017   0.852   2.065   8.542  0.4843  1.9154  0.5663
 4670SOL    HW216018   0.943   1.964   8.610 -0.9697  0.8691  1.0002
 4671SOL     OW16019   4.841   5.348   9.134 -0.3496 -0.3876 -0.0538
 4671SOL    HW116020   4.762   5.398   9.154 -1.5916 -1.2635 -2.4003
 4671SOL    HW216021   4.810   5.268   9.093  1.7361  0.0065 -2.7213
 4672SOL     OW16022   3.437   6.575   1.418  0.3101  0.2595 -0.1158
 4672SOL    HW116023   3.343   6.592   1.406  0.5191  0.4538 -1.7376
 4672SOL    HW216024   3.456   6.610   1.505 -1.5359 -1.7524  1.1968
 4673SOL     OW16025   0.547   5.160   9.310 -0.1921 -0.1055 -0.0968
 4673SOL    HW116026   0.499   5.104   9.250 -1.4062  1.0157 -0.2161
 4673SOL    HW216027   0.532   5.122   9.396 -0.0910 -0.5768 -0.2846
 4674SOL     OW16028   7.067   7.950   9.237 -0.1178 -0.6762  0.1107
 4674SOL    HW116029   7.084   7.974   9.329 -0.8632  0.5081 -0.0368
 4674SOL    HW216030   7.153   7.926   9.203 -0.1625 -3.8674  1.8078
 4675SOL     OW16031   9.406   6.211   2.798  0.1767  0.1693  0.1864
 4675SOL    HW116032   9.433   6.167   2.879 -0.2932  0.1179  0.3180
 4675SOL    HW216033   9.380   6.140   2.739 -1.6158  0.2827  0.7709
 4676SOL     OW16034   1.292  10.931   1.430  0.3102 -0.1394  0.2487
 4676SOL    HW116035   1.275  10.837   1.424 -0.0421 -0.1600  1.3426
 4676SOL    HW216036   1.254  10.968   1.350 -0.5739 -0.7932  0.3554
 4677SOL     OW16037   1.542   1.249   2.680 -0.3419 -0.5133  0.7129
 4677SOL    HW116038   1.614   1.307   2.658 -1.0091  0.1767  0.3302
 4677SOL    HW216039   1.537   1.251   2.776 -0.4878  0.2210  0.6922
 4678SOL     OW16040   2.572   2.030   7.836 -0.0497 -0.9608 -0.6245
 4678SOL    HW116041   2.557   2.121   7.811  2.2401 -0.4612 -0.3819
 4678SOL    HW216042   2.487   2.000   7.869 -0.8616  1.0579 -0.7370
 4679SOL     OW16043   3.218   1.283   9.075  0.1326  0.2573  0.0907
 4679SOL    HW116044   3.215   1.238   8.990 -1.0278 -1.0452  0.7819
 4679SOL    HW216045   3.297   1.248   9.117 -0.7715 -1.2269  0.6327
 4680SOL     OW16046   6.310   5.918  10.305  0.0442  0.1139 -0.4038
 4680SOL    HW116047   6.248   5.880  10.243 -0.6906  0.5120  0.0821
 4680SOL    HW216048   6.328   6.005  10.270  0.3712 -0.0139 -0.5639
 4681SOL     OW16049  10.891   7.088   5.477 -0.0642 -0.0585  0.1828
 4681SOL    HW116050  10.907   7.181   5.465  1.2401 -0.1369  1.1285
 4681SOL    HW216051  10.859   7.058   5.392  0.2706  1.0859 -0.3630
 4682SOL     OW16052   2.921   7.419   2.953  0.2951  0.2150  0.0188
 4682SOL    HW116053   2.881   7.458   3.031  0.3426  1.2727 -0.4593
 4682SOL    HW216054   2.848   7.377   2.908  0.7676 -3.3986  2.2520
 4683SOL     OW16055   0.559   7.643   3.142 -0.3270  0.2615 -0.3100
 4683SOL    HW116056   0.540   7.591   3.220 -0.5849 -0.7637 -1.0353
 4683SOL    HW216057   0.650   7.622   3.121  1.2057  3.6070  1.9783
 4684SOL     OW16058  10.077   4.119   5.684  0.3277  0.0241  0.3737
 4684SOL    HW116059  10.109   4.029   5.679 -3.0123 -1.3643  0.6640
 4684SOL    HW216060  10.044   4.138   5.596 -0.4424  0.3267  0.7166
 4685SOL     OW16061  10.597   6.478  10.503  0.1709  0.1264 -0.4769
 4685SOL    HW116062  10.533   6.421  10.461  0.3638 -0.5869  0.1879
 4685SOL    HW216063  10.650   6.420  10.558 -0.2502  1.0580  0.9696
 4686SOL     OW16064   8.826   3.582   4.572 -0.1549  0.3669  0.0857
 4686SOL    HW116065   8.852   3.609   4.483  0.4228  0.4925  0.2926
 4686SOL    HW216066   8.905   3.544   4.610 -0.9422 -1.7269 -0.2130
 4687SOL     OW16067   3.693   8.080   0.527 -0.0573 -0.3794 -0.2063
 4687SOL    HW116068   3.725   8.153   0.580  1.1795 -1.8175  1.1126
 4687SOL    HW216069   3.711   8.107   0.437  0.2086  1.0056  0.2304
 4688SOL     OW16070  11.067   5.813   9.972  0.2735  0.2986  0.1690
 4688SOL    HW116071  11.069   5.764   9.889  1.3621  1.5341 -0.5881
 4688SOL    HW216072  11.155   5.851   9.979 -0.2856  1.4900  1.0988
 4689SOL     OW16073   2.659   6.624   6.146 -0.3138 -0.2942 -0.2307
 4689SOL    HW116074   2.665   6.630   6.242  1.2505 -0.4727 -0.2885
 4689SOL    HW216075   2.750   6.610   6.118 -0.7524 -0.1928 -1.7466
 4690SOL     OW16076   1.655   7.977  10.550  0.0108 -0.1162  0.0024
 4690SOL    HW116077   1.564   7.954  10.566  0.2015 -0.4079  0.7250
 4690SOL    HW216078   1.689   8.001  10.636  0.3445  0.9945 -0.4285
 4691SOL     OW16079   0.307   3.060   4.792 -0.0086  0.2846 -0.2150
 4691SOL    HW116080   0.373   3.066   4.861 -0.6814  0.1640  0.4591
 4691SOL    HW216081   0.292   2.966   4.782  0.2627  0.2936 -0.6946
 4692SOL     OW16082   1.137   0.405  10.892 -0.2075 -0.7710  0.0722
 4692SOL    HW116083   1.117   0.332  10.950  0.4612 -0.9698  0.0608
 4692SOL    HW216084   1.188   0.366  10.821 -0.3763 -0.4014 -0.2563
 4693SOL     OW16085   3.212   2.256   4.974  0.2383 -0.3265 -0.2160
 4693SOL    HW116086   3.211   2.161   4.989 -3.6114 -0.3507  0.1703
 4693SOL    HW216087   3.196   2.266   4.880 -0.4916 -0.0899 -0.0731
 4694SOL     OW16088  10.811   8.694   4.449  0.0277  0.0648  0.1483
 4694SOL    HW116089  10.862   8.668   4.372 -0.2775  0.5445 -0.2230
 4694SOL    HW216090  10.784   8.784   4.430 -0.7939 -0.1190  0.4192
 4695SOL     OW16091   8.476   4.644   9.164  0.9057  0.4486  0.2304
 4695SOL    HW116092   8.387   4.669   9.190  0.5967 -0.3787  0.0156
 4695SOL    HW216093   8.516   4.725   9.132 -0.3908  0.5194 -1.3786
 4696SOL     OW16094   0.740   1.682   9.941  0.0510 -0.2888  0.6204
 4696SOL    HW116095   0.708   1.638  10.020  1.2467 -1.0697  0.7068
 4696SOL    HW216096   0.757   1.772   9.969 -2.5364  0.3436  0.4146
 4697SOL     OW16097   9.359   7.252   4.383  0.1433  0.2061  0.1131
 4697SOL    HW116098   9.447   7.277   4.354 -0.0558  0.4305 -0.3065
 4697SOL    HW216099   9.306   7.331   4.369 -0.2410 -0.0919 -0.1332
 4698SOL     OW16100   2.451   2.714   7.467 -0.6844  0.1089 -0.3391
 4698SOL    HW116101   2.450   2.801   7.507  0.0396 -0.2104  0.4114
 4698SOL    HW216102   2.508   2.724   7.390 -1.7809  0.6326 -1.1124
 4699SOL     OW16103   3.013  10.775   2.926  0.3846  0.6405  0.3629
 4699SOL    HW116104   2.996  10.841   2.994 -0.5719  1.5390 -0.7060
 4699SOL    HW216105   2.930  10.768   2.878  1.2223  0.5150 -1.1302
 4700SOL     OW16106   2.402  10.217   3.526 -0.7459  0.6165  0.4407
 4700SOL    HW116107   2.495  10.196   3.525 -0.6887  0.7051 -1.7225
 4700SOL    HW216108   2.358  10.133   3.539 -0.3992  0.6155  1.7941
 4701SOL     OW16109   3.464   7.094   1.384 -0.8039 -0.8954 -0.2199
 4701SOL    HW116110   3.391   7.141   1.424  0.9236  1.7787  0.0258
 4701SOL    HW216111   3.520   7.070   1.459 -0.0462 -0.3604 -0.6038
 4702SOL     OW16112   4.614   8.787   8.800  0.2918  0.5802 -0.3224
 4702SOL    HW116113   4.575   8.847   8.736 -0.3487 -1.0384 -1.5109
 4702SOL    HW216114   4.611   8.701   8.758  0.2927 -0.4710  1.7015
 4703SOL     OW16115  10.622  10.453   7.161 -0.1931 -0.6797 -0.0596
 4703SOL    HW116116  10.564  10.448   7.085 -1.0300  1.4241  0.3852
 4703SOL    HW216117  10.706  10.482   7.125 -0.7891  1.0383 -0.1305
 4704SOL     OW16118   2.079   8.005   9.494 -0.2798  0.2751 -0.3203
 4704SOL    HW116119   2.126   8.056   9.560 -1.9435  0.7289  0.5788
 4704SOL    HW216120   1.995   7.985   9.535 -0.9585 -0.3331 -1.9277
 4705SOL     OW16121   1.955   7.477   3.984  0.1479  0.3349  0.1762
 4705SOL    HW116122   1.933   7.386   3.964 -2.6844  1.2057 -1.2867
 4705SOL    HW216123   2.015   7.503   3.914 -0.6523  0.1204 -0.6120
 4706SOL     OW16124   4.479   7.464  10.182 -0.2933  0.0569  0.1126
 4706SOL    HW116125   4.425   7.512  10.245 -0.4561  1.1817 -0.8543
 4706SOL    HW216126   4.523   7.397  10.235 -2.1757 -0.5221  1.0120
 4707SOL     OW16127   8.835   3.591   4.191 -0.0483 -0.0190  0.5571
 4707SOL    HW116128   8.832   3.671   4.138  0.8950 -0.9486 -1.0139
 4707SOL    HW216129   8.756   3.593   4.244  0.4523  2.4348  1.3208
 4708SOL     OW16130   8.920   4.333   9.537  0.5946 -0.2108 -0.0861
 4708SOL    HW116131   8.919   4.406   9.475  1.7045  1.0501  1.3141
 4708SOL    HW216132   9.007   4.337   9.578 -0.7867  0.3706  3.0856
 4709SOL     OW16133   4.543   7.370  10.704  0.2163  0.0264  0.4070
 4709SOL    HW116134   4.524   7.279  10.726  3.1718 -0.8254 -0.0199
 4709SOL    HW216135   4.638   7.372  10.692  0.1168  2.9295 -0.8025
 4710SOL     OW16136   0.024   7.791   6.992  0.4629  0.0970 -0.0165
 4710SOL    HW116137   0.011   7.831   7.078 -2.6245 -2.6279  1.0177
 4710SOL    HW216138   0.094   7.728   7.005 -1.2021 -1.6099  1.1428
 4711SOL     OW16139   0.444   5.435   1.576  0.0768 -0.1198 -0.0523
 4711SOL    HW116140   0.517   5.453   1.635 -0.4966 -0.9689  0.9370
 4711SOL    HW216141   0.438   5.514   1.521  0.0259  1.1219  1.6459
 4712SOL     OW16142   3.113   3.150   0.379  0.1443  0.6946  0.3007
 4712SOL    HW116143   3.045   3.111   0.323  0.0779 -0.5106  1.1754
 4712SOL    HW216144   3.159   3.075   0.416  1.1724  1.4928  0.6705
 4713SOL     OW16145   4.882   8.570  10.084 -0.2156  0.0026 -0.2275
 4713SOL    HW116146   4.819   8.638  10.108 -0.4650 -0.5958  0.9022
 4713SOL    HW216147   4.967   8.613  10.087 -0.4452  0.4736 -0.3985
 4714SOL     OW16148   2.433   0.574   9.727  0.0003  0.1906 -0.3571
 4714SOL    HW116149   2.378   0.498   9.745 -1.6825  1.4202 -0.0953
 4714SOL    HW216150   2.520   0.537   9.710 -1.1927 -1.9664 -2.3565
 4715SOL     OW16151   2.548   5.355   5.328  0.3834 -0.4054  0.0035
 4715SOL    HW116152   2.622   5.414   5.317  0.5535 -0.2546  1.7507
 4715SOL    HW216153   2.584   5.267   5.315  0.6894 -0.2882  0.0753
 4716SOL     OW16154   1.141   3.701   9.982 -0.4184  0.3101  0.0443
 4716SOL    HW116155   1.175   3.755  10.054  1.7392 -0.2748 -0.4546
 4716SOL    HW216156   1.203   3.714   9.911  1.2156 -3.9181  0.3721
 4717SOL     OW16157   4.324   2.638   7.469  0.5296 -0.0090  0.7021
 4717SOL    HW116158   4.256   2.594   7.521  1.4300 -3.5263 -0.7770
 4717SOL    HW216159   4.392   2.660   7.533 -0.0530 -0.6166  1.5638
 4718SOL     OW16160   1.795   9.715   9.956 -0.4478 -0.1786 -0.1947
 4718SOL    HW116161   1.830   9.695  10.043 -0.1841 -0.8021 -0.4418
 4718SOL    HW216162   1.774   9.809   9.961  0.4923  0.0317  0.2276
 4719SOL     OW16163   3.730   7.462   7.993  0.6896 -0.4376 -0.5497
 4719SOL    HW116164   3.825   7.473   8.004  0.5806 -0.0574  0.1158
 4719SOL    HW216165   3.714   7.486   7.902  1.0941  0.6180 -0.3655
 4720SOL     OW16166   9.382   8.589   3.920 -0.3201  0.4628 -0.2349
 4720SOL    HW116167   9.351   8.680   3.928 -2.4144 -0.2422  0.1989
 4720SOL    HW216168   9.362   8.566   3.829 -0.0139  0.3311 -0.2709
 4721SOL     OW16169   1.035   9.387   8.663  0.3420 -0.4568 -0.0058
 4721SOL    HW116170   1.030   9.433   8.747 -1.4859  0.1857 -0.4274
 4721SOL    HW216171   1.083   9.447   8.606 -0.9789  0.4408 -0.2138
 4722SOL     OW16172  10.761   9.785  10.654 -0.6056 -0.1707 -0.2246
 4722SOL    HW116173  10.679   9.835  10.649  0.4207  1.9960  2.2475
 4722SOL    HW216174  10.819   9.830  10.592 -0.4300  0.1715  0.1823
 4723SOL     OW16175  10.044   7.749   8.175  0.5658 -0.1069 -0.6706
 4723SOL    HW116176  10.013   7.665   8.141 -0.6696  0.4529 -0.9881
 4723SOL    HW216177  10.126   7.728   8.220 -1.1908 -2.0551  1.9198
 4724SOL     OW16178   1.358   5.720   1.062  0.0347  0.8811 -0.5939
 4724SOL    HW116179   1.384   5.634   1.095  0.5149  1.3625  0.3454
 4724SOL    HW216180   1.278   5.704   1.013 -0.3635  0.0218  0.2976
 4725SOL     OW16181   0.747   7.903  10.662 -0.0329 -0.0836 -0.3953
 4725SOL    HW116182   0.843   7.904  10.657  0.0344  0.2504  0.7985
 4725SOL    HW216183   0.724   7.811  10.651  0.5819 -0.5037  1.4450
 4726SOL     OW16184   4.283   9.501   8.742  0.1450 -0.0772  0.7809
 4726SOL    HW116185   4.294   9.591   8.712  1.3986 -0.6022 -0.4865
 4726SOL    HW216186   4.226   9.460   8.677 -1.0768 -0.0237  1.7818
 4727SOL     OW16187   8.179   5.539   3.740  0.0492  0.3598  0.0294
 4727SOL    HW116188   8.254   5.520   3.684  0.4901 -0.3412  0.8389
 4727SOL    HW216189   8.148   5.624   3.710 -1.2471 -1.0125 -2.8992
 4728SOL     OW16190   7.098   4.977   9.894 -0.2842 -0.1823 -0.3298
 4728SOL    HW116191   7.075   4.957   9.804 -2.0870  0.0192  0.0435
 4728SOL    HW216192   7.103   4.891   9.937  2.7624 -0.4701 -1.0185
 4729SOL     OW16193   1.464   7.994   6.339  0.3741 -0.4828  0.3357
 4729SOL    HW116194   1.484   8.054   6.268  1.5428  1.4562  2.1818
 4729SOL    HW216195   1.393   7.939   6.305 -0.1814  1.3819 -1.7466
 4730SOL     OW16196   6.593   4.467   1.609  0.7294  0.0088  0.0767
 4730SOL    HW116197   6.512   4.432   1.571  1.2505  0.3533 -1.3791
 4730SOL    HW216198   6.577   4.562   1.615  0.1148 -0.1754  2.0855
 4731SOL     OW16199   1.040   4.130   2.350 -0.2680  0.0199 -0.1714
 4731SOL    HW116200   0.970   4.116   2.414 -0.7908 -1.1485 -0.9567
 4731SOL    HW216201   0.998   4.178   2.279 -0.2455 -0.5214 -0.5592
 4732SOL     OW16202   0.360   1.999   1.970 -0.1877 -0.2014 -0.0446
 4732SOL    HW116203   0.309   1.984   1.891 -1.0965  2.7192 -0.1401
 4732SOL    HW216204   0.296   1.995   2.041  0.0381  0.2469  0.1910
 4733SOL     OW16205   7.993   3.638   9.129  0.2542 -0.0330 -0.1306
 4733SOL    HW116206   7.917   3.695   9.117  0.5076 -0.0012 -1.9191
 4733SOL    HW216207   7.997   3.587   9.048  2.3255  0.2065 -0.2332
 4734SOL     OW16208   3.666  10.074   7.521  0.0613  0.4413 -0.3527
 4734SOL    HW116209   3.670  10.029   7.606 -1.4172 -1.1311 -1.0416
 4734SOL    HW216210   3.619  10.155   7.539  2.0505  1.4091  0.7747
 4735SOL     OW16211  10.306   8.064   0.742 -0.2470 -0.7348  0.4148
 4735SOL    HW116212  10.242   8.063   0.813  0.3796 -0.2344  1.0050
 4735SOL    HW216213  10.375   8.004   0.771  0.7354  0.5824  0.9623
 4736SOL     OW16214  10.492   3.412   7.608 -0.4229 -0.4001 -0.0282
 4736SOL    HW116215  10.419   3.352   7.592 -0.8859  0.1948 -0.1909
 4736SOL    HW216216  10.472   3.451   7.693 -0.6599  0.2689 -0.3843
 4737SOL     OW16217   7.565   8.268   5.695 -0.1373  0.4100 -0.1826
 4737SOL    HW116218   7.489   8.325   5.705  0.4637  1.1610  0.1651
 4737SOL    HW216219   7.601   8.291   5.609 -0.2403  0.1234 -0.3043
 4738SOL     OW16220   6.441  10.701   1.749 -0.2633  0.0815 -0.2640
 4738SOL    HW116221   6.480  10.615   1.759  0.8070  0.7988  2.8194
 4738SOL    HW216222   6.515  10.762   1.752 -1.1483  1.1967 -0.2351
 4739SOL     OW16223   0.234   7.746   8.211  0.2545 -0.8004  0.4577
 4739SOL    HW116224   0.272   7.791   8.286 -0.5015  0.2581  0.2235
 4739SOL    HW216225   0.149   7.787   8.199 -0.5895 -2.4856  0.3935
 4740SOL     OW16226   9.701   3.297   6.823  0.2746 -0.2610  0.5364
 4740SOL    HW116227   9.693   3.263   6.913 -0.0184 -1.7626 -0.0233
 4740SOL    HW216228   9.760   3.372   6.831 -1.1073  0.7116  2.2445
 4741SOL     OW16229   5.567   3.266   8.230 -0.8665  0.0058 -0.6006
 4741SOL    HW116230   5.493   3.303   8.278 -0.3162 -0.3494  0.5564
 4741SOL    HW216231   5.618   3.342   8.203 -0.7893  0.1884  0.0365
 4742SOL     OW16232   1.654   6.259  10.277  0.0449 -0.1657  0.3213
 4742SOL    HW116233   1.613   6.230  10.358 -1.7889  2.0502  0.2648
 4742SOL    HW216234   1.582   6.292  10.223  1.4684  0.3989 -1.3442
 4743SOL     OW16235   8.230   7.025   7.031 -0.1146  0.1424 -0.4879
 4743SOL    HW116236   8.205   6.987   6.947  1.3691  3.3579 -2.6094
 4743SOL    HW216237   8.316   7.065   7.014  0.5078  0.4331  2.7576
 4744SOL     OW16238   7.597   6.382   6.192  0.1124 -0.9272  0.0833
 4744SOL    HW116239   7.557   6.467   6.176 -1.5661 -1.8718 -0.9714
 4744SOL    HW216240   7.688   6.393   6.163  0.3767  0.8962  1.3714
 4745SOL     OW16241   8.871   3.824   9.302  0.5430  0.5216 -0.1929
 4745SOL    HW116242   8.850   3.917   9.288 -0.7784  0.4151  0.8427
 4745SOL    HW216243   8.953   3.811   9.255 -0.1246  1.7919 -1.8164
 4746SOL     OW16244   0.142   3.286   7.279 -0.3032  0.0437 -0.4979
 4746SOL    HW116245   0.198   3.211   7.299  0.2330  0.4681 -0.3734
 4746SOL    HW216246   0.053   3.255   7.296 -0.1630 -0.8301 -1.2495
 4747SOL     OW16247   4.064   8.798   6.245  0.0292  0.1499  0.5859
 4747SOL    HW116248   4.043   8.724   6.188 -2.3774  0.7377  0.6093
 4747SOL    HW216249   4.132   8.847   6.198 -0.8844 -0.1610 -1.1048
 4748SOL     OW16250   4.053   4.739   8.437 -0.1615 -0.3397 -0.3098
 4748SOL    HW116251   4.089   4.746   8.348 -1.9645  0.0662 -1.0581
 4748SOL    HW216252   4.130   4.732   8.494  1.0550 -0.0509 -1.8458
 4749SOL     OW16253   5.260   6.739   8.646 -0.5958  0.5324  0.2985
 4749SOL    HW116254   5.257   6.670   8.712  0.3085  1.0750  0.9260
 4749SOL    HW216255   5.212   6.703   8.571 -0.8853 -0.4274  0.9309
 4750SOL     OW16256   8.343   4.800  10.799 -0.2028  0.5823  0.5354
 4750SOL    HW116257   8.373   4.873  10.744 -0.7414  0.5691  0.2161
 4750SOL    HW216258   8.300   4.741  10.738  1.2948 -0.6215  0.5766
 4751SOL     OW16259   1.369   1.216  10.040 -0.1321  0.2187 -0.0464
 4751SOL    HW116260   1.419   1.172  10.109  1.0492 -0.8507 -1.5032
 4751SOL    HW216261   1.385   1.162   9.962 -0.9365  1.7047 -1.2786
 4752SOL     OW16262   6.808   4.262   7.446  0.1522  0.1392 -0.3493
 4752SOL    HW116263   6.716   4.284   7.453 -0.2777 -1.4935 -0.3764
 4752SOL    HW216264   6.853   4.328   7.499 -0.8625  1.8274 -1.5151
 4753SOL     OW16265   3.724   6.864   0.926 -0.5639  0.2186 -0.1044
 4753SOL    HW116266   3.642   6.817   0.937 -0.7102  0.0769 -1.6016
 4753SOL    HW216267   3.790   6.807   0.964 -1.2518  0.8549  2.2019
 4754SOL     OW16268   2.363   6.477   9.875  0.2760  0.1095  0.2951
 4754SOL    HW116269   2.428   6.476   9.806 -0.3485  0.4631 -0.3167
 4754SOL    HW216270   2.413   6.488   9.956  1.1013 -1.5936  0.0374
 4755SOL     OW16271   2.049   3.883   0.396 -0.0460  0.6948  0.0756
 4755SOL    HW116272   2.112   3.888   0.469  0.3565 -0.0446 -0.2139
 4755SOL    HW216273   2.042   3.974   0.365  1.6783  0.6531 -0.5460
 4756SOL     OW16274   4.588   3.948   6.420 -0.2479 -0.6254 -0.1058
 4756SOL    HW116275   4.638   3.871   6.446 -1.0304 -0.8592  0.7630
 4756SOL    HW216276   4.639   4.022   6.452 -0.5414 -0.8687  0.9578
 4757SOL     OW16277   0.909   4.131   8.753 -0.1794 -0.0720  0.0899
 4757SOL    HW116278   0.980   4.171   8.703 -1.0622  0.5395 -0.7126
 4757SOL    HW216279   0.837   4.195   8.749 -1.3150 -1.3294 -0.4505
 4758SOL     OW16280   0.530   8.995   9.347  0.2202  0.1535  0.4900
 4758SOL    HW116281   0.613   9.022   9.385  0.8336 -0.4885 -0.3656
 4758SOL    HW216282   0.466   9.010   9.417  1.0822  0.4334  1.2379
 4759SOL     OW16283  10.184   2.304   2.552  0.4387 -0.0012 -0.1103
 4759SOL    HW116284  10.238   2.355   2.492  0.0835 -0.4450 -0.8143
 4759SOL    HW216285  10.095   2.335   2.536  0.3136 -0.2919  0.0210
 4760SOL     OW16286   3.204   5.509   8.557 -0.1532  0.3316  0.1824
 4760SOL    HW116287   3.122   5.472   8.590  0.8070 -0.3063  1.9618
 4760SOL    HW216288   3.194   5.604   8.571 -0.6568  0.2811  0.1944
 4761SOL     OW16289   1.057   5.227  10.878  0.6997  0.0599 -0.4083
 4761SOL    HW116290   1.026   5.316  10.896  0.8707  0.0690 -0.1636
 4761SOL    HW216291   1.152   5.233  10.887  0.6174 -0.4541  0.9145
 4762SOL     OW16292   2.557  10.071  10.577 -0.1624  0.2594  0.3632
 4762SOL    HW116293   2.610  10.098  10.502 -0.0261 -0.4022  0.2161
 4762SOL    HW216294   2.474  10.043  10.539  0.1094 -0.6245  0.3898
 4763SOL     OW16295   7.982   3.359   7.378  0.3918 -1.0542  0.1805
 4763SOL    HW116296   7.963   3.287   7.438  0.5976 -0.6676  0.7075
 4763SOL    HW216297   7.943   3.330   7.295 -1.6765 -0.7089  0.9607
 4764SOL     OW16298   2.867   7.153   0.563  0.3644 -0.1531 -0.2368
 4764SOL    HW116299   2.951   7.195   0.544 -0.6955  0.7673 -3.5715
 4764SOL    HW216300   2.802   7.213   0.527 -1.5176 -2.3343 -0.7017
 4765SOL     OW16301   5.765   8.619   8.637 -0.0942 -0.0049 -0.1578
 4765SOL    HW116302   5.861   8.622   8.631  0.0637 -0.3088  1.6787
 4765SOL    HW216303   5.748   8.559   8.709 -1.6843 -0.0064 -0.5158
 4766SOL     OW16304   0.756   5.016   9.076  0.0770  0.1402 -0.0340
 4766SOL    HW116305   0.688   5.071   9.114 -0.2605 -0.8689  0.8809
 4766SOL    HW216306   0.742   4.930   9.116  2.7755  0.2076  1.3112
 4767SOL     OW16307   1.891   3.906   6.743  0.1475  0.5984 -0.0276
 4767SOL    HW116308   1.912   3.999   6.754  0.1040  0.4684  1.2842
 4767SOL    HW216309   1.800   3.898   6.771  0.1878  0.1310 -0.0183
 4768SOL     OW16310   9.348   4.929  10.321 -0.4965  0.2864  0.3865
 4768SOL    HW116311   9.405   4.884  10.384  0.4807  1.5725  0.4512
 4768SOL    HW216312   9.398   5.006  10.294 -1.3565  0.3435 -1.1414
 4769SOL     OW16313   3.734   7.389   4.355 -0.0689 -0.1077  0.4494
 4769SOL    HW116314   3.784   7.434   4.422  0.4900  0.3428 -0.2607
 4769SOL    HW216315   3.785   7.311   4.334 -0.0570 -0.0511  0.2708
 4770SOL     OW16316   4.175   4.476   0.158  0.1387 -0.4274 -0.1110
 4770SOL    HW116317   4.157   4.469   0.065  1.4511  2.3961 -0.6921
 4770SOL    HW216318   4.138   4.561   0.183 -0.3293 -1.1851  2.0036
 4771SOL     OW16319   1.257   5.250   3.675  0.0839  0.2360  0.0232
 4771SOL    HW116320   1.225   5.175   3.626 -0.7901  0.3716  0.3560
 4771SOL    HW216321   1.283   5.313   3.609  0.2926 -0.1447 -0.2587
 4772SOL     OW16322   0.776   2.535   0.552  0.0510  0.1582 -0.0234
 4772SOL    HW116323   0.868   2.543   0.528 -0.2027  1.2973 -0.7048
 4772SOL    HW216324   0.729   2.536   0.468 -0.7354  2.3735  0.3575
 4773SOL     OW16325   5.657   3.063  10.210 -0.0146  0.1043 -0.4895
 4773SOL    HW116326   5.721   2.995  10.230  0.3707  0.2293 -1.2714
 4773SOL    HW216327   5.588   3.018  10.160 -0.5758 -0.0405  0.3901
 4774SOL     OW16328   6.633  10.260   6.412 -0.4242 -0.1274  0.1437
 4774SOL    HW116329   6.593  10.299   6.490  1.2140 -0.7891  1.3526
 4774SOL    HW216330   6.663  10.335   6.361  0.7644  0.2924  1.4058
 4775SOL     OW16331   3.473   5.019  10.075 -0.2287  0.0132  0.6007
 4775SOL    HW116332   3.482   5.019   9.980 -0.8496  0.7669  0.5303
 4775SOL    HW216333   3.506   5.105  10.103  0.4547 -0.4103  1.1218
 4776SOL     OW16334   8.395   2.994   8.747 -0.1002  0.4039  0.1911
 4776SOL    HW116335   8.370   3.083   8.722  1.7973  0.8471 -0.3140
 4776SOL    HW216336   8.474   3.005   8.799  0.4565 -1.0001 -0.2999
 4777SOL     OW16337   9.496   7.879   9.428  0.5094  0.0760  0.0808
 4777SOL    HW116338   9.486   7.862   9.522  0.5120  0.9393  0.2423
 4777SOL    HW216339   9.480   7.794   9.387  1.8962 -0.6429  0.9502
 4778SOL     OW16340   6.564   2.201   9.083 -0.5212 -0.2511 -0.1336
 4778SOL    HW116341   6.614   2.128   9.048 -0.7662 -1.4018  1.7564
 4778SOL    HW216342   6.474   2.169   9.088 -1.1349  1.1214 -1.6998
 4779SOL     OW16343   1.985   4.748  10.675 -0.4292  0.0729  0.0245
 4779SOL    HW116344   2.006   4.837  10.703 -1.7362  0.5933 -0.5838
 4779SOL    HW216345   2.004   4.748  10.581  2.1185 -1.1064  0.4495
 4780SOL     OW16346   3.198   8.828   9.128  0.3251 -0.3536  0.2812
 4780SOL    HW116347   3.115   8.783   9.114  0.4687 -0.5252 -0.0126
 4780SOL    HW216348   3.178   8.893   9.195  0.1252 -0.8721  0.7341
 4781SOL     OW16349   2.031   6.250   7.968  0.3833 -0.0091  0.0797
 4781SOL    HW116350   2.044   6.324   7.908 -1.1065  0.4035  0.2286
 4781SOL    HW216351   1.999   6.290   8.049 -0.5163 -0.8167  0.1398
 4782SOL     OW16352   4.345   4.809   4.695  0.0864  0.4370 -0.2501
 4782SOL    HW116353   4.301   4.893   4.713  1.1942  0.6512  1.7660
 4782SOL    HW216354   4.437   4.833   4.682  0.6325 -0.5284  1.5414
 4783SOL     OW16355  11.058   1.447   6.435  0.6050  0.3899 -0.0831
 4783SOL    HW116356  11.003   1.523   6.416  0.6602  0.0440 -1.7708
 4783SOL    HW216357  11.029   1.380   6.372  1.9901 -0.2800 -0.0449
 4784SOL     OW16358   7.933   8.484   4.720 -0.2613  0.1052  0.2751
 4784SOL    HW116359   7.860   8.474   4.780 -0.8840  0.3439 -0.4346
 4784SOL    HW216360   7.999   8.422   4.752 -2.1808 -2.9333 -1.2206
 4785SOL     OW16361   2.883   9.111   1.157 -0.2112  0.1085  0.1877
 4785SOL    HW116362   2.904   9.022   1.185  2.9626  0.3288 -1.0094
 4785SOL    HW216363   2.968   9.156   1.155 -1.1285  2.0466 -2.9280
 4786SOL     OW16364   8.578  10.656   9.233  0.4520  0.0907 -0.0216
 4786SOL    HW116365   8.663  10.692   9.207  0.4069  0.4474  0.3243
 4786SOL    HW216366   8.534  10.638   9.150  0.9177 -0.2284 -0.2058
 4787SOL     OW16367   4.264   3.034   7.415 -0.3104 -0.5446  0.0756
 4787SOL    HW116368   4.295   3.030   7.325  0.7157 -0.2065  0.4018
 4787SOL    HW216369   4.343   3.033   7.468 -0.7960  1.4215  0.9137
 4788SOL     OW16370   4.604   7.002   0.198  0.4432 -0.1598 -0.5513
 4788SOL    HW116371   4.597   6.906   0.202  1.1888 -0.1643  2.5775
 4788SOL    HW216372   4.514   7.032   0.190  0.1839 -1.0949 -1.3995
 4789SOL     OW16373   4.672  10.459   9.200  0.4311  0.1682  0.2611
 4789SOL    HW116374   4.755  10.480   9.242 -0.0387 -0.6895  1.7057
 4789SOL    HW216375   4.684  10.371   9.165  0.5028  0.5060 -0.5944
 4790SOL     OW16376   5.374  10.264  10.829 -0.0256  0.1523  0.0617
 4790SOL    HW116377   5.460  10.223  10.827  0.4061  1.0674 -1.1533
 4790SOL    HW216378   5.390  10.356  10.809 -1.4102 -0.0017 -2.2232
 4791SOL     OW16379   4.685   4.920   9.010  0.0720 -0.0116 -0.3162
 4791SOL    HW116380   4.705   4.967   9.092 -0.5516  0.9280 -0.6810
 4791SOL    HW216381   4.768   4.921   8.961  0.2656  0.0333  0.0074
 4792SOL     OW16382   3.485   7.086   8.809  0.4543 -0.0162 -0.0619
 4792SOL    HW116383   3.523   7.015   8.757 -0.9735  0.0816 -1.3069
 4792SOL    HW216384   3.540   7.091   8.887  1.6200 -1.3297 -0.7624
 4793SOL     OW16385   3.302   9.253   4.170  0.1129 -0.1088 -0.6816
 4793SOL    HW116386   3.350   9.217   4.245 -0.1245  1.6726  0.3765
 4793SOL    HW216387   3.212   9.265   4.202 -0.1063  0.2429 -1.3962
 4794SOL     OW16388   3.643   6.461   4.218  0.0672  0.2239  0.1087
 4794SOL    HW116389   3.569   6.448   4.278 -0.1228  1.3233  0.1319
 4794SOL    HW216390   3.718   6.478   4.276 -0.2335  1.8695  0.0475
 4795SOL     OW16391   1.488   3.514   1.076  0.1481  0.1428 -0.2428
 4795SOL    HW116392   1.466   3.607   1.082 -0.0636  0.0591  0.3979
 4795SOL    HW216393   1.405   3.469   1.095  0.8343 -0.1849  2.4212
 4796SOL     OW16394   2.485   2.132   7.437  0.5888  0.1099 -0.1385
 4796SOL    HW116395   2.512   2.069   7.370  1.1922 -2.0981  2.0003
 4796SOL    HW216396   2.564   2.182   7.455 -0.1192  2.2829 -2.4951
 4797SOL     OW16397   1.694   1.380   9.046  0.3773 -0.9849  0.5898
 4797SOL    HW116398   1.645   1.307   9.086 -0.1500 -1.1541 -0.3274
 4797SOL    HW216399   1.644   1.400   8.967  1.3230 -0.5649  0.0996
 4798SOL     OW16400   2.661   3.270   8.557 -0.5528 -0.3658 -0.2347
 4798SOL    HW116401   2.600   3.262   8.484 -3.2161  1.3995  1.5848
 4798SOL    HW216402   2.656   3.185   8.602  0.4746 -1.1707 -1.5789
 4799SOL     OW16403  10.545   6.368   6.850 -0.7586 -1.0577  0.6008
 4799SOL    HW116404  10.588   6.394   6.932 -1.6054  0.6897  0.5420
 4799SOL    HW216405  10.616   6.366   6.786 -0.5088  0.5922  0.7674
 4800SOL     OW16406   9.100   0.184   7.864  0.0490 -0.1571 -0.2316
 4800SOL    HW116407   9.058   0.263   7.897 -0.2838 -0.6836  0.6418
 4800SOL    HW216408   9.175   0.171   7.922 -0.0762 -0.6476 -0.1763
 4801SOL     OW16409   1.404  10.922   4.142  0.4256 -0.1501 -0.1395
 4801SOL    HW116410   1.480  10.898   4.089  0.3505 -0.5053 -0.0830
 4801SOL    HW216411   1.441  10.973   4.214  0.8144 -1.6910  0.7981
 4802SOL     OW16412   0.863   8.763   4.280 -0.2790  0.2302 -0.4768
 4802SOL    HW116413   0.817   8.728   4.203 -1.1463  0.7109 -0.1928
 4802SOL    HW216414   0.888   8.852   4.254  2.5544 -0.7500 -1.4619
 4803SOL     OW16415  10.133   7.853   9.244  0.3797  0.4682  0.0461
 4803SOL    HW116416  10.157   7.836   9.335  1.5622  2.2844  0.1386
 4803SOL    HW216417  10.055   7.800   9.229  0.4175 -0.2053  1.9824
 4804SOL     OW16418   3.567   6.984   0.358  0.4448 -0.3470 -0.4572
 4804SOL    HW116419   3.600   6.942   0.437 -0.0492  1.1364  0.5727
 4804SOL    HW216420   3.478   7.011   0.379  0.3309  0.1516 -1.4860
 4805SOL     OW16421   0.872   7.786  11.010 -0.0843  0.0150  0.3778
 4805SOL    HW116422   0.944   7.761  10.952 -0.4969 -1.3947  0.4265
 4805SOL    HW216423   0.809   7.829  10.954 -0.0665 -0.5114 -0.0593
 4806SOL     OW16424  10.297   6.842   4.782 -0.3195 -0.1952  0.2267
 4806SOL    HW116425  10.358   6.843   4.855  0.1480  1.8407 -0.1253
 4806SOL    HW216426  10.215   6.876   4.819 -2.0645 -4.8009  1.2216
 4807SOL     OW16427   8.543   5.115  10.440  0.5823 -0.3145 -0.4327
 4807SOL    HW116428   8.502   5.063  10.509  0.3883  0.7389  0.2609
 4807SOL    HW216429   8.626   5.143  10.477  0.9869 -0.6621 -1.0549
 4808SOL     OW16430   9.478   7.256   4.050  0.0763  0.6564 -0.1493
 4808SOL    HW116431   9.476   7.176   3.997  0.0935 -0.0266  0.8396
 4808SOL    HW216432   9.388   7.265   4.082 -0.2555  1.7999 -1.3177
 4809SOL     OW16433  11.039   5.695   5.492 -0.0014 -0.2364 -0.1147
 4809SOL    HW116434  10.948   5.721   5.476 -0.3838 -1.6936 -0.4450
 4809SOL    HW216435  11.076   5.768   5.543 -0.3921  1.9407 -2.7004
 4810SOL     OW16436   0.830   7.484   2.802 -0.3398  0.2418  0.1855
 4810SOL    HW116437   0.749   7.436   2.820 -0.7682 -0.1214 -2.3270
 4810SOL    HW216438   0.900   7.423   2.828 -0.8983 -0.6488 -0.3273
 4811SOL     OW16439   3.348   8.729   6.000  0.0556 -0.0412 -0.4139
 4811SOL    HW116440   3.338   8.641   5.963  1.9844 -0.1418 -0.8252
 4811SOL    HW216441   3.364   8.713   6.093 -1.2555  0.0041 -0.1604
 4812SOL     OW16442   7.854   0.706   1.436 -0.1970  0.3439 -0.2869
 4812SOL    HW116443   7.891   0.626   1.399 -1.0269  0.3817 -1.2079
 4812SOL    HW216444   7.930   0.763   1.448  0.3672 -0.4730  0.1408
 4813SOL     OW16445  10.290   8.519   8.734 -0.3596  0.5368 -0.0990
 4813SOL    HW116446  10.288   8.560   8.647 -1.3629 -2.6193 -1.7220
 4813SOL    HW216447  10.365   8.459   8.730 -0.0209  0.8152  1.4906
 4814SOL     OW16448   9.315   2.772   5.584  0.4156 -0.5779 -0.1674
 4814SOL    HW116449   9.336   2.816   5.666 -1.1930 -0.3755  0.1598
 4814SOL    HW216450   9.346   2.683   5.596  1.4357 -0.1972  0.1173
 4815SOL     OW16451   6.866   8.404   8.293  0.4482 -0.0063  0.1483
 4815SOL    HW116452   6.827   8.402   8.381 -0.2597 -0.1175 -0.1578
 4815SOL    HW216453   6.945   8.457   8.303 -1.0232  2.3289  0.3345
 4816SOL     OW16454   1.320   8.363   0.803 -0.6483 -0.3546 -0.2976
 4816SOL    HW116455   1.339   8.387   0.713  1.6855 -0.0167  0.2175
 4816SOL    HW216456   1.259   8.430   0.834  0.6265  1.1222 -0.8548
 4817SOL     OW16457   0.553   6.776   9.341  0.0088 -0.0344  0.6869
 4817SOL    HW116458   0.502   6.820   9.409 -1.2103  1.5447 -1.1620
 4817SOL    HW216459   0.640   6.815   9.347 -0.3803  0.8393  0.6873
 4818SOL     OW16460   2.119   5.356  10.458  0.0134 -0.3527 -0.0187
 4818SOL    HW116461   2.104   5.416  10.385  0.9440 -2.3037 -1.9373
 4818SOL    HW216462   2.184   5.401  10.513  1.7323 -0.1144 -2.1242
 4819SOL     OW16463   2.182   2.870   1.398 -0.3572 -0.0312  0.4995
 4819SOL    HW116464   2.227   2.810   1.457 -1.2848 -0.0918  1.1735
 4819SOL    HW216465   2.160   2.817   1.321  1.8991  0.3409 -0.4673
 4820SOL     OW16466   1.863   2.085   0.238 -0.1390  0.4043 -0.1884
 4820SOL    HW116467   1.883   2.110   0.147 -0.0123  0.2743 -0.1975
 4820SOL    HW216468   1.799   2.150   0.267  0.3942  0.9040 -0.1200
 4821SOL     OW16469   6.861   7.619  10.793  0.0590 -0.2398 -0.2803
 4821SOL    HW116470   6.921   7.552  10.761 -0.4107 -0.5542 -0.5295
 4821SOL    HW216471   6.783   7.608  10.738  0.1873  0.8848 -0.6952
 4822SOL     OW16472   8.729   8.241   9.080  0.3685 -0.3439 -0.3957
 4822SOL    HW116473   8.686   8.187   9.013 -0.5565  0.3603 -0.3832
 4822SOL    HW216474   8.786   8.180   9.126 -0.2124 -1.1906 -0.7694
 4823SOL     OW16475  10.367   7.142   5.398  0.2537  0.0772 -0.2993
 4823SOL    HW116476  10.393   7.222   5.444 -0.5216  0.2061 -0.0580
 4823SOL    HW216477  10.438   7.080   5.414  0.9898  0.7936 -0.7031
 4824SOL     OW16478   3.889  10.292   7.059 -0.1015  0.1839 -0.1732
 4824SOL    HW116479   3.966  10.347   7.077  0.8705 -1.4305  0.9609
 4824SOL    HW216480   3.822  10.325   7.118 -0.3520  1.6886 -1.2530
 4825SOL     OW16481   9.849  10.812   7.669 -0.5277 -0.1475  0.1543
 4825SOL    HW116482   9.812  10.899   7.656  0.7131  0.4132  0.2143
 4825SOL    HW216483   9.837  10.794   7.762 -2.3061 -0.7886 -0.1622
 4826SOL     OW16484   2.296   4.963  10.145  0.0631  0.1699  0.2855
 4826SOL    HW116485   2.321   4.873  10.125  1.4048  0.6265 -0.2214
 4826SOL    HW216486   2.327   4.978  10.234  1.1647  0.5598 -0.1436
 4827SOL     OW16487   7.354   5.651   0.753 -0.0714  0.4522 -0.1021
 4827SOL    HW116488   7.408   5.726   0.778  1.8079 -1.4855  2.1351
 4827SOL    HW216489   7.272   5.663   0.802  0.3949  0.8392  0.6040
 4828SOL     OW16490   2.085   2.644   7.084  0.0193 -0.6583  0.6790
 4828SOL    HW116491   2.124   2.598   7.009 -0.2787 -1.6892  1.1334
 4828SOL    HW216492   1.995   2.661   7.057  0.3090  0.2340  0.2660
 4829SOL     OW16493   6.639   2.899   5.265  0.4267  0.0544 -0.5227
 4829SOL    HW116494   6.661   2.924   5.176  1.1336  1.2189 -0.0477
 4829SOL    HW216495   6.544   2.885   5.264 -0.0432  2.7489 -0.8834
 4830SOL     OW16496   3.133   3.810   5.052 -0.0628  0.1185  0.4586
 4830SOL    HW116497   3.066   3.853   5.105  0.7898  0.9182  0.9185
 4830SOL    HW216498   3.192   3.770   5.115 -0.1077 -0.6035  0.0538
 4831SOL     OW16499  10.643   8.653   7.771 -0.3427 -0.5567 -0.1101
 4831SOL    HW116500  10.573   8.595   7.740 -0.6921 -0.5767  0.6727
 4831SOL    HW216501  10.626   8.737   7.729  0.4533 -1.1293 -1.6464
 4832SOL     OW16502   8.257   5.768   0.543 -0.0282 -0.2639  0.3000
 4832SOL    HW116503   8.181   5.743   0.595  0.6800 -2.1414  0.5198
 4832SOL    HW216504   8.239   5.732   0.456 -0.5981  1.6926 -0.4457
 4833SOL     OW16505   5.971   9.655   7.874  0.7142 -0.5441  0.1584
 4833SOL    HW116506   5.902   9.656   7.941  2.2298 -1.6678  1.8195
 4833SOL    HW216507   6.016   9.738   7.885  0.2276 -0.2139 -0.2950
 4834SOL     OW16508   2.817   2.663   5.810 -0.7649  0.0857 -0.1397
 4834SOL    HW116509   2.882   2.612   5.857 -1.8950  1.5845  3.3696
 4834SOL    HW216510   2.744   2.602   5.795 -0.9827 -0.0676  1.4607
 4835SOL     OW16511  10.765   5.857   9.714  0.5560 -0.6944  0.8148
 4835SOL    HW116512  10.787   5.898   9.798  1.0531  1.4921 -0.3088
 4835SOL    HW216513  10.717   5.924   9.667 -0.2369 -2.0973 -0.4573
 4836SOL     OW16514   0.932   7.513   5.041  0.5902  0.5585  0.3891
 4836SOL    HW116515   0.894   7.425   5.042  1.9891 -0.1440 -1.8532
 4836SOL    HW216516   0.857   7.572   5.034 -0.2704 -0.6851 -2.1170
 4837SOL     OW16517  10.888   6.320   5.136  0.1292 -0.1784  0.2346
 4837SOL    HW116518  10.971   6.362   5.114  1.6639 -2.0205  2.1024
 4837SOL    HW216519  10.842   6.313   5.053  1.3881  1.7451 -0.7183
 4838SOL     OW16520   3.152   6.639   1.352 -0.0159  0.3566 -0.1459
 4838SOL    HW116521   3.068   6.616   1.314 -0.3604 -0.3916  1.0161
 4838SOL    HW216522   3.130   6.702   1.421  0.4311  0.5070 -0.1350
 4839SOL     OW16523   1.121   4.326   4.761 -0.1888  0.3534 -0.2047
 4839SOL    HW116524   1.169   4.284   4.832  1.0809  0.1152 -1.1645
 4839SOL    HW216525   1.029   4.320   4.787  0.3322  2.5468  2.6182
 4840SOL     OW16526   8.026   5.824   9.185 -0.0336 -0.3030  0.1931
 4840SOL    HW116527   8.073   5.754   9.230 -0.0878 -1.1911 -1.0860
 4840SOL    HW216528   8.093   5.889   9.163  0.0291  0.0341  1.3087
 4841SOL     OW16529   6.217   6.372   9.469 -0.2940  0.5180 -0.2178
 4841SOL    HW116530   6.184   6.424   9.397 -0.3633 -0.5982 -1.0179
 4841SOL    HW216531   6.152   6.384   9.539 -1.0367  0.4118 -0.8704
 4842SOL     OW16532   0.760   2.030   7.664 -0.0888 -0.2914  0.3732
 4842SOL    HW116533   0.780   1.989   7.580  0.0261  0.4009  0.0473
 4842SOL    HW216534   0.777   2.123   7.648  0.2777 -0.2005  1.2671
 4843SOL     OW16535   7.682   9.341   6.283 -0.7555 -0.2305  0.5128
 4843SOL    HW116536   7.695   9.247   6.290 -1.0950 -0.3193  0.0205
 4843SOL    HW216537   7.611   9.351   6.219  1.4268  0.4434 -2.0034
 4844SOL     OW16538   2.451   9.352   5.926  0.0297 -0.4349 -0.7088
 4844SOL    HW116539   2.506   9.311   5.993  1.5641 -0.6204 -2.0243
 4844SOL    HW216540   2.394   9.281   5.895  1.2206 -1.0836 -1.4967
 4845SOL     OW16541   6.089  10.378   7.622  0.5940 -0.6750  0.1109
 4845SOL    HW116542   6.005  10.334   7.611 -0.3937  0.9956  0.5736
 4845SOL    HW216543   6.069  10.471   7.611  1.8848  0.0047  2.6733
 4846SOL     OW16544   3.637   6.417   1.971 -0.4815 -0.5247 -0.0952
 4846SOL    HW116545   3.684   6.353   2.025 -1.3503 -1.5020 -0.4744
 4846SOL    HW216546   3.702   6.450   1.910  0.0014 -0.9698  0.1747
 4847SOL     OW16547   4.442  10.007   9.693 -0.2977 -0.3668  0.2147
 4847SOL    HW116548   4.447   9.912   9.680 -1.1006 -0.7701  2.4073
 4847SOL    HW216549   4.498  10.024   9.769  0.3450  1.0363 -0.5425
 4848SOL     OW16550   5.414   4.426   7.847  0.1616 -0.5598 -0.6029
 4848SOL    HW116551   5.419   4.461   7.936  3.2975  0.0519 -0.8824
 4848SOL    HW216552   5.387   4.501   7.794  0.8486 -0.2038 -0.4592
 4849SOL     OW16553   4.106   1.076   0.857 -0.0467  0.5780 -0.3336
 4849SOL    HW116554   4.196   1.107   0.857 -0.0648  0.6918 -1.4434
 4849SOL    HW216555   4.092   1.044   0.768 -1.5880  2.0766 -0.6845
 4850SOL     OW16556   3.638   2.731   7.503 -0.5505 -0.3069  0.3637
 4850SOL    HW116557   3.609   2.779   7.581 -1.4981 -0.7675  0.3069
 4850SOL    HW216558   3.728   2.705   7.523  0.5887  2.7582 -0.1939
 4851SOL     OW16559   4.146   5.015   1.373 -0.5095 -0.5771  0.4798
 4851SOL    HW116560   4.070   5.071   1.390  0.0389  0.5760 -0.7297
 4851SOL    HW216561   4.211   5.045   1.436  0.1219  0.8795 -0.8120
 4852SOL     OW16562   0.220   9.489   9.017 -0.2607 -0.2738 -0.0106
 4852SOL    HW116563   0.289   9.544   9.054 -2.2111  1.9210  0.5920
 4852SOL    HW216564   0.215   9.414   9.077  1.3513 -0.3428  0.0842
 4853SOL     OW16565  10.992   3.649  10.074  0.3230 -0.5388 -0.3170
 4853SOL    HW116566  10.999   3.576  10.012 -1.2734 -1.3417  0.4041
 4853SOL    HW216567  10.949   3.718  10.023 -0.4481 -0.9896 -0.2910
 4854SOL     OW16568   2.661   9.762   2.810 -1.0758  1.2366  0.0666
 4854SOL    HW116569   2.680   9.756   2.903 -1.9021  1.0555  0.2255
 4854SOL    HW216570   2.592   9.698   2.795  0.9831 -0.8314 -1.2031
 4855SOL     OW16571   0.868   4.489   6.624 -0.4997 -0.0612  0.0341
 4855SOL    HW116572   0.938   4.555   6.620  1.0444 -1.4472  1.9039
 4855SOL    HW216573   0.803   4.518   6.561  1.2097  1.9787 -0.8924
 4856SOL     OW16574   0.497  10.633   6.454  0.5008  0.4339  0.5679
 4856SOL    HW116575   0.568  10.584   6.496 -0.1537 -1.7740 -0.7250
 4856SOL    HW216576   0.440  10.659   6.526  1.4239  0.2015  1.4009
 4857SOL     OW16577   1.187  10.246   9.687 -0.4691  0.0486 -0.3250
 4857SOL    HW116578   1.166  10.241   9.780  2.0657  0.2356  0.3261
 4857SOL    HW216579   1.271  10.292   9.683 -0.8102  0.6208 -2.7724
 4858SOL     OW16580   2.025   2.472   7.911  0.2878  0.0936 -0.7912
 4858SOL    HW116581   2.065   2.559   7.913  0.1806  0.1342 -0.1186
 4858SOL    HW216582   1.931   2.488   7.901  0.3617  0.0146 -1.7509
 4859SOL     OW16583   9.631   7.507   9.452  0.2335 -0.1349  0.5634
 4859SOL    HW116584   9.599   7.499   9.362 -1.1810 -1.4424  1.1389
 4859SOL    HW216585   9.584   7.582   9.488  0.3025 -0.0178  0.4075
 4860SOL     OW16586   0.412   5.292   7.926 -0.3139  0.9317  0.0257
 4860SOL    HW116587   0.466   5.325   7.998  0.1272  1.4930 -0.5523
 4860SOL    HW216588   0.475   5.252   7.865 -0.6991  0.3294  0.0099
 4861SOL     OW16589   8.683  10.872   0.816 -0.5096  0.0083  0.3634
 4861SOL    HW116590   8.606  10.903   0.864  0.8136 -0.4870  3.0101
 4861SOL    HW216591   8.711  10.793   0.863  1.9926  0.5617 -0.0256
 4862SOL     OW16592   0.134   5.293   5.740  0.5026 -0.1723  0.4505
 4862SOL    HW116593   0.146   5.314   5.647 -1.2301 -1.2810 -0.0653
 4862SOL    HW216594   0.172   5.368   5.786 -0.8152  1.6301 -1.2010
 4863SOL     OW16595   9.424   4.929   8.600 -0.2603  0.1254 -0.8323
 4863SOL    HW116596   9.457   4.968   8.519  0.0279  2.3183  0.2771
 4863SOL    HW216597   9.332   4.954   8.603 -0.2101  0.2669 -0.3805
 4864SOL     OW16598  10.556   4.088   6.037  0.0212 -0.5956 -0.3761
 4864SOL    HW116599  10.473   4.131   6.056 -0.3273 -0.9307 -1.0787
 4864SOL    HW216600  10.620   4.134   6.090 -0.3972  0.5718 -0.8447
 4865SOL     OW16601   4.699   8.365   9.977  0.0592 -0.4135  0.4379
 4865SOL    HW116602   4.725   8.273   9.972  0.7252 -0.1811 -0.8656
 4865SOL    HW216603   4.769   8.407  10.028  0.6640 -0.3429 -0.4267
 4866SOL     OW16604   6.192   6.874   8.487 -0.3315  0.1361  0.5082
 4866SOL    HW116605   6.187   6.781   8.466  0.5257  0.0650  0.5792
 4866SOL    HW216606   6.113   6.912   8.448  0.0843 -0.3561 -0.8811
 4867SOL     OW16607   5.945   6.933   1.933  0.2408 -0.4612 -0.0025
 4867SOL    HW116608   5.880   6.868   1.962  0.7570 -0.5050  1.0880
 4867SOL    HW216609   6.029   6.895   1.957  0.5262  0.8823  1.2179
 4868SOL     OW16610   9.620  10.579   6.611 -0.0123  0.2888 -0.5457
 4868SOL    HW116611   9.704  10.611   6.578  0.5054 -0.9307 -0.4350
 4868SOL    HW216612   9.624  10.594   6.705  0.0128  0.3667 -0.5588
 4869SOL     OW16613   2.864   3.269   7.672  0.0105 -0.1665  0.0495
 4869SOL    HW116614   2.921   3.200   7.638 -1.0902  0.0829 -2.5687
 4869SOL    HW216615   2.840   3.321   7.595 -1.7539  1.2197  1.4286
 4870SOL     OW16616  10.275   3.525   2.121  0.0038 -0.6068  0.1090
 4870SOL    HW116617  10.347   3.579   2.152  1.5696 -1.0987 -2.3344
 4870SOL    HW216618  10.226   3.502   2.200  0.0479  3.1306  1.4338
 4871SOL     OW16619   5.800  10.663   8.147  0.0196 -0.2005 -0.0471
 4871SOL    HW116620   5.875  10.666   8.206 -1.5093 -0.3090  1.9997
 4871SOL    HW216621   5.752  10.584   8.172 -0.6414 -0.2973 -1.5111
 4872SOL     OW16622   1.791   4.266   2.388  0.5918 -0.3817 -0.1342
 4872SOL    HW116623   1.854   4.206   2.427 -0.0938 -0.7021  0.5211
 4872SOL    HW216624   1.713   4.258   2.443  0.2446  0.5894 -0.4530
 4873SOL     OW16625  10.408   9.012  10.798 -0.6255 -0.6897  0.3311
 4873SOL    HW116626  10.485   8.959  10.821  0.3236 -0.6518 -2.4328
 4873SOL    HW216627  10.422   9.095  10.845  0.0373 -1.3396  1.3359
 4874SOL     OW16628   1.772  10.821   7.565 -0.6463  0.0045 -0.3114
 4874SOL    HW116629   1.709  10.831   7.494  0.5480  0.6612 -1.3129
 4874SOL    HW216630   1.800  10.729   7.560 -0.6564  0.0169 -0.6140
 4875SOL     OW16631   0.805   3.009   0.321 -0.3357  0.1010 -0.2898
 4875SOL    HW116632   0.808   3.095   0.364  0.3606  0.6854 -1.4527
 4875SOL    HW216633   0.831   3.027   0.231 -0.6743 -1.2678 -0.6763
 4876SOL     OW16634   7.598   9.893   0.131  0.2889  0.2275  0.6738
 4876SOL    HW116635   7.505   9.885   0.153  0.0820 -2.4597 -0.7242
 4876SOL    HW216636   7.643   9.844   0.199  0.4232 -0.5914  0.0140
 4877SOL     OW16637  10.712   5.979   6.895 -0.3175  0.5050  0.5001
 4877SOL    HW116638  10.737   6.004   6.806 -1.5410  0.2173  0.0544
 4877SOL    HW216639  10.793   5.949   6.935  0.6121  2.3563  0.0943
 4878SOL     OW16640   3.294   3.280   5.973 -0.2610  0.9899 -0.0689
 4878SOL    HW116641   3.216   3.264   6.025 -0.0875 -2.3345 -0.6043
 4878SOL    HW216642   3.262   3.292   5.883 -0.2428  0.3068 -0.1760
 4879SOL     OW16643   1.790   5.684  10.534 -0.1514 -0.0070 -0.5537
 4879SOL    HW116644   1.721   5.654  10.593 -0.3406  0.0316 -0.7542
 4879SOL    HW216645   1.794   5.778  10.549  1.5101 -0.2831  1.2257
 4880SOL     OW16646   1.606   2.590   7.658 -0.7070 -0.4657 -0.3509
 4880SOL    HW116647   1.689   2.559   7.622 -0.8356 -0.6262 -0.5130
 4880SOL    HW216648   1.544   2.520   7.638 -0.4332 -1.3541  1.6500
 4881SOL     OW16649   4.532   3.850   8.525  0.4552 -0.0748 -0.1205
 4881SOL    HW116650   4.492   3.936   8.516  1.7854  0.5503 -0.2532
 4881SOL    HW216651   4.502   3.801   8.449 -2.3623 -0.6394  1.2031
 4882SOL     OW16652  10.100   7.160   4.303 -0.0012 -0.6931  0.6739
 4882SOL    HW116653  10.157   7.183   4.230  0.6050  0.9551  1.6228
 4882SOL    HW216654  10.013   7.153   4.265 -0.1087  2.4378  0.1081
 4883SOL     OW16655   6.670   6.732   0.651  0.2896 -0.4461  0.5470
 4883SOL    HW116656   6.708   6.707   0.566 -1.7288 -0.7715 -0.3259
 4883SOL    HW216657   6.662   6.828   0.646 -0.3980 -0.5189  0.0866
 4884SOL     OW16658   7.243   2.833   6.332 -0.4458 -0.0309  0.1222
 4884SOL    HW116659   7.197   2.751   6.313 -0.1052 -0.1235 -0.3167
 4884SOL    HW216660   7.335   2.807   6.343 -0.0258  0.5007 -1.7690
 4885SOL     OW16661   9.465   7.660   6.848 -0.1345 -0.6079 -0.5116
 4885SOL    HW116662   9.499   7.606   6.919  1.5627 -1.1800 -1.7009
 4885SOL    HW216663   9.420   7.599   6.790  0.1669 -0.4746 -0.8978
 4886SOL     OW16664   2.697   0.043   0.193  0.0518  0.2559  0.2245
 4886SOL    HW116665   2.637   0.097   0.243 -0.1648 -0.8178  1.1699
 4886SOL    HW216666   2.768   0.021   0.254  1.3867  1.4016 -0.8382
 4887SOL     OW16667   8.232   3.616   0.824 -0.3058  0.2817 -0.1272
 4887SOL    HW116668   8.141   3.645   0.832 -0.9131 -1.6961  0.8234
 4887SOL    HW216669   8.239   3.581   0.736 -1.2792 -1.9486  0.6197
 4888SOL     OW16670   0.482   1.081   0.168  0.3167  1.0561 -0.2920
 4888SOL    HW116671   0.494   0.989   0.145  0.7284  0.6770  1.3141
 4888SOL    HW216672   0.570   1.112   0.188 -0.1814  0.7113  2.8846
 4889SOL     OW16673   0.839   8.699   6.600  0.6796  0.3293  0.5901
 4889SOL    HW116674   0.851   8.632   6.532  0.4871 -0.3867  1.2469
 4889SOL    HW216675   0.780   8.763   6.561 -0.9858 -1.0517  0.7277
 4890SOL     OW16676   0.556   5.628   7.307 -0.7198 -0.1665 -0.5304
 4890SOL    HW116677   0.496   5.582   7.248  0.0211 -0.0135 -1.4342
 4890SOL    HW216678   0.539   5.721   7.291 -1.8748 -0.0975  0.9404
 4891SOL     OW16679   3.187   0.996   3.092  0.1054  0.3022 -0.3023
 4891SOL    HW116680   3.218   0.906   3.101  2.1457  1.1318  2.0628
 4891SOL    HW216681   3.111   0.990   3.034  0.0817 -2.9416 -0.0826
 4892SOL     OW16682   3.675   5.591   0.768  0.6159 -0.3729 -0.1483
 4892SOL    HW116683   3.740   5.597   0.698 -0.5939  1.2348 -1.2213
 4892SOL    HW216684   3.700   5.513   0.817  0.4233 -2.8399 -3.5534
 4893SOL     OW16685   7.809   8.834   7.522  0.0923 -0.2477 -0.4840
 4893SOL    HW116686   7.859   8.838   7.440 -0.5282 -0.8299 -0.9047
 4893SOL    HW216687   7.821   8.920   7.562  0.0425  0.2089 -1.4134
 4894SOL     OW16688   1.154   9.612   9.554  0.4418 -0.0108  0.1696
 4894SOL    HW116689   1.137   9.684   9.493 -1.5555 -0.0990  0.5502
 4894SOL    HW216690   1.194   9.544   9.501 -0.3264  0.3018 -0.8271
 4895SOL     OW16691   7.369   6.395   0.349  0.3274 -0.2929 -0.3310
 4895SOL    HW116692   7.316   6.472   0.369  0.4532 -0.2508 -0.1501
 4895SOL    HW216693   7.459   6.428   0.352  0.3701 -0.3997 -0.4695
 4896SOL     OW16694   8.968   5.076   0.488 -0.2766  0.7509  0.1737
 4896SOL    HW116695   8.923   5.111   0.411  1.7294  1.1220 -0.9005
 4896SOL    HW216696   8.924   5.118   0.562 -2.2299  0.4229 -0.7243
 4897SOL     OW16697   6.905   1.686   6.264  0.6468  0.4072 -1.0401
 4897SOL    HW116698   6.966   1.756   6.286  0.7859  0.6821 -2.2509
 4897SOL    HW216699   6.829   1.731   6.226  1.0861 -0.1261 -2.6113
 4898SOL     OW16700   6.490   2.595   1.802  0.1293  0.3726 -0.5336
 4898SOL    HW116701   6.472   2.616   1.711 -0.5728  0.7912 -0.3006
 4898SOL    HW216702   6.432   2.652   1.853 -1.2800 -1.5605  0.1296
 4899SOL     OW16703  11.095   3.120   6.571 -0.4435  0.5026  0.2587
 4899SOL    HW116704  11.167   3.057   6.577 -0.5114  0.4951  0.9963
 4899SOL    HW216705  11.069   3.137   6.661 -2.0441 -0.2884  0.0033
 4900SOL     OW16706   0.837   7.857   3.294  0.2172  0.2124  0.4100
 4900SOL    HW116707   0.750   7.866   3.255  0.1601  1.2498  0.7423
 4900SOL    HW216708   0.820   7.859   3.389  0.6656  1.1856  0.4767
 4901SOL     OW16709   1.528   8.423   6.071  0.3316  0.6569 -0.1653
 4901SOL    HW116710   1.469   8.394   6.140  0.7573 -1.9411 -0.7804
 4901SOL    HW216711   1.498   8.378   5.992  2.3827  0.1774 -0.7382
 4902SOL     OW16712   3.619   2.437   7.623 -0.1803 -0.0584 -0.0348
 4902SOL    HW116713   3.568   2.459   7.545  2.9908  1.3652 -1.8639
 4902SOL    HW216714   3.641   2.345   7.612  0.9405  0.3416 -1.2879
 4903SOL     OW16715   6.626   2.290   9.334  0.8308  0.3213  0.1607
 4903SOL    HW116716   6.629   2.272   9.240 -0.0412 -4.3551  0.7465
 4903SOL    HW216717   6.538   2.324   9.349  1.2381  1.8438 -0.7360
 4904SOL     OW16718   2.697   3.062   8.955  0.1066 -0.3749  0.1376
 4904SOL    HW116719   2.701   3.146   9.001 -0.1773 -0.1108 -0.3136
 4904SOL    HW216720   2.784   3.024   8.968  0.3580  0.1536  0.0426
 4905SOL     OW16721  10.499  10.168   7.011  0.4887  0.3524  0.0084
 4905SOL    HW116722  10.497  10.136   7.101  1.2698  0.2614  0.0042
 4905SOL    HW216723  10.413  10.207   6.997 -0.2038 -1.0474  0.2728
 4906SOL     OW16724   8.533   6.462   9.136 -0.7855  0.0702 -0.3732
 4906SOL    HW116725   8.446   6.499   9.154 -1.2766 -1.3629  0.3606
 4906SOL    HW216726   8.584   6.537   9.106 -1.1518  1.8483  2.9124
 4907SOL     OW16727   0.892   6.349  10.458 -0.8070 -0.2067  0.3550
 4907SOL    HW116728   0.864   6.439  10.475 -0.2063  0.1393 -0.4275
 4907SOL    HW216729   0.870   6.302  10.538 -2.7481  0.2382  0.1436
 4908SOL     OW16730   1.339   6.525  10.298 -0.2514  0.2738  0.3584
 4908SOL    HW116731   1.248   6.548  10.279 -0.0311 -0.9230 -2.7203
 4908SOL    HW216732   1.363   6.582  10.371 -2.7355  2.3857 -0.2985
 4909SOL     OW16733  10.322  10.528  10.797 -0.1490  0.2997  0.6978
 4909SOL    HW116734  10.314  10.559  10.707 -0.5807  0.2590  0.7186
 4909SOL    HW216735  10.302  10.605  10.851 -0.6044  0.1501  0.7517
 4910SOL     OW16736   9.617   9.853   9.241  0.2224  0.2595 -0.1425
 4910SOL    HW116737   9.539   9.900   9.215  0.8170  1.1956 -0.2864
 4910SOL    HW216738   9.594   9.810   9.323 -0.0312  1.6131  0.5067
 4911SOL     OW16739  11.094   3.755   1.086 -0.0629  0.2926  0.7003
 4911SOL    HW116740  11.044   3.762   1.005  0.0824 -0.1824  0.5666
 4911SOL    HW216741  11.058   3.823   1.143  0.1469  0.9423  0.0712
 4912SOL     OW16742   5.634   1.590   1.741 -0.1733  0.0259 -1.0487
 4912SOL    HW116743   5.538   1.595   1.749 -0.0386  1.9220 -0.0098
 4912SOL    HW216744   5.667   1.632   1.821  1.5574 -1.6292 -0.8290
 4913SOL     OW16745   5.796   9.664   3.803 -0.4613  0.1053  0.3776
 4913SOL    HW116746   5.700   9.663   3.803 -0.5226  0.5062 -1.8169
 4913SOL    HW216747   5.819   9.753   3.831 -0.7652  0.3229 -0.0487
 4914SOL     OW16748   5.940   6.674   0.708 -0.2699 -0.2583  0.0192
 4914SOL    HW116749   5.945   6.616   0.633 -0.3366 -1.8764  1.2175
 4914SOL    HW216750   6.019   6.728   0.702 -1.1931  0.9669 -2.1881
 4915SOL     OW16751   7.778   3.052   2.848  0.6335 -0.3197 -0.0791
 4915SOL    HW116752   7.725   3.130   2.829  1.8881  0.4286 -0.6203
 4915SOL    HW216753   7.835   3.079   2.920  1.1019 -0.7258 -0.2935
 4916SOL     OW16754   5.384   9.863   3.875 -0.4207 -0.3707 -0.5891
 4916SOL    HW116755   5.292   9.880   3.857 -0.1461 -1.1395 -2.9813
 4916SOL    HW216756   5.432   9.924   3.820  0.6035  1.2796  1.9232
 4917SOL     OW16757   3.382   4.364   7.809  0.0930  0.2431 -0.0070
 4917SOL    HW116758   3.388   4.300   7.737 -2.6892 -0.0741 -0.0418
 4917SOL    HW216759   3.364   4.311   7.886 -2.6654  0.9240 -0.1056
 4918SOL     OW16760   9.967   9.654   3.206  0.1299  0.6119  0.0328
 4918SOL    HW116761   9.973   9.678   3.298  2.7057  2.3234 -0.4679
 4918SOL    HW216762   9.957   9.737   3.160 -1.3702 -0.2265 -1.2593
 4919SOL     OW16763   7.996   4.674   5.071 -0.0828 -0.3184  0.4033
 4919SOL    HW116764   7.967   4.762   5.046 -0.6099 -0.2522  1.2348
 4919SOL    HW216765   8.025   4.635   4.989 -1.6325 -0.0467 -0.3199
 4920SOL     OW16766   5.592   0.763   0.040  0.4925 -0.1116  0.2228
 4920SOL    HW116767   5.672   0.797   0.000  1.1827 -1.6560  0.2192
 4920SOL    HW216768   5.577   0.819   0.116  0.4856  1.3932 -0.8641
 4921SOL     OW16769   7.910   6.577   4.655  0.1667  0.0363 -0.7089
 4921SOL    HW116770   7.974   6.510   4.630  0.4508 -0.0608  0.2483
 4921SOL    HW216771   7.847   6.578   4.583 -0.5227 -2.1083 -0.1998
 4922SOL     OW16772   5.896   7.290   1.501 -0.4756 -0.0359  0.5593
 4922SOL    HW116773   5.936   7.363   1.453 -0.2540 -0.5079  0.0065
 4922SOL    HW216774   5.913   7.309   1.593 -0.6100  0.7175  0.4365
 4923SOL     OW16775   7.559   5.999   9.196  0.1275 -0.6146 -0.5736
 4923SOL    HW116776   7.511   6.080   9.207  1.6222  0.5380 -1.9421
 4923SOL    HW216777   7.616   5.993   9.273 -0.6483 -0.8778 -0.0096
 4924SOL     OW16778   9.968   1.423   4.920 -0.2072  0.6110  0.0024
 4924SOL    HW116779   9.976   1.336   4.958  0.9358  0.1372 -1.2216
 4924SOL    HW216780   9.918   1.473   4.984 -1.6396 -1.1535  0.3561
 4925SOL     OW16781   5.731   3.952  10.865 -0.6700  0.2158 -0.4060
 4925SOL    HW116782   5.744   4.044  10.839 -1.1275  0.2402 -0.5502
 4925SOL    HW216783   5.785   3.942  10.943 -1.6133  0.9743  0.3789
 4926SOL     OW16784   5.203   1.740   6.770  0.2558  0.4363  0.6432
 4926SOL    HW116785   5.205   1.668   6.707  0.7461  0.1445  0.9838
 4926SOL    HW216786   5.287   1.785   6.758  0.6070  0.0321  1.4712
 4927SOL     OW16787   6.434  10.754   0.098 -0.7983 -0.3480 -0.0765
 4927SOL    HW116788   6.386  10.832   0.127 -0.5852 -0.4627  0.5926
 4927SOL    HW216789   6.378  10.681   0.124 -0.2747 -0.4828  0.7013
 4928SOL     OW16790   6.838   8.921   7.948  0.1086 -0.5753 -0.0750
 4928SOL    HW116791   6.761   8.939   8.002  0.7942  0.8815  0.4883
 4928SOL    HW216792   6.883   8.850   7.994 -0.2441 -0.5717  0.2867
 4929SOL     OW16793   9.528   7.827   8.063 -1.0408 -0.0407 -0.4878
 4929SOL    HW116794   9.498   7.864   7.980 -0.7381  1.1973 -0.0758
 4929SOL    HW216795   9.544   7.904   8.118  0.0272 -0.7981  0.2802
 4930SOL     OW16796   0.894   3.894   1.886  0.1047  0.1704  0.3006
 4930SOL    HW116797   0.826   3.874   1.951 -0.6393  0.9445 -0.2080
 4930SOL    HW216798   0.948   3.815   1.881 -1.1552 -0.7118  0.2382
 4931SOL     OW16799   5.761   1.710   5.395  0.2460  0.1527 -0.0873
 4931SOL    HW116800   5.727   1.752   5.475  0.4441 -0.7601  0.4853
 4931SOL    HW216801   5.849   1.746   5.385  1.2286 -1.6269  1.5807
 4932SOL     OW16802   9.630   7.356   7.959  0.1554  0.0446  0.2873
 4932SOL    HW116803   9.668   7.294   8.020 -0.9060  0.7664  1.7361
 4932SOL    HW216804   9.705   7.392   7.911  1.2941  0.9300  2.5839
 4933SOL     OW16805   2.457   1.697   2.253 -0.2889  0.1390 -0.1588
 4933SOL    HW116806   2.410   1.628   2.301 -1.6180 -0.8282 -2.6976
 4933SOL    HW216807   2.545   1.662   2.240 -1.2495 -1.6843 -2.3737
 4934SOL     OW16808   6.331  10.374   2.065 -0.2514  0.1254  0.2089
 4934SOL    HW116809   6.308  10.455   2.019 -1.0285  0.5021  1.2082
 4934SOL    HW216810   6.261  10.363   2.130 -1.0922 -2.2548 -0.9860
 4935SOL     OW16811   0.670   9.968   7.267 -0.0398  0.1171 -0.2587
 4935SOL    HW116812   0.606   9.914   7.220  0.4317  0.1076 -0.9120
 4935SOL    HW216813   0.707   9.909   7.333  2.0011 -1.0869 -2.3148
 4936SOL     OW16814   7.430   4.726  10.326  0.3267  0.5652 -0.4144
 4936SOL    HW116815   7.334   4.726  10.322  0.3522  1.1076 -1.0588
 4936SOL    HW216816   7.456   4.812  10.295  0.9640  1.2167  1.7526
 4937SOL     OW16817   1.662  10.150   6.060 -0.1548 -0.5688 -0.2752
 4937SOL    HW116818   1.575  10.152   6.021  0.1833  0.8885 -1.0337
 4937SOL    HW216819   1.717  10.197   5.998  0.8913 -0.3007  0.8192
 4938SOL     OW16820   0.708   0.163  10.905 -0.4368 -0.2310 -0.6967
 4938SOL    HW116821   0.752   0.247  10.918 -2.0976  0.4985  0.5292
 4938SOL    HW216822   0.777   0.097  10.919  0.2376  0.8464  1.5043
 4939SOL     OW16823   4.626   6.484  10.288 -0.3591 -0.1287  0.1804
 4939SOL    HW116824   4.641   6.410  10.229  0.4816  0.7807 -0.7837
 4939SOL    HW216825   4.547   6.460  10.336 -0.2451 -1.5420 -0.2859
 4940SOL     OW16826  11.065   5.332   0.207 -0.2937 -0.1917  0.2955
 4940SOL    HW116827  11.074   5.271   0.280  0.0016 -1.8142 -1.0223
 4940SOL    HW216828  10.972   5.355   0.206 -0.4550 -0.7865  0.7198
 4941SOL     OW16829  10.781   4.195   2.900  0.2885 -0.0104 -0.3504
 4941SOL    HW116830  10.740   4.244   2.829  0.0295 -0.1959 -0.3304
 4941SOL    HW216831  10.853   4.250   2.929 -0.1268  0.4525 -0.1910
 4942SOL     OW16832   8.609   7.547   3.064  0.7338  0.1887 -0.4340
 4942SOL    HW116833   8.698   7.534   3.096  1.8106  0.0826 -3.2405
 4942SOL    HW216834   8.594   7.642   3.072  0.2935 -0.0226  1.8474
 4943SOL     OW16835   1.805   8.585   9.330  0.3007 -0.0499  0.0242
 4943SOL    HW116836   1.785   8.491   9.329 -1.2810  0.2592  0.0368
 4943SOL    HW216837   1.753   8.619   9.403  2.1755  0.6003  1.1533
 4944SOL     OW16838   3.588   6.180   5.445  0.4720  0.6045 -0.0785
 4944SOL    HW116839   3.610   6.209   5.534  0.9593 -0.7914  0.2868
 4944SOL    HW216840   3.650   6.109   5.427 -1.2231 -0.8364 -0.5423
 4945SOL     OW16841  10.587   2.111   4.142  0.4721  0.5767 -0.3761
 4945SOL    HW116842  10.561   2.112   4.050  0.5263 -0.2217 -0.4136
 4945SOL    HW216843  10.611   2.019   4.159  0.8841  0.8020  0.3136
 4946SOL     OW16844   2.900   3.409  10.419 -0.3296 -0.1417 -0.0004
 4946SOL    HW116845   2.942   3.350  10.356  2.0422  1.9937 -0.5587
 4946SOL    HW216846   2.819   3.437  10.376 -0.4454 -1.3225 -0.5966
 4947SOL     OW16847  10.387   2.513   4.973 -0.4393 -0.1461  0.3915
 4947SOL    HW116848  10.323   2.556   4.916 -0.1394 -1.0097 -0.6261
 4947SOL    HW216849  10.337   2.447   5.020 -0.1413 -1.6068 -1.2453
 4948SOL     OW16850   1.895  10.918   2.140 -0.1401  0.7062 -0.5303
 4948SOL    HW116851   1.824  10.865   2.177 -0.5815  1.0301 -0.9011
 4948SOL    HW216852   1.928  10.968   2.215 -0.4080  0.6673 -0.3832
 4949SOL     OW16853   2.349   6.228   3.134 -0.1029  0.1552  0.1380
 4949SOL    HW116854   2.349   6.147   3.083 -1.2446 -0.6087  1.2832
 4949SOL    HW216855   2.423   6.219   3.194  0.1778  0.2756 -0.1852
 4950SOL     OW16856   3.087   4.281   8.193 -0.1328 -0.2953  0.3467
 4950SOL    HW116857   3.094   4.369   8.230  0.8232  0.4124 -1.4195
 4950SOL    HW216858   3.041   4.230   8.260  0.5513  1.1862  1.9996
 4951SOL     OW16859   8.603   0.081  10.034 -0.7152 -0.1500 -0.1223
 4951SOL    HW116860   8.535   0.148  10.022 -0.0350  0.9090  1.6052
 4951SOL    HW216861   8.680   0.116   9.989 -0.4767  0.0715  0.4408
 4952SOL     OW16862   0.883   4.190   4.713  0.4510 -0.0567  0.3742
 4952SOL    HW116863   0.870   4.168   4.620  0.5862 -1.4598  0.6777
 4952SOL    HW216864   0.875   4.286   4.715  0.9953  0.0612 -1.1712
 4953SOL     OW16865  10.713   6.381   9.897 -0.3990  0.1527 -0.4353
 4953SOL    HW116866  10.719   6.438   9.820  0.2133  0.7342  0.0406
 4953SOL    HW216867  10.788   6.323   9.890  0.3657  1.0128  0.3554
 4954SOL     OW16868  10.843   7.358   7.570 -0.7281 -0.1026 -0.3810
 4954SOL    HW116869  10.905   7.367   7.643  0.2934  1.1625 -1.3710
 4954SOL    HW216870  10.853   7.267   7.542  0.2960 -0.0594 -0.1923
 4955SOL     OW16871   4.082   4.933  10.625 -0.5020  0.3620 -0.0192
 4955SOL    HW116872   4.035   5.016  10.621 -0.8558  0.1940  0.5953
 4955SOL    HW216873   4.156   4.950  10.684 -0.6399  0.2055  0.1972
 4956SOL     OW16874   0.211   7.588   9.526  0.0396  0.3264  0.3094
 4956SOL    HW116875   0.138   7.646   9.508  1.2104  1.6570 -0.3115
 4956SOL    HW216876   0.273   7.603   9.455  1.5359  0.2878  1.5391
 4957SOL     OW16877   4.266   2.991   0.593  0.3925  0.3010 -0.3697
 4957SOL    HW116878   4.354   3.018   0.620  0.2187  0.4605  0.0657
 4957SOL    HW216879   4.208   3.036   0.656 -0.0372  0.7600 -1.0785
 4958SOL     OW16880   0.353   3.544   8.948  0.1759  0.6123  0.1084
 4958SOL    HW116881   0.408   3.573   9.022 -3.3607  1.4133  2.7396
 4958SOL    HW216882   0.298   3.475   8.985 -1.7385  1.0312 -1.7614
 4959SOL     OW16883  10.805   8.862   8.764  0.1720  0.2095  0.1043
 4959SOL    HW116884  10.843   8.885   8.679 -0.7602 -1.4937 -0.8303
 4959SOL    HW216885  10.740   8.930   8.780  0.1366  0.3794 -0.7021
 4960SOL     OW16886   4.226   8.910   5.391  0.1341  0.2481  0.3251
 4960SOL    HW116887   4.206   8.830   5.439 -1.4116  0.5867  0.3068
 4960SOL    HW216888   4.289   8.884   5.324  0.8770 -0.6058  1.3416
 4961SOL     OW16889   3.520   9.792   2.074 -0.1964  0.4410  0.6413
 4961SOL    HW116890   3.465   9.742   2.014 -0.4244 -0.2341  1.3911
 4961SOL    HW216891   3.501   9.883   2.053  2.2414  0.3492 -2.6019
 4962SOL     OW16892   4.242   6.176   0.445 -0.8575  0.6481  0.0194
 4962SOL    HW116893   4.173   6.111   0.461  0.4175 -0.3050  2.1360
 4962SOL    HW216894   4.260   6.170   0.351 -1.6351 -1.2076 -0.0528
 4963SOL     OW16895   6.150  10.268   1.619  0.2792 -0.0080  0.6455
 4963SOL    HW116896   6.088  10.245   1.550  0.7321 -0.3711  0.3496
 4963SOL    HW216897   6.132  10.361   1.637  0.6510  0.3056 -0.4940
 4964SOL     OW16898   1.154   7.875   1.396  0.1862 -0.1935  0.2938
 4964SOL    HW116899   1.066   7.886   1.359  0.2116 -0.3120  0.1974
 4964SOL    HW216900   1.169   7.780   1.394  0.5883 -0.1281 -0.3371
 4965SOL     OW16901  10.470   1.043   1.834 -0.2083 -0.2620 -0.8390
 4965SOL    HW116902  10.389   1.025   1.881  1.5784 -2.4464  1.7173
 4965SOL    HW216903  10.476   0.975   1.768  0.9421 -2.2002  1.1148
 4966SOL     OW16904   7.711   6.850   9.806 -0.2758 -0.1821 -0.0588
 4966SOL    HW116905   7.732   6.840   9.713 -0.4497  0.9014 -0.2336
 4966SOL    HW216906   7.618   6.874   9.807 -0.4644 -0.9033  0.4496
 4967SOL     OW16907   0.812   4.400   8.706 -0.1026 -0.5285 -0.3462
 4967SOL    HW116908   0.816   4.465   8.636 -0.1506 -0.5299 -0.3505
 4967SOL    HW216909   0.869   4.435   8.774  0.0663 -0.6040 -0.4485
 4968SOL     OW16910   9.596   9.463   6.835 -0.3950 -0.7518  0.0775
 4968SOL    HW116911   9.529   9.512   6.787 -1.5935 -0.1533  2.2602
 4968SOL    HW216912   9.554   9.382   6.860  0.3813 -1.2767 -0.2750
 4969SOL     OW16913   5.579   9.092   7.991 -0.1804 -0.4147  0.2307
 4969SOL    HW116914   5.497   9.051   8.018 -0.4924 -0.0599 -0.1812
 4969SOL    HW216915   5.556   9.146   7.915 -0.0270  1.5024  1.4735
 4970SOL     OW16916   9.034   8.464   1.668  0.2955  0.4284 -0.6899
 4970SOL    HW116917   9.120   8.425   1.679 -1.0764 -2.5412  0.9153
 4970SOL    HW216918   9.008   8.492   1.756 -1.4617 -1.4787 -0.5253
 4971SOL     OW16919   7.945   4.548  10.667  0.2035  0.3222 -0.0641
 4971SOL    HW116920   7.884   4.480  10.640 -3.3443  2.3514  2.0991
 4971SOL    HW216921   7.973   4.522  10.754  0.1055  0.8176  0.1188
 4972SOL     OW16922  11.096   8.282  10.255  0.4057 -0.0383 -0.3163
 4972SOL    HW116923  11.113   8.219  10.185 -2.2019  0.0650 -1.1446
 4972SOL    HW216924  11.064   8.228  10.328 -0.4325  0.1450 -0.5286
 4973SOL     OW16925   0.700   4.871   8.165 -0.3333 -0.5131  0.1643
 4973SOL    HW116926   0.673   4.932   8.234 -0.5829  0.5363 -0.8388
 4973SOL    HW216927   0.754   4.806   8.211 -0.4889  0.1581  1.3473
 4974SOL     OW16928   9.229   2.493   7.713 -0.3247  0.5838  0.1923
 4974SOL    HW116929   9.181   2.421   7.754 -0.5424  0.9326  0.5446
 4974SOL    HW216930   9.161   2.554   7.684 -0.2118  0.1723 -1.0334
 4975SOL     OW16931   1.467   8.325  10.925 -0.0597  0.8002 -0.1834
 4975SOL    HW116932   1.409   8.283  10.862  0.0336  1.3678 -0.6519
 4975SOL    HW216933   1.523   8.381  10.873  0.4423  0.7976  0.3419
 4976SOL     OW16934   1.999   3.287   0.100  0.3525 -0.4410 -0.2407
 4976SOL    HW116935   1.928   3.316   0.156 -0.7736 -0.2382 -1.7041
 4976SOL    HW216936   2.033   3.208   0.142  1.5161  1.2764  2.2481
 4977SOL     OW16937   1.127   3.873  10.713 -0.0096 -0.3163 -0.3772
 4977SOL    HW116938   1.201   3.921  10.677 -0.3647  1.3096  0.9597
 4977SOL    HW216939   1.056   3.888  10.650  0.4685 -0.9348 -1.0780
 4978SOL     OW16940   2.624   4.552  10.272 -0.2351 -0.2441  0.2436
 4978SOL    HW116941   2.640   4.646  10.265 -0.0021 -0.2298  0.8875
 4978SOL    HW216942   2.697   4.511  10.226 -0.4250 -0.1087 -0.1800
 4979SOL     OW16943   1.799   9.865   4.209  0.3304 -0.2350  0.4919
 4979SOL    HW116944   1.785   9.957   4.235 -0.5463 -0.1980 -0.0895
 4979SOL    HW216945   1.825   9.822   4.290  1.1659  0.6067  0.6973
 4980SOL     OW16946   6.375   6.496   0.925 -0.0217  0.1137  0.2506
 4980SOL    HW116947   6.376   6.589   0.905 -2.3534 -0.0718 -1.0115
 4980SOL    HW216948   6.404   6.454   0.844 -0.0562 -0.3226  0.4615
 4981SOL     OW16949   3.390   5.041   6.927 -0.1797 -0.3061  0.1128
 4981SOL    HW116950   3.456   5.110   6.931 -0.7523  0.2045  1.3033
 4981SOL    HW216951   3.390   5.002   7.014 -1.4574 -0.2763  0.1572
 4982SOL     OW16952   7.764   7.566  10.372 -0.2962  0.2613  0.2046
 4982SOL    HW116953   7.674   7.564  10.405 -0.5737 -0.1216 -0.5619
 4982SOL    HW216954   7.816   7.594  10.448 -0.9533 -0.2779  0.8696
 4983SOL     OW16955   7.639   5.684  10.496 -0.0680  0.4008  0.3837
 4983SOL    HW116956   7.691   5.657  10.571 -0.4341  0.2594  0.5902
 4983SOL    HW216957   7.549   5.685  10.528 -0.2563  0.1024 -0.1104
 4984SOL     OW16958   2.846   4.961   1.885 -0.2372 -0.3567 -0.4476
 4984SOL    HW116959   2.752   4.947   1.891 -0.2642  0.3675  1.3445
 4984SOL    HW216960   2.856   5.056   1.884  0.4104 -0.4048 -2.5594
 4985SOL     OW16961  10.115   1.872   8.946  0.2773  0.1239  0.2769
 4985SOL    HW116962  10.034   1.888   8.995 -0.8448 -0.1051 -1.4014
 4985SOL    HW216963  10.125   1.950   8.891 -0.2680 -0.9325 -1.3980
 4986SOL     OW16964   1.129   7.962   0.456 -0.4559  0.0032  0.2960
 4986SOL    HW116965   1.065   8.011   0.508 -0.4654 -0.7363  0.9936
 4986SOL    HW216966   1.093   7.963   0.367 -0.1803  1.7395  0.1524
 4987SOL     OW16967   0.902   8.683   1.067  0.2094  0.5193  0.1089
 4987SOL    HW116968   0.849   8.627   1.124 -0.8317 -0.8638 -2.0639
 4987SOL    HW216969   0.846   8.758   1.048 -0.0693  0.2019 -0.3368
 4988SOL     OW16970   6.011  10.552   4.833  0.2251 -0.0250 -0.2557
 4988SOL    HW116971   6.053  10.637   4.824  0.9334 -0.0640  1.9913
 4988SOL    HW216972   5.927  10.561   4.787  0.3594  1.8209 -0.1932
 4989SOL     OW16973   2.176   5.662   2.987  0.6027  0.1657  0.1627
 4989SOL    HW116974   2.081   5.658   2.976  0.1954 -1.8073  3.1654
 4989SOL    HW216975   2.190   5.708   3.070  2.5103  2.7695 -1.4405
 4990SOL     OW16976   0.564   7.562   2.505  0.0064  0.1203  0.4588
 4990SOL    HW116977   0.590   7.510   2.429  1.0568  2.8715 -1.2260
 4990SOL    HW216978   0.623   7.533   2.575  0.4713 -1.0136 -0.3681
 4991SOL     OW16979   3.579   5.154   0.669 -0.0620  0.0228  0.6537
 4991SOL    HW116980   3.582   5.059   0.667  0.9382  0.0483  0.5510
 4991SOL    HW216981   3.614   5.181   0.584 -1.2760  0.4742  0.2791
 4992SOL     OW16982   9.151   7.035   9.171  0.1878  0.0992  0.6797
 4992SOL    HW116983   9.231   7.033   9.224  0.7174  1.9746  0.0368
 4992SOL    HW216984   9.137   7.128   9.153 -3.1507  0.0469  2.2503
 4993SOL     OW16985   8.412   3.976   8.808 -0.3070 -0.7394  0.3987
 4993SOL    HW116986   8.319   3.978   8.829 -0.1326 -0.3608  1.1789
 4993SOL    HW216987   8.448   3.910   8.866 -0.0453 -0.6822  0.3028
 4994SOL     OW16988   3.933   9.965  10.947 -0.1878  0.0015 -0.3028
 4994SOL    HW116989   3.858   9.914  10.979 -0.2803  0.9930  1.1868
 4994SOL    HW216990   4.006   9.938  11.003  0.1330  0.3408 -0.5538
 4995SOL     OW16991   0.614   1.798   9.716  0.0335 -0.1075 -0.1931
 4995SOL    HW116992   0.536   1.746   9.696  1.1358 -1.4521 -1.2102
 4995SOL    HW216993   0.656   1.751   9.789  0.2248  0.2320 -0.0826
 4996SOL     OW16994   7.296   4.677   8.328 -0.1319  0.2626 -0.5804
 4996SOL    HW116995   7.387   4.651   8.341 -0.1185 -1.1201 -2.8352
 4996SOL    HW216996   7.255   4.601   8.287 -1.6306  1.7123 -1.9399
 4997SOL     OW16997   0.825   6.490   9.655 -0.3190 -0.4461 -1.0089
 4997SOL    HW116998   0.758   6.523   9.715  1.2755 -0.8115  1.0704
 4997SOL    HW216999   0.846   6.565   9.599 -0.6524  0.4307  0.0074
 4998SOL     OW17000  10.656   1.432   1.807  0.1843 -0.2857  0.3606
 4998SOL    HW117001  10.709   1.500   1.847  2.1906 -1.8619  0.5319
 4998SOL    HW217002  10.672   1.354   1.860 -0.6546 -1.3349 -0.8505
 4999SOL     OW17003   1.928   7.190   8.428 -0.6538 -0.0201 -0.0925
 4999SOL    HW117004   2.003   7.202   8.371 -0.4461  1.9955  0.5212
 4999SOL    HW217005   1.947   7.110   8.477  1.4438  0.8184  0.5363
 5000SOL     OW17006   7.190   1.749   3.283  0.2989  0.0614 -0.1616
 5000SOL    HW117007   7.264   1.789   3.237 -0.6073  1.1380 -0.7346
 5000SOL    HW217008   7.177   1.806   3.359  0.9960 -0.9920  0.7667
 5001SOL     OW17009   9.137   1.642   7.588 -0.0998  0.2498  0.1406
 5001SOL    HW117010   9.142   1.575   7.520  0.6116 -0.8271  1.2013
 5001SOL    HW217011   9.069   1.702   7.558  0.2973 -0.0974 -1.5813
 5002SOL     OW17012   0.225   9.551   1.363 -0.5323  0.4307 -0.2037
 5002SOL    HW117013   0.245   9.643   1.382 -0.0431  0.8117 -2.3032
 5002SOL    HW217014   0.130   9.547   1.360 -0.5547  1.0879 -0.8783
 5003SOL     OW17015   7.616   9.469   7.214 -0.1218 -0.1287  0.0561
 5003SOL    HW117016   7.680   9.540   7.221 -0.3962  0.0693  0.6266
 5003SOL    HW217017   7.574   9.467   7.300 -0.0863 -1.0083  0.0579
 5004SOL     OW17018   8.048  10.496   8.135  0.1066 -0.3073 -0.4692
 5004SOL    HW117019   8.078  10.523   8.048 -0.0224  0.7524 -0.2063
 5004SOL    HW217020   7.953  10.505   8.131  0.1047 -0.1993 -0.2051
 5005SOL     OW17021   2.916   5.952   3.752 -0.4937  0.3512  0.6482
 5005SOL    HW117022   2.935   5.973   3.661  1.9578  0.0150  1.0325
 5005SOL    HW217023   2.882   6.033   3.789 -0.1407  0.8964 -0.2016
 5006SOL     OW17024   4.559   4.895  10.023 -0.2680 -0.0124 -0.3826
 5006SOL    HW117025   4.590   4.973   9.977 -3.3488  0.8765 -1.1307
 5006SOL    HW217026   4.589   4.822   9.969 -0.0540  0.7938 -1.3788
 5007SOL     OW17027   1.317   4.724   0.784  0.3196  0.3431 -0.1487
 5007SOL    HW117028   1.384   4.694   0.721  1.2886  0.7094  0.6778
 5007SOL    HW217029   1.239   4.737   0.731  0.3183 -1.9950 -0.8488
 5008SOL     OW17030   1.012   3.287   7.801 -0.3233 -0.4664 -0.1486
 5008SOL    HW117031   0.922   3.310   7.780 -0.6811 -2.5122 -1.0214
 5008SOL    HW217032   1.045   3.363   7.849 -2.1334  0.8016 -0.8063
 5009SOL     OW17033  11.008   2.795   6.299 -0.3711 -0.3367 -0.4736
 5009SOL    HW117034  10.972   2.770   6.384  0.5194 -0.1985 -0.0389
 5009SOL    HW217035  10.936   2.783   6.238 -0.4022 -2.7446 -0.0862
 5010SOL     OW17036   8.308   0.154   9.875  0.3530 -0.6368 -0.4989
 5010SOL    HW117037   8.312   0.079   9.935  3.5794 -0.8021 -0.7907
 5010SOL    HW217038   8.334   0.229   9.929 -0.3253 -0.1414 -0.8472
 5011SOL     OW17039   4.967   5.465   9.559  0.3704 -0.3013 -0.2904
 5011SOL    HW117040   4.924   5.535   9.609  0.6938  1.1615 -1.9551
 5011SOL    HW217041   5.054   5.460   9.597  0.3526  0.2160 -0.1653
 5012SOL     OW17042   8.326  10.422   1.518 -0.0347  0.0515  0.2187
 5012SOL    HW117043   8.272  10.410   1.439  0.7587 -0.2749 -0.2906
 5012SOL    HW217044   8.356  10.513   1.512  0.5565 -0.1678 -0.2055
 5013SOL     OW17045   1.554   2.224   4.379 -0.6377  0.4591  0.0957
 5013SOL    HW117046   1.602   2.304   4.399  1.2685 -0.4575 -0.5251
 5013SOL    HW217047   1.475   2.229   4.434  1.1397  1.0897  2.8106
 5014SOL     OW17048   5.034   9.199   9.789  0.3469 -0.1786 -0.1718
 5014SOL    HW117049   4.986   9.176   9.869 -0.8649  1.0770 -0.5034
 5014SOL    HW217050   5.029   9.120   9.735  1.1006 -1.0079  0.9319
 5015SOL     OW17051   0.882   7.376   6.072 -0.3170  0.3151  0.3646
 5015SOL    HW117052   0.825   7.351   6.144 -0.8518 -4.9818 -1.4840
 5015SOL    HW217053   0.962   7.325   6.084  0.6337  1.2179 -1.4948
 5016SOL     OW17054   0.540   6.288   7.858  0.2355 -0.0378 -0.0761
 5016SOL    HW117055   0.502   6.201   7.865 -1.0382  0.5987  1.4625
 5016SOL    HW217056   0.616   6.277   7.800  0.1988 -2.1740  0.2222
 5017SOL     OW17057   0.509   3.297   5.600 -1.0866  0.1648 -0.2874
 5017SOL    HW117058   0.421   3.290   5.563 -1.4681  1.0390  0.4206
 5017SOL    HW217059   0.554   3.218   5.570 -2.7198 -1.3419  1.0058
 5018SOL     OW17060   6.715   0.138   9.225  0.0110 -0.3615 -0.2788
 5018SOL    HW117061   6.768   0.215   9.204  1.9201 -2.0658 -2.2039
 5018SOL    HW217062   6.638   0.145   9.170  0.0335  0.2985 -0.2326
 5019SOL     OW17063   9.497   7.983   0.298  0.6325  0.8032  0.0483
 5019SOL    HW117064   9.452   8.061   0.330 -0.8408  0.0946 -0.2102
 5019SOL    HW217065   9.589   7.998   0.319  0.0998  1.6244  2.0038
 5020SOL     OW17066   2.691   4.070   6.217  0.5870  0.7213  0.7196
 5020SOL    HW117067   2.673   3.980   6.245 -0.6186  0.8611  0.4386
 5020SOL    HW217068   2.786   4.077   6.220  0.8303 -1.0906 -0.8481
 5021SOL     OW17069   1.106   3.738   9.319  0.4182 -0.4948  0.7137
 5021SOL    HW117070   1.129   3.784   9.400  0.0943  0.7655  0.1085
 5021SOL    HW217071   1.159   3.780   9.252 -1.9651  1.0213 -0.3472
 5022SOL     OW17072   0.812   8.477   9.318 -0.5314  0.4400  0.1555
 5022SOL    HW117073   0.775   8.389   9.312 -0.5162  0.3711  0.9235
 5022SOL    HW217074   0.902   8.468   9.286 -0.5806  0.2072  0.0811
 5023SOL     OW17075   5.844   1.822   8.510  0.4003  0.2089  0.3859
 5023SOL    HW117076   5.938   1.825   8.529  0.8641  0.0123 -1.6500
 5023SOL    HW217077   5.827   1.732   8.483 -0.0565  0.5636 -0.5852
 5024SOL     OW17078   1.721   8.874   2.939 -1.2806 -0.1969 -0.6272
 5024SOL    HW117079   1.677   8.852   3.022  0.3305  1.1220  0.6343
 5024SOL    HW217080   1.738   8.789   2.898 -0.3829 -1.0124  1.3276
 5025SOL     OW17081   4.407   0.695   2.057  0.5024 -0.0196 -0.0097
 5025SOL    HW117082   4.396   0.730   2.145  1.2076  0.7462 -0.2246
 5025SOL    HW217083   4.469   0.623   2.067  2.9865  1.9747 -0.3058
 5026SOL     OW17084   6.106   7.623  10.698 -0.1135 -0.4113 -0.5568
 5026SOL    HW117085   6.029   7.573  10.726  0.8414 -0.5221  2.2114
 5026SOL    HW217086   6.175   7.597  10.760  1.2745  2.0709 -0.9277
 5027SOL     OW17087   7.427   5.183   2.385 -0.0618  0.3337  0.3035
 5027SOL    HW117088   7.462   5.208   2.471 -0.3793 -0.7618  0.7686
 5027SOL    HW217089   7.400   5.266   2.346 -1.1696  0.7435  1.8279
 5028SOL     OW17090  10.925   5.154   4.685  0.1836 -0.3175  0.0512
 5028SOL    HW117091  10.842   5.165   4.731  0.3628 -0.6098  0.4500
 5028SOL    HW217092  10.921   5.217   4.613 -0.3563 -0.2857  0.1057
 5029SOL     OW17093   6.883  10.032   3.255 -0.0713 -0.0707 -0.3326
 5029SOL    HW117094   6.881   9.961   3.319  1.0633  0.0793 -0.1044
 5029SOL    HW217095   6.974  10.035   3.226 -0.5555 -0.0854 -1.9108
 5030SOL     OW17096   9.840   9.842   9.046  0.3800  0.0354  0.0868
 5030SOL    HW117097   9.913   9.855   9.106  0.0778 -0.6219  0.6124
 5030SOL    HW217098   9.767   9.816   9.102  0.0596 -0.4779 -0.5467
 5031SOL     OW17099   4.060   5.989   9.499  0.4616 -0.1524 -0.0561
 5031SOL    HW117100   4.056   6.032   9.414 -0.5087 -0.6745 -0.2894
 5031SOL    HW217101   4.013   6.048   9.558  0.6033 -0.0816 -0.0141
 5032SOL     OW17102   8.789   6.178   6.361 -0.0582  0.1786 -0.2166
 5032SOL    HW117103   8.818   6.137   6.442  0.1903 -2.2436 -1.4241
 5032SOL    HW217104   8.791   6.107   6.296 -0.4644  1.9464 -2.2952
 5033SOL     OW17105   6.616   4.935   1.430 -0.1474 -0.1489  0.3333
 5033SOL    HW117106   6.707   4.957   1.409  0.2009 -1.0696  0.8246
 5033SOL    HW217107   6.571   5.019   1.429  0.2849  0.1100 -1.8540
 5034SOL     OW17108   7.463   2.719   6.571 -0.1416  0.0455 -0.5541
 5034SOL    HW117109   7.414   2.660   6.627 -0.5612  0.8407 -0.0652
 5034SOL    HW217110   7.463   2.677   6.485  0.7215 -1.3081  0.0795
 5035SOL     OW17111   1.916  10.691   9.136  1.0360  0.1915 -0.1245
 5035SOL    HW117112   1.873  10.755   9.079  0.8667 -0.0865 -0.3131
 5035SOL    HW217113   2.010  10.711   9.128  1.2363 -1.2328 -2.2664
 5036SOL     OW17114   6.560   4.449   0.897 -0.4400 -0.0159  0.4201
 5036SOL    HW117115   6.617   4.387   0.852 -0.7710 -0.8259  1.0849
 5036SOL    HW217116   6.498   4.394   0.944 -1.8374  0.8515 -0.3579
 5037SOL     OW17117   8.729   2.321   4.920 -0.1259 -0.1365  0.0967
 5037SOL    HW117118   8.727   2.345   5.013 -0.9671 -0.4723  0.1834
 5037SOL    HW217119   8.810   2.359   4.887  0.0797  0.1772  0.9196
 5038SOL     OW17120   2.172   0.411   2.425 -0.0824  0.0771 -0.3069
 5038SOL    HW117121   2.151   0.335   2.370  0.3284 -0.4279  0.2295
 5038SOL    HW217122   2.193   0.480   2.362 -3.1013  0.6061 -0.9357
 5039SOL     OW17123   1.972   5.062   7.221  0.7280  0.2734  0.4297
 5039SOL    HW117124   2.007   5.149   7.201 -0.1430  0.2729 -1.2473
 5039SOL    HW217125   2.047   5.015   7.258  1.7089  1.1717 -0.3256
 5040SOL     OW17126  10.309   4.226   6.125 -0.0038  0.4487 -0.1146
 5040SOL    HW117127  10.303   4.182   6.210  2.2439  0.2984  0.0294
 5040SOL    HW217128  10.309   4.319   6.146  0.2343  0.4155  0.0437
 5041SOL     OW17129   0.225   4.523   1.627  0.1004 -0.5950 -0.4038
 5041SOL    HW117130   0.308   4.520   1.674  0.3408 -1.2688 -0.8474
 5041SOL    HW217131   0.238   4.589   1.559 -0.3863  0.6763  0.6950
 5042SOL     OW17132   4.318   7.834  10.960 -0.1117  0.2056 -0.0968
 5042SOL    HW117133   4.298   7.746  10.928 -0.7886  0.1473  0.4609
 5042SOL    HW217134   4.273   7.840  11.044  2.2342  0.1004  1.2488
 5043SOL     OW17135   3.586   2.142   9.483 -0.4465 -0.0293 -0.3697
 5043SOL    HW117136   3.667   2.094   9.473 -0.1611  0.2781  0.3596
 5043SOL    HW217137   3.614   2.231   9.508 -1.0034  0.0285  0.0695
 5044SOL     OW17138   9.592   9.193   0.314 -0.5303  0.2031 -0.3766
 5044SOL    HW117139   9.650   9.237   0.376 -1.4591 -1.0642  1.4910
 5044SOL    HW217140   9.649   9.133   0.267 -0.2118 -0.7400  1.1484
 5045SOL     OW17141   7.778   4.832   0.486  0.1754  0.2653  0.1643
 5045SOL    HW117142   7.865   4.867   0.505  0.1183 -0.2137  1.4213
 5045SOL    HW217143   7.788   4.738   0.495 -0.6713  0.2546  1.3339
 5046SOL     OW17144   1.519   6.388  11.092  0.5771 -0.0331  0.0599
 5046SOL    HW117145   1.585   6.391  11.023  0.5393  1.6579  0.0520
 5046SOL    HW217146   1.567   6.409  11.173  0.0862  1.3501  0.0326
 5047SOL     OW17147   3.761  10.272   5.728 -0.2978  0.3368  0.3304
 5047SOL    HW117148   3.676  10.295   5.765 -0.3325  0.5625  0.1137
 5047SOL    HW217149   3.743  10.251   5.636 -0.4356 -1.6247  0.7634
 5048SOL     OW17150   0.202   5.679   2.143 -0.7431  0.4808 -0.4046
 5048SOL    HW117151   0.152   5.630   2.209 -0.2949  0.5105 -0.0327
 5048SOL    HW217152   0.260   5.735   2.195 -1.6570  1.8471 -0.8252
 5049SOL     OW17153   0.784   8.288   8.148 -0.5152 -0.0047 -0.4014
 5049SOL    HW117154   0.858   8.333   8.107 -1.4787  1.0353 -1.0285
 5049SOL    HW217155   0.780   8.203   8.103  0.7221 -0.3660  0.1337
 5050SOL     OW17156   4.480   6.415   1.870  0.8300  0.4679  0.3454
 5050SOL    HW117157   4.428   6.354   1.818 -1.5849  1.4390  1.4536
 5050SOL    HW217158   4.528   6.467   1.807  0.9256 -0.8556 -0.7136
 5051SOL     OW17159   3.084   9.232   8.586  0.4223  0.3209  0.1484
 5051SOL    HW117160   3.046   9.182   8.513  1.4822 -0.3680  0.0497
 5051SOL    HW217161   3.081   9.323   8.557 -1.2985  0.3194  0.2229
 5052SOL     OW17162   7.510   9.232   1.311 -0.3075  0.9403  0.3119
 5052SOL    HW117163   7.459   9.268   1.384 -0.7290  2.3460 -0.6601
 5052SOL    HW217164   7.468   9.266   1.232  0.3163 -0.3350 -0.6059
 5053SOL     OW17165   0.997   5.470   6.868  0.4369  0.2209  0.3327
 5053SOL    HW117166   1.016   5.552   6.822 -0.5516  1.3846  1.8816
 5053SOL    HW217167   1.069   5.460   6.931 -0.5517  1.1320  1.6691
 5054SOL     OW17168   5.166   7.202   9.190 -0.4143  0.0437  0.5306
 5054SOL    HW117169   5.182   7.282   9.141 -1.2256  0.6012  1.1454
 5054SOL    HW217170   5.237   7.143   9.165  0.0637  0.8779 -0.0948
 5055SOL     OW17171   7.382   9.380   7.367  0.2037 -0.2815 -0.0658
 5055SOL    HW117172   7.342   9.454   7.412  0.0633  0.1602 -0.8939
 5055SOL    HW217173   7.312   9.346   7.311  0.2461 -1.0865  0.3584
 5056SOL     OW17174   3.119   5.951   2.134  0.1798 -0.4655 -0.2011
 5056SOL    HW117175   3.063   5.952   2.211 -0.8730 -0.3777 -0.9478
 5056SOL    HW217176   3.205   5.926   2.167  0.2419  1.5245  1.3094
 5057SOL     OW17177  10.922   8.513   2.325 -0.3305  0.0067  0.1159
 5057SOL    HW117178  10.940   8.536   2.416 -0.0894 -2.0127  0.6351
 5057SOL    HW217179  10.939   8.594   2.276  1.7232  0.5654  1.6031
 5058SOL     OW17180   9.079   4.241   7.672  0.4176  0.4911 -0.9662
 5058SOL    HW117181   9.070   4.260   7.578 -0.6343  1.1067 -0.7473
 5058SOL    HW217182   8.991   4.217   7.700  0.9087 -0.6359 -0.3247
 5059SOL     OW17183  10.444   7.184   0.669  0.6323  0.0019 -0.0448
 5059SOL    HW117184  10.449   7.103   0.618  0.6593 -1.0090  1.4894
 5059SOL    HW217185  10.399   7.159   0.750  1.0482  1.4209  0.6691
 5060SOL     OW17186   3.714   8.974   1.988 -0.0207 -0.1834 -0.0958
 5060SOL    HW117187   3.719   8.977   2.084  0.8674 -1.5054 -0.0826
 5060SOL    HW217188   3.680   8.886   1.969  0.1152 -0.0431 -1.0039
 5061SOL     OW17189   3.974   0.240   8.786  0.0893 -0.4556  0.2485
 5061SOL    HW117190   3.911   0.296   8.831  0.5039  0.0269  0.2359
 5061SOL    HW217191   3.948   0.243   8.694  1.0297  0.9842 -0.0029
 5062SOL     OW17192   0.666   4.532   3.456 -0.4496 -0.2776  0.0081
 5062SOL    HW117193   0.654   4.508   3.548  0.2109 -2.5861 -0.4532
 5062SOL    HW217194   0.577   4.530   3.420 -0.4394 -2.3525 -0.0290
 5063SOL     OW17195   0.532  10.931   1.128 -0.0552 -0.6165 -0.3216
 5063SOL    HW117196   0.560  11.020   1.147 -2.7736  0.2124  0.1731
 5063SOL    HW217197   0.437  10.934   1.134 -0.2556 -3.4357 -0.8816
 5064SOL     OW17198  10.648   8.213   0.162  0.5218 -0.0110 -0.0428
 5064SOL    HW117199  10.735   8.188   0.194  0.3189  0.0567  0.5799
 5064SOL    HW217200  10.657   8.305   0.139 -0.1406  0.9329  2.9659
 5065SOL     OW17201   0.894   7.147   8.384  0.4315 -0.5336 -0.3383
 5065SOL    HW117202   0.970   7.091   8.403  0.6149 -0.3451 -0.5037
 5065SOL    HW217203   0.924   7.203   8.312  0.8717  0.9915  0.9767
 5066SOL     OW17204   2.484   4.679  10.908 -0.0090 -0.5458 -0.0582
 5066SOL    HW117205   2.452   4.745  10.847 -1.1848 -1.1106 -0.0947
 5066SOL    HW217206   2.490   4.724  10.992  0.1766 -0.1389 -0.2912
 5067SOL     OW17207   7.152   3.220   6.540 -0.1120 -0.3225 -0.2307
 5067SOL    HW117208   7.213   3.155   6.575  2.7014  1.8664 -0.7160
 5067SOL    HW217209   7.171   3.222   6.446 -0.5188  0.8062 -0.2949
 5068SOL     OW17210   8.804   2.905   2.049  0.1934 -0.1467  0.3617
 5068SOL    HW117211   8.739   2.868   1.990  0.5785 -0.9209  0.4246
 5068SOL    HW217212   8.776   2.877   2.136  0.0047  0.4322  0.4943
 5069SOL     OW17213   7.000   9.809   6.807  0.5723 -1.1651 -0.3603
 5069SOL    HW117214   6.982   9.820   6.714  0.2547 -1.7653 -0.3772
 5069SOL    HW217215   7.000   9.714   6.821 -0.4732 -1.0645  0.4534
 5070SOL     OW17216   2.046   5.208  10.824  0.2589 -0.8409  0.0389
 5070SOL    HW117217   2.061   5.234  10.915 -2.5913 -1.8762  0.9275
 5070SOL    HW217218   2.001   5.283  10.785  0.0253 -1.0268 -0.0452
 5071SOL     OW17219   9.407   4.146   6.397 -0.2135 -0.0843 -0.6928
 5071SOL    HW117220   9.377   4.055   6.398 -1.8530  0.4241 -0.1629
 5071SOL    HW217221   9.466   4.152   6.472 -1.3040 -0.3596  0.2237
 5072SOL     OW17222  10.821   8.760   2.821  0.2278 -0.1281  0.7064
 5072SOL    HW117223  10.728   8.750   2.840 -0.0086  0.8045  0.0728
 5072SOL    HW217224  10.865   8.727   2.900 -0.6317 -0.4759  1.0513
 5073SOL     OW17225  10.210   7.251   8.756 -0.5647 -0.0155  0.3355
 5073SOL    HW117226  10.290   7.291   8.790 -0.3044  0.0206 -0.3126
 5073SOL    HW217227  10.216   7.260   8.661 -1.6018  0.4926  0.2993
 5074SOL     OW17228   9.930  10.907  10.800 -0.0650  0.0762 -0.0583
 5074SOL    HW117229   9.973  10.909  10.714  1.0630  1.5985  0.4884
 5074SOL    HW217230   9.997  10.872  10.859  0.2507  1.8143  0.6831
 5075SOL     OW17231  10.060   5.186   0.632 -0.4008 -0.2040 -0.1690
 5075SOL    HW117232   9.987   5.232   0.674 -1.7168 -0.9348 -1.5430
 5075SOL    HW217233  10.117   5.255   0.600 -0.4905  0.3849  0.8738
 5076SOL     OW17234   1.290   1.503  10.067 -0.0963  0.5856  0.5445
 5076SOL    HW117235   1.302   1.545   9.982  2.2390  1.6321  1.2861
 5076SOL    HW217236   1.313   1.411  10.052  0.9508  0.8956  0.1388
 5077SOL     OW17237   9.974  10.536   5.449  0.2917  0.4573  0.5895
 5077SOL    HW117238   9.961  10.443   5.433  3.0245  0.3700 -2.1494
 5077SOL    HW217239   9.893  10.577   5.419  0.2601 -0.8751 -1.3426
 5078SOL     OW17240   0.616   6.970   2.477 -0.0966  0.0715  0.2944
 5078SOL    HW117241   0.692   7.021   2.449 -0.1544  0.2092  0.3847
 5078SOL    HW217242   0.620   6.972   2.573 -1.1851  1.5704  0.3400
 5079SOL     OW17243   3.552   5.581   1.909  0.0522  0.5108  0.1078
 5079SOL    HW117244   3.471   5.541   1.940  0.0828 -0.2855 -0.8071
 5079SOL    HW217245   3.525   5.633   1.833  0.2472  1.0766  0.4193
 5080SOL     OW17246   3.202   3.673   1.531  0.3085  0.5969  0.3144
 5080SOL    HW117247   3.118   3.708   1.559 -0.1507  0.3253 -0.7068
 5080SOL    HW217248   3.181   3.605   1.467  1.2853  0.2832  0.3024
 5081SOL     OW17249   2.766   4.437   3.848  0.2457 -0.4647  0.1454
 5081SOL    HW117250   2.817   4.356   3.846  0.6545 -0.3972  3.1654
 5081SOL    HW217251   2.816   4.499   3.797 -0.4835 -2.2400 -2.9710
 5082SOL     OW17252   3.458  10.958   9.778  0.1621  0.6491  0.3901
 5082SOL    HW117253   3.422  10.893   9.839  0.6051  0.6671  0.6755
 5082SOL    HW217254   3.382  11.010   9.751  0.1677  1.6503  2.1458
 5083SOL     OW17255  10.781   8.325   7.456  0.7481  0.0756  0.4744
 5083SOL    HW117256  10.836   8.268   7.510 -0.0216 -1.2771 -0.1300
 5083SOL    HW217257  10.717   8.361   7.518 -0.1127 -1.4464  0.5277
 5084SOL     OW17258   0.275  10.853   2.371 -0.8315  0.8568 -0.0321
 5084SOL    HW117259   0.246  10.807   2.450 -0.5798  1.2312  0.2824
 5084SOL    HW217260   0.268  10.787   2.301  0.4556  0.0191  0.5840
 5085SOL     OW17261   6.834  10.289   3.625 -0.1245 -0.3600  0.1179
 5085SOL    HW117262   6.783  10.269   3.703  0.2371 -2.1500 -0.0501
 5085SOL    HW217263   6.793  10.367   3.588 -1.2662 -0.3977  1.2396
 5086SOL     OW17264   5.380   1.677   2.081 -0.4403  0.2298  0.0693
 5086SOL    HW117265   5.330   1.759   2.078 -1.4718 -0.3621  0.4997
 5086SOL    HW217266   5.335   1.620   2.018  1.0871  0.4136 -1.2429
 5087SOL     OW17267   4.149   8.832   3.050 -0.0023  0.2304 -0.2744
 5087SOL    HW117268   4.069   8.817   2.999  0.4026  1.7349 -1.3940
 5087SOL    HW217269   4.214   8.774   3.010  0.1203  0.8740 -1.0331
 5088SOL     OW17270   8.962   7.350   8.019 -0.2331 -0.0117 -0.6007
 5088SOL    HW117271   8.900   7.304   7.962 -0.8734 -0.3206  0.3007
 5088SOL    HW217272   9.032   7.286   8.034 -1.2880 -0.9070  0.9265
 5089SOL     OW17273   8.145  10.939   2.123  0.1435  0.2853  0.2072
 5089SOL    HW117274   8.078  10.913   2.187  0.6062 -0.4085  0.4251
 5089SOL    HW217275   8.101  10.931   2.038  0.1677 -0.9409  0.2893
 5090SOL     OW17276   7.989   7.448   1.232  0.4363  0.6214  0.6273
 5090SOL    HW117277   8.072   7.478   1.195  0.6618  0.7727  1.2400
 5090SOL    HW217278   7.922   7.483   1.174  0.7622  1.2911  0.6508
 5091SOL     OW17279   4.119   8.045   0.389  0.4496  0.0700  0.5249
 5091SOL    HW117280   4.073   8.059   0.306  0.4739 -0.0883  0.4841
 5091SOL    HW217281   4.136   8.133   0.423 -2.5093  0.2098  2.0069
 5092SOL     OW17282   3.576   7.932  10.555 -0.2264  0.0852 -0.2166
 5092SOL    HW117283   3.668   7.950  10.535  0.0723 -2.3028 -1.3470
 5092SOL    HW217284   3.535   8.018  10.556  1.6180  1.0677 -1.7485
 5093SOL     OW17285   9.475   2.282   8.499  0.0158  0.0012  0.5913
 5093SOL    HW117286   9.487   2.196   8.457  0.6581  0.2780  0.1771
 5093SOL    HW217287   9.412   2.327   8.443  1.2019  0.5315 -0.3614
 5094SOL     OW17288   5.722   1.646   0.585  0.1784  0.5291 -0.1590
 5094SOL    HW117289   5.803   1.597   0.571 -0.3148  0.0790 -1.6276
 5094SOL    HW217290   5.668   1.588   0.638  0.7698  0.7981  0.7578
 5095SOL     OW17291   8.283   7.909   8.968 -0.1515 -0.4119  0.1956
 5095SOL    HW117292   8.314   7.955   8.890 -1.6167  0.1882 -0.0693
 5095SOL    HW217293   8.190   7.932   8.974  0.0557  0.0579  2.4770
 5096SOL     OW17294   4.220   1.447   7.129  0.2019  0.8275 -0.5668
 5096SOL    HW117295   4.224   1.448   7.225  0.6580 -0.0909 -0.5632
 5096SOL    HW217296   4.312   1.439   7.102 -0.0555 -1.1157 -1.0146
 5097SOL     OW17297  10.864   4.853   5.757 -0.4007  0.8304  0.2331
 5097SOL    HW117298  10.888   4.893   5.840  0.3477 -0.4650  0.6678
 5097SOL    HW217299  10.904   4.908   5.691  0.7322  0.7370  0.8225
 5098SOL     OW17300   1.389   8.612   3.660 -0.1014 -0.2351 -0.3729
 5098SOL    HW117301   1.473   8.567   3.674 -1.4292 -2.8385 -0.1276
 5098SOL    HW217302   1.346   8.560   3.592 -0.5394  2.5796 -2.4066
 5099SOL     OW17303   3.275   3.962   8.838 -0.3843  0.1315 -0.1968
 5099SOL    HW117304   3.253   3.907   8.913  1.0331  0.6152  0.6126
 5099SOL    HW217305   3.225   3.924   8.765 -2.0297 -0.1443  1.0354
 5100SOL     OW17306   9.019   1.140   9.479 -0.0130 -0.4110 -0.3639
 5100SOL    HW117307   8.963   1.218   9.470  0.5311  0.2968  1.8207
 5100SOL    HW217308   9.026   1.106   9.390 -2.1281  0.7248 -1.0447
 5101SOL     OW17309   8.472   5.617  10.288  0.0491 -0.2379  0.1970
 5101SOL    HW117310   8.441   5.577  10.206  0.3175  1.4121 -0.7524
 5101SOL    HW217311   8.553   5.662  10.264 -0.6654  1.5676  0.9921
 5102SOL     OW17312   3.295   2.080   9.149  0.3006  0.3339 -0.1622
 5102SOL    HW117313   3.388   2.077   9.124  0.3813 -1.9253  0.2171
 5102SOL    HW217314   3.280   1.997   9.194 -2.4790 -0.4266 -2.2509
 5103SOL     OW17315   4.440   8.346   4.402 -0.5414 -0.4143  0.2874
 5103SOL    HW117316   4.449   8.424   4.346  1.4418 -1.3559 -0.8237
 5103SOL    HW217317   4.351   8.316   4.385 -0.0692 -0.6171 -2.4341
 5104SOL     OW17318   8.259   6.682   4.512  0.1651  0.0236 -0.6923
 5104SOL    HW117319   8.318   6.705   4.440 -0.0124  1.1631 -0.4982
 5104SOL    HW217320   8.173   6.671   4.470  0.1176  0.4068 -0.7038
 5105SOL     OW17321   3.480   4.456   7.283 -0.1601 -0.2879 -0.3990
 5105SOL    HW117322   3.447   4.524   7.342  1.5545  0.8341 -0.6707
 5105SOL    HW217323   3.402   4.410   7.254 -1.2413  0.5571  1.0060
 5106SOL     OW17324   1.790   0.930   7.055 -0.4040  0.5108  0.2576
 5106SOL    HW117325   1.786   0.864   6.987 -1.5853 -0.5662  1.3086
 5106SOL    HW217326   1.704   0.973   7.052 -0.4429  0.5038  0.9941
 5107SOL     OW17327   1.779  11.003   7.112  0.1833  0.0082 -0.0640
 5107SOL    HW117328   1.860  11.036   7.151 -0.5296  1.8179 -0.0092
 5107SOL    HW217329   1.727  11.081   7.095 -1.3030 -1.0624 -0.6874
 5108SOL     OW17330   6.033   5.296   1.201  0.0434 -0.1036 -0.2487
 5108SOL    HW117331   5.999   5.369   1.253  0.7736  0.0146  0.0760
 5108SOL    HW217332   6.053   5.228   1.266  1.5412  0.2660 -0.2726
 5109SOL     OW17333   2.217   7.485   1.656 -0.2198  0.1990  0.2048
 5109SOL    HW117334   2.159   7.414   1.629  0.0034 -0.1997  0.7595
 5109SOL    HW217335   2.175   7.521   1.735 -0.1629  0.4728  0.1108
 5110SOL     OW17336   5.757   8.566   1.806  0.3542  0.1344 -0.2018
 5110SOL    HW117337   5.688   8.632   1.814 -0.0775 -0.3003 -0.3128
 5110SOL    HW217338   5.729   8.510   1.734 -0.4405 -1.5151  1.2865
 5111SOL     OW17339   6.660   4.647  11.032 -0.3491 -0.2458  0.1789
 5111SOL    HW117340   6.648   4.626  10.940 -3.9913 -0.7867  0.5983
 5111SOL    HW217341   6.668   4.742  11.034  0.6721 -0.2983 -0.7217
 5112SOL     OW17342   2.598   0.015  10.566  0.8489 -0.1452  0.3878
 5112SOL    HW117343   2.662   0.002  10.635  1.1136 -0.5093  0.0804
 5112SOL    HW217344   2.544   0.088  10.596  1.4929  0.2591  0.5823
 5113SOL     OW17345   3.456   9.106   2.195  0.2026  0.6947  0.3022
 5113SOL    HW117346   3.442   9.168   2.265 -2.4220 -0.4091  0.8722
 5113SOL    HW217347   3.529   9.051   2.225  1.6583  2.5801  0.3644
 5114SOL     OW17348  10.452   5.825   4.110  0.2614  0.0109 -0.2860
 5114SOL    HW117349  10.474   5.915   4.135  0.5885  0.1929 -1.1911
 5114SOL    HW217350  10.427   5.783   4.192  2.1194  0.3350  0.5001
 5115SOL     OW17351   8.907   5.000   1.984 -0.0004  0.0332  0.4622
 5115SOL    HW117352   8.883   4.910   1.960  0.1915 -0.3524  1.6797
 5115SOL    HW217353   8.864   5.016   2.068 -2.1985  2.0316 -0.9057
 5116SOL     OW17354   7.330   2.009   7.285  0.9755  0.2473 -0.1800
 5116SOL    HW117355   7.280   1.942   7.238  2.2024 -0.3247 -0.7173
 5116SOL    HW217356   7.319   1.986   7.378  1.7964 -1.0339 -0.3717
 5117SOL     OW17357   9.194   1.912   6.467  0.6447 -0.3716 -0.0405
 5117SOL    HW117358   9.135   1.984   6.489  2.1089  0.8502 -0.0317
 5117SOL    HW217359   9.135   1.840   6.442 -0.8466  1.6448 -2.8022
 5118SOL     OW17360   8.024   7.122   5.896 -0.0920 -0.3013 -0.3505
 5118SOL    HW117361   8.087   7.175   5.847  0.2088  0.4790  0.8520
 5118SOL    HW217362   7.970   7.081   5.828 -1.0227  2.3462 -1.3402
 5119SOL     OW17363   2.039  11.043   5.421  0.0152 -0.8315  0.0153
 5119SOL    HW117364   1.967  11.044   5.358 -0.9666 -0.1503  1.1093
 5119SOL    HW217365   2.000  11.076   5.503  0.9493 -2.7778  1.3105
 5120SOL     OW17366   9.994   3.056   3.792  0.6269 -0.2495 -0.2976
 5120SOL    HW117367  10.047   3.026   3.718  1.0210  1.0273 -0.5587
 5120SOL    HW217368  10.054   3.110   3.844 -0.2976  0.8766 -0.3744
 5121SOL     OW17369   2.545   8.768   4.708 -0.0271 -0.5547 -0.4209
 5121SOL    HW117370   2.477   8.834   4.696  1.0445  0.9292  1.1573
 5121SOL    HW217371   2.534   8.737   4.798  0.4253 -1.4489 -0.6562
 5122SOL     OW17372   1.919  10.436   9.226  0.1106  0.4108  0.6125
 5122SOL    HW117373   1.908  10.508   9.164 -1.2910  1.0087  1.5089
 5122SOL    HW217374   1.995  10.462   9.279 -0.2553  1.1352  0.7946
 5123SOL     OW17375   4.158   7.984   0.702 -0.2916  0.0889 -0.4482
 5123SOL    HW117376   4.084   7.953   0.651 -0.5867  0.4911 -0.2677
 5123SOL    HW217377   4.204   8.044   0.643 -1.0451  1.1314 -0.0159
 5124SOL     OW17378   8.142   6.432   3.121  0.0329 -0.0778  0.3198
 5124SOL    HW117379   8.224   6.401   3.083  0.2332 -1.5657  1.8418
 5124SOL    HW217380   8.165   6.515   3.164  0.6997 -0.3463  0.4993
 5125SOL     OW17381   9.673  10.694   3.518  0.4544  0.0036  0.1759
 5125SOL    HW117382   9.708  10.758   3.457  0.1355  0.8287  0.8417
 5125SOL    HW217383   9.581  10.684   3.492  0.6194 -0.5432 -0.2182
 5126SOL     OW17384   6.104  10.388   7.323 -0.4132  0.5216  0.0821
 5126SOL    HW117385   6.095  10.390   7.418 -1.4561 -0.4091  0.0157
 5126SOL    HW217386   6.025  10.431   7.290 -0.8768 -0.6406 -0.3779
 5127SOL     OW17387   3.815  10.769   6.652  0.7990 -0.4214 -0.7592
 5127SOL    HW117388   3.800  10.676   6.640 -0.3410 -0.3396 -0.1221
 5127SOL    HW217389   3.756  10.794   6.724  3.9332 -0.0248  1.9297
 5128SOL     OW17390   3.958  10.699   9.777  0.1362 -0.1580  0.3265
 5128SOL    HW117391   3.875  10.675   9.736 -0.5381  0.0791  1.5050
 5128SOL    HW217392   3.982  10.621   9.828 -0.0698  0.2441  1.0580
 5129SOL     OW17393   9.994   5.705   4.179  0.5923 -0.0733  0.2069
 5129SOL    HW117394   9.957   5.666   4.258 -0.0237  0.0883  0.0003
 5129SOL    HW217395  10.060   5.767   4.211  0.9078 -0.5861  0.5644
 5130SOL     OW17396   9.843  10.590   4.470 -0.4083 -0.1647  0.4042
 5130SOL    HW117397   9.842  10.667   4.527 -3.4381  0.2355  0.0260
 5130SOL    HW217398   9.873  10.623   4.385  0.8623 -0.0122  0.9062
 5131SOL     OW17399   4.331   3.342   7.999 -0.5249 -0.2183 -0.1873
 5131SOL    HW117400   4.312   3.424   8.044  0.9122 -0.2065  0.4405
 5131SOL    HW217401   4.369   3.368   7.915  0.5150 -0.2227  0.2709
 5132SOL     OW17402   3.155   7.499   7.358  0.0974 -0.2454  0.4485
 5132SOL    HW117403   3.217   7.426   7.362  1.5397  0.9451  0.8747
 5132SOL    HW217404   3.070   7.458   7.345  0.9262 -1.9670  0.2114
 5133SOL     OW17405   2.442   4.236   5.142  0.2543 -0.0635 -0.0785
 5133SOL    HW117406   2.398   4.158   5.176 -0.4291  0.9028  1.3828
 5133SOL    HW217407   2.418   4.239   5.050 -1.1373 -0.6695  0.2316
 5134SOL     OW17408   6.578   9.530   7.150  0.2735 -0.0393  0.2043
 5134SOL    HW117409   6.572   9.498   7.060  0.0013 -1.2794  0.6371
 5134SOL    HW217410   6.488   9.557   7.171  0.6313  1.6582 -0.3732
 5135SOL     OW17411   3.859   5.554   8.070 -0.8809 -0.2805 -0.8929
 5135SOL    HW117412   3.884   5.541   8.162 -2.0816 -1.3071 -0.6923
 5135SOL    HW217413   3.936   5.595   8.031 -0.3903  0.3032  0.5949
 5136SOL     OW17414   0.727   6.962   5.706  0.2175 -0.0321  0.0900
 5136SOL    HW117415   0.772   6.881   5.684 -0.1034 -0.1534 -0.1376
 5136SOL    HW217416   0.781   7.031   5.668 -0.2056 -0.2255 -0.8916
 5137SOL     OW17417   2.500   3.805   6.534 -0.4015  0.2040 -0.1050
 5137SOL    HW117418   2.412   3.768   6.547 -0.0229 -1.0587 -0.9138
 5137SOL    HW217419   2.508   3.873   6.601 -1.5974 -0.3839  0.6692
 5138SOL     OW17420   8.596  10.301   8.465 -0.1241  0.2613  0.6194
 5138SOL    HW117421   8.567  10.299   8.556  1.2884 -0.6810  1.0721
 5138SOL    HW217422   8.670  10.242   8.462 -0.8659 -0.6543 -1.4154
 5139SOL     OW17423   3.934   6.896   9.706 -0.0088  0.1994 -0.3103
 5139SOL    HW117424   3.880   6.967   9.671 -2.0647 -1.4380 -0.7001
 5139SOL    HW217425   3.940   6.832   9.634 -1.2219 -1.5660  1.0570
 5140SOL     OW17426   6.674   5.315   1.319 -0.1862 -0.0014  0.2285
 5140SOL    HW117427   6.627   5.293   1.399 -0.1317 -1.2511 -0.0512
 5140SOL    HW217428   6.631   5.394   1.286 -0.3395  0.4070  1.3666
 5141SOL     OW17429   2.867   3.262   8.382  0.0683  0.7306 -0.1628
 5141SOL    HW117430   2.912   3.190   8.426  0.9323  0.8362 -0.8469
 5141SOL    HW217431   2.787   3.274   8.432 -0.3969 -1.1049 -0.3812
 5142SOL     OW17432  11.095   8.701   9.546  0.3017  0.1209  0.3940
 5142SOL    HW117433  11.108   8.748   9.463  0.4398 -1.6326 -0.6245
 5142SOL    HW217434  11.183   8.687   9.580  0.1999  3.4435  2.4712
 5143SOL     OW17435   3.604   2.988   4.461  0.2602  0.1367 -0.0313
 5143SOL    HW117436   3.621   3.052   4.393  0.0601 -0.4395 -0.6284
 5143SOL    HW217437   3.548   3.034   4.524  2.3503  1.4454  0.9912
 5144SOL     OW17438   2.379   5.967   4.232  0.1698  0.3114 -0.4759
 5144SOL    HW117439   2.395   5.929   4.146 -0.7747  1.8450 -1.3796
 5144SOL    HW217440   2.433   6.046   4.233 -0.2718  0.6068  0.1077
 5145SOL     OW17441   3.912  10.275   3.666  0.4678  0.6620 -0.2621
 5145SOL    HW117442   3.824  10.247   3.693  0.9248 -1.2104 -0.5578
 5145SOL    HW217443   3.971  10.224   3.722  1.3827 -1.0921 -2.6431
 5146SOL     OW17444   0.510   5.099   7.706  0.6879  0.1351  0.2116
 5146SOL    HW117445   0.509   5.005   7.684 -0.3064  0.1182  0.3055
 5146SOL    HW217446   0.600   5.115   7.735  1.4078 -0.3709 -1.5909
 5147SOL     OW17447   1.414   0.628   2.566 -0.2362  0.0914 -0.2015
 5147SOL    HW117448   1.369   0.713   2.565 -0.3911  0.0050 -0.7558
 5147SOL    HW217449   1.357   0.571   2.514 -0.6089 -0.5978  0.9327
 5148SOL     OW17450   0.474   9.678   5.607 -0.1877  0.0946  0.1125
 5148SOL    HW117451   0.552   9.644   5.563 -0.2131 -2.9684  2.0765
 5148SOL    HW217452   0.508   9.738   5.673  0.5079 -0.8441  0.6316
 5149SOL     OW17453   4.869   9.553   9.190  0.1121 -0.6035 -0.0219
 5149SOL    HW117454   4.896   9.589   9.274  0.8315 -0.2764 -0.3827
 5149SOL    HW217455   4.950   9.550   9.138 -0.5504  0.5391 -1.1893
 5150SOL     OW17456   2.462   7.461   1.843  0.3173 -0.0622  0.1633
 5150SOL    HW117457   2.415   7.469   1.760 -0.8281  1.9558  0.9385
 5150SOL    HW217458   2.395   7.434   1.906  0.8475 -0.1183  0.7104
 5151SOL     OW17459   2.210  10.624   2.856  0.4100 -0.3121  0.1842
 5151SOL    HW117460   2.185  10.630   2.949 -0.0213 -0.8873  0.1112
 5151SOL    HW217461   2.179  10.705   2.817 -2.1812 -1.3312 -0.0852
 5152SOL     OW17462   7.786   0.953   8.066  0.0892  0.1497  0.0526
 5152SOL    HW117463   7.761   0.860   8.062  0.8515 -0.0936  0.6811
 5152SOL    HW217464   7.709   0.997   8.101  0.8748 -0.7605  3.2485
 5153SOL     OW17465  10.826  10.833   3.049  0.4656 -0.3462  0.4256
 5153SOL    HW117466  10.911  10.791   3.031  0.0915 -0.9609  0.0677
 5153SOL    HW217467  10.848  10.924   3.067  1.3684 -0.7959  1.8117
 5154SOL     OW17468  10.425   8.120   0.024 -0.3132 -0.1378 -0.1717
 5154SOL    HW117469  10.497   8.147   0.082 -2.0368  0.0870  2.0002
 5154SOL    HW217470  10.458   8.041  -0.019  0.8850 -0.6719  1.5767
 5155SOL     OW17471   1.486   5.851   9.095 -0.2326 -0.4163  0.1103
 5155SOL    HW117472   1.422   5.817   9.033  1.0168  1.7578 -2.5380
 5155SOL    HW217473   1.468   5.945   9.100  1.6459 -0.0384  0.6059
 5156SOL     OW17474   4.125  10.872   3.145  0.3458  0.2680 -0.5051
 5156SOL    HW117475   4.054  10.810   3.160  1.9589 -1.3580  0.8458
 5156SOL    HW217476   4.179  10.866   3.224  1.8397  1.6517 -1.3636
 5157SOL     OW17477   1.140   0.080  10.245  0.0749 -0.3636  0.2035
 5157SOL    HW117478   1.057   0.075  10.198  0.8336 -0.7814 -1.1556
 5157SOL    HW217479   1.164  -0.011  10.260  0.2885 -0.2441  0.5983
 5158SOL     OW17480   3.804   2.385   1.054  0.9273  0.1349 -0.4932
 5158SOL    HW117481   3.792   2.478   1.031  1.1312 -0.0856 -1.5593
 5158SOL    HW217482   3.860   2.351   0.984  0.3183 -0.9413 -0.4695
 5159SOL     OW17483   7.607   5.911  10.342 -0.4270 -0.4107 -0.0461
 5159SOL    HW117484   7.559   5.892  10.261 -1.9569  1.0530  0.4608
 5159SOL    HW217485   7.632   5.826  10.377 -0.6147 -1.1051 -1.5322
 5160SOL     OW17486   0.940  10.874   4.644  0.3633 -0.2003  0.0449
 5160SOL    HW117487   0.999  10.937   4.603 -0.5027  0.8134  0.3085
 5160SOL    HW217488   0.907  10.821   4.572  1.5582 -0.7779 -0.1089
 5161SOL     OW17489   5.159   6.553  10.810  0.2017  0.0591  0.7791
 5161SOL    HW117490   5.160   6.581  10.902 -1.0142 -0.5611  1.0029
 5161SOL    HW217491   5.250   6.560  10.782  0.6250  0.0933  2.0826
 5162SOL     OW17492   4.535   9.305   1.774 -0.2947  0.4205  0.0931
 5162SOL    HW117493   4.460   9.365   1.776 -0.8870 -0.2583 -1.0709
 5162SOL    HW217494   4.503   9.227   1.729  0.6627 -0.5224  0.9756
 5163SOL     OW17495   0.933   6.031   0.449  0.4778  0.4042 -0.3731
 5163SOL    HW117496   0.921   6.046   0.543  1.6832 -0.2329 -0.1003
 5163SOL    HW217497   1.018   6.071   0.429 -0.4655  1.9185 -1.5332
 5164SOL     OW17498   8.384   4.481  10.882 -0.0463 -0.0126  0.3312
 5164SOL    HW117499   8.438   4.482  10.961 -0.6292  3.1294  0.8561
 5164SOL    HW217500   8.405   4.563  10.838 -0.9499 -0.9284 -1.9459
 5165SOL     OW17501   7.004   8.620   7.739 -0.1798 -0.0810 -0.6698
 5165SOL    HW117502   7.025   8.709   7.710 -0.2842 -0.5002 -2.1215
 5165SOL    HW217503   6.930   8.593   7.684 -1.6228 -0.2830  1.2639
 5166SOL     OW17504  10.754  10.470   0.458 -0.0935 -0.3056 -0.3508
 5166SOL    HW117505  10.831  10.475   0.514 -1.4639  1.0648  1.5336
 5166SOL    HW217506  10.705  10.550   0.476 -2.2597 -1.3873 -1.0169
 5167SOL     OW17507   3.603   6.018  10.622 -0.4148 -0.1345 -0.4861
 5167SOL    HW117508   3.602   6.094  10.679 -2.3565  1.1897 -2.1399
 5167SOL    HW217509   3.672   6.037  10.558  1.2853 -1.3087  0.8726
 5168SOL     OW17510   3.084   7.329   1.450  0.7008  0.2205 -0.5004
 5168SOL    HW117511   3.090   7.279   1.369 -1.1550 -0.6495 -0.1426
 5168SOL    HW217512   3.145   7.284   1.510  0.9735 -0.0279 -0.9564
 5169SOL     OW17513   9.013   9.583   1.686  0.7620  0.4114 -0.9962
 5169SOL    HW117514   8.948   9.513   1.677  0.6913  0.5736 -1.7902
 5169SOL    HW217515   8.993   9.622   1.771  1.2089 -0.9284 -0.2501
 5170SOL     OW17516  11.091   1.572   4.527 -0.3862  0.0441  0.0347
 5170SOL    HW117517  11.137   1.562   4.443 -0.9120 -0.3773 -0.2142
 5170SOL    HW217518  11.111   1.661   4.555  0.2289  0.0081 -0.2790
 5171SOL     OW17519   6.886   0.090   0.899  0.4931 -0.4783  0.2155
 5171SOL    HW117520   6.857   0.137   0.978  1.8876  0.3107  0.2826
 5171SOL    HW217521   6.865  -0.002   0.917 -1.3988 -0.0343  0.4880
 5172SOL     OW17522   9.566   0.344   1.151 -0.6372  0.4265 -0.2580
 5172SOL    HW117523   9.522   0.278   1.098  0.7434  1.2991 -2.6251
 5172SOL    HW217524   9.556   0.425   1.101  2.1848  0.9691 -0.0929
 5173SOL     OW17525   0.350  10.897   7.832 -0.1582  0.3224 -0.2299
 5173SOL    HW117526   0.317  10.925   7.746  1.6359 -0.5086 -1.2463
 5173SOL    HW217527   0.409  10.968   7.859 -2.3087  1.6027  1.3774
 5174SOL     OW17528  10.777   2.570   5.726  0.3853  0.0903  0.4015
 5174SOL    HW117529  10.818   2.621   5.656  0.5379 -1.1731 -0.4543
 5174SOL    HW217530  10.696   2.537   5.687  0.6740 -0.9670  0.6724
 5175SOL     OW17531   9.986   4.171   7.800 -0.4129  0.4982 -0.5728
 5175SOL    HW117532   9.912   4.204   7.851  0.0224 -0.4861  0.7315
 5175SOL    HW217533  10.060   4.175   7.860 -0.1625 -1.9507 -0.6472
 5176SOL     OW17534   2.212   4.235   0.847  0.8787  0.5138 -0.6481
 5176SOL    HW117535   2.302   4.240   0.878  0.2887  2.4612  0.9864
 5176SOL    HW217536   2.189   4.326   0.826 -1.6010  0.6127  1.8773
 5177SOL     OW17537   1.974   5.371  11.070  0.0386  0.3060 -0.1497
 5177SOL    HW117538   1.998   5.457  11.107  1.4233  0.2731 -0.9272
 5177SOL    HW217539   2.057   5.325  11.060 -0.7722 -1.8571  1.8811
 5178SOL     OW17540   8.366   8.707   7.795  0.2382 -0.7418 -0.0039
 5178SOL    HW117541   8.377   8.649   7.719 -0.1528  1.2807 -1.6992
 5178SOL    HW217542   8.430   8.777   7.781  0.3084 -0.4282  1.6747
 5179SOL     OW17543   1.672   8.754   6.623 -0.9784 -0.0082 -0.1590
 5179SOL    HW117544   1.708   8.713   6.544  0.3437 -0.4195  0.6208
 5179SOL    HW217545   1.731   8.726   6.694 -1.0297  1.8470  0.6889
 5180SOL     OW17546   8.380   9.046   3.003 -0.6509 -0.0452  0.1405
 5180SOL    HW117547   8.452   9.084   2.953 -1.0185  2.6747  1.4797
 5180SOL    HW217548   8.423   8.985   3.064  0.5857  1.5006  0.8965
 5181SOL     OW17549   7.833   9.501  10.923 -0.2838 -0.1414  0.0623
 5181SOL    HW117550   7.829   9.593  10.897 -1.3591  0.0542  0.8641
 5181SOL    HW217551   7.830   9.503  11.018  0.3140 -0.9897  0.1093
 5182SOL     OW17552   9.284   6.088  10.293 -0.3090  0.1995 -0.0971
 5182SOL    HW117553   9.271   6.104  10.386  1.7541 -0.6369  0.3760
 5182SOL    HW217554   9.336   6.162  10.262 -2.3126  1.3049 -0.9921
 5183SOL     OW17555   1.110   0.548   7.146 -0.1553  0.4408  0.4271
 5183SOL    HW117556   1.026   0.570   7.186 -0.3096  2.6778 -0.9162
 5183SOL    HW217557   1.103   0.581   7.056  1.5053 -0.9932 -0.2966
 5184SOL     OW17558   2.102   3.431   6.082  0.2697 -0.0619  0.1062
 5184SOL    HW117559   2.165   3.487   6.036  0.8443 -1.6344 -1.1020
 5184SOL    HW217560   2.089   3.357   6.023  0.3848 -1.7585  2.1250
 5185SOL     OW17561   9.783   2.816   2.050  0.5724 -0.0559  0.3135
 5185SOL    HW117562   9.687   2.816   2.049  0.5370  2.1403 -0.1950
 5185SOL    HW217563   9.806   2.735   2.096 -1.5234 -0.0408  1.5251
 5186SOL     OW17564   2.208  10.563   4.030  0.4948  0.0727  0.7535
 5186SOL    HW117565   2.231  10.535   3.942  2.0292  0.8397  0.8636
 5186SOL    HW217566   2.210  10.483   4.082 -1.7202 -0.6048 -0.1024
 5187SOL     OW17567   1.052   2.214   7.067  0.0002 -0.1447 -0.0096
 5187SOL    HW117568   1.124   2.195   7.007 -0.2394 -0.5464 -0.1755
 5187SOL    HW217569   0.994   2.273   7.019 -0.9103 -1.5537 -0.7230
 5188SOL     OW17570   3.489   1.804   3.916 -0.3736 -0.2988 -0.0457
 5188SOL    HW117571   3.460   1.743   3.848  2.6128 -0.8662 -0.9310
 5188SOL    HW217572   3.527   1.878   3.868  0.4751 -0.0399  0.9826
 5189SOL     OW17573   4.672   7.792  11.067  0.5062  0.1708  0.2813
 5189SOL    HW117574   4.622   7.749  10.998  1.8084  1.0407 -1.2885
 5189SOL    HW217575   4.750   7.738  11.078 -0.0786 -0.4276  1.7249
 5190SOL     OW17576   6.506   6.883   6.816  0.5264  0.0647 -0.4837
 5190SOL    HW117577   6.576   6.934   6.857  1.0676 -0.0192 -1.3002
 5190SOL    HW217578   6.538   6.793   6.817  1.7275  0.3561 -3.4007
 5191SOL     OW17579   7.954   7.646   3.593 -0.1169 -0.0973  0.2653
 5191SOL    HW117580   7.953   7.717   3.657 -3.1909 -0.7065  1.0498
 5191SOL    HW217581   7.864   7.642   3.561  0.8888 -1.1015 -2.7074
 5192SOL     OW17582   4.225   0.792   8.214  0.4798 -0.5618  0.3749
 5192SOL    HW117583   4.301   0.781   8.156  0.0740  0.5119 -0.3973
 5192SOL    HW217584   4.261   0.788   8.302  1.9951  2.9113  0.0688
 5193SOL     OW17585   1.724   5.711   9.118 -0.2853  0.3406 -1.2417
 5193SOL    HW117586   1.653   5.772   9.134  0.6398  1.5509 -1.6437
 5193SOL    HW217587   1.681   5.630   9.090 -1.5482  0.5993 -0.1302
 5194SOL     OW17588   7.937   8.218   5.527 -0.1056 -0.2574  0.9674
 5194SOL    HW117589   7.905   8.128   5.519 -0.6701  0.0662 -0.9321
 5194SOL    HW217590   7.919   8.242   5.618 -0.4522 -1.8620  1.3539
 5195SOL     OW17591  10.723   9.878   0.871 -0.2635  0.2826  0.3513
 5195SOL    HW117592  10.799   9.892   0.927 -2.5632  1.3251  3.5578
 5195SOL    HW217593  10.703   9.965   0.836 -0.5100  0.2170  0.3284
 5196SOL     OW17594   1.297   8.320   1.883  0.2091  0.1359  0.1864
 5196SOL    HW117595   1.279   8.366   1.801 -2.0426  3.2146  2.1671
 5196SOL    HW217596   1.392   8.328   1.896  0.5637 -0.2075 -1.9198
 5197SOL     OW17597   1.637   3.607   3.253  0.1780 -0.0094  0.7494
 5197SOL    HW117598   1.568   3.660   3.293 -0.5552 -0.9774  0.8042
 5197SOL    HW217599   1.658   3.541   3.319  0.4770 -0.3015  0.3676
 5198SOL     OW17600   4.319   6.575   7.152  0.0834 -0.1595  0.0808
 5198SOL    HW117601   4.299   6.649   7.094  0.9775  0.1543  0.1531
 5198SOL    HW217602   4.235   6.530   7.163 -0.2244  0.1278 -0.9594
 5199SOL     OW17603   1.196   7.551   1.677  0.0786  0.0514  0.3705
 5199SOL    HW117604   1.231   7.541   1.766 -0.1149 -1.0290  0.3397
 5199SOL    HW217605   1.101   7.546   1.688  0.0716 -0.6086  0.0512
 5200SOL     OW17606   9.904   6.886   0.962  0.1545  0.2557  0.2962
 5200SOL    HW117607   9.945   6.808   0.922 -0.0564  0.7111 -0.8496
 5200SOL    HW217608   9.875   6.856   1.048  0.5079 -0.8117  0.0633
 5201SOL     OW17609  10.795   9.580   5.282  0.3921 -0.2695  0.5213
 5201SOL    HW117610  10.785   9.669   5.247  0.5679  0.3266  1.9483
 5201SOL    HW217611  10.873   9.584   5.337  0.8849 -1.5344 -0.0432
 5202SOL     OW17612  10.024   2.301   9.926 -0.3940 -0.0058 -0.3073
 5202SOL    HW117613   9.947   2.246   9.938  0.6174 -1.9204 -1.8769
 5202SOL    HW217614  10.045   2.291   9.833  0.6910  1.9234 -0.3024
 5203SOL     OW17615   5.683   1.320   1.642  0.2986 -0.4251  0.5968
 5203SOL    HW117616   5.702   1.262   1.716 -0.4493  0.6744  1.6804
 5203SOL    HW217617   5.673   1.407   1.681 -2.6961 -0.2036 -0.4063
 5204SOL     OW17618  10.020   2.213   7.408 -0.0583  0.5326 -0.6476
 5204SOL    HW117619  10.027   2.140   7.470 -0.8057  1.0253  0.0422
 5204SOL    HW217620   9.988   2.173   7.328  1.5078 -0.2218 -0.9537
 5205SOL     OW17621   8.154   9.089   4.082  0.5059 -0.0922 -0.1721
 5205SOL    HW117622   8.135   9.150   4.012 -0.3060 -0.2991 -0.1464
 5205SOL    HW217623   8.068   9.069   4.121  0.6482 -1.7098 -0.5833
 5206SOL     OW17624   4.237   1.705   2.108 -0.3568  0.2003  0.3665
 5206SOL    HW117625   4.195   1.752   2.037  0.6253 -0.0726 -0.4206
 5206SOL    HW217626   4.186   1.727   2.186 -0.7081  1.4960 -0.2116
 5207SOL     OW17627   9.363   6.993   0.768  0.0861  0.5737  0.3121
 5207SOL    HW117628   9.432   6.929   0.787  1.6393  2.3737  0.9838
 5207SOL    HW217629   9.282   6.945   0.787  0.9607 -2.1151 -1.9949
 5208SOL     OW17630   7.878   5.349   2.914  0.2248 -0.2366  0.0057
 5208SOL    HW117631   7.789   5.318   2.931 -0.0121  0.8795  1.0033
 5208SOL    HW217632   7.875   5.383   2.825 -0.1177 -0.9731 -0.2659
 5209SOL     OW17633   0.952   2.731   0.350  0.3407 -0.4542  0.0562
 5209SOL    HW117634   1.004   2.754   0.427  1.9393 -0.1772 -1.0410
 5209SOL    HW217635   0.916   2.814   0.320  0.8370 -0.3467 -0.2542
 5210SOL     OW17636   4.055   6.254  10.154 -0.1181  0.0132  0.4475
 5210SOL    HW117637   4.064   6.331  10.211  3.0562 -0.0224  0.1797
 5210SOL    HW217638   4.042   6.181  10.215 -0.0831  0.3826  0.9066
 5211SOL     OW17639  10.046   8.578   6.943 -0.1928  0.1370  0.0588
 5211SOL    HW117640  10.069   8.487   6.926  0.3540  0.4795 -1.1517
 5211SOL    HW217641   9.971   8.595   6.885  0.3736  0.7425 -0.5166
 5212SOL     OW17642  10.358   3.780   4.361  0.7032  0.0529  0.1028
 5212SOL    HW117643  10.416   3.722   4.312 -0.2885  0.7481 -2.0710
 5212SOL    HW217644  10.328   3.728   4.435  0.2818 -2.0539 -1.4431
 5213SOL     OW17645   0.673   2.239   6.881  0.3321 -0.0547  0.3228
 5213SOL    HW117646   0.682   2.276   6.793  0.2057  3.1913  1.5153
 5213SOL    HW217647   0.748   2.274   6.929 -0.5447 -0.2912  1.9289
 5214SOL     OW17648  10.655   4.933   0.342 -0.4206  1.0366 -0.1311
 5214SOL    HW117649  10.689   4.843   0.342 -1.3801  0.6334 -1.5232
 5214SOL    HW217650  10.727   4.985   0.308 -0.2805  0.6023 -0.5153
 5215SOL     OW17651   1.251   6.633   5.325 -0.1882  0.3059 -0.3722
 5215SOL    HW117652   1.314   6.588   5.382 -2.5489 -1.3500  1.1245
 5215SOL    HW217653   1.261   6.590   5.240  0.9215  0.3300 -0.2701
 5216SOL     OW17654   5.735   8.748   2.357 -0.0705 -0.1452  0.2461
 5216SOL    HW117655   5.800   8.681   2.338 -0.9065 -0.6958 -0.7140
 5216SOL    HW217656   5.749   8.815   2.290  0.4834  0.4586  0.9475
 5217SOL     OW17657   6.821   7.399   1.711  1.0321  0.0059  0.7001
 5217SOL    HW117658   6.848   7.442   1.630  0.5877  0.2143  0.6606
 5217SOL    HW217659   6.771   7.466   1.758 -3.8590 -1.6945 -1.4373
 5218SOL     OW17660   5.699   7.904   9.254 -0.5199 -0.4616  0.2205
 5218SOL    HW117661   5.676   7.990   9.220  0.6203 -1.5522 -3.8644
 5218SOL    HW217662   5.615   7.861   9.270 -1.2097  0.1354 -1.5298
 5219SOL     OW17663   3.342   5.545   5.081  0.0711  0.4288 -0.4203
 5219SOL    HW117664   3.292   5.585   5.151 -0.2625 -0.2808 -0.2458
 5219SOL    HW217665   3.383   5.468   5.121 -0.6327 -0.3493 -1.1478
 5220SOL     OW17666   3.075   5.922   6.044 -0.0403  0.5235 -0.0349
 5220SOL    HW117667   3.088   5.979   6.121  1.2220  0.4508 -0.1657
 5220SOL    HW217668   3.071   5.834   6.081 -1.6400  0.6517  0.1357
 5221SOL     OW17669   0.220   3.300   2.332 -0.4675  0.2676 -0.0548
 5221SOL    HW117670   0.306   3.257   2.337  0.1157  1.3348 -0.6016
 5221SOL    HW217671   0.233   3.372   2.271 -1.6294  0.7578  0.2535
 5222SOL     OW17672   0.207   8.868   0.926  0.3841 -0.0930  0.3769
 5222SOL    HW117673   0.114   8.855   0.947  0.1634  1.2888  0.3514
 5222SOL    HW217674   0.221   8.815   0.848 -0.0449 -1.3649  1.1415
 5223SOL     OW17675   0.979   7.527   3.632  0.0601 -0.1718  0.0067
 5223SOL    HW117676   0.888   7.499   3.626  0.0775 -0.0316 -1.3395
 5223SOL    HW217677   0.994   7.576   3.551  1.0524  0.6619  0.6659
 5224SOL     OW17678   5.772   0.872   5.595 -0.1552  0.3649 -0.6937
 5224SOL    HW117679   5.786   0.965   5.579 -0.4031  0.6761  0.7677
 5224SOL    HW217680   5.835   0.829   5.537 -0.2813  1.4069 -1.6550
 5225SOL     OW17681   3.477   0.191   8.203 -0.1146  0.0613 -0.5619
 5225SOL    HW117682   3.470   0.217   8.295 -0.4012 -2.5102  0.2304
 5225SOL    HW217683   3.463   0.096   8.204  2.8640 -0.5348 -2.8993
 5226SOL     OW17684   3.515  10.902   0.084  0.6239  0.3185  0.8054
 5226SOL    HW117685   3.485  10.992   0.092 -2.0467 -0.3466 -0.5426
 5226SOL    HW217686   3.507  10.882  -0.009  0.8498 -1.4096  1.1266
 5227SOL     OW17687  10.406   6.339   5.764  0.5395  0.1333  0.2300
 5227SOL    HW117688  10.457   6.258   5.766  1.4850  0.5644 -2.3930
 5227SOL    HW217689  10.335   6.320   5.704 -0.7048  0.5101  1.5419
 5228SOL     OW17690   0.902   6.360   3.151 -0.2996 -0.3655 -0.2765
 5228SOL    HW117691   0.829   6.395   3.099 -1.1913 -0.3599  0.9381
 5228SOL    HW217692   0.952   6.307   3.089 -2.3560 -1.8860 -0.7634
 5229SOL     OW17693   7.192  11.055   5.735  0.1216  0.0006  0.3900
 5229SOL    HW117694   7.264  11.118   5.724 -1.1043  1.1423 -1.8497
 5229SOL    HW217695   7.206  10.990   5.666 -0.0004 -0.7689  1.0884
 5230SOL     OW17696   9.718   9.243   6.173 -0.0578 -0.2187  0.1608
 5230SOL    HW117697   9.676   9.306   6.114  0.2259 -0.3943 -0.2299
 5230SOL    HW217698   9.675   9.258   6.258  0.3973  0.8973  0.2151
 5231SOL     OW17699  10.376   8.297   5.791  0.7369  1.3234 -0.5170
 5231SOL    HW117700  10.365   8.372   5.849  1.4943  1.8441 -1.0175
 5231SOL    HW217701  10.355   8.331   5.704  2.4810  1.3781 -0.9560
 5232SOL     OW17702   4.745   6.679  10.444 -0.2164  0.2887 -0.6812
 5232SOL    HW117703   4.729   6.652  10.534 -1.9315  1.2294 -0.6513
 5232SOL    HW217704   4.728   6.601  10.392  1.6793 -0.5133 -0.1592
 5233SOL     OW17705   2.528   5.034   2.435  0.0115 -1.3184 -0.4350
 5233SOL    HW117706   2.487   4.965   2.382  1.1705 -1.0637 -1.7179
 5233SOL    HW217707   2.622   5.017   2.427  0.2454 -1.2740  1.5959
 5234SOL     OW17708   5.728   1.729   4.480 -0.0705 -0.0567  0.5906
 5234SOL    HW117709   5.670   1.788   4.528 -2.0933 -1.8961  0.5354
 5234SOL    HW217710   5.768   1.673   4.547  2.3516  1.6383  0.7149
 5235SOL     OW17711  11.021   8.358   2.731 -0.1437  0.2661  0.0990
 5235SOL    HW117712  11.075   8.361   2.652 -0.3561  0.5308 -0.0378
 5235SOL    HW217713  11.043   8.274   2.773 -0.3746 -0.0942 -0.4860
 5236SOL     OW17714   1.416  10.902   3.233 -0.5663  0.5216  0.2277
 5236SOL    HW117715   1.504  10.937   3.249 -0.1799 -0.4604  0.3264
 5236SOL    HW217716   1.367  10.975   3.196  0.7033  0.6900 -1.2010
 5237SOL     OW17717   9.217   8.012   2.233 -0.4430 -0.0998  0.2717
 5237SOL    HW117718   9.192   7.921   2.252 -0.2300  0.1142  1.6908
 5237SOL    HW217719   9.212   8.018   2.137 -0.9649 -1.4544  0.1785
 5238SOL     OW17720   9.436   2.327  10.654 -0.2869 -0.5461 -0.2830
 5238SOL    HW117721   9.379   2.383  10.706  3.0363  2.4876  0.4687
 5238SOL    HW217722   9.478   2.269  10.717  1.1561  0.7516  0.0035
 5239SOL     OW17723   1.930   7.446  10.505 -0.9234 -0.0853 -0.5174
 5239SOL    HW117724   1.983   7.463  10.427 -0.1719 -0.6453 -0.1507
 5239SOL    HW217725   1.879   7.526  10.518  0.8510  1.0338 -0.0997
 5240SOL     OW17726   3.288   8.044   0.992 -0.1149  0.0114  0.0255
 5240SOL    HW117727   3.309   8.023   1.083  2.9136 -0.5057 -0.6986
 5240SOL    HW217728   3.260   7.961   0.954 -1.7084  0.2924  0.4874
 5241SOL     OW17729   8.563   7.965   2.213  0.1639  0.1920  0.6085
 5241SOL    HW117730   8.569   7.889   2.155 -0.7337  1.3665 -1.1243
 5241SOL    HW217731   8.503   7.938   2.282  2.0062 -1.5711  1.6182
 5242SOL     OW17732   4.918   9.387   0.248 -0.0997 -0.1828  0.1883
 5242SOL    HW117733   5.009   9.380   0.277  0.0247  1.6664  0.3619
 5242SOL    HW217734   4.873   9.427   0.322 -0.4102  1.7239 -0.9712
 5243SOL     OW17735   4.413   7.710   0.591 -0.0399  0.3188  0.0137
 5243SOL    HW117736   4.507   7.702   0.611  0.4266  1.0263 -1.6935
 5243SOL    HW217737   4.369   7.660   0.660  1.5766  0.1873  0.9991
 5244SOL     OW17738  10.437   7.001   0.109 -0.1655 -0.4817  0.2498
 5244SOL    HW117739  10.366   6.944   0.080  1.5041 -2.1905 -0.6767
 5244SOL    HW217740  10.469   7.042   0.028 -1.7828  2.4491  0.9555
 5245SOL     OW17741   2.042   8.115   9.889  0.2761 -0.2129 -0.0260
 5245SOL    HW117742   1.955   8.153   9.902 -0.1163  0.0049 -2.6592
 5245SOL    HW217743   2.099   8.164   9.948 -1.1306  0.7747  0.5625
 5246SOL     OW17744   3.919   3.135   7.365 -0.0601  0.3561 -0.3124
 5246SOL    HW117745   3.872   3.153   7.447  0.9004  2.1789 -0.1237
 5246SOL    HW217746   3.975   3.060   7.386 -0.6011  0.1332  0.3829
 5247SOL     OW17747   8.376   5.871   0.874  1.0002  0.0606 -0.5628
 5247SOL    HW117748   8.371   5.967   0.883  1.0852  0.0886 -0.7986
 5247SOL    HW217749   8.287   5.841   0.890  0.8115  0.2454 -1.2155
 5248SOL     OW17750   1.381  10.176  10.430  0.6749 -0.2414  0.3681
 5248SOL    HW117751   1.338  10.185  10.345  1.7333 -0.1884 -0.1837
 5248SOL    HW217752   1.445  10.106  10.418 -0.0052 -1.0762  1.4901
 5249SOL     OW17753   8.353  10.116   8.417 -0.1990  0.0912  0.1953
 5249SOL    HW117754   8.341  10.204   8.382 -1.9429 -0.2344 -0.0775
 5249SOL    HW217755   8.339  10.058   8.342 -3.8252 -0.6095  1.2438
 5250SOL     OW17756   3.164   9.828   0.255  0.0438 -0.1967 -0.0460
 5250SOL    HW117757   3.175   9.813   0.349  0.4350  0.5632  0.0301
 5250SOL    HW217758   3.088   9.774   0.232 -0.4822  0.1282  0.8434
 5251SOL     OW17759   8.780   0.168   1.622  0.0362 -0.5092  0.5668
 5251SOL    HW117760   8.816   0.103   1.561 -1.1543 -1.4507  0.8222
 5251SOL    HW217761   8.792   0.129   1.708 -0.1352 -0.0943  0.7816
 5252SOL     OW17762   6.466   9.443   3.235  0.0121  0.2676  0.6360
 5252SOL    HW117763   6.460   9.373   3.169  0.8665  0.7091  0.0673
 5252SOL    HW217764   6.425   9.519   3.192  1.4829  0.8475  0.1648
 5253SOL     OW17765   0.261   9.711   1.092 -0.0069 -0.1061  0.2319
 5253SOL    HW117766   0.210   9.728   1.172 -0.7259 -1.7214  0.1414
 5253SOL    HW217767   0.196   9.712   1.022  0.7316  2.1720 -0.5139
 5254SOL     OW17768   0.499   2.006   3.890 -0.3624  0.0403 -0.2712
 5254SOL    HW117769   0.423   2.015   3.832  0.7401  0.1655 -1.7491
 5254SOL    HW217770   0.570   1.976   3.832  0.7421  0.0262  1.0505
 5255SOL     OW17771   2.576   3.940   2.868 -0.1393  0.5519 -0.2716
 5255SOL    HW117772   2.662   3.928   2.827  0.3478 -2.3930  1.3404
 5255SOL    HW217773   2.586   4.021   2.918  1.0097  1.3266 -1.6705
 5256SOL     OW17774   3.278   9.963   3.533 -0.4427 -0.2103  0.9261
 5256SOL    HW117775   3.317  10.005   3.456 -0.3254 -0.9882  0.5575
 5256SOL    HW217776   3.184   9.966   3.518 -0.5195  1.1207  1.5324
 5257SOL     OW17777   7.961   2.232  10.599  0.2185  0.5012 -0.1211
 5257SOL    HW117778   7.941   2.323  10.623 -0.5935  0.7149 -1.4847
 5257SOL    HW217779   8.011   2.240  10.518 -0.4340 -0.2910 -0.6056
 5258SOL     OW17780   0.871   6.645   1.340 -0.2433 -0.1677  0.5098
 5258SOL    HW117781   0.849   6.573   1.398 -1.6613  0.0839  0.3261
 5258SOL    HW217782   0.873   6.723   1.396 -0.7607 -0.0547  0.3799
 5259SOL     OW17783   9.515   1.314   2.366 -0.0550 -0.3268 -0.7663
 5259SOL    HW117784   9.535   1.405   2.347 -0.3497 -0.1067 -0.0536
 5259SOL    HW217785   9.596   1.266   2.347 -0.4797 -0.2151 -3.0896
 5260SOL     OW17786  10.048   2.176   2.272 -0.4282  0.5268  0.1657
 5260SOL    HW117787  10.035   2.126   2.352  0.3562 -0.0515 -0.0587
 5260SOL    HW217788  10.048   2.268   2.300 -1.8335  0.4101  0.5802
 5261SOL     OW17789   4.669   2.573  10.512 -0.3361 -0.0963  0.1304
 5261SOL    HW117790   4.635   2.561  10.424  1.8804 -0.9856 -0.6686
 5261SOL    HW217791   4.669   2.668  10.525  2.6904  0.3834 -2.3388
 5262SOL     OW17792   6.881  10.212  10.167  0.3042  0.7388 -0.2458
 5262SOL    HW117793   6.951  10.275  10.156 -0.9461  2.0543 -1.0803
 5262SOL    HW217794   6.853  10.191  10.078 -0.6922  0.6579  0.0680
 5263SOL     OW17795   3.219   0.688  10.486  0.4805  0.7115  0.0633
 5263SOL    HW117796   3.224   0.748  10.412 -2.5969  0.0102 -0.8584
 5263SOL    HW217797   3.242   0.602  10.450 -0.9394  0.3845 -0.1347
 5264SOL     OW17798   8.221   8.453   5.808  0.1788 -0.5472  0.1182
 5264SOL    HW117799   8.207   8.501   5.726 -0.9204 -0.9166  0.0683
 5264SOL    HW217800   8.186   8.365   5.790 -1.1886 -0.2848  1.3464
 5265SOL     OW17801   8.726  10.935   3.784 -0.0229 -0.4221  0.7959
 5265SOL    HW117802   8.705  11.023   3.817  1.0482  0.0923  0.1747
 5265SOL    HW217803   8.803  10.949   3.729 -0.4754 -1.5891 -0.1743
 5266SOL     OW17804   4.925   1.803   0.690  0.3672 -0.0046 -0.2215
 5266SOL    HW117805   4.936   1.743   0.765 -1.0025 -0.8422 -0.6519
 5266SOL    HW217806   4.967   1.757   0.617  2.3599  1.1449  0.1504
 5267SOL     OW17807   8.712   9.153   2.246  0.0778  0.1262 -0.2727
 5267SOL    HW117808   8.689   9.218   2.313 -2.3813 -0.5508 -0.3687
 5267SOL    HW217809   8.808   9.154   2.244  0.1844  1.5554  1.8632
 5268SOL     OW17810   3.135   8.379  10.024 -0.4402 -0.5033 -0.3582
 5268SOL    HW117811   3.053   8.332  10.009 -0.3478 -0.9474  0.5030
 5268SOL    HW217812   3.108   8.469  10.045 -0.6126 -0.1140 -2.0452
 5269SOL     OW17813   9.998   7.026   0.112 -0.0623 -0.2781  0.3432
 5269SOL    HW117814  10.011   7.022   0.207  0.8574  0.9785  0.2904
 5269SOL    HW217815  10.067   6.972   0.076  0.7702  0.7562  0.3382
 5270SOL     OW17816   8.024   1.512   1.931 -0.3475 -0.0126 -0.8744
 5270SOL    HW117817   8.045   1.433   1.980  0.0524  1.4792  1.5171
 5270SOL    HW217818   8.077   1.581   1.972  0.3414  1.3060 -3.6976
 5271SOL     OW17819   1.382   7.080   8.224 -0.0089  0.1840 -0.0975
 5271SOL    HW117820   1.464   7.116   8.259 -0.4206  0.0248  1.0544
 5271SOL    HW217821   1.365   7.132   8.145  0.4196  1.2260  0.4802
 5272SOL     OW17822   0.488   4.390   3.755  0.4697 -0.2621  0.0178
 5272SOL    HW117823   0.438   4.331   3.811 -0.1803  0.0298 -0.2387
 5272SOL    HW217824   0.429   4.464   3.740  1.5937  0.9125  1.1031
 5273SOL     OW17825   5.002   8.143   1.858 -0.3264 -0.0525 -0.3175
 5273SOL    HW117826   4.984   8.069   1.916 -0.0470 -1.0491 -1.4461
 5273SOL    HW217827   5.096   8.139   1.843 -0.3937  0.1984 -0.8288
 5274SOL     OW17828   3.158   9.891   2.771  0.2380  0.0224  0.0837
 5274SOL    HW117829   3.120   9.852   2.693  0.6109 -0.1099 -0.0293
 5274SOL    HW217830   3.237   9.935   2.741  1.1596 -1.2269  0.6114
 5275SOL     OW17831   8.137  10.376   4.630 -0.6489  0.3073  0.1780
 5275SOL    HW117832   8.071  10.443   4.649 -0.4983  0.4692  0.1332
 5275SOL    HW217833   8.181  10.362   4.714 -0.9237 -0.0009  0.2717
 5276SOL     OW17834   2.150  10.051   1.712  0.1819 -0.6431  0.5700
 5276SOL    HW117835   2.179   9.960   1.703  0.6749 -0.6331  1.7800
 5276SOL    HW217836   2.184  10.095   1.635  3.4750 -0.6420  1.8237
 5277SOL     OW17837   3.260   0.617   0.761 -0.2243  0.0848  0.1959
 5277SOL    HW117838   3.323   0.659   0.819 -0.9179  0.7332  0.5135
 5277SOL    HW217839   3.309   0.597   0.682  0.1149  1.6503 -0.0205
 5278SOL     OW17840   1.662   8.488   2.621 -0.1350  0.1019  0.4008
 5278SOL    HW117841   1.740   8.531   2.659 -2.4487  2.0008  3.5391
 5278SOL    HW217842   1.667   8.509   2.528  2.8171  0.5754  0.5491
 5279SOL     OW17843   2.331   5.726  10.986  0.1354  1.1321 -0.3986
 5279SOL    HW117844   2.270   5.776  11.039  0.3393 -0.7695  1.7726
 5279SOL    HW217845   2.278   5.692  10.914 -1.1130  0.5280  0.7611
 5280SOL     OW17846   1.995   8.002   0.676 -0.5776  0.0087 -0.3631
 5280SOL    HW117847   1.936   8.017   0.602 -0.9416  0.2113 -0.0406
 5280SOL    HW217848   1.960   7.924   0.720 -1.0547  0.5474  0.2482
 5281SOL     OW17849   9.395   8.165   1.125 -0.1852 -0.4194  0.0920
 5281SOL    HW117850   9.359   8.127   1.045  0.1818  1.3283 -0.9508
 5281SOL    HW217851   9.321   8.165   1.186 -0.4163 -1.9726 -0.1371
 5282SOL     OW17852   1.028   0.571   5.809 -0.0721 -0.4546  0.2229
 5282SOL    HW117853   1.035   0.659   5.773 -3.7845 -1.4502 -3.7729
 5282SOL    HW217854   0.957   0.576   5.873  1.8593 -0.0886  2.4766
 5283SOL     OW17855   0.977   0.294   0.136 -0.4934  0.2926 -0.5223
 5283SOL    HW117856   0.997   0.221   0.079 -0.4229 -0.2557  0.1919
 5283SOL    HW217857   0.883   0.309   0.124 -0.1894  1.2155 -1.9586
 5284SOL     OW17858   4.254   6.479   2.731 -0.1382 -0.0622 -0.3155
 5284SOL    HW117859   4.307   6.551   2.765 -0.7171  0.8799 -1.3312
 5284SOL    HW217860   4.312   6.403   2.730 -0.2765 -0.4060  3.4828
 5285SOL     OW17861   7.876   0.203   0.244  0.1059  0.2003  0.0599
 5285SOL    HW117862   7.887   0.275   0.306  1.4536  1.6926 -1.7492
 5285SOL    HW217863   7.820   0.140   0.288  0.0673  1.7056  2.2933
 5286SOL     OW17864   1.802   0.521  10.666 -0.0596  0.0486  0.3121
 5286SOL    HW117865   1.869   0.480  10.612 -1.1995 -1.3149 -0.1208
 5286SOL    HW217866   1.799   0.467  10.745  1.8270  2.2092  2.0005
 5287SOL     OW17867   4.938   7.860   0.315 -0.4514  0.5899  0.3038
 5287SOL    HW117868   4.847   7.833   0.315 -0.6775  1.2470 -1.2564
 5287SOL    HW217869   4.937   7.951   0.283  0.5720  1.3617  2.2792
 5288SOL     OW17870   0.671   5.917   1.420 -0.0204  0.2836  0.1396
 5288SOL    HW117871   0.747   5.969   1.393  0.5052  0.2454  1.5138
 5288SOL    HW217872   0.705   5.855   1.484 -1.1557  0.0295  0.5160
 5289SOL     OW17873   3.005   4.730   0.109 -0.2568  0.1521 -0.1443
 5289SOL    HW117874   3.053   4.649   0.127 -0.0886  0.0660 -0.9835
 5289SOL    HW217875   3.073   4.795   0.093 -0.4105  0.1134 -0.9651
 5290SOL     OW17876   4.794   8.686  11.060 -0.0523  0.4652  0.0145
 5290SOL    HW117877   4.874   8.733  11.037  0.6830 -0.6444  0.2484
 5290SOL    HW217878   4.752   8.668  10.977  0.7709 -0.3680 -0.2339
 5291SOL     OW17879   6.549   2.706   9.190  0.3714  0.0434 -0.2551
 5291SOL    HW117880   6.619   2.724   9.128 -1.4780  0.1120 -2.4514
 5291SOL    HW217881   6.474   2.683   9.136 -0.7693 -2.1570  2.0355
 5292SOL     OW17882   4.382   1.691   1.698  0.2195  0.8930  0.3921
 5292SOL    HW117883   4.465   1.737   1.714  2.0855 -2.0418 -0.0052
 5292SOL    HW217884   4.407   1.614   1.646 -2.8692  0.1428 -0.1762
 5293SOL     OW17885   0.837   3.722   2.580 -0.1346  0.3411 -0.0976
 5293SOL    HW117886   0.905   3.702   2.644  1.7633 -1.0340 -2.3550
 5293SOL    HW217887   0.886   3.746   2.500 -2.2882 -0.4424 -1.7571
 5294SOL     OW17888   1.210   0.973   1.213 -0.4469  0.0343  0.4290
 5294SOL    HW117889   1.256   0.993   1.132 -1.9632 -0.2986 -0.5570
 5294SOL    HW217890   1.124   1.014   1.203 -0.4452  0.5880  2.1839
 5295SOL     OW17891   8.569   5.066   7.305  0.1796  0.4704 -0.1670
 5295SOL    HW117892   8.596   5.151   7.340  1.3582  0.3004 -0.6528
 5295SOL    HW217893   8.642   5.007   7.324 -1.0484 -0.7473  1.1741
 5296SOL     OW17894   9.622   5.466   4.340  0.4394 -0.0041 -0.0362
 5296SOL    HW117895   9.672   5.512   4.408 -0.2033  2.7408 -1.2809
 5296SOL    HW217896   9.673   5.479   4.260 -1.7939  2.3932 -1.2242
 5297SOL     OW17897   2.486   4.765   3.912 -0.3883  0.3656  0.3469
 5297SOL    HW117898   2.399   4.760   3.952 -1.7381 -0.6957 -2.4100
 5297SOL    HW217899   2.505   4.858   3.906 -1.3398  0.6157  0.9655
 5298SOL     OW17900   0.469   4.796   2.302 -0.0626 -0.4920  0.1069
 5298SOL    HW117901   0.564   4.798   2.315 -0.2413 -0.7316  1.5936
 5298SOL    HW217902   0.436   4.867   2.356 -0.6929 -0.0054 -0.8994
 5299SOL     OW17903  10.764   5.191   1.672  0.3606 -0.3419  0.3916
 5299SOL    HW117904  10.718   5.253   1.728  0.5864 -1.0292  1.3604
 5299SOL    HW217905  10.854   5.192   1.704  0.4668 -0.8261  0.1217
 5300SOL     OW17906   4.303   0.339   8.042 -0.6862 -0.0854 -0.1319
 5300SOL    HW117907   4.373   0.276   8.057 -0.6226  0.0797  0.2482
 5300SOL    HW217908   4.272   0.319   7.953 -1.3151 -1.3057  0.3328
 5301SOL     OW17909   8.171   9.443   9.794 -0.0022  0.0977  0.8282
 5301SOL    HW117910   8.260   9.464   9.764  0.3043 -0.0988  1.5710
 5301SOL    HW217911   8.126   9.413   9.715  0.5552  0.3211  0.4168
 5302SOL     OW17912   1.528   5.270   0.746 -0.6924 -0.0350 -1.0788
 5302SOL    HW117913   1.602   5.328   0.765  0.4715 -0.7836 -3.0692
 5302SOL    HW217914   1.553   5.224   0.666 -1.0021 -4.1746  0.9272
 5303SOL     OW17915   4.029   8.129   2.770  0.6121 -0.0686  0.3674
 5303SOL    HW117916   3.985   8.073   2.834 -1.2959  1.2598  0.3262
 5303SOL    HW217917   3.958   8.179   2.730  2.0209  0.8861 -1.0683
 5304SOL     OW17918  10.101   3.459   6.537  0.4331  0.0180 -0.3576
 5304SOL    HW117919  10.006   3.449   6.528  0.2932  0.7508  0.2055
 5304SOL    HW217920  10.122   3.406   6.615  0.3699  0.4375 -0.0508
 5305SOL     OW17921   9.968   4.719   2.963  0.5473 -0.4164 -0.2556
 5305SOL    HW117922   9.884   4.677   2.983  0.5342 -0.7635 -0.9902
 5305SOL    HW217923   9.979   4.705   2.869  0.5687  1.1993 -0.5182
 5306SOL     OW17924   0.394   9.336   1.485  0.0128 -0.3440  0.4241
 5306SOL    HW117925   0.333   9.286   1.431  0.8004  0.7499 -1.5729
 5306SOL    HW217926   0.357   9.425   1.487  0.8537  0.0197  0.2734
 5307SOL     OW17927   0.946   1.953   5.762 -0.8447  0.1695 -0.8550
 5307SOL    HW117928   1.037   1.926   5.767 -1.3924 -2.3244 -2.4810
 5307SOL    HW217929   0.930   2.001   5.844  1.0188 -2.3285  1.1242
 5308SOL     OW17930   2.952   8.143   3.150 -0.1660 -0.0317  0.0003
 5308SOL    HW117931   2.880   8.206   3.147 -0.5347 -0.4623 -0.3222
 5308SOL    HW217932   3.000   8.165   3.230 -0.3400  0.6019 -0.0665
 5309SOL     OW17933   0.698   1.364   1.105  0.5773  0.0244  0.5432
 5309SOL    HW117934   0.647   1.369   1.024  2.0932 -0.3694 -0.4893
 5309SOL    HW217935   0.703   1.270   1.124  1.8296 -0.0487 -0.0227
 5310SOL     OW17936   4.659   5.442   0.929 -0.1597 -0.3540  0.0641
 5310SOL    HW117937   4.715   5.393   0.869 -1.7163  0.3917 -2.1276
 5310SOL    HW217938   4.598   5.376   0.963 -0.5950 -0.4435 -0.8501
 5311SOL     OW17939   6.842   8.178   0.215 -0.3396 -0.3921  0.4111
 5311SOL    HW117940   6.824   8.086   0.231  0.5134 -0.5615  0.4435
 5311SOL    HW217941   6.831   8.189   0.120  0.8868 -0.8531  0.1902
 5312SOL     OW17942   0.515   3.747   3.609 -0.1526 -0.1266 -0.2060
 5312SOL    HW117943   0.482   3.694   3.537 -0.1082 -1.3391  0.6342
 5312SOL    HW217944   0.490   3.698   3.688  2.3473 -0.3668  0.5243
 5313SOL     OW17945   4.899   9.019   9.594  0.2173 -0.3308  0.0702
 5313SOL    HW117946   4.831   8.981   9.649  1.1399 -0.1833  1.3472
 5313SOL    HW217947   4.871   9.110   9.580  0.0599 -0.3177  0.4565
 5314SOL     OW17948   7.626  10.120   1.495  0.5349  0.4072 -1.0799
 5314SOL    HW117949   7.594  10.204   1.526  2.8993  1.7955 -2.0832
 5314SOL    HW217950   7.680  10.087   1.567 -1.9568 -1.3129  0.1145
 5315SOL     OW17951   5.068   8.408   3.651 -0.1192  0.2690  0.0339
 5315SOL    HW117952   5.130   8.347   3.691  1.0006  1.6700  0.5164
 5315SOL    HW217953   5.006   8.428   3.721  0.7691  1.3099  0.5440
 5316SOL     OW17954   8.058   7.685   6.843  0.3442  0.3491 -0.2886
 5316SOL    HW117955   8.058   7.598   6.883 -1.5995  0.8402  0.9632
 5316SOL    HW217956   8.019   7.672   6.757  2.2687 -0.3362 -1.1147
 5317SOL     OW17957   3.945   0.884   0.944 -0.4585  0.0241  0.0097
 5317SOL    HW117958   4.001   0.957   0.917 -2.1808  1.1107 -0.8161
 5317SOL    HW217959   3.997   0.805   0.927  1.4605  1.0107  0.9336
 5318SOL     OW17960   1.274   7.229  10.828  0.0065  1.2734  0.0967
 5318SOL    HW117961   1.312   7.217  10.915 -2.1327 -0.4041  0.8747
 5318SOL    HW217962   1.185   7.261  10.845 -0.3423  1.2042 -1.4767
 5319SOL     OW17963   8.910   5.480   9.370 -0.3199  0.5274  0.2443
 5319SOL    HW117964   8.852   5.425   9.317  0.2972  0.8959 -0.8434
 5319SOL    HW217965   8.963   5.419   9.420 -1.2424  0.1785  0.8223
 5320SOL     OW17966   3.519   9.940   1.684  0.3353  0.3563 -0.3734
 5320SOL    HW117967   3.512   9.976   1.773 -1.8046  1.4621 -0.9040
 5320SOL    HW217968   3.556   9.853   1.696 -1.2488 -0.1041  1.7959
 5321SOL     OW17969   3.048   9.257   9.422 -0.0423 -0.0478 -0.5387
 5321SOL    HW117970   3.062   9.339   9.375  1.3612 -0.7943 -1.5201
 5321SOL    HW217971   2.953   9.252   9.434 -0.0729  2.3617  0.8407
 5322SOL     OW17972   2.140   2.256   0.281  0.0015  0.2985  0.3124
 5322SOL    HW117973   2.082   2.294   0.346  0.6388 -0.2968  1.2570
 5322SOL    HW217974   2.095   2.176   0.253  0.0494  0.1859  0.5516
 5323SOL     OW17975  10.710   8.339   2.410  0.7465 -0.3708  0.1745
 5323SOL    HW117976  10.783   8.402   2.410  0.0342  0.4719  0.3714
 5323SOL    HW217977  10.703   8.311   2.319  1.2843 -0.4140  0.1448
 5324SOL     OW17978   2.903   4.322   7.745  0.3972 -0.1288 -0.0240
 5324SOL    HW117979   2.948   4.402   7.717  0.1311 -0.0544 -0.2439
 5324SOL    HW217980   2.917   4.319   7.840  0.3101  0.2412  0.0027
 5325SOL     OW17981   5.837   6.666   0.104  0.0775 -0.4533 -0.2104
 5325SOL    HW117982   5.844   6.723   0.028  2.0195  0.5071  0.6224
 5325SOL    HW217983   5.826   6.725   0.178 -0.1042 -1.2820  0.4448
 5326SOL     OW17984   3.720   4.258   6.491 -0.1460  0.0144 -0.4558
 5326SOL    HW117985   3.763   4.260   6.406 -1.2875 -0.0807 -1.0504
 5326SOL    HW217986   3.659   4.331   6.489 -1.2287 -0.8570 -0.2989
 5327SOL     OW17987   7.819   2.091   4.777  1.4438 -0.2893 -0.0099
 5327SOL    HW117988   7.746   2.129   4.728 -0.4674 -1.7319  1.5560
 5327SOL    HW217989   7.847   2.161   4.836 -0.5760 -0.4933  1.2976
 5328SOL     OW17990   7.899  10.426  10.808  0.3351  0.4898 -0.4749
 5328SOL    HW117991   7.829  10.421  10.873 -2.4260  0.6884 -3.2418
 5328SOL    HW217992   7.953  10.500  10.836 -1.2209  1.0894  1.1186
 5329SOL     OW17993   9.335   2.589   7.166  0.2522  0.2258  0.7102
 5329SOL    HW117994   9.380   2.540   7.235  0.0307  1.7140  1.9562
 5329SOL    HW217995   9.406   2.633   7.118  0.4175 -0.9254 -0.1505
 5330SOL     OW17996   8.228   8.661   6.742 -0.5863  0.5480 -0.6116
 5330SOL    HW117997   8.265   8.699   6.662 -1.3520 -0.0116 -1.2419
 5330SOL    HW217998   8.301   8.663   6.805 -0.1002  1.3894 -1.1783
 5331SOL     OW17999   4.202   1.398   1.675  0.2622 -0.1114  0.1440
 5331SOL    HW118000   4.247   1.431   1.752  0.1074 -1.5828  0.9091
 5331SOL    HW218001   4.271   1.387   1.609  0.1299  2.9736 -0.6751
 5332SOL     OW18002   0.117   0.098   7.935 -0.2788 -0.1253  0.1840
 5332SOL    HW118003   0.042   0.154   7.915  0.0759  0.2902 -0.0089
 5332SOL    HW218004   0.091   0.011   7.906 -0.6278  0.0472 -0.0285
 5333SOL     OW18005   2.643   0.945   0.807 -0.2442  0.2378 -0.0352
 5333SOL    HW118006   2.637   1.003   0.731 -2.4394  0.0507 -0.0750
 5333SOL    HW218007   2.714   0.885   0.785 -0.9852  0.0128 -2.1063
 5334SOL     OW18008   6.479   7.729  10.449 -0.2619  0.3856  0.5280
 5334SOL    HW118009   6.436   7.659  10.399 -0.3738  1.5616 -1.0876
 5334SOL    HW218010   6.572   7.711  10.439 -0.2905  0.4515  0.1197
 5335SOL     OW18011  10.680   8.505   7.066 -0.1819  0.3610  0.2897
 5335SOL    HW118012  10.630   8.481   7.143 -0.3927  0.6526  0.2489
 5335SOL    HW218013  10.737   8.576   7.096  0.7497 -0.4731  0.5210
 5336SOL     OW18014   1.201   9.636   9.894  1.2246 -0.5347  0.2231
 5336SOL    HW118015   1.231   9.549   9.867  1.5482 -0.3315 -0.0784
 5336SOL    HW218016   1.111   9.640   9.862  0.3832 -1.6371  2.2472
 5337SOL     OW18017   7.073   2.297   1.973  0.0021 -0.4663  0.2451
 5337SOL    HW118018   7.063   2.241   1.896 -1.6674 -2.2410  1.6687
 5337SOL    HW218019   7.111   2.241   2.040  1.5121  1.0718  0.7415
 5338SOL     OW18020   6.358   9.494   7.328 -0.4747  0.5172  0.0081
 5338SOL    HW118021   6.309   9.445   7.262  0.6611  0.6191 -0.9418
 5338SOL    HW218022   6.358   9.437   7.405 -2.0908  0.5382  0.0451
 5339SOL     OW18023   3.137   2.568   7.821  0.3715  0.4268  0.1616
 5339SOL    HW118024   3.182   2.599   7.743 -1.5493 -1.6931 -1.9615
 5339SOL    HW218025   3.180   2.485   7.842 -0.5851 -0.1437 -0.0851
 5340SOL     OW18026   8.972   7.749   4.456 -0.5247 -0.0416  0.0314
 5340SOL    HW118027   8.908   7.703   4.401 -1.8343  0.0316  1.4195
 5340SOL    HW218028   9.040   7.777   4.396 -2.5878  1.3094 -1.8103
 5341SOL     OW18029   7.185   7.273   1.187  0.4282  0.1489  0.0391
 5341SOL    HW118030   7.163   7.316   1.104  0.7730 -1.3345 -0.8567
 5341SOL    HW218031   7.100   7.251   1.225  0.2731  0.1645 -0.2894
 5342SOL     OW18032  10.079   6.950   7.182 -0.0543  0.1709  1.0168
 5342SOL    HW118033  10.137   6.964   7.257 -0.5076  0.8435  1.2484
 5342SOL    HW218034  10.138   6.931   7.109  0.5296  1.8152  1.0249
 5343SOL     OW18035   1.939   9.468   8.577 -0.0657 -0.3180  0.9710
 5343SOL    HW118036   1.994   9.546   8.576 -0.0195 -0.3549  0.5470
 5343SOL    HW218037   1.851   9.500   8.557  0.2976 -0.6240 -1.4617
 5344SOL     OW18038   8.884  10.935  10.234  0.1184 -0.0189  0.2036
 5344SOL    HW118039   8.907  10.843  10.246  0.3772 -0.0904 -0.7903
 5344SOL    HW218040   8.857  10.942  10.143 -1.0338  0.6611  0.5650
 5345SOL     OW18041  10.914   9.804   6.217  0.3494 -0.4773 -0.6433
 5345SOL    HW118042  10.930   9.821   6.124 -0.4672  0.0233 -0.6987
 5345SOL    HW218043  10.837   9.856   6.238  2.0484  1.6035  0.9962
 5346SOL     OW18044   0.243   3.074   3.184 -0.5527 -0.3076  0.1074
 5346SOL    HW118045   0.335   3.098   3.179 -0.1606 -1.7589 -0.1400
 5346SOL    HW218046   0.197   3.144   3.138  0.3501  0.7550  0.7902
 5347SOL     OW18047   1.844   8.095   7.859 -0.1475  0.1770 -0.0895
 5347SOL    HW118048   1.886   8.074   7.775  0.5352 -1.3621  0.5928
 5347SOL    HW218049   1.810   8.011   7.890  3.0444 -0.1897  3.0131
 5348SOL     OW18050   1.349   7.206   2.451 -0.8237  0.0848 -0.0647
 5348SOL    HW118051   1.256   7.226   2.458 -0.6738  0.6839  0.2950
 5348SOL    HW218052   1.362   7.128   2.504 -1.1242 -0.0062 -0.1277
 5349SOL     OW18053   9.700   8.073   6.623  0.0545 -0.1263  0.5453
 5349SOL    HW118054   9.723   8.008   6.689 -1.4890 -0.3241  0.9399
 5349SOL    HW218055   9.611   8.048   6.595  0.6801 -0.1145 -1.6877
 5350SOL     OW18056   1.239   6.384   5.139  0.9243 -0.3782  0.4444
 5350SOL    HW118057   1.309   6.359   5.200  2.5599 -1.0055 -1.5649
 5350SOL    HW218058   1.197   6.302   5.116  4.2922 -1.2808 -3.7738
 5351SOL     OW18059   2.705   6.188   2.588  0.7386  0.2851 -0.3964
 5351SOL    HW118060   2.731   6.277   2.566  1.3215 -0.4196 -2.8446
 5351SOL    HW218061   2.775   6.133   2.553 -0.3330 -1.2273 -0.2739
 5352SOL     OW18062   8.695   8.548   1.207  0.0895 -0.0003  0.3127
 5352SOL    HW118063   8.698   8.644   1.216  0.0658  0.0673 -0.4114
 5352SOL    HW218064   8.604   8.529   1.184  0.6243  0.0399 -2.1062
 5353SOL     OW18065   0.527   9.314   5.672  0.1446  0.8895 -0.4180
 5353SOL    HW118066   0.520   9.307   5.767  3.5354  0.9142 -0.0683
 5353SOL    HW218067   0.596   9.378   5.658  1.8256 -1.2591 -2.8152
 5354SOL     OW18068   4.717  11.085   5.240 -0.1210 -0.0792 -0.0521
 5354SOL    HW118069   4.717  10.992   5.217 -0.7608 -0.4352  1.3024
 5354SOL    HW218070   4.635  11.119   5.204  0.1660 -0.0134 -0.6442
 5355SOL     OW18071   4.190   2.274   9.380 -0.4631 -0.1810 -0.6810
 5355SOL    HW118072   4.119   2.211   9.393  0.0906 -0.5681  0.6197
 5355SOL    HW218073   4.225   2.289   9.467 -0.2818  1.6091 -1.0149
 5356SOL     OW18074   9.509   5.628   0.331  0.3051 -0.3056 -0.4678
 5356SOL    HW118075   9.597   5.664   0.338  0.6710 -1.2673 -0.0415
 5356SOL    HW218076   9.464   5.657   0.410 -0.0794  0.9736 -1.1181
 5357SOL     OW18077  10.048   9.825   4.113 -0.5282 -0.6204  0.0615
 5357SOL    HW118078  10.073   9.760   4.047  1.6353  0.0594  0.1122
 5357SOL    HW218079  10.129   9.840   4.162 -2.1786 -1.5769  3.3383
 5358SOL     OW18080  10.103   5.054   5.157 -0.8059 -0.2990 -0.0065
 5358SOL    HW118081  10.138   4.971   5.127 -1.4858 -1.1140  1.3612
 5358SOL    HW218082  10.153   5.120   5.108 -0.1452 -1.4893 -0.9907
 5359SOL     OW18083   3.301   7.779   1.632 -0.2884 -0.2350  0.0230
 5359SOL    HW118084   3.225   7.723   1.616  0.5578 -1.5995  0.5936
 5359SOL    HW218085   3.350   7.776   1.550 -0.2181 -0.3862  0.0695
 5360SOL     OW18086  10.305   8.441   2.340  0.5268  0.1459 -0.9259
 5360SOL    HW118087  10.367   8.379   2.303  0.5282  0.8431 -2.1594
 5360SOL    HW218088  10.349   8.475   2.418  1.6686  0.5350 -1.7063
 5361SOL     OW18089   2.078   9.362  10.144  0.1805 -0.0228  0.3137
 5361SOL    HW118090   2.039   9.318  10.220 -0.2746  0.2643  0.2504
 5361SOL    HW218091   2.101   9.449  10.176  0.3606 -0.0406  0.2321
 5362SOL     OW18092  10.863   2.157   1.002 -0.3038  0.1135  0.2169
 5362SOL    HW118093  10.929   2.174   1.069 -0.2574 -0.0230  0.2064
 5362SOL    HW218094  10.780   2.153   1.050 -0.6126  2.3936 -0.0211
 5363SOL     OW18095   7.924   8.407   3.201  0.5950  0.0899  0.1248
 5363SOL    HW118096   7.961   8.491   3.230  0.1259  0.6399 -0.8005
 5363SOL    HW218097   7.830   8.417   3.213  0.5018 -0.1323 -0.3931
 5364SOL     OW18098   3.001   4.886   3.369 -0.1744  0.0584 -0.9204
 5364SOL    HW118099   3.021   4.945   3.441 -0.0601 -0.1303 -0.7953
 5364SOL    HW218100   3.086   4.847   3.345 -0.4601 -1.2599  0.0673
 5365SOL     OW18101   8.961   9.011  10.532 -0.6927 -0.4056 -0.5026
 5365SOL    HW118102   8.900   8.987  10.602 -1.0919  2.1980  0.1523
 5365SOL    HW218103   8.966   8.933  10.477 -1.7680 -1.9307  1.4295
 5366SOL     OW18104   2.604   8.991   1.461  0.7596 -0.1756  0.5573
 5366SOL    HW118105   2.568   8.904   1.448  0.1381 -0.0274  1.2189
 5366SOL    HW218106   2.698   8.982   1.443  0.5882 -0.8280 -0.0154
 5367SOL     OW18107   6.116   7.993   3.565  0.5455 -0.1868 -0.4983
 5367SOL    HW118108   6.158   8.077   3.583  1.3263 -0.8732  1.1354
 5367SOL    HW218109   6.153   7.964   3.482  1.1538  0.5609 -0.4955
 5368SOL     OW18110   7.517   9.420   4.239 -0.2461  0.6140 -0.6807
 5368SOL    HW118111   7.431   9.391   4.210  0.1221  0.4494 -1.6655
 5368SOL    HW218112   7.500   9.492   4.300 -1.0925  0.1000 -0.3019
 5369SOL     OW18113   6.193   8.485   0.597  0.6368 -0.0583  0.2217
 5369SOL    HW118114   6.141   8.436   0.660  0.1165  0.2032  0.0001
 5369SOL    HW218115   6.240   8.550   0.649  0.0367  0.3050  0.3121
 5370SOL     OW18116   2.485  10.089   3.233  0.4586  0.1820  0.0719
 5370SOL    HW118117   2.552  10.051   3.176  0.3902 -1.3486  0.9712
 5370SOL    HW218118   2.426  10.017   3.253  1.9803 -0.1837  4.2744
 5371SOL     OW18119   6.459   6.853   8.635 -0.2166 -0.1331  0.9207
 5371SOL    HW118120   6.502   6.938   8.645  0.5085 -0.3909  0.0736
 5371SOL    HW218121   6.397   6.866   8.563 -1.0334  0.0309  1.6468
 5372SOL     OW18122   9.247   7.344   3.809 -0.0673 -0.3087 -0.0905
 5372SOL    HW118123   9.227   7.411   3.875 -1.8582 -0.2320 -0.6538
 5372SOL    HW218124   9.203   7.265   3.842 -0.4947 -0.4151 -0.8905
 5373SOL     OW18125   9.959  10.074   4.025  1.0912  0.0108  0.2551
 5373SOL    HW118126  10.006  10.076   3.942  0.0854 -0.4379 -0.3362
 5373SOL    HW218127   9.974   9.986   4.060 -2.3176 -1.5230 -1.7527
 5374SOL     OW18128   8.567   9.082   7.112  0.2379 -0.2062  0.3945
 5374SOL    HW118129   8.572   9.034   7.029  0.7455  0.2200  0.1726
 5374SOL    HW218130   8.524   9.021   7.172 -1.4093 -0.0023 -0.5282
 5375SOL     OW18131   6.237   8.023   6.462  0.7185 -0.1253  0.4605
 5375SOL    HW118132   6.199   7.961   6.400 -0.4702  0.9182  0.0992
 5375SOL    HW218133   6.233   7.978   6.547  0.2341 -0.6917  0.1428
 5376SOL     OW18134   2.738   5.431   6.414 -0.1921  0.1235 -0.2180
 5376SOL    HW118135   2.679   5.358   6.394  0.2084 -0.2571 -0.0463
 5376SOL    HW218136   2.788   5.444   6.333  0.3125 -0.3515  0.0068
 5377SOL     OW18137   3.139   0.276   5.260 -0.2252  0.6223  0.4724
 5377SOL    HW118138   3.097   0.292   5.176 -0.8807 -0.8489  0.4918
 5377SOL    HW218139   3.094   0.335   5.321 -0.9056  0.4985  0.1046
 5378SOL     OW18140   2.326   6.857   2.943  0.2331 -0.2394  0.1675
 5378SOL    HW118141   2.417   6.874   2.967  0.0700  2.3322 -0.7135
 5378SOL    HW218142   2.295   6.795   3.008  1.8192  1.0086  2.2358
 5379SOL     OW18143   4.152   8.663   1.657 -0.4220 -0.3567 -0.0664
 5379SOL    HW118144   4.104   8.673   1.740 -0.6319 -0.0585 -0.2226
 5379SOL    HW218145   4.084   8.656   1.591 -0.3257  2.3814 -0.5964
 5380SOL     OW18146  10.509   4.897   2.094 -0.0716  0.0845  0.3587
 5380SOL    HW118147  10.510   4.836   2.168 -0.1820  0.2630  0.5078
 5380SOL    HW218148  10.546   4.846   2.021 -0.5434 -0.2898  0.3771
 5381SOL     OW18149   3.306   7.924   9.710  0.0694  0.2882 -0.9847
 5381SOL    HW118150   3.395   7.947   9.686  0.1213  0.4364 -0.6503
 5381SOL    HW218151   3.278   7.993   9.771  0.4470 -0.8329  0.5217
 5382SOL     OW18152   8.098   3.205   0.382 -0.4002  0.1903  0.4330
 5382SOL    HW118153   8.144   3.182   0.463 -1.8213 -0.3520  1.1336
 5382SOL    HW218154   8.007   3.179   0.399 -0.6827 -0.1446 -1.4363
 5383SOL     OW18155   3.635   6.179   9.413  0.6786  0.0373  0.4208
 5383SOL    HW118156   3.725   6.190   9.444  0.6014 -0.0840  0.6919
 5383SOL    HW218157   3.641   6.113   9.343  0.8887  0.5030 -0.0062
 5384SOL     OW18158   8.264   5.980  10.878  0.1183  0.3540 -0.0964
 5384SOL    HW118159   8.278   5.900  10.928 -1.7333  1.0742  1.7168
 5384SOL    HW218160   8.336   6.038  10.905 -0.5334  0.5260  1.3285
 5385SOL     OW18161   3.421   8.161   6.942 -0.2595 -0.2400 -0.4814
 5385SOL    HW118162   3.423   8.112   6.859  0.8003  0.1254 -0.6946
 5385SOL    HW218163   3.330   8.157   6.970 -0.2398 -2.3317 -0.4891
 5386SOL     OW18164   9.355   9.933   9.149 -0.2307 -0.0156  0.3108
 5386SOL    HW118165   9.284   9.996   9.138 -0.7331 -0.9153 -2.2663
 5386SOL    HW218166   9.409   9.944   9.071  2.0615  0.0551  1.7984
 5387SOL     OW18167   5.108   8.976   4.791 -0.4072  0.0712  0.1729
 5387SOL    HW118168   5.093   8.948   4.881  0.1072 -0.6528  0.0383
 5387SOL    HW218169   5.202   8.994   4.787 -0.6424  1.4030  0.1334
 5388SOL     OW18170   5.555   0.581  10.511 -0.2174  0.1325 -0.0492
 5388SOL    HW118171   5.559   0.523  10.435 -0.2763 -0.0325  0.0747
 5388SOL    HW218172   5.636   0.633  10.506 -0.0916 -0.0661 -0.0741
 5389SOL     OW18173   4.772  10.122  10.839  0.5790 -0.1948  0.1153
 5389SOL    HW118174   4.687  10.166  10.833  0.5036 -0.3283  0.1902
 5389SOL    HW218175   4.824  10.179  10.896  0.4707 -0.2206  0.2411
 5390SOL     OW18176   7.051   0.002   0.524  0.0307  0.2226  1.0641
 5390SOL    HW118177   7.114   0.001   0.597 -0.3683  0.2713  1.4131
 5390SOL    HW218178   7.064  -0.082   0.481 -1.0188 -0.6437  2.3316
 5391SOL     OW18179   1.470   6.641   7.677  0.0726 -0.1380 -0.1768
 5391SOL    HW118180   1.557   6.673   7.698 -0.9303  3.0119 -0.2670
 5391SOL    HW218181   1.450   6.578   7.746  0.7807  2.3436  2.4764
 5392SOL     OW18182   4.087   9.674   7.645 -0.2074 -0.0904 -0.1815
 5392SOL    HW118183   4.176   9.643   7.631  1.0208  1.3583  3.2227
 5392SOL    HW218184   4.070   9.656   7.737 -1.7866  3.3899  0.3578
 5393SOL     OW18185   0.355   3.455   2.779  0.0281  0.0419 -0.1438
 5393SOL    HW118186   0.371   3.531   2.722  0.8595 -0.4957 -0.6443
 5393SOL    HW218187   0.442   3.418   2.793 -0.2490 -0.2086  0.9644
 5394SOL     OW18188   7.447   6.991  10.520 -0.4452  0.1024  0.2261
 5394SOL    HW118189   7.543   6.996  10.519 -0.3836 -0.1398  1.8459
 5394SOL    HW218190   7.419   7.069  10.473  0.5237 -0.2519 -1.0254
 5395SOL     OW18191   2.241   4.425   6.308 -0.3546  0.0785 -0.2862
 5395SOL    HW118192   2.330   4.391   6.308  0.8384  2.8980  0.7976
 5395SOL    HW218193   2.220   4.440   6.216  0.0408 -1.1249 -0.5835
 5396SOL     OW18194   1.633   0.231   2.801 -0.4341  0.6751  0.5956
 5396SOL    HW118195   1.702   0.214   2.737 -2.1250 -1.0185 -0.9364
 5396SOL    HW218196   1.677   0.230   2.886  1.5060  0.3521 -0.3624
 5397SOL     OW18197   4.821   0.303   2.158  0.1643  0.0724 -0.1750
 5397SOL    HW118198   4.757   0.307   2.229 -1.5885 -0.2516 -1.6423
 5397SOL    HW218199   4.906   0.309   2.201 -0.8147 -0.3934  1.9444
 5398SOL     OW18200   9.215   9.811   9.944  0.9418 -0.6247 -0.6772
 5398SOL    HW118201   9.260   9.859   9.874 -0.3979 -0.4299 -1.4373
 5398SOL    HW218202   9.273   9.819  10.019 -0.0532  3.9737 -0.1339
 5399SOL     OW18203  10.550   8.185   9.371  0.4416  0.3848 -0.5788
 5399SOL    HW118204  10.638   8.172   9.336  0.7163 -2.6944  0.9827
 5399SOL    HW218205  10.558   8.260   9.429  1.9290  0.3984 -0.7633
 5400SOL     OW18206   6.809   8.036   2.625  0.3463  0.0399  0.1600
 5400SOL    HW118207   6.900   8.025   2.598 -0.4106 -0.1892 -2.5801
 5400SOL    HW218208   6.784   7.951   2.662  0.6483 -0.6173 -1.1053
 5401SOL     OW18209   7.934   8.139   1.222  0.0553 -0.2942 -0.5888
 5401SOL    HW118210   7.943   8.085   1.301 -1.3221 -1.4959 -1.1958
 5401SOL    HW218211   7.982   8.091   1.155  0.8911  0.5220 -0.5898
 5402SOL     OW18212   2.959   1.066   1.319  0.0149  0.1042 -0.2633
 5402SOL    HW118213   2.932   1.020   1.240  0.4832 -1.0722  0.2412
 5402SOL    HW218214   2.900   1.033   1.387  1.4693 -1.1066  0.4684
 5403SOL     OW18215   2.240   1.207   5.166 -1.0652  0.3173  0.3959
 5403SOL    HW118216   2.319   1.169   5.127 -2.1310  0.5913 -2.2269
 5403SOL    HW218217   2.168   1.162   5.123 -2.4168 -0.0654  2.8859
 5404SOL     OW18218   9.614   3.147   6.090 -0.4252  0.0585 -0.5383
 5404SOL    HW118219   9.521   3.134   6.072 -0.5806  0.6224 -0.1670
 5404SOL    HW218220   9.616   3.217   6.156  0.2972  0.6269 -1.1456
 5405SOL     OW18221   2.068   5.781   6.085  0.3858  0.2776 -0.3144
 5405SOL    HW118222   2.124   5.703   6.079  0.0503 -0.0229  0.3449
 5405SOL    HW218223   2.117   5.848   6.038  1.7940  0.2879  1.0729
 5406SOL     OW18224   5.056   8.136   0.246  0.8269 -0.7707  0.1262
 5406SOL    HW118225   4.990   8.132   0.177  0.6880 -0.2176  0.2258
 5406SOL    HW218226   5.139   8.144   0.199  0.5642  2.1991  0.0087
 5407SOL     OW18227   5.258   9.328   2.629  0.0556 -0.6711 -0.4398
 5407SOL    HW118228   5.171   9.367   2.638  0.4259  0.4032 -1.2045
 5407SOL    HW218229   5.315   9.384   2.681  0.7124  0.2892 -2.0935
 5408SOL     OW18230   2.988   2.481   8.831  0.1053 -0.0576 -0.2466
 5408SOL    HW118231   2.938   2.560   8.809  0.9946  0.0302 -2.1004
 5408SOL    HW218232   2.956   2.414   8.771  0.0225 -0.8761  0.6851
 5409SOL     OW18233  10.767   4.384   3.921  0.1987 -0.2766  0.2120
 5409SOL    HW118234  10.696   4.431   3.966 -0.3534 -1.0225  0.1513
 5409SOL    HW218235  10.790   4.313   3.981 -0.0423 -0.8452 -0.3593
 5410SOL     OW18236   9.822   5.975   5.208  0.2092 -0.0794 -0.4910
 5410SOL    HW118237   9.742   6.021   5.236  1.0830  0.5353  1.0824
 5410SOL    HW218238   9.834   6.002   5.117 -1.8108 -0.8386 -1.0504
 5411SOL     OW18239   8.887  10.121   4.048 -0.0894  0.0904  0.3244
 5411SOL    HW118240   8.868  10.056   4.115 -2.4805  0.9757  0.6002
 5411SOL    HW218241   8.825  10.192   4.065  2.3207  2.4551 -0.0028
 5412SOL     OW18242   6.968   6.270   0.604  0.3045  0.2574 -0.5699
 5412SOL    HW118243   6.959   6.289   0.511  0.0787  0.3855 -0.5203
 5412SOL    HW218244   6.922   6.187   0.617 -1.2176  1.1150 -0.2378
 5413SOL     OW18245   2.444   9.620   2.753  1.1610 -0.0875  0.4965
 5413SOL    HW118246   2.497   9.563   2.696  1.3450 -0.0712  0.6495
 5413SOL    HW218247   2.354   9.596   2.733  1.2352 -0.3552  0.4767
 5414SOL     OW18248   0.733   8.687  10.645  0.3614  0.0415  0.1181
 5414SOL    HW118249   0.762   8.624  10.710  0.4321 -0.8000 -0.7132
 5414SOL    HW218250   0.778   8.768  10.668  1.1674 -0.5146  0.5155
 5415SOL     OW18251   5.988   3.927   2.801 -0.4513  0.1426  0.4837
 5415SOL    HW118252   6.017   3.841   2.834 -0.0430 -0.0323 -0.3158
 5415SOL    HW218253   5.934   3.962   2.872 -1.1079 -1.0308  0.5950
 5416SOL     OW18254   9.262   4.307  10.696  0.1796 -0.1615  0.2930
 5416SOL    HW118255   9.167   4.297  10.698  0.3852 -3.3119  2.1654
 5416SOL    HW218256   9.285   4.345  10.781  0.6445 -0.3328  0.2515
 5417SOL     OW18257   3.753   5.773   2.372 -0.5645 -0.7041 -0.5122
 5417SOL    HW118258   3.828   5.821   2.337 -1.5876  0.9710 -0.5318
 5417SOL    HW218259   3.791   5.702   2.424  1.0567  0.9335  0.6439
 5418SOL     OW18260   6.469   9.136   3.117 -0.4807 -0.2058 -0.2142
 5418SOL    HW118261   6.546   9.162   3.168  0.8561 -1.8728 -1.2713
 5418SOL    HW218262   6.442   9.052   3.155 -0.5277 -0.6174 -1.1427
 5419SOL     OW18263   8.984  10.011   0.635  0.1177 -0.2965 -0.3024
 5419SOL    HW118264   8.910   9.951   0.625 -0.2460  0.5240 -4.1133
 5419SOL    HW218265   9.049   9.980   0.572  1.2018  1.5158 -0.1586
 5420SOL     OW18266  10.368   9.440  10.773  0.1411 -0.1236 -1.2471
 5420SOL    HW118267  10.449   9.459  10.726  0.2664  1.9009 -0.3341
 5420SOL    HW218268  10.307   9.509  10.746 -0.3571  0.0275  0.1603
 5421SOL     OW18269  10.850   0.359   2.443  0.0887  0.7202  0.2521
 5421SOL    HW118270  10.916   0.313   2.495 -0.6366 -0.7456 -0.0583
 5421SOL    HW218271  10.848   0.310   2.360 -0.8557  1.1962 -0.0161
 5422SOL     OW18272   8.031   8.138   4.389  0.3361  0.2302  0.6856
 5422SOL    HW118273   8.126   8.123   4.394  0.2798 -0.0093  1.1031
 5422SOL    HW218274   7.993   8.052   4.407  0.0215  0.6256  2.0416
 5423SOL     OW18275   0.401   2.164   0.029 -0.6046  0.3159  0.5934
 5423SOL    HW118276   0.439   2.246   0.061  0.6191  0.7143 -1.6635
 5423SOL    HW218277   0.340   2.137   0.098 -0.8206  2.9513  1.5421
 5424SOL     OW18278   3.149   3.461   3.985 -0.2658 -0.8366  0.0318
 5424SOL    HW118279   3.098   3.456   4.066 -0.3213 -1.7577 -0.0522
 5424SOL    HW218280   3.238   3.483   4.014 -0.0455 -2.1754  0.4568
 5425SOL     OW18281   5.063   9.502   4.324  0.3442 -0.4896 -0.2756
 5425SOL    HW118282   5.040   9.501   4.232  0.8241  1.4881 -0.4602
 5425SOL    HW218283   5.001   9.441   4.365  0.3127 -1.6225 -1.9012
 5426SOL     OW18284  10.759   8.659   0.922  0.5107 -0.3195  0.6438
 5426SOL    HW118285  10.748   8.678   1.015 -0.9390  0.0229  0.4204
 5426SOL    HW218286  10.670   8.648   0.889  1.0388 -1.1202 -0.5680
 5427SOL     OW18287  10.303   7.806   2.498  0.0478  0.5548 -0.4723
 5427SOL    HW118288  10.309   7.711   2.505  4.5643  0.7006  1.6484
 5427SOL    HW218289  10.369   7.829   2.433  1.3268  2.2608  1.3152
 5428SOL     OW18290   2.859   7.974   1.874  0.5385  0.6327 -0.1657
 5428SOL    HW118291   2.770   7.963   1.908  0.6705  1.0838  0.3264
 5428SOL    HW218292   2.847   8.018   1.790  0.3013  0.8347 -0.0284
 5429SOL     OW18293  10.945   9.971   4.364 -0.2844 -0.6926 -0.5019
 5429SOL    HW118294  10.914  10.055   4.399  0.8537  0.5377 -2.3001
 5429SOL    HW218295  10.865   9.925   4.338 -0.8778  0.2673 -0.4433
 5430SOL     OW18296   0.229   6.481   6.094  0.1403  0.0638  0.5378
 5430SOL    HW118297   0.275   6.457   6.013 -2.0157  0.3663 -0.8666
 5430SOL    HW218298   0.286   6.544   6.136  1.3134 -0.0565 -0.7870
 5431SOL     OW18299  10.978   4.187   4.905 -0.5242 -0.3274 -0.2756
 5431SOL    HW118300  10.980   4.127   4.831 -0.4069 -0.4605 -0.1643
 5431SOL    HW218301  10.975   4.274   4.866 -1.0724 -0.4155 -0.4414
 5432SOL     OW18302   5.530   0.307   3.409 -0.5011  0.1759 -0.2385
 5432SOL    HW118303   5.476   0.334   3.335 -0.2757 -0.3810 -0.6136
 5432SOL    HW218304   5.467   0.296   3.481 -1.0428 -1.3127 -0.8921
 5433SOL     OW18305   5.251  10.052  10.125  0.6275  0.1752 -0.1256
 5433SOL    HW118306   5.325  10.068  10.067 -0.2888  0.6350 -1.2067
 5433SOL    HW218307   5.276  10.092  10.208  1.2833  0.9745 -0.6972
 5434SOL     OW18308   0.071   0.596   3.952  0.6857  1.2884  0.3620
 5434SOL    HW118309   0.028   0.596   3.866 -1.7315  0.8336  1.4862
 5434SOL    HW218310   0.098   0.505   3.965 -1.7974  0.6146  1.3329
 5435SOL     OW18311   0.888   2.466   3.890  0.2461 -0.0039  0.0937
 5435SOL    HW118312   0.887   2.427   3.977  0.7922 -0.9242 -0.2971
 5435SOL    HW218313   0.802   2.443   3.853  1.0654 -2.1551 -0.6597
 5436SOL     OW18314   4.901   9.195   5.861 -0.6269  0.8136 -0.5409
 5436SOL    HW118315   4.984   9.195   5.909 -0.6081  2.5261 -0.5197
 5436SOL    HW218316   4.891   9.105   5.831  0.5740  0.2635  0.5924
 5437SOL     OW18317   0.791  10.522  10.568 -0.1106  0.6755  0.2589
 5437SOL    HW118318   0.780  10.427  10.559  0.4168  0.6888 -0.6480
 5437SOL    HW218319   0.877  10.533  10.606 -0.0386  0.7953  0.0658
 5438SOL     OW18320  11.058  10.121   3.701  0.4175  0.2044 -0.1163
 5438SOL    HW118321  11.048  10.126   3.606  2.0861  0.0777 -0.3291
 5438SOL    HW218322  11.018  10.038   3.726 -1.3095  0.8870 -0.4901
 5439SOL     OW18323   4.722   0.372   1.371  0.3423 -0.0986 -0.2963
 5439SOL    HW118324   4.719   0.346   1.279 -0.5885 -0.7174 -0.1093
 5439SOL    HW218325   4.639   0.418   1.385  0.6947  0.4245  0.1161
 5440SOL     OW18326   0.689   5.207   3.458  0.3876 -0.0937  0.5024
 5440SOL    HW118327   0.729   5.241   3.537  1.0309 -0.4626  0.3417
 5440SOL    HW218328   0.742   5.242   3.387 -0.2516  0.3266  0.2215
 5441SOL     OW18329   7.690   5.365   9.917  0.4098 -0.1780  0.6093
 5441SOL    HW118330   7.679   5.401  10.005  0.6302 -0.8802  0.9314
 5441SOL    HW218331   7.622   5.408   9.865 -0.3888 -0.5075  1.3555
 5442SOL     OW18332   1.182   1.671   1.419 -0.0239  0.1240  0.0710
 5442SOL    HW118333   1.093   1.656   1.386  0.0808  1.2224 -0.7701
 5442SOL    HW218334   1.184   1.626   1.504 -0.5886 -2.0287 -1.0002
 5443SOL     OW18335   5.735   8.677   4.702 -0.5286  0.5596  0.2639
 5443SOL    HW118336   5.812   8.690   4.758  1.6561 -0.1700 -2.3660
 5443SOL    HW218337   5.692   8.600   4.739  0.5749  0.3613  1.2244
 5444SOL     OW18338   4.955   8.266   6.705 -0.0743  0.5769 -0.0326
 5444SOL    HW118339   4.974   8.351   6.744 -0.1013  0.2199  0.7782
 5444SOL    HW218340   4.860   8.263   6.697 -0.0357  0.8851 -0.6850
 5445SOL     OW18341  10.811   6.213   2.159  0.1376 -0.6133 -0.2633
 5445SOL    HW118342  10.878   6.166   2.209 -0.1506 -1.6025 -0.7676
 5445SOL    HW218343  10.728   6.187   2.199 -0.0001 -0.0944 -0.2038
 5446SOL     OW18344   0.238   7.803   7.609  0.5071  0.0317  0.2552
 5446SOL    HW118345   0.183   7.725   7.613 -0.5671  0.7344 -0.3114
 5446SOL    HW218346   0.325   7.770   7.587  0.7495 -1.2838  2.8449
 5447SOL     OW18347   8.741   6.600   7.188  0.4935  0.1403  0.1949
 5447SOL    HW118348   8.713   6.643   7.269  0.2175 -0.6669  0.5439
 5447SOL    HW218349   8.828   6.635   7.170  0.2664  0.8575  0.4431
 5448SOL     OW18350  10.494   9.366   0.531  0.0087 -0.3244 -0.5499
 5448SOL    HW118351  10.551   9.442   0.544  0.4815 -1.0621  2.6678
 5448SOL    HW218352  10.550   9.302   0.487  0.4939  0.2241 -0.7470
 5449SOL     OW18353   6.392   9.865   1.437 -0.0477 -0.2820 -0.1058
 5449SOL    HW118354   6.410   9.775   1.462 -1.2399 -0.4447  0.2080
 5449SOL    HW218355   6.311   9.887   1.482 -0.9128  0.2434 -1.8383
 5450SOL     OW18356   6.930   1.231   6.765 -0.0923  0.1165 -0.3117
 5450SOL    HW118357   6.979   1.277   6.696  0.0906  1.2302  0.5308
 5450SOL    HW218358   6.997   1.196   6.823 -0.2557  0.3709  0.0388
 5451SOL     OW18359   2.510   5.387   1.000 -0.1535  0.3037  1.0035
 5451SOL    HW118360   2.504   5.306   0.947  0.8057  0.5983  0.4320
 5451SOL    HW218361   2.546   5.452   0.940  0.3018  0.8300  1.8334
 5452SOL     OW18362   3.422  10.378   2.160  0.2603  0.2866 -0.1294
 5452SOL    HW118363   3.380  10.428   2.230 -0.7574  0.2097 -0.6678
 5452SOL    HW218364   3.457  10.444   2.101 -0.2464  0.3691 -0.3459
 5453SOL     OW18365  11.019   4.028   9.702  0.3049  0.0198 -0.2964
 5453SOL    HW118366  11.098   3.975   9.713  0.0142 -1.1119 -3.0381
 5453SOL    HW218367  11.011   4.075   9.785  2.3994 -1.7640  1.0381
 5454SOL     OW18368   2.073   7.650   0.172 -0.3312  0.0786  0.3618
 5454SOL    HW118369   2.025   7.572   0.145 -0.5591  1.4003 -3.7028
 5454SOL    HW218370   2.007   7.719   0.176  0.4021  0.7868  0.4598
 5455SOL     OW18371   8.714   0.880   2.124 -0.5563 -0.3086  0.1222
 5455SOL    HW118372   8.711   0.957   2.181  0.4537 -0.8341  0.9190
 5455SOL    HW218373   8.639   0.826   2.153 -1.3937  0.4485 -0.5833
 5456SOL     OW18374   7.378   0.046   2.974  0.1019 -0.4404 -0.2792
 5456SOL    HW118375   7.344   0.134   2.957 -1.7082 -0.5628  2.1704
 5456SOL    HW218376   7.303  -0.011   2.964  0.7478 -1.4261  0.3098
 5457SOL     OW18377  10.870   1.486   8.537  0.1102 -0.3020  0.2000
 5457SOL    HW118378  10.800   1.533   8.492 -0.2120  0.0475  1.0331
 5457SOL    HW218379  10.948   1.500   8.484  0.3147  2.2580  1.0599
 5458SOL     OW18380   8.421   9.277   0.377  0.4618  0.4826 -0.0831
 5458SOL    HW118381   8.498   9.220   0.388  1.5223  1.5702 -1.5618
 5458SOL    HW218382   8.451   9.363   0.405 -0.3693  0.8240 -0.2207
 5459SOL     OW18383   3.763  10.977   1.056  0.3834 -0.4321 -0.2239
 5459SOL    HW118384   3.685  10.956   1.107 -0.7727  3.0901 -0.2372
 5459SOL    HW218385   3.834  10.983   1.121 -0.3007  0.4618  0.4633
 5460SOL     OW18386   3.853   8.773   9.023  0.1110 -0.2699  0.4836
 5460SOL    HW118387   3.865   8.861   9.058  1.4166 -0.3468  0.2552
 5460SOL    HW218388   3.926   8.722   9.057 -0.7066 -1.3128  0.7261
 5461SOL     OW18389   4.711   4.047   0.005 -0.2777 -0.3103 -0.0843
 5461SOL    HW118390   4.737   4.129  -0.037  0.3689  0.7598  2.2297
 5461SOL    HW218391   4.789   4.021   0.055 -0.8057 -1.8181 -0.0089
 5462SOL     OW18392   8.760   4.897   8.253  0.1739  0.0930  0.3623
 5462SOL    HW118393   8.686   4.908   8.193 -0.9220  1.7328  1.8848
 5462SOL    HW218394   8.808   4.980   8.248  1.3755 -0.5955  0.1185
 5463SOL     OW18395   2.821   2.202   3.592  0.0701  0.1648  0.5059
 5463SOL    HW118396   2.899   2.172   3.546  0.7022  0.0514  1.6132
 5463SOL    HW218397   2.767   2.123   3.603  1.0244 -0.3115  2.0516
 5464SOL     OW18398  10.107   8.751   6.711  0.1507 -0.3147  0.1175
 5464SOL    HW118399  10.144   8.709   6.633  1.3446  0.5085  0.2180
 5464SOL    HW218400  10.106   8.682   6.777 -0.1527 -0.8140 -0.3962
 5465SOL     OW18401   5.027   6.102   0.992 -0.1306 -0.0071 -0.5008
 5465SOL    HW118402   5.094   6.119   0.925  1.9781  0.4757  1.6203
 5465SOL    HW218403   5.047   6.163   1.063 -2.6400 -0.1183  0.3990
 5466SOL     OW18404   1.643   5.427   2.147  0.2269 -0.3350 -0.1340
 5466SOL    HW118405   1.733   5.398   2.165  0.5840  0.6499 -0.2995
 5466SOL    HW218406   1.619   5.382   2.066  0.2693 -1.2326  0.3367
 5467SOL     OW18407   2.361   7.626  10.134  0.3789 -0.1363  0.2483
 5467SOL    HW118408   2.323   7.559  10.076 -0.6937  1.0493 -0.4986
 5467SOL    HW218409   2.301   7.700  10.125  2.2335  1.4049  0.0049
 5468SOL     OW18410  10.308   6.867   4.067  0.1847  0.0873 -0.1592
 5468SOL    HW118411  10.360   6.929   4.015  1.8883 -1.0080  0.1710
 5468SOL    HW218412  10.319   6.896   4.157  0.7479 -0.4999 -0.0313
 5469SOL     OW18413   1.910   3.542   9.279  0.0155  0.6261  0.3738
 5469SOL    HW118414   1.916   3.540   9.184 -0.2006 -0.3887  0.3687
 5469SOL    HW218415   1.921   3.634   9.302 -0.5590  0.9727 -0.6736
 5470SOL     OW18416   4.712   3.314   3.630 -0.4144  0.4011 -0.1598
 5470SOL    HW118417   4.635   3.367   3.611 -2.4610 -2.6338 -1.1411
 5470SOL    HW218418   4.681   3.249   3.693  0.5205 -2.3559 -2.2957
 5471SOL     OW18419   5.419   6.891   3.347 -0.4364  0.0027 -0.4832
 5471SOL    HW118420   5.383   6.977   3.371 -1.2875 -0.4099 -0.2419
 5471SOL    HW218421   5.491   6.911   3.288 -1.2375  0.8616 -1.2037
 5472SOL     OW18422   6.779   8.061   3.781 -0.7476  0.0168 -0.3038
 5472SOL    HW118423   6.791   7.966   3.791  0.0877  0.0841 -0.6657
 5472SOL    HW218424   6.807   8.098   3.865 -2.7525 -0.1682  0.5235
 5473SOL     OW18425   1.866   3.675   8.703  0.2172 -0.5560 -0.0450
 5473SOL    HW118426   1.921   3.616   8.651 -0.5404 -2.1296  0.8480
 5473SOL    HW218427   1.921   3.697   8.778  0.0995 -1.0979  0.2084
 5474SOL     OW18428   5.011   9.590   1.416  0.0600 -0.3007  0.4370
 5474SOL    HW118429   4.982   9.682   1.415  0.5364 -0.1371 -0.9750
 5474SOL    HW218430   4.972   9.553   1.337  0.6175 -1.0784  0.5265
 5475SOL     OW18431   0.576   4.064   9.805  0.2081 -0.6099 -0.3785
 5475SOL    HW118432   0.632   4.142   9.812 -0.8421  0.1749 -0.5253
 5475SOL    HW218433   0.524   4.065   9.885 -0.9230 -0.2678 -1.1023
 5476SOL     OW18434  10.029   8.560   2.610 -0.1409  0.1348  0.0506
 5476SOL    HW118435  10.057   8.651   2.625 -0.7525  0.0428  2.1475
 5476SOL    HW218436  10.111   8.511   2.603  0.1995  0.8315 -1.2135
 5477SOL     OW18437   8.922   7.940   3.488 -0.6321 -0.0046 -0.2293
 5477SOL    HW118438   8.966   7.948   3.573 -3.8381 -1.2500  1.7243
 5477SOL    HW218439   8.923   7.847   3.469 -2.4122 -0.0943 -0.0467
 5478SOL     OW18440   9.132   3.495   4.481 -0.0574 -0.0897  0.4105
 5478SOL    HW118441   9.074   3.435   4.434  0.3505  0.1931 -0.4783
 5478SOL    HW218442   9.203   3.439   4.513 -0.4520 -0.3217  0.8938
 5479SOL     OW18443   2.725  10.846   5.658 -0.6668 -0.1927 -0.0356
 5479SOL    HW118444   2.743  10.752   5.665 -0.8156 -0.3626 -1.5798
 5479SOL    HW218445   2.811  10.886   5.645 -0.5221 -0.0159  1.3589
 5480SOL     OW18446  10.395   3.139  10.026  0.2052 -0.4622  0.4338
 5480SOL    HW118447  10.338   3.216  10.029  1.0030  0.1469  0.2400
 5480SOL    HW218448  10.464   3.158  10.089 -0.0562 -1.4139  1.0292
 5481SOL     OW18449   5.344   7.795   8.926  0.5514 -0.0031 -0.5016
 5481SOL    HW118450   5.408   7.733   8.960 -1.1730 -1.7079 -0.1832
 5481SOL    HW218451   5.353   7.872   8.982  1.1724 -0.8643  0.6219
 5482SOL     OW18452   1.681   1.817   0.008 -0.1030  0.0583  0.3272
 5482SOL    HW118453   1.743   1.887  -0.011  0.8546 -0.8473 -0.0215
 5482SOL    HW218454   1.613   1.826  -0.058  1.4938 -1.0410 -1.5790
 5483SOL     OW18455  10.148   7.888   2.707 -0.5510 -0.6556  0.2218
 5483SOL    HW118456  10.073   7.830   2.705 -2.1177  1.2795 -1.9154
 5483SOL    HW218457  10.197   7.866   2.627 -0.4496  0.0478  0.0880
 5484SOL     OW18458  10.378   4.083   0.474  0.1036 -0.5647  0.2675
 5484SOL    HW118459  10.354   4.043   0.391 -2.1371  1.0441  0.0707
 5484SOL    HW218460  10.335   4.030   0.541 -1.2693  0.3220  0.1225
 5485SOL     OW18461   3.144   2.066   3.219 -0.2957  0.0674 -1.1808
 5485SOL    HW118462   3.239   2.072   3.211  0.0476 -1.2050  1.1767
 5485SOL    HW218463   3.120   1.987   3.171  0.0533 -0.4295 -0.5532
 5486SOL     OW18464   1.879   8.315   5.125  0.4602  0.2383  0.3189
 5486SOL    HW118465   1.904   8.339   5.036  2.3085  1.0242  0.9802
 5486SOL    HW218466   1.851   8.224   5.120 -0.7154  0.6504 -1.2515
 5487SOL     OW18467   9.100  10.533   2.287 -0.1480 -0.3700  0.8428
 5487SOL    HW118468   9.171  10.584   2.246  0.3440 -1.9535 -0.3843
 5487SOL    HW218469   9.140  10.496   2.366  0.3916 -1.1389  0.2316
 5488SOL     OW18470   6.893   6.779  10.472  0.2425  0.0269 -0.4512
 5488SOL    HW118471   6.959   6.779  10.403 -0.0013 -0.0883 -0.6876
 5488SOL    HW218472   6.918   6.852  10.529  0.7119 -0.1701 -0.4015
 5489SOL     OW18473   9.867  10.294   8.529 -0.1666 -0.3811 -0.3436
 5489SOL    HW118474   9.804  10.271   8.597  0.6045 -0.4836  0.3622
 5489SOL    HW218475   9.849  10.233   8.458  0.7900 -2.1927  0.8687
 5490SOL     OW18476   1.121   6.722   6.635 -0.3697  0.6807  0.6087
 5490SOL    HW118477   1.082   6.655   6.691 -0.6989  1.0593  0.8449
 5490SOL    HW218478   1.204   6.744   6.678 -0.6356  0.9919  0.9692
 5491SOL     OW18479  10.062   8.414   3.873  0.5603  0.0261  0.5849
 5491SOL    HW118480  10.152   8.385   3.883  0.3149 -0.6919  0.7694
 5491SOL    HW218481  10.010   8.334   3.881 -0.3583  0.7897  4.1922
 5492SOL     OW18482   2.885   5.009   0.537 -0.0773  0.1659 -0.4530
 5492SOL    HW118483   2.831   4.937   0.504 -0.1557  0.9485 -2.1299
 5492SOL    HW218484   2.950   5.024   0.469  0.8349  0.7643  0.5143
 5493SOL     OW18485   2.571   4.884   1.721  1.0848 -0.1096  0.6224
 5493SOL    HW118486   2.521   4.902   1.801  0.0548 -0.8278  0.1660
 5493SOL    HW218487   2.568   4.966   1.672 -0.4530 -0.3749  0.1997
 5494SOL     OW18488   8.752   5.146   5.170 -0.7114  0.4133  0.6462
 5494SOL    HW118489   8.817   5.080   5.195  0.0966 -0.2244 -2.6910
 5494SOL    HW218490   8.668   5.102   5.180 -0.3839 -0.0876  1.2765
 5495SOL     OW18491   9.798   6.084   5.932 -0.2657  0.3164 -0.4172
 5495SOL    HW118492   9.724   6.071   5.873 -1.3600  0.2454  0.9190
 5495SOL    HW218493   9.858   6.139   5.882 -1.5128  0.9269 -1.3121
 5496SOL     OW18494   2.295   7.684   7.831 -0.2807 -0.2326  0.1579
 5496SOL    HW118495   2.380   7.645   7.853 -0.0814  0.3095  0.3515
 5496SOL    HW218496   2.243   7.675   7.911 -0.7286 -1.3797 -0.2256
 5497SOL     OW18497   6.397   8.419   5.903  0.2103  0.1548  0.7306
 5497SOL    HW118498   6.486   8.382   5.902  0.0552 -0.2726  1.6494
 5497SOL    HW218499   6.347   8.359   5.958 -1.0541 -0.4797 -1.0135
 5498SOL     OW18500   1.212   8.905   7.232 -0.4597  0.1584  0.5475
 5498SOL    HW118501   1.121   8.930   7.249 -1.3171 -1.4747 -1.1531
 5498SOL    HW218502   1.229   8.834   7.294 -1.1171 -0.9521 -0.4927
 5499SOL     OW18503   5.992   1.022   6.398  0.1729 -0.5208  0.3080
 5499SOL    HW118504   6.083   1.000   6.417  0.6095  0.3030 -0.7759
 5499SOL    HW218505   5.994   1.112   6.367 -0.9432 -0.6804 -0.2890
 5500SOL     OW18506  10.104   3.703   0.632 -0.0273  0.2211 -0.0726
 5500SOL    HW118507  10.101   3.635   0.699 -0.9007 -0.0071 -0.3326
 5500SOL    HW218508  10.171   3.764   0.663  1.0384 -0.9373 -0.0220
 5501SOL     OW18509  10.522   5.050   9.415  0.4101  0.0847  0.1745
 5501SOL    HW118510  10.460   5.035   9.486  2.2009 -0.2206  1.7337
 5501SOL    HW218511  10.546   5.143   9.422 -1.3933  0.7729 -1.7656
 5502SOL     OW18512   2.374   9.954   4.780 -0.0119 -0.1651 -0.2086
 5502SOL    HW118513   2.439   9.999   4.725  1.1522  0.3519  1.5142
 5502SOL    HW218514   2.330  10.024   4.827  1.5349 -0.6884  2.1851
 5503SOL     OW18515   3.379   4.074   5.321  0.3411  0.3594 -0.2642
 5503SOL    HW118516   3.443   4.144   5.306 -0.1818  0.4391 -2.4107
 5503SOL    HW218517   3.297   4.109   5.286 -0.9176  0.1928  2.2842
 5504SOL     OW18518   4.885   2.016   0.868  0.1830  0.5759 -0.0792
 5504SOL    HW118519   4.932   1.982   0.944 -2.4814 -0.9781  1.0041
 5504SOL    HW218520   4.886   1.944   0.805  1.2417  1.3946 -1.0540
 5505SOL     OW18521   0.795   2.394   8.379  0.4773  0.1497 -0.8376
 5505SOL    HW118522   0.723   2.453   8.357  0.7376  0.2289 -1.5141
 5505SOL    HW218523   0.846   2.440   8.445  0.4124  0.4813 -1.0180
 5506SOL     OW18524   1.265   7.540   2.953 -0.1747  0.0083 -0.0146
 5506SOL    HW118525   1.226   7.510   3.036 -1.6242  1.7318 -0.0157
 5506SOL    HW218526   1.320   7.467   2.925 -0.9988 -1.3041  1.6015
 5507SOL     OW18527   9.769   3.120   5.868 -0.7075  0.0992 -0.0893
 5507SOL    HW118528   9.703   3.090   5.930 -0.1963 -2.0112 -0.4850
 5507SOL    HW218529   9.726   3.116   5.783 -0.6905  0.7092 -0.1305
 5508SOL     OW18530   8.132   1.851   0.406  0.1003  0.5424 -0.1310
 5508SOL    HW118531   8.090   1.874   0.323  0.6404  0.0893 -0.5367
 5508SOL    HW218532   8.109   1.759   0.420  0.9644  0.2812 -0.3684
 5509SOL     OW18533  11.071   9.637   7.567 -0.4572 -0.4509  0.0485
 5509SOL    HW118534  11.016   9.698   7.517 -0.3120 -0.1767  0.2210
 5509SOL    HW218535  11.143   9.691   7.600 -0.3514 -0.7081  0.2401
 5510SOL     OW18536   7.029   4.785   1.700 -0.4881 -0.0826  0.0996
 5510SOL    HW118537   7.054   4.871   1.668 -1.7985  0.8512  1.4401
 5510SOL    HW218538   7.025   4.795   1.795  0.9359 -2.0909  0.4215
 5511SOL     OW18539   0.164   9.820   3.306  0.0400 -0.3978  0.4618
 5511SOL    HW118540   0.184   9.888   3.371 -2.4381  1.5848 -0.6639
 5511SOL    HW218541   0.074   9.794   3.326 -0.5569 -0.1798 -1.7443
 5512SOL     OW18542  10.169   8.940   0.066  0.0961  0.0449  0.0526
 5512SOL    HW118543  10.237   8.883   0.031  0.2737 -0.0077  0.4783
 5512SOL    HW218544  10.198   8.961   0.155  1.4022  2.9838 -0.9381
 5513SOL     OW18545   1.517   5.858   5.779 -0.4453  0.7503 -0.1914
 5513SOL    HW118546   1.477   5.906   5.852 -0.0005 -0.5547  0.9673
 5513SOL    HW218547   1.609   5.884   5.782  0.2734 -1.6384  1.8087
 5514SOL     OW18548   4.522   5.372   2.946 -0.3044  0.1533  0.2766
 5514SOL    HW118549   4.483   5.395   3.030 -0.4147  0.0792  0.2467
 5514SOL    HW218550   4.546   5.456   2.906 -1.7446  0.3100 -0.3266
 5515SOL     OW18551   2.001   0.226   3.852  0.2958 -0.2111 -0.0356
 5515SOL    HW118552   2.017   0.239   3.945 -3.5708  1.8534  0.5306
 5515SOL    HW218553   1.930   0.162   3.848 -0.8312  1.0402 -1.4120
 5516SOL     OW18554   9.137  10.896   4.281  0.7065 -0.0531  0.4048
 5516SOL    HW118555   9.205  10.963   4.269  0.3585  0.1999 -0.1988
 5516SOL    HW218556   9.071  10.938   4.335 -0.0897  0.5271 -0.9735
 5517SOL     OW18557   5.200   0.198   3.865  0.3567  0.4486 -0.5268
 5517SOL    HW118558   5.279   0.207   3.811  0.4239  0.1585 -0.4791
 5517SOL    HW218559   5.233   0.194   3.955  0.2015  1.6509 -0.3950
 5518SOL     OW18560   6.116   9.079  11.051 -0.1624  0.1882  0.4453
 5518SOL    HW118561   6.174   9.069  11.127  1.6207  1.3194 -0.6812
 5518SOL    HW218562   6.133   9.001  10.999 -0.3283  0.0809  0.5530
 5519SOL     OW18563   6.480   7.703   9.315  0.0029  0.1364  0.0986
 5519SOL    HW118564   6.390   7.689   9.284 -0.4043  2.3486  0.0790
 5519SOL    HW218565   6.471   7.717   9.409  0.2659  0.6367  0.0554
 5520SOL     OW18566  10.472   9.989   6.808  0.4048  0.4438 -0.4106
 5520SOL    HW118567  10.457  10.046   6.732 -1.5689  0.4293 -0.0863
 5520SOL    HW218568  10.500  10.049   6.878  0.2603  0.7369 -0.6040
 5521SOL     OW18569   1.377   7.248   7.118  0.4327 -0.2995 -0.2562
 5521SOL    HW118570   1.444   7.295   7.069 -0.1956  0.8388 -0.0448
 5521SOL    HW218571   1.406   7.254   7.209 -0.0367  0.3556 -0.1428
 5522SOL     OW18572   9.051   0.811   0.387  0.5169  0.7774  0.0890
 5522SOL    HW118573   9.067   0.718   0.370 -0.4533  0.4396  0.9703
 5522SOL    HW218574   8.957   0.818   0.403  0.4409  2.0514 -0.7763
 5523SOL     OW18575   1.127   0.372   6.077 -0.0764  0.0094 -0.3717
 5523SOL    HW118576   1.159   0.367   5.987  0.0945 -1.4504 -0.2482
 5523SOL    HW218577   1.164   0.295   6.121 -1.5976 -0.2794  0.4702
 5524SOL     OW18578   9.164   8.996   4.820  0.1891 -0.7117  0.8508
 5524SOL    HW118579   9.130   9.059   4.757  0.4993 -0.8291  0.5629
 5524SOL    HW218580   9.138   8.910   4.786  1.3611 -0.8508  0.2454
 5525SOL     OW18581   8.846  10.390   4.728 -0.0245  0.7984 -0.0100
 5525SOL    HW118582   8.897  10.414   4.650  0.7176 -1.3545 -0.2421
 5525SOL    HW218583   8.755  10.401   4.701  0.2147 -0.0682 -1.2797
 5526SOL     OW18584   6.564   4.423   6.474  0.0828  0.4455 -0.4523
 5526SOL    HW118585   6.502   4.452   6.541 -1.4237 -2.5020 -0.3888
 5526SOL    HW218586   6.618   4.358   6.518 -0.4670 -1.0309 -1.8191
 5527SOL     OW18587  10.354   3.224   5.042 -0.8274 -0.3985 -0.3574
 5527SOL    HW118588  10.376   3.153   5.102 -0.5008  0.0237  0.0320
 5527SOL    HW218589  10.306   3.181   4.970  0.2612 -1.1693 -0.6489
 5528SOL     OW18590   3.094   0.239   1.749  0.3521  1.0988 -0.0687
 5528SOL    HW118591   3.070   0.224   1.658 -1.9657  0.3941  0.5941
 5528SOL    HW218592   3.121   0.153   1.782  1.0786  1.3282 -0.0533
 5529SOL     OW18593   1.872   2.754   5.492  0.0030  0.3498  0.3195
 5529SOL    HW118594   1.786   2.718   5.513  0.3602 -0.9544 -0.3433
 5529SOL    HW218595   1.923   2.741   5.572  0.4119 -1.6038 -0.2024
 5530SOL     OW18596   9.401   5.268   9.938  0.2298 -0.3829  0.4643
 5530SOL    HW118597   9.455   5.302   9.866 -0.9683  1.0228  0.1708
 5530SOL    HW218598   9.368   5.184   9.905  1.8701 -1.0822  0.5019
 5531SOL     OW18599   8.572   4.319   0.968  0.6854  0.0130  0.0059
 5531SOL    HW118600   8.538   4.235   0.940 -0.5651  0.5626 -0.2027
 5531SOL    HW218601   8.611   4.357   0.889  0.6670 -0.0983 -0.0568
 5532SOL     OW18602  10.492   0.811   5.541  0.4524 -0.2189  0.6387
 5532SOL    HW118603  10.518   0.902   5.530  1.9019 -0.7015 -0.1487
 5532SOL    HW218604  10.410   0.804   5.491  1.1953  0.2706 -0.6877
 5533SOL     OW18605   5.959   8.294   5.487 -0.8156  0.4977  0.0657
 5533SOL    HW118606   6.014   8.224   5.520 -1.0019  0.3827  0.1331
 5533SOL    HW218607   5.881   8.250   5.453 -1.0301  0.6885  0.3049
 5534SOL     OW18608   2.697  10.842  10.966 -0.0390  0.6159 -0.4913
 5534SOL    HW118609   2.746  10.880  10.894 -0.9098  1.0267 -0.8790
 5534SOL    HW218610   2.640  10.913  10.997 -1.5353 -0.2835 -1.0801
 5535SOL     OW18611   5.953   8.638   9.713  0.3147 -0.0626 -0.0953
 5535SOL    HW118612   5.926   8.728   9.697 -0.0147  0.5624  3.1704
 5535SOL    HW218613   6.048   8.639   9.696  0.4009  1.0525  0.3149
 5536SOL     OW18614   3.974   5.810   5.551  0.1087  0.5699 -0.2199
 5536SOL    HW118615   4.012   5.735   5.596 -0.4231  0.8165  0.6780
 5536SOL    HW218616   4.011   5.886   5.597 -0.0576  0.8397 -0.5314
 5537SOL     OW18617   5.831   7.890   3.647  0.1550  0.6930 -0.1213
 5537SOL    HW118618   5.915   7.913   3.608 -0.3138  1.7006 -0.5960
 5537SOL    HW218619   5.780   7.971   3.643 -0.7527  0.1661  0.3748
 5538SOL     OW18620   6.121   8.386   4.969  0.2763 -0.5341  0.2431
 5538SOL    HW118621   6.085   8.345   4.890  0.0383  1.5236 -0.7935
 5538SOL    HW218622   6.209   8.414   4.944 -0.1503  1.0035  0.3291
 5539SOL     OW18623   1.437   9.584   8.963 -0.2083  0.0676  0.2887
 5539SOL    HW118624   1.506   9.610   8.902 -0.1978 -0.5934  0.0086
 5539SOL    HW218625   1.433   9.655   9.026 -0.2043  0.7552 -0.4696
 5540SOL     OW18626   7.551   4.193   2.126 -0.3154  0.0006 -0.2921
 5540SOL    HW118627   7.639   4.232   2.128 -0.3475  0.0864 -0.5377
 5540SOL    HW218628   7.506   4.240   2.057  0.0364 -1.3156 -1.4685
 5541SOL     OW18629   3.084   7.524   3.720 -0.0051  0.0721  0.0229
 5541SOL    HW118630   3.090   7.434   3.688 -0.7306 -0.4265  1.2185
 5541SOL    HW218631   3.175   7.549   3.738  0.1457 -0.6824  0.3626
 5542SOL     OW18632   5.978   9.470   3.828 -0.4819  0.1283  0.1424
 5542SOL    HW118633   5.941   9.558   3.823 -0.6575  0.0392 -0.1796
 5542SOL    HW218634   6.051   9.471   3.766 -0.3459  0.1121  0.3009
 5543SOL     OW18635   3.520   1.252   3.178 -0.7851 -0.0820  0.0330
 5543SOL    HW118636   3.549   1.283   3.264 -0.9870  0.4764 -0.0938
 5543SOL    HW218637   3.527   1.329   3.121 -0.6246 -0.4527 -0.4605
 5544SOL     OW18638   0.921   3.423   8.385  0.4026 -0.3125  1.0009
 5544SOL    HW118639   0.902   3.362   8.456  0.1393  0.0091  1.2100
 5544SOL    HW218640   0.954   3.501   8.429  0.5477 -0.2324  0.7493
 5545SOL     OW18641   5.107   4.996   9.856 -0.0823  0.3259  0.2642
 5545SOL    HW118642   5.113   5.083   9.896  1.4492  0.5428 -0.3578
 5545SOL    HW218643   5.038   5.005   9.790  0.6047  1.3294 -0.3599
 5546SOL     OW18644   9.604   0.869   5.645 -0.3224  0.6295 -0.4232
 5546SOL    HW118645   9.678   0.911   5.600  1.3690 -0.8817  0.7767
 5546SOL    HW218646   9.568   0.809   5.581 -1.1226  2.0093 -1.3099
 5547SOL     OW18647   5.240   8.023   8.200 -0.1284  0.2398  0.1024
 5547SOL    HW118648   5.149   8.051   8.212 -0.1079  1.0789 -1.4070
 5547SOL    HW218649   5.238   7.971   8.120  0.8300  0.8832 -0.3575
 5548SOL     OW18650   8.519   8.420   3.913  0.1617  0.0303 -0.1964
 5548SOL    HW118651   8.518   8.384   3.824  0.5639 -0.2134 -0.1064
 5548SOL    HW218652   8.539   8.345   3.969  1.7146  0.4864 -0.0707
 5549SOL     OW18653   6.628   5.818   5.919  0.1597  0.0062  0.2421
 5549SOL    HW118654   6.537   5.812   5.948  0.0894  1.6484  0.5002
 5549SOL    HW218655   6.679   5.807   5.998  0.0779  1.2082  0.4926
 5550SOL     OW18656   9.393  10.979   1.143  0.3897  0.6295 -0.3511
 5550SOL    HW118657   9.482  11.004   1.167  0.7020 -0.4383 -0.3173
 5550SOL    HW218658   9.382  10.892   1.183 -0.5414  0.6051 -0.6458
 5551SOL     OW18659   3.724   3.374  10.182  0.1665 -0.1984 -0.1533
 5551SOL    HW118660   3.696   3.438  10.116  1.2224  0.8156  0.3293
 5551SOL    HW218661   3.780   3.425  10.241 -0.0301 -1.2943  1.0047
 5552SOL     OW18662  10.508   7.515   9.469 -0.5237  0.2765 -0.4738
 5552SOL    HW118663  10.428   7.464   9.455  0.5228 -1.1284 -1.6513
 5552SOL    HW218664  10.500   7.590   9.410 -2.1324  1.6579  1.3555
 5553SOL     OW18665   3.249   6.856   6.124 -0.6112 -0.3512  0.2810
 5553SOL    HW118666   3.320   6.796   6.150 -0.2627 -1.1482 -2.2513
 5553SOL    HW218667   3.169   6.810   6.150 -0.3076 -1.3706 -0.5263
 5554SOL     OW18668  10.708   5.565   4.273  0.1825  0.1448  0.2721
 5554SOL    HW118669  10.784   5.593   4.325  0.5194  1.5487 -0.9290
 5554SOL    HW218670  10.741   5.493   4.219  0.6660  0.7248 -0.2197
 5555SOL     OW18671   3.215   1.745   6.811  0.1411 -0.1819 -0.2893
 5555SOL    HW118672   3.184   1.666   6.855  0.2307  0.3005  0.6759
 5555SOL    HW218673   3.152   1.813   6.837  0.6446  0.2832 -0.2488
 5556SOL     OW18674   9.850   4.181   3.718 -0.1216  0.3201  0.6175
 5556SOL    HW118675   9.868   4.273   3.733 -0.3583  0.0959  2.5464
 5556SOL    HW218676   9.761   4.179   3.683 -0.1523  0.8113  0.6663
 5557SOL     OW18677   4.170  10.396   2.695  0.3074  0.0601  0.3568
 5557SOL    HW118678   4.162  10.422   2.603 -0.7955  0.6994  0.6156
 5557SOL    HW218679   4.205  10.473   2.739 -3.5545  1.5541  1.2360
 5558SOL     OW18680  10.243   7.556   9.804  0.8180  0.8352  0.0315
 5558SOL    HW118681  10.330   7.581   9.773  0.8480 -1.0140 -1.6127
 5558SOL    HW218682  10.251   7.463   9.826 -0.9453  0.3606 -1.1015
 5559SOL     OW18683   8.503   9.347   5.559  0.5074 -0.1874  0.0171
 5559SOL    HW118684   8.461   9.349   5.473 -1.1873  1.1431  0.8178
 5559SOL    HW218685   8.541   9.435   5.569 -0.2367  0.0293  1.0500
 5560SOL     OW18686   2.779   5.348   5.022  0.0723 -0.0130 -0.5262
 5560SOL    HW118687   2.697   5.379   4.983  0.5214  1.4697 -0.3504
 5560SOL    HW218688   2.837   5.424   5.020  0.2391  0.0938  2.6985
 5561SOL     OW18689   6.656   6.995   5.608  0.3033 -0.1168 -0.1253
 5561SOL    HW118690   6.692   7.065   5.554  1.4096 -1.4079 -1.1226
 5561SOL    HW218691   6.574   6.971   5.565 -1.3987  2.1250  1.5757
 5562SOL     OW18692   0.840   1.350   8.719 -0.3792 -0.5001  0.0396
 5562SOL    HW118693   0.761   1.394   8.751  0.3402  0.7833  0.0922
 5562SOL    HW218694   0.888   1.326   8.798  0.4540  0.9242 -0.0100
 5563SOL     OW18695   1.630   3.119   8.316  0.1042  0.2328  0.7437
 5563SOL    HW118696   1.547   3.166   8.322 -0.4449 -0.5187 -0.5513
 5563SOL    HW218697   1.621   3.045   8.376 -0.2805  0.0071  0.4160
 5564SOL     OW18698   9.803   9.539   3.488  0.2312 -0.1543  0.3407
 5564SOL    HW118699   9.897   9.545   3.505  0.4371 -0.4475 -0.6432
 5564SOL    HW218700   9.774   9.630   3.482  0.9313 -0.0103 -1.7680
 5565SOL     OW18701   2.549   4.480   5.154 -0.8391 -0.0355  0.0918
 5565SOL    HW118702   2.509   4.394   5.170 -1.6677  0.0217 -1.4413
 5565SOL    HW218703   2.609   4.493   5.227 -2.4034 -0.8883  1.5918
 5566SOL     OW18704   1.425   6.521   5.746  0.2357 -0.2781 -0.3661
 5566SOL    HW118705   1.449   6.488   5.659  1.3177  1.2307 -0.6916
 5566SOL    HW218706   1.330   6.528   5.744  0.2419 -0.2692 -1.4476
 5567SOL     OW18707   0.438   8.747   6.032 -0.2221 -0.4688 -0.4229
 5567SOL    HW118708   0.414   8.745   5.940  1.2272  2.5811 -0.9917
 5567SOL    HW218709   0.534   8.749   6.031 -0.1344 -1.7330  1.2517
 5568SOL     OW18710   7.060   6.396   3.819 -0.0582 -0.0913 -0.1907
 5568SOL    HW118711   7.142   6.375   3.863 -1.2607 -2.1804  1.2702
 5568SOL    HW218712   7.076   6.377   3.727  0.8249 -1.5073  0.2237
 5569SOL     OW18713  10.855   1.682   7.182 -0.3788 -0.1090 -0.2782
 5569SOL    HW118714  10.760   1.686   7.198 -0.6235 -1.6682 -1.1777
 5569SOL    HW218715  10.879   1.593   7.207  1.0106  0.4761  0.6046
 5570SOL     OW18716   0.491   2.209   1.627 -0.1685 -0.1516 -0.3905
 5570SOL    HW118717   0.551   2.263   1.678  0.0274 -0.2839 -0.4801
 5570SOL    HW218718   0.534   2.196   1.543 -0.5670  0.2022 -0.6533
 5571SOL     OW18719   2.737   8.987   1.772 -0.1278 -1.1627 -0.2218
 5571SOL    HW118720   2.659   8.984   1.716 -0.3855 -1.8601  0.1711
 5571SOL    HW218721   2.747   8.898   1.804 -0.1195 -0.7208  1.0459
 5572SOL     OW18722   7.654   3.742   5.417  0.1876  0.0248 -0.2975
 5572SOL    HW118723   7.579   3.748   5.475 -0.3920 -0.4812 -0.9736
 5572SOL    HW218724   7.713   3.812   5.445 -0.8500  0.8836 -0.2170
 5573SOL     OW18725  10.280   8.046   5.836  0.4401 -0.2671 -0.0996
 5573SOL    HW118726  10.299   8.138   5.817  0.7677 -0.2118  0.4620
 5573SOL    HW218727  10.278   8.042   5.932  0.8155 -0.9211 -0.1160
 5574SOL     OW18728   1.838   7.110  10.360  0.3904 -0.6257 -0.0344
 5574SOL    HW118729   1.871   7.192  10.322 -1.1797  0.9131  1.7246
 5574SOL    HW218730   1.848   7.046  10.290  0.3270  1.3907 -2.0204
 5575SOL     OW18731   9.058  10.478   5.996 -0.3385 -0.2268  0.5577
 5575SOL    HW118732   9.153  10.476   5.997 -0.1872  1.7771 -1.6159
 5575SOL    HW218733   9.032  10.386   5.987  1.3949 -0.7555  0.6688
 5576SOL     OW18734   5.116   8.865   3.123 -0.0283 -0.3746  0.4490
 5576SOL    HW118735   5.169   8.786   3.114 -0.0551 -0.2719 -0.7467
 5576SOL    HW218736   5.088   8.886   3.034  1.5902  2.0740  0.4027
 5577SOL     OW18737   3.828  10.518   5.126  0.3130  0.2223  0.2798
 5577SOL    HW118738   3.740  10.547   5.099  0.1228  0.0555  0.7222
 5577SOL    HW218739   3.871  10.494   5.044  0.0216  0.5125  0.0377
 5578SOL     OW18740   5.331   8.515   0.495 -0.5665 -0.1720  0.2165
 5578SOL    HW118741   5.290   8.553   0.573  0.6760 -0.7496  1.1801
 5578SOL    HW218742   5.291   8.428   0.487 -1.9473  0.5266 -0.8224
 5579SOL     OW18743   0.181   0.272   3.059 -0.0055 -0.2184  0.5910
 5579SOL    HW118744   0.240   0.336   3.019  1.7207 -2.1853 -0.1848
 5579SOL    HW218745   0.126   0.243   2.986  0.4672 -0.9414  0.5175
 5580SOL     OW18746   6.087  10.064   4.605  0.5135  0.5074 -0.1707
 5580SOL    HW118747   6.111  10.126   4.674 -0.6153 -1.0409  1.7101
 5580SOL    HW218748   5.993  10.052   4.615  0.9464 -3.2756  1.2572
 5581SOL     OW18749   5.195   8.601   9.271 -0.6561 -0.2868 -0.5813
 5581SOL    HW118750   5.204   8.674   9.332  1.4891 -1.3802  0.4844
 5581SOL    HW218751   5.127   8.545   9.309 -0.1946 -0.3424  0.1672
 5582SOL     OW18752   1.592   8.281   3.983 -0.1768  0.0389 -0.2329
 5582SOL    HW118753   1.572   8.190   3.959  0.2251  0.0687 -0.6815
 5582SOL    HW218754   1.511   8.313   4.024 -0.9309  0.0378 -1.6752
 5583SOL     OW18755   1.842   2.314   3.142  0.5304  0.2228 -0.8276
 5583SOL    HW118756   1.857   2.394   3.193 -1.4832  0.8225 -1.0869
 5583SOL    HW218757   1.797   2.344   3.063  0.6704 -1.0714 -1.4238
 5584SOL     OW18758   6.162   9.233   1.836 -0.0904  0.1011 -0.2781
 5584SOL    HW118759   6.186   9.183   1.914 -1.3101  1.3967  0.9775
 5584SOL    HW218760   6.229   9.301   1.829 -0.5980  0.6805  0.3339
 5585SOL     OW18761   9.998   9.057   7.141  0.6382 -0.7096 -0.5099
 5585SOL    HW118762  10.081   9.090   7.175  0.7326 -0.5631 -0.8836
 5585SOL    HW218763   9.984   8.975   7.189 -0.4563  0.6794  1.6939
 5586SOL     OW18764   9.000   4.426   3.588  0.2732  0.4807 -0.1270
 5586SOL    HW118765   8.966   4.491   3.527 -1.0770 -0.5298 -0.4827
 5586SOL    HW218766   9.037   4.478   3.659 -0.9669  1.6570 -0.2979
 5587SOL     OW18767   0.749   0.927  10.257  0.0087 -0.0371 -0.4007
 5587SOL    HW118768   0.747   0.903  10.165  0.0017 -1.7224  0.0004
 5587SOL    HW218769   0.785   0.850  10.301 -1.3865  0.1471  1.1544
 5588SOL     OW18770   3.869   7.739   4.316  0.0231 -0.4616 -0.4964
 5588SOL    HW118771   3.927   7.781   4.380 -0.1323  2.2025 -1.9488
 5588SOL    HW218772   3.848   7.809   4.255 -2.4181 -2.1050 -1.6579
 5589SOL     OW18773   6.397   6.178   2.685  0.3686  0.1326 -0.3679
 5589SOL    HW118774   6.444   6.104   2.722  0.8861 -0.9789 -3.0378
 5589SOL    HW218775   6.308   6.172   2.722  0.6326 -1.3364  0.0621
 5590SOL     OW18776  10.125   4.009   8.794  0.0721 -0.2707  0.0500
 5590SOL    HW118777  10.040   4.049   8.777  0.9583  1.6815 -0.1162
 5590SOL    HW218778  10.187   4.062   8.744  1.4329 -1.4404  0.4259
 5591SOL     OW18779   5.308   1.731   2.496  0.2115 -0.1027  0.1097
 5591SOL    HW118780   5.294   1.693   2.409  1.9351 -1.2646  0.2989
 5591SOL    HW218781   5.402   1.744   2.502  0.3210 -1.2858  2.2727
 5592SOL     OW18782   4.506   1.158   8.999  0.0277 -0.1401  0.0864
 5592SOL    HW118783   4.481   1.212   9.074  0.6113  0.3589 -0.0684
 5592SOL    HW218784   4.561   1.216   8.946  0.0588 -0.6614 -0.4517
 5593SOL     OW18785   2.355   0.953   5.922 -0.2692  0.4043  0.0378
 5593SOL    HW118786   2.264   0.979   5.936 -0.1889  0.1591  1.1050
 5593SOL    HW218787   2.362   0.867   5.964  0.0958 -0.2522 -1.3066
 5594SOL     OW18788  10.986   8.422   3.727  0.0436 -0.1067  0.0133
 5594SOL    HW118789  11.069   8.411   3.681  1.1343 -0.8880  2.0453
 5594SOL    HW218790  10.933   8.348   3.698  0.5439 -0.3399 -0.3234
 5595SOL     OW18791  10.912   6.909   1.590  0.1030 -0.2246 -0.6768
 5595SOL    HW118792  10.989   6.950   1.630 -0.1130 -0.9463  0.5588
 5595SOL    HW218793  10.838   6.956   1.628 -0.1251 -1.3094  0.2733
 5596SOL     OW18794   3.576   9.682   0.989 -0.1525 -0.3652  0.2911
 5596SOL    HW118795   3.573   9.753   0.924  0.0039 -1.7728 -1.3281
 5596SOL    HW218796   3.501   9.700   1.046  0.3649  1.5433  0.4474
 5597SOL     OW18797   5.128   6.961   7.817 -0.0286  0.8177  0.3755
 5597SOL    HW118798   5.199   6.995   7.763  0.7010 -0.1433  0.7050
 5597SOL    HW218799   5.107   7.033   7.877  0.7937  1.0561  0.3897
 5598SOL     OW18800   7.679   9.521   4.903  0.2733  0.1230 -0.1901
 5598SOL    HW118801   7.587   9.496   4.915  0.3126  0.0911  0.0477
 5598SOL    HW218802   7.693   9.593   4.964  0.4912 -0.0811  0.0028
 5599SOL     OW18803   0.350   5.770   1.653  0.1509  0.4665 -0.0737
 5599SOL    HW118804   0.294   5.730   1.587 -1.1011 -1.0904  1.8455
 5599SOL    HW218805   0.395   5.697   1.695  0.7862  1.3992  0.9357
 5600SOL     OW18806  10.180   2.159   5.516  0.5269 -0.1147  0.8148
 5600SOL    HW118807  10.234   2.145   5.438  0.3174  0.2410  0.6048
 5600SOL    HW218808  10.112   2.092   5.509 -0.8240  1.3286 -0.5002
 5601SOL     OW18809   6.992   7.683   6.850  0.6710 -0.7571  0.0436
 5601SOL    HW118810   6.936   7.605   6.856 -1.8608  1.0041  2.1484
 5601SOL    HW218811   7.023   7.696   6.940 -2.0659  2.5579  0.7408
 5602SOL     OW18812  10.727   7.080   5.709  0.2447  0.3139 -0.3275
 5602SOL    HW118813  10.677   7.148   5.664  0.7181  0.3497 -0.8084
 5602SOL    HW218814  10.803   7.066   5.654  0.7545  0.2410  0.3803
 5603SOL     OW18815   5.751   1.826   9.797  0.0941 -0.1089  0.3987
 5603SOL    HW118816   5.809   1.824   9.874  1.5016  1.6963 -0.5450
 5603SOL    HW218817   5.716   1.915   9.796  1.2980  0.4243 -1.8370
 5604SOL     OW18818  10.381   1.763   0.405  0.0312  0.0683  0.0959
 5604SOL    HW118819  10.401   1.779   0.313 -0.7241 -0.5633 -0.1971
 5604SOL    HW218820  10.448   1.811   0.454  1.5164 -1.0086 -0.7962
 5605SOL     OW18821   3.104   1.221   0.194 -0.4027  0.2573 -0.1300
 5605SOL    HW118822   3.082   1.257   0.108 -0.2405 -0.5817 -0.5369
 5605SOL    HW218823   3.167   1.282   0.230 -0.3230  0.5198 -0.6927
 5606SOL     OW18824  11.090   3.400   5.404 -0.2984  0.0227  0.1273
 5606SOL    HW118825  11.091   3.314   5.362 -1.9627  0.3305 -0.6086
 5606SOL    HW218826  11.182   3.419   5.421  0.3333 -0.7940 -2.0334
 5607SOL     OW18827   2.745  10.818   0.844 -0.2076 -0.5560 -0.4195
 5607SOL    HW118828   2.730  10.780   0.930  1.0767 -1.6996 -0.6613
 5607SOL    HW218829   2.806  10.890   0.860 -1.2048  0.2479 -0.1883
 5608SOL     OW18830   7.076  10.600   1.975  0.0269 -0.6164 -0.1874
 5608SOL    HW118831   7.084  10.551   2.057  1.1645  2.1388  1.4691
 5608SOL    HW218832   6.999  10.655   1.988  0.4730  0.1553 -0.8013
 5609SOL     OW18833   1.534   3.515   5.297 -0.0719  0.1665  0.3719
 5609SOL    HW118834   1.443   3.517   5.268 -1.2076  0.4609  3.5543
 5609SOL    HW218835   1.563   3.426   5.275 -1.9366 -0.7536  1.3266
 5610SOL     OW18836   8.465   8.197   8.130  0.4697 -0.0039 -0.1876
 5610SOL    HW118837   8.546   8.215   8.082 -0.0839  1.0962 -0.7640
 5610SOL    HW218838   8.423   8.128   8.079  0.5691  0.1424 -0.4717
 5611SOL     OW18839   0.191   3.710   5.216 -0.0104  0.8316  0.2630
 5611SOL    HW118840   0.099   3.683   5.217  0.0916  0.5006  0.7964
 5611SOL    HW218841   0.189   3.801   5.188 -0.6051  1.2009  1.4510
 5612SOL     OW18842   5.997   8.576   3.715  0.1251 -0.1816  0.0742
 5612SOL    HW118843   6.081   8.536   3.692  0.0635 -1.4317  1.8154
 5612SOL    HW218844   5.979   8.545   3.804 -1.5633  1.1105  0.2376
 5613SOL     OW18845   3.334  10.134   2.129  0.2191  0.4358  0.0744
 5613SOL    HW118846   3.270  10.129   2.200 -1.8269  1.7068 -1.5527
 5613SOL    HW218847   3.362  10.226   2.129  0.3725  0.3943 -0.5819
 5614SOL     OW18848   2.848   8.765   0.043 -0.0985  0.0507  0.5009
 5614SOL    HW118849   2.883   8.700  -0.018  1.5618  2.6772 -1.5974
 5614SOL    HW218850   2.906   8.762   0.118 -0.4062 -1.2310  0.7104
 5615SOL     OW18851   1.214   4.830   3.950 -0.3859 -0.0968 -0.6813
 5615SOL    HW118852   1.289   4.818   4.008 -0.5813 -1.6030 -0.7024
 5615SOL    HW218853   1.244   4.799   3.864 -0.7966  0.0131 -0.8703
 5616SOL     OW18854   5.165  11.061   1.130  0.3561 -0.1822 -0.3454
 5616SOL    HW118855   5.227  11.063   1.057  1.0772 -1.5244  0.1905
 5616SOL    HW218856   5.132  11.151   1.136  3.5250  1.0998  0.3773
 5617SOL     OW18857   7.263   6.348   3.514 -0.4091 -0.1688  0.1228
 5617SOL    HW118858   7.195   6.283   3.497  1.1736 -1.1718 -3.1640
 5617SOL    HW218859   7.329   6.301   3.565  0.1696 -0.8598 -1.2077
 5618SOL     OW18860   3.636   4.512   5.143  0.0088  0.5521 -0.1482
 5618SOL    HW118861   3.693   4.448   5.100 -0.6045 -0.5964  0.6871
 5618SOL    HW218862   3.696   4.574   5.184  0.7339 -0.9998  1.2792
 5619SOL     OW18863   5.978   7.565   0.684  0.5522 -0.3353  0.5262
 5619SOL    HW118864   5.999   7.645   0.732  0.4056  0.3429 -0.4877
 5619SOL    HW218865   5.905   7.591   0.627  1.5093 -0.7308 -0.9471
 5620SOL     OW18866  10.023   8.148   9.377 -0.4328 -0.7685  0.3206
 5620SOL    HW118867   9.974   8.070   9.404 -2.0369 -0.4944 -1.5846
 5620SOL    HW218868  10.042   8.133   9.285 -0.2885  0.8469  0.0666
 5621SOL     OW18869   0.536   7.618   8.254 -0.1841  0.3538  0.3966
 5621SOL    HW118870   0.626   7.623   8.219 -0.5136  1.4099 -0.3511
 5621SOL    HW218871   0.502   7.706   8.244 -1.7928 -0.3363 -0.6353
 5622SOL     OW18872   6.267   7.276   0.297 -0.2534  0.8245  0.3696
 5622SOL    HW118873   6.190   7.317   0.337 -0.5320  1.0440 -0.3680
 5622SOL    HW218874   6.339   7.335   0.320 -0.3615  0.8100  0.7610
 5623SOL     OW18875   5.919   0.928   0.928 -0.0949  0.5487 -0.3211
 5623SOL    HW118876   5.943   0.958   1.016 -0.6310 -0.0496  0.0299
 5623SOL    HW218877   6.001   0.895   0.891 -0.1040 -0.3213  0.4105
 5624SOL     OW18878   1.296   8.453   0.107  0.5646  0.4744 -0.5793
 5624SOL    HW118879   1.324   8.499   0.187  1.1442  1.4131 -1.3077
 5624SOL    HW218880   1.302   8.360   0.130 -0.5419  0.7303  0.8915
 5625SOL     OW18881   8.590   0.282   3.800 -0.2795 -0.8229  0.1124
 5625SOL    HW118882   8.545   0.252   3.721  0.4847  1.4804 -1.2721
 5625SOL    HW218883   8.677   0.308   3.771 -0.4229  1.3596  1.4076
 5626SOL     OW18884   9.775   8.865   4.830 -0.2265 -0.3026  0.2125
 5626SOL    HW118885   9.812   8.934   4.775 -1.9870 -0.8600 -1.7882
 5626SOL    HW218886   9.742   8.911   4.907  0.5925  0.7647 -0.0535
 5627SOL     OW18887   5.103   5.235   2.272  0.1159 -0.1523  0.0864
 5627SOL    HW118888   5.099   5.328   2.248  0.6274  0.3151  1.7048
 5627SOL    HW218889   5.089   5.189   2.189  0.4642  1.3565 -0.8609
 5628SOL     OW18890   2.841   9.560   2.501 -0.4915  0.2228 -0.2790
 5628SOL    HW118891   2.907   9.547   2.569 -1.8107 -1.0514  0.8194
 5628SOL    HW218892   2.820   9.472   2.471 -2.1435  0.5534 -0.1490
 5629SOL     OW18893   8.094   6.507   4.160  0.1646 -0.3817 -0.1453
 5629SOL    HW118894   8.115   6.424   4.202 -1.5489  0.0797  1.8051
 5629SOL    HW218895   8.098   6.572   4.230  0.9122  1.1146 -1.5074
 5630SOL     OW18896   0.725   1.267   2.864 -0.0654  0.1679  0.0435
 5630SOL    HW118897   0.756   1.289   2.776 -1.5734  0.2852 -0.4789
 5630SOL    HW218898   0.732   1.350   2.913 -0.2732  0.3783 -0.2812
 5631SOL     OW18899   7.745   6.687   7.855  0.1630 -0.0290 -0.3365
 5631SOL    HW118900   7.666   6.702   7.804  1.1636  0.2820 -1.8580
 5631SOL    HW218901   7.771   6.597   7.832  0.7315  0.1859 -0.5453
 5632SOL     OW18902   2.215   7.662   3.025 -0.1794  0.1801 -0.1842
 5632SOL    HW118903   2.220   7.572   3.057 -0.1943  0.4472  0.5694
 5632SOL    HW218904   2.126   7.690   3.045  0.0442  0.6053  0.2240
 5633SOL     OW18905   2.974   7.941  11.034  0.6806 -0.2545 -0.6193
 5633SOL    HW118906   2.964   7.988  10.952 -1.1109  1.4766  0.4962
 5633SOL    HW218907   2.932   7.857  11.019 -0.8246  0.5530 -1.1113
 5634SOL     OW18908   0.522   8.561   6.372  0.6226  0.2970  0.1465
 5634SOL    HW118909   0.556   8.640   6.413 -0.5287  0.7529  0.2563
 5634SOL    HW218910   0.474   8.516   6.441 -0.0471  0.3036 -0.3019
 5635SOL     OW18911   5.495   9.138   2.046  0.5554 -0.1339  0.4915
 5635SOL    HW118912   5.486   9.043   2.055  1.1412 -0.3643 -1.0004
 5635SOL    HW218913   5.470   9.173   2.132 -2.4502 -1.4351  0.2719
 5636SOL     OW18914   1.787   1.284   7.178  0.3234  0.1318  0.0090
 5636SOL    HW118915   1.706   1.282   7.127  1.5098 -0.7898 -1.9786
 5636SOL    HW218916   1.760   1.264   7.268 -1.4629 -2.0670 -0.9251
 5637SOL     OW18917   9.419   8.433   0.391  0.4238  0.1098 -0.4110
 5637SOL    HW118918   9.346   8.486   0.422 -0.3326 -0.5079 -1.1001
 5637SOL    HW218919   9.463   8.403   0.471  0.2833  0.9670 -0.0036
 5638SOL     OW18920   9.845   6.491   2.278 -0.4013  0.2200  0.0273
 5638SOL    HW118921   9.764   6.530   2.310  0.2644 -0.3842  2.7196
 5638SOL    HW218922   9.870   6.429   2.347  3.4598  1.9498  0.4289
 5639SOL     OW18923   5.327   6.221   4.727  0.0097 -0.5934  0.4625
 5639SOL    HW118924   5.410   6.217   4.678 -0.8284 -0.0618 -1.0927
 5639SOL    HW218925   5.282   6.140   4.704  0.1474 -0.9459  1.4143
 5640SOL     OW18926   2.494   5.568   9.902 -0.5248  0.2189  0.4669
 5640SOL    HW118927   2.469   5.526   9.820 -0.4848 -1.0059  1.0704
 5640SOL    HW218928   2.514   5.659   9.877  1.5373 -0.6328 -1.2597
 5641SOL     OW18929   3.948   2.629   4.894 -1.0279  0.3672  0.5958
 5641SOL    HW118930   3.921   2.602   4.982  0.8461 -1.6372  0.6381
 5641SOL    HW218931   3.931   2.723   4.891 -2.1551  0.2773  2.6985
 5642SOL     OW18932   6.438   9.491   5.002 -0.3582 -0.5170 -0.1185
 5642SOL    HW118933   6.413   9.412   4.954 -1.2298  0.2727 -1.0216
 5642SOL    HW218934   6.514   9.524   4.955  0.1896 -0.9670  0.4393
 5643SOL     OW18935   0.353   5.774   0.198  0.9861 -0.3421 -0.2763
 5643SOL    HW118936   0.356   5.703   0.262  0.2519  0.8027  1.0779
 5643SOL    HW218937   0.445   5.798   0.184  1.1180 -0.0347  1.0338
 5644SOL     OW18938   2.689   0.532   1.128 -0.7700  0.0876  0.0327
 5644SOL    HW118939   2.593   0.529   1.133 -0.7581  0.6170  0.9266
 5644SOL    HW218940   2.718   0.499   1.213 -0.1649  0.3414 -0.0699
 5645SOL     OW18941   2.216   2.839   7.621 -0.4418  0.9621 -0.1861
 5645SOL    HW118942   2.289   2.857   7.563 -1.4007  0.6350 -1.5491
 5645SOL    HW218943   2.161   2.917   7.616 -0.3919  1.0555  0.5392
 5646SOL     OW18944   3.011  10.832   5.737  0.7183  0.0793  0.1895
 5646SOL    HW118945   2.960  10.752   5.747  0.1527  0.6222  1.8923
 5646SOL    HW218946   3.098  10.802   5.711  0.3330 -1.0331  0.1406
 5647SOL     OW18947   1.683   7.515   3.470 -0.3188  0.1143 -0.1087
 5647SOL    HW118948   1.717   7.474   3.550  2.3845 -0.2056 -1.3162
 5647SOL    HW218949   1.606   7.462   3.446  0.2782 -1.2846  0.9574
 5648SOL     OW18950   4.113   1.838   5.124  0.2822  0.0335 -0.1884
 5648SOL    HW118951   4.143   1.802   5.041  0.5927  0.7674 -0.3971
 5648SOL    HW218952   4.126   1.932   5.116 -0.5745  0.2090  0.3326
 5649SOL     OW18953  10.624   0.247   4.386  0.0153 -0.1512  0.2902
 5649SOL    HW118954  10.642   0.230   4.478  0.5050 -0.1368  0.2024
 5649SOL    HW218955  10.529   0.248   4.379 -0.0242 -0.9722  0.6385
 5650SOL     OW18956   2.451   0.335   5.358 -0.4462 -0.2476  0.5094
 5650SOL    HW118957   2.376   0.278   5.380 -0.4315 -0.6246 -0.3758
 5650SOL    HW218958   2.528   0.282   5.379 -0.4199 -1.0803 -1.4985
 5651SOL     OW18959   7.181   2.416   5.128 -0.1145  0.1564 -0.1275
 5651SOL    HW118960   7.271   2.396   5.154  0.0577 -0.5561 -1.1758
 5651SOL    HW218961   7.127   2.357   5.180 -0.1486  1.7745  1.7824
 5652SOL     OW18962   4.427  10.159   8.815 -0.1193  0.0188 -0.7528
 5652SOL    HW118963   4.507  10.173   8.866 -0.8301 -2.1586  1.1786
 5652SOL    HW218964   4.365  10.223   8.849  0.1789  0.3126 -0.7552
 5653SOL     OW18965   7.620   4.730   2.593 -0.2785  0.0110 -0.3277
 5653SOL    HW118966   7.632   4.806   2.650 -0.4901 -0.3380  0.1970
 5653SOL    HW218967   7.555   4.758   2.529  0.2596  0.5401 -0.6459
 5654SOL     OW18968   5.743   9.387   3.658 -0.3645  0.6119  0.0957
 5654SOL    HW118969   5.681   9.443   3.611 -1.0712  0.6800  1.0817
 5654SOL    HW218970   5.796   9.448   3.709 -0.3422  0.4651  0.2490
 5655SOL     OW18971   0.533   2.009   2.955  0.5652 -0.4623 -0.0391
 5655SOL    HW118972   0.457   1.971   2.911  0.7389  0.0282 -0.7824
 5655SOL    HW218973   0.533   1.969   3.042  0.1952 -1.4191 -0.4660
 5656SOL     OW18974   1.149   7.854   8.619 -0.2039  0.2101 -0.1466
 5656SOL    HW118975   1.230   7.807   8.599 -0.7958 -1.1002  0.4566
 5656SOL    HW218976   1.134   7.837   8.712 -1.7884 -0.5280 -0.5088
 5657SOL     OW18977   9.632   7.843  10.650  0.6058  0.3948 -0.4405
 5657SOL    HW118978   9.620   7.899  10.573  0.4791  2.2369  0.8475
 5657SOL    HW218979   9.560   7.781  10.646  0.4252  0.6499 -1.6399
 5658SOL     OW18980   1.309   7.666   4.454 -0.1024 -0.0566  0.1252
 5658SOL    HW118981   1.265   7.744   4.490  0.4272  0.9785 -1.3976
 5658SOL    HW218982   1.272   7.593   4.504 -0.2322  1.1991  1.9607
 5659SOL     OW18983  10.936   7.658  11.028 -0.7164 -0.6982  0.4462
 5659SOL    HW118984  11.018   7.692  10.992 -0.2964  0.3100  2.2285
 5659SOL    HW218985  10.915   7.583  10.973 -0.4821  1.0806 -2.2504
 5660SOL     OW18986   8.272   9.140   5.399  0.2906 -0.5173  0.2428
 5660SOL    HW118987   8.337   9.189   5.349 -1.0539 -0.4079 -1.4924
 5660SOL    HW218988   8.188   9.163   5.358 -0.9581 -0.0526  2.8827
 5661SOL     OW18989   4.149   3.623   5.395  0.2721  0.0093  0.5140
 5661SOL    HW118990   4.219   3.589   5.451  0.9473 -2.4780 -1.6669
 5661SOL    HW218991   4.088   3.550   5.386  0.5416  0.0202 -2.4475
 5662SOL     OW18992   4.528  10.401   2.212  1.0271  0.2228 -0.1255
 5662SOL    HW118993   4.545  10.492   2.234 -0.0944  1.2042 -2.8900
 5662SOL    HW218994   4.588  10.381   2.140  0.9927 -1.1038  0.1786
 5663SOL     OW18995   3.419   4.159   0.061 -0.7139  0.5119  0.3678
 5663SOL    HW118996   3.501   4.160   0.110 -0.3595  0.3700 -0.2055
 5663SOL    HW218997   3.446   4.150  -0.030 -1.3659  0.5722  0.1616
 5664SOL     OW18998   0.795   3.580   3.549  0.4117  0.3320  0.0241
 5664SOL    HW118999   0.840   3.497   3.542  0.3718  0.2763  0.4393
 5664SOL    HW219000   0.767   3.586   3.640  0.7139  0.9541  0.0848
 5665SOL     OW19001   0.663   9.174   7.020  0.2538  0.1356 -0.1065
 5665SOL    HW119002   0.605   9.162   6.945 -2.1285  1.4920  1.3871
 5665SOL    HW219003   0.654   9.266   7.042  0.9301 -0.2205  1.8198
 5666SOL     OW19004   3.200   9.361   3.647  0.0276  0.1236 -0.1632
 5666SOL    HW119005   3.154   9.441   3.671 -0.7322  0.2755 -1.9455
 5666SOL    HW219006   3.156   9.331   3.566  2.6402 -0.0625 -1.6216
 5667SOL     OW19007   5.394   6.343   3.665 -0.5510 -0.1991 -0.0959
 5667SOL    HW119008   5.366   6.302   3.584 -0.1131 -0.8411  0.0651
 5667SOL    HW219009   5.366   6.283   3.734 -0.6048  0.1624  0.2030
 5668SOL     OW19010   4.040   1.009   1.328  0.1854 -0.2102 -0.1063
 5668SOL    HW119011   3.964   0.988   1.272  1.9768 -0.0989 -2.7496
 5668SOL    HW219012   4.067   0.924   1.364 -2.4827  0.0107  2.8564
 5669SOL     OW19013   1.567  10.783   5.276 -0.1466 -0.2993  0.3730
 5669SOL    HW119014   1.527  10.814   5.194  0.4534 -1.1806 -0.2696
 5669SOL    HW219015   1.609  10.861   5.312 -1.1275  0.2887  0.2803
 5670SOL     OW19016   3.194   5.903   5.079  0.2744 -0.2769 -0.9604
 5670SOL    HW119017   3.284   5.919   5.051 -0.0512  0.7867 -1.4669
 5670SOL    HW219018   3.199   5.898   5.174  1.0562 -1.5808 -1.0498
 5671SOL     OW19019   8.523   4.346   5.871 -0.1085  0.1355 -0.8966
 5671SOL    HW119020   8.581   4.421   5.855 -0.2892  0.0531 -2.0445
 5671SOL    HW219021   8.550   4.281   5.806 -1.6297  0.1865 -1.6308
 5672SOL     OW19022   5.958   9.409   8.032  0.3143 -0.6368  0.4544
 5672SOL    HW119023   5.863   9.402   8.028  0.1425  1.2011  0.3223
 5672SOL    HW219024   5.981   9.471   7.963  0.9969  2.9857  3.5559
 5673SOL     OW19025  10.503   1.948   4.805 -0.2943  0.1430 -0.1033
 5673SOL    HW119026  10.598   1.957   4.799 -0.3856  0.8838 -0.5466
 5673SOL    HW219027  10.480   1.890   4.732 -0.4045  1.7930 -1.4636
 5674SOL     OW19028   2.623   6.258   6.444  0.6931 -0.3441 -0.8900
 5674SOL    HW119029   2.699   6.228   6.394  0.3687  0.7548 -2.1016
 5674SOL    HW219030   2.569   6.304   6.380 -0.2946  0.1435  0.2567
 5675SOL     OW19031  10.134   8.952   7.866 -0.1515 -0.4809 -0.3050
 5675SOL    HW119032  10.117   8.998   7.948  1.7244  0.8034 -0.5749
 5675SOL    HW219033  10.222   8.915   7.876  0.3339  0.1212 -1.8820
 5676SOL     OW19034   3.799   8.139   3.764 -0.3897  0.4273 -0.3425
 5676SOL    HW119035   3.729   8.116   3.703 -2.0774  0.8778  1.3644
 5676SOL    HW219036   3.761   8.207   3.820  1.4545  0.7674  0.5678
 5677SOL     OW19037   2.472   9.931   2.670 -0.2332  0.5511  0.6497
 5677SOL    HW119038   2.462  10.002   2.733  1.8058  0.5642  1.0071
 5677SOL    HW219039   2.508   9.859   2.720 -0.8428 -0.2406 -0.0281
 5678SOL     OW19040   0.927   9.187   6.570  0.3539 -0.4417  0.4703
 5678SOL    HW119041   0.856   9.125   6.556 -0.6038  0.7089  0.0562
 5678SOL    HW219042   0.918   9.214   6.662 -0.0629  0.0843  0.2759
 5679SOL     OW19043   4.215   8.033   5.430 -0.1630  0.4827 -0.8009
 5679SOL    HW119044   4.171   7.971   5.371 -0.1905 -0.8591  0.5639
 5679SOL    HW219045   4.286   7.982   5.469 -0.3286  1.2378  0.5323
 5680SOL     OW19046   6.164   0.204   7.430  0.2089 -0.3174  0.3906
 5680SOL    HW119047   6.123   0.191   7.515 -2.1618  0.8866 -0.4743
 5680SOL    HW219048   6.245   0.250   7.450 -0.2154 -0.2126  2.0137
 5681SOL     OW19049  10.270   6.737   1.918  0.3382  0.3549  0.4375
 5681SOL    HW119050  10.251   6.723   1.825 -0.2702 -1.9717  0.8407
 5681SOL    HW219051  10.360   6.771   1.919  0.0204  1.3451 -1.0144
 5682SOL     OW19052   2.726   2.052   2.689 -0.2100 -0.5941 -0.3957
 5682SOL    HW119053   2.700   2.050   2.597  0.7612 -0.6033 -0.6730
 5682SOL    HW219054   2.691   2.135   2.722 -0.8202 -0.7299 -0.6867
 5683SOL     OW19055   5.078   7.691   0.850  0.0695  0.2589 -0.1574
 5683SOL    HW119056   5.052   7.763   0.792 -0.6796  0.6378  0.6137
 5683SOL    HW219057   4.995   7.651   0.877  0.4767 -0.8327 -0.4932
 5684SOL     OW19058   0.232   7.140   8.667 -0.2203  0.1782 -0.3423
 5684SOL    HW119059   0.302   7.205   8.666  0.9495 -1.0540 -0.3553
 5684SOL    HW219060   0.230   7.110   8.758  0.0767 -0.6410 -0.6039
 5685SOL     OW19061   1.174   5.650   6.386  0.8907  0.3600 -0.0612
 5685SOL    HW119062   1.268   5.635   6.376  0.8579 -1.6554  1.8010
 5685SOL    HW219063   1.135   5.613   6.307  1.6395  1.0637 -0.7694
 5686SOL     OW19064  10.573   8.246   3.934 -0.0268  0.2244 -0.1781
 5686SOL    HW119065  10.578   8.153   3.910 -0.6057  0.0600  0.3292
 5686SOL    HW219066  10.633   8.255   4.007  0.2533  0.3153 -0.4167
 5687SOL     OW19067   7.410   7.654   3.851 -0.0815 -0.1695  0.5301
 5687SOL    HW119068   7.370   7.609   3.925  0.4421  0.3205  1.1255
 5687SOL    HW219069   7.366   7.739   3.846  0.3643  0.0796  0.7296
 5688SOL     OW19070   7.679   8.618   3.363 -0.1075  0.6159  0.5684
 5688SOL    HW119071   7.605   8.567   3.330  0.8019 -0.7506  0.5700
 5688SOL    HW219072   7.713   8.566   3.435  1.8658  0.3796 -0.4697
 5689SOL     OW19073   9.773   8.358   5.312  0.2522  0.2504  0.1798
 5689SOL    HW119074   9.708   8.411   5.267 -0.3863 -0.0818  0.6986
 5689SOL    HW219075   9.856   8.404   5.296  0.2276 -0.4046 -2.1909
 5690SOL     OW19076   3.420   5.922   8.999  0.1055 -0.5634 -0.3725
 5690SOL    HW119077   3.484   5.975   9.047 -0.8047  0.4212 -0.1960
 5690SOL    HW219078   3.407   5.844   9.053  2.4681 -1.6835 -1.2832
 5691SOL     OW19079   8.030   7.698   1.067 -0.6452 -0.3940  0.4870
 5691SOL    HW119080   7.939   7.693   1.038 -0.0214 -1.3080 -1.4866
 5691SOL    HW219081   8.081   7.693   0.986  1.2068 -1.5385  1.6516
 5692SOL     OW19082   0.935   1.147   9.199 -0.4343 -0.3293 -0.2633
 5692SOL    HW119083   0.890   1.096   9.266 -2.5209 -1.0152 -2.0659
 5692SOL    HW219084   0.995   1.204   9.248 -1.5121 -1.1178  2.1154
 5693SOL     OW19085  10.354   3.209   4.606 -0.0555  0.9289  0.2978
 5693SOL    HW119086  10.402   3.225   4.524 -0.5472  2.0074  0.2164
 5693SOL    HW219087  10.269   3.175   4.578  0.1723  0.2407  0.4091
 5694SOL     OW19088   4.803  10.662   7.004  0.5384  0.9185 -0.6337
 5694SOL    HW119089   4.846  10.742   6.973  1.8257  1.1331  1.5476
 5694SOL    HW219090   4.859  10.592   6.971  2.0580  1.1569  1.2566
 5695SOL     OW19091  10.787   1.497   2.742  0.2421 -0.4701 -0.5269
 5695SOL    HW119092  10.819   1.566   2.683 -0.1568  0.1762 -0.0010
 5695SOL    HW219093  10.862   1.478   2.799  0.4995 -0.8094 -0.9652
 5696SOL     OW19094  10.197   0.468   3.693  0.5732 -0.1391 -0.2301
 5696SOL    HW119095  10.195   0.527   3.768 -0.1745 -1.0404  0.4699
 5696SOL    HW219096  10.283   0.481   3.655  1.5241 -0.6996  1.6233
 5697SOL     OW19097   0.575   6.152   1.173  0.7163  0.1162 -0.2454
 5697SOL    HW119098   0.521   6.106   1.237  0.8817 -0.3609 -0.4459
 5697SOL    HW219099   0.575   6.243   1.203  0.1819  0.0368  0.0152
 5698SOL     OW19100   1.303   4.237   9.417  0.6159  0.3740 -0.2550
 5698SOL    HW119101   1.306   4.270   9.327  1.2507  0.4720 -0.1977
 5698SOL    HW219102   1.253   4.304   9.464 -0.8572 -0.2996 -0.7829
 5699SOL     OW19103   9.436   6.131   1.777  0.9225 -0.4478  0.1101
 5699SOL    HW119104   9.421   6.199   1.842  0.9316 -0.1187 -0.2256
 5699SOL    HW219105   9.354   6.082   1.775  0.5000  0.2609 -0.4568
 5700SOL     OW19106   5.721   7.131   2.848 -0.3495 -0.2555  0.3264
 5700SOL    HW119107   5.638   7.103   2.888 -0.7274  0.6182  0.1836
 5700SOL    HW219108   5.765   7.179   2.918 -0.1201 -0.4198  0.2943
 5701SOL     OW19109   5.055   2.318   5.656  0.1947 -0.3206 -0.3285
 5701SOL    HW119110   5.020   2.401   5.623  0.7779  0.1731  0.2570
 5701SOL    HW219111   4.988   2.284   5.714 -0.1079 -0.3354 -0.6850
 5702SOL     OW19112   3.372  10.921   2.249  0.2619  0.0980  0.1758
 5702SOL    HW119113   3.353  10.834   2.215 -0.8616  0.4831 -0.2328
 5702SOL    HW219114   3.432  10.906   2.323 -0.3296 -1.0517  0.4382
 5703SOL     OW19115  10.995   0.880   3.612  0.6579  0.1838  0.3557
 5703SOL    HW119116  10.933   0.927   3.556  1.4885  0.1390 -0.6471
 5703SOL    HW219117  10.941   0.824   3.668 -0.2238  0.6102 -0.0616
 5704SOL     OW19118  10.219   3.807   6.345 -0.4140 -0.1394  1.0892
 5704SOL    HW119119  10.242   3.899   6.356 -1.5717  0.4143 -0.6034
 5704SOL    HW219120  10.238   3.766   6.429  0.4949  1.5651  1.7428
 5705SOL     OW19121   7.002   7.936   7.794  0.9901  0.0181 -0.2307
 5705SOL    HW119122   6.985   7.849   7.831  0.6454 -0.0060 -0.4427
 5705SOL    HW219123   7.008   7.921   7.700 -2.6158  0.6894 -0.7219
 5706SOL     OW19124   0.544   7.705   3.462  0.1738  0.4636  0.2260
 5706SOL    HW119125   0.588   7.686   3.544  0.0646 -1.3470 -0.0910
 5706SOL    HW219126   0.536   7.619   3.418  0.0646  1.3394 -1.5763
 5707SOL     OW19127  10.871   9.944   1.084  0.3602 -0.1580 -0.4543
 5707SOL    HW119128  10.816   9.966   1.160  0.1325 -0.8390 -0.4212
 5707SOL    HW219129  10.951   9.994   1.098  0.4670 -0.5616  0.4332
 5708SOL     OW19130  10.285   6.936   4.321 -0.3817  0.3396  0.0851
 5708SOL    HW119131  10.337   6.957   4.398 -1.3719 -0.1456  0.9044
 5708SOL    HW219132  10.218   7.004   4.317  0.2841  0.9641 -0.9676
 5709SOL     OW19133   1.417   7.616   2.278 -0.3728  0.0748  0.1391
 5709SOL    HW119134   1.454   7.584   2.196 -1.3224  0.3694 -0.4137
 5709SOL    HW219135   1.387   7.536   2.323 -0.6574 -0.0168 -0.2071
 5710SOL     OW19136   8.264   2.738   7.948  0.3948 -0.1151  0.6567
 5710SOL    HW119137   8.345   2.738   8.000 -0.5460 -0.7877  2.1835
 5710SOL    HW219138   8.240   2.831   7.941  0.7478  0.0119  1.0904
 5711SOL     OW19139   3.544   4.623   3.670  0.5916 -0.0875  0.1144
 5711SOL    HW119140   3.461   4.585   3.699  1.1268 -0.5139  1.1365
 5711SOL    HW219141   3.608   4.592   3.733  1.8142 -0.9777 -1.4932
 5712SOL     OW19142   1.055   8.851   0.595  0.4024 -0.0763  0.2469
 5712SOL    HW119143   1.064   8.896   0.679  0.2376  0.8036 -0.1930
 5712SOL    HW219144   0.962   8.860   0.573  0.3918 -0.5351  0.1009
 5713SOL     OW19145  10.430   5.588   8.585  0.0046  0.3107 -0.3314
 5713SOL    HW119146  10.502   5.530   8.559 -0.5839 -0.0704 -1.1568
 5713SOL    HW219147  10.461   5.630   8.665  0.7879 -0.5040 -0.1936
 5714SOL     OW19148   6.853   6.149   9.829  0.4445 -0.3442 -0.1244
 5714SOL    HW119149   6.851   6.135   9.735 -1.9719  0.9083 -0.3481
 5714SOL    HW219150   6.945   6.140   9.853  0.9332 -2.1289 -2.3334
 5715SOL     OW19151   1.375   8.822   4.744 -0.2397 -0.1338  0.4414
 5715SOL    HW119152   1.434   8.858   4.811 -2.4121  1.0841  1.8206
 5715SOL    HW219153   1.304   8.781   4.794 -0.7659 -1.2797 -1.1578
 5716SOL     OW19154  10.344   9.741   5.111  0.1088 -0.3002 -0.8341
 5716SOL    HW119155  10.303   9.819   5.147  1.1516  0.7001 -1.7557
 5716SOL    HW219156  10.289   9.669   5.142 -1.1424  0.8215 -0.3610
 5717SOL     OW19157   0.947   5.905   7.476  0.5082  0.5966  0.0779
 5717SOL    HW119158   0.860   5.913   7.516  0.4855 -0.8664  0.3825
 5717SOL    HW219159   0.947   5.969   7.404 -1.1809 -0.0761 -0.5559
 5718SOL     OW19160   3.686   5.365   3.402 -0.1618  0.0407  0.9260
 5718SOL    HW119161   3.617   5.361   3.335  0.8903  1.1624 -0.3043
 5718SOL    HW219162   3.714   5.274   3.413 -1.3454 -0.3439  0.9349
 5719SOL     OW19163  10.316   7.719   8.273  0.2745 -0.2977 -0.8523
 5719SOL    HW119164  10.328   7.787   8.339 -0.0407 -0.7824 -0.2799
 5719SOL    HW219165  10.404   7.701   8.240  0.6740 -1.2064  0.6204
 5720SOL     OW19166   0.880   4.629   9.634 -0.1102 -0.3828 -0.1098
 5720SOL    HW119167   0.903   4.718   9.607  1.1651 -0.8957 -0.8035
 5720SOL    HW219168   0.818   4.599   9.567 -0.7306  0.0499  0.2582
 5721SOL     OW19169  10.896  10.182   7.101  0.7281 -0.0111  0.7979
 5721SOL    HW119170  10.808  10.173   7.066  0.5470 -0.5546  1.3670
 5721SOL    HW219171  10.946  10.223   7.031  0.0375  0.2486  0.4496
 5722SOL     OW19172  10.480   9.677   9.585 -0.0049 -0.5127  0.2573
 5722SOL    HW119173  10.474   9.726   9.668  0.2283 -1.1029  0.6288
 5722SOL    HW219174  10.393   9.685   9.546  0.1122  0.4594  0.1561
 5723SOL     OW19175  10.328   7.571   3.125 -0.0585 -0.0750  0.3641
 5723SOL    HW119176  10.366   7.644   3.076 -1.8721  0.0994 -0.8792
 5723SOL    HW219177  10.295   7.611   3.206  1.1786 -0.0168  0.8764
 5724SOL     OW19178   2.035   5.421   8.865  0.1519 -0.0386  0.1715
 5724SOL    HW119179   1.997   5.465   8.940  0.0574  2.1073 -1.0588
 5724SOL    HW219180   2.116   5.469   8.847  1.1842 -1.7365  0.0497
 5725SOL     OW19181   9.205   9.330   7.591  0.5456  0.2315  0.1921
 5725SOL    HW119182   9.279   9.350   7.534 -0.7230  0.7772 -1.3679
 5725SOL    HW219183   9.130   9.323   7.531 -1.1896  2.4234  1.9192
 5726SOL     OW19184  10.110   7.715   6.290  0.3073  0.6872 -0.3575
 5726SOL    HW119185  10.014   7.719   6.299  0.1279  0.4308 -1.8733
 5726SOL    HW219186  10.136   7.644   6.348 -0.3304  1.2381  0.6312
 5727SOL     OW19187  10.655  10.948   6.012 -0.3556  0.1827 -0.1924
 5727SOL    HW119188  10.598  10.872   6.006  0.5722 -0.5556  0.1003
 5727SOL    HW219189  10.636  10.999   5.934 -1.9964  0.3869  0.2983
 5728SOL     OW19190   2.843  10.979   4.139  0.4093  0.4849 -0.0831
 5728SOL    HW119191   2.756  10.952   4.169  1.0333 -1.2089  0.3543
 5728SOL    HW219192   2.883  11.018   4.216  0.5785 -0.2003  0.1906
 5729SOL     OW19193   5.290   4.935   2.633 -0.0097  0.0751  0.1830
 5729SOL    HW119194   5.236   5.012   2.616 -0.2242 -0.3481 -1.1540
 5729SOL    HW219195   5.371   4.970   2.669  0.2079  1.0058 -1.1296
 5730SOL     OW19196   0.741   0.093   9.285  0.1171  0.7385 -0.2418
 5730SOL    HW119197   0.732  -0.002   9.294  0.7581  0.7760  1.0026
 5730SOL    HW219198   0.699   0.113   9.201 -0.1137 -0.6251 -0.4787
 5731SOL     OW19199   6.733   9.028   0.192  0.0982  0.0829 -0.0235
 5731SOL    HW119200   6.814   9.026   0.242 -0.0139  0.5761  0.1787
 5731SOL    HW219201   6.751   8.973   0.115  0.5165 -0.0630  0.1791
 5732SOL     OW19202   4.701   9.662   6.175 -0.2374 -0.0468 -0.5525
 5732SOL    HW119203   4.653   9.582   6.195 -0.0624  0.5873  3.1173
 5732SOL    HW219204   4.669   9.726   6.238  2.7480  1.4827 -0.3956
 5733SOL     OW19205   5.991   7.761   4.478  0.2719 -0.0234 -0.1018
 5733SOL    HW119206   5.908   7.779   4.434 -0.2249  1.0676  1.2120
 5733SOL    HW219207   5.969   7.700   4.548  0.1855  1.6443  1.3938
 5734SOL     OW19208   9.090   2.343   3.153 -0.1565  0.0184 -0.4223
 5734SOL    HW119209   9.069   2.435   3.164  1.4889  0.5892 -1.6479
 5734SOL    HW219210   9.176   2.332   3.195  0.1720 -0.6795 -1.2378
 5735SOL     OW19211   0.178   5.819   3.875  0.6845  0.2788  0.1021
 5735SOL    HW119212   0.137   5.877   3.811 -2.3249 -0.9816  0.7239
 5735SOL    HW219213   0.243   5.874   3.920  0.5001  2.0882 -1.7185
 5736SOL     OW19214   6.656   5.771  10.287 -0.1546  0.4378  0.5844
 5736SOL    HW119215   6.728   5.711  10.305 -0.6659 -0.7377 -1.0295
 5736SOL    HW219216   6.693   5.858  10.297  1.4066 -0.1474  0.1120
 5737SOL     OW19217   8.199   3.433   3.400  0.5789  0.1212 -0.2025
 5737SOL    HW119218   8.115   3.468   3.429  0.7790 -0.8598  1.7255
 5737SOL    HW219219   8.249   3.511   3.374 -0.8554  0.7258 -1.3347
 5738SOL     OW19220   6.367   9.733   5.632 -0.1950 -0.0911  0.3095
 5738SOL    HW119221   6.315   9.800   5.676 -1.1108 -0.3413 -0.3489
 5738SOL    HW219222   6.392   9.772   5.548  0.9258  0.1217  0.7270
 5739SOL     OW19223   0.334   6.506   9.547 -0.4159 -0.2268  0.6944
 5739SOL    HW119224   0.267   6.439   9.532  0.0119 -0.7456  1.0760
 5739SOL    HW219225   0.318   6.571   9.478 -0.9109 -0.6606  0.3913
 5740SOL     OW19226   1.734   8.063   0.896 -0.7520 -0.6457 -0.4552
 5740SOL    HW119227   1.820   8.087   0.932 -0.1075 -2.2065 -0.8675
 5740SOL    HW219228   1.674   8.125   0.937  0.2842 -0.7951  1.4576
 5741SOL     OW19229   4.175   8.017   3.827 -0.3802 -0.3242 -0.2728
 5741SOL    HW119230   4.121   8.092   3.806 -0.1401 -0.5839 -2.0096
 5741SOL    HW219231   4.264   8.052   3.833 -0.5350 -0.1151  1.2841
 5742SOL     OW19232   9.384   1.155   9.447 -0.3882 -0.0736  0.1640
 5742SOL    HW119233   9.435   1.229   9.480 -1.2665  0.7189 -0.2195
 5742SOL    HW219234   9.338   1.121   9.524  2.4453 -2.3259  1.0610
 5743SOL     OW19235   2.664   3.470   4.348  0.0976 -0.1184  0.3843
 5743SOL    HW119236   2.640   3.387   4.307  0.4874  0.6477 -1.5030
 5743SOL    HW219237   2.600   3.532   4.316  0.7624  0.6380  0.4926
 5744SOL     OW19238   7.906   1.122   5.681 -0.2454  0.1956  0.1463
 5744SOL    HW119239   7.827   1.145   5.632 -0.9203  1.2067  1.6372
 5744SOL    HW219240   7.955   1.204   5.686  0.8126 -0.3782 -0.5688
 5745SOL     OW19241   3.206   3.267   8.471  0.2426  0.0260 -0.1079
 5745SOL    HW119242   3.240   3.295   8.555 -0.0928  0.4853 -0.1209
 5745SOL    HW219243   3.136   3.330   8.451  0.6552  0.2262 -0.9615
 5746SOL     OW19244  10.185   4.143   0.715  0.4195  0.1834  0.2884
 5746SOL    HW119245  10.102   4.175   0.680  2.1456  1.6291 -2.9527
 5746SOL    HW219246  10.233   4.222   0.740  1.5149 -0.4783  0.3800
 5747SOL     OW19247   1.686   3.439   9.675  0.0919  0.4046 -0.5737
 5747SOL    HW119248   1.735   3.359   9.660  1.5781  1.3166 -0.8055
 5747SOL    HW219249   1.595   3.415   9.660  0.5040 -1.2319 -0.5931
 5748SOL     OW19250   6.718   5.064   5.529 -0.1807  0.2619  0.0378
 5748SOL    HW119251   6.723   5.016   5.612 -0.2248 -1.1403 -0.7442
 5748SOL    HW219252   6.713   5.156   5.555  0.8501 -0.0709  1.5672
 5749SOL     OW19253   2.063  10.086   7.104 -0.0224  0.2819  0.3433
 5749SOL    HW119254   2.125  10.029   7.150 -0.8706 -1.3581 -0.4542
 5749SOL    HW219255   1.987  10.091   7.162 -0.0726  0.3257  0.2744
 5750SOL     OW19256   3.251   6.460   9.454 -0.4133 -0.1142 -0.3803
 5750SOL    HW119257   3.291   6.377   9.480  0.0016  0.0479 -0.4930
 5750SOL    HW219258   3.197   6.437   9.378  0.4770 -0.1110 -1.0305
 5751SOL     OW19259   4.064   1.423   4.593  0.6776 -0.7713 -0.0823
 5751SOL    HW119260   4.074   1.513   4.560  1.5253 -0.5848  0.6325
 5751SOL    HW219261   4.026   1.434   4.680 -0.4200 -1.1878 -0.5054
 5752SOL     OW19262  11.077   8.773   8.912 -0.2471 -0.2642 -0.8482
 5752SOL    HW119263  10.996   8.759   8.862 -0.2071 -1.3869 -0.6207
 5752SOL    HW219264  11.137   8.706   8.880  0.1188 -0.3503 -0.0075
 5753SOL     OW19265   1.514   9.514   8.000 -0.5327  0.0123 -0.1526
 5753SOL    HW119266   1.549   9.477   8.082 -0.2567  0.6144  0.0118
 5753SOL    HW219267   1.481   9.600   8.025  0.2259  0.5159 -0.8033
 5754SOL     OW19268  10.279   8.125   5.467 -0.4273 -0.0094  0.0156
 5754SOL    HW119269  10.367   8.113   5.431 -0.5774 -0.7142 -0.1496
 5754SOL    HW219270  10.281   8.210   5.509 -0.1520  0.7392 -1.4256
 5755SOL     OW19271  10.587   7.720   4.235  0.1729 -0.4333 -0.7975
 5755SOL    HW119272  10.618   7.666   4.162 -1.5049 -1.2838 -0.9273
 5755SOL    HW219273  10.550   7.798   4.193  0.9365 -0.0277 -0.7254
 5756SOL     OW19274   5.626   1.033   9.125  0.1869 -0.1827 -0.0314
 5756SOL    HW119275   5.601   1.121   9.156  1.8902  0.2952  0.0819
 5756SOL    HW219276   5.563   0.975   9.167  0.1289  0.8200  1.3628
 5757SOL     OW19277   2.253   3.286   7.985  0.1597 -0.4032  0.1364
 5757SOL    HW119278   2.221   3.203   8.019 -0.6159  0.3500  1.3425
 5757SOL    HW219279   2.175   3.340   7.975  0.6753  0.2675 -0.3714
 5758SOL     OW19280   6.747  11.098   9.730 -0.4788  0.3099 -0.2230
 5758SOL    HW119281   6.757  11.110   9.636 -0.9011  0.9654 -0.1926
 5758SOL    HW219282   6.653  11.089   9.743 -0.4817  0.9149  0.2090
 5759SOL     OW19283  10.167  10.894   6.718  0.4195  0.2688 -0.2857
 5759SOL    HW119284  10.103  10.938   6.774 -1.1415 -0.7032 -1.2457
 5759SOL    HW219285  10.216  10.966   6.677 -0.8271  1.0718 -0.4187
 5760SOL     OW19286   5.881   0.778   9.064 -0.7478 -0.4432 -0.1354
 5760SOL    HW119287   5.923   0.857   9.096  0.5183  0.7676 -4.1823
 5760SOL    HW219288   5.953   0.716   9.052 -1.5869 -1.9412  1.9228
 5761SOL     OW19289   1.330  10.777   6.224 -0.2181  0.4319  0.4708
 5761SOL    HW119290   1.424  10.762   6.216 -0.1894  1.0682 -0.5597
 5761SOL    HW219291   1.290  10.693   6.203  0.1141  0.1681  0.8799
 5762SOL     OW19292   1.157   9.028   6.596 -0.0621 -0.2739  0.1795
 5762SOL    HW119293   1.209   9.089   6.544  0.1098 -1.1125 -0.6646
 5762SOL    HW219294   1.067   9.062   6.590 -0.0394 -0.3229 -0.6440
 5763SOL     OW19295   2.510   6.963   2.652 -0.0312  0.0978  0.0163
 5763SOL    HW119296   2.451   6.894   2.623 -1.0171  0.7815  0.3165
 5763SOL    HW219297   2.583   6.961   2.590 -0.7386 -0.2841 -0.8227
 5764SOL     OW19298   4.635   8.936   6.085  0.5931  0.0091 -0.7679
 5764SOL    HW119299   4.603   8.906   6.170 -1.1099  1.2100 -0.9561
 5764SOL    HW219300   4.616   9.029   6.083  1.7765  0.2607 -1.9817
 5765SOL     OW19301   8.529   8.830   9.710  0.1948  0.2609  0.3426
 5765SOL    HW119302   8.444   8.833   9.753 -0.2493 -1.1468 -0.3730
 5765SOL    HW219303   8.517   8.769   9.637  1.6209  0.5980 -0.2145
 5766SOL     OW19304   0.174   3.742   9.069  0.1519 -0.4588  0.0745
 5766SOL    HW119305   0.183   3.820   9.013 -0.6393  0.8108  1.6185
 5766SOL    HW219306   0.217   3.672   9.020  0.7169  0.8990 -1.4722
 5767SOL     OW19307   8.204   7.564   0.874 -1.0851  0.2893 -0.2224
 5767SOL    HW119308   8.237   7.510   0.946 -1.1806 -0.4156 -0.6985
 5767SOL    HW219309   8.280   7.577   0.818 -1.4118 -0.6382 -0.8925
 5768SOL     OW19310   7.795   7.534   1.748 -0.4428 -0.3163 -0.5277
 5768SOL    HW119311   7.744   7.454   1.756  0.5779 -1.1368 -1.8196
 5768SOL    HW219312   7.886   7.505   1.745  0.1889  1.1284  1.9621
 5769SOL     OW19313   7.169   6.847   8.608  0.0457  0.0643  0.1176
 5769SOL    HW119314   7.215   6.800   8.676 -1.0583 -2.2952 -0.6491
 5769SOL    HW219315   7.106   6.902   8.655  1.8166  1.3546  1.0594
 5770SOL     OW19316   0.066   5.643   1.148 -0.2229  0.1896 -0.0819
 5770SOL    HW119317   0.052   5.607   1.236 -2.1187 -0.2786 -0.5365
 5770SOL    HW219318   0.031   5.577   1.089 -0.0122  1.0040 -1.1468
 5771SOL     OW19319   5.008   5.915   5.041  0.4203 -0.1508  0.1930
 5771SOL    HW119320   4.964   5.921   5.125 -1.5678 -1.0965 -0.7127
 5771SOL    HW219321   4.947   5.867   4.985  0.7951  2.0464 -2.3311
 5772SOL     OW19322   0.788   6.743   4.823 -0.6071  0.2393 -0.3575
 5772SOL    HW119323   0.742   6.699   4.894 -0.9581  0.3015 -0.5465
 5772SOL    HW219324   0.863   6.686   4.805  0.6308  1.2083  1.3904
 5773SOL     OW19325   6.604  10.061   0.248 -0.1383 -0.1666 -0.1444
 5773SOL    HW119326   6.600  10.148   0.209  1.9917  1.2695  2.5541
 5773SOL    HW219327   6.521  10.052   0.295  0.3434  1.2063  1.0165
 5774SOL     OW19328   2.824   9.059   5.246  0.0668 -0.2118 -0.1998
 5774SOL    HW119329   2.745   9.102   5.213 -1.0296 -3.0532 -1.5698
 5774SOL    HW219330   2.858   9.120   5.312 -2.4324  1.7822 -0.5835
 5775SOL     OW19331   3.122   5.759   4.413  0.0011  0.4814 -0.6558
 5775SOL    HW119332   3.141   5.784   4.504 -3.9072  0.8146  0.2496
 5775SOL    HW219333   3.112   5.664   4.417 -0.0629  0.4840 -0.7779
 5776SOL     OW19334   4.992   8.502   1.663 -0.1120 -0.1169 -0.2346
 5776SOL    HW119335   4.899   8.515   1.649 -0.2597 -0.5174  0.3437
 5776SOL    HW219336   5.004   8.515   1.757  0.1204 -1.7746 -0.0027
 5777SOL     OW19337   1.763   6.845   2.983 -0.3959  0.4922  0.0475
 5777SOL    HW119338   1.828   6.817   2.918  0.2448 -0.0781  0.9227
 5777SOL    HW219339   1.766   6.941   2.980  2.4838  0.5838  1.9664
 5778SOL     OW19340  10.568   9.294   8.365  0.0982  0.0982 -0.4949
 5778SOL    HW119341  10.515   9.288   8.286  0.4634  0.4599 -0.7723
 5778SOL    HW219342  10.646   9.241   8.347 -0.4459 -0.9535  0.1507
 5779SOL     OW19343   9.795  10.265   0.686 -0.6975 -0.0271 -0.0140
 5779SOL    HW119344   9.880  10.225   0.704 -0.1340  1.6463  1.2886
 5779SOL    HW219345   9.814  10.355   0.662 -2.1422  1.1419  2.7293
 5780SOL     OW19346   4.007   7.004   7.091  0.5711 -0.1836 -0.1285
 5780SOL    HW119347   4.079   6.945   7.070  1.1285  0.0157  1.0745
 5780SOL    HW219348   3.930   6.965   7.051  1.3338 -0.4564 -1.3544
 5781SOL     OW19349   4.773   4.053   9.572 -0.4573 -0.0832 -0.0388
 5781SOL    HW119350   4.743   4.068   9.662 -0.1565  0.0163  0.0440
 5781SOL    HW219351   4.865   4.079   9.573 -0.5746  0.3639 -0.4907
 5782SOL     OW19352   0.799   0.562   0.336  0.3815  0.4762 -0.5585
 5782SOL    HW119353   0.858   0.528   0.403 -0.7161 -1.2361 -0.3970
 5782SOL    HW219354   0.840   0.539   0.253  0.4837  0.2882 -0.4552
 5783SOL     OW19355   8.008   5.686   7.616  0.2427  0.0033  0.1011
 5783SOL    HW119356   7.917   5.655   7.611  0.3137 -0.0887 -0.8593
 5783SOL    HW219357   8.000   5.780   7.630 -0.0247  0.1430 -0.8860
 5784SOL     OW19358   3.025   7.612   7.941  0.4419  0.4729  0.1846
 5784SOL    HW119359   3.092   7.679   7.946 -0.8909  1.8544  0.1199
 5784SOL    HW219360   2.990   7.605   8.030 -0.4039  0.9383 -0.0917
 5785SOL     OW19361   9.963   6.854   9.300  0.0626  0.2172 -0.7359
 5785SOL    HW119362  10.037   6.914   9.311  1.4471 -1.1441 -2.0659
 5785SOL    HW219363   9.954   6.844   9.205 -0.2179 -1.4965 -0.5639
 5786SOL     OW19364   1.033   5.436   8.281  0.1495 -0.3911  0.1239
 5786SOL    HW119365   1.119   5.401   8.305  0.9072  1.7673  0.7873
 5786SOL    HW219366   1.050   5.525   8.252 -1.7581 -0.2906 -0.8524
 5787SOL     OW19367   9.278   4.133   7.017  0.0612 -0.3055 -0.9318
 5787SOL    HW119368   9.299   4.078   6.942 -0.2945 -1.1843 -0.4035
 5787SOL    HW219369   9.333   4.100   7.088 -1.6923 -1.4554 -0.0232
 5788SOL     OW19370   3.541  10.553   5.539  0.0613  0.1752 -0.3441
 5788SOL    HW119371   3.535  10.536   5.445  0.1129  0.7956 -0.4699
 5788SOL    HW219372   3.514  10.472   5.581  1.1235 -0.4914 -0.8905
 5789SOL     OW19373   3.280   6.244   5.839  0.0621  0.2533 -0.2385
 5789SOL    HW119374   3.308   6.316   5.896 -2.3079  0.4116  0.8571
 5789SOL    HW219375   3.225   6.286   5.773 -3.1988 -0.6030  1.6786
 5790SOL     OW19376  10.603   9.506   9.278 -0.2241 -0.2505 -0.0173
 5790SOL    HW119377  10.538   9.532   9.213 -1.3694 -0.5324  0.9670
 5790SOL    HW219378  10.551   9.469   9.350  1.1394 -2.0464  0.1112
 5791SOL     OW19379   5.402   6.938   7.043  0.0911  0.0369  0.0398
 5791SOL    HW119380   5.391   6.884   6.965  1.8911 -1.5907  0.8124
 5791SOL    HW219381   5.331   6.911   7.101  0.5694 -1.0393  0.1460
 5792SOL     OW19382   0.586   0.652   4.611  0.1610 -0.1541 -0.1656
 5792SOL    HW119383   0.493   0.674   4.608 -0.5078 -2.3558  1.7619
 5792SOL    HW219384   0.630   0.733   4.586 -2.2284  1.0809 -0.7246
 5793SOL     OW19385   4.360   6.037   5.519 -0.4268  0.5435 -0.4236
 5793SOL    HW119386   4.416   5.970   5.480  1.3701  0.6710  1.6915
 5793SOL    HW219387   4.283   5.990   5.549  0.3668 -0.4412  0.1541
 5794SOL     OW19388   8.872   4.585   6.440  0.0694 -0.1255 -0.2820
 5794SOL    HW119389   8.875   4.554   6.349  0.5397  0.1971 -0.3825
 5794SOL    HW219390   8.964   4.601   6.463 -0.0880  0.3193  0.0654
 5795SOL     OW19391   1.794  10.132   5.048 -0.7520 -0.1338 -0.1979
 5795SOL    HW119392   1.721  10.100   5.100 -0.1727  0.6203  1.1222
 5795SOL    HW219393   1.765  10.216   5.013 -0.3260  0.4517  0.8181
 5796SOL     OW19394   7.676   6.776   7.056  0.1460 -0.0731  0.4568
 5796SOL    HW119395   7.585   6.747   7.043 -0.1389  1.2866 -0.8035
 5796SOL    HW219396   7.672   6.871   7.048  1.8700 -0.0711 -1.0097
 5797SOL     OW19397   9.659   1.827   7.883 -0.5863  0.1375  0.0370
 5797SOL    HW119398   9.586   1.863   7.933 -0.9420 -0.5405  0.0198
 5797SOL    HW219399   9.640   1.853   7.792  0.6587  2.3680  0.3457
 5798SOL     OW19400   3.013  10.501   8.850  0.0452  0.1042  0.0638
 5798SOL    HW119401   3.069  10.429   8.821  0.4982 -0.3814  1.9980
 5798SOL    HW219402   3.067  10.579   8.836  1.1051 -0.3207  1.5180
 5799SOL     OW19403   9.051  10.255  10.209  0.0687  0.3188  0.1014
 5799SOL    HW119404   8.963  10.291  10.208  1.2884  3.7385  1.3895
 5799SOL    HW219405   9.050  10.189  10.278 -1.7221 -0.6133 -0.7585
 5800SOL     OW19406  10.426   0.062   3.000 -0.3002  0.1599  0.1093
 5800SOL    HW119407  10.441  -0.019   2.950 -1.3795 -0.7956  1.2511
 5800SOL    HW219408  10.343   0.096   2.965 -1.4943 -0.9502  1.7062
 5801SOL     OW19409   2.825   4.172   5.972 -0.0335 -0.7845  0.0152
 5801SOL    HW119410   2.758   4.179   6.040 -1.4494 -0.4961 -1.3747
 5801SOL    HW219411   2.812   4.249   5.917  0.9380 -1.1428 -0.7403
 5802SOL     OW19412  10.700   7.156   3.714 -0.2663 -0.1643  0.2482
 5802SOL    HW119413  10.771   7.110   3.759 -0.2255 -1.6035 -1.2043
 5802SOL    HW219414  10.675   7.098   3.642 -0.2931  2.0499 -1.6411
 5803SOL     OW19415   6.312   0.102  10.336 -0.0988  0.2308 -0.1725
 5803SOL    HW119416   6.311   0.006  10.328  1.1655  0.0939  0.9381
 5803SOL    HW219417   6.223   0.124  10.365  0.0207 -0.7880  1.0746
 5804SOL     OW19418   6.765   7.356   4.148  0.6686 -0.2045 -0.9265
 5804SOL    HW119419   6.788   7.263   4.147  1.3467 -0.1031  0.8701
 5804SOL    HW219420   6.743   7.374   4.239  1.8579  1.6808 -0.9473
 5805SOL     OW19421  10.158   0.047   4.565  0.2587 -0.0737  0.1734
 5805SOL    HW119422  10.139   0.080   4.477  0.4075  0.9590  0.5213
 5805SOL    HW219423  10.254   0.038   4.567  0.2476 -0.1942  0.2035
 5806SOL     OW19424   5.290  10.095   4.600 -0.6767  0.3674  0.4319
 5806SOL    HW119425   5.348  10.084   4.675  0.9542  2.1388 -0.4639
 5806SOL    HW219426   5.313  10.182   4.565 -1.9434 -0.0560 -1.6138
 5807SOL     OW19427   9.563   7.485   5.870  0.1286 -0.0724  0.3268
 5807SOL    HW119428   9.625   7.548   5.834  0.6244 -0.7175  0.0247
 5807SOL    HW219429   9.549   7.513   5.960  1.0344 -0.0473  0.4675
 5808SOL     OW19430   7.517   9.451   6.526  0.1487 -0.2962 -0.0745
 5808SOL    HW119431   7.505   9.447   6.621 -1.3124 -1.1337 -0.2791
 5808SOL    HW219432   7.446   9.399   6.490 -0.7919  1.9618 -1.7344
 5809SOL     OW19433  10.899   8.387   1.694 -0.1177 -0.5214 -0.0674
 5809SOL    HW119434  10.902   8.482   1.705 -1.8065 -0.2711 -1.3243
 5809SOL    HW219435  10.990   8.359   1.707  0.3719  1.2138  0.6213
 5810SOL     OW19436   9.779   6.615   3.921  0.4853  0.7297  0.3327
 5810SOL    HW119437   9.836   6.569   3.860  1.9655 -0.2555  2.3114
 5810SOL    HW219438   9.708   6.554   3.939  0.2531  0.8682 -0.1275
 5811SOL     OW19439   3.619  10.101   4.517 -0.1724 -0.3518  0.0099
 5811SOL    HW119440   3.550  10.066   4.459 -1.1086 -0.0097  0.8943
 5811SOL    HW219441   3.674  10.154   4.459 -0.6852 -0.5746 -0.7003
 5812SOL     OW19442   0.166  10.430   6.065  0.0418  0.5383  0.3153
 5812SOL    HW119443   0.075  10.458   6.057 -0.1931 -0.4779 -0.9820
 5812SOL    HW219444   0.194  10.462   6.151 -2.1754 -0.9403  1.6927
 5813SOL     OW19445   5.398   8.323   6.162  0.1108  0.8714 -0.4680
 5813SOL    HW119446   5.328   8.276   6.115 -0.8492  0.2980  1.4099
 5813SOL    HW219447   5.370   8.415   6.161  0.4479  0.9665 -1.5813
 5814SOL     OW19448   3.816   7.393   1.955 -0.3238  0.7641  0.0757
 5814SOL    HW119449   3.895   7.389   1.901 -1.9987 -0.0487 -2.4960
 5814SOL    HW219450   3.814   7.484   1.987  2.8624  0.2016  2.3665
 5815SOL     OW19451   4.433   1.463   7.829 -0.5828 -0.8161  0.1659
 5815SOL    HW119452   4.338   1.476   7.835 -0.5663  0.8915 -1.9748
 5815SOL    HW219453   4.446   1.420   7.744  0.5462 -1.2129  0.5256
 5816SOL     OW19454   1.545  10.248   4.152 -0.6135  0.1979  0.2170
 5816SOL    HW119455   1.470  10.304   4.165 -1.6923 -1.0987 -0.1520
 5816SOL    HW219456   1.565  10.257   4.058 -0.4732  0.3411  0.2602
 5817SOL     OW19457   4.158   5.087   7.230  0.3577 -0.3160 -0.0659
 5817SOL    HW119458   4.085   5.146   7.212 -0.3190 -0.9402  0.5632
 5817SOL    HW219459   4.236   5.143   7.227  0.0505  0.0677 -2.3361
 5818SOL     OW19460   4.861   9.032   4.675 -0.7657  0.1144 -0.1432
 5818SOL    HW119461   4.956   9.018   4.675 -0.4043  2.2634  0.0182
 5818SOL    HW219462   4.838   9.041   4.767 -0.7754  1.4757 -0.2563
 5819SOL     OW19463   0.686  10.697   9.874  0.0371  0.1371 -0.1585
 5819SOL    HW119464   0.763  10.682   9.820 -1.3879 -3.3102 -1.4773
 5819SOL    HW219465   0.612  10.669   9.820 -1.7483 -0.6849  2.5089
 5820SOL     OW19466   0.267   6.242   7.116 -0.2844  0.2286  0.2274
 5820SOL    HW119467   0.347   6.294   7.120 -0.7531  0.8966  1.5107
 5820SOL    HW219468   0.272   6.197   7.032  0.9437  1.0408 -0.1645
 5821SOL     OW19469   4.878   3.225   1.658 -0.2599 -0.3515 -0.0953
 5821SOL    HW119470   4.803   3.244   1.602  0.2069  0.3825 -0.4959
 5821SOL    HW219471   4.897   3.133   1.643 -1.2341 -0.6206  0.2125
 5822SOL     OW19472   6.819   0.024  10.899  0.4866 -0.2547 -0.2752
 5822SOL    HW119473   6.732   0.064  10.897 -0.5228 -2.3151 -1.2284
 5822SOL    HW219474   6.864   0.068  10.972 -1.2648  1.0114  0.1172
 5823SOL     OW19475   2.021   6.422   7.754  0.1494  0.1825 -0.1458
 5823SOL    HW119476   2.031   6.498   7.697  1.7952  0.4875  0.5033
 5823SOL    HW219477   2.055   6.349   7.702 -1.6489 -0.2126 -0.8611
 5824SOL     OW19478   1.403   0.211   1.321 -0.6051  0.0516 -0.3063
 5824SOL    HW119479   1.420   0.153   1.247 -0.8922  0.9248 -1.0639
 5824SOL    HW219480   1.427   0.159   1.398 -0.0476 -0.7652 -1.0198
 5825SOL     OW19481   9.027   3.478   2.598 -0.4035  0.0321  0.0302
 5825SOL    HW119482   8.961   3.410   2.587 -0.5093  0.0766  0.3985
 5825SOL    HW219483   9.007   3.542   2.529 -0.0194 -0.5327 -0.6127
 5826SOL     OW19484   1.919   1.417   8.134 -0.0684 -0.2955 -0.3109
 5826SOL    HW119485   1.899   1.511   8.134  0.5175 -0.1275  1.5260
 5826SOL    HW219486   1.981   1.406   8.061  0.4431  0.9017 -0.0905
 5827SOL     OW19487  10.789  10.265  10.965  0.7548 -0.2059 -0.2214
 5827SOL    HW119488  10.724  10.229  10.905  0.1494  1.2136 -0.4614
 5827SOL    HW219489  10.738  10.315  11.028  1.6264  1.5609 -0.8480
 5828SOL     OW19490   0.036  10.871   2.788  0.3779  0.1669 -0.5379
 5828SOL    HW119491   0.115  10.870   2.734 -0.0563  1.6033 -1.2721
 5828SOL    HW219492  -0.034  10.842   2.729  0.3020 -0.7740  0.0090
 5829SOL     OW19493   1.698   2.428   4.030 -0.7585  0.1048 -0.6857
 5829SOL    HW119494   1.754   2.353   4.052 -0.5498 -0.3497 -2.5621
 5829SOL    HW219495   1.646   2.397   3.956 -1.0954  1.6229 -1.1162
 5830SOL     OW19496   9.904  10.030   8.803 -0.6143 -0.1440  0.3735
 5830SOL    HW119497   9.894   9.962   8.870  3.7127  0.9080  2.4060
 5830SOL    HW219498   9.995  10.024   8.776 -1.3184  1.8123 -2.9559
 5831SOL     OW19499   1.704   0.404   8.846 -0.0527 -0.0180 -0.0743
 5831SOL    HW119500   1.677   0.333   8.787 -0.8166 -0.2579  0.5477
 5831SOL    HW219501   1.668   0.483   8.807  0.2811 -0.0414 -0.4425
 5832SOL     OW19502   0.820  10.215   3.860 -0.4564  0.8606  0.2346
 5832SOL    HW119503   0.843  10.296   3.814  0.1246  1.2218  1.1303
 5832SOL    HW219504   0.775  10.244   3.939 -2.1657  0.2214 -0.4574
 5833SOL     OW19505   4.402   7.871   0.872  0.7210  0.1760  0.0460
 5833SOL    HW119506   4.355   7.954   0.869 -0.0507 -0.2512  0.0173
 5833SOL    HW219507   4.335   7.805   0.855  1.4296 -0.4198 -0.4970
 5834SOL     OW19508   2.115   7.440   4.694  0.1811  0.9455 -0.1367
 5834SOL    HW119509   2.181   7.465   4.758 -0.7936  3.5668 -0.0137
 5834SOL    HW219510   2.055   7.383   4.742 -0.1873  2.3585  1.1568
 5835SOL     OW19511   1.656   6.636   5.032  0.6446 -0.2827 -0.6363
 5835SOL    HW119512   1.632   6.544   5.020 -1.4107  0.1952 -0.4789
 5835SOL    HW219513   1.682   6.665   4.945 -1.0981 -0.3884 -1.2233
 5836SOL     OW19514   0.019   4.861   2.897 -0.6745 -0.3736 -0.5079
 5836SOL    HW119515  -0.007   4.857   2.805 -1.1282  0.6750 -0.4404
 5836SOL    HW219516  -0.056   4.900   2.941 -0.6153 -1.2325  0.3835
 5837SOL     OW19517   3.648   9.377   2.212  0.3165  0.4090 -0.2244
 5837SOL    HW119518   3.716   9.353   2.276 -0.5443  0.2433  0.6543
 5837SOL    HW219519   3.680   9.342   2.129  1.0593 -0.1277  0.2726
 5838SOL     OW19520   7.681   4.900   7.562  0.3450  0.4791  0.3239
 5838SOL    HW119521   7.758   4.844   7.565 -1.5454 -2.3265  0.0667
 5838SOL    HW219522   7.659   4.917   7.653  1.7196  2.0415  0.3935
 5839SOL     OW19523   9.077   9.246   7.300  0.5879  0.0623 -0.4942
 5839SOL    HW119524   9.007   9.192   7.338 -1.3954  0.9833 -2.6146
 5839SOL    HW219525   9.150   9.185   7.289 -0.5648 -1.4790 -0.0989
 5840SOL     OW19526   2.584   9.773   5.438 -0.7257 -0.0769  0.0844
 5840SOL    HW119527   2.520   9.814   5.496 -1.4525 -0.3421 -0.5205
 5840SOL    HW219528   2.547   9.784   5.350  0.5970  0.7606 -0.3936
 5841SOL     OW19529   5.112   9.978   9.512  0.4272 -0.0345 -0.1641
 5841SOL    HW119530   5.049   9.914   9.478 -1.1550  0.5653  1.4761
 5841SOL    HW219531   5.179   9.984   9.443 -1.2386 -0.7834 -1.9570
 5842SOL     OW19532   3.596  10.602   0.125 -0.2907  0.3564 -0.5075
 5842SOL    HW119533   3.606  10.697   0.134  1.2869  0.3913 -2.1430
 5842SOL    HW219534   3.543  10.590   0.047 -1.7569 -0.1316  0.5167
 5843SOL     OW19535   1.426   7.770   7.636  0.1701  0.1208 -0.6422
 5843SOL    HW119536   1.421   7.842   7.698  2.0501  1.4995 -1.9737
 5843SOL    HW219537   1.342   7.770   7.591 -1.2194 -0.8949  1.7973
 5844SOL     OW19538   0.359   6.403  10.260 -0.2401 -0.0223  0.4704
 5844SOL    HW119539   0.336   6.470  10.325  0.7335  0.8666 -0.0855
 5844SOL    HW219540   0.454   6.402  10.259 -0.2407 -0.1572 -0.8169
 5845SOL     OW19541   0.956   6.247   1.421 -0.3381 -0.1213  0.2365
 5845SOL    HW119542   0.956   6.152   1.413  2.9897 -0.1068 -1.5552
 5845SOL    HW219543   0.933   6.279   1.334 -2.0695  0.7758  0.9871
 5846SOL     OW19544   2.369   5.318   5.524 -0.0878 -0.0007 -0.4253
 5846SOL    HW119545   2.403   5.387   5.581 -1.6536  0.5331 -0.0946
 5846SOL    HW219546   2.414   5.331   5.441 -0.0906  1.2103 -0.2597
 5847SOL     OW19547   6.196   9.064   2.819  0.3370 -0.6418 -0.1486
 5847SOL    HW119548   6.139   9.140   2.828  0.3474 -0.6164 -0.3011
 5847SOL    HW219549   6.190   9.020   2.904 -1.4680 -1.7267 -0.7945
 5848SOL     OW19550   2.622   6.551  10.434 -0.3778 -0.6262 -0.3970
 5848SOL    HW119551   2.617   6.572  10.527 -0.5290 -0.6933 -0.3909
 5848SOL    HW219552   2.716   6.541  10.418 -0.2713  0.3294 -0.4602
 5849SOL     OW19553   8.290   2.997  10.645 -0.0849 -0.5139 -0.0829
 5849SOL    HW119554   8.237   3.076  10.657  1.1447  0.3931 -0.4546
 5849SOL    HW219555   8.372   3.029  10.606  0.5988 -1.9210  0.1562
 5850SOL     OW19556   2.588   6.855   8.576  0.1419  0.3052  0.5162
 5850SOL    HW119557   2.633   6.919   8.632  1.3043  0.2336 -0.2804
 5850SOL    HW219558   2.546   6.909   8.509  0.3799  0.2930  0.3541
 5851SOL     OW19559   8.960   6.485   1.165  0.1197  0.2433  0.3268
 5851SOL    HW119560   8.882   6.443   1.128 -0.2526  0.0977  1.2634
 5851SOL    HW219561   8.963   6.571   1.123 -1.0158  0.5755  0.8954
 5852SOL     OW19562   2.559   7.933   4.343  0.6053 -0.2025 -0.1025
 5852SOL    HW119563   2.626   7.965   4.403  0.6593  0.8651 -0.7048
 5852SOL    HW219564   2.499   8.007   4.332  1.8251  0.5289 -3.1259
 5853SOL     OW19565   2.533   2.497   5.409 -1.0251  0.0406 -0.5439
 5853SOL    HW119566   2.480   2.450   5.345 -0.0707 -0.7395 -0.7894
 5853SOL    HW219567   2.622   2.466   5.393 -0.6262  0.6081  0.4868
 5854SOL     OW19568  10.684   7.969  10.703  0.0344 -0.0074  0.2640
 5854SOL    HW119569  10.712   7.888  10.745  2.6538  0.3563 -0.5683
 5854SOL    HW219570  10.654   8.025  10.774  1.2430 -0.5791  1.2539
 5855SOL     OW19571   9.028   8.474  10.306 -0.0481  0.4403 -0.3802
 5855SOL    HW119572   8.967   8.547  10.303 -0.0396  0.5077  0.5941
 5855SOL    HW219573   9.113   8.514  10.320 -0.1043  0.2405  0.6340
 5856SOL     OW19574   9.972   8.731   9.348  0.4617 -0.4352  0.0007
 5856SOL    HW119575   9.915   8.655   9.346 -1.5289  0.9785  0.4487
 5856SOL    HW219576  10.032   8.718   9.275 -0.7429 -1.7409 -0.7919
 5857SOL     OW19577   1.920   5.846   5.580 -0.2246 -0.3658 -0.3283
 5857SOL    HW119578   1.967   5.788   5.640  1.5713 -0.4805 -1.7506
 5857SOL    HW219579   1.959   5.932   5.595 -1.8518  0.2200  0.7321
 5858SOL     OW19580   0.725  10.443  10.102  0.2329 -0.0819  0.1209
 5858SOL    HW119581   0.761  10.472  10.018 -0.5433  2.0037  0.4642
 5858SOL    HW219582   0.756  10.508  10.166 -1.5015 -0.0243  0.9589
 5859SOL     OW19583   9.923   5.784   6.437  0.0807  0.3916  0.3348
 5859SOL    HW119584   9.939   5.833   6.356 -1.1468  2.1146  1.0698
 5859SOL    HW219585   9.974   5.830   6.504 -1.0276  0.6549  1.0280
 5860SOL     OW19586   1.654   0.807   0.353 -0.1380 -0.9062 -0.0526
 5860SOL    HW119587   1.675   0.715   0.338 -0.6107 -0.7767 -1.7358
 5860SOL    HW219588   1.688   0.853   0.276 -0.1396  0.2981  0.6360
 5861SOL     OW19589   7.208   1.183   5.588  0.0885 -0.2685  0.0514
 5861SOL    HW119590   7.201   1.172   5.493 -1.0257  0.1062  0.0682
 5861SOL    HW219591   7.212   1.278   5.601 -0.8686 -0.2660  0.4205
 5862SOL     OW19592   7.810   1.604   2.896 -0.2903 -0.0855  0.0609
 5862SOL    HW119593   7.777   1.605   2.806 -0.5934  1.0247  0.1625
 5862SOL    HW219594   7.776   1.523   2.933 -1.0994 -0.0079 -0.4893
 5863SOL     OW19595   4.547   4.425   4.274 -0.2741  0.6121 -0.4564
 5863SOL    HW119596   4.576   4.394   4.360  1.2164  1.8779 -0.4663
 5863SOL    HW219597   4.453   4.442   4.285 -0.2831 -0.0405  0.6601
 5864SOL     OW19598   1.416   6.676  10.571 -0.0136 -0.5811 -0.2129
 5864SOL    HW119599   1.465   6.755  10.591  0.7431 -0.5494 -1.9999
 5864SOL    HW219600   1.326   6.705  10.561 -0.0243 -0.2444  0.7386
 5865SOL     OW19601   6.200   3.520   9.536  0.1237 -0.2098 -0.5474
 5865SOL    HW119602   6.200   3.613   9.557  0.1034 -0.4094  0.3822
 5865SOL    HW219603   6.290   3.492   9.553  0.9139  0.2038 -3.5756
 5866SOL     OW19604   2.267  11.067   0.169 -0.3454  0.0885  0.3332
 5866SOL    HW119605   2.333  11.046   0.234 -0.0705  1.2329  0.4376
 5866SOL    HW219606   2.241  11.157   0.188 -2.1365 -0.4115  0.4608
 5867SOL     OW19607   9.263   8.081   5.064 -0.2369 -0.0862 -0.0241
 5867SOL    HW119608   9.353   8.054   5.078 -0.4492  0.2921  2.4727
 5867SOL    HW219609   9.217   8.001   5.036  0.6183 -0.5344 -0.1667
 5868SOL     OW19610   0.437   0.392   9.823 -0.0791 -0.6372 -0.0596
 5868SOL    HW119611   0.413   0.482   9.846  0.9576 -0.1612 -0.7957
 5868SOL    HW219612   0.355   0.343   9.833 -0.4597  0.2065  1.1922
 5869SOL     OW19613   6.238   8.454   8.404  0.2027  0.4097  0.0924
 5869SOL    HW119614   6.193   8.401   8.470  0.6942 -0.7855 -0.4925
 5869SOL    HW219615   6.248   8.395   8.329  0.0141  1.6133 -0.9126
 5870SOL     OW19616   1.445   8.297   8.933  0.4392 -0.2822 -0.0233
 5870SOL    HW119617   1.472   8.367   8.873 -0.0778 -0.1114 -0.0626
 5870SOL    HW219618   1.522   8.282   8.988  0.0198  1.5435  1.1546
 5871SOL     OW19619   6.808   8.496   0.755 -0.0858 -0.2165 -0.7410
 5871SOL    HW119620   6.856   8.551   0.817 -0.6723  1.4874 -1.7070
 5871SOL    HW219621   6.875   8.440   0.716  0.4291 -0.7014  0.7731
 5872SOL     OW19622   6.373   4.712   1.013 -0.1502 -0.5334 -0.0174
 5872SOL    HW119623   6.344   4.796   1.048 -0.4083 -0.9288  0.7280
 5872SOL    HW219624   6.358   4.650   1.084  3.3923 -0.6181  0.8485
 5873SOL     OW19625  10.511   8.667   9.430 -0.2856  0.0506 -0.2561
 5873SOL    HW119626  10.526   8.758   9.403  0.1565  0.0768  0.0806
 5873SOL    HW219627  10.587   8.619   9.398 -1.0804 -0.4515 -1.5230
 5874SOL     OW19628   4.746   8.941   3.409  0.5394 -0.0773  0.5129
 5874SOL    HW119629   4.734   8.957   3.503  1.4946 -1.8591  0.9823
 5874SOL    HW219630   4.833   8.976   3.389  0.3719  0.2241  0.3032
 5875SOL     OW19631   2.132   6.734   7.921  0.3384  0.0239 -0.4334
 5875SOL    HW119632   2.073   6.665   7.950 -0.8153  1.7920  1.7690
 5875SOL    HW219633   2.096   6.762   7.837  0.3374 -1.4481 -0.9517
 5876SOL     OW19634   1.365   8.388   1.328 -0.7001 -0.0136 -0.0979
 5876SOL    HW119635   1.301   8.412   1.395  1.0793  0.0166  1.6660
 5876SOL    HW219636   1.326   8.313   1.282 -3.4776  2.0700 -1.4159
 5877SOL     OW19637   6.887   9.769  10.454 -0.1924 -0.6467 -0.4758
 5877SOL    HW119638   6.915   9.830  10.385 -0.8899  0.1630 -0.0562
 5877SOL    HW219639   6.926   9.685  10.429  1.5433  0.1551 -0.5981
 5878SOL     OW19640   3.497   6.374   0.478  0.1479 -0.1987  0.1458
 5878SOL    HW119641   3.420   6.339   0.434  0.7848 -0.7763 -0.5475
 5878SOL    HW219642   3.499   6.466   0.453  0.5915 -0.5485 -1.2302
 5879SOL     OW19643   4.656   0.094   9.899 -0.8629  0.0750 -0.1467
 5879SOL    HW119644   4.658  -0.001   9.887 -0.1511 -0.0398  0.7585
 5879SOL    HW219645   4.724   0.127   9.841  0.3410 -0.1829  1.0555
 5880SOL     OW19646   1.762   6.649   9.222 -0.3584 -0.1121  0.0556
 5880SOL    HW119647   1.756   6.741   9.199  0.1445  0.9958  3.6750
 5880SOL    HW219648   1.846   6.642   9.269 -0.8967 -2.1546  0.8099
 5881SOL     OW19649   2.870  10.475   5.954  0.0751 -0.4053  0.3396
 5881SOL    HW119650   2.844  10.526   6.031  0.3277 -0.0330  0.1782
 5881SOL    HW219651   2.811  10.399   5.955 -0.2588 -0.1480  0.6205
 5882SOL     OW19652   0.044   9.973   4.029  0.4751  0.3835 -0.1662
 5882SOL    HW119653  -0.041   9.935   4.051  0.7569 -1.1433 -1.5345
 5882SOL    HW219654   0.051  10.050   4.085 -1.5196  0.1779  0.4416
 5883SOL     OW19655   8.239   5.308   7.608  0.0050  0.3246 -0.1444
 5883SOL    HW119656   8.273   5.351   7.529 -0.1932 -0.4101 -0.6429
 5883SOL    HW219657   8.144   5.305   7.595 -0.2313  1.8392  0.9747
 5884SOL     OW19658   7.131   1.273   0.723 -0.1642 -0.2374 -0.1494
 5884SOL    HW119659   7.168   1.311   0.803 -1.4664  0.4380  0.1573
 5884SOL    HW219660   7.136   1.344   0.658 -0.3127 -0.3580 -0.2925
 5885SOL     OW19661  11.063   9.475   8.913  0.6231 -0.2642  0.0131
 5885SOL    HW119662  11.028   9.406   8.969  1.2937  0.5008  1.4450
 5885SOL    HW219663  11.156   9.480   8.937  0.8792  0.2327 -1.0317
 5886SOL     OW19664   2.200   1.778   6.973  0.1201  0.6204  0.0188
 5886SOL    HW119665   2.196   1.705   6.911 -3.0602 -1.0954  1.9781
 5886SOL    HW219666   2.139   1.843   6.937  0.2896  0.7947  0.0429
 5887SOL     OW19667   2.918   9.578   5.283  0.6777 -0.0958  0.3019
 5887SOL    HW119668   2.886   9.667   5.267 -0.6865 -0.5325  0.4940
 5887SOL    HW219669   2.898   9.561   5.375  2.5875  0.0292  0.7859
 5888SOL     OW19670   2.077   3.960  10.200  0.6089 -0.2353  0.4359
 5888SOL    HW119671   2.014   3.888  10.207 -1.4644  1.4163 -0.1524
 5888SOL    HW219672   2.135   3.948  10.275 -0.1550 -2.0560  0.7925
 5889SOL     OW19673  10.154   5.509  10.550 -0.3825 -0.4038  0.2837
 5889SOL    HW119674  10.222   5.471  10.495 -0.8490 -0.9740  0.0847
 5889SOL    HW219675  10.199   5.530  10.632 -0.2773 -2.3526  0.7985
 5890SOL     OW19676   5.845  10.961   8.443  0.2520 -0.1336 -0.4120
 5890SOL    HW119677   5.842  11.053   8.470 -0.2854 -0.7863  1.9354
 5890SOL    HW219678   5.935  10.934   8.458  0.6123  0.1722 -1.8512
 5891SOL     OW19679   3.188   2.184  10.762 -0.0751  0.4789  0.4857
 5891SOL    HW119680   3.194   2.136  10.844 -0.4548  0.4478  0.4948
 5891SOL    HW219681   3.121   2.138  10.712 -0.9826  1.4316  0.7920
 5892SOL     OW19682   2.009  11.088   7.269  0.1590  0.8687 -0.1942
 5892SOL    HW119683   2.041  11.024   7.206 -0.7868  1.5928 -1.4619
 5892SOL    HW219684   2.032  11.052   7.355  0.9723 -0.4108 -0.9288
 5893SOL     OW19685   3.826  10.132   8.292 -0.0124  0.2577  0.3661
 5893SOL    HW119686   3.800  10.056   8.241  0.4757  0.9536 -0.9758
 5893SOL    HW219687   3.787  10.119   8.378 -0.0230 -1.4389  0.1230
 5894SOL     OW19688   5.786   8.663   8.317  0.0422  0.1814  0.2204
 5894SOL    HW119689   5.875   8.636   8.298 -0.6034 -0.9288 -1.4574
 5894SOL    HW219690   5.782   8.669   8.413  2.0433  0.8596  0.3023
 5895SOL     OW19691  10.205   8.168  10.264 -0.0006 -0.0838 -0.1642
 5895SOL    HW119692  10.158   8.246  10.295 -1.0438 -1.0651  0.8137
 5895SOL    HW219693  10.226   8.187  10.173  1.3393  2.0592  0.5169
 5896SOL     OW19694  10.380   7.360   4.386 -0.5180 -0.0150  0.2614
 5896SOL    HW119695  10.384   7.285   4.445 -0.7229 -1.4081 -1.4008
 5896SOL    HW219696  10.392   7.436   4.442 -0.1071 -1.2985  1.9857
 5897SOL     OW19697   1.785   6.901   6.023 -0.3265  0.5437 -0.0535
 5897SOL    HW119698   1.819   6.988   6.004 -1.4181  0.7978 -0.8873
 5897SOL    HW219699   1.831   6.844   5.962  0.4233  0.5066  0.5247
 5898SOL     OW19700   6.516   7.151   8.411  0.3211  0.4141  0.0403
 5898SOL    HW119701   6.446   7.188   8.464  2.0030  0.5459  2.3394
 5898SOL    HW219702   6.562   7.227   8.375 -1.0893  0.3308 -2.1900
 5899SOL     OW19703   1.459   5.892   5.388 -0.0337 -0.1081  0.3365
 5899SOL    HW119704   1.537   5.945   5.406  1.3137 -1.7255 -0.5189
 5899SOL    HW219705   1.452   5.892   5.292 -2.6523  2.1179  0.3829
 5900SOL     OW19706   2.383   4.684   5.724 -0.1925 -0.2454  0.1215
 5900SOL    HW119707   2.363   4.672   5.817 -1.9870  3.4701  0.4103
 5900SOL    HW219708   2.298   4.693   5.682  0.2775  5.7993 -0.3962
 5901SOL     OW19709   8.132   8.882   7.570 -0.2780 -0.6365 -0.1384
 5901SOL    HW119710   8.123   8.787   7.558 -0.0484 -0.8745  1.3278
 5901SOL    HW219711   8.226   8.898   7.560 -0.2950 -0.5893 -0.2216
 5902SOL     OW19712   2.270   6.202   7.348  0.7177 -0.1644 -0.0738
 5902SOL    HW119713   2.334   6.269   7.326  0.8332 -0.2450  0.0197
 5902SOL    HW219714   2.200   6.213   7.283 -0.3465  1.5037  1.2867
 5903SOL     OW19715   0.349   5.849   0.535 -0.3110 -0.6183 -0.0561
 5903SOL    HW119716   0.300   5.927   0.510  0.2207 -0.7736 -1.6994
 5903SOL    HW219717   0.414   5.881   0.598 -0.8782  0.0384  0.2044
 5904SOL     OW19718   0.665   8.339   6.255  0.1162  1.0456 -0.3233
 5904SOL    HW119719   0.662   8.379   6.168 -0.8682  0.5939 -0.5157
 5904SOL    HW219720   0.599   8.386   6.305 -0.0670  0.5972 -0.1419
 5905SOL     OW19721   1.221   6.352   1.446 -0.0010 -0.4947 -0.0094
 5905SOL    HW119722   1.275   6.299   1.505 -0.4055  0.6536  1.4678
 5905SOL    HW219723   1.134   6.311   1.451 -0.2136  0.0318  0.8059
 5906SOL     OW19724   3.194   6.776   3.506 -0.5331  0.1875  0.4793
 5906SOL    HW119725   3.165   6.693   3.469  0.8580 -0.5958  1.0772
 5906SOL    HW219726   3.120   6.808   3.557 -1.2200 -0.4650 -0.0913
 5907SOL     OW19727  10.083   6.310   8.598  0.0011  0.6909 -0.7744
 5907SOL    HW119728  10.057   6.354   8.517  2.1433  2.8878 -0.3862
 5907SOL    HW219729  10.140   6.373   8.642  1.3210 -1.6132  1.0267
 5908SOL     OW19730   9.910   6.400   9.392  0.0894  0.6655 -0.1817
 5908SOL    HW119731   9.911   6.430   9.301  2.4101  1.1716 -0.0504
 5908SOL    HW219732   9.838   6.338   9.396 -0.2201  0.8122 -2.3053
 5909SOL     OW19733   0.929   0.265   7.197  0.4837 -0.2304 -0.1827
 5909SOL    HW119734   0.878   0.232   7.271  2.4927 -2.1364  0.4459
 5909SOL    HW219735   0.972   0.344   7.231 -1.8473  1.3845 -0.7097
 5910SOL     OW19736   8.733   6.362   0.033  0.5071  0.3198 -0.4415
 5910SOL    HW119737   8.642   6.391   0.026  0.2445 -0.5540 -0.7827
 5910SOL    HW219738   8.770   6.377  -0.054  1.0295  1.6981 -0.0225
 5911SOL     OW19739  10.254   5.163   6.008  0.6074 -0.6906 -0.7224
 5911SOL    HW119740  10.291   5.249   5.983 -0.7057 -0.8113 -3.5326
 5911SOL    HW219741  10.170   5.184   6.049  0.8066 -0.6141 -0.3493
 5912SOL     OW19742   1.631   3.201  10.713 -0.0003  0.1351 -0.4126
 5912SOL    HW119743   1.637   3.296  10.703 -1.1504  0.3233  0.4303
 5912SOL    HW219744   1.703   3.167  10.661  1.2709  1.5366  0.3393
 5913SOL     OW19745   9.702   6.020   9.153  0.3676  0.0219  0.6207
 5913SOL    HW119746   9.758   5.957   9.199 -1.3424 -1.1721  1.1984
 5913SOL    HW219747   9.678   6.084   9.220 -0.0888 -0.2726  0.7385
 5914SOL     OW19748   9.366   0.589   1.216  0.1387 -0.7769  0.0284
 5914SOL    HW119749   9.375   0.498   1.243  3.3363 -0.6408 -0.2895
 5914SOL    HW219750   9.381   0.640   1.296  1.6640 -0.5029 -0.4161
 5915SOL     OW19751   1.948   9.007   5.677 -0.0265  0.4792 -0.2022
 5915SOL    HW119752   1.873   9.067   5.681  0.9459  1.6713  1.3379
 5915SOL    HW219753   2.024   9.065   5.667  1.0339 -0.3708  2.2333
 5916SOL     OW19754  11.091   7.835   6.161 -0.4644 -0.4880  0.3056
 5916SOL    HW119755  11.012   7.791   6.129  0.0587 -0.1551 -1.5589
 5916SOL    HW219756  11.132   7.870   6.082  0.8122  0.5718  1.4007
 5917SOL     OW19757   7.192   0.946   9.662  0.2363 -0.2273 -0.4315
 5917SOL    HW119758   7.286   0.953   9.676  0.0291 -0.8242  1.5224
 5917SOL    HW219759   7.158   0.909   9.744 -1.8747  1.3336 -0.5278
 5918SOL     OW19760   1.292   6.469   1.210  0.0944 -0.3466 -0.0036
 5918SOL    HW119761   1.382   6.500   1.214  0.2941 -0.9467  0.3177
 5918SOL    HW219762   1.270   6.447   1.301 -0.3460 -0.2828 -0.0899
 5919SOL     OW19763   4.217   7.579   0.454 -0.4347 -0.5561 -0.3097
 5919SOL    HW119764   4.159   7.599   0.528 -1.4002 -2.0903 -0.5948
 5919SOL    HW219765   4.303   7.611   0.482 -1.0561  0.1598  0.8816
 5920SOL     OW19766   3.787   7.817   0.563  0.1857 -0.0123  0.0920
 5920SOL    HW119767   3.752   7.899   0.529 -1.3261 -0.6654  0.0090
 5920SOL    HW219768   3.714   7.776   0.609  0.2759 -2.2551 -1.5844
 5921SOL     OW19769   7.976   9.978   1.976 -0.2849  0.2441 -0.1976
 5921SOL    HW119770   8.037   9.925   1.924  1.5495 -0.0229  2.0431
 5921SOL    HW219771   7.914   9.915   2.013  1.8566 -0.5257  2.4144
 5922SOL     OW19772   1.983   8.173   1.107 -0.2042  0.0651 -0.0742
 5922SOL    HW119773   1.923   8.225   1.161  0.0686  0.7580 -0.4365
 5922SOL    HW219774   2.028   8.117   1.170  0.5612  1.3089  0.5131
 5923SOL     OW19775   1.828   9.484   9.385 -0.2178  0.4745 -0.4109
 5923SOL    HW119776   1.816   9.390   9.397  2.7613 -0.0780 -0.9845
 5923SOL    HW219777   1.845   9.494   9.291 -0.4757  1.5929 -0.3479
 5924SOL     OW19778   2.444   6.426   7.772 -0.4158  0.1932  0.6571
 5924SOL    HW119779   2.454   6.331   7.769 -1.1859  0.1083  0.6085
 5924SOL    HW219780   2.361   6.443   7.728  0.5504  1.0408 -0.9381
 5925SOL     OW19781   5.434   7.035   5.859  0.0894  0.2088 -0.2990
 5925SOL    HW119782   5.499   7.014   5.926 -0.2887 -1.2445 -0.3483
 5925SOL    HW219783   5.461   7.120   5.825  1.8848 -0.2653 -0.1947
 5926SOL     OW19784   3.177  10.226  10.872  0.5228 -0.4477  0.3151
 5926SOL    HW119785   3.097  10.179  10.895 -0.9857  0.3398 -2.8013
 5926SOL    HW219786   3.235  10.159  10.837 -1.1971 -0.3702 -3.0802
 5927SOL     OW19787   1.800   7.241   9.829  0.0328  0.3748  0.2625
 5927SOL    HW119788   1.729   7.250   9.766  0.2069  0.4655  0.0793
 5927SOL    HW219789   1.877   7.275   9.784  0.0548  0.9440  0.7067
 5928SOL     OW19790   3.227   1.750   3.563  0.2018  0.2782 -0.1007
 5928SOL    HW119791   3.172   1.794   3.629  0.1670  0.6396 -0.3655
 5928SOL    HW219792   3.297   1.812   3.546  0.7135 -0.1971  0.2581
 5929SOL     OW19793   9.133  10.931   0.219 -0.3078 -0.3861  0.7483
 5929SOL    HW119794   9.180  10.898   0.295  0.0413 -2.7843 -0.4429
 5929SOL    HW219795   9.042  10.936   0.247  0.1361  1.3110  2.0878
 5930SOL     OW19796   2.046  10.199   1.127  0.2488 -0.6540  0.0513
 5930SOL    HW119797   2.089  10.218   1.043 -0.1692  0.2827  0.0274
 5930SOL    HW219798   2.016  10.285   1.157 -1.2272 -1.2294  0.2748
 5931SOL     OW19799   0.532   7.562   8.532 -0.0243  1.0482 -0.1732
 5931SOL    HW119800   0.598   7.508   8.575 -2.0168  0.7371  2.7688
 5931SOL    HW219801   0.561   7.567   8.441  3.3653 -0.0255  0.7027
 5932SOL     OW19802   0.048   6.595   2.110 -0.5151  0.4516  0.0987
 5932SOL    HW119803  -0.037   6.551   2.101  0.0347 -0.6405  0.1082
 5932SOL    HW219804   0.089   6.585   2.024  0.3224 -0.5757  0.6009
 5933SOL     OW19805   0.040   6.798   8.604 -0.2548  0.6391 -0.4430
 5933SOL    HW119806  -0.053   6.798   8.585 -0.0139 -0.3084 -1.7333
 5933SOL    HW219807   0.067   6.707   8.591  0.7709  0.8091  0.3539
 5934SOL     OW19808   7.114   1.197  10.939  0.1068 -0.2902  0.3463
 5934SOL    HW119809   7.034   1.153  10.968  0.4949 -1.1848  0.1031
 5934SOL    HW219810   7.097   1.221  10.849 -0.8659  1.9278  1.0664
 5935SOL     OW19811   4.799   5.074   3.332 -0.0675 -0.4547 -0.5042
 5935SOL    HW119812   4.784   5.151   3.278  0.8448 -0.3376 -0.6093
 5935SOL    HW219813   4.805   5.109   3.421  1.7759 -0.1925 -0.7008
 5936SOL     OW19814   5.605   7.295   8.421  0.0441  0.3121  0.3163
 5936SOL    HW119815   5.654   7.224   8.379  0.5086  0.0151  1.3308
 5936SOL    HW219816   5.626   7.372   8.369  0.6783 -0.0267  0.0482
 5937SOL     OW19817   2.055  10.874   6.290 -0.4941 -0.2354 -0.3062
 5937SOL    HW119818   2.025  10.833   6.209 -0.0053 -0.4162 -0.4006
 5937SOL    HW219819   2.076  10.964   6.266  0.6502 -0.5634 -0.6337
 5938SOL     OW19820   2.224   1.213   9.957  0.5463 -0.2741  0.1838
 5938SOL    HW119821   2.215   1.208  10.052 -3.0339  2.9394  0.2459
 5938SOL    HW219822   2.299   1.271   9.943 -1.6245  3.1505  1.4224
 5939SOL     OW19823   7.664   0.503  10.795  0.2036  0.2679 -0.1913
 5939SOL    HW119824   7.652   0.579  10.738  1.2530 -0.0856 -0.8940
 5939SOL    HW219825   7.597   0.441  10.766  0.9462 -0.0443 -1.2839
 5940SOL     OW19826   0.783   9.449   8.424 -0.0751 -0.5104 -0.1439
 5940SOL    HW119827   0.773   9.442   8.519  0.4583 -1.7561 -0.1694
 5940SOL    HW219828   0.693   9.450   8.391 -0.2508 -1.3167  0.2949
 5941SOL     OW19829   9.610   1.997   0.589  0.9850  0.7092 -0.2994
 5941SOL    HW119830   9.601   1.904   0.569 -0.3524  0.7389  0.0550
 5941SOL    HW219831   9.554   2.041   0.524 -1.1810  0.9882  1.6292
 5942SOL     OW19832   6.512   8.408   7.490 -0.3142 -0.0932 -0.1454
 5942SOL    HW119833   6.490   8.315   7.495  0.5533 -0.2900  0.1332
 5942SOL    HW219834   6.489   8.443   7.576 -0.3205 -0.1220 -0.1356
 5943SOL     OW19835   7.837   7.846   6.898 -0.4092 -0.0148 -0.3624
 5943SOL    HW119836   7.768   7.829   6.963 -0.9830  0.2173 -0.8929
 5943SOL    HW219837   7.910   7.792   6.926 -0.4418  0.5175  0.8012
 5944SOL     OW19838   1.747   0.327   6.692 -0.0319 -0.0714  1.1053
 5944SOL    HW119839   1.694   0.250   6.714 -1.4028  0.3954 -0.3678
 5944SOL    HW219840   1.723   0.392   6.759  0.2002 -0.5026  1.6204
 5945SOL     OW19841  10.901   5.890  11.050 -0.6804  0.0756  0.3256
 5945SOL    HW119842  10.891   5.809  11.101  0.3859 -0.2800 -0.0085
 5945SOL    HW219843  10.902   5.860  10.959 -1.0585  0.5536  0.1600
 5946SOL     OW19844   8.945   1.466   3.323 -0.0244  0.4022  0.3253
 5946SOL    HW119845   8.889   1.480   3.246  2.0289 -1.9027 -1.7813
 5946SOL    HW219846   8.904   1.394   3.370  0.5118 -0.5237 -0.5894
 5947SOL     OW19847   0.905   7.037   4.920 -0.8193 -0.7077 -0.5504
 5947SOL    HW119848   0.910   6.942   4.925 -1.0645 -0.7504 -1.0912
 5947SOL    HW219849   0.994   7.065   4.901 -0.3045 -0.6847  1.6364
 5948SOL     OW19850   3.508   5.237   8.675  0.5790  0.2542  0.1298
 5948SOL    HW119851   3.592   5.271   8.644 -0.4680  1.2077 -1.8133
 5948SOL    HW219852   3.489   5.164   8.616  0.1353 -0.0987  0.7016
 5949SOL     OW19853   2.275   5.801   8.366 -0.1328 -0.9400  0.3581
 5949SOL    HW119854   2.253   5.711   8.387 -2.6020 -0.3084  0.8380
 5949SOL    HW219855   2.200   5.833   8.315  0.2287  1.0855  0.9848
 5950SOL     OW19856  11.092   8.899  10.620 -0.5523  0.3809  0.3359
 5950SOL    HW119857  11.113   8.989  10.593  0.4560 -0.0217 -0.2895
 5950SOL    HW219858  11.007   8.882  10.581  0.8309 -0.1679 -2.7505
 5951SOL     OW19859  10.673   7.104   1.676 -0.2235 -0.4171  0.1339
 5951SOL    HW119860  10.661   7.182   1.621  1.5715 -0.3877 -0.2767
 5951SOL    HW219861  10.585   7.083   1.706 -0.7573  1.8411  0.3600
 5952SOL     OW19862   2.673   7.189   9.268  0.2224 -0.5039 -0.3336
 5952SOL    HW119863   2.700   7.162   9.356  3.8816  0.8760 -0.8496
 5952SOL    HW219864   2.696   7.282   9.264 -0.1859 -0.4511 -2.6165
 5953SOL     OW19865   0.446   8.590   7.429  0.3732  0.1709 -0.2703
 5953SOL    HW119866   0.449   8.598   7.333  1.3814 -1.4213 -0.4171
 5953SOL    HW219867   0.524   8.538   7.450  0.7846  1.4513  1.5365
 5954SOL     OW19868   0.230   8.528   3.124 -0.2762 -0.2371 -0.1551
 5954SOL    HW119869   0.290   8.600   3.108 -0.6949  0.4031  1.0320
 5954SOL    HW219870   0.171   8.527   3.048 -0.8590  1.2866  0.2455
 5955SOL     OW19871   2.532   3.658  10.529  0.2993  0.5137 -0.0199
 5955SOL    HW119872   2.481   3.577  10.530  0.0987  0.6322  0.8442
 5955SOL    HW219873   2.620   3.631  10.553  0.4520  0.4274 -0.6631
 5956SOL     OW19874  10.336   3.350   6.410  0.3774  0.2819 -0.1599
 5956SOL    HW119875  10.262   3.408   6.428  0.1322  0.2495 -1.0238
 5956SOL    HW219876  10.307   3.264   6.441  1.2443  0.7935  2.3935
 5957SOL     OW19877   2.678   1.519   8.670  0.7940  0.0585 -0.2737
 5957SOL    HW119878   2.771   1.539   8.663  0.4796  1.5275 -0.7444
 5957SOL    HW219879   2.643   1.589   8.726 -0.0664 -0.2820 -0.3723
 5958SOL     OW19880   2.475   0.987   6.712  0.5362  0.1010 -0.4108
 5958SOL    HW119881   2.451   0.920   6.647  0.9392 -0.9042  0.4435
 5958SOL    HW219882   2.396   0.995   6.767  0.1237  1.0965 -1.1232
 5959SOL     OW19883   3.162   5.219   4.699  0.3976  0.3598 -0.2501
 5959SOL    HW119884   3.195   5.266   4.775 -1.1656  0.6557  0.2858
 5959SOL    HW219885   3.212   5.137   4.697  2.6368  1.6486 -0.7631
 5960SOL     OW19886   0.059   0.638   9.825 -0.0429 -0.5840 -0.5578
 5960SOL    HW119887   0.045   0.733   9.822 -0.9560 -0.7449 -2.8551
 5960SOL    HW219888   0.153   0.628   9.843 -0.2619  0.6686  1.7972
 5961SOL     OW19889   1.396   7.491   3.762  0.5055 -0.7345  0.5477
 5961SOL    HW119890   1.338   7.550   3.809 -0.1163 -1.2127  0.3931
 5961SOL    HW219891   1.344   7.458   3.689  1.1969 -0.6390 -0.0043
 5962SOL     OW19892   0.625   8.764  10.410  0.3892  0.3832 -0.3310
 5962SOL    HW119893   0.539   8.741  10.445  0.0847  0.0244 -1.2729
 5962SOL    HW219894   0.685   8.756  10.484 -0.3515  0.3965  0.2754
 5963SOL     OW19895   2.966   1.465   8.577 -0.0227 -0.1110  0.0318
 5963SOL    HW119896   2.953   1.556   8.552  0.0271  0.4770  1.9348
 5963SOL    HW219897   3.047   1.439   8.534 -0.0421  0.7423 -0.5389
 5964SOL     OW19898   5.044   1.678   0.469  0.4199 -0.7348 -0.2243
 5964SOL    HW119899   4.961   1.642   0.439  0.4780 -0.8308 -0.2703
 5964SOL    HW219900   5.099   1.682   0.391  1.4098 -3.2496  0.2261
 5965SOL     OW19901   4.237   5.194   9.284  0.0173  0.3069  0.4666
 5965SOL    HW119902   4.236   5.156   9.372 -0.4883 -0.1747  0.2590
 5965SOL    HW219903   4.146   5.192   9.255  0.2040  0.2718 -0.1453
 5966SOL     OW19904   9.802   3.566   9.232  0.0350  0.0843  0.2451
 5966SOL    HW119905   9.843   3.642   9.191 -0.4759  0.3994  0.3121
 5966SOL    HW219906   9.807   3.584   9.326 -1.5637  0.8377  0.2242
 5967SOL     OW19907   2.579   7.934  11.044 -0.0574 -0.4169  0.1270
 5967SOL    HW119908   2.543   8.001  11.102  2.0897  0.3083  0.7034
 5967SOL    HW219909   2.627   7.984  10.977  0.9346 -1.3266  0.1351
 5968SOL     OW19910   2.625  10.605  10.868  0.0415  0.2238 -0.6894
 5968SOL    HW119911   2.651  10.560  10.787  0.6922 -0.6207 -0.0346
 5968SOL    HW219912   2.707  10.635  10.906 -0.1699 -0.1384  0.0801
 5969SOL     OW19913   8.218   2.943   5.377 -0.0025  0.1613  0.2730
 5969SOL    HW119914   8.226   2.951   5.472 -0.9394  1.0404  0.2984
 5969SOL    HW219915   8.165   2.864   5.364 -0.6519  0.5463  0.5297
 5970SOL     OW19916   9.919   0.536   5.757 -0.1821  0.3300  0.4022
 5970SOL    HW119917  10.009   0.510   5.780  0.9170  2.1258 -1.4993
 5970SOL    HW219918   9.905   0.618   5.805  0.3239  1.5297 -1.3738
 5971SOL     OW19919   9.702   1.301   8.228 -0.0257  0.7545  0.1498
 5971SOL    HW119920   9.755   1.243   8.174  1.6608  1.1101  1.3262
 5971SOL    HW219921   9.765   1.345   8.284 -1.7608 -2.0712  4.9136
 5972SOL     OW19922   1.709   5.006   7.512  0.2789  0.1136 -0.5418
 5972SOL    HW119923   1.632   5.012   7.568  1.3188  1.3253  0.8380
 5972SOL    HW219924   1.678   4.962   7.433 -1.7678  0.4015  0.0451
 5973SOL     OW19925   4.587   9.440   1.512  0.3907  0.1793 -0.4400
 5973SOL    HW119926   4.568   9.430   1.606 -1.8697 -2.6718 -1.0719
 5973SOL    HW219927   4.591   9.535   1.499 -0.4308  0.6864  2.3248
 5974SOL     OW19928   3.554   4.738   4.935  0.6155  0.5478  0.3745
 5974SOL    HW119929   3.554   4.800   5.008  0.6157 -0.2355  1.0469
 5974SOL    HW219930   3.500   4.780   4.868 -0.2973  0.7971  1.2464
 5975SOL     OW19931   1.804   5.409  10.028  0.2386  0.6665 -0.0375
 5975SOL    HW119932   1.749   5.473   9.983 -1.1305 -0.5941 -0.2216
 5975SOL    HW219933   1.807   5.440  10.119  0.1162  1.3279 -0.2574
 5976SOL     OW19934   1.376   7.961   7.811 -0.5457  0.3434  0.1091
 5976SOL    HW119935   1.417   8.002   7.888  1.2474 -1.3820  0.1505
 5976SOL    HW219936   1.387   8.026   7.741  1.8788  0.2083  0.2588
 5977SOL     OW19937  10.969   8.925   7.196  0.0845  0.0219 -0.0194
 5977SOL    HW119938  11.058   8.955   7.215  0.3358 -0.1927 -0.7898
 5977SOL    HW219939  10.917   9.006   7.190  0.4625  0.2297 -0.6573
 5978SOL     OW19940   2.771  10.465   7.715 -0.1299  0.0113 -0.0339
 5978SOL    HW119941   2.811  10.464   7.628 -0.2252 -0.6121 -0.0773
 5978SOL    HW219942   2.843  10.487   7.774  0.1187 -0.3651 -0.1907
 5979SOL     OW19943   6.686   3.612   8.286 -0.5945  0.4347 -0.1392
 5979SOL    HW119944   6.675   3.668   8.209 -1.8888 -1.0743 -1.1335
 5979SOL    HW219945   6.668   3.669   8.360 -0.1170  1.7384 -0.9814
 5980SOL     OW19946   5.603  10.157   8.582 -0.7332 -0.2453  0.5409
 5980SOL    HW119947   5.656  10.225   8.540  1.0479 -1.3424  0.9168
 5980SOL    HW219948   5.514  10.174   8.551  0.1353  0.4037 -1.8401
 5981SOL     OW19949   0.177   7.921   4.413  0.2301 -0.2444 -0.1985
 5981SOL    HW119950   0.159   7.885   4.500 -0.9551  1.9876  0.5589
 5981SOL    HW219951   0.097   7.903   4.363 -0.7655  1.9135  0.4637
 5982SOL     OW19952   9.524   9.223   3.662 -0.6105  0.0678  0.3074
 5982SOL    HW119953   9.474   9.296   3.699  0.0247  0.9364 -0.4923
 5982SOL    HW219954   9.563   9.259   3.583  0.3423 -0.9259  0.3019
 5983SOL     OW19955   0.404   6.919   9.540 -0.6803 -0.2254 -0.2950
 5983SOL    HW119956   0.331   6.966   9.499 -0.1858  0.8813  0.0310
 5983SOL    HW219957   0.370   6.891   9.625 -1.3160 -1.4173 -0.9326
 5984SOL     OW19958  10.217   0.466   5.728 -0.2467  0.6546 -0.1920
 5984SOL    HW119959  10.290   0.440   5.672 -1.0389 -1.1926 -0.4352
 5984SOL    HW219960  10.254   0.532   5.786  1.9149 -0.8902  0.3238
 5985SOL     OW19961   7.499   8.671   9.352 -0.0385 -0.4162 -0.2583
 5985SOL    HW119962   7.576   8.681   9.407 -0.1759 -0.9753  0.0452
 5985SOL    HW219963   7.479   8.577   9.356  0.7924 -0.7328 -2.4135
 5986SOL     OW19964   0.500   0.943   9.369 -0.3951 -0.2136 -0.3081
 5986SOL    HW119965   0.463   0.877   9.428  0.8162 -0.0786  0.6373
 5986SOL    HW219966   0.423   0.990   9.336 -1.1659 -0.9380  0.3787
 5987SOL     OW19967   2.408   3.922   9.948  0.1098 -0.0720 -0.3572
 5987SOL    HW119968   2.414   3.900   9.855 -0.8777  0.9994 -0.6995
 5987SOL    HW219969   2.323   3.964   9.957  0.6222  0.7631  0.8353
 5988SOL     OW19970   8.067   7.487   1.680  0.1722 -0.0461  0.0751
 5988SOL    HW119971   8.158   7.510   1.701  0.4804 -0.0936 -1.1356
 5988SOL    HW219972   8.074   7.425   1.608 -0.8198 -0.2497  0.1458
 5989SOL     OW19973   0.012  10.048   8.905 -0.0897  0.1183 -0.2991
 5989SOL    HW119974   0.007   9.957   8.875 -1.5653  0.0754  0.0362
 5989SOL    HW219975   0.103  10.058   8.934  0.0348 -1.3085 -0.1247
 5990SOL     OW19976   3.079   2.249   9.250  0.2772 -0.1299 -0.5394
 5990SOL    HW119977   3.136   2.265   9.326  0.4445 -0.0549 -0.6818
 5990SOL    HW219978   3.106   2.163   9.218 -1.6812 -1.5010  1.1886
 5991SOL     OW19979   0.408   9.868   7.522  0.4394 -0.3952  0.2810
 5991SOL    HW119980   0.435   9.957   7.500 -0.0054 -0.4613 -0.5824
 5991SOL    HW219981   0.489   9.818   7.523  0.5654 -0.2328 -0.5343
 5992SOL     OW19982   3.039   5.886   6.973 -0.7116  0.7475 -0.3567
 5992SOL    HW119983   3.114   5.861   6.919 -0.0864  3.8826 -1.1530
 5992SOL    HW219984   2.967   5.897   6.910 -1.6844 -1.3036  0.2915
 5993SOL     OW19985   8.530   1.413   9.607 -0.2516 -0.5045  0.1840
 5993SOL    HW119986   8.504   1.474   9.538  0.3340  0.3255  0.6683
 5993SOL    HW219987   8.621   1.436   9.626 -0.3404 -0.8453  1.0813
 5994SOL     OW19988   5.765   9.207   1.739  0.4725 -0.3267 -0.3566
 5994SOL    HW119989   5.850   9.169   1.719 -0.3148 -1.3831 -1.8741
 5994SOL    HW219990   5.701   9.146   1.701 -0.9371  0.7538  0.1819
 5995SOL     OW19991   9.612   2.095   9.444  0.1766 -0.0328  0.3736
 5995SOL    HW119992   9.691   2.129   9.402 -1.1281  0.8268 -1.5303
 5995SOL    HW219993   9.589   2.017   9.394 -0.2334 -0.2523  0.8840
 5996SOL     OW19994   2.251   4.076   9.606 -0.1925  0.1680  0.0839
 5996SOL    HW119995   2.291   4.139   9.666 -0.9944  1.3670 -0.5874
 5996SOL    HW219996   2.228   4.001   9.661  2.6560 -0.5039  0.5591
 5997SOL     OW19997   1.840  11.022   5.205 -0.2099  0.4809  0.2942
 5997SOL    HW119998   1.800  11.076   5.136  2.9616  2.7800  0.0327
 5997SOL    HW219999   1.852  10.937   5.164 -1.9016  0.6335 -0.6286
 5998SOL     OW20000   5.114   2.970   8.559 -0.2374  0.6089  0.2851
 5998SOL    HW120001   5.202   2.989   8.527  0.2396 -0.1031  1.1395
 5998SOL    HW220002   5.088   3.049   8.606 -0.9431  1.6726 -1.7348
 5999SOL     OW20003   8.785   8.163   8.642  0.3154 -0.0713  0.4198
 5999SOL    HW120004   8.692   8.182   8.628  0.2899 -0.6084 -0.2158
 5999SOL    HW220005   8.831   8.228   8.590  0.2307 -1.5903 -1.6893
 6000SOL     OW20006   3.802   5.852   3.779 -0.1678 -0.2865 -0.2282
 6000SOL    HW120007   3.804   5.905   3.858 -0.3292  0.6508 -0.8355
 6000SOL    HW220008   3.721   5.878   3.735  0.0775 -0.5653 -0.8592
 6001SOL     OW20009   0.423   8.298   0.723  0.5309  0.1614  0.1301
 6001SOL    HW120010   0.381   8.382   0.706 -1.3903 -1.2367 -2.9699
 6001SOL    HW220011   0.516   8.314   0.704 -0.0069  1.3106 -1.8465
 6002SOL     OW20012   5.839  10.004   8.401  0.0039  0.8401 -0.4580
 6002SOL    HW120013   5.865   9.915   8.425 -0.2244  1.0932  0.8161
 6002SOL    HW220014   5.798  10.039   8.480 -0.6854  1.7868 -1.2166
 6003SOL     OW20015   2.499   9.183   6.154 -0.1114 -0.3344  0.2853
 6003SOL    HW120016   2.510   9.088   6.146  0.1318 -0.5000  2.1088
 6003SOL    HW220017   2.581   9.213   6.194 -0.8676  0.3823  1.3478
 6004SOL     OW20018   4.522   5.315   5.184 -0.4596 -0.6289  0.0712
 6004SOL    HW120019   4.558   5.402   5.202  0.0497 -0.5921 -1.0419
 6004SOL    HW220020   4.592   5.254   5.209  0.0729 -0.5974 -1.2591
 6005SOL     OW20021   9.625   3.351   1.831 -0.2127 -0.3036  0.1044
 6005SOL    HW120022   9.681   3.291   1.781 -0.2026  0.0245 -0.2797
 6005SOL    HW220023   9.597   3.416   1.767  1.6604  1.4773  0.9758
 6006SOL     OW20024   9.171   5.770   3.014 -0.2427 -0.1476  0.3300
 6006SOL    HW120025   9.147   5.683   3.045  1.1607  0.0561  2.1392
 6006SOL    HW220026   9.266   5.775   3.025 -0.1970  1.3613 -0.4220
 6007SOL     OW20027   2.594  10.527   6.466  0.1853 -0.1109  0.0177
 6007SOL    HW120028   2.590  10.590   6.394  0.3311  1.2476  1.1449
 6007SOL    HW220029   2.535  10.564   6.533  0.3923 -1.1010  0.7712
 6008SOL     OW20030  10.799  10.475   8.405 -0.0635  0.0453  0.4072
 6008SOL    HW120031  10.824  10.414   8.336 -1.0708 -1.5623  1.3803
 6008SOL    HW220032  10.876  10.478   8.463  0.5918  0.9998 -0.4881
 6009SOL     OW20033   1.035   9.062   1.122  0.4182 -0.2066 -0.0924
 6009SOL    HW120034   1.003   9.053   1.212  0.6564  2.4823  0.3597
 6009SOL    HW220035   0.959   9.044   1.067  0.4015 -2.4236  0.5781
 6010SOL     OW20036   2.440   1.342   6.978 -0.3105  0.3700  0.2284
 6010SOL    HW120037   2.456   1.436   6.989  0.4859  0.2020  0.5618
 6010SOL    HW220038   2.372   1.322   7.042 -1.5438  0.9976 -0.8442
 6011SOL     OW20039   1.264   9.231   8.841  0.2845 -0.3161  0.3152
 6011SOL    HW120040   1.350   9.267   8.863  0.3363 -0.0738 -0.2619
 6011SOL    HW220041   1.278   9.187   8.757 -0.1000 -0.4879  0.3420
 6012SOL     OW20042   0.969   6.939   6.568  0.4606 -0.2836 -0.2647
 6012SOL    HW120043   0.969   6.992   6.647 -1.4536  0.1635 -0.5131
 6012SOL    HW220044   1.021   6.861   6.591 -0.7572 -0.5856  1.7352
 6013SOL     OW20045   3.877   8.597   4.634  0.8512  0.1436 -0.6469
 6013SOL    HW120046   3.823   8.603   4.554  0.5036 -1.4219 -0.5572
 6013SOL    HW220047   3.825   8.642   4.701  0.4771  0.1977 -0.9655
 6014SOL     OW20048  10.623   6.461   9.002 -0.2937  0.1233 -0.6286
 6014SOL    HW120049  10.636   6.387   8.943 -0.4720  1.7775 -2.8823
 6014SOL    HW220050  10.557   6.515   8.959 -1.8877  0.4939  2.0881
 6015SOL     OW20051   0.133   3.488   3.830 -0.0431  0.4484 -0.2117
 6015SOL    HW120052   0.211   3.452   3.872 -0.4032 -0.9579 -0.6967
 6015SOL    HW220053   0.110   3.564   3.884  0.0893 -0.7028  1.5566
 6016SOL     OW20054   1.913   1.299  10.728 -0.3364  0.7134  0.6610
 6016SOL    HW120055   1.887   1.236  10.661 -0.7771  1.1021  0.4571
 6016SOL    HW220056   1.879   1.262  10.809 -0.2907  0.5167  0.5911
 6017SOL     OW20057   6.805   3.700   3.635 -0.3054  0.5413 -0.6239
 6017SOL    HW120058   6.755   3.637   3.688  0.7829  1.5745  1.7883
 6017SOL    HW220059   6.765   3.784   3.655  0.1811  0.9673 -1.4181
 6018SOL     OW20060   1.116   6.606   2.799  0.3361 -0.0667  0.1061
 6018SOL    HW120061   1.138   6.594   2.707 -1.0301  0.7474 -0.3482
 6018SOL    HW220062   1.085   6.520   2.828 -1.9793  0.3105 -1.0195
 6019SOL     OW20063   1.073   6.205   3.599 -0.4390  0.1266 -0.0862
 6019SOL    HW120064   1.066   6.277   3.661 -0.0658 -0.1716  0.3106
 6019SOL    HW220065   1.050   6.244   3.515  0.8927  1.0176 -0.0786
 6020SOL     OW20066   6.446  10.766   4.418 -0.3103  0.2790  0.5815
 6020SOL    HW120067   6.516  10.831   4.431  1.6438 -1.2720 -1.3749
 6020SOL    HW220068   6.426  10.734   4.506  1.8423  0.4300  1.1802
 6021SOL     OW20069   5.997   6.872   1.517 -0.1338 -0.0389 -0.2221
 6021SOL    HW120070   6.050   6.943   1.553  0.3208 -1.0084  1.1015
 6021SOL    HW220071   6.008   6.879   1.423  0.9952  0.8147 -0.0457
 6022SOL     OW20072   1.413   5.317   5.948 -0.1055 -0.7035  0.2495
 6022SOL    HW120073   1.349   5.274   5.891  0.3638  0.0037 -0.8507
 6022SOL    HW220074   1.360   5.372   6.005 -0.4911  0.6229 -1.2906
 6023SOL     OW20075   3.059   8.271   3.365 -0.3531  0.2662  0.3653
 6023SOL    HW120076   3.125   8.332   3.398 -0.2649 -0.6614  2.0124
 6023SOL    HW220077   2.976   8.318   3.376 -0.0036  1.5558 -2.0048
 6024SOL     OW20078   5.802  10.713   0.599 -0.0437 -0.3111 -0.2028
 6024SOL    HW120079   5.733  10.647   0.594  0.4724 -1.0215  1.3636
 6024SOL    HW220080   5.756  10.796   0.589 -1.1116 -0.7794  0.5713
 6025SOL     OW20081   8.910   7.741   7.361 -0.4518 -0.1852  1.0835
 6025SOL    HW120082   8.899   7.701   7.275 -0.8216 -1.2453  1.6115
 6025SOL    HW220083   8.970   7.814   7.346 -0.7920 -0.1359 -0.1336
 6026SOL     OW20084   5.476   0.639   8.278  0.1128  0.4170 -0.0760
 6026SOL    HW120085   5.388   0.612   8.251  0.6531  0.8180 -2.4108
 6026SOL    HW220086   5.475   0.735   8.272  0.3641  0.5046  1.0795
 6027SOL     OW20087   7.707   5.307   6.326  0.0733 -0.1393 -0.6602
 6027SOL    HW120088   7.637   5.372   6.332 -0.5495 -0.8157 -0.5428
 6027SOL    HW220089   7.783   5.357   6.297 -0.3444  0.6837 -0.3788
 6028SOL     OW20090   0.744   2.220   8.160  0.3424 -0.3361  0.4044
 6028SOL    HW120091   0.703   2.295   8.115  1.8194 -0.1575 -0.7247
 6028SOL    HW220092   0.790   2.259   8.234 -0.6718 -0.4135  1.0873
 6029SOL     OW20093   3.619   8.704   9.609 -0.1773  0.0629  0.3059
 6029SOL    HW120094   3.697   8.699   9.555  0.6179 -0.0162  1.4288
 6029SOL    HW220095   3.612   8.618   9.651 -0.3336  0.3663  0.9170
 6030SOL     OW20096   1.786   5.537   9.369  0.0474 -0.3279  0.1944
 6030SOL    HW120097   1.876   5.533   9.338 -0.2535 -1.0148 -0.6373
 6030SOL    HW220098   1.738   5.477   9.312 -0.9952  0.2559  0.4248
 6031SOL     OW20099   9.187   4.399  10.363  0.4369  0.3357  0.0621
 6031SOL    HW120100   9.145   4.315  10.379 -0.0089  0.7412  1.1219
 6031SOL    HW220101   9.265   4.397  10.418  0.7296  0.3969 -0.3467
 6032SOL     OW20102   0.027   9.819   8.535  0.1263  0.0516  0.4375
 6032SOL    HW120103   0.091   9.885   8.509  0.9508 -1.0363 -0.4079
 6032SOL    HW220104   0.056   9.739   8.490 -1.9735 -0.4190 -0.1869
 6033SOL     OW20105   4.993   0.170   0.503 -0.2856  0.2651 -0.0554
 6033SOL    HW120106   4.911   0.210   0.475 -0.5291 -0.5382 -0.5153
 6033SOL    HW220107   5.015   0.108   0.433  0.2333 -0.1806  0.4914
 6034SOL     OW20108  10.885   6.356   1.760 -0.0134 -0.0656 -0.1659
 6034SOL    HW120109  10.866   6.285   1.698  2.0373 -0.2778 -0.6328
 6034SOL    HW220110  10.833   6.430   1.728 -0.2965 -0.6655 -1.1496
 6035SOL     OW20111   6.674   7.263   8.825  0.3660 -0.2120  0.1690
 6035SOL    HW120112   6.691   7.269   8.919  1.5610  2.9685 -0.1435
 6035SOL    HW220113   6.579   7.254   8.819  0.3538 -1.5112  1.6624
 6036SOL     OW20114   3.055  11.076   8.766 -0.4250 -0.1621 -0.2880
 6036SOL    HW120115   3.065  11.123   8.683  1.8423 -0.3919 -0.2068
 6036SOL    HW220116   3.043  11.145   8.831 -1.0801  0.0785 -0.6568
 6037SOL     OW20117   4.832  10.871   8.603  0.3198 -0.2387  0.0369
 6037SOL    HW120118   4.915  10.854   8.646  1.4134 -0.5111 -2.0591
 6037SOL    HW220119   4.826  10.967   8.598  0.7090 -0.2220 -0.1386
 6038SOL     OW20120   1.224   6.170   6.313 -0.0971  0.5146 -0.0013
 6038SOL    HW120121   1.158   6.141   6.249  0.5361  0.2261 -0.5299
 6038SOL    HW220122   1.307   6.160   6.268  0.2610  1.6535  0.3799
 6039SOL     OW20123   2.808  10.924   9.673 -0.0475 -0.3691  0.2061
 6039SOL    HW120124   2.789  10.836   9.706 -0.3567 -0.2351  0.3896
 6039SOL    HW220125   2.764  10.927   9.588 -0.4852 -0.2121  0.4347
 6040SOL     OW20126   5.980   6.416   3.973 -0.5382  0.1633 -0.1162
 6040SOL    HW120127   6.035   6.344   3.940  0.1447 -0.0355  1.3832
 6040SOL    HW220128   6.034   6.459   4.040 -0.5391  2.7157 -1.6156
 6041SOL     OW20129   1.848  10.331   4.465  0.3239  0.0425 -0.0131
 6041SOL    HW120130   1.904  10.407   4.451  0.7170 -0.2085  0.1679
 6041SOL    HW220131   1.770  10.366   4.508 -0.4619  0.6706 -1.8791
 6042SOL     OW20132   2.647  10.277   9.088  0.2013  0.1899  0.2276
 6042SOL    HW120133   2.595  10.254   9.010 -0.2788  0.9473  0.3164
 6042SOL    HW220134   2.669  10.369   9.076 -0.0593  0.3714  1.0924
 6043SOL     OW20135   9.190   2.765   6.392  0.2747  0.0142  0.6352
 6043SOL    HW120136   9.221   2.740   6.479  1.1658 -0.8823  0.0786
 6043SOL    HW220137   9.103   2.726   6.385  0.1170  0.2555  1.1898
 6044SOL     OW20138   9.689   0.458   6.737  0.2150  0.4531 -0.2400
 6044SOL    HW120139   9.608   0.486   6.780 -0.0368  1.7162 -1.4745
 6044SOL    HW220140   9.715   0.379   6.785 -2.4334 -0.7507 -0.5749
 6045SOL     OW20141  10.836   9.250  11.078  1.1151  0.1153  0.5126
 6045SOL    HW120142  10.894   9.300  11.021  0.7603  0.9389  0.8583
 6045SOL    HW220143  10.796   9.185  11.019  0.5525  1.1215 -0.2573
 6046SOL     OW20144   2.912   0.428   8.698  0.4534 -0.0370  0.5544
 6046SOL    HW120145   2.838   0.482   8.725  0.0732 -0.5722  0.5998
 6046SOL    HW220146   2.947   0.472   8.621 -0.9935 -0.7082 -0.5259
 6047SOL     OW20147   0.386   8.476   6.602  0.1207 -0.2410  0.0238
 6047SOL    HW120148   0.323   8.495   6.672  0.7107  0.7505  0.3061
 6047SOL    HW220149   0.464   8.445   6.647  0.9823  1.6596 -0.0423
 6048SOL     OW20150   9.588   8.307   1.244  0.1431  0.0825  0.0936
 6048SOL    HW120151   9.628   8.379   1.195  2.1172  0.2616  1.7978
 6048SOL    HW220152   9.516   8.277   1.189 -0.6287  3.2037 -0.7983
 6049SOL     OW20153   6.573   5.497   7.995 -0.5383 -0.3492  0.0913
 6049SOL    HW120154   6.622   5.516   7.915 -1.6409 -0.6760 -0.6877
 6049SOL    HW220155   6.600   5.408   8.019 -0.6041 -0.4520 -0.2152
 6050SOL     OW20156   8.742   7.095   0.400  0.4873 -0.2474  0.2181
 6050SOL    HW120157   8.797   7.031   0.357 -0.4597 -0.8576 -0.1200
 6050SOL    HW220158   8.739   7.067   0.492  0.0244 -0.7296  0.0582
 6051SOL     OW20159   0.775   7.379   9.186  0.9666 -0.2197  0.0262
 6051SOL    HW120160   0.820   7.309   9.233  0.6347 -0.2856  0.2427
 6051SOL    HW220161   0.759   7.446   9.253 -1.7620 -1.3520  0.6088
 6052SOL     OW20162   0.482   3.090   2.301  0.8409  0.9073  0.1024
 6052SOL    HW120163   0.463   3.061   2.211  0.0512  0.4459  0.4096
 6052SOL    HW220164   0.572   3.123   2.297  0.3302  2.2590 -1.1959
 6053SOL     OW20165   3.622   8.080   8.738 -0.3195 -0.1679  0.3406
 6053SOL    HW120166   3.623   8.142   8.811 -0.2614  0.4556 -0.1835
 6053SOL    HW220167   3.592   8.132   8.663  0.6490 -0.5285 -0.3180
 6054SOL     OW20168  10.386   2.125   0.575 -0.3218 -0.7090 -0.2198
 6054SOL    HW120169  10.391   2.100   0.667 -2.4960  2.5238  0.9289
 6054SOL    HW220170  10.304   2.087   0.544 -0.5588 -0.1599 -0.2642
 6055SOL     OW20171   3.572   6.381   1.124 -0.0058  0.3679  0.0699
 6055SOL    HW120172   3.483   6.415   1.128 -0.2449 -0.3894  2.0712
 6055SOL    HW220173   3.625   6.443   1.174  0.3063 -0.0320  0.2413
 6056SOL     OW20174   3.700   7.420  10.046  0.2327 -0.4623  0.2973
 6056SOL    HW120175   3.787   7.430  10.007  0.6321 -0.9721  1.0214
 6056SOL    HW220176   3.691   7.495  10.104 -0.2741  0.1805 -0.5822
 6057SOL     OW20177   2.537  10.107   1.440  0.3706 -0.4426  0.3546
 6057SOL    HW120178   2.619  10.156   1.444  0.9130 -1.0572 -1.8567
 6057SOL    HW220179   2.544  10.055   1.360 -2.6394  0.3113 -0.5388
 6058SOL     OW20180   2.185   1.210  11.057  0.0069 -0.1352  0.0397
 6058SOL    HW120181   2.141   1.280  11.008  0.9121 -1.1764 -2.4163
 6058SOL    HW220182   2.256   1.254  11.104 -1.1877  0.9705  0.8685
 6059SOL     OW20183   5.848   5.782   3.960  0.0737 -0.1302 -0.3440
 6059SOL    HW120184   5.932   5.791   3.914  0.1125 -0.0501 -0.2600
 6059SOL    HW220185   5.870   5.803   4.052  0.1098 -0.8367 -0.1901
 6060SOL     OW20186   2.517   0.214   6.493  0.1901  0.2913  0.2012
 6060SOL    HW120187   2.515   0.277   6.421  0.9217 -1.9622 -1.9346
 6060SOL    HW220188   2.605   0.177   6.490  0.0783 -0.2083  2.0013
 6061SOL     OW20189  10.753   8.091   9.638 -0.1360 -0.6068 -0.5733
 6061SOL    HW120190  10.735   8.184   9.652 -1.0176 -0.6220 -1.4911
 6061SOL    HW220191  10.848   8.086   9.627  0.0692  0.0003  0.7116
 6062SOL     OW20192   8.507   9.295   8.945 -0.4287  0.3266 -0.3429
 6062SOL    HW120193   8.484   9.329   9.032 -1.8167 -0.0398 -0.5429
 6062SOL    HW220194   8.592   9.334   8.926 -0.2591  0.6917  1.0305
 6063SOL     OW20195   3.067   6.238   8.970  0.5094  0.5399  0.0880
 6063SOL    HW120196   3.117   6.169   9.014 -1.4798 -0.1362  1.4399
 6063SOL    HW220197   3.117   6.318   8.987  1.4458 -0.1800  0.8443
 6064SOL     OW20198  11.071   7.703   9.185  0.1017 -0.0033  0.0701
 6064SOL    HW120199  11.159   7.719   9.220 -0.8981  2.3894  1.7265
 6064SOL    HW220200  11.032   7.641   9.246  0.3293 -0.3739 -0.1583
 6065SOL     OW20201   8.085  11.056   0.275  0.2206  0.8668  0.0447
 6065SOL    HW120202   8.062  11.149   0.280 -1.1659  0.4870  1.7743
 6065SOL    HW220203   8.102  11.040   0.182  0.6651  2.8722 -0.2590
 6066SOL     OW20204   4.531   7.026   4.701 -0.0656 -0.4302 -0.3593
 6066SOL    HW120205   4.600   7.088   4.682 -1.0904  0.9233  0.1527
 6066SOL    HW220206   4.565   6.973   4.773  0.7131 -0.2949 -0.6171
 6067SOL     OW20207   9.759   3.454   7.831 -0.0598 -0.0106  0.0028
 6067SOL    HW120208   9.814   3.376   7.838 -0.0106  0.0386  0.1762
 6067SOL    HW220209   9.809   3.513   7.773 -0.4699 -0.4193 -0.7803
 6068SOL     OW20210   7.185   4.934   8.378  0.2323 -0.3040 -0.4296
 6068SOL    HW120211   7.198   4.849   8.336 -0.0381  0.2429 -1.6423
 6068SOL    HW220212   7.118   4.917   8.445  1.4704 -1.4203  0.6026
 6069SOL     OW20213   2.849   8.890   9.305 -0.2000 -0.2393 -0.3069
 6069SOL    HW120214   2.853   8.795   9.318  1.4591 -0.1865 -0.2133
 6069SOL    HW220215   2.775   8.918   9.358  0.6428 -1.2210  1.5157
 6070SOL     OW20216   7.212   4.386  10.229 -0.5002  0.5626 -0.7956
 6070SOL    HW120217   7.157   4.427  10.296 -0.1946  0.7466 -0.6520
 6070SOL    HW220218   7.159   4.388  10.150 -1.3831 -0.8566 -0.2646
 6071SOL     OW20219   1.320   0.868   8.123  0.3228 -0.0657  0.6252
 6071SOL    HW120220   1.319   0.833   8.033  2.3471 -0.6019  0.7572
 6071SOL    HW220221   1.328   0.963   8.112 -0.0194 -0.0790  0.2431
 6072SOL     OW20222   1.351   5.079   6.565  0.2015 -0.5152 -0.7699
 6072SOL    HW120223   1.349   5.018   6.639 -0.3161  1.3562  0.8346
 6072SOL    HW220224   1.264   5.073   6.525 -0.0977 -0.3016 -0.1554
 6073SOL     OW20225   0.105   3.858   9.760  0.0733 -0.5699  0.5046
 6073SOL    HW120226   0.127   3.819   9.675  1.7340 -0.2814  0.7698
 6073SOL    HW220227   0.120   3.788   9.823 -2.3265 -1.1628  0.4957
 6074SOL     OW20228   4.044  11.060   8.490 -0.0488 -0.3119 -0.0171
 6074SOL    HW120229   4.124  11.033   8.445 -1.4630 -2.2733 -1.5730
 6074SOL    HW220230   4.003  11.123   8.430 -0.3823 -0.4823  0.0288
 6075SOL     OW20231   0.232  11.081   4.627 -0.5899 -0.1647 -0.1901
 6075SOL    HW120232   0.138  11.062   4.627 -0.9404  1.3849 -0.6665
 6075SOL    HW220233   0.248  11.122   4.542  0.2698  0.6618  0.3519
 6076SOL     OW20234   7.602   5.856   8.932 -0.1060 -0.7426  0.5176
 6076SOL    HW120235   7.659   5.911   8.878  0.1196 -1.8520 -0.4296
 6076SOL    HW220236   7.608   5.894   9.020  1.1320 -0.1069  0.1861
 6077SOL     OW20237   3.038   0.785   8.410 -0.5756 -0.5336  0.3747
 6077SOL    HW120238   3.084   0.711   8.449  0.8615  0.2340  0.2073
 6077SOL    HW220239   3.102   0.856   8.409 -2.0410  0.8736  0.9309
 6078SOL     OW20240   9.204   2.366   4.342  0.0767 -0.3009 -0.2256
 6078SOL    HW120241   9.207   2.388   4.435 -1.7020  2.2947 -0.6606
 6078SOL    HW220242   9.188   2.450   4.299 -0.9976 -1.6924 -2.7193
 6079SOL     OW20243  10.178   9.152   2.719 -0.1248 -0.4376 -0.1578
 6079SOL    HW120244  10.156   9.139   2.627 -3.3121  0.9578  0.2946
 6079SOL    HW220245  10.108   9.108   2.767 -0.3839  1.6353  1.5022
 6080SOL     OW20246   2.632  10.490   8.079 -0.0133 -0.0933 -0.3377
 6080SOL    HW120247   2.640  10.416   8.140 -0.5686 -0.0724 -0.2268
 6080SOL    HW220248   2.539  10.490   8.056 -0.1872  1.0826  0.3091
 6081SOL     OW20249   2.170   2.940   7.096 -0.0701 -0.0637  0.1843
 6081SOL    HW120250   2.147   2.848   7.083  1.9330 -0.6791  0.6124
 6081SOL    HW220251   2.179   2.949   7.191  0.4018  0.3893  0.0998
 6082SOL     OW20252   1.766   0.845   1.624  0.4360 -0.6330  0.0891
 6082SOL    HW120253   1.698   0.858   1.558  1.4231  1.7357 -0.5467
 6082SOL    HW220254   1.847   0.834   1.574  0.8481 -1.2733  0.8730
 6083SOL     OW20255   1.191   7.995  10.938  1.1359 -0.3836  0.0749
 6083SOL    HW120256   1.239   8.037  10.867  1.2602  1.1585  1.0122
 6083SOL    HW220257   1.138   7.928  10.896  0.9787  0.6922 -1.5095
 6084SOL     OW20258   9.364   9.603   6.719 -0.1259 -0.1986 -0.3091
 6084SOL    HW120259   9.418   9.680   6.700 -0.1573 -0.0527  0.1861
 6084SOL    HW220260   9.275   9.630   6.694  0.1071 -0.6712 -1.7781
 6085SOL     OW20261   9.734   7.916   7.075 -0.1370 -0.0581 -0.0626
 6085SOL    HW120262   9.735   7.827   7.111  0.7385 -0.0214  0.0149
 6085SOL    HW220263   9.812   7.958   7.112  0.1388  0.3524 -1.0767
 6086SOL     OW20264   1.245   6.416   9.876 -0.0206 -0.0341  0.3588
 6086SOL    HW120265   1.337   6.416   9.903 -0.0506 -1.3307  0.5195
 6086SOL    HW220266   1.218   6.508   9.881  1.4547  0.4661 -0.3366
 6087SOL     OW20267   0.389   7.303   6.151  0.0237 -0.5286  0.2012
 6087SOL    HW120268   0.364   7.313   6.059 -0.3510 -1.3204  0.2086
 6087SOL    HW220269   0.372   7.211   6.170 -0.0733 -0.3258  1.1164
 6088SOL     OW20270  10.306  10.464  10.081 -0.3540  0.2083  0.1640
 6088SOL    HW120271  10.310  10.545  10.031 -1.5427  0.3137  0.2228
 6088SOL    HW220272  10.317  10.491  10.172  0.3180  0.1754  0.1005
 6089SOL     OW20273   2.860   0.704   6.348  0.2843  0.1559  0.7380
 6089SOL    HW120274   2.869   0.769   6.417  1.8568 -1.8519  2.5370
 6089SOL    HW220275   2.945   0.703   6.304 -0.3388  0.5987 -0.5331
 6090SOL     OW20276  10.461   9.178   0.084  0.1130  0.1657 -0.0552
 6090SOL    HW120277  10.418   9.263   0.088 -1.1783 -0.3583 -1.6089
 6090SOL    HW220278  10.468   9.159  -0.009  0.8495 -1.2015  0.2534
 6091SOL     OW20279   3.040   8.699   8.442  0.5819  0.4229  0.3563
 6091SOL    HW120280   3.054   8.678   8.350 -0.7072  0.6493  0.0961
 6091SOL    HW220281   3.056   8.617   8.488  0.2967  0.0707 -0.1635
 6092SOL     OW20282  10.668   1.192   6.851 -0.6110  0.1896  0.1300
 6092SOL    HW120283  10.604   1.262   6.840  0.2475  0.8856 -0.5786
 6092SOL    HW220284  10.745   1.235   6.889 -0.5152 -0.6078  0.8634
 6093SOL     OW20285   7.668   2.740  10.896  0.4799 -0.8029 -0.0961
 6093SOL    HW120286   7.748   2.773  10.855  0.1683  0.6506  0.4228
 6093SOL    HW220287   7.611   2.717  10.823  0.1745  1.1607 -0.5177
 6094SOL     OW20288   6.336  10.523   9.668 -0.1504  0.3705  0.4742
 6094SOL    HW120289   6.342  10.617   9.681  0.3265  0.6520 -1.4641
 6094SOL    HW220290   6.427  10.492   9.671 -0.2550  0.0580  0.5354
 6095SOL     OW20291   4.291   5.777   9.094 -0.2185 -0.6193 -0.1290
 6095SOL    HW120292   4.236   5.787   9.171  2.0452  0.6535  1.4411
 6095SOL    HW220293   4.284   5.684   9.071 -1.2723 -0.9350  1.3465
 6096SOL     OW20294   3.421   1.273   8.251  0.1256  0.1796  0.2075
 6096SOL    HW120295   3.440   1.215   8.325 -2.2479  0.4316  1.0974
 6096SOL    HW220296   3.447   1.360   8.281 -0.6041  0.2440  0.6597
 6097SOL     OW20297   3.137   0.286   7.726 -0.3332  0.2503 -0.0550
 6097SOL    HW120298   3.182   0.205   7.747 -1.8126 -0.9901 -1.3802
 6097SOL    HW220299   3.148   0.296   7.631 -1.5949  0.6522 -0.1865
 6098SOL     OW20300   8.087   6.864   6.835  0.5534  0.1711  0.1550
 6098SOL    HW120301   8.026   6.929   6.800  2.0600  1.1326 -0.8214
 6098SOL    HW220302   8.031   6.794   6.868 -1.0605  0.3517 -1.9451
 6099SOL     OW20303  10.497   4.692   2.267 -0.4214  0.3036  0.0959
 6099SOL    HW120304  10.535   4.658   2.348  1.0400  1.2335 -0.1744
 6099SOL    HW220305  10.517   4.625   2.202  0.3431  0.5738  0.0523
 6100SOL     OW20306  10.288   0.702  10.282  0.1960  0.2740 -0.6538
 6100SOL    HW120307  10.201   0.662  10.285  0.2911 -0.0851 -2.2962
 6100SOL    HW220308  10.309   0.718  10.374 -0.7880 -1.3866 -0.0943
 6101SOL     OW20309   0.120   5.785  10.743 -0.6254  0.0074 -0.6652
 6101SOL    HW120310   0.043   5.756  10.695  0.1677 -1.0830 -1.3459
 6101SOL    HW220311   0.182   5.712  10.735 -0.3906 -0.1846  1.9161
 6102SOL     OW20312   9.907   6.152   4.975 -0.4671  0.0875  0.4840
 6102SOL    HW120313   9.965   6.140   4.900 -1.9108 -0.5037 -0.5924
 6102SOL    HW220314   9.869   6.239   4.963  0.4528  0.6310  1.3916
 6103SOL     OW20315   7.407   9.230   8.730  0.9582 -0.2598 -0.1050
 6103SOL    HW120316   7.344   9.295   8.698 -0.1823 -0.1115  2.2731
 6103SOL    HW220317   7.387   9.151   8.681 -2.0110 -0.5832  1.3958
 6104SOL     OW20318   1.391   1.893   8.555 -0.0256 -0.7044 -0.7898
 6104SOL    HW120319   1.414   1.968   8.499  2.3705  0.4104  1.4385
 6104SOL    HW220320   1.443   1.821   8.521  0.9411 -0.1959 -0.4423
 6105SOL     OW20321   0.347  11.014   8.185 -0.2537  0.1028  0.9487
 6105SOL    HW120322   0.396  11.009   8.267 -0.4050 -0.4253  1.0136
 6105SOL    HW220323   0.357  10.926   8.147  1.2761  0.8238 -0.4502
 6106SOL     OW20324   4.426   8.572   0.318 -0.0723 -0.4911  0.1630
 6106SOL    HW120325   4.504   8.619   0.288  0.1521  0.2207  1.7459
 6106SOL    HW220326   4.423   8.493   0.264  1.1856 -0.0589 -0.5848
 6107SOL     OW20327   2.730   2.507   6.849  0.2771  0.2229 -0.5550
 6107SOL    HW120328   2.778   2.581   6.811 -2.9268  3.4969  1.1392
 6107SOL    HW220329   2.665   2.484   6.782 -0.0955  0.4301 -0.2700
 6108SOL     OW20330   5.718   7.719   6.538 -0.4405 -0.4242 -0.8276
 6108SOL    HW120331   5.767   7.676   6.609  0.2297 -0.8410 -1.5224
 6108SOL    HW220332   5.635   7.743   6.578  0.5215  0.8221  0.5707
 6109SOL     OW20333   3.066   2.372   1.583  0.4292 -0.4055 -0.0183
 6109SOL    HW120334   3.134   2.306   1.570  1.6349  0.9113 -0.6533
 6109SOL    HW220335   2.985   2.329   1.555  1.3952 -1.1550 -1.8740
 6110SOL     OW20336   2.311   4.877   0.638 -0.5761  0.3416 -0.3142
 6110SOL    HW120337   2.294   4.816   0.710  1.1064  1.1483  0.8335
 6110SOL    HW220338   2.297   4.964   0.677  1.7182  0.8499 -0.4823
 6111SOL     OW20339   3.655   2.711   7.208 -1.3690  0.3718 -0.5969
 6111SOL    HW120340   3.747   2.685   7.213 -1.3475 -0.1228 -2.6706
 6111SOL    HW220341   3.628   2.724   7.299  0.6924  0.3471  0.0509
 6112SOL     OW20342   2.165   6.629   7.037  0.1710 -0.2279 -0.6771
 6112SOL    HW120343   2.255   6.610   7.008  1.6754  1.4220  2.3981
 6112SOL    HW220344   2.141   6.708   6.989  1.3477  0.6574  0.1210
 6113SOL     OW20345   3.503   6.348   8.931  0.7356  0.7461 -0.5876
 6113SOL    HW120346   3.426   6.386   8.974  1.7544  1.0456  1.0305
 6113SOL    HW220347   3.471   6.323   8.844 -1.4987 -0.1860  0.4156
 6114SOL     OW20348   6.376   3.977   9.542 -0.1236  0.0411 -0.3734
 6114SOL    HW120349   6.310   4.015   9.484 -2.4541 -1.4355  1.1832
 6114SOL    HW220350   6.365   3.883   9.533  1.7681 -0.2645  0.0162
 6115SOL     OW20351  10.978   7.164  11.063  0.5746  0.5962 -0.4275
 6115SOL    HW120352  11.016   7.118  10.988 -0.5616  2.5308 -2.3306
 6115SOL    HW220353  11.052   7.207  11.105  1.1483  0.1028 -0.9145
 6116SOL     OW20354   9.339   7.787   9.951  0.2457  0.1275 -0.4317
 6116SOL    HW120355   9.374   7.870   9.983  0.5242  0.7165 -2.1170
 6116SOL    HW220356   9.403   7.722   9.978  0.8998  0.7144 -0.5238
 6117SOL     OW20357   1.358   4.403   1.635  0.5033  0.1403 -0.1201
 6117SOL    HW120358   1.311   4.349   1.572 -0.9514  0.3371  0.7516
 6117SOL    HW220359   1.401   4.469   1.581  0.3676 -0.4750 -1.0090
 6118SOL     OW20360   0.216   4.770   2.563  0.4229  0.1019  0.2733
 6118SOL    HW120361   0.130   4.784   2.522  0.9484 -0.3469 -1.0354
 6118SOL    HW220362   0.269   4.843   2.534  0.9037 -0.4023 -0.1288
 6119SOL     OW20363   6.330   1.090   8.289 -0.5930 -0.0502  0.3187
 6119SOL    HW120364   6.257   1.148   8.312 -0.3569  0.6486 -0.6626
 6119SOL    HW220365   6.295   1.002   8.300 -1.3464  0.2797  0.6015
 6120SOL     OW20366  10.190   4.027   1.908  0.6427 -0.4592  0.4670
 6120SOL    HW120367  10.175   3.944   1.953 -1.1887  0.0715  0.9405
 6120SOL    HW220368  10.108   4.044   1.861  1.0948  0.9174  0.1296
 6121SOL     OW20369   7.940   1.588   4.646  0.2901  0.1597 -1.0852
 6121SOL    HW120370   7.929   1.678   4.678 -0.4122 -0.4917  0.6192
 6121SOL    HW220371   8.035   1.573   4.651  0.3060  0.4535 -0.3078
 6122SOL     OW20372   8.833   3.727   9.803 -0.0853 -0.3274 -0.4265
 6122SOL    HW120373   8.817   3.757   9.893 -1.4978  0.5160 -0.9346
 6122SOL    HW220374   8.748   3.698   9.771  0.2944 -0.1275 -1.6831
 6123SOL     OW20375   3.343   6.990   9.929 -0.2546  0.0794  0.5268
 6123SOL    HW120376   3.406   6.929   9.967  0.1429  1.2789  1.8332
 6123SOL    HW220377   3.258   6.961   9.964  0.0795  1.0284  2.2334
 6124SOL     OW20378   1.336   1.731   6.987 -0.0496 -0.1031  0.3002
 6124SOL    HW120379   1.382   1.700   7.065 -0.6766 -2.1271 -0.0838
 6124SOL    HW220380   1.255   1.681   6.985  0.3329 -0.7729 -2.0730
 6125SOL     OW20381  10.580   9.531  10.626 -0.1032 -0.1224 -0.7202
 6125SOL    HW120382  10.636   9.607  10.640  1.4466 -1.6874  2.7079
 6125SOL    HW220383  10.629   9.476  10.564  0.0562  0.4113 -1.0766
 6126SOL     OW20384   8.106   5.536   6.704  0.6736  0.2789 -0.3902
 6126SOL    HW120385   8.102   5.470   6.635  0.1322  0.0097 -0.1062
 6126SOL    HW220386   8.074   5.492   6.782 -4.1799  1.9805 -1.0652
 6127SOL     OW20387   9.701   8.681  10.271  0.4091 -0.2497 -0.2082
 6127SOL    HW120388   9.710   8.590  10.299 -1.1362 -0.1157  0.8581
 6127SOL    HW220389   9.674   8.728  10.350 -0.4919  0.8241 -1.1097
 6128SOL     OW20390  10.371   7.811   0.389  0.2829 -0.6556 -0.4187
 6128SOL    HW120391  10.402   7.763   0.312  1.1124 -0.5514 -0.1630
 6128SOL    HW220392  10.405   7.899   0.377 -0.5228 -0.3510 -0.4733
 6129SOL     OW20393   2.207   2.594   9.870  0.5374  0.9259  0.5026
 6129SOL    HW120394   2.155   2.619   9.946 -0.6069  1.0345 -0.2895
 6129SOL    HW220395   2.288   2.559   9.907  0.2443  1.4994  1.7477
 6130SOL     OW20396   4.187   0.359  10.557 -0.2743 -1.4023 -0.0410
 6130SOL    HW120397   4.134   0.390  10.631 -0.1487  0.8828 -0.8051
 6130SOL    HW220398   4.271   0.336  10.595 -0.0373  0.2552  0.5096
 6131SOL     OW20399   3.538   9.136   4.737 -0.2831  0.1806 -0.1744
 6131SOL    HW120400   3.573   9.060   4.783  0.8074 -1.1424 -2.9494
 6131SOL    HW220401   3.613   9.173   4.690 -1.5053  0.6887 -1.8281
 6132SOL     OW20402   6.879   1.934   9.955 -0.2027  0.3359  0.3198
 6132SOL    HW120403   6.818   1.968  10.021 -2.1746 -1.4219 -0.4746
 6132SOL    HW220404   6.903   2.010   9.902  0.0126  1.4416  1.9512
 6133SOL     OW20405   7.815   7.397  10.161  0.3097  0.4761 -0.0943
 6133SOL    HW120406   7.901   7.435  10.147  0.1829  0.3844 -1.2073
 6133SOL    HW220407   7.766   7.464  10.209  0.5372  1.1360 -0.7654
 6134SOL     OW20408   0.228   0.776   4.072 -0.3161 -0.2054 -0.0561
 6134SOL    HW120409   0.260   0.748   4.158  1.3499  0.0251 -0.5647
 6134SOL    HW220410   0.188   0.697   4.035  0.0645 -0.6306  0.4261
 6135SOL     OW20411   0.751  10.283   6.204  0.2784  0.3239 -0.0903
 6135SOL    HW120412   0.779  10.375   6.199  0.4713  0.2607 -0.1724
 6135SOL    HW220413   0.749  10.254   6.112 -3.5477  1.3677 -0.4966
 6136SOL     OW20414  10.214  10.525   4.595 -0.0610  0.6441 -0.0458
 6136SOL    HW120415  10.200  10.612   4.632 -0.4635  1.2489 -1.5376
 6136SOL    HW220416  10.134  10.477   4.617  1.1319 -0.2249  2.9234
 6137SOL     OW20417   0.882   3.662   9.988 -0.2923  0.0458  0.0337
 6137SOL    HW120418   0.828   3.738   9.965 -1.2686  0.2474  2.6469
 6137SOL    HW220419   0.972   3.696   9.989 -0.7137  1.2173  1.1106
 6138SOL     OW20420   0.123   7.448   9.098 -0.4114 -0.2191 -0.0366
 6138SOL    HW120421   0.169   7.466   9.016  0.0549 -1.6973 -0.1233
 6138SOL    HW220422   0.133   7.528   9.149  0.4936  0.2169 -0.8654
 6139SOL     OW20423   0.267   6.224   4.518  0.3293  0.6089  0.3778
 6139SOL    HW120424   0.348   6.237   4.467 -1.2926  1.2841 -2.2472
 6139SOL    HW220425   0.220   6.156   4.471 -0.6762  0.2600  1.8277
 6140SOL     OW20426   5.695   3.516   6.341  0.4184 -0.8882  0.2075
 6140SOL    HW120427   5.678   3.583   6.275 -0.9897 -0.0363  1.3728
 6140SOL    HW220428   5.698   3.564   6.424 -0.3396 -2.2203  1.0489
 6141SOL     OW20429   9.801  10.612  10.193 -0.1589 -0.0759 -0.1504
 6141SOL    HW120430   9.758  10.590  10.110 -0.9939 -0.9685  0.4938
 6141SOL    HW220431   9.729  10.644  10.249  0.2607 -0.2248  0.4849
 6142SOL     OW20432   1.939   9.657   6.318 -0.0642 -0.1155  0.3946
 6142SOL    HW120433   2.018   9.605   6.331  1.1480  1.8651  1.5567
 6142SOL    HW220434   1.949   9.730   6.379 -1.4129  1.7495 -1.4943
 6143SOL     OW20435  10.858   6.561   0.040 -0.1341 -0.8983  0.1219
 6143SOL    HW120436  10.919   6.634   0.040  0.6419 -1.5332 -0.2551
 6143SOL    HW220437  10.891   6.501   0.107 -1.3603 -0.4414  1.1808
 6144SOL     OW20438   9.812   6.772   8.166  0.0792 -0.4923  0.6025
 6144SOL    HW120439   9.755   6.702   8.198 -0.6179  0.3606  1.2491
 6144SOL    HW220440   9.754   6.847   8.154  0.7492 -0.1141 -0.4424
 6145SOL     OW20441   4.737   1.174   9.472 -0.7014  0.5810 -0.3717
 6145SOL    HW120442   4.761   1.107   9.408  2.2301 -0.8523  2.0032
 6145SOL    HW220443   4.647   1.154   9.496 -0.2938 -1.8056 -0.6447
 6146SOL     OW20444   1.218   8.988  10.022 -0.0692  0.3619  0.0113
 6146SOL    HW120445   1.143   8.946  10.065 -0.4938  0.6662 -0.4299
 6146SOL    HW220446   1.195   8.989   9.929  0.5705  0.2815 -0.1501
 6147SOL     OW20447   4.125   9.269   9.584 -0.2179 -0.6589  0.2446
 6147SOL    HW120448   4.114   9.174   9.595 -2.5408 -0.3527  1.1062
 6147SOL    HW220449   4.202   9.290   9.637  0.4009 -2.0661 -0.0470
 6148SOL     OW20450  10.307   6.401   6.697 -0.3369 -0.6063  0.3011
 6148SOL    HW120451  10.397   6.401   6.728 -0.5051 -2.0280  0.8410
 6148SOL    HW220452  10.296   6.316   6.654 -1.4430 -0.4843  0.3202
 6149SOL     OW20453   5.060   2.830   6.226 -0.2104 -0.1799 -0.7664
 6149SOL    HW120454   5.121   2.757   6.234 -0.7875 -0.6121 -0.1612
 6149SOL    HW220455   5.019   2.837   6.313  0.0333  1.0450 -0.7201
 6150SOL     OW20456   4.222   4.500   1.775 -0.0305  0.3574  0.3874
 6150SOL    HW120457   4.278   4.424   1.793 -0.2618  0.1530  0.2440
 6150SOL    HW220458   4.225   4.510   1.680 -2.6076 -1.5037  0.0129
 6151SOL     OW20459   6.294  10.802   8.816  0.1531  0.6827  0.0876
 6151SOL    HW120460   6.320  10.812   8.907  0.8905  2.3188 -0.2616
 6151SOL    HW220461   6.205  10.838   8.812 -0.2479 -0.2522  0.3175
 6152SOL     OW20462  10.272   0.259  11.013 -0.1562  0.4191  0.0068
 6152SOL    HW120463  10.278   0.166  11.034  0.1326  0.5285  0.4356
 6152SOL    HW220464  10.200   0.266  10.951 -0.0069 -0.1222 -0.2278
 6153SOL     OW20465   2.693  10.296   0.181  0.6164  0.1305  0.1425
 6153SOL    HW120466   2.787  10.302   0.163  0.5508  0.1946 -0.1979
 6153SOL    HW220467   2.687  10.276   0.274  1.0228 -2.1998 -0.2797
 6154SOL     OW20468  10.912   7.645   6.086  0.3660  0.1094  0.0435
 6154SOL    HW120469  10.839   7.645   6.024 -0.5736 -0.0053  1.1210
 6154SOL    HW220470  10.872   7.622   6.170  0.8660  3.8789  1.5254
 6155SOL     OW20471   9.582   8.291   5.723 -0.5212 -0.1822 -0.0357
 6155SOL    HW120472   9.572   8.360   5.787 -0.8597 -1.0674  0.8930
 6155SOL    HW220473   9.516   8.310   5.656  0.4965  1.3027 -0.6879
 6156SOL     OW20474   0.185   7.094  10.342 -0.1227  0.3276 -0.0367
 6156SOL    HW120475   0.241   7.067  10.269 -0.4544 -1.1899  0.2324
 6156SOL    HW220476   0.147   7.177  10.314  0.6253  0.3292 -1.1128
 6157SOL     OW20477   0.647   7.308   7.912  0.2815  0.5944  0.4242
 6157SOL    HW120478   0.675   7.391   7.951  2.7576 -0.1870  0.5209
 6157SOL    HW220479   0.720   7.283   7.855 -2.1320  0.4517 -2.8775
 6158SOL     OW20480   0.122   3.293   3.117  0.2093  0.2323 -0.1889
 6158SOL    HW120481   0.128   3.388   3.129  1.8647  0.0122  1.1887
 6158SOL    HW220482   0.030   3.276   3.098 -0.3678  2.0021  0.8245
 6159SOL     OW20483   0.170   7.423   3.293 -0.2899  0.5181  0.1581
 6159SOL    HW120484   0.179   7.466   3.379  0.0551  0.7860 -0.0090
 6159SOL    HW220485   0.112   7.481   3.244  0.2224  0.8342 -0.0878
 6160SOL     OW20486   6.518   5.626  10.664 -0.5268 -0.2049 -0.3952
 6160SOL    HW120487   6.513   5.693  10.596 -1.1011 -0.6258 -0.7732
 6160SOL    HW220488   6.611   5.605  10.670 -0.2964  0.8302 -0.0634
 6161SOL     OW20489   0.724   4.599   0.628 -0.2397  0.0295 -0.0038
 6161SOL    HW120490   0.717   4.646   0.545 -0.7887 -0.6818 -0.3651
 6161SOL    HW220491   0.635   4.598   0.663 -0.1834 -0.5169  0.1289
 6162SOL     OW20492   6.564   1.365   5.065  0.3494 -0.0272 -0.5281
 6162SOL    HW120493   6.618   1.421   5.009 -0.0139  2.9258  1.8580
 6162SOL    HW220494   6.626   1.301   5.102  1.4323  0.8047 -0.8607
 6163SOL     OW20495   1.467   0.691   2.987 -0.8141  0.5681 -0.4138
 6163SOL    HW120496   1.407   0.754   2.947 -1.1510  0.6406  0.1967
 6163SOL    HW220497   1.499   0.639   2.913 -1.4747  0.6598 -0.7788
 6164SOL     OW20498   3.102   6.669   6.933  0.0163  0.0731  0.7519
 6164SOL    HW120499   3.157   6.716   6.995 -0.3873  0.6465  0.6826
 6164SOL    HW220500   3.121   6.709   6.848 -0.4803  0.2674  0.7242
 6165SOL     OW20501   1.780   5.534   9.659  0.0813 -0.1754  0.4599
 6165SOL    HW120502   1.744   5.509   9.574  2.1987  0.6974 -0.7701
 6165SOL    HW220503   1.788   5.452   9.708 -3.3657 -0.4460  0.8375
 6166SOL     OW20504   2.662   7.040  11.037 -0.0147 -0.5692 -0.1705
 6166SOL    HW120505   2.662   7.000  11.124  0.6534  0.9095  0.5402
 6166SOL    HW220506   2.648   7.133  11.053  0.0476 -0.2775 -1.6513
 6167SOL     OW20507   5.000   9.769   9.941 -0.5655 -0.1060 -0.3015
 6167SOL    HW120508   4.972   9.678   9.946 -1.3569 -0.1137 -3.1783
 6167SOL    HW220509   5.065   9.770   9.871 -0.9799  1.6189 -0.7064
 6168SOL     OW20510   0.371   5.358  10.586  0.5242  0.0516  0.1981
 6168SOL    HW120511   0.360   5.263  10.583  0.2279  0.1060 -0.7792
 6168SOL    HW220512   0.429   5.377  10.513 -1.0532  0.8155 -0.9199
 6169SOL     OW20513   3.027   4.161   0.019 -0.1961 -0.5727 -0.8123
 6169SOL    HW120514   2.942   4.120   0.031 -1.3847  1.9791  0.2776
 6169SOL    HW220515   3.028   4.191  -0.072 -1.7653  1.8890 -0.1085
 6170SOL     OW20516   9.092   4.069   0.610  0.4275 -0.0944  0.0344
 6170SOL    HW120517   9.005   4.087   0.647 -0.4266 -0.6396 -1.6270
 6170SOL    HW220518   9.076   4.057   0.517  2.0657 -1.8033 -0.0667
 6171SOL     OW20519   5.824   5.905   7.590  0.1593  0.0433 -0.5587
 6171SOL    HW120520   5.829   5.922   7.684  1.5198 -0.9391 -0.4318
 6171SOL    HW220521   5.770   5.827   7.582  1.5918 -0.9932 -0.4229
 6172SOL     OW20522   1.994   1.196   4.634 -0.3628  0.1499  0.1044
 6172SOL    HW120523   1.997   1.279   4.587  0.0259 -0.8683 -1.7571
 6172SOL    HW220524   2.061   1.204   4.702  1.8802  0.2633 -2.0033
 6173SOL     OW20525   1.724  10.076   7.008  0.1674 -0.5492  0.5572
 6173SOL    HW120526   1.688  10.113   6.927 -0.1013  0.3230  1.0588
 6173SOL    HW220527   1.799  10.024   6.979 -1.4302 -2.4135 -0.5178
 6174SOL     OW20528   5.202   9.339   6.838  0.2837 -0.4492  0.1179
 6174SOL    HW120529   5.270   9.357   6.772  0.2692  2.0029  0.6728
 6174SOL    HW220530   5.250   9.303   6.912  0.6928 -0.6082 -0.2179
 6175SOL     OW20531   8.071   9.519   3.424 -0.4767  0.4502  0.4446
 6175SOL    HW120532   8.123   9.453   3.379 -3.3389 -0.5879 -1.6395
 6175SOL    HW220533   8.053   9.585   3.357  0.0239  1.9789  1.7458
 6176SOL     OW20534   8.000   7.760   6.578 -0.0817  0.1768  0.1996
 6176SOL    HW120535   8.031   7.708   6.503  0.5664 -1.7720  1.7453
 6176SOL    HW220536   8.068   7.827   6.590 -0.0754  0.3647 -0.7889
 6177SOL     OW20537   7.783   2.673   0.627  0.0877  0.1139 -0.1468
 6177SOL    HW120538   7.827   2.754   0.602 -1.3660 -0.0592 -3.8862
 6177SOL    HW220539   7.854   2.612   0.647  1.2711  1.6149  0.3630
 6178SOL     OW20540   1.846   3.867   3.464  0.2834  0.4475  0.3853
 6178SOL    HW120541   1.881   3.955   3.450  0.4730  0.4366  0.7789
 6178SOL    HW220542   1.811   3.869   3.553  1.8470 -0.3791  1.0516
 6179SOL     OW20543   4.423   0.238   7.767 -0.0508 -0.2237  0.0191
 6179SOL    HW120544   4.452   0.325   7.742  0.8257 -0.5847 -0.2883
 6179SOL    HW220545   4.499   0.198   7.808  0.1236 -1.4159 -1.3452
 6180SOL     OW20546   4.755   5.654   4.366  0.0605  0.1779  0.1064
 6180SOL    HW120547   4.799   5.575   4.397 -2.3691 -0.9081  1.0425
 6180SOL    HW220548   4.764   5.651   4.271  0.1065 -1.1890  0.1392
 6181SOL     OW20549   0.336   5.390   6.749 -0.3363  0.3026  0.4840
 6181SOL    HW120550   0.413   5.444   6.736 -1.3008  1.4321 -0.8645
 6181SOL    HW220551   0.336   5.329   6.675 -0.5583  0.0784  0.6646
 6182SOL     OW20552   2.258   5.424   0.202 -0.1956  0.1029  0.5058
 6182SOL    HW120553   2.212   5.460   0.278 -1.7463  1.6678 -1.0770
 6182SOL    HW220554   2.338   5.475   0.196 -0.1976  0.1558  0.9283
 6183SOL     OW20555   8.625  10.062   5.882  0.1343 -0.0718  0.3281
 6183SOL    HW120556   8.701  10.107   5.847  0.8980 -0.6492  1.1818
 6183SOL    HW220557   8.640   9.970   5.861 -1.6470  0.0546 -1.8499
 6184SOL     OW20558   6.658  10.791   7.570 -0.5288 -1.1678 -0.2698
 6184SOL    HW120559   6.698  10.761   7.489 -0.4992 -2.5071  0.2214
 6184SOL    HW220560   6.702  10.741   7.639  0.7628  1.2451  0.7912
 6185SOL     OW20561   2.207   3.942   0.743 -0.2433  0.3605  0.7535
 6185SOL    HW120562   2.197   4.034   0.769 -1.3432  0.8789 -1.2941
 6185SOL    HW220563   2.124   3.901   0.770 -0.3180  0.2954  0.4256
 6186SOL     OW20564   0.571   2.651   1.030 -0.0651 -0.4617  0.0167
 6186SOL    HW120565   0.568   2.664   0.935  0.4483 -0.5402 -0.0133
 6186SOL    HW220566   0.631   2.577   1.042  0.9618  0.4385  0.4854
 6187SOL     OW20567   2.932   6.860   0.838  0.1435 -0.5765 -0.9316
 6187SOL    HW120568   3.020   6.860   0.802 -0.3961 -0.7402 -2.3117
 6187SOL    HW220569   2.937   6.804   0.915  1.3180 -0.2866 -0.7773
 6188SOL     OW20570   5.478   3.031   8.111 -0.1783 -0.5344  0.2328
 6188SOL    HW120571   5.530   3.107   8.138 -0.7839 -0.3025  0.7557
 6188SOL    HW220572   5.542   2.973   8.069  0.4661 -0.1589  0.6717
 6189SOL     OW20573   2.341   8.392  10.900 -0.2034  0.2894 -0.5814
 6189SOL    HW120574   2.261   8.431  10.934 -0.2196  0.3558 -0.6978
 6189SOL    HW220575   2.403   8.464  10.893  0.0966  0.1178  0.1936
 6190SOL     OW20576   2.179   7.757   4.404 -0.4772 -0.2793 -0.1599
 6190SOL    HW120577   2.228   7.746   4.323 -0.5778  0.4318 -0.3267
 6190SOL    HW220578   2.132   7.675   4.415 -1.7155  0.1657 -1.6738
 6191SOL     OW20579   5.728  10.032   5.645  0.2446  0.0575  0.3250
 6191SOL    HW120580   5.698   9.970   5.712  1.6273  0.8513  1.7349
 6191SOL    HW220581   5.662  10.100   5.645 -0.4597 -0.6067 -0.1019
 6192SOL     OW20582   4.647   0.420   4.145  0.3728 -0.4872 -0.0806
 6192SOL    HW120583   4.712   0.488   4.163 -0.1496  0.6063 -1.9636
 6192SOL    HW220584   4.594   0.415   4.225  1.3871  0.1822  0.6589
 6193SOL     OW20585   4.776   3.931   1.020  0.3793 -0.3967  0.0763
 6193SOL    HW120586   4.833   3.891   0.955 -0.8159 -1.1865 -0.5148
 6193SOL    HW220587   4.835   3.960   1.089  1.7564  1.0407 -1.6115
 6194SOL     OW20588   7.473   1.408   1.292 -0.2338  0.0196  0.2523
 6194SOL    HW120589   7.389   1.375   1.262 -0.3537  0.2901  0.2905
 6194SOL    HW220590   7.536   1.378   1.226 -0.4796  0.5268 -0.2217
 6195SOL     OW20591   9.672   1.127   0.441 -0.6402 -0.2063  0.0887
 6195SOL    HW120592   9.700   1.116   0.350 -0.4073 -0.0596  0.1401
 6195SOL    HW220593   9.753   1.118   0.492 -0.2656  2.4595  0.0919
 6196SOL     OW20594   0.216   6.062   7.354 -0.3435 -0.2101 -0.1768
 6196SOL    HW120595   0.295   6.082   7.404 -1.9210  1.0716  2.0120
 6196SOL    HW220596   0.210   6.132   7.289 -0.5905  0.7991  0.8847
 6197SOL     OW20597   6.558   7.206  10.711  0.4245 -0.4066  0.1140
 6197SOL    HW120598   6.579   7.151  10.787  1.5707 -0.3289 -0.1303
 6197SOL    HW220599   6.631   7.191  10.650 -0.1401  0.0526 -0.6843
 6198SOL     OW20600  10.869   1.094   1.683 -0.1946 -0.0770 -0.5895
 6198SOL    HW120601  10.829   1.140   1.757  1.1681 -1.1889  0.9203
 6198SOL    HW220602  10.962   1.117   1.687  0.2787 -1.7713 -0.6361
 6199SOL     OW20603   5.420  10.312   8.153 -0.2062 -0.0256 -0.3755
 6199SOL    HW120604   5.498  10.274   8.193 -0.9508 -0.8498  0.3331
 6199SOL    HW220605   5.348  10.284   8.209 -0.8104  2.5577  0.2749
 6200SOL     OW20606   5.511   1.885  10.316 -0.3291  0.0709 -0.0521
 6200SOL    HW120607   5.429   1.888  10.365  0.2994 -0.7239  1.1120
 6200SOL    HW220608   5.489   1.841  10.234 -1.0947  0.0083  0.1775
 6201SOL     OW20609   1.750   5.234   4.494 -0.2267  0.2322 -0.6464
 6201SOL    HW120610   1.697   5.313   4.505  0.1183  0.3619  0.2314
 6201SOL    HW220611   1.816   5.258   4.430  0.4778  1.0026  0.3265
 6202SOL     OW20612   4.141   5.152   2.680 -0.0319  0.1950  0.0103
 6202SOL    HW120613   4.175   5.091   2.745 -0.3176  0.1630  0.1303
 6202SOL    HW220614   4.196   5.230   2.689 -0.8638  0.6681  1.1598
 6203SOL     OW20615   1.047   5.651   1.594  0.6013  0.1766  0.0931
 6203SOL    HW120616   1.034   5.706   1.517 -0.1472 -0.1442 -0.0201
 6203SOL    HW220617   0.976   5.675   1.653  1.7827  1.1753  1.1457
 6204SOL     OW20618   8.513   4.122   2.542 -0.1433 -0.0179  0.6191
 6204SOL    HW120619   8.458   4.045   2.531  2.6869 -2.0900 -0.4221
 6204SOL    HW220620   8.506   4.169   2.458 -1.6998  0.7719  1.1721
 6205SOL     OW20621   2.945  11.026   0.817  0.3611 -0.5665 -0.6080
 6205SOL    HW120622   2.981  11.111   0.790 -0.3703 -0.4854 -1.3843
 6205SOL    HW220623   2.933  11.035   0.911 -0.6244  0.5737 -0.8149
 6206SOL     OW20624   6.389   6.761  10.644  0.6465  0.1531 -0.2140
 6206SOL    HW120625   6.413   6.672  10.620  1.5493 -0.0653  1.3381
 6206SOL    HW220626   6.473   6.805  10.659  0.2336  0.2759  2.2583
 6207SOL     OW20627   8.449   0.877  10.288 -0.0138  0.2109  0.3018
 6207SOL    HW120628   8.364   0.888  10.246 -0.5623 -0.3949  1.2035
 6207SOL    HW220629   8.443   0.930  10.368  0.6290  0.5315  0.1415
 6208SOL     OW20630   3.554   1.411  10.034 -0.4788  0.1180 -0.1788
 6208SOL    HW120631   3.464   1.444  10.027 -1.0054 -1.2326 -0.0055
 6208SOL    HW220632   3.595   1.467  10.100 -1.3570  0.4007  0.1444
 6209SOL     OW20633   6.327   1.257   1.730  0.5138  0.5889  0.5839
 6209SOL    HW120634   6.250   1.311   1.745  0.3412  0.6840 -0.5358
 6209SOL    HW220635   6.350   1.222   1.816  0.0607  1.6755  1.1580
 6210SOL     OW20636   3.023   0.397   3.390  0.2803 -0.2282 -0.2389
 6210SOL    HW120637   2.967   0.418   3.316  1.5597  1.7484 -0.7258
 6210SOL    HW220638   2.963   0.372   3.460 -1.0381 -0.5713 -1.4611
 6211SOL     OW20639   0.149   6.579   7.376  0.1984  0.2460  0.2372
 6211SOL    HW120640   0.116   6.626   7.299 -0.4693  0.7180  0.8060
 6211SOL    HW220641   0.240   6.606   7.383  0.0760  0.7323  0.0078
 6212SOL     OW20642   9.542   9.585   8.020 -0.4135  0.1159 -0.3266
 6212SOL    HW120643   9.502   9.671   8.009 -1.2316  0.1946  2.4791
 6212SOL    HW220644   9.469   9.524   8.016 -0.6288  0.0533  2.4603
 6213SOL     OW20645   1.349   9.782   0.733  0.5516  0.7816  0.3381
 6213SOL    HW120646   1.341   9.831   0.651 -0.1380  0.5542  0.2694
 6213SOL    HW220647   1.443   9.783   0.751  0.6223  1.5625 -0.0069
 6214SOL     OW20648   4.995   2.085   3.205  0.1954  0.1088 -0.3424
 6214SOL    HW120649   4.926   2.023   3.184  0.5670  0.4052 -2.7781
 6214SOL    HW220650   5.074   2.031   3.214  0.1382  0.0197 -0.3745
 6215SOL     OW20651  10.820   9.909   5.131  0.1296  0.0474  0.3979
 6215SOL    HW120652  10.860   9.845   5.072 -0.2151  0.2345 -0.0421
 6215SOL    HW220653  10.726   9.895   5.121  0.0472  0.7476  0.1605
 6216SOL     OW20654   7.836   3.380   2.031 -0.2758 -0.3129  0.2755
 6216SOL    HW120655   7.784   3.300   2.037 -0.1807 -0.2727  2.3947
 6216SOL    HW220656   7.788   3.435   1.970 -0.6764 -1.7261 -0.7308
 6217SOL     OW20657   2.050   6.855   5.208 -0.0384 -0.1528 -0.1663
 6217SOL    HW120658   2.057   6.843   5.303 -0.1091  0.5451 -0.0680
 6217SOL    HW220659   2.033   6.767   5.174  0.9114 -0.5600  0.3731
 6218SOL     OW20660  10.594   5.433  10.358 -0.5074 -0.4632  0.2016
 6218SOL    HW120661  10.649   5.441  10.279 -0.7452  0.3066  0.1108
 6218SOL    HW220662  10.572   5.523  10.381  1.7084 -0.4301  2.6868
 6219SOL     OW20663   1.462   8.584   1.798  0.1275 -0.8088  0.2360
 6219SOL    HW120664   1.462   8.566   1.705  0.5169 -0.3699  0.1482
 6219SOL    HW220665   1.371   8.607   1.818  0.3512  0.7151 -0.3641
 6220SOL     OW20666   3.158   7.753  10.101  0.1587 -0.1968 -0.3318
 6220SOL    HW120667   3.094   7.763  10.031 -0.2689  0.6494  0.1566
 6220SOL    HW220668   3.113   7.784  10.179  1.5142  1.4804 -0.1623
 6221SOL     OW20669   0.860   6.264   9.452  0.0311  0.2761 -0.0735
 6221SOL    HW120670   0.797   6.305   9.511 -0.2371  0.4189 -0.4554
 6221SOL    HW220671   0.830   6.288   9.364  0.2283 -0.2258 -0.2790
 6222SOL     OW20672   5.547   2.753   4.838 -0.2705  0.1011  0.2486
 6222SOL    HW120673   5.611   2.817   4.869 -1.7705  1.2885  1.0449
 6222SOL    HW220674   5.462   2.796   4.851 -1.3575 -2.1154  1.0162
 6223SOL     OW20675   5.724   4.342   7.743 -0.3949 -0.5569 -0.3742
 6223SOL    HW120676   5.744   4.262   7.793 -1.2423 -0.9033 -0.5658
 6223SOL    HW220677   5.629   4.352   7.752 -0.0255  2.1252  2.1891
 6224SOL     OW20678   6.656   7.970   1.722  0.3229  0.1974  0.2840
 6224SOL    HW120679   6.638   7.883   1.757 -0.6625 -0.2225 -1.1959
 6224SOL    HW220680   6.736   7.998   1.767  1.0961 -1.7948  0.2228
 6225SOL     OW20681   2.331   0.915  11.033  0.0239  0.0214  0.2689
 6225SOL    HW120682   2.392   0.982  11.000 -0.0698 -1.2890 -2.9252
 6225SOL    HW220683   2.267   0.965  11.084 -0.0142  2.4019 -1.9100
 6226SOL     OW20684   3.992   3.406   8.827  0.1860 -0.0324  0.1083
 6226SOL    HW120685   3.965   3.457   8.750  1.1678  0.0117 -0.2262
 6226SOL    HW220686   3.967   3.460   8.902 -2.6577 -0.9791 -0.0657
 6227SOL     OW20687   2.349   3.592   0.137  0.1252 -0.2390 -0.6479
 6227SOL    HW120688   2.331   3.593   0.231 -0.4331 -0.3417 -0.7474
 6227SOL    HW220689   2.380   3.680   0.117  0.1698 -0.1948 -0.3822
 6228SOL     OW20690   9.862   4.037   0.972 -0.1197  0.0146  0.1702
 6228SOL    HW120691   9.863   4.055   0.878 -0.6370  1.0287  0.3395
 6228SOL    HW220692   9.824   3.950   0.979  1.5988 -0.8360 -0.6469
 6229SOL     OW20693   0.780   8.853   0.580 -0.3554 -0.1013  0.2946
 6229SOL    HW120694   0.726   8.809   0.646 -0.8795 -1.8447 -1.1989
 6229SOL    HW220695   0.719   8.872   0.508  1.0266 -2.8309 -1.7796
 6230SOL     OW20696   0.435  10.027   0.043  0.4170  0.4142  0.0441
 6230SOL    HW120697   0.424   9.933   0.057 -1.3626  0.5099 -0.4879
 6230SOL    HW220698   0.463  10.035  -0.048  0.6835  0.4061  0.1234
 6231SOL     OW20699   0.163   3.744  10.435  0.0423 -0.0034 -0.1220
 6231SOL    HW120700   0.252   3.774  10.452 -0.0931 -0.2684  1.1405
 6231SOL    HW220701   0.116   3.763  10.515 -0.8627 -0.5451 -0.5149
 6232SOL     OW20702   2.856   6.639   5.600  0.7140 -0.4370  0.3095
 6232SOL    HW120703   2.795   6.711   5.588  1.9197  0.3208 -1.8535
 6232SOL    HW220704   2.859   6.626   5.695 -1.1392  0.9074  0.6125
 6233SOL     OW20705   0.929   8.963   9.139  0.2122  0.4193 -0.8325
 6233SOL    HW120706   0.929   9.022   9.064  0.5568  0.7120 -0.6006
 6233SOL    HW220707   0.854   8.991   9.191  2.2765  2.8852  1.0230
 6234SOL     OW20708   3.892   2.896   2.437  0.1390  0.0588 -0.7983
 6234SOL    HW120709   3.940   2.938   2.365  2.1131 -1.5705 -0.5430
 6234SOL    HW220710   3.924   2.940   2.516  0.8283 -0.6432 -0.6719
 6235SOL     OW20711   3.312   5.275   9.015 -0.2965  0.0904 -0.5298
 6235SOL    HW120712   3.387   5.327   8.985 -3.1955  3.3604 -2.9615
 6235SOL    HW220713   3.263   5.334   9.072 -2.1339 -1.1408 -0.7423
 6236SOL     OW20714   9.893   7.033   2.159 -0.3770  0.0205  0.4564
 6236SOL    HW120715   9.968   7.037   2.218 -0.4133 -1.1806  0.6197
 6236SOL    HW220716   9.830   7.095   2.195  0.3547  0.7015  0.5746
 6237SOL     OW20717   0.270   6.896   7.470 -0.4348  0.3665  0.3542
 6237SOL    HW120718   0.299   6.818   7.423 -2.1391 -0.8955  1.2540
 6237SOL    HW220719   0.334   6.963   7.448  2.3955 -1.8248  1.2070
 6238SOL     OW20720   7.837   2.539   7.979  0.7427 -0.3674  0.4050
 6238SOL    HW120721   7.768   2.486   8.018 -1.4467  1.2576 -1.0716
 6238SOL    HW220722   7.804   2.628   7.981  2.1717  0.2896 -1.6479
 6239SOL     OW20723   3.913   8.062   0.927 -0.4321 -0.4432 -0.4282
 6239SOL    HW120724   3.882   8.149   0.952 -0.1316 -0.3936 -0.2218
 6239SOL    HW220725   3.987   8.079   0.868  1.2123 -0.5157  1.5015
 6240SOL     OW20726   4.074   5.651   1.385  0.1435  0.2731 -0.6681
 6240SOL    HW120727   4.012   5.608   1.444  1.1319  1.1439  1.0963
 6240SOL    HW220728   4.159   5.637   1.426  0.8816  0.8642 -1.9417
 6241SOL     OW20729  10.080   7.352   9.640  0.6961  0.5256  0.1294
 6241SOL    HW120730  10.124   7.361   9.724 -0.1459  1.9615  0.4515
 6241SOL    HW220731   9.991   7.382   9.656 -0.1101 -1.2596 -0.7713
 6242SOL     OW20732   4.189   7.870   8.794 -0.3180 -0.2355  0.2999
 6242SOL    HW120733   4.243   7.914   8.728 -0.3252 -2.5709 -1.3607
 6242SOL    HW220734   4.239   7.880   8.876  0.0107  2.1468 -0.1264
 6243SOL     OW20735   5.082   7.415  10.761 -0.0790 -0.6069  0.1834
 6243SOL    HW120736   5.123   7.378  10.839  0.9630  1.2093  0.5761
 6243SOL    HW220737   5.156   7.441  10.705 -0.7961 -1.1876 -1.0851
 6244SOL     OW20738  10.562   8.623   5.781 -0.1640 -0.3445 -0.6688
 6244SOL    HW120739  10.539   8.682   5.708  1.5010  1.0759 -0.1045
 6244SOL    HW220740  10.627   8.671   5.831 -1.0242 -1.4230  1.6191
 6245SOL     OW20741   8.970   4.554   1.006 -0.4196  0.4427  0.5757
 6245SOL    HW120742   8.942   4.608   1.079  2.5369  0.9488  1.4661
 6245SOL    HW220743   9.059   4.526   1.029  0.7242  0.7254 -2.8169
 6246SOL     OW20744   3.063   0.523   9.040 -0.8581 -0.1184 -0.2197
 6246SOL    HW120745   3.124   0.451   9.057 -0.7350 -0.1677 -0.8464
 6246SOL    HW220746   2.980   0.480   9.022 -1.0675 -0.0539  0.5521
 6247SOL     OW20747   5.185   7.806   9.687 -0.2137 -0.1369  0.1367
 6247SOL    HW120748   5.221   7.895   9.683  1.4113 -0.7570 -0.1203
 6247SOL    HW220749   5.207   7.775   9.775 -2.0896  0.2031  0.7569
 6248SOL     OW20750  10.813  10.475   0.872  0.4537 -0.3450  0.9061
 6248SOL    HW120751  10.727  10.441   0.895  0.0985  0.3701  0.6635
 6248SOL    HW220752  10.828  10.547   0.934  1.6827 -1.6139  2.1614
 6249SOL     OW20753   9.222   8.458  10.015 -0.4555  0.6945  0.0073
 6249SOL    HW120754   9.130   8.432  10.012 -0.5983  1.0592  0.9670
 6249SOL    HW220755   9.238   8.500   9.930 -1.0422  0.2189 -0.3457
 6250SOL     OW20756   0.225   5.297   3.500  0.1912 -0.2127 -0.5450
 6250SOL    HW120757   0.273   5.262   3.575  0.1397 -0.3144 -0.5593
 6250SOL    HW220758   0.234   5.230   3.432 -2.8634 -1.8990  0.5295
 6251SOL     OW20759   9.830   2.063   1.676  0.0457 -0.1978  0.0545
 6251SOL    HW120760   9.890   1.990   1.665  0.7867  0.2646  0.8673
 6251SOL    HW220761   9.840   2.089   1.768 -0.1468  0.9473 -0.2231
 6252SOL     OW20762   6.245   1.773   3.673  0.0296  0.6878  0.4254
 6252SOL    HW120763   6.256   1.718   3.751 -1.4616  2.3408  1.9131
 6252SOL    HW220764   6.155   1.755   3.644 -0.9441  3.0355  1.6574
 6253SOL     OW20765   8.384   7.593  11.005 -0.6095  0.5455  0.4299
 6253SOL    HW120766   8.376   7.651  11.081  0.8360  0.0202  1.0165
 6253SOL    HW220767   8.461   7.539  11.024 -1.1960 -0.7308 -0.6595
 6254SOL     OW20768   5.361  10.210   9.043  0.4890  0.3203 -0.3198
 6254SOL    HW120769   5.370  10.266   9.119 -0.0564 -1.3955  1.0753
 6254SOL    HW220770   5.294  10.252   8.989  0.7601  1.4577  0.2091
 6255SOL     OW20771   1.532   8.704   8.525  0.1036  0.4548  0.7597
 6255SOL    HW120772   1.530   8.736   8.435  0.1678 -2.3396 -0.3291
 6255SOL    HW220773   1.592   8.763   8.570  1.6918  0.7229 -1.5329
 6256SOL     OW20774   8.262   6.863   5.071  0.0065  0.2538 -0.7172
 6256SOL    HW120775   8.301   6.788   5.116  0.8125  1.7196  1.1828
 6256SOL    HW220776   8.170   6.839   5.060 -0.0798 -0.4714  1.1566
 6257SOL     OW20777   4.789   6.399   0.222  0.5385  0.0983  0.1851
 6257SOL    HW120778   4.780   6.409   0.317  1.3023 -0.7854  0.3722
 6257SOL    HW220779   4.873   6.353   0.211 -0.0674 -0.8198 -0.8468
 6258SOL     OW20780   1.303   4.383   5.494 -0.1871 -0.3115 -0.4494
 6258SOL    HW120781   1.252   4.423   5.423  1.0729  1.5194 -0.4131
 6258SOL    HW220782   1.260   4.300   5.511 -2.3348  0.5411 -1.3071
 6259SOL     OW20783   3.931   4.018   8.840  0.7079 -0.1658 -0.1881
 6259SOL    HW120784   4.001   4.061   8.791 -0.1031 -0.7515 -1.9530
 6259SOL    HW220785   3.958   3.926   8.844  0.1775 -0.3480 -0.6605
 6260SOL     OW20786   0.502   8.153   8.858 -0.2453 -0.3140 -0.2323
 6260SOL    HW120787   0.547   8.093   8.917  0.4022 -0.1067 -0.5140
 6260SOL    HW220788   0.432   8.191   8.912 -0.2151 -0.7873  0.1465
 6261SOL     OW20789   0.297   9.572   3.293 -0.4210 -0.6105  0.1478
 6261SOL    HW120790   0.248   9.654   3.296  0.0161 -0.3356 -0.1434
 6261SOL    HW220791   0.340   9.567   3.378  0.3014 -0.0665 -0.1788
 6262SOL     OW20792   5.193   0.000   8.632 -0.0126 -0.1628  0.1670
 6262SOL    HW120793   5.123   0.051   8.673  1.1879  1.5348  0.2189
 6262SOL    HW220794   5.216  -0.066   8.697  0.5200  1.2389  1.4715
 6263SOL     OW20795   9.697   5.246   9.441  0.2895  0.0011 -0.5787
 6263SOL    HW120796   9.622   5.194   9.409 -0.5851  0.0309  1.2790
 6263SOL    HW220797   9.657   5.326   9.474  1.0885 -0.1374  0.7632
 6264SOL     OW20798   1.176  11.076   1.231  0.7626  0.3091  0.3084
 6264SOL    HW120799   1.139  11.161   1.210 -0.3118 -0.2128  0.0410
 6264SOL    HW220800   1.167  11.025   1.151 -1.2558 -0.9605  1.2678
 6265SOL     OW20801   4.414   8.340   0.701 -0.3719  0.6071 -0.4964
 6265SOL    HW120802   4.351   8.410   0.717 -1.2016 -0.2182 -0.0826
 6265SOL    HW220803   4.492   8.385   0.668 -0.9264  1.7077 -0.3420
 6266SOL     OW20804   2.538   7.616  10.340  0.0078  0.0059 -0.5009
 6266SOL    HW120805   2.480   7.632  10.266 -0.4367  0.2465 -0.1024
 6266SOL    HW220806   2.617   7.666  10.320 -0.7075  1.3490 -0.0891
 6267SOL     OW20807   5.392  10.923   9.308 -0.2020  0.7778  0.1351
 6267SOL    HW120808   5.459  10.866   9.346 -1.1946  0.7221  1.9224
 6267SOL    HW220809   5.405  10.917   9.213  0.6198 -1.3025  0.3361
 6268SOL     OW20810   6.894  10.270   2.044 -0.5191  0.0869 -0.0427
 6268SOL    HW120811   6.928  10.219   1.971 -1.1026  0.4911 -0.6120
 6268SOL    HW220812   6.842  10.339   2.003 -0.0609  0.9125  0.7233
 6269SOL     OW20813   0.273   9.111   9.937  0.0293  0.1223  0.1240
 6269SOL    HW120814   0.276   9.207   9.935  0.9835  0.1240  1.0713
 6269SOL    HW220815   0.329   9.084   9.865 -0.2569  0.2651 -0.1577
 6270SOL     OW20816   6.660   7.630   0.081 -0.0228 -0.0932 -0.2776
 6270SOL    HW120817   6.700   7.687   0.015  0.5784 -1.2369 -0.9307
 6270SOL    HW220818   6.733   7.580   0.118 -0.7056 -1.7371 -1.0191
 6271SOL     OW20819   2.194   6.446   0.838 -0.2203 -0.2843 -0.2103
 6271SOL    HW120820   2.140   6.405   0.906 -0.0808  0.2514  0.2368
 6271SOL    HW220821   2.259   6.497   0.887  0.7725 -1.0027 -0.7323
 6272SOL     OW20822   8.385   7.802   6.346 -0.0846  0.1058 -0.0070
 6272SOL    HW120823   8.471   7.769   6.371  0.5668 -0.1837 -2.3267
 6272SOL    HW220824   8.394   7.824   6.253 -2.1584  1.3325  0.0133
 6273SOL     OW20825   1.897   8.367   9.150  0.2773 -0.0373  0.5038
 6273SOL    HW120826   1.963   8.436   9.165 -0.2227  0.1654  1.9397
 6273SOL    HW220827   1.948   8.293   9.117  1.1108  0.4041  0.7541
 6274SOL     OW20828   2.866   2.835  10.408  0.0573 -0.6966  0.4012
 6274SOL    HW120829   2.904   2.849  10.321 -1.1873  1.8177  0.1732
 6274SOL    HW220830   2.806   2.761  10.395 -0.1271 -0.3545 -0.9126
 6275SOL     OW20831   9.518   2.923   8.804 -0.1905  0.6836  0.1022
 6275SOL    HW120832   9.442   2.970   8.839 -0.8591 -0.7311  0.6137
 6275SOL    HW220833   9.588   2.988   8.805 -1.5083  2.2071 -0.9622
 6276SOL     OW20834   2.788   4.948   8.810  0.0374 -0.4737 -0.5764
 6276SOL    HW120835   2.849   4.879   8.782  0.7857 -0.3945  0.7700
 6276SOL    HW220836   2.761   4.991   8.728  1.9622 -0.3732 -1.2031
 6277SOL     OW20837   2.426   9.581  10.109 -0.1397 -0.2229  0.8109
 6277SOL    HW120838   2.449   9.488  10.119 -0.5457 -0.2048  2.1856
 6277SOL    HW220839   2.331   9.583  10.121 -0.4141  0.1449 -1.1886
 6278SOL     OW20840   6.414   7.094   6.676  0.2784  0.1380 -1.0736
 6278SOL    HW120841   6.472   7.025   6.709 -1.6424 -0.6513  0.8502
 6278SOL    HW220842   6.362   7.051   6.608 -0.0169  0.0312 -0.7844
 6279SOL     OW20843   9.756  11.089   9.606  0.2888  0.5140  0.4355
 6279SOL    HW120844   9.663  11.110   9.607  0.0858 -0.0334 -1.6945
 6279SOL    HW220845   9.768  11.038   9.526  2.5215  1.0454  0.3723
 6280SOL     OW20846   0.418  10.606   9.744  0.2057 -0.5971 -0.1658
 6280SOL    HW120847   0.343  10.646   9.787 -0.3768  0.6028 -2.1947
 6280SOL    HW220848   0.382  10.534   9.693  0.7877 -1.5108  0.6630
 6281SOL     OW20849  10.248   8.769   1.851 -0.1376 -0.1357 -0.1673
 6281SOL    HW120850  10.162   8.808   1.868 -0.7084 -0.2354 -2.5609
 6281SOL    HW220851  10.261   8.708   1.924 -1.3513  1.0419  1.0908
 6282SOL     OW20852   7.013   8.361  10.349 -0.5346  0.5958 -0.2459
 6282SOL    HW120853   7.005   8.266  10.358 -0.0341  0.6091  0.4574
 6282SOL    HW220854   6.998   8.378  10.256  0.3899 -0.2807 -0.5704
 6283SOL     OW20855   8.764   7.626   9.723  0.1896 -0.3663  0.1555
 6283SOL    HW120856   8.712   7.547   9.738 -0.2768 -0.2458 -0.7511
 6283SOL    HW220857   8.852   7.603   9.753 -0.4617 -0.4008  2.2146
 6284SOL     OW20858   3.597   6.557   8.069  0.3063 -0.1066 -0.2280
 6284SOL    HW120859   3.544   6.575   7.991  1.0195 -0.2986 -0.7605
 6284SOL    HW220860   3.534   6.559   8.141 -0.5874 -1.2283 -0.9540
 6285SOL     OW20861   0.153  10.857   5.473 -0.5986  0.2220  0.2164
 6285SOL    HW120862   0.155  10.819   5.385  1.9604  0.5544  0.0657
 6285SOL    HW220863   0.229  10.820   5.517 -0.7392  1.5542  1.6538
 6286SOL     OW20864   0.674   3.069   7.725  0.0101 -0.0194  0.3032
 6286SOL    HW120865   0.751   3.059   7.780 -0.1625 -1.2637  0.3465
 6286SOL    HW220866   0.708   3.097   7.640  0.4099  0.4039  0.5952
 6287SOL     OW20867   4.118   7.519   7.320  0.6422 -0.4703  0.0875
 6287SOL    HW120868   4.137   7.538   7.228 -2.1277  0.6065 -0.3843
 6287SOL    HW220869   4.033   7.473   7.317 -0.4920  1.3339  2.1509
 6288SOL     OW20870  10.927   6.598   0.528  0.4420  0.2188  0.4470
 6288SOL    HW120871  10.943   6.551   0.609 -0.7372 -1.4474 -0.2282
 6288SOL    HW220872  10.986   6.556   0.464 -0.7061 -0.4720 -0.1905
 6289SOL     OW20873   4.321   0.672   6.855 -0.1400 -0.4448  0.0105
 6289SOL    HW120874   4.270   0.596   6.827 -2.7308  0.9051  0.7060
 6289SOL    HW220875   4.332   0.724   6.776  2.7259 -1.9807 -0.7467
 6290SOL     OW20876   9.229   3.354   6.723 -0.7332 -0.1588  0.0122
 6290SOL    HW120877   9.135   3.363   6.741 -0.9498  0.4123 -1.2547
 6290SOL    HW220878   9.250   3.265   6.749 -1.2728  0.1779  1.7288
 6291SOL     OW20879   5.607   6.864   6.000  0.9207 -0.4763  0.2104
 6291SOL    HW120880   5.661   6.893   5.926 -0.4823 -1.1336 -1.1158
 6291SOL    HW220881   5.625   6.771   6.008 -0.0512 -0.7222 -0.3033
 6292SOL     OW20882   9.132   1.868  10.589  0.1699 -0.3575 -0.3448
 6292SOL    HW120883   9.069   1.853  10.519  0.5981 -2.6332 -0.3130
 6292SOL    HW220884   9.083   1.916  10.655 -1.4059 -1.5920 -0.5655
 6293SOL     OW20885   3.942   2.918   6.231  0.5869  0.1972  0.1657
 6293SOL    HW120886   4.007   2.949   6.168 -0.0971  2.2727  0.4183
 6293SOL    HW220887   3.988   2.919   6.315  0.5034  0.7393  0.2050
 6294SOL     OW20888   1.617   4.417   9.412 -0.2288 -0.1725 -0.2976
 6294SOL    HW120889   1.598   4.470   9.335 -1.1698 -0.2349 -0.1188
 6294SOL    HW220890   1.595   4.328   9.386 -1.6676 -0.0429  0.3919
 6295SOL     OW20891   6.943   0.727   3.248  1.0019  0.0274  0.0084
 6295SOL    HW120892   7.038   0.731   3.263  1.1830  0.3117 -1.1029
 6295SOL    HW220893   6.904   0.760   3.329  1.8216 -0.9532  0.8267
 6296SOL     OW20894   2.473   0.798  10.459  0.3778  0.4591 -0.6115
 6296SOL    HW120895   2.568   0.791  10.451  0.4885 -0.3855  1.0841
 6296SOL    HW220896   2.458   0.827  10.549 -1.0216 -1.2093 -0.2636
 6297SOL     OW20897   4.051   6.137  10.435  0.0085  0.1202  0.1278
 6297SOL    HW120898   4.128   6.150  10.490  0.5045  1.6252 -0.8537
 6297SOL    HW220899   4.069   6.056  10.388  0.6099  0.0053  0.5412
 6298SOL     OW20900   4.162   9.916   5.406  0.1829  0.1813  0.1891
 6298SOL    HW120901   4.239   9.863   5.428  0.5431 -0.5080 -2.3892
 6298SOL    HW220902   4.089   9.872   5.450  0.8069 -1.1921 -0.1102
 6299SOL     OW20903  10.173   4.682   2.665  0.8749 -0.3340 -0.2384
 6299SOL    HW120904  10.212   4.769   2.675 -0.8325  0.4363  0.2322
 6299SOL    HW220905  10.103   4.694   2.601 -0.2810 -1.0197  0.8466
 6300SOL     OW20906   1.454   6.263   7.582  0.5131 -0.1550 -0.2781
 6300SOL    HW120907   1.458   6.172   7.612  1.1009 -0.0293  0.0353
 6300SOL    HW220908   1.468   6.315   7.661  2.0843  0.1769 -0.7394
 6301SOL     OW20909  10.758   9.092   9.594 -0.3981  0.1188 -0.0733
 6301SOL    HW120910  10.801   9.012   9.562 -1.1496 -0.7527  1.0124
 6301SOL    HW220911  10.665   9.069   9.597 -0.6410  1.0927  0.1440
 6302SOL     OW20912   2.769  10.197   3.245 -0.2172 -0.3635  0.5977
 6302SOL    HW120913   2.769  10.108   3.279 -1.5755  0.0135  1.6837
 6302SOL    HW220914   2.679  10.227   3.257  0.1857  1.1046  0.1231
 6303SOL     OW20915   7.457   5.927   1.375  0.5199  0.0167  0.1571
 6303SOL    HW120916   7.408   5.905   1.296  1.0784  1.5584 -0.6482
 6303SOL    HW220917   7.542   5.886   1.363  1.1091  1.4425 -0.7429
 6304SOL     OW20918   2.822   3.889   2.724  0.3961  0.5964 -0.1414
 6304SOL    HW120919   2.884   3.864   2.793  1.1844  0.4799 -0.8781
 6304SOL    HW220920   2.790   3.807   2.689 -1.7773  0.6145  1.5893
 6305SOL     OW20921   7.871   5.780   3.914  0.4663 -0.7208  0.4185
 6305SOL    HW120922   7.829   5.833   3.981 -0.9001 -0.7843 -0.3274
 6305SOL    HW220923   7.963   5.805   3.915  0.0242  0.9883  0.7064
 6306SOL     OW20924   4.180   8.703   5.087  0.0117 -0.3342  0.1498
 6306SOL    HW120925   4.261   8.749   5.109  0.4544 -0.9014 -0.2464
 6306SOL    HW220926   4.110   8.763   5.112  0.5496  0.0257  0.8024
 6307SOL     OW20927   7.770   6.079   9.483  0.1458 -0.4317  0.5520
 6307SOL    HW120928   7.698   6.022   9.508 -0.7520  0.4858  0.1305
 6307SOL    HW220929   7.843   6.020   9.464 -1.2672 -1.5937 -1.6800
 6308SOL     OW20930  10.771   4.457   6.925 -0.1396  0.3992 -0.1934
 6308SOL    HW120931  10.761   4.364   6.948  0.1817  0.2891 -0.4876
 6308SOL    HW220932  10.686   4.495   6.944 -0.9844 -0.3981 -2.0406
 6309SOL     OW20933   1.690   4.386  10.228 -0.1209  0.0615 -0.6142
 6309SOL    HW120934   1.648   4.470  10.211  0.1399  0.0308 -1.4551
 6309SOL    HW220935   1.749   4.402  10.302  0.6069  0.8503 -1.3479
 6310SOL     OW20936   0.733   6.044   6.868  0.2061  0.0388  0.2389
 6310SOL    HW120937   0.721   6.044   6.773 -0.0532 -1.1433  0.2612
 6310SOL    HW220938   0.757   5.954   6.890  0.5030  0.3527  1.2714
 6311SOL     OW20939  10.981   6.134  10.473  0.5427 -0.3835  0.3098
 6311SOL    HW120940  10.931   6.199  10.523  1.2057 -0.7808  1.5420
 6311SOL    HW220941  11.015   6.182  10.398 -2.7688 -0.3800 -1.3618
 6312SOL     OW20942  10.217  10.672   0.981  0.0991 -0.0357 -0.1542
 6312SOL    HW120943  10.291  10.638   1.032 -0.2598 -0.0313  0.3790
 6312SOL    HW220944  10.171  10.595   0.950  0.3656 -0.0389 -0.5477
 6313SOL     OW20945   2.205   0.783   4.333  0.1792  0.0664  0.0706
 6313SOL    HW120946   2.186   0.875   4.351 -0.1212 -0.2221  1.3550
 6313SOL    HW220947   2.232   0.782   4.241 -2.4034  1.0728 -0.8133
 6314SOL     OW20948   3.593   6.130   7.909 -0.4010  0.0972  0.1225
 6314SOL    HW120949   3.556   6.071   7.843 -0.2781  1.6580 -1.4096
 6314SOL    HW220950   3.527   6.197   7.921 -0.7897 -0.5848  2.2899
 6315SOL     OW20951   8.783   3.932   1.657  0.0191 -0.1345  0.3463
 6315SOL    HW120952   8.821   3.865   1.713  1.8854  0.8278  0.3128
 6315SOL    HW220953   8.783   4.011   1.711  0.7719  0.5384 -0.6134
 6316SOL     OW20954   6.467   8.864   6.344 -0.7854  0.4243  0.1576
 6316SOL    HW120955   6.523   8.929   6.301 -2.2234  2.1434  0.7586
 6316SOL    HW220956   6.482   8.877   6.437 -2.2690  1.0172  0.3322
 6317SOL     OW20957   7.532   1.115   8.148  0.6283 -0.7715 -0.2994
 6317SOL    HW120958   7.446   1.109   8.188  0.2688  0.9583 -0.7504
 6317SOL    HW220959   7.516   1.107   8.054  1.1951 -2.3121 -0.2998
 6318SOL     OW20960  10.212   9.603   9.453 -0.1143  0.0232 -0.0782
 6318SOL    HW120961  10.159   9.531   9.419  0.9211 -1.1355  0.7131
 6318SOL    HW220962  10.171   9.625   9.537  1.1318 -1.4812  0.9696
 6319SOL     OW20963   5.862  10.137  10.688  0.2297  0.1233  0.5937
 6319SOL    HW120964   5.894  10.047  10.690 -0.7561 -0.2338  1.0150
 6319SOL    HW220965   5.778  10.134  10.733 -0.3471  1.0475 -0.3526
 6320SOL     OW20966   4.291   0.453  10.077 -0.0672  0.5057 -0.3433
 6320SOL    HW120967   4.359   0.422  10.137 -1.1161 -2.0680 -0.3422
 6320SOL    HW220968   4.210   0.417  10.113 -1.0021  0.7385 -2.1229
 6321SOL     OW20969   1.484  10.204   8.066 -0.5021  0.1881  0.2909
 6321SOL    HW120970   1.526  10.197   7.980  0.9011  1.9694  0.7712
 6321SOL    HW220971   1.403  10.153   8.058  0.5223 -1.2631 -1.4664
 6322SOL     OW20972   1.770   5.959  10.479 -0.1494  0.7616  0.3744
 6322SOL    HW120973   1.830   6.001  10.541  0.1989 -0.2292  0.7313
 6322SOL    HW220974   1.816   5.962  10.395  0.9830 -1.0689  0.8749
 6323SOL     OW20975   7.205   4.696   2.758  0.3845  0.1757  0.7909
 6323SOL    HW120976   7.233   4.670   2.670  0.3278  0.7818  0.5907
 6323SOL    HW220977   7.218   4.618   2.811  0.8624 -0.0550  0.3415
 6324SOL     OW20978   1.574   8.489   2.986  0.5891 -0.3288 -0.4115
 6324SOL    HW120979   1.527   8.558   2.941 -0.8675 -0.9599  0.0854
 6324SOL    HW220980   1.517   8.412   2.979  1.1881 -0.9198  0.8607
 6325SOL     OW20981   4.564   0.210   0.527 -0.2928 -0.3351  0.1079
 6325SOL    HW120982   4.632   0.223   0.460 -0.4526 -0.8030 -0.1470
 6325SOL    HW220983   4.506   0.144   0.490  0.7961 -2.2186  1.5914
 6326SOL     OW20984  10.112   2.273   0.715  0.1539 -0.4527  0.0666
 6326SOL    HW120985  10.120   2.195   0.659  0.2329  0.0158 -0.5849
 6326SOL    HW220986  10.018   2.290   0.718  0.2417  0.5094 -1.3402
 6327SOL     OW20987   4.355   5.140   0.635  0.3045 -0.0067  0.7308
 6327SOL    HW120988   4.448   5.119   0.645 -0.0095 -2.1618 -0.2895
 6327SOL    HW220989   4.344   5.153   0.541 -0.6325 -1.0253  0.6816
 6328SOL     OW20990  11.013   9.818   9.491  0.2425 -0.2525  0.3202
 6328SOL    HW120991  11.042   9.731   9.520 -0.9263 -0.1490  1.9548
 6328SOL    HW220992  11.075   9.879   9.530 -1.2958 -0.1177  2.7671
 6329SOL     OW20993   7.241   5.727   7.144  0.0674  0.0720  0.0427
 6329SOL    HW120994   7.295   5.789   7.191 -0.7729 -0.3955  1.7082
 6329SOL    HW220995   7.165   5.778   7.115 -0.1222  0.0641  0.5101
 6330SOL     OW20996   7.780   9.178  10.610  0.1312  0.1267 -0.1616
 6330SOL    HW120997   7.803   9.091  10.644  2.3115  1.0992  1.0279
 6330SOL    HW220998   7.841   9.237  10.652 -1.2190  2.2676 -1.0530
 6331SOL     OW20999   5.076   9.568   7.450 -0.3946 -0.7859 -0.3442
 6331SOL    HW121000   5.062   9.474   7.439  0.6095 -1.1850  1.4678
 6331SOL    HW221001   5.167   9.576   7.476 -0.6728  0.6308  0.2976
 6332SOL     OW21002   6.743   8.624   1.055 -0.0089  0.0297 -0.1251
 6332SOL    HW121003   6.692   8.681   0.998 -0.6975  0.1848  0.6134
 6332SOL    HW221004   6.834   8.645   1.036 -0.2425  0.7530 -0.4825
 6333SOL     OW21005   6.076  10.275  10.799  0.4826  0.3893 -0.4121
 6333SOL    HW121006   6.117  10.195  10.833  0.9919 -0.0875 -2.0667
 6333SOL    HW221007   5.996  10.244  10.756  0.2205  0.8949 -0.2972
 6334SOL     OW21008   1.287   5.203   2.035 -0.1870 -0.0826 -0.1085
 6334SOL    HW121009   1.213   5.183   1.978 -0.6583 -1.1066  0.8372
 6334SOL    HW221010   1.364   5.181   1.982 -0.6218 -3.9436  0.5373
 6335SOL     OW21011   4.333   0.041   7.620 -0.3106 -0.1942  0.2083
 6335SOL    HW121012   4.377   0.048   7.535 -0.8487 -1.6134 -0.2180
 6335SOL    HW221013   4.372   0.111   7.673  0.8489  0.0004 -0.8491
 6336SOL     OW21014   1.807   0.101   9.508 -0.5935 -0.5752 -0.0234
 6336SOL    HW121015   1.743   0.171   9.497  0.6443  0.5124 -0.4860
 6336SOL    HW221016   1.788   0.064   9.595 -1.7204 -0.1709 -0.0835
 6337SOL     OW21017   2.125  10.376  10.605  0.1679 -0.1171 -0.3418
 6337SOL    HW121018   2.119  10.282  10.623  0.5536 -0.2510 -0.8809
 6337SOL    HW221019   2.080  10.418  10.678 -1.0144 -0.7685 -0.6838
 6338SOL     OW21020   0.887   2.771  11.018  0.4504  0.0484  0.3781
 6338SOL    HW121021   0.854   2.833  11.083  1.9557  0.1509  1.0740
 6338SOL    HW221022   0.937   2.706  11.069 -1.4289 -2.0436 -0.2623
 6339SOL     OW21023  10.614   3.568   5.631 -0.2045 -0.4621 -0.1917
 6339SOL    HW121024  10.660   3.556   5.548  0.4559 -2.4720  0.3942
 6339SOL    HW221025  10.541   3.506   5.626  0.1038 -0.9279  0.8903
 6340SOL     OW21026  10.007   8.446   3.023  0.0537  0.8481  0.4036
 6340SOL    HW121027   9.953   8.382   3.070  0.3674  1.4194  1.5804
 6340SOL    HW221028   9.947   8.485   2.959 -0.2880 -0.2012  0.0635
 6341SOL     OW21029  10.077   7.538   0.727  0.0571 -0.0866  0.5658
 6341SOL    HW121030  10.107   7.597   0.659 -0.3357  0.4856  0.8798
 6341SOL    HW221031  10.088   7.587   0.809 -0.5536 -0.3234  0.8002
 6342SOL     OW21032   0.143   9.250   2.838  0.0365  0.6324 -1.2752
 6342SOL    HW121033   0.211   9.290   2.892  1.1960 -1.6149 -0.9502
 6342SOL    HW221034   0.062   9.290   2.868  1.0092  1.9675 -0.3188
 6343SOL     OW21035   1.617   0.048   0.322 -0.5809  0.5794 -0.0612
 6343SOL    HW121036   1.578   0.012   0.402  2.5445 -2.4834  0.2896
 6343SOL    HW221037   1.690   0.102   0.353 -0.2981  0.6488 -0.8395
 6344SOL     OW21038  10.551   3.335   5.374 -0.2185  0.0068 -0.4619
 6344SOL    HW121039  10.524   3.342   5.466 -0.3243 -1.1035 -0.3852
 6344SOL    HW221040  10.499   3.262   5.340 -1.8837  1.8141 -2.0603
 6345SOL     OW21041   1.507   4.549   1.200 -0.2242  0.4037  0.0807
 6345SOL    HW121042   1.578   4.485   1.199 -1.2137 -0.8304  2.2078
 6345SOL    HW221043   1.449   4.522   1.128 -0.0169 -0.3697  0.1989
 6346SOL     OW21044  10.698   9.170   4.744 -0.0818  0.4306 -0.5154
 6346SOL    HW121045  10.775   9.197   4.693  0.2847 -0.3055 -0.3594
 6346SOL    HW221046  10.717   9.080   4.770 -0.1699  0.8679  1.1235
 6347SOL     OW21047   1.329   1.098  10.579 -0.2174  0.2856  0.5311
 6347SOL    HW121048   1.328   1.036  10.653  2.0000 -1.3092 -0.6617
 6347SOL    HW221049   1.356   1.181  10.618  0.7619 -0.4866  1.5748
 6348SOL     OW21050   2.769   5.495   8.357  0.0941 -0.3947  0.0289
 6348SOL    HW121051   2.706   5.436   8.316  0.0383 -0.2115 -0.1481
 6348SOL    HW221052   2.736   5.583   8.338  0.6210 -0.2851 -0.4134
 6349SOL     OW21053   9.349   2.069  10.078  0.1040  0.7445  0.3372
 6349SOL    HW121054   9.327   2.006  10.146  0.4456 -0.1764 -0.3890
 6349SOL    HW221055   9.328   2.025   9.996  2.6488  0.5684 -0.2994
 6350SOL     OW21056  10.956   5.324   3.321  0.5276 -0.3166  0.1572
 6350SOL    HW121057  10.972   5.358   3.409 -0.2219  1.0976 -0.2175
 6350SOL    HW221058  11.024   5.259   3.307  0.4830 -0.7747  1.8897
 6351SOL     OW21059   8.596  10.603   2.168 -0.4026  0.6877 -0.2462
 6351SOL    HW121060   8.683  10.568   2.189 -0.8963  0.6139  1.8976
 6351SOL    HW221061   8.541  10.526   2.156 -0.3795  0.7387 -0.7022
 6352SOL     OW21062   8.178   6.993   2.043 -0.0215 -0.9234 -0.1732
 6352SOL    HW121063   8.134   7.009   1.959  0.5170  0.5881 -0.2039
 6352SOL    HW221064   8.250   6.934   2.021 -2.9696 -5.0690  0.1813
 6353SOL     OW21065   1.039   1.327   9.372  0.1120 -0.5111  0.2503
 6353SOL    HW121066   1.035   1.285   9.458 -2.0171  0.6625  0.8002
 6353SOL    HW221067   1.062   1.418   9.391 -1.4785  0.0285 -0.2710
 6354SOL     OW21068   2.347   5.049   5.465  0.1743  0.1164 -0.2857
 6354SOL    HW121069   2.326   5.026   5.375  2.0933  2.2339 -1.3563
 6354SOL    HW221070   2.316   5.138   5.476  0.3992  0.0633  1.0043
 6355SOL     OW21071   4.849  10.754   1.126 -0.8774  0.0014 -0.2743
 6355SOL    HW121072   4.896  10.802   1.194 -0.1447  1.4504 -1.7356
 6355SOL    HW221073   4.817  10.822   1.067 -1.6517 -1.2021 -1.2885
 6356SOL     OW21074  10.576   9.195   6.403 -0.1729  0.2822 -0.0159
 6356SOL    HW121075  10.496   9.240   6.427  1.1942  3.2415 -0.5706
 6356SOL    HW221076  10.639   9.219   6.471  1.2484  1.2176 -1.5858
 6357SOL     OW21077   0.777   8.699   4.876  0.4291 -0.6096  0.3935
 6357SOL    HW121078   0.865   8.694   4.841  0.4747  2.4169 -0.2028
 6357SOL    HW221079   0.720   8.693   4.800  0.1969 -0.7279  0.5733
 6358SOL     OW21080   5.146   1.884   7.194  0.1666  0.1809 -0.4242
 6358SOL    HW121081   5.207   1.850   7.128 -0.1626  1.5363 -1.4819
 6358SOL    HW221082   5.076   1.924   7.143 -0.1275  1.2279  0.7495
 6359SOL     OW21083   3.657   2.304   3.089  0.2888  0.6269  0.3992
 6359SOL    HW121084   3.666   2.369   3.020 -0.4574  2.4700  1.9617
 6359SOL    HW221085   3.680   2.350   3.169  0.2362 -1.1868  1.5205
 6360SOL     OW21086   2.505   0.478   0.571  0.1790  0.0787 -0.4163
 6360SOL    HW121087   2.425   0.492   0.521 -0.6040  0.6139  0.9435
 6360SOL    HW221088   2.504   0.385   0.594  1.7429 -0.7808 -3.3148
 6361SOL     OW21089   8.973   6.044   4.092 -0.1046  0.2520 -0.5627
 6361SOL    HW121090   8.878   6.037   4.101 -0.1200  1.2644  0.2264
 6361SOL    HW221091   8.995   5.984   4.020 -1.1458 -1.1560  0.2556
 6362SOL     OW21092   0.277   7.064   1.965 -0.0356 -0.7268 -0.3653
 6362SOL    HW121093   0.292   7.081   1.872  0.1708  0.3165 -0.1488
 6362SOL    HW221094   0.361   7.031   1.997 -0.8105 -3.6680 -1.0815
 6363SOL     OW21095   0.056   2.827   8.660 -0.0635  0.6259 -0.3571
 6363SOL    HW121096   0.079   2.803   8.750  3.1085  1.8440 -0.6918
 6363SOL    HW221097  -0.034   2.798   8.649  0.4814 -2.5692  2.1289
 6364SOL     OW21098   2.363   6.586   6.675  0.2105 -0.8255  0.4627
 6364SOL    HW121099   2.323   6.656   6.622  2.4287 -0.0067 -0.2645
 6364SOL    HW221100   2.418   6.632   6.737  0.6948 -1.9173  0.8598
 6365SOL     OW21101   4.562   0.911   7.172  0.0200  0.3884 -0.2858
 6365SOL    HW121102   4.604   0.988   7.209  0.8932  0.2927 -1.0507
 6365SOL    HW221103   4.472   0.914   7.205  0.6774  0.4254  1.6566
 6366SOL     OW21104   0.157   1.120   6.378 -0.2464  0.1154 -0.0943
 6366SOL    HW121105   0.190   1.194   6.327 -0.6386 -0.3877 -1.0951
 6366SOL    HW221106   0.168   1.147   6.469  2.0657  0.3503 -0.3933
 6367SOL     OW21107   2.180   4.078   4.201 -0.2193 -0.2333  0.5484
 6367SOL    HW121108   2.247   4.142   4.225 -1.2338  1.1769 -0.2797
 6367SOL    HW221109   2.123   4.074   4.278 -0.1424 -0.1571  0.6104
 6368SOL     OW21110   9.192  10.195   8.542  0.3612 -0.2765 -0.0740
 6368SOL    HW121111   9.181  10.173   8.450  0.8969  0.0159 -0.2069
 6368SOL    HW221112   9.281  10.229   8.549 -0.0348  0.7249  0.3395
 6369SOL     OW21113   2.526   3.845   8.688  0.6828 -0.5282 -0.5854
 6369SOL    HW121114   2.436   3.872   8.668  0.3774 -0.8173  0.3546
 6369SOL    HW221115   2.578   3.922   8.667  0.2881 -0.5244 -1.6252
 6370SOL     OW21116  10.565   7.093  10.969 -0.4559  0.0543 -0.3809
 6370SOL    HW121117  10.560   7.073  10.875  0.6899 -2.2368 -0.0404
 6370SOL    HW221118  10.645   7.145  10.978  2.0488 -3.4013 -0.3180
 6371SOL     OW21119   9.362   7.754   2.057  0.0796 -0.7709 -0.0148
 6371SOL    HW121120   9.408   7.761   2.140  0.1263 -0.1263 -0.0861
 6371SOL    HW221121   9.413   7.808   1.997  1.0092 -2.5440 -0.9085
 6372SOL     OW21122   3.028   4.519   8.026 -0.0426 -0.4451 -0.2226
 6372SOL    HW121123   2.953   4.578   8.025 -0.7256 -1.2712 -1.4260
 6372SOL    HW221124   2.990   4.432   8.037  0.9843 -0.6669  2.2211
 6373SOL     OW21125   0.435   7.185   8.039  0.6017 -0.1687 -0.0384
 6373SOL    HW121126   0.515   7.228   8.008 -0.4082  1.4572 -0.4834
 6373SOL    HW221127   0.408   7.236   8.115 -0.3227 -0.3400 -0.2422
 6374SOL     OW21128   0.398  10.245   0.205 -0.3810 -0.3150  0.3940
 6374SOL    HW121129   0.423  10.168   0.153 -1.3205  0.5864 -1.4863
 6374SOL    HW221130   0.389  10.212   0.294  0.1050 -2.1899 -0.2038
 6375SOL     OW21131   3.198   2.960   2.340 -0.0580 -0.1507 -0.0377
 6375SOL    HW121132   3.241   3.026   2.394  0.7632 -0.3321 -0.4397
 6375SOL    HW221133   3.251   2.956   2.261 -0.4637 -0.8377 -0.2889
 6376SOL     OW21134   7.915  10.433   6.565  0.2562 -0.2752  0.0175
 6376SOL    HW121135   7.895  10.519   6.528 -1.8116 -0.2209  1.1316
 6376SOL    HW221136   7.993  10.447   6.618  1.5537  0.2659 -1.9141
 6377SOL     OW21137   2.285   6.192   2.106  0.2297 -0.2580 -0.0244
 6377SOL    HW121138   2.236   6.192   2.189  1.6882  0.0518  0.8799
 6377SOL    HW221139   2.254   6.270   2.060 -1.5955 -1.1567 -0.4342
 6378SOL     OW21140   2.031   8.704   9.442  0.2389 -0.2212 -0.2908
 6378SOL    HW121141   2.115   8.678   9.403  0.4159  0.1937 -0.2001
 6378SOL    HW221142   1.967   8.646   9.403  0.4721 -0.0731 -0.8992
 6379SOL     OW21143   1.996   0.383   5.056 -0.1688  0.2676 -0.0809
 6379SOL    HW121144   2.041   0.396   5.140  1.9825  2.7081 -1.4569
 6379SOL    HW221145   1.953   0.467   5.039 -0.0976  0.0077 -1.6690
 6380SOL     OW21146   8.267   2.700   4.687  0.5336  0.3982  0.3631
 6380SOL    HW121147   8.237   2.677   4.599  0.9181 -0.8264  0.5229
 6380SOL    HW221148   8.352   2.656   4.695 -1.1575 -2.9195  2.6975
 6381SOL     OW21149   6.073   0.927   0.167 -0.1927  0.0715 -0.2170
 6381SOL    HW121150   6.095   1.020   0.178  0.3040 -0.1847  1.2249
 6381SOL    HW221151   6.151   0.880   0.198 -1.0267 -0.8331  0.6031
 6382SOL     OW21152   9.486   1.361   5.304 -0.0282  0.5117 -0.9263
 6382SOL    HW121153   9.402   1.328   5.337  0.8512  0.2287  1.1229
 6382SOL    HW221154   9.506   1.305   5.229 -1.6575  0.6138 -1.4923
 6383SOL     OW21155  10.666   6.862   6.280  0.2054 -0.3051 -0.0402
 6383SOL    HW121156  10.652   6.938   6.224  1.4680 -0.9598 -1.3248
 6383SOL    HW221157  10.734   6.812   6.235  1.0466 -1.0395  1.9452
 6384SOL     OW21158   0.487   8.278   9.908 -0.0936 -0.7358 -0.5560
 6384SOL    HW121159   0.549   8.296   9.838 -1.8092  2.6009 -1.4303
 6384SOL    HW221160   0.524   8.320   9.985  0.0126 -1.1530 -0.3740
 6385SOL     OW21161   2.272   1.180   1.733 -0.1484 -0.3163  0.4560
 6385SOL    HW121162   2.340   1.241   1.762 -1.4429  0.3568  2.2682
 6385SOL    HW221163   2.279   1.180   1.638  2.0700  0.0544  0.5520
 6386SOL     OW21164   0.423   2.437   5.959 -0.0182 -0.0926  0.0256
 6386SOL    HW121165   0.423   2.344   5.982 -1.2958  0.0593  0.7407
 6386SOL    HW221166   0.332   2.464   5.970 -0.2396  0.6080 -2.8756
 6387SOL     OW21167   1.667   5.288   8.292 -0.3417  0.4970  0.4298
 6387SOL    HW121168   1.746   5.237   8.307 -1.4702 -1.2816  0.6301
 6387SOL    HW221169   1.666   5.353   8.362  1.1609  0.8674  0.1358
 6388SOL     OW21170   8.025   9.423   7.626  0.2061  0.4479 -0.1501
 6388SOL    HW121171   8.117   9.398   7.624 -0.5572 -2.8746  1.2983
 6388SOL    HW221172   8.011   9.458   7.714 -0.0630  0.4092 -0.1778
 6389SOL     OW21173   9.665   3.508   0.674 -0.1987 -0.0041  0.3119
 6389SOL    HW121174   9.600   3.479   0.610 -1.6046 -0.1599  1.7412
 6389SOL    HW221175   9.735   3.443   0.669 -1.2913 -1.2360  0.4073
 6390SOL     OW21176  10.588   0.507   1.739 -0.3473 -0.5081 -0.4708
 6390SOL    HW121177  10.493   0.505   1.754 -0.5952  1.2238 -1.5013
 6390SOL    HW221178  10.618   0.587   1.782  0.3406 -0.1349 -1.5861
 6391SOL     OW21179   5.583   8.044   6.952 -0.3197 -0.1096  0.0266
 6391SOL    HW121180   5.585   8.132   6.990  1.0031  0.1282 -0.5616
 6391SOL    HW221181   5.649   8.045   6.883  0.3945 -1.8541  0.6209
 6392SOL     OW21182   2.680   4.888   4.877 -0.3264  0.2022 -0.5388
 6392SOL    HW121183   2.676   4.888   4.973  0.7554  0.6279 -0.4782
 6392SOL    HW221184   2.627   4.963   4.851 -0.1266  0.4533 -0.2371
 6393SOL     OW21185   2.105   0.430  10.794  0.1422  0.4205  0.7545
 6393SOL    HW121186   2.140   0.461  10.710 -0.6834 -0.5523  0.0146
 6393SOL    HW221187   2.148   0.345  10.807 -1.9182 -0.8436 -0.2250
 6394SOL     OW21188   2.259   0.267   8.696  0.1147 -0.2806 -0.1527
 6394SOL    HW121189   2.196   0.319   8.646 -0.3454  0.2763  0.9544
 6394SOL    HW221190   2.317   0.332   8.735  2.2669 -0.8430 -2.2146
 6395SOL     OW21191   1.078   9.728   7.919 -0.0413  0.5817  0.2985
 6395SOL    HW121192   1.085   9.771   8.004  1.2426 -1.5741  1.3596
 6395SOL    HW221193   1.145   9.769   7.865  0.8464  0.2547  1.1336
 6396SOL     OW21194   5.936  10.573   4.028  0.0388  0.7300  0.6687
 6396SOL    HW121195   5.998  10.646   4.032  0.6234  0.2733  0.1912
 6396SOL    HW221196   5.991  10.495   4.031 -0.3506  0.3048 -1.3563
 6397SOL     OW21197   8.554   0.242   1.758 -0.1773 -0.0623 -0.0696
 6397SOL    HW121198   8.531   0.331   1.731  1.1035  0.7073  1.2370
 6397SOL    HW221199   8.623   0.215   1.698 -1.0081 -0.4615 -0.8774
 6398SOL     OW21200  10.414  11.049   1.683 -0.3417  0.0504  0.0222
 6398SOL    HW121201  10.476  11.110   1.723  1.0960 -0.7856 -0.8738
 6398SOL    HW221202  10.372  11.100   1.614 -0.5981  0.5812  0.5552
 6399SOL     OW21203   4.611   6.584   9.175  0.1062  0.2145 -0.5131
 6399SOL    HW121204   4.547   6.514   9.190  0.0279  0.4044  0.0727
 6399SOL    HW221205   4.566   6.645   9.116 -0.4190  0.5456  0.1994
 6400SOL     OW21206   3.052   8.705   3.578 -0.5146 -0.1154  0.6386
 6400SOL    HW121207   3.119   8.761   3.537 -0.6584 -0.6760 -0.4068
 6400SOL    HW221208   3.103   8.643   3.631 -0.4133  1.8238  2.9639
 6401SOL     OW21209   0.351   1.501   1.464 -0.7214  0.0442  0.1145
 6401SOL    HW121210   0.391   1.586   1.484 -1.9725  1.1486 -1.7459
 6401SOL    HW221211   0.262   1.508   1.499 -0.1949 -1.3711  1.8677
 6402SOL     OW21212   8.423   4.173  10.866 -0.1657  0.4660  0.3958
 6402SOL    HW121213   8.458   4.260  10.883 -1.8447  1.1780  0.3929
 6402SOL    HW221214   8.465   4.145  10.784  0.6334  1.1235  0.5736
 6403SOL     OW21215   2.409  10.404   6.155  0.4105 -0.2354  0.2334
 6403SOL    HW121216   2.423  10.498   6.162  0.4161 -0.2579  0.5292
 6403SOL    HW221217   2.385  10.390   6.063 -1.0262  0.2477  0.5056
 6404SOL     OW21218   4.468  10.468   1.023 -0.7761  0.1677 -0.2958
 6404SOL    HW121219   4.542  10.474   0.963 -2.0748 -1.0534 -2.1106
 6404SOL    HW221220   4.492  10.399   1.085  0.2943  0.9820  0.2260
 6405SOL     OW21221   7.793   2.142   8.334  0.5799 -0.3934 -0.0075
 6405SOL    HW121222   7.718   2.089   8.357  0.9043 -1.1426 -0.6339
 6405SOL    HW221223   7.784   2.157   8.240  1.1035 -0.3224 -0.0523
 6406SOL     OW21224   7.298   3.130  10.638 -0.3689  0.5450 -0.6353
 6406SOL    HW121225   7.260   3.048  10.606  0.3038 -1.2871  2.8304
 6406SOL    HW221226   7.224   3.180  10.670 -0.4644 -0.7174  1.2624
 6407SOL     OW21227  10.062   7.687   1.650 -0.5505 -0.4638 -0.2610
 6407SOL    HW121228  10.041   7.638   1.729 -1.3328  2.1471  1.2790
 6407SOL    HW221229  10.109   7.765   1.682  1.0726 -0.3738 -2.5976
 6408SOL     OW21230   5.206   9.091   2.052 -0.4015  0.1736  0.3798
 6408SOL    HW121231   5.264   9.166   2.035  2.8801 -2.5131 -1.3974
 6408SOL    HW221232   5.228   9.065   2.141 -0.4007  0.4078  0.4504
 6409SOL     OW21233   8.707   3.553  10.601  0.1050  0.6724 -0.0425
 6409SOL    HW121234   8.776   3.596  10.549  0.7463 -0.0361  0.2025
 6409SOL    HW221235   8.646   3.623  10.621  1.6501  1.7329  1.2144
 6410SOL     OW21236  10.473   1.833   6.523 -0.1131  0.1962  0.0737
 6410SOL    HW121237  10.401   1.789   6.478 -0.9023 -1.1234  2.4286
 6410SOL    HW221238  10.431   1.900   6.577  0.8956  2.5113 -1.8560
 6411SOL     OW21239   3.818   5.259   3.776  0.7727 -0.4261  0.2578
 6411SOL    HW121240   3.912   5.271   3.764  0.7588  1.1870  1.4078
 6411SOL    HW221241   3.779   5.341   3.745 -0.1187 -0.4790  1.1923
 6412SOL     OW21242   3.767   9.396   7.792 -0.6825 -0.6079 -0.1255
 6412SOL    HW121243   3.749   9.489   7.778  0.2951 -0.7035 -2.3844
 6412SOL    HW221244   3.816   9.394   7.875 -0.0609  0.9998 -0.4097
 6413SOL     OW21245   2.669   4.236   2.292 -0.0603 -0.1604 -0.0883
 6413SOL    HW121246   2.756   4.265   2.320  0.7658 -2.4424 -0.0482
 6413SOL    HW221247   2.614   4.314   2.300  1.5317  0.8623  1.7971
 6414SOL     OW21248   4.753   5.857  10.851  0.6096  0.3332 -0.3540
 6414SOL    HW121249   4.748   5.923  10.782 -0.0949 -0.2397 -0.8659
 6414SOL    HW221250   4.836   5.811  10.835 -0.7354 -1.5648 -2.5052
 6415SOL     OW21251   1.208   3.683   7.127  0.5510 -0.3750 -0.2974
 6415SOL    HW121252   1.254   3.685   7.043  0.4551 -1.2582 -0.3780
 6415SOL    HW221253   1.139   3.618   7.115  0.8608 -0.8956  0.6329
 6416SOL     OW21254   4.931   7.365   8.736  0.0967 -0.3392  0.0202
 6416SOL    HW121255   4.885   7.309   8.673 -1.7214 -0.3581  1.2867
 6416SOL    HW221256   5.015   7.320   8.751  0.2447 -0.7228 -1.7643
 6417SOL     OW21257   0.207   2.458   2.085 -0.3651 -0.1398  0.3278
 6417SOL    HW121258   0.300   2.468   2.064 -0.5616 -1.4132 -1.3323
 6417SOL    HW221259   0.172   2.547   2.082  0.8340  0.3855  1.2428
 6418SOL     OW21260   3.358   0.095   8.706 -0.1678 -0.2118 -0.4691
 6418SOL    HW121261   3.438   0.074   8.658  1.6513  0.3061  2.1265
 6418SOL    HW221262   3.321   0.170   8.659  1.3995  0.1384 -1.2119
 6419SOL     OW21263  10.274   1.378   1.458 -0.4214  0.0056 -0.1281
 6419SOL    HW121264  10.323   1.424   1.526 -0.0218  2.6008 -2.0130
 6419SOL    HW221265  10.335   1.374   1.384 -1.4496 -1.0570 -0.9435
 6420SOL     OW21266   0.972  10.244   4.535  0.4310  0.5267 -0.1271
 6420SOL    HW121267   0.940  10.156   4.513  1.3599  0.2496 -0.4085
 6420SOL    HW221268   0.933  10.263   4.620  1.1102 -0.6366  0.4731
 6421SOL     OW21269   9.919  10.560   0.061  0.2335  0.4004 -0.9536
 6421SOL    HW121270   9.907  10.654   0.051  0.0889  0.3957 -0.8272
 6421SOL    HW221271   9.924  10.526  -0.028  0.3628  0.5382 -0.9979
 6422SOL     OW21272   5.225  10.359   7.087  0.3097  0.4193 -0.3826
 6422SOL    HW121273   5.151  10.307   7.119  0.8079  0.0219  0.1198
 6422SOL    HW221274   5.241  10.326   6.998 -0.9751  1.4236 -1.0305
 6423SOL     OW21275   8.525   8.363   6.462 -0.4081 -0.3273  0.1879
 6423SOL    HW121276   8.474   8.439   6.486 -1.8278 -1.4219  0.7761
 6423SOL    HW221277   8.583   8.347   6.536 -1.0431 -0.5799  0.6362
 6424SOL     OW21278   3.079   1.503   2.927  0.6128  0.2319  0.2523
 6424SOL    HW121279   3.086   1.534   2.837  0.5013 -0.3050  0.0507
 6424SOL    HW221280   3.092   1.581   2.981  1.4541  0.4283 -0.2104
 6425SOL     OW21281   2.740   0.700   1.884 -0.2269 -0.2796  0.1009
 6425SOL    HW121282   2.710   0.643   1.814  1.1195 -0.8707 -0.0284
 6425SOL    HW221283   2.798   0.645   1.937  1.3334  1.0030 -0.1916
 6426SOL     OW21284   0.560   4.074  10.628 -0.1577 -0.1552 -0.4550
 6426SOL    HW121285   0.595   4.113  10.548 -2.3222  0.6934 -1.0886
 6426SOL    HW221286   0.527   4.149  10.679 -1.1279 -0.8641 -0.0028
 6427SOL     OW21287   0.853   3.374   2.070  0.2682  0.6956 -0.0194
 6427SOL    HW121288   0.834   3.412   1.984 -0.6164  1.0661  0.3277
 6427SOL    HW221289   0.929   3.423   2.102  0.5494  0.6133 -0.5518
 6428SOL     OW21290  10.856   0.644   3.750 -0.0459 -0.5502 -0.1136
 6428SOL    HW121291  10.872   0.587   3.675 -1.1108 -0.4580 -0.4300
 6428SOL    HW221292  10.850   0.585   3.825 -0.1853 -0.7560 -0.2879
 6429SOL     OW21293   1.800   9.601   1.651 -0.7038 -0.0777 -0.0852
 6429SOL    HW121294   1.860   9.667   1.616 -0.2966 -1.2407 -1.6927
 6429SOL    HW221295   1.846   9.562   1.724 -0.9258  1.3310  0.8590
 6430SOL     OW21296   5.208  10.810   0.830  0.0699  0.7073  0.3202
 6430SOL    HW121297   5.153  10.807   0.752  1.8693 -0.4658 -0.9980
 6430SOL    HW221298   5.204  10.722   0.866  2.0330  0.1834 -0.5772
 6431SOL     OW21299   8.245  10.163   8.694  0.6516 -0.3948 -0.4154
 6431SOL    HW121300   8.174  10.226   8.684  1.1055  0.6094  1.9234
 6431SOL    HW221301   8.236  10.104   8.619 -1.7954  0.4905 -0.9181
 6432SOL     OW21302   3.376   1.817   0.488  0.3464 -0.0508 -0.3034
 6432SOL    HW121303   3.288   1.794   0.519  0.3764  0.8825  0.5191
 6432SOL    HW221304   3.375   1.912   0.482  0.5625 -0.1448 -2.5772
 6433SOL     OW21305   8.741   3.289   6.693  0.3959  0.3264 -0.2384
 6433SOL    HW121306   8.692   3.284   6.611 -0.5715  0.6273  0.3025
 6433SOL    HW221307   8.676   3.318   6.757  1.0916 -0.0908  0.6706
 6434SOL     OW21308   2.541   9.086   7.789  0.1712  0.1942  0.9400
 6434SOL    HW121309   2.535   9.099   7.884 -0.3971 -1.0880  1.0980
 6434SOL    HW221310   2.635   9.072   7.773  0.0046 -2.1248  1.7024
 6435SOL     OW21311   9.280   1.155   1.756  0.4815  0.0816 -0.1162
 6435SOL    HW121312   9.308   1.223   1.818  0.4171  0.5831 -0.6310
 6435SOL    HW221313   9.211   1.196   1.705  0.0914 -0.5455 -0.0985
 6436SOL     OW21314   3.658  10.667   3.459 -0.0075  0.7439 -0.1242
 6436SOL    HW121315   3.686  10.725   3.530  2.1386  0.4362 -0.6751
 6436SOL    HW221316   3.670  10.720   3.380  0.7950 -0.0212 -0.5258
 6437SOL     OW21317   7.861   0.980   7.657  0.0361 -0.3225  0.0181
 6437SOL    HW121318   7.797   0.914   7.684  1.2526 -1.6006 -0.0858
 6437SOL    HW221319   7.893   0.949   7.572  0.9456  0.1732  0.1647
 6438SOL     OW21320   2.336   4.587   8.490 -0.3875  0.6675 -0.8636
 6438SOL    HW121321   2.321   4.678   8.516  0.9897  0.7914 -0.4335
 6438SOL    HW221322   2.359   4.542   8.571 -0.3752  0.0958 -1.1815
 6439SOL     OW21323   2.010   4.037   8.942  0.2830  0.0752 -0.3030
 6439SOL    HW121324   1.993   3.944   8.955 -0.6139  0.2911  0.1979
 6439SOL    HW221325   2.098   4.051   8.976 -0.2085 -0.2895  1.1968
 6440SOL     OW21326   5.896   9.352   1.107 -0.4235 -0.6312 -0.2672
 6440SOL    HW121327   5.812   9.341   1.151  0.6028  0.5214  2.1562
 6440SOL    HW221328   5.879   9.329   1.016 -2.6445 -3.4376  0.7100
 6441SOL     OW21329   0.300  10.856  10.648 -0.1149 -0.2920 -0.1061
 6441SOL    HW121330   0.319  10.906  10.728 -1.0243  2.2316 -1.3395
 6441SOL    HW221331   0.380  10.865  10.595 -1.0113  1.8519 -1.2190
 6442SOL     OW21332   9.616   3.363   1.021 -0.3262  0.9889 -0.0693
 6442SOL    HW121333   9.633   3.428   0.953  1.4336  1.3294  0.6465
 6442SOL    HW221334   9.693   3.306   1.019 -1.3988 -0.5088 -0.0192
 6443SOL     OW21335  10.392   2.873   9.349 -1.0145 -0.3173 -0.3291
 6443SOL    HW121336  10.303   2.906   9.366 -0.5289 -0.2451  2.4696
 6443SOL    HW221337  10.446   2.952   9.342 -0.5327 -0.3284  2.2831
 6444SOL     OW21338  10.234  10.452   2.097 -0.3833  0.1521  0.2608
 6444SOL    HW121339  10.188  10.379   2.136 -0.9201  0.4960  0.2817
 6444SOL    HW221340  10.271  10.500   2.171  2.1845 -1.4876  0.1669
 6445SOL     OW21341   2.403   7.578   0.827 -0.0113  0.0985 -0.2127
 6445SOL    HW121342   2.321   7.618   0.857  0.3026  1.1520 -0.6846
 6445SOL    HW221343   2.389   7.484   0.837 -0.0275  0.3215  2.9095
 6446SOL     OW21344   4.257   1.898  10.545 -0.1421  0.0519 -0.6712
 6446SOL    HW121345   4.186   1.865  10.490 -0.3163  0.3450 -0.6266
 6446SOL    HW221346   4.337   1.876  10.498 -0.3255  2.1007 -2.0969
 6447SOL     OW21347   1.555   4.661   4.805 -0.1590  0.0573  0.6257
 6447SOL    HW121348   1.549   4.647   4.710  1.4097 -0.6237  0.5930
 6447SOL    HW221349   1.615   4.735   4.813 -1.6251  1.2413  1.0678
 6448SOL     OW21350   3.276   6.715   0.481  0.4308 -0.3296  0.0280
 6448SOL    HW121351   3.302   6.790   0.535 -0.0881  0.1437 -0.3760
 6448SOL    HW221352   3.314   6.732   0.395  0.5498 -0.6778  0.0059
 6449SOL     OW21353   6.245   8.913   1.310  0.5091 -0.0901 -0.5344
 6449SOL    HW121354   6.186   8.969   1.260  1.7481  1.5935 -0.1838
 6449SOL    HW221355   6.195   8.832   1.323 -1.6962  1.2138 -0.3004
 6450SOL     OW21356   1.772   5.265   3.706 -1.1119  0.2628 -0.1506
 6450SOL    HW121357   1.808   5.176   3.705 -1.2984  0.1460 -2.5126
 6450SOL    HW221358   1.845   5.320   3.733 -0.1019 -0.3421 -1.5032
 6451SOL     OW21359   3.305   6.201   3.320  0.4000 -0.8270  0.1203
 6451SOL    HW121360   3.265   6.118   3.345 -0.4204 -0.3850  0.3007
 6451SOL    HW221361   3.245   6.268   3.352  1.8279 -0.0883  1.3836
 6452SOL     OW21362   0.405   5.227   6.073  0.7361  0.3845  0.5643
 6452SOL    HW121363   0.404   5.270   6.158  0.4416  0.5672  0.4694
 6452SOL    HW221364   0.371   5.293   6.012  0.8822  0.2330  0.3157
 6453SOL     OW21365   6.140  10.789   2.974 -0.1614  0.0912 -0.3459
 6453SOL    HW121366   6.062  10.842   2.962  0.8780  1.6884 -0.3283
 6453SOL    HW221367   6.172  10.773   2.885 -0.4336 -0.4598 -0.3481
 6454SOL     OW21368   3.913   9.500   9.698  0.1814  0.2855  0.4098
 6454SOL    HW121369   3.999   9.464   9.679 -1.4323 -2.3382 -3.0027
 6454SOL    HW221370   3.916   9.589   9.661  1.4740  0.3829  0.6946
 6455SOL     OW21371   8.806   9.866   9.482 -0.6052 -0.5625 -0.3359
 6455SOL    HW121372   8.739   9.889   9.545  0.4068  0.9073  0.2699
 6455SOL    HW221373   8.858   9.798   9.525  0.2900  0.6729  0.6283
 6456SOL     OW21374   0.239   2.506   8.600 -0.4959 -0.1170  0.4594
 6456SOL    HW121375   0.180   2.550   8.539 -1.2773 -1.1684  0.4331
 6456SOL    HW221376   0.264   2.426   8.555 -0.9607 -0.8296  1.4413
 6457SOL     OW21377   6.136  10.602   7.018 -0.5670 -0.4757 -0.0529
 6457SOL    HW121378   6.072  10.551   7.068 -1.0912 -0.5247 -0.7569
 6457SOL    HW221379   6.211  10.543   7.009  0.0628 -0.0059  1.7622
 6458SOL     OW21380   1.656   1.120   1.366  0.0957  0.2261 -0.4366
 6458SOL    HW121381   1.582   1.129   1.426  0.2978  1.8201 -0.3860
 6458SOL    HW221382   1.693   1.208   1.359  1.6759 -0.4283 -0.8809
 6459SOL     OW21383   9.621   9.607   2.989  0.1026 -0.2930 -0.2416
 6459SOL    HW121384   9.639   9.613   3.083  0.0805  1.1041 -0.3040
 6459SOL    HW221385   9.619   9.698   2.960  0.0444 -0.7122 -1.5899
 6460SOL     OW21386   1.582  10.155   2.816  0.0207  0.2120  0.1310
 6460SOL    HW121387   1.568  10.103   2.736  1.5011  0.2781 -0.2002
 6460SOL    HW221388   1.651  10.216   2.793 -0.1614  0.8510  1.2095
 6461SOL     OW21389   4.800   1.697   4.507  0.0307  0.1429 -0.0918
 6461SOL    HW121390   4.806   1.717   4.414  0.3387 -0.1408 -0.1336
 6461SOL    HW221391   4.891   1.698   4.538  0.0413 -0.9518 -0.0459
 6462SOL     OW21392   8.919   5.143   5.851 -0.1528 -0.2175 -0.5675
 6462SOL    HW121393   8.850   5.183   5.798 -0.5385  0.7514  0.6196
 6462SOL    HW221394   8.872   5.085   5.911 -0.1251  1.5354  1.2178
 6463SOL     OW21395   7.316   3.718   2.389 -0.0950 -0.0202  0.6245
 6463SOL    HW121396   7.358   3.762   2.315 -0.5367 -2.0313 -0.9098
 6463SOL    HW221397   7.371   3.740   2.464  1.7413  0.2100 -0.7018
 6464SOL     OW21398  10.630   4.796   3.223  0.2043  0.1379 -0.0050
 6464SOL    HW121399  10.641   4.873   3.279 -0.1918  0.2795 -0.1193
 6464SOL    HW221400  10.695   4.807   3.153 -0.0095  0.4790 -0.1472
 6465SOL     OW21401   4.513   1.540   1.525 -0.1884  0.0885  0.1891
 6465SOL    HW121402   4.553   1.606   1.470 -0.7449 -0.3979 -0.8260
 6465SOL    HW221403   4.587   1.491   1.562  0.2252  1.2327  0.9328
 6466SOL     OW21404   2.798   0.456   3.252 -0.1349  0.6278  0.1202
 6466SOL    HW121405   2.768   0.498   3.332  0.3255  0.4299  0.3943
 6466SOL    HW221406   2.776   0.519   3.183  0.4860  1.2941  0.5190
 6467SOL     OW21407   2.235   0.330   6.955  0.2819 -0.2170 -0.2290
 6467SOL    HW121408   2.259   0.343   6.863  1.5954  0.9517  0.2257
 6467SOL    HW221409   2.301   0.269   6.988  1.6226  1.5344  0.5659
 6468SOL     OW21410   1.144  10.520   2.239 -0.1953  0.2454  0.4259
 6468SOL    HW121411   1.070  10.492   2.293 -0.5993 -0.2897 -0.3791
 6468SOL    HW221412   1.134  10.470   2.157  1.1813  0.0123  0.3880
 6469SOL     OW21413   4.079  10.686   2.373 -0.2466  0.5058  0.0217
 6469SOL    HW121414   4.135  10.640   2.310 -0.5112  0.3989 -0.1375
 6469SOL    HW221415   4.019  10.736   2.318 -2.3169 -1.7180  0.1264
 6470SOL     OW21416   0.740  10.858   0.250  0.4140  0.0489  0.3483
 6470SOL    HW121417   0.761  10.948   0.228  0.8106 -0.5087 -1.6984
 6470SOL    HW221418   0.645  10.858   0.264  0.5171  0.9006  1.1761
 6471SOL     OW21419  10.945   8.662   6.671 -0.0595 -0.2012  0.6866
 6471SOL    HW121420  10.888   8.707   6.609  1.2622  0.8876  0.2185
 6471SOL    HW221421  10.966   8.728   6.738  2.4670  0.1992 -0.3862
 6472SOL     OW21422   1.913   1.762   1.118  0.0996 -0.1738 -0.0496
 6472SOL    HW121423   1.866   1.838   1.152  0.4152 -0.2237  0.5002
 6472SOL    HW221424   1.844   1.705   1.084 -0.3235 -0.6290  1.5037
 6473SOL     OW21425   7.776   5.787  10.948 -0.0822  0.2977 -0.7719
 6473SOL    HW121426   7.681   5.795  10.944 -0.3278 -0.4467  1.6829
 6473SOL    HW221427   7.805   5.861  11.000  0.2589 -1.1205  1.1963
 6474SOL     OW21428   4.520   3.980   3.402  0.1473  0.0245  0.1669
 6474SOL    HW121429   4.446   4.019   3.447  0.8666  0.2709  1.1655
 6474SOL    HW221430   4.560   3.921   3.466  0.8658 -0.0399 -0.3216
 6475SOL     OW21431   2.703   1.308   6.845  0.6613 -0.0206  0.3901
 6475SOL    HW121432   2.674   1.315   6.936 -0.6781  1.5397 -0.1157
 6475SOL    HW221433   2.741   1.394   6.825  0.9603 -0.3538 -0.5312
 6476SOL     OW21434  10.110   9.620  10.882  0.3924  0.0733  0.5807
 6476SOL    HW121435  10.150   9.630  10.796 -0.3489 -1.3297  0.0467
 6476SOL    HW221436  10.108   9.709  10.918  0.6920  0.6802 -0.8452
 6477SOL     OW21437   3.242   4.073   1.331  0.1371 -0.2361 -0.1306
 6477SOL    HW121438   3.305   4.120   1.386  0.3748 -1.6676  0.8777
 6477SOL    HW221439   3.295   4.006   1.288 -0.4397 -0.4693 -0.4802
 6478SOL     OW21440   9.229   6.110   3.618  0.0745  0.4073 -0.1242
 6478SOL    HW121441   9.147   6.146   3.652  0.2652 -0.2443  1.0961
 6478SOL    HW221442   9.208   6.019   3.597  0.3852  0.3441 -0.1665
 6479SOL     OW21443   0.875   7.666   3.090  0.2634  0.1046  0.7505
 6479SOL    HW121444   0.874   7.752   3.132  1.5976 -0.1911  1.4490
 6479SOL    HW221445   0.896   7.684   2.999  5.7181  0.3556  1.7118
 6480SOL     OW21446   7.443   3.871   2.173  0.0561 -0.2264 -0.7220
 6480SOL    HW121447   7.534   3.862   2.146 -0.0046 -0.4158 -0.8622
 6480SOL    HW221448   7.405   3.932   2.109  0.3872  0.8177  0.0406
 6481SOL     OW21449   2.540   8.245   1.501 -0.4879  0.0911  0.1330
 6481SOL    HW121450   2.622   8.289   1.477  0.4203 -1.2852  0.5830
 6481SOL    HW221451   2.478   8.316   1.514  0.2862  1.1226 -1.4521
 6482SOL     OW21452   0.554   6.097   8.465 -0.1366  0.0480 -0.1163
 6482SOL    HW121453   0.590   6.026   8.412  0.6663 -0.0568  0.5536
 6482SOL    HW221454   0.480   6.129   8.414  0.0347 -0.6780 -0.8492
 6483SOL     OW21455   9.133  10.441   9.144 -0.0403  0.2844  0.1606
 6483SOL    HW121456   9.163  10.457   9.054 -1.1161  0.4286 -0.1893
 6483SOL    HW221457   9.066  10.507   9.159  1.5093  1.5810  1.8192
 6484SOL     OW21458   1.987   5.987   2.398 -0.0234  0.0181  0.4524
 6484SOL    HW121459   2.010   5.908   2.447 -0.8320  0.9150  2.3741
 6484SOL    HW221460   1.897   5.973   2.369 -0.0792  0.1210  0.5743
 6485SOL     OW21461  10.511   6.553   0.305  0.5293 -0.7899 -0.7189
 6485SOL    HW121462  10.493   6.627   0.363 -0.0980 -0.8842 -0.7868
 6485SOL    HW221463  10.539   6.483   0.364  1.4797 -0.3972 -0.6874
 6486SOL     OW21464   0.941   6.786   4.369  0.3759  0.0001 -0.4735
 6486SOL    HW121465   0.867   6.728   4.350  1.2448 -1.2319 -0.2108
 6486SOL    HW221466   0.911   6.839   4.444  0.0637 -1.0990  0.2040
 6487SOL     OW21467  10.728   9.558   9.583 -0.2795  0.2701  0.3177
 6487SOL    HW121468  10.638   9.581   9.561 -0.3399 -0.2095  0.0395
 6487SOL    HW221469  10.779   9.636   9.562 -0.6381  0.5699  0.5453
 6488SOL     OW21470   7.298   4.579   2.533 -0.1835  0.5122  0.0128
 6488SOL    HW121471   7.318   4.648   2.470 -1.7913 -0.5480 -1.7643
 6488SOL    HW221472   7.381   4.533   2.545  0.9239  2.6792  1.2509
 6489SOL     OW21473   8.743   2.562   5.841 -0.0280 -0.0691  0.2686
 6489SOL    HW121474   8.836   2.557   5.819 -0.6472 -0.8418 -2.6685
 6489SOL    HW221475   8.716   2.648   5.809 -0.4737 -0.1325  0.4751
 6490SOL     OW21476   1.012   7.616   5.910  0.0319 -0.4781 -0.4899
 6490SOL    HW121477   0.981   7.695   5.955 -0.4733 -0.8505 -0.1726
 6490SOL    HW221478   0.986   7.544   5.967  1.4575 -0.8167 -0.2491
 6491SOL     OW21479   0.349  10.586   7.736  0.2992 -0.0963  0.3312
 6491SOL    HW121480   0.435  10.545   7.734  0.4536  0.1915  0.7412
 6491SOL    HW221481   0.367  10.678   7.759 -0.2491 -0.4601  2.4174
 6492SOL     OW21482   0.825   1.618   0.554  0.3011  0.0052 -0.9304
 6492SOL    HW121483   0.736   1.649   0.573 -0.1550 -0.6531 -1.8731
 6492SOL    HW221484   0.882   1.685   0.592 -0.5296 -0.4845  1.3614
 6493SOL     OW21485   2.683   2.407   0.139 -0.3189  0.6037 -0.2827
 6493SOL    HW121486   2.698   2.486   0.192 -0.9237 -0.2897  1.2951
 6493SOL    HW221487   2.712   2.335   0.195 -1.3161 -0.4176 -1.0368
 6494SOL     OW21488   7.059   2.590   3.714 -0.3779  0.4213 -0.1695
 6494SOL    HW121489   7.145   2.632   3.715  0.2284 -0.7858 -0.0787
 6494SOL    HW221490   7.055   2.540   3.795 -1.1477  0.3987 -0.2083
 6495SOL     OW21491  10.639   7.025   3.441 -0.1262  0.3151 -0.0977
 6495SOL    HW121492  10.644   7.056   3.351  1.2817 -1.5636 -0.7261
 6495SOL    HW221493  10.592   6.942   3.437  1.9359 -0.9534  0.4949
 6496SOL     OW21494   5.317   3.124   1.883  0.2144  0.1283 -0.4642
 6496SOL    HW121495   5.365   3.100   1.963  0.6725  0.3793 -0.6618
 6496SOL    HW221496   5.232   3.155   1.915 -0.0248 -0.8332 -0.1445
 6497SOL     OW21497   5.997   1.781   3.862 -0.0252 -0.5773 -0.2062
 6497SOL    HW121498   5.910   1.750   3.886  0.3279 -1.7059 -0.3241
 6497SOL    HW221499   6.014   1.741   3.777  0.6625 -0.4716 -0.1252
 6498SOL     OW21500   6.193   7.819   1.100 -0.3654 -0.0207 -0.2829
 6498SOL    HW121501   6.267   7.872   1.131 -0.0195  0.1208 -1.2963
 6498SOL    HW221502   6.181   7.752   1.167  0.0564  0.5503  0.3683
 6499SOL     OW21503  11.094   2.378   1.126 -0.3100  0.6052 -0.3160
 6499SOL    HW121504  11.183   2.395   1.158 -0.8361  1.1199  0.9389
 6499SOL    HW221505  11.069   2.459   1.080 -0.5475  0.9203  0.3504
 6500SOL     OW21506   9.057  10.247  10.691 -0.3879 -0.0486 -0.4124
 6500SOL    HW121507   8.973  10.280  10.723 -0.3638 -0.5618  0.2161
 6500SOL    HW221508   9.073  10.169  10.744 -0.2862 -0.8870 -1.6304
 6501SOL     OW21509   2.385   1.490   1.002  0.3308 -0.4256  0.7195
 6501SOL    HW121510   2.338   1.456   1.078  0.0146 -0.4904  0.4969
 6501SOL    HW221511   2.366   1.428   0.932  0.2905 -0.1494  0.4830
 6502SOL     OW21512   6.932   9.643   4.473 -0.2702  0.2282  0.1580
 6502SOL    HW121513   6.907   9.627   4.382  0.4796 -1.2019  0.1783
 6502SOL    HW221514   6.947   9.737   4.478 -2.0470  0.6046 -0.7418
 6503SOL     OW21515   5.941   8.179   2.876  0.2159 -0.0833  0.4632
 6503SOL    HW121516   6.010   8.140   2.822  0.3216 -0.6713  1.0103
 6503SOL    HW221517   5.979   8.261   2.909 -0.2718  0.9104 -1.3024
 6504SOL     OW21518   0.746   9.860   4.915  0.9021 -0.3989 -0.1074
 6504SOL    HW121519   0.831   9.817   4.927  1.5617  0.7028 -0.6660
 6504SOL    HW221520   0.754   9.943   4.962  0.7887  0.5053 -1.6210
 6505SOL     OW21521   9.675   0.626   9.214 -0.0059  0.1996 -0.4531
 6505SOL    HW121522   9.588   0.629   9.254 -0.1975 -0.9601 -0.7507
 6505SOL    HW221523   9.733   0.657   9.283 -0.7046  1.5107 -0.4323
 6506SOL     OW21524   3.785   1.899   8.547  0.5067 -0.5370 -0.2978
 6506SOL    HW121525   3.879   1.880   8.539  0.8209  1.2288 -1.2846
 6506SOL    HW221526   3.757   1.923   8.459  0.0665  2.7516  0.6167
 6507SOL     OW21527   9.662   9.220  10.690 -0.2621  0.0625  0.3646
 6507SOL    HW121528   9.747   9.181  10.711 -0.5544 -0.4160  0.6691
 6507SOL    HW221529   9.658   9.299  10.744 -0.6618 -0.7287  1.5098
 6508SOL     OW21530   5.753   2.842   9.324 -0.8731 -0.5981  0.0116
 6508SOL    HW121531   5.743   2.751   9.297 -0.9540 -1.0513  1.4773
 6508SOL    HW221532   5.668   2.882   9.305 -0.1024 -0.0955 -3.0115
 6509SOL     OW21533   1.598   6.161   3.510  0.0183 -0.2571 -0.3139
 6509SOL    HW121534   1.641   6.092   3.460 -0.2532 -0.5790 -0.1090
 6509SOL    HW221535   1.618   6.140   3.601 -0.4340 -0.3194 -0.2268
 6510SOL     OW21536   4.717  10.553   8.922 -0.3294  0.1937 -0.4754
 6510SOL    HW121537   4.738  10.461   8.905  1.6605 -0.2087  3.1368
 6510SOL    HW221538   4.674  10.552   9.007  1.0380  2.6484  0.3510
 6511SOL     OW21539   3.566   9.599   9.065  0.3100 -0.2698  0.5429
 6511SOL    HW121540   3.596   9.544   9.138  0.6710 -1.0061 -0.1445
 6511SOL    HW221541   3.547   9.684   9.105 -0.8893 -1.0673  1.7475
 6512SOL     OW21542   0.732   6.442   8.323 -0.9696  0.6056  0.1011
 6512SOL    HW121543   0.737   6.388   8.401  1.3980  0.4579 -0.0903
 6512SOL    HW221544   0.709   6.381   8.253  1.0132 -0.1083  0.0084
 6513SOL     OW21545   3.043   1.527   1.532  0.0666 -0.3652  0.0269
 6513SOL    HW121546   3.081   1.576   1.459  0.4760  0.4719  0.7648
 6513SOL    HW221547   2.997   1.454   1.492  2.8315 -1.7387 -0.9489
 6514SOL     OW21548   2.207   5.209   0.034  0.4329 -1.1576 -0.3540
 6514SOL    HW121549   2.265   5.223  -0.040  0.3913  0.2309 -0.1602
 6514SOL    HW221550   2.236   5.274   0.099 -1.7377  0.0618 -0.5205
 6515SOL     OW21551   4.278   3.355   5.420  0.2865 -0.2959  0.0487
 6515SOL    HW121552   4.374   3.354   5.424  0.2694 -0.9455  0.5147
 6515SOL    HW221553   4.256   3.285   5.359  0.1184  0.3077 -0.6000
 6516SOL     OW21554   2.777   1.536   2.304 -0.4400 -0.0065  0.4541
 6516SOL    HW121555   2.789   1.442   2.312  1.1345  0.0433 -0.8346
 6516SOL    HW221556   2.783   1.569   2.393 -0.9868 -1.0991  0.9160
 6517SOL     OW21557   2.117   8.809   0.294  0.3837  0.0656  0.1749
 6517SOL    HW121558   2.154   8.896   0.281 -0.2265  0.4611  0.9824
 6517SOL    HW221559   2.109   8.772   0.206  0.1763  1.0195 -0.2136
 6518SOL     OW21560   3.517   4.590   2.560 -0.0856 -0.1115 -0.0320
 6518SOL    HW121561   3.483   4.679   2.570 -3.8317 -1.3446  0.0211
 6518SOL    HW221562   3.497   4.567   2.470  1.3744 -0.7470 -0.2120
 6519SOL     OW21563   3.127   8.117   1.369  0.2210  0.3563  0.2146
 6519SOL    HW121564   3.104   8.083   1.456  2.4009 -0.2678  0.5913
 6519SOL    HW221565   3.196   8.181   1.386  1.1799 -0.2998 -1.1160
 6520SOL     OW21566   0.799  10.065   4.291  0.0123  0.0143  0.1618
 6520SOL    HW121567   0.774   9.995   4.231 -0.1342  1.9596 -2.2509
 6520SOL    HW221568   0.880  10.101   4.254  0.0614  1.1473  1.2841
 6521SOL     OW21569   2.983   7.501  10.901 -0.4845  0.0727  0.4167
 6521SOL    HW121570   3.059   7.451  10.872  0.2764  2.1147 -1.2978
 6521SOL    HW221571   3.008   7.536  10.987  0.0569 -0.1616  0.3557
 6522SOL     OW21572   4.639   6.611   2.990  0.0722 -0.3872  0.1853
 6522SOL    HW121573   4.715   6.561   2.960  2.3918  0.8227  3.4444
 6522SOL    HW221574   4.591   6.550   3.045  0.5392 -0.2757  0.7311
 6523SOL     OW21575   0.947   8.677   7.225  0.7085  0.2784  1.1470
 6523SOL    HW121576   0.964   8.757   7.275 -0.0566 -0.7027  3.0669
 6523SOL    HW221577   0.852   8.670   7.222  0.7507  0.0644 -0.0873
 6524SOL     OW21578   0.868   7.784   1.805 -0.6521  0.1033  0.0635
 6524SOL    HW121579   0.947   7.828   1.772 -0.5453 -0.1883 -0.0633
 6524SOL    HW221580   0.869   7.804   1.899  0.9605 -1.9890  0.5811
 6525SOL     OW21581   5.496   8.068   9.974  0.1102 -0.1738  0.3546
 6525SOL    HW121582   5.563   8.082  10.041  0.7804  0.2651 -0.3909
 6525SOL    HW221583   5.415   8.100  10.013  0.9154  2.3439  0.0962
 6526SOL     OW21584  10.522   2.356   4.756  0.4538 -0.3076  0.1200
 6526SOL    HW121585  10.462   2.407   4.810  0.4960 -0.1750  0.0404
 6526SOL    HW221586  10.601   2.349   4.809 -0.2255 -2.0221  1.0243
 6527SOL     OW21587   4.320   8.145   4.780  0.0295 -0.3427  0.0808
 6527SOL    HW121588   4.369   8.223   4.753  0.2495 -0.8959 -1.1726
 6527SOL    HW221589   4.289   8.166   4.868 -0.3593  1.3646 -0.4272
 6528SOL     OW21590   1.365   7.316   4.913  0.5824  0.0440  0.8091
 6528SOL    HW121591   1.422   7.337   4.839  0.2534 -0.1909  0.4839
 6528SOL    HW221592   1.361   7.397   4.964 -0.3185  0.6511 -0.1852
 6529SOL     OW21593   3.160   0.953   0.321 -0.3719 -0.1772 -0.1837
 6529SOL    HW121594   3.148   1.028   0.263  0.5244  0.3069  0.2418
 6529SOL    HW221595   3.248   0.922   0.302 -0.2350 -0.2889  0.6038
 6530SOL     OW21596  10.418   9.605   2.147  0.2950 -0.1778 -0.4018
 6530SOL    HW121597  10.351   9.539   2.163  0.8620 -0.7803 -0.4725
 6530SOL    HW221598  10.491   9.556   2.110  0.9311  0.4118  0.0637
 6531SOL     OW21599   2.008   3.902   4.104 -0.0073 -0.1774  0.1232
 6531SOL    HW121600   2.056   3.822   4.084  1.2787  0.1215  1.8518
 6531SOL    HW221601   2.076   3.968   4.121 -1.0139  1.4564 -1.7147
 6532SOL     OW21602   9.710   9.821   3.423 -0.2794 -0.1074  0.0312
 6532SOL    HW121603   9.643   9.888   3.409 -0.7288  0.3640  3.5381
 6532SOL    HW221604   9.793   9.867   3.410 -0.6139  0.3726 -0.4420
 6533SOL     OW21605   5.607   7.542   2.817 -0.2653  0.3954  0.0005
 6533SOL    HW121606   5.555   7.532   2.897 -0.2304 -1.8515 -0.1820
 6533SOL    HW221607   5.694   7.568   2.847 -0.3275 -0.1642  0.6912
 6534SOL     OW21608   0.053   6.512   8.274 -0.0834 -0.2287 -0.0630
 6534SOL    HW121609  -0.020   6.451   8.263 -1.4370  1.0315  1.3625
 6534SOL    HW221610   0.044   6.574   8.202 -0.5953  0.0519  0.2320
 6535SOL     OW21611   7.116  10.606   7.138  0.1906  0.1184 -0.5534
 6535SOL    HW121612   7.151  10.695   7.144 -0.4143  0.3276 -0.1286
 6535SOL    HW221613   7.025  10.617   7.110  0.0791 -0.3646 -0.3890
 6536SOL     OW21614   2.099   0.751   7.405 -0.1577 -0.4468 -0.0901
 6536SOL    HW121615   2.015   0.793   7.387 -0.4571 -0.6907  0.6775
 6536SOL    HW221616   2.083   0.658   7.390  0.0323 -0.4732 -0.1360
 6537SOL     OW21617  10.749   4.168   0.948 -0.1420  0.0925 -0.2029
 6537SOL    HW121618  10.810   4.234   0.917 -0.3848  0.5236  0.2164
 6537SOL    HW221619  10.802   4.110   1.003 -0.4127  1.5233  1.6996
 6538SOL     OW21620   1.929   0.377   5.977  0.1776  0.2720  0.3521
 6538SOL    HW121621   1.890   0.462   5.956 -1.3988 -0.6146 -0.4987
 6538SOL    HW221622   2.022   0.396   5.991 -0.1631  2.1463  0.3564
 6539SOL     OW21623   2.154   5.569   8.116  0.1387 -0.5759  0.0732
 6539SOL    HW121624   2.144   5.487   8.069  1.4572 -1.1841  0.7769
 6539SOL    HW221625   2.168   5.543   8.207  0.1180  0.4413  0.3849
 6540SOL     OW21626   1.529   2.457   7.371 -0.3912 -0.2146  0.2711
 6540SOL    HW121627   1.518   2.389   7.304 -2.3543  0.3487 -0.0563
 6540SOL    HW221628   1.572   2.412   7.443 -2.4124 -2.1000  0.4151
 6541SOL     OW21629   2.227   8.456   4.000  0.5093  0.3980  0.1122
 6541SOL    HW121630   2.191   8.529   3.950 -0.7771  0.0986  0.5701
 6541SOL    HW221631   2.286   8.497   4.064 -0.6683  1.1012  0.7671
 6542SOL     OW21632   0.031   9.150   6.187 -0.0868 -0.0963  0.5193
 6542SOL    HW121633   0.066   9.098   6.115  1.4310 -2.0245  2.5001
 6542SOL    HW221634  -0.062   9.161   6.167  0.1305 -1.2787 -1.3000
 6543SOL     OW21635  10.899   7.178   7.299  0.3226 -0.2388  0.3170
 6543SOL    HW121636  10.953   7.099   7.292  1.0612  0.3537 -1.2823
 6543SOL    HW221637  10.949   7.244   7.250 -1.5980  0.4769 -0.7600
 6544SOL     OW21638   9.338   4.277   6.684 -0.6843  0.0341 -0.3462
 6544SOL    HW121639   9.400   4.279   6.611  0.5828 -1.9073  0.5581
 6544SOL    HW221640   9.257   4.243   6.647 -0.0852 -0.8336 -0.8891
 6545SOL     OW21641   8.661   2.097   1.860 -0.2881 -0.2167  0.4548
 6545SOL    HW121642   8.666   2.076   1.953 -0.9887 -0.4142  0.4510
 6545SOL    HW221643   8.656   2.011   1.817  0.3242 -0.1363  0.2146
 6546SOL     OW21644   3.662   8.594   4.806 -0.5302  0.1573 -0.0956
 6546SOL    HW121645   3.574   8.581   4.770 -0.4624 -0.8418  0.0750
 6546SOL    HW221646   3.665   8.537   4.883  0.1122  0.5322  0.1643
 6547SOL     OW21647   0.142   2.004   5.122  0.3010 -0.2900  0.4570
 6547SOL    HW121648   0.191   2.054   5.188 -0.9247  0.5827  0.7382
 6547SOL    HW221649   0.055   1.992   5.161 -0.6526  0.7869 -1.2303
 6548SOL     OW21650   5.141   4.867   8.537  0.0098  0.6999  0.5400
 6548SOL    HW121651   5.138   4.772   8.547 -1.5234  0.6045 -0.5122
 6548SOL    HW221652   5.222   4.893   8.579  2.4015 -1.4807 -2.2833
 6549SOL     OW21653   5.692   8.764   7.900 -0.5307  0.2296  0.3953
 6549SOL    HW121654   5.634   8.829   7.861 -0.3703 -0.1733 -0.5407
 6549SOL    HW221655   5.774   8.773   7.852 -0.8870 -1.4792 -0.6099
 6550SOL     OW21656   2.224   0.255   1.794  0.3549  0.1205 -0.1650
 6550SOL    HW121657   2.146   0.295   1.833  0.4313  0.0502  0.0663
 6550SOL    HW221658   2.238   0.303   1.713 -0.2615 -0.2528 -0.4920
 6551SOL     OW21659   2.052   8.611   2.585  0.1666  0.0874  0.1488
 6551SOL    HW121660   2.027   8.682   2.644 -0.7930  1.6488 -2.0339
 6551SOL    HW221661   2.123   8.646   2.533 -1.5317  0.2182 -2.2242
 6552SOL     OW21662   8.181   4.670   9.268 -0.5886  0.4460  0.0874
 6552SOL    HW121663   8.101   4.675   9.216 -1.6723 -1.7135  1.3975
 6552SOL    HW221664   8.192   4.757   9.304 -2.6303  0.6804  0.2293
 6553SOL     OW21665   2.009   1.828   1.455 -0.6486  0.3391  0.5697
 6553SOL    HW121666   2.079   1.792   1.401 -0.6503 -1.6204  1.7688
 6553SOL    HW221667   1.950   1.871   1.393 -0.9261 -2.2259 -1.0840
 6554SOL     OW21668   8.695   9.818   9.232  0.2105 -0.2700 -0.0074
 6554SOL    HW121669   8.748   9.815   9.312 -1.3737 -3.0767  1.0578
 6554SOL    HW221670   8.738   9.757   9.173  1.1990  1.5672 -1.2998
 6555SOL     OW21671   4.601   1.440   7.516  0.3822 -0.2786  0.0208
 6555SOL    HW121672   4.565   1.366   7.565  0.6226 -0.1695  0.3596
 6555SOL    HW221673   4.646   1.493   7.581  0.7410 -0.1576 -0.3222
 6556SOL     OW21674   8.995   0.526   5.207  0.2143  0.0522 -0.4553
 6556SOL    HW121675   8.921   0.467   5.192 -0.5011  0.5489  0.9984
 6556SOL    HW221676   9.042   0.487   5.280  1.5946 -0.4107 -1.5414
 6557SOL     OW21677   7.810  10.204   6.677  0.3977  0.1192  0.0088
 6557SOL    HW121678   7.825  10.261   6.601 -1.2465  0.1211 -0.3368
 6557SOL    HW221679   7.821  10.263   6.752 -1.4953  1.0067 -0.3500
 6558SOL     OW21680   3.472   6.954   4.925  0.1268 -0.3213  0.3428
 6558SOL    HW121681   3.435   7.009   4.994  0.3753 -0.4129  0.5511
 6558SOL    HW221682   3.486   7.013   4.851  0.1765 -0.1527  0.4865
 6559SOL     OW21683   8.340   0.451  10.769 -0.9125  0.0432 -0.4900
 6559SOL    HW121684   8.429   0.470  10.797 -1.0465  1.5021 -0.9894
 6559SOL    HW221685   8.346   0.365  10.727 -0.5299 -1.8422  3.0270
 6560SOL     OW21686   7.523   5.546   8.374  0.2378  0.8082  0.0518
 6560SOL    HW121687   7.443   5.576   8.330 -0.4709  0.6316  1.1682
 6560SOL    HW221688   7.491   5.496   8.450  1.3982 -0.2109 -0.0871
 6561SOL     OW21689   4.744  10.940   2.013  0.2662  0.0026  0.1090
 6561SOL    HW121690   4.714  10.962   2.101  1.0071 -2.2477  0.9689
 6561SOL    HW221691   4.828  10.985   2.004 -0.5312  1.5384 -0.1110
 6562SOL     OW21692   7.868   9.331   3.163  0.3269  0.9968  0.5333
 6562SOL    HW121693   7.826   9.274   3.228  0.3114  2.0886  1.5016
 6562SOL    HW221694   7.950   9.286   3.141 -0.0818  0.1788  0.6305
 6563SOL     OW21695   5.585   5.524   3.692  0.1972  0.4204  0.4129
 6563SOL    HW121696   5.639   5.474   3.631 -1.5829  0.2748 -1.1161
 6563SOL    HW221697   5.593   5.615   3.662  0.4186  0.5438  0.8389
 6564SOL     OW21698   3.305   1.410   0.226 -0.5138  0.2383  0.4155
 6564SOL    HW121699   3.367   1.475   0.259 -0.0045 -1.4928  3.2194
 6564SOL    HW221700   3.357   1.355   0.167 -0.3286  0.8675 -0.0242
 6565SOL     OW21701  10.644  10.170   0.553  0.1802 -0.0563 -0.1957
 6565SOL    HW121702  10.595  10.131   0.481 -1.1412  0.7804  0.2150
 6565SOL    HW221703  10.672  10.256   0.519 -0.6233  0.4272  0.3409
 6566SOL     OW21704   3.725   9.603  10.870 -0.2772  0.3142 -0.0337
 6566SOL    HW121705   3.648   9.563  10.911 -0.7918  1.8693  0.5872
 6566SOL    HW221706   3.749   9.675  10.929  0.7261  0.8034 -1.0095
 6567SOL     OW21707   8.306  10.644   3.972  0.1950 -0.5523  0.2388
 6567SOL    HW121708   8.284  10.657   3.880  2.3323 -1.6162 -0.4965
 6567SOL    HW221709   8.340  10.728   4.002  0.8251 -0.5868 -0.3696
 6568SOL     OW21710   1.097   2.439   0.402 -0.2679 -0.2054 -0.1370
 6568SOL    HW121711   1.088   2.391   0.484  0.4221 -0.7271 -0.3579
 6568SOL    HW221712   1.190   2.456   0.394 -0.3476 -0.0245 -0.7376
 6569SOL     OW21713   1.154   1.257   0.450 -0.5189 -0.1424 -0.5616
 6569SOL    HW121714   1.238   1.298   0.429  0.1895  0.4085  2.7717
 6569SOL    HW221715   1.172   1.163   0.448 -0.1762 -0.0684 -1.0594
 6570SOL     OW21716   8.370   0.137   3.604  0.2154 -0.2124 -0.0433
 6570SOL    HW121717   8.303   0.149   3.672 -1.0706  1.5173 -1.5179
 6570SOL    HW221718   8.364   0.045   3.580  0.6581 -0.8484  2.1072
 6571SOL     OW21719  11.032  10.368   7.985  0.6391 -0.5266  0.3709
 6571SOL    HW121720  11.037  10.400   7.895 -1.0298  2.0382  1.0870
 6571SOL    HW221721  11.101  10.415   8.031 -0.0753  0.0045  0.9072
 6572SOL     OW21722   6.823   8.060   6.272 -0.1306 -0.6435  0.2085
 6572SOL    HW121723   6.907   8.068   6.317 -0.6249 -1.8501  1.4129
 6572SOL    HW221724   6.758   8.077   6.341 -0.9002  0.7048 -0.8007
 6573SOL     OW21725   5.460   0.028  10.516  0.1754  0.4868  0.0125
 6573SOL    HW121726   5.498  -0.060  10.518 -0.4599  0.1880 -0.6707
 6573SOL    HW221727   5.478   0.064  10.603  1.9288  0.3337 -0.2334
 6574SOL     OW21728   1.171   1.720   4.943 -0.0479  0.0850 -0.4187
 6574SOL    HW121729   1.244   1.777   4.918  0.0175 -0.2228 -0.9446
 6574SOL    HW221730   1.093   1.776   4.934  0.0915  0.3205 -0.1660
 6575SOL     OW21731   9.403  10.944   7.826 -0.1967  0.3352  0.0916
 6575SOL    HW121732   9.367  10.874   7.772  2.5108 -1.3013  0.2247
 6575SOL    HW221733   9.448  11.001   7.763 -0.5281  0.7267  0.2090
 6576SOL     OW21734  10.201   0.151   2.371 -0.3260  0.1210  0.0842
 6576SOL    HW121735  10.163   0.073   2.413 -3.0923  2.0547  1.5267
 6576SOL    HW221736  10.147   0.165   2.293  1.4376 -0.4659 -1.2952
 6577SOL     OW21737   0.364   9.540   7.106 -0.0860  0.3925 -0.4190
 6577SOL    HW121738   0.312   9.483   7.049  0.3163 -0.7029  0.3039
 6577SOL    HW221739   0.299   9.586   7.159 -0.3371 -0.8061  0.3285
 6578SOL     OW21740  10.757   6.456   3.411 -0.1144  0.5156  0.4278
 6578SOL    HW121741  10.788   6.367   3.426 -2.6682 -0.1357  2.6442
 6578SOL    HW221742  10.800   6.508   3.479  1.0281  0.9474 -0.5848
 6579SOL     OW21743   2.364   6.404   4.680  0.1960  0.2518 -0.0043
 6579SOL    HW121744   2.402   6.319   4.702 -0.8260 -0.2784 -0.2050
 6579SOL    HW221745   2.282   6.382   4.635  0.8494  1.3130 -1.8305
 6580SOL     OW21746   9.466  10.929   3.713  0.3365 -0.0310  0.5791
 6580SOL    HW121747   9.523  10.854   3.735  0.6837  0.7715  2.6396
 6580SOL    HW221748   9.526  11.003   3.708 -0.1402  0.2944 -0.4781
 6581SOL     OW21749   9.803   1.201   1.067 -0.1934 -0.9721 -0.0762
 6581SOL    HW121750   9.808   1.116   1.109 -1.4045 -1.1854 -0.3264
 6581SOL    HW221751   9.791   1.181   0.974  0.1477 -0.5308 -0.2163
 6582SOL     OW21752  10.932   6.385   2.901 -0.5742  0.0537  0.2979
 6582SOL    HW121753  11.018   6.355   2.869  0.2357 -0.4093  2.7258
 6582SOL    HW221754  10.916   6.466   2.853  0.0715 -1.0534 -1.9373
 6583SOL     OW21755   8.393   3.567   3.140 -0.8984  0.1334  0.1590
 6583SOL    HW121756   8.471   3.619   3.119  0.4452 -2.0497 -0.7337
 6583SOL    HW221757   8.352   3.613   3.212  2.6345  0.1355  2.4363
 6584SOL     OW21758   0.862   4.522   1.449  0.2901 -0.0155 -0.0989
 6584SOL    HW121759   0.865   4.466   1.527 -0.3958 -1.3697 -1.0048
 6584SOL    HW221760   0.941   4.500   1.400  0.3957  0.3753 -0.1117
 6585SOL     OW21761   5.417   6.475   0.197  0.3875  0.7324  0.0565
 6585SOL    HW121762   5.390   6.539   0.132  1.7580  1.0744 -0.2099
 6585SOL    HW221763   5.411   6.391   0.152  0.5678  0.8909 -0.2684
 6586SOL     OW21764   5.062   6.132   3.644 -0.1097  0.0947  0.6515
 6586SOL    HW121765   5.051   6.078   3.566  0.1987  1.4424 -0.3714
 6586SOL    HW221766   4.974   6.139   3.682 -0.2001 -0.8459  0.6267
 6587SOL     OW21767   4.224  10.489   0.392 -0.4075  0.1830 -0.2954
 6587SOL    HW121768   4.162  10.442   0.336 -2.2732  1.2019  0.8172
 6587SOL    HW221769   4.193  10.579   0.392  1.0595  0.7124  0.3623
 6588SOL     OW21770   4.223   3.356   5.955 -0.0348 -0.0210 -0.2246
 6588SOL    HW121771   4.318   3.359   5.950 -0.0606  2.6498 -0.7020
 6588SOL    HW221772   4.194   3.349   5.865 -0.3563 -2.6645  0.0098
 6589SOL     OW21773   1.603   6.818   1.296 -0.4054  0.0011  0.0392
 6589SOL    HW121774   1.650   6.884   1.346  0.4641 -1.2746  0.9650
 6589SOL    HW221775   1.670   6.777   1.241 -0.9051 -0.1790 -0.4415
 6590SOL     OW21776   5.283  10.400   5.240 -0.3778  0.0150  0.4863
 6590SOL    HW121777   5.344  10.448   5.295  1.1099 -1.9191  0.6149
 6590SOL    HW221778   5.204  10.391   5.293  0.1117  0.3895  1.2947
 6591SOL     OW21779   2.397   8.294   3.845 -0.4941 -0.1851 -0.0351
 6591SOL    HW121780   2.340   8.331   3.912 -0.7216 -1.4987  0.5391
 6591SOL    HW221781   2.342   8.230   3.800 -0.0915  0.0747 -0.9193
 6592SOL     OW21782   1.865   7.463   2.333  0.2864 -0.1992 -0.3293
 6592SOL    HW121783   1.829   7.551   2.343 -2.0779 -1.2686  1.5943
 6592SOL    HW221784   1.927   7.453   2.406 -0.7338 -0.6557  0.5043
 6593SOL     OW21785   8.389   3.802   5.658 -0.2845  0.0791  0.0478
 6593SOL    HW121786   8.470   3.834   5.618 -0.5255  1.0498  0.3105
 6593SOL    HW221787   8.358   3.876   5.711 -0.7488 -0.6758  0.8455
 6594SOL     OW21788   1.875   5.610   2.967  0.0641 -0.2538  0.2894
 6594SOL    HW121789   1.818   5.687   2.965  1.1430  0.5503  0.1304
 6594SOL    HW221790   1.827   5.548   3.023 -1.6161 -0.1342 -0.9368
 6595SOL     OW21791   8.283  10.520   7.314  0.1829  0.3109 -0.0978
 6595SOL    HW121792   8.260  10.427   7.312  0.6500  0.1683  0.7180
 6595SOL    HW221793   8.374  10.522   7.343  1.1858  0.8946 -2.9725
 6596SOL     OW21794   2.086   3.857   5.419 -0.3547  0.0658 -0.5067
 6596SOL    HW121795   2.083   3.936   5.366 -1.3008  0.7936  0.5858
 6596SOL    HW221796   2.162   3.809   5.386  1.6061  2.4501  0.1984
 6597SOL     OW21797   4.581   9.671   1.128  0.2250 -0.0004  0.5570
 6597SOL    HW121798   4.525   9.626   1.064  0.8355  0.3886 -0.2657
 6597SOL    HW221799   4.670   9.659   1.095  0.3372  2.9446 -0.4628
 6598SOL     OW21800   1.552   1.162   1.621 -0.0400 -0.1492 -0.0434
 6598SOL    HW121801   1.497   1.116   1.684 -1.4389 -0.2013 -1.2384
 6598SOL    HW221802   1.549   1.254   1.648  0.4972 -0.3552  0.7380
 6599SOL     OW21803   4.431  10.571   9.223  0.1991  0.3875  0.2176
 6599SOL    HW121804   4.509  10.516   9.214  0.4425  0.6287  0.7813
 6599SOL    HW221805   4.410  10.567   9.317 -0.9790 -0.3627 -0.0630
 6600SOL     OW21806  10.149   4.313   6.603  0.5972 -0.0551 -0.0782
 6600SOL    HW121807  10.224   4.373   6.601  2.0540 -1.7976 -1.6358
 6600SOL    HW221808  10.106   4.325   6.519  0.0713 -0.2126  0.1656
 6601SOL     OW21809   3.834   6.691   4.906 -0.4604 -0.6649 -0.2559
 6601SOL    HW121810   3.783   6.761   4.948  0.4348 -1.3152  2.1234
 6601SOL    HW221811   3.800   6.611   4.946  0.4566 -1.3492 -0.8252
 6602SOL     OW21812   2.789   3.488   4.743  0.1737  0.0455 -0.2848
 6602SOL    HW121813   2.764   3.572   4.781  0.3530 -0.0418  0.0243
 6602SOL    HW221814   2.825   3.512   4.657 -1.0018  0.1645 -0.7603
 6603SOL     OW21815   2.614  10.012   7.357  0.2551  0.1713  0.1617
 6603SOL    HW121816   2.670   9.948   7.313 -1.0013 -1.2504  0.4963
 6603SOL    HW221817   2.565  10.054   7.286 -0.6313 -0.9861  0.0550
 6604SOL     OW21818   5.427   3.206   1.648  0.1389  0.1787 -0.2842
 6604SOL    HW121819   5.484   3.280   1.626  2.5055 -1.0318  1.3030
 6604SOL    HW221820   5.413   3.214   1.742 -1.1790 -0.3836 -0.4117
 6605SOL     OW21821   9.753   1.414   3.202 -0.4983 -0.1578  0.3663
 6605SOL    HW121822   9.770   1.507   3.216 -0.6836 -0.2069  0.9712
 6605SOL    HW221823   9.831   1.381   3.158 -0.1626  0.1574  0.7224
 6606SOL     OW21824   7.722  10.172   2.506 -0.2888 -0.3822 -0.4360
 6606SOL    HW121825   7.807  10.165   2.550 -0.3708  1.5604  0.1433
 6606SOL    HW221826   7.705  10.084   2.472  1.4436 -1.0753  0.3600
 6607SOL     OW21827   0.241   5.356   7.033  0.0152 -0.4758  0.2571
 6607SOL    HW121828   0.253   5.351   6.938  0.5331 -0.2695  0.3092
 6607SOL    HW221829   0.258   5.267   7.063  1.7006 -0.1645  0.3475
 6608SOL     OW21830   0.471   9.960   2.353 -0.0282  0.1870 -0.0642
 6608SOL    HW121831   0.416   9.906   2.296  2.5720 -2.2740 -0.4983
 6608SOL    HW221832   0.447   9.933   2.442 -1.4015  1.1771 -0.1189
 6609SOL     OW21833   3.616   1.778   9.230 -0.2784 -0.2077  0.3826
 6609SOL    HW121834   3.644   1.700   9.278 -0.4792  0.5600  1.7914
 6609SOL    HW221835   3.522   1.764   9.215 -0.5706  0.2878  1.6881
 6610SOL     OW21836   8.249   9.647   1.625 -0.0336 -0.3794  0.7326
 6610SOL    HW121837   8.185   9.650   1.554  2.4128 -2.5106 -1.8019
 6610SOL    HW221838   8.311   9.717   1.605 -0.7655  0.8281  2.4358
 6611SOL     OW21839   8.737   0.972   7.370  0.2050 -0.1644 -0.4130
 6611SOL    HW121840   8.649   1.005   7.349 -0.2234 -1.4532 -0.7444
 6611SOL    HW221841   8.734   0.953   7.464  0.9161  2.0233  0.1124
 6612SOL     OW21842   0.674   7.109   4.379 -0.2114  0.4539 -0.5083
 6612SOL    HW121843   0.726   7.182   4.414 -0.2492  0.4666 -0.4785
 6612SOL    HW221844   0.613   7.087   4.449  0.3715 -0.1815 -0.1842
 6613SOL     OW21845   9.413   1.308   7.769 -0.4625 -0.1618 -0.1789
 6613SOL    HW121846   9.354   1.293   7.842  0.0594 -0.3815  0.2038
 6613SOL    HW221847   9.495   1.338   7.809 -0.1351 -0.3914 -0.6578
 6614SOL     OW21848   0.410   0.625   1.357  0.3337 -0.0701  0.2967
 6614SOL    HW121849   0.372   0.686   1.294 -2.6961  0.7492  2.6949
 6614SOL    HW221850   0.389   0.538   1.323  1.2696  0.2509 -1.1857
 6615SOL     OW21851   0.755   7.553   7.648  0.3011 -0.0126 -0.3483
 6615SOL    HW121852   0.848   7.576   7.652  0.9208 -2.1572 -1.0601
 6615SOL    HW221853   0.750   7.485   7.581 -1.8769  0.3612 -0.6545
 6616SOL     OW21854   0.294   8.792   5.219 -0.0828 -0.4726 -0.4690
 6616SOL    HW121855   0.284   8.791   5.314 -2.6284 -1.8792 -0.6480
 6616SOL    HW221856   0.270   8.881   5.193 -2.5379 -0.9283  0.0309
 6617SOL     OW21857   2.182   9.608   3.296 -0.5661  0.2227  0.6508
 6617SOL    HW121858   2.126   9.684   3.287  1.3186  1.8799  2.0063
 6617SOL    HW221859   2.194   9.598   3.391 -0.5451 -1.6170  0.4958
 6618SOL     OW21860   0.280   3.788   4.905  0.6780 -0.5531  0.1414
 6618SOL    HW121861   0.204   3.830   4.864 -0.0139 -1.7693  0.1195
 6618SOL    HW221862   0.257   3.780   4.997 -1.6744 -5.6115 -0.5393
 6619SOL     OW21863   2.523   7.735   1.918 -0.4160  0.0500  0.0410
 6619SOL    HW121864   2.540   7.714   2.009  0.0242 -1.0823 -0.2866
 6619SOL    HW221865   2.503   7.651   1.877 -0.8017  0.5665 -0.8645
 6620SOL     OW21866   5.566   6.719  10.851 -0.1199  0.2793  0.7111
 6620SOL    HW121867   5.537   6.773  10.778 -0.4799 -2.3071 -1.1930
 6620SOL    HW221868   5.634   6.770  10.894  1.0063  1.4080 -2.2011
 6621SOL     OW21869   9.627   9.163   7.797  0.4275 -1.1425  0.3316
 6621SOL    HW121870   9.656   9.076   7.771 -0.7848 -1.2808 -0.6072
 6621SOL    HW221871   9.532   9.160   7.791  0.2492 -0.2874  2.0496
 6622SOL     OW21872   5.083   5.899   0.366 -0.4456 -0.3203 -0.3461
 6622SOL    HW121873   5.085   5.984   0.409 -0.6114 -0.6205  0.2720
 6622SOL    HW221874   5.024   5.910   0.292  0.2702  0.3535 -0.8313
 6623SOL     OW21875   2.371   2.847   0.121  0.6840 -0.1211  0.0721
 6623SOL    HW121876   2.362   2.831   0.027  1.3070 -0.8398  0.1244
 6623SOL    HW221877   2.425   2.774   0.153 -0.0941 -0.2748  1.1059
 6624SOL     OW21878   0.452   7.478   5.736  0.2234 -0.7267  0.4776
 6624SOL    HW121879   0.537   7.458   5.777  0.1662 -1.8344  0.0831
 6624SOL    HW221880   0.441   7.572   5.750  0.6009 -0.9134  2.2742
 6625SOL     OW21881   0.304  11.062   6.488 -0.4268  0.0603 -0.3940
 6625SOL    HW121882   0.230  11.002   6.484  0.8499 -1.5575 -1.0465
 6625SOL    HW221883   0.373  11.012   6.532 -0.0063  1.8650  1.1064
 6626SOL     OW21884   4.133   9.906   2.256 -0.4739  0.2966 -0.6133
 6626SOL    HW121885   4.168   9.890   2.169  0.1525  1.1669 -0.5287
 6626SOL    HW221886   4.178   9.842   2.312  0.1752  0.6724 -0.6951
 6627SOL     OW21887   0.583   5.286   2.878 -0.1808 -0.4701  0.3181
 6627SOL    HW121888   0.572   5.256   2.787  1.2459  0.2166 -0.1186
 6627SOL    HW221889   0.517   5.355   2.888 -1.4448 -1.6501  0.3515
 6628SOL     OW21890   1.671   1.183   2.961 -0.5108 -0.7691 -0.4386
 6628SOL    HW121891   1.720   1.103   2.942 -0.4128 -0.8183  0.0314
 6628SOL    HW221892   1.579   1.157   2.948 -0.5615 -1.2750  0.8334
 6629SOL     OW21893   1.337   8.513   4.190  0.3226 -0.5054  0.1611
 6629SOL    HW121894   1.336   8.540   4.099 -3.0839  0.8464  0.4556
 6629SOL    HW221895   1.311   8.421   4.189  0.4082 -0.5242 -0.2428
 6630SOL     OW21896  10.004   9.580   2.770 -0.0896  0.3718 -0.9154
 6630SOL    HW121897   9.988   9.506   2.828  1.7139  0.5101 -0.1723
 6630SOL    HW221898   9.917   9.618   2.755 -0.6002  0.9368  2.5658
 6631SOL     OW21899   6.576   0.123  10.326 -0.1722 -0.0424 -0.2331
 6631SOL    HW121900   6.589   0.044  10.379 -1.0971  1.8896  3.1627
 6631SOL    HW221901   6.481   0.130  10.319 -0.0687  0.2296 -1.4371
 6632SOL     OW21902   3.700   9.007   2.261 -0.5518  0.4362 -0.8593
 6632SOL    HW121903   3.778   9.061   2.275 -0.4991  0.3333 -0.7481
 6632SOL    HW221904   3.677   8.975   2.349  0.0070 -0.5359 -1.0489
 6633SOL     OW21905   9.211  10.189   1.555  0.4051 -0.1035 -0.2450
 6633SOL    HW121906   9.278  10.121   1.543  1.7747  0.8624  1.4334
 6633SOL    HW221907   9.136  10.142   1.590  0.7635 -0.9822 -0.6044
 6634SOL     OW21908   1.346   5.646   0.418  0.1770 -0.2154  0.3752
 6634SOL    HW121909   1.423   5.593   0.400 -0.0787 -0.6144  0.4370
 6634SOL    HW221910   1.287   5.588   0.467 -0.3568 -0.0682 -0.0759
 6635SOL     OW21911   9.879   0.205   4.415  0.1629  0.4389  0.0141
 6635SOL    HW121912   9.859   0.200   4.508  0.4903 -1.2678  0.0271
 6635SOL    HW221913   9.881   0.299   4.395  1.4570  0.8844  2.0139
 6636SOL     OW21914   2.113   9.635   9.601 -0.3537  0.0256  0.1548
 6636SOL    HW121915   2.059   9.694   9.548 -0.6884  0.0803  0.5545
 6636SOL    HW221916   2.121   9.556   9.548 -0.6668  0.0901  0.0083
 6637SOL     OW21917   0.157   4.930  10.782  0.3079  0.2492 -0.5742
 6637SOL    HW121918   0.138   4.838  10.764 -0.6654  0.4619 -0.7302
 6637SOL    HW221919   0.163   4.935  10.878 -2.5310  0.4869 -0.3127
 6638SOL     OW21920   2.667   1.731   5.937 -0.2792  0.2670  0.1701
 6638SOL    HW121921   2.713   1.758   6.016  0.2886  0.4274 -0.2071
 6638SOL    HW221922   2.734   1.731   5.869 -0.4809 -1.0619 -0.0645
 6639SOL     OW21923   7.039   0.295   3.760  0.0771  0.3257 -0.2172
 6639SOL    HW121924   7.034   0.309   3.666 -1.5638 -0.1825 -0.2421
 6639SOL    HW221925   7.027   0.200   3.771 -0.2081  0.4362  0.5105
 6640SOL     OW21926   9.261   7.597   3.186 -0.1033  0.4328 -0.8368
 6640SOL    HW121927   9.332   7.644   3.230  0.7771  0.2001 -1.9735
 6640SOL    HW221928   9.287   7.505   3.188 -0.9706  0.1810 -0.1925
 6641SOL     OW21929   3.817   5.737   8.435 -0.6780 -0.1658 -0.1283
 6641SOL    HW121930   3.902   5.773   8.411 -0.8233 -0.7869 -1.7524
 6641SOL    HW221931   3.755   5.784   8.379 -1.1187 -1.2688 -0.6069
 6642SOL     OW21932   3.164  10.548   8.066  0.4591  0.0051  0.1049
 6642SOL    HW121933   3.101  10.593   8.123  0.7106  0.0866  0.3186
 6642SOL    HW221934   3.246  10.597   8.077  0.8469 -0.7562  0.6696
 6643SOL     OW21935  10.739  11.009   2.230 -0.6349 -0.0162 -0.1525
 6643SOL    HW121936  10.644  11.023   2.235 -0.6489 -0.4919  1.7750
 6643SOL    HW221937  10.776  11.097   2.226 -1.1499  0.1720 -2.4604
 6644SOL     OW21938   8.829   1.255   7.322 -0.0748 -0.0097 -0.0997
 6644SOL    HW121939   8.807   1.162   7.332  1.1472 -0.5215 -1.6890
 6644SOL    HW221940   8.835   1.267   7.227 -1.1184  1.9405  0.0432
 6645SOL     OW21941   5.728   2.775   5.377  0.3984 -0.2962 -0.3515
 6645SOL    HW121942   5.797   2.839   5.393  0.2990  0.2594 -2.0157
 6645SOL    HW221943   5.724   2.723   5.458 -0.1962  2.3784  1.4661
 6646SOL     OW21944   8.654  10.242  10.822 -0.1856  0.0271 -0.1804
 6646SOL    HW121945   8.668  10.159  10.867 -1.0945 -0.0895 -0.0986
 6646SOL    HW221946   8.742  10.280  10.813  0.0517 -0.0928  1.3925
 6647SOL     OW21947   9.516   3.979  10.814  0.2559  0.2876 -0.2386
 6647SOL    HW121948   9.581   3.930  10.863  0.1710 -1.4236 -1.7572
 6647SOL    HW221949   9.566   4.046  10.767  0.4974  1.0172  1.0201
 6648SOL     OW21950   1.506   1.181   7.175  0.0572  0.4327 -0.1588
 6648SOL    HW121951   1.468   1.240   7.110 -0.1777 -0.0884 -0.5027
 6648SOL    HW221952   1.529   1.102   7.125 -1.0252 -0.3635  0.5505
 6649SOL     OW21953   3.683   4.199   6.773 -0.0178 -0.6628 -0.0428
 6649SOL    HW121954   3.683   4.175   6.680 -0.9516  1.7437 -0.7252
 6649SOL    HW221955   3.591   4.194   6.799  0.2426 -1.3581  0.7819
 6650SOL     OW21956   1.137  10.682   2.568  0.1138  0.0871 -0.6619
 6650SOL    HW121957   1.084  10.752   2.531  0.5955  0.4821 -0.6014
 6650SOL    HW221958   1.130  10.611   2.504 -0.6219  0.0714 -0.5777
 6651SOL     OW21959   5.586   1.760   7.934 -0.8639 -0.2413  0.5009
 6651SOL    HW121960   5.508   1.798   7.895 -1.1232  0.5236  1.7219
 6651SOL    HW221961   5.648   1.833   7.941 -0.4405 -0.5993  0.5681
 6652SOL     OW21962   0.005   1.315   7.626 -0.0295 -0.1165 -0.1230
 6652SOL    HW121963  -0.056   1.389   7.632 -1.0721 -1.0104  0.6567
 6652SOL    HW221964   0.005   1.277   7.714  1.3808 -0.3674 -0.2097
 6653SOL     OW21965   1.856   8.075   3.467  0.1817 -0.8524 -0.4059
 6653SOL    HW121966   1.787   8.074   3.401  0.1967  1.9097 -0.5970
 6653SOL    HW221967   1.870   7.983   3.489 -3.6137 -1.5888 -0.2816
 6654SOL     OW21968   0.861   5.753   0.860 -0.3631 -0.2798  0.0447
 6654SOL    HW121969   0.894   5.843   0.850  2.2277 -1.0086  1.1733
 6654SOL    HW221970   0.874   5.733   0.952 -1.8382 -1.5061  0.0092
 6655SOL     OW21971   0.848   6.989   2.077 -0.0044 -0.3558 -0.4264
 6655SOL    HW121972   0.770   7.039   2.102 -0.8932 -1.3639 -1.1345
 6655SOL    HW221973   0.886   7.040   2.005 -0.6902 -0.4708 -0.8852
 6656SOL     OW21974   3.211   9.732   3.002  1.0382 -0.6575  0.3351
 6656SOL    HW121975   3.204   9.758   2.910  0.0421  0.4980  0.7209
 6656SOL    HW221976   3.156   9.794   3.050  0.0937 -2.3175  1.5337
 6657SOL     OW21977   3.438   9.187   5.353 -0.1559 -0.8405  0.5144
 6657SOL    HW121978   3.403   9.182   5.264  2.1800 -0.7128 -0.4813
 6657SOL    HW221979   3.495   9.110   5.360  0.5034 -0.2860  1.5067
 6658SOL     OW21980   1.459   9.390   9.604 -0.5335  0.4172 -0.3435
 6658SOL    HW121981   1.487   9.482   9.606 -0.7744  0.5977 -2.5661
 6658SOL    HW221982   1.379   9.388   9.657 -1.3576  1.8392 -1.4694
 6659SOL     OW21983   8.255   8.551   5.553 -0.2445  1.0409  0.6591
 6659SOL    HW121984   8.218   8.474   5.510 -0.0374  0.8145  0.8834
 6659SOL    HW221985   8.301   8.598   5.483 -1.8593  1.9258  0.1139
 6660SOL     OW21986   1.460   1.002   5.240  0.2276  0.3397 -0.4598
 6660SOL    HW121987   1.443   1.089   5.276 -0.5874  0.0090 -0.0160
 6660SOL    HW221988   1.413   1.001   5.157  1.6623  0.9114 -1.3218
 6661SOL     OW21989   3.949  10.183   9.913  0.1836 -0.0489  0.3008
 6661SOL    HW121990   3.936  10.203  10.006  0.0742  0.9041  0.0840
 6661SOL    HW221991   3.877  10.227   9.868  0.2475 -0.4868 -0.2452
 6662SOL     OW21992   0.877   3.389   0.667 -0.1842 -0.6052 -0.2824
 6662SOL    HW121993   0.914   3.327   0.730 -1.3561 -1.0191  0.0202
 6662SOL    HW221994   0.930   3.378   0.588  1.9648  0.6307  0.8884
 6663SOL     OW21995   2.742   5.144   3.504  0.8244 -0.3618 -0.3897
 6663SOL    HW121996   2.721   5.122   3.413  1.1879  1.6509 -1.0133
 6663SOL    HW221997   2.788   5.228   3.498 -0.8971  0.8408  1.7857
 6664SOL     OW21998   3.005   8.283   0.158  0.4666  0.4548 -0.7992
 6664SOL    HW121999   2.910   8.296   0.162  0.1377 -1.4829 -1.4477
 6664SOL    HW222000   3.040   8.354   0.212 -1.4445  0.1596  0.9909
 6665SOL     OW22001   8.022   9.674  10.785  0.2110 -0.3340  0.3982
 6665SOL    HW122002   7.971   9.753  10.766 -0.3197 -0.3214  1.7997
 6665SOL    HW222003   7.988   9.609  10.724 -0.1413  0.1985  0.0152
 6666SOL     OW22004   8.405   8.659   8.168 -0.0232 -0.6445  0.0562
 6666SOL    HW122005   8.478   8.624   8.117 -0.2659 -0.7182 -0.2405
 6666SOL    HW222006   8.400   8.752   8.143  1.2550 -0.1215  1.5766
 6667SOL     OW22007   2.627   7.132   8.519  0.0184  0.1578 -0.2887
 6667SOL    HW122008   2.537   7.134   8.550  0.0212 -1.4142 -0.0923
 6667SOL    HW222009   2.621   7.143   8.424 -0.3461  0.3908 -0.2397
 6668SOL     OW22010   6.977   2.997  10.759  0.0232 -0.4705 -0.4099
 6668SOL    HW122011   7.002   2.906  10.749  2.1317  0.1409 -1.2692
 6668SOL    HW222012   6.897   3.006  10.707  0.5585 -1.5204 -1.4607
 6669SOL     OW22013   3.137   8.526   1.598  0.4201 -0.2587  0.7501
 6669SOL    HW122014   3.057   8.476   1.616 -0.1016  0.8521  1.6044
 6669SOL    HW222015   3.170   8.488   1.516 -1.6672  0.0620 -0.3270
 6670SOL     OW22016   0.262   1.364   7.773 -0.4463  0.6426 -0.3162
 6670SOL    HW122017   0.202   1.314   7.829 -1.0552  1.0005 -0.6416
 6670SOL    HW222018   0.207   1.432   7.734  0.5282  2.1450  0.8011
 6671SOL     OW22019   3.627  11.088   1.494 -0.2326  0.1952 -0.0962
 6671SOL    HW122020   3.600  11.161   1.550  0.0441  1.3682 -1.4110
 6671SOL    HW222021   3.715  11.112   1.464  0.0541 -0.9119 -0.1888
 6672SOL     OW22022   2.278   5.639   5.618  0.0816 -0.1847  0.0969
 6672SOL    HW122023   2.367   5.609   5.603 -0.0196 -0.5804  0.2812
 6672SOL    HW222024   2.287   5.731   5.641  0.3539  0.0748 -1.0076
 6673SOL     OW22025   9.701   9.403   4.755 -0.1345 -0.2411 -0.3193
 6673SOL    HW122026   9.783   9.378   4.712  0.2165 -0.3094  0.3858
 6673SOL    HW222027   9.686   9.494   4.727  0.6976  0.1039  0.3289
 6674SOL     OW22028   2.604   7.395   3.921 -0.1199  0.5086 -0.8793
 6674SOL    HW122029   2.519   7.377   3.882 -0.5632 -2.5202  1.1242
 6674SOL    HW222030   2.665   7.395   3.847 -1.5491  0.3616 -2.1050
 6675SOL     OW22031  10.605   7.091   3.167 -0.1663  0.4461  0.0902
 6675SOL    HW122032  10.533   7.151   3.186 -0.8673 -0.0758 -0.8253
 6675SOL    HW222033  10.593   7.068   3.075  1.1004  0.2361 -0.0390
 6676SOL     OW22034   8.780   0.433   2.721 -0.0961  0.0918  0.2902
 6676SOL    HW122035   8.766   0.344   2.689 -0.6392 -0.2291  1.3608
 6676SOL    HW222036   8.836   0.421   2.799  1.5258  0.8759 -0.7136
 6677SOL     OW22037   9.039  10.909   5.607  0.0522 -0.3563 -1.2530
 6677SOL    HW122038   8.955  10.951   5.588 -0.0034  0.5434  0.7140
 6677SOL    HW222039   9.099  10.945   5.541 -0.6361  0.6535 -1.3641
 6678SOL     OW22040   1.199  10.074   9.270  0.1230 -0.2252 -0.2311
 6678SOL    HW122041   1.125  10.076   9.210 -0.9552 -0.6027  1.0388
 6678SOL    HW222042   1.257  10.143   9.239 -0.9473  0.3350 -1.0399
 6679SOL     OW22043   9.730   6.961  10.573  0.1850 -0.1096  0.0498
 6679SOL    HW122044   9.745   6.890  10.512  1.3885  1.2064 -1.2387
 6679SOL    HW222045   9.801   7.023  10.557 -1.5940  2.0612  0.1180
 6680SOL     OW22046   8.917   0.378   5.961  0.1724  0.0784 -0.5040
 6680SOL    HW122047   8.906   0.453   6.020  1.4202 -0.4069  0.4025
 6680SOL    HW222048   8.877   0.305   6.008 -1.6374  0.2449 -1.6716
 6681SOL     OW22049   0.190  10.720   6.264 -0.5365  0.1035 -0.1973
 6681SOL    HW122050   0.278  10.753   6.278 -0.2705  0.0467 -1.5355
 6681SOL    HW222051   0.181  10.647   6.325  1.1244 -1.1993 -1.4135
 6682SOL     OW22052   2.972   0.657   1.263 -0.1580 -1.0870 -0.2224
 6682SOL    HW122053   3.017   0.722   1.318 -1.2812  0.4564 -1.0429
 6682SOL    HW222054   3.017   0.661   1.179 -0.1484 -1.4607 -0.2338
 6683SOL     OW22055   1.522   5.464   2.863  0.6941 -0.2747  0.4901
 6683SOL    HW122056   1.533   5.559   2.859 -0.7674 -0.0790  0.5547
 6683SOL    HW222057   1.528   5.443   2.956  1.1722 -0.2657  0.4614
 6684SOL     OW22058   6.020   0.099   6.115  0.4033 -1.2099  0.2218
 6684SOL    HW122059   6.011   0.194   6.110 -1.7377 -1.3920 -0.0545
 6684SOL    HW222060   6.082   0.085   6.186 -0.2622  0.3685  1.1674
 6685SOL     OW22061  11.057   5.252   3.832 -0.3862  0.3548  0.0713
 6685SOL    HW122062  11.120   5.320   3.810  1.0132 -0.5639  1.0493
 6685SOL    HW222063  10.982   5.300   3.870  0.6208  1.3529  0.8744
 6686SOL     OW22064   9.275   4.331  10.103 -0.3279 -0.1573  0.0198
 6686SOL    HW122065   9.237   4.366  10.184  0.1986 -2.3012  1.2716
 6686SOL    HW222066   9.236   4.244  10.094  0.7233 -0.5307 -1.2296
 6687SOL     OW22067   1.965   7.939   4.345  0.0183  0.0461  0.0670
 6687SOL    HW122068   2.036   7.878   4.365 -0.4294 -0.2609  0.7555
 6687SOL    HW222069   1.997   8.024   4.375  0.0859 -0.0919  0.3810
 6688SOL     OW22070   1.809   3.247   4.639  0.5794  1.0813 -0.1945
 6688SOL    HW122071   1.842   3.169   4.682 -0.3439  0.5580 -0.4178
 6688SOL    HW222072   1.880   3.274   4.581  0.4369 -0.3454 -1.0690
 6689SOL     OW22073   7.512   7.978   1.937  0.3764  0.2106 -0.2410
 6689SOL    HW122074   7.563   7.928   2.001  0.6593 -0.0340 -0.6528
 6689SOL    HW222075   7.446   7.916   1.905  1.8374 -0.4979 -2.0717
 6690SOL     OW22076   4.448  10.920   1.917  0.1975 -0.1511  0.5446
 6690SOL    HW122077   4.529  10.958   1.951  0.2969  0.4241 -0.2882
 6690SOL    HW222078   4.464  10.826   1.916  1.2468  0.0138 -0.5409
 6691SOL     OW22079   3.379   7.899   2.533  0.0885  0.2303 -0.4421
 6691SOL    HW122080   3.333   7.846   2.468  1.2964 -1.4563  0.0040
 6691SOL    HW222081   3.373   7.847   2.614  1.3588  0.7393  0.0005
 6692SOL     OW22082   0.864   4.964   1.620 -0.1525  0.0257 -0.3914
 6692SOL    HW122083   0.927   4.907   1.576  2.1872  2.4240 -0.3510
 6692SOL    HW222084   0.849   5.035   1.558  2.3680  2.9143  2.0376
 6693SOL     OW22085   8.955   9.851   6.171 -0.0390  0.1880 -0.0051
 6693SOL    HW122086   9.042   9.857   6.210  0.1766 -1.0064 -0.2659
 6693SOL    HW222087   8.895   9.856   6.245  0.3574 -1.7181  0.4868
 6694SOL     OW22088   5.005   4.633   2.386 -0.1037  0.3316  0.1066
 6694SOL    HW122089   4.987   4.632   2.480 -0.3995 -0.7468  0.0611
 6694SOL    HW222090   5.063   4.708   2.373  1.0644 -0.3071  1.3689
 6695SOL     OW22091   0.644   7.396   2.007 -0.0918 -0.2550 -0.0392
 6695SOL    HW122092   0.624   7.476   1.959 -1.0684 -0.9041 -0.7378
 6695SOL    HW222093   0.695   7.426   2.083  1.0120  0.8423 -1.1690
 6696SOL     OW22094  10.800   5.681   5.917 -0.0432 -0.1393 -0.5991
 6696SOL    HW122095  10.890   5.653   5.930  0.5610  1.6449 -0.6497
 6696SOL    HW222096  10.758   5.610   5.869  0.4360 -2.4491  2.1640
 6697SOL     OW22097   8.537   0.866   6.426 -0.3495 -0.5078  0.4108
 6697SOL    HW122098   8.462   0.807   6.418 -0.6126 -0.2988  1.2539
 6697SOL    HW222099   8.526   0.929   6.355 -1.7105  0.3237  1.3173
 6698SOL     OW22100   0.463   2.431   6.348 -0.5907 -0.2981  0.7387
 6698SOL    HW122101   0.432   2.341   6.351  0.5002 -0.7287 -0.1496
 6698SOL    HW222102   0.384   2.484   6.333 -0.9219 -1.3760 -1.8580
 6699SOL     OW22103   5.204   1.938   3.232 -0.5840 -0.7861  0.3198
 6699SOL    HW122104   5.262   1.942   3.156  0.6913 -1.0459  1.2440
 6699SOL    HW222105   5.210   1.847   3.262  1.0487 -0.0936  2.2877
 6700SOL     OW22106   6.946   0.885   9.109 -0.3997 -0.0739  0.2794
 6700SOL    HW122107   6.894   0.957   9.145  0.1165  0.0980  0.6940
 6700SOL    HW222108   6.961   0.827   9.184 -2.6642 -1.7676 -0.4853
 6701SOL     OW22109   5.443  10.725   1.366 -0.4099  0.7554  0.4164
 6701SOL    HW122110   5.507  10.662   1.332 -0.7705 -1.3028  3.1448
 6701SOL    HW222111   5.381  10.739   1.295 -0.5254 -2.3745 -0.2248
 6702SOL     OW22112  10.705  10.297   6.401 -0.3714 -0.1411 -0.2073
 6702SOL    HW122113  10.619  10.305   6.360  0.4855 -2.3462 -2.7585
 6702SOL    HW222114  10.763  10.268   6.331  2.3940  0.7465  1.5298
 6703SOL     OW22115   6.513  10.143   6.081  0.1929 -0.0533  0.3114
 6703SOL    HW122116   6.481  10.224   6.042  0.1589  0.0736  0.6065
 6703SOL    HW222117   6.561  10.100   6.010  0.2257  0.2317  0.1602
 6704SOL     OW22118   8.848   3.822   8.541  0.4323  0.3624  0.0227
 6704SOL    HW122119   8.891   3.886   8.485  1.1086 -0.2602 -0.1689
 6704SOL    HW222120   8.764   3.806   8.498  0.7117  0.3046 -0.5082
 6705SOL     OW22121  10.578   3.525  11.014  0.1260  0.0475 -0.1132
 6705SOL    HW122122  10.515   3.506  11.084 -0.8919  1.0174 -0.7385
 6705SOL    HW222123  10.568   3.618  10.997 -0.4797 -0.3578 -2.3167
 6706SOL     OW22124   0.226   2.911   5.190 -0.5961  0.6762  0.3303
 6706SOL    HW122125   0.148   2.948   5.148 -1.6788 -0.3667  1.3777
 6706SOL    HW222126   0.218   2.937   5.282  0.7651  1.2990  0.2999
 6707SOL     OW22127   3.135  10.622  10.718  0.1380  0.1561  0.3152
 6707SOL    HW122128   3.135  10.639  10.624 -2.0138  2.8101  0.6919
 6707SOL    HW222129   3.152  10.707  10.758  2.4651 -1.1592  2.4062
 6708SOL     OW22130  10.493   6.783   6.564  0.0346  0.0118 -0.4088
 6708SOL    HW122131  10.499   6.810   6.473  0.0942  1.0613 -0.0991
 6708SOL    HW222132  10.420   6.721   6.566 -0.0913  0.1344 -1.1304
 6709SOL     OW22133   3.250   1.741   2.849  0.6981  0.2617 -1.0333
 6709SOL    HW122134   3.324   1.723   2.791  0.4440  0.2867 -1.3721
 6709SOL    HW222135   3.193   1.799   2.798  0.0306 -0.4400 -1.1078
 6710SOL     OW22136   6.822   9.748   5.462  0.1799 -0.3005  0.3692
 6710SOL    HW122137   6.774   9.672   5.496 -0.2071  0.0667  0.6568
 6710SOL    HW222138   6.758   9.797   5.411  0.6884 -0.6901 -0.6582
 6711SOL     OW22139  10.876   7.469   1.772 -0.1527 -0.7269  0.1438
 6711SOL    HW122140  10.930   7.439   1.845  1.4332 -0.2740 -0.8021
 6711SOL    HW222141  10.814   7.531   1.811  0.1524 -1.0857  1.2175
 6712SOL     OW22142   5.373   8.196   1.556 -0.1434  0.0295  0.5074
 6712SOL    HW122143   5.347   8.188   1.465  1.9129 -0.6306 -0.0785
 6712SOL    HW222144   5.294   8.227   1.601 -1.0271  0.9870 -1.5657
 6713SOL     OW22145   0.879   9.569   4.341  0.4335  0.5312  0.0076
 6713SOL    HW122146   0.912   9.569   4.251  1.8721  1.4650  0.5011
 6713SOL    HW222147   0.902   9.482   4.374  1.9246  0.9366  0.1349
 6714SOL     OW22148   9.941   8.065   1.370 -0.1803  0.0769  0.1380
 6714SOL    HW122149  10.002   8.135   1.347 -1.1121  0.7476 -0.3945
 6714SOL    HW222150   9.899   8.095   1.451 -1.7135  0.9393 -0.9119
 6715SOL     OW22151   0.438   2.624   4.512  0.3446 -0.6104  0.0115
 6715SOL    HW122152   0.415   2.698   4.569  1.4909  1.4975 -2.0606
 6715SOL    HW222153   0.358   2.608   4.461 -0.0584 -1.1543  0.8017
 6716SOL     OW22154   2.215  10.895   5.266  0.6109 -0.5765  0.0206
 6716SOL    HW122155   2.141  10.893   5.326  1.7066  1.2124  1.5381
 6716SOL    HW222156   2.193  10.965   5.204  0.8944 -0.2412  0.2969
 6717SOL     OW22157   3.618   4.944   7.722 -0.3133 -0.3541  0.0735
 6717SOL    HW122158   3.654   5.014   7.776 -1.8140  0.5272  0.0100
 6717SOL    HW222159   3.688   4.880   7.714 -0.0302 -0.5539  3.0759
 6718SOL     OW22160   3.746   4.840   6.310 -0.1270  0.1105 -0.2347
 6718SOL    HW122161   3.803   4.779   6.358  2.0771  1.9855 -0.2981
 6718SOL    HW222162   3.696   4.783   6.251 -0.2541 -1.8853  1.6481
 6719SOL     OW22163   2.758   9.282   0.686 -0.2809 -0.1166 -0.2742
 6719SOL    HW122164   2.808   9.231   0.750 -0.2954  0.0554 -0.1252
 6719SOL    HW222165   2.667   9.261   0.703 -0.3476  0.6661  0.4032
 6720SOL     OW22166   0.783   8.148   5.652 -0.4504  0.0883  0.2507
 6720SOL    HW122167   0.701   8.112   5.687 -1.0035  2.0757  1.1186
 6720SOL    HW222168   0.852   8.095   5.692 -1.2691 -1.1048  0.1203
 6721SOL     OW22169   3.831   8.295   8.099  0.3175  0.1509  0.0217
 6721SOL    HW122170   3.830   8.347   8.180  0.7197  0.7692 -0.3676
 6721SOL    HW222171   3.889   8.343   8.040 -1.6397  0.8907 -1.4204
 6722SOL     OW22172   5.152  10.781   6.870  0.2624 -0.5480  0.3354
 6722SOL    HW122173   5.069  10.757   6.828  0.8867 -0.4774 -0.9934
 6722SOL    HW222174   5.212  10.710   6.849  0.4427 -0.8149  1.6630
 6723SOL     OW22175   4.172   8.046   1.641 -0.1389  0.4740  0.4469
 6723SOL    HW122176   4.150   8.132   1.604  0.0500  0.3701  0.0914
 6723SOL    HW222177   4.132   8.047   1.728 -1.0604  0.5045  0.0337
 6724SOL     OW22178   2.211   1.980   8.629 -0.1979 -0.4681 -0.0733
 6724SOL    HW122179   2.155   1.913   8.668  1.4184 -1.8458 -0.0310
 6724SOL    HW222180   2.282   1.992   8.692  0.1145  0.4980 -0.5945
 6725SOL     OW22181  10.704   7.183   9.263  0.2441  0.3264  0.4937
 6725SOL    HW122182  10.708   7.133   9.182 -0.0997  0.3143  0.4844
 6725SOL    HW222183  10.752   7.130   9.327 -0.6512 -0.3200  0.6437
 6726SOL     OW22184   9.508  10.682   1.104  0.3527  0.7009  0.1663
 6726SOL    HW122185   9.510  10.587   1.118 -1.8019  0.1166 -2.6412
 6726SOL    HW222186   9.450  10.715   1.171  0.7914 -0.0009  0.9130
 6727SOL     OW22187   8.432   8.480   3.335 -0.0247  0.1046 -0.4748
 6727SOL    HW122188   8.412   8.568   3.304  0.1341  0.2441 -0.1839
 6727SOL    HW222189   8.430   8.426   3.256 -0.6528  0.2683 -0.5810
 6728SOL     OW22190   1.000   7.529   4.127  0.2087  0.0820 -0.0899
 6728SOL    HW122191   1.051   7.498   4.052 -2.6418 -2.8869 -1.0396
 6728SOL    HW222192   1.046   7.492   4.203  0.6816 -0.7250 -0.7479
 6729SOL     OW22193  10.596   8.823   1.765 -0.1863 -0.6522  0.1169
 6729SOL    HW122194  10.589   8.749   1.704  2.4386 -1.3481  0.5209
 6729SOL    HW222195  10.589   8.784   1.852  0.4697 -0.3393  0.3189
 6730SOL     OW22196  10.464   5.688   4.347  0.0196  0.0729  0.4911
 6730SOL    HW122197  10.542   5.642   4.317  0.3104 -0.2826  1.7195
 6730SOL    HW222198  10.496   5.772   4.379 -0.2084  0.2483  0.2587
 6731SOL     OW22199   0.325   4.976   7.214 -0.2490 -0.1510  0.1946
 6731SOL    HW122200   0.303   4.889   7.181  2.5864 -1.3608  1.1703
 6731SOL    HW222201   0.318   5.033   7.138 -1.5648 -1.3213 -0.6161
 6732SOL     OW22202   6.113   5.253   2.083 -0.5133 -0.1828 -0.4056
 6732SOL    HW122203   6.114   5.189   2.154 -1.5992  0.3157  0.0751
 6732SOL    HW222204   6.070   5.330   2.120  0.6019  0.7788 -1.0303
 6733SOL     OW22205   6.033   7.469   8.246  0.5512  0.4153  0.0041
 6733SOL    HW122206   6.049   7.555   8.208 -0.5803  0.7927  0.3525
 6733SOL    HW222207   5.960   7.482   8.306  0.9756 -0.5947  0.7781
 6734SOL     OW22208   9.885   3.289   4.950 -0.0810  0.4740  0.3619
 6734SOL    HW122209   9.937   3.266   5.027  1.0622  1.3240 -0.1167
 6734SOL    HW222210   9.860   3.204   4.912  0.7633  0.0346  0.7448
 6735SOL     OW22211   9.223  10.979   4.945  0.2853  0.5157  0.9363
 6735SOL    HW122212   9.215  11.073   4.924  0.1855  0.4641  0.7393
 6735SOL    HW222213   9.309  10.971   4.987  0.6602  0.5569  0.1886
 6736SOL     OW22214   0.122   1.423   8.509 -0.3367  0.8908  0.2587
 6736SOL    HW122215   0.215   1.442   8.517 -0.7991  3.0088  1.1634
 6736SOL    HW222216   0.098   1.383   8.593 -0.4170  1.1404  0.3547
 6737SOL     OW22217   6.774   5.578   5.851 -0.0858  0.0429 -0.1719
 6737SOL    HW122218   6.700   5.592   5.910  0.6175  0.4977  0.6267
 6737SOL    HW222219   6.744   5.612   5.767 -0.3804  1.3250  0.4211
 6738SOL     OW22220  10.137  10.784   5.190  0.0856  0.1260  0.5997
 6738SOL    HW122221  10.181  10.699   5.184  0.0932  0.1463  0.3348
 6738SOL    HW222222  10.202  10.847   5.159  0.1639  0.2599  1.0254
 6739SOL     OW22223  10.497   9.313   3.109  0.0428 -0.1238  0.0978
 6739SOL    HW122224  10.455   9.343   3.029 -0.0546  0.6284  0.4224
 6739SOL    HW222225  10.427   9.276   3.162 -0.6728  2.8905  1.4868
 6740SOL     OW22226   0.257   3.636   4.603 -0.5117 -0.1927 -0.7077
 6740SOL    HW122227   0.245   3.547   4.572  1.4020 -1.0891  0.8936
 6740SOL    HW222228   0.273   3.627   4.697 -0.8636  1.8951 -0.3936
 6741SOL     OW22229   2.857  10.086   4.619  0.0002 -0.3270  0.1380
 6741SOL    HW122230   2.928  10.136   4.577  0.7742 -0.5937  1.0954
 6741SOL    HW222231   2.876   9.995   4.597 -1.2112 -0.2734 -1.3078
 6742SOL     OW22232   9.859   6.326   2.493 -0.3765  0.9811 -0.1425
 6742SOL    HW122233   9.873   6.282   2.577 -1.0756 -1.4944 -1.2345
 6742SOL    HW222234   9.944   6.319   2.448 -0.2589  1.5107 -0.0140
 6743SOL     OW22235   1.136   5.326   6.307  0.7493  0.1090  0.2999
 6743SOL    HW122236   1.148   5.353   6.398  0.8758 -1.0720  0.6558
 6743SOL    HW222237   1.128   5.231   6.312 -0.4771  0.1335 -0.8015
 6744SOL     OW22238   3.670   9.219   0.253 -0.4282  0.1061 -0.0789
 6744SOL    HW122239   3.595   9.271   0.224  0.3229  0.0130 -2.4086
 6744SOL    HW222240   3.633   9.134   0.276 -1.4808  1.1587  2.4714
 6745SOL     OW22241   1.125   2.519   6.881  0.2063 -0.6411 -0.0824
 6745SOL    HW122242   1.139   2.474   6.798 -1.3452  0.3813 -0.9507
 6745SOL    HW222243   1.030   2.528   6.887  0.3105  4.7507 -1.3248
 6746SOL     OW22244   0.018   8.156   4.614  0.1657 -0.0478  0.3411
 6746SOL    HW122245  -0.016   8.128   4.699 -1.0275 -0.6441 -0.3179
 6746SOL    HW222246   0.072   8.233   4.634 -0.9725  0.4778  1.5068
 6747SOL     OW22247   6.257   8.103   6.752  0.0407  0.0378 -0.2651
 6747SOL    HW122248   6.327   8.143   6.804  0.1279  1.4806 -1.3921
 6747SOL    HW222249   6.198   8.176   6.732  0.5207 -0.1956 -2.9471
 6748SOL     OW22250  10.995   7.915   7.514 -0.0858 -0.2235  0.1156
 6748SOL    HW122251  10.983   7.821   7.512 -0.5245 -0.2039  1.2944
 6748SOL    HW222252  11.003   7.937   7.606  0.6268  0.8259 -0.1666
 6749SOL     OW22253   0.176   1.753   5.534  0.1006 -0.2994  0.3074
 6749SOL    HW122254   0.091   1.728   5.570 -0.0109  0.0515  0.2944
 6749SOL    HW222255   0.209   1.674   5.492 -0.6627 -0.1691 -0.5400
 6750SOL     OW22256  10.393   8.891   1.241  0.0765 -0.0998 -0.2682
 6750SOL    HW122257  10.449   8.924   1.170  0.4756  0.1627  0.1649
 6750SOL    HW222258  10.349   8.969   1.275  0.1130 -0.1851 -0.0272
 6751SOL     OW22259   5.488  10.334   3.910  0.0476 -0.3030 -0.1599
 6751SOL    HW122260   5.519  10.276   3.979 -0.1293  0.1851  0.3381
 6751SOL    HW222261   5.398  10.306   3.893  0.3721 -0.9874 -0.8148
 6752SOL     OW22262   8.960   8.228   6.566  0.3582  0.1309 -0.0267
 6752SOL    HW122263   8.981   8.242   6.659  0.9203  0.1382 -0.1464
 6752SOL    HW222264   9.021   8.285   6.519 -0.0138  0.2277 -0.3975
 6753SOL     OW22265   5.479   2.085   6.187 -0.0555  0.1999 -0.0350
 6753SOL    HW122266   5.417   2.067   6.258 -0.1699 -0.0274 -0.1909
 6753SOL    HW222267   5.424   2.115   6.114 -0.0536 -0.5999 -0.3786
 6754SOL     OW22268   0.236  10.070   5.795 -0.2523  0.3287 -0.2343
 6754SOL    HW122269   0.269  10.093   5.882  0.2466 -1.1492 -0.0091
 6754SOL    HW222270   0.143  10.093   5.797 -0.3842 -0.2642  0.9037
 6755SOL     OW22271   1.047   3.889   6.761  0.0021  0.2302  0.7381
 6755SOL    HW122272   1.041   3.820   6.827 -0.3565 -3.3929 -2.7080
 6755SOL    HW222273   0.958   3.925   6.755  0.2416  1.2639  2.7049
 6756SOL     OW22274  10.740   3.223   0.214 -0.5221  0.2733  0.0832
 6756SOL    HW122275  10.724   3.315   0.234 -0.8725  0.1508  0.3731
 6756SOL    HW222276  10.663   3.195   0.166  0.2266  0.5110 -1.2992
 6757SOL     OW22277  10.539   1.803   4.180  0.8416 -0.2476 -0.2942
 6757SOL    HW122278  10.447   1.827   4.183  1.2668  1.5779 -0.2862
 6757SOL    HW222279  10.549   1.753   4.099  0.1067  0.8110 -1.0606
 6758SOL     OW22280   1.094   9.197   9.259  0.5292  0.4557 -0.3066
 6758SOL    HW122281   1.158   9.129   9.240 -1.0974 -0.7549 -1.7009
 6758SOL    HW222282   1.074   9.236   9.174  0.0295  1.4095  0.2230
 6759SOL     OW22283   7.790   2.870   4.449 -0.0679  0.6730 -0.0142
 6759SOL    HW122284   7.792   2.964   4.469  0.5472  0.9176 -1.1583
 6759SOL    HW222285   7.825   2.828   4.528 -1.6623  1.2788  1.0662
 6760SOL     OW22286   2.514   0.038   5.182  0.3876 -0.8421  0.5173
 6760SOL    HW122287   2.524  -0.030   5.116  0.8809 -0.2205 -0.0678
 6760SOL    HW222288   2.566   0.007   5.257  0.7061 -1.0484  0.2118
 6761SOL     OW22289   6.606  10.050   1.734 -0.2309  0.0239 -0.2643
 6761SOL    HW122290   6.644  10.052   1.822  0.1959 -1.3727 -0.3922
 6761SOL    HW222291   6.545  10.123   1.732  0.5285  0.7098  0.8386
 6762SOL     OW22292   9.333   6.151   8.077 -0.1985  0.4021  0.2895
 6762SOL    HW122293   9.423   6.174   8.098  1.1751 -2.0312 -2.2499
 6762SOL    HW222294   9.327   6.058   8.097 -1.5508  0.1096 -1.2612
 6763SOL     OW22295   9.219   7.101   8.734 -0.0630 -0.8445  0.0944
 6763SOL    HW122296   9.125   7.106   8.754 -0.2615  1.3048 -1.0129
 6763SOL    HW222297   9.258   7.167   8.792  0.8360 -1.9378  0.7642
 6764SOL     OW22298   1.790   3.830   3.194 -0.1835  0.1503  0.1588
 6764SOL    HW122299   1.763   3.861   3.280 -1.7676 -0.2678 -0.1636
 6764SOL    HW222300   1.748   3.745   3.184  0.5018 -0.0992 -0.7732
 6765SOL     OW22301   1.732   6.151   6.236  0.2613 -0.4797  0.3246
 6765SOL    HW122302   1.826   6.146   6.222  0.2400  0.5443 -0.2945
 6765SOL    HW222303   1.711   6.073   6.288  1.3615 -0.9839  0.0373
 6766SOL     OW22304   9.079   8.325   2.662  0.7401 -0.2918  0.2668
 6766SOL    HW122305   9.110   8.267   2.592 -0.3791 -0.2791 -0.2654
 6766SOL    HW222306   9.158   8.367   2.695  1.1000  1.8010 -2.8348
 6767SOL     OW22307   0.730   6.471   8.938 -0.5135 -0.5046  0.4304
 6767SOL    HW122308   0.679   6.541   8.978 -2.3781 -0.7121 -1.3900
 6767SOL    HW222309   0.811   6.513   8.910 -1.1622  0.6871  0.2955
 6768SOL     OW22310   0.904   3.777   4.443  0.0823  0.3080  0.0538
 6768SOL    HW122311   0.974   3.828   4.485  0.5280  0.1316 -0.4558
 6768SOL    HW222312   0.949   3.727   4.375 -0.2444 -1.2349  0.9247
 6769SOL     OW22313   1.084   7.745  10.829  0.6920 -0.6292  0.4347
 6769SOL    HW122314   1.122   7.667  10.869  1.2955 -1.4112 -1.5291
 6769SOL    HW222315   1.111   7.740  10.737 -0.9220  0.8501 -0.1702
 6770SOL     OW22316   9.683   6.650   0.179 -0.6099 -0.1048 -0.1149
 6770SOL    HW122317   9.745   6.636   0.107 -0.8512 -1.8909 -0.0199
 6770SOL    HW222318   9.735   6.690   0.249 -0.1664  0.7793 -0.9302
 6771SOL     OW22319   3.060   8.926   2.901  0.5653 -0.6459  0.4662
 6771SOL    HW122320   3.149   8.948   2.877 -0.2287  0.5907 -1.6467
 6771SOL    HW222321   3.031   8.997   2.958 -0.0917  0.8496 -1.6024
 6772SOL     OW22322   4.990   5.686   5.270 -0.0359 -0.2005  0.2096
 6772SOL    HW122323   4.998   5.607   5.323 -1.1398 -2.2217 -2.4493
 6772SOL    HW222324   5.065   5.683   5.211 -1.0812 -0.2749 -1.1460
 6773SOL     OW22325   1.756   6.693  10.982  0.3026  0.2732 -0.3074
 6773SOL    HW122326   1.715   6.686  11.068 -0.3107  0.8319 -0.5401
 6773SOL    HW222327   1.849   6.703  11.000  0.0976  1.1681  0.3342
 6774SOL     OW22328   2.669   7.011  10.560  0.3774 -0.6185 -0.2821
 6774SOL    HW122329   2.676   6.982  10.469 -2.0106 -0.8765 -0.4413
 6774SOL    HW222330   2.607   7.084  10.557  1.1062  0.0923  1.0222
 6775SOL     OW22331  10.606   1.671  11.012  0.3778 -0.2591 -0.6336
 6775SOL    HW122332  10.696   1.699  11.029  0.5265 -1.4370  0.7657
 6775SOL    HW222333  10.584   1.616  11.088 -2.1515  1.4238 -0.0292
 6776SOL     OW22334   3.495   0.148   6.397 -0.0579  0.1172 -0.1869
 6776SOL    HW122335   3.564   0.175   6.458 -0.2482  0.2654 -0.0360
 6776SOL    HW222336   3.508   0.054   6.388 -1.1302 -0.2291  1.4959
 6777SOL     OW22337   8.791  10.050   6.676 -0.1988  0.1250  0.2972
 6777SOL    HW122338   8.874  10.054   6.629 -0.5627 -0.1268 -0.3906
 6777SOL    HW222339   8.810  10.084   6.763  0.3007  1.4395 -0.3013
 6778SOL     OW22340   6.313   1.236  10.322 -0.6453 -0.0321 -0.4827
 6778SOL    HW122341   6.325   1.224  10.228 -4.1044 -1.4587 -0.8976
 6778SOL    HW222342   6.339   1.153  10.361  0.0868  0.3010 -0.2540
 6779SOL     OW22343   4.311   1.223   3.542  0.0367 -0.0039 -0.4884
 6779SOL    HW122344   4.351   1.298   3.586 -0.6330  0.8166 -1.2448
 6779SOL    HW222345   4.365   1.209   3.465 -0.6464  0.6075 -1.0921
 6780SOL     OW22346   4.658   7.830   0.281  0.1319  0.5042 -0.0296
 6780SOL    HW122347   4.585   7.877   0.321 -1.3587 -1.7742  0.0854
 6780SOL    HW222348   4.627   7.807   0.193  0.7846 -0.2992 -0.0663
 6781SOL     OW22349   2.871   5.510   5.521 -0.8755  0.8526  0.2112
 6781SOL    HW122350   2.815   5.584   5.498 -1.6525  0.4718  0.8382
 6781SOL    HW222351   2.849   5.490   5.612 -0.5225 -0.0113  0.1225
 6782SOL     OW22352  10.334   6.132   9.333  0.1354  0.1997  0.0611
 6782SOL    HW122353  10.239   6.141   9.329 -0.1121 -1.7860  0.3084
 6782SOL    HW222354  10.354   6.126   9.426  0.4551  0.1876 -0.0060
 6783SOL     OW22355   5.864   7.650   7.862 -0.0385 -0.5246 -0.8628
 6783SOL    HW122356   5.768   7.651   7.864 -0.0244  1.1994  0.3185
 6783SOL    HW222357   5.890   7.640   7.954  0.9165  0.0372 -1.0653
 6784SOL     OW22358   0.429   9.002   1.478  0.5853 -0.2882  0.6869
 6784SOL    HW122359   0.336   8.983   1.481  0.0758  1.9481  2.1803
 6784SOL    HW222360   0.453   8.994   1.386 -1.3374  0.1147  0.1062
 6785SOL     OW22361   2.460   1.056   5.078 -0.0140  0.1522  0.1739
 6785SOL    HW122362   2.401   0.984   5.098  1.2151 -1.0609 -0.4512
 6785SOL    HW222363   2.548   1.020   5.089  0.6319  1.5290 -0.2097
 6786SOL     OW22364   4.503   4.318   6.361 -0.0059 -0.1672 -0.1298
 6786SOL    HW122365   4.586   4.285   6.395  1.5598  0.3025 -3.1331
 6786SOL    HW222366   4.502   4.410   6.386 -0.1261 -0.3940  0.7421
 6787SOL     OW22367   1.389   6.319   8.828  0.3293 -0.1546  0.0763
 6787SOL    HW122368   1.465   6.263   8.845  0.8202  0.0324 -1.2981
 6787SOL    HW222369   1.329   6.263   8.778 -0.5875 -0.3841  1.3826
 6788SOL     OW22370   0.664   9.032   4.249  0.0460  0.0561 -0.2997
 6788SOL    HW122371   0.677   9.117   4.291  2.9792 -0.5182  0.2034
 6788SOL    HW222372   0.731   9.029   4.181 -0.2336 -1.7125 -0.5443
 6789SOL     OW22373   6.014   1.690   3.593  0.0332 -0.0788 -0.1806
 6789SOL    HW122374   6.011   1.700   3.498  0.8607  0.1058 -0.1959
 6789SOL    HW222375   5.958   1.614   3.611 -0.0335 -0.1896 -0.8218
 6790SOL     OW22376   2.961   5.021   3.145 -0.1038 -0.0017 -0.7481
 6790SOL    HW122377   2.899   5.093   3.153  0.4251  0.3478  0.4174
 6790SOL    HW222378   2.960   4.978   3.231  0.4021 -0.7045 -1.0766
 6791SOL     OW22379   9.644   8.736   7.055  0.1067 -0.1148  0.5004
 6791SOL    HW122380   9.698   8.766   7.128  0.6774  2.0004 -0.6942
 6791SOL    HW222381   9.685   8.773   6.978 -2.8239  1.4105 -0.5048
 6792SOL     OW22382   5.357   7.086   1.927  0.3125  0.1777 -0.5795
 6792SOL    HW122383   5.388   7.034   1.853 -0.4552 -0.5017 -0.4422
 6792SOL    HW222384   5.358   7.026   2.001 -0.2416  0.4523 -0.3406
 6793SOL     OW22385   3.879   0.491   2.381 -0.1603  0.5259 -0.4967
 6793SOL    HW122386   3.922   0.570   2.351 -2.0635  1.5360 -0.7143
 6793SOL    HW222387   3.811   0.474   2.316  0.2066 -1.3263 -0.4715
 6794SOL     OW22388   4.444   0.969   6.423  0.2362 -1.0260 -0.0977
 6794SOL    HW122389   4.515   1.021   6.460 -0.4157 -1.4236  1.8945
 6794SOL    HW222390   4.435   0.999   6.333  2.2492 -0.2779 -0.0870
 6795SOL     OW22391  10.974   0.538   7.056 -0.4218  0.5181  0.0926
 6795SOL    HW122392  10.906   0.586   7.008 -2.0977 -0.0422  1.7811
 6795SOL    HW222393  11.046   0.601   7.065 -0.2942  0.8544 -2.4763
 6796SOL     OW22394   3.585   1.155   2.333 -0.7148 -0.1098  0.0970
 6796SOL    HW122395   3.495   1.188   2.344 -1.3406 -1.6465 -0.1255
 6796SOL    HW222396   3.583   1.112   2.247  0.0068 -0.8714  0.4598
 6797SOL     OW22397   3.861   9.028   6.908 -0.2163  0.5909 -0.1112
 6797SOL    HW122398   3.956   9.023   6.915 -0.1564  0.6807 -0.8580
 6797SOL    HW222399   3.830   8.946   6.949  0.2185  0.1441 -0.6632
 6798SOL     OW22400  10.826   4.582   3.392 -0.8300  0.1558 -0.2090
 6798SOL    HW122401  10.735   4.603   3.370 -0.6341  0.1403 -1.0756
 6798SOL    HW222402  10.854   4.522   3.323 -0.5121 -0.7722  0.6976
 6799SOL     OW22403   3.425   0.880   2.651  0.2172  0.3092 -0.3362
 6799SOL    HW122404   3.389   0.810   2.597  1.6583  0.8041 -2.0204
 6799SOL    HW222405   3.349   0.934   2.674 -0.5420 -0.3724 -1.1910
 6800SOL     OW22406   5.221   6.122   8.790  0.6213  0.3740 -0.0345
 6800SOL    HW122407   5.145   6.133   8.848  0.1434 -0.5816 -0.4402
 6800SOL    HW222408   5.294   6.102   8.849 -0.1141 -1.8588  0.2380
 6801SOL     OW22409   1.599   6.529   8.289  0.0701 -0.2918 -0.0452
 6801SOL    HW122410   1.640   6.443   8.278  1.6051  0.5695 -1.7963
 6801SOL    HW222411   1.603   6.546   8.383 -0.1950 -2.0772  0.3280
 6802SOL     OW22412   5.734   1.332   6.147 -0.3291 -0.6443  0.2422
 6802SOL    HW122413   5.789   1.403   6.112 -0.6719  0.1274  1.2394
 6802SOL    HW222414   5.763   1.255   6.098 -2.1028  0.6459 -3.2141
 6803SOL     OW22415   8.210   3.035   5.964 -0.4365  0.4190 -0.5352
 6803SOL    HW122416   8.293   2.993   5.945 -0.4677 -0.1375  0.4770
 6803SOL    HW222417   8.144   2.968   5.946 -0.6749  0.8594 -1.3436
 6804SOL     OW22418  10.487   9.157   3.683 -0.3017  0.3241 -0.6027
 6804SOL    HW122419  10.579   9.149   3.708 -0.3446  0.1399 -0.5021
 6804SOL    HW222420  10.464   9.247   3.705 -0.1097  0.4113 -0.7500
 6805SOL     OW22421   4.047   4.279   9.996 -0.1209  0.2540  0.0275
 6805SOL    HW122422   4.097   4.333   9.934 -0.7849 -0.2807 -1.0029
 6805SOL    HW222423   4.110   4.256  10.064  1.2686 -0.9890 -1.5884
 6806SOL     OW22424   3.457   8.640   7.443  0.0292 -0.7928  0.4248
 6806SOL    HW122425   3.442   8.580   7.369  0.6800 -1.1447  0.5755
 6806SOL    HW222426   3.552   8.644   7.453  0.1631  1.9886 -0.9663
 6807SOL     OW22427   4.742   4.471   4.462 -0.0422  0.5328  0.0785
 6807SOL    HW122428   4.691   4.453   4.542 -0.2848  0.7953 -0.0151
 6807SOL    HW222429   4.810   4.404   4.462 -0.4499  0.1069  0.1553
 6808SOL     OW22430   6.677   8.670   6.308 -0.3607 -0.1903 -0.1215
 6808SOL    HW122431   6.670   8.656   6.402  0.5896 -0.6420 -0.1047
 6808SOL    HW222432   6.602   8.725   6.286 -0.9542 -0.6185  0.7849
 6809SOL     OW22433  10.117  10.145   7.853 -0.1148  0.2250  0.4012
 6809SOL    HW122434  10.157  10.224   7.816  0.2173  0.1187  0.5332
 6809SOL    HW222435  10.158  10.073   7.805 -1.6323  0.1875 -0.9027
 6810SOL     OW22436   4.637   0.027   8.307 -0.5996  0.0065 -0.4911
 6810SOL    HW122437   4.692  -0.012   8.239  0.0896 -0.4659  0.3229
 6810SOL    HW222438   4.691   0.027   8.386 -1.4330  0.4166  0.1054
 6811SOL     OW22439   8.104   0.846   9.005  0.2725  0.0867  0.0876
 6811SOL    HW122440   8.144   0.793   9.074  3.3020  1.6587 -0.3129
 6811SOL    HW222441   8.113   0.793   8.926  1.2655  0.2537  0.0771
 6812SOL     OW22442   3.164   9.183   1.524  0.7818  0.2518 -0.6042
 6812SOL    HW122443   3.093   9.123   1.550  3.2072 -2.3348  0.6098
 6812SOL    HW222444   3.196   9.218   1.607  2.3245 -0.4073 -0.8943
 6813SOL     OW22445   2.787   5.194   5.561 -0.1239 -0.1821 -0.2449
 6813SOL    HW122446   2.876   5.184   5.595 -0.4417 -0.4851  0.5186
 6813SOL    HW222447   2.798   5.243   5.480  0.5925  1.2070  0.6566
 6814SOL     OW22448   8.350   0.510   0.807  0.1815  0.4505  0.0682
 6814SOL    HW122449   8.314   0.477   0.724 -0.8114  1.1493  0.2004
 6814SOL    HW222450   8.274   0.517   0.865  0.6695  1.1760  0.6406
 6815SOL     OW22451   2.412   8.667   4.465  0.3558  0.4009  0.3018
 6815SOL    HW122452   2.483   8.698   4.409  1.9359 -2.7190  0.3328
 6815SOL    HW222453   2.445   8.678   4.554  1.3958 -2.0135  0.2950
 6816SOL     OW22454   3.740  10.379   1.539  0.4446  0.0327  0.8974
 6816SOL    HW122455   3.729  10.287   1.513 -3.5404  0.7776 -0.7250
 6816SOL    HW222456   3.815  10.409   1.488 -0.2136 -1.5337 -1.1327
 6817SOL     OW22457   0.687   0.415   8.565  0.3030 -0.5370  0.2882
 6817SOL    HW122458   0.665   0.457   8.482 -1.2238 -1.3997  0.2243
 6817SOL    HW222459   0.766   0.365   8.546 -0.0455 -0.7476 -0.6541
 6818SOL     OW22460  10.812   7.349   3.146 -0.1169  0.4789  0.8169
 6818SOL    HW122461  10.814   7.284   3.076  0.2201  0.1748  1.1019
 6818SOL    HW222462  10.884   7.324   3.204 -0.9302  0.1865  1.7404
 6819SOL     OW22463   2.084   3.802  10.940 -0.6297 -0.2260  0.4054
 6819SOL    HW122464   2.012   3.773  10.996 -1.3908  2.7679  1.1462
 6819SOL    HW222465   2.154   3.826  11.000  1.2956 -3.4173 -0.3143
 6820SOL     OW22466   1.014   4.927   1.961 -0.0402  0.4242  0.1101
 6820SOL    HW122467   1.036   4.998   1.902  0.2227 -1.4978 -2.2624
 6820SOL    HW222468   0.998   4.852   1.904 -1.7862 -1.0912  2.3751
 6821SOL     OW22469   2.159   4.994   4.045  0.1333  0.3748  0.2847
 6821SOL    HW122470   2.209   5.054   4.100  2.6641 -1.3363 -0.0095
 6821SOL    HW222471   2.144   5.043   3.963  0.1609  1.3599  0.8541
 6822SOL     OW22472   6.343   0.011   8.882 -0.2433  0.2033 -0.3663
 6822SOL    HW122473   6.318  -0.005   8.791  1.1376  1.5244 -1.0027
 6822SOL    HW222474   6.343   0.106   8.892  0.8077  0.1298  0.6635
 6823SOL     OW22475   4.879  10.359   2.902 -0.0289 -0.6758 -0.4074
 6823SOL    HW122476   4.816  10.371   2.973  0.0960  0.8579 -0.5200
 6823SOL    HW222477   4.961  10.338   2.945 -0.2233 -0.9536 -0.1684
 6824SOL     OW22478   1.639   6.483   2.069 -0.1654  0.3495  0.1111
 6824SOL    HW122479   1.548   6.455   2.059 -1.1119  3.0287  0.4405
 6824SOL    HW222480   1.658   6.532   1.989  0.5329  0.9878  0.6572
 6825SOL     OW22481   2.572  10.160   9.440 -0.1966 -0.4086  0.0763
 6825SOL    HW122482   2.650  10.168   9.385 -1.4638  0.2855 -1.7259
 6825SOL    HW222483   2.557  10.066   9.448  0.7267 -0.5405  0.3216
 6826SOL     OW22484   4.199   8.348   0.088 -0.3991  0.3259  0.8570
 6826SOL    HW122485   4.275   8.304   0.125  0.7512  0.1696 -1.4745
 6826SOL    HW222486   4.161   8.285   0.027 -0.8016  1.3180  0.0395
 6827SOL     OW22487   4.664  10.728   4.360 -0.0561 -0.5947 -0.6736
 6827SOL    HW122488   4.751  10.769   4.360 -0.5099  0.3727 -0.6957
 6827SOL    HW222489   4.618  10.768   4.433 -0.9379 -0.1176 -1.4713
 6828SOL     OW22490  10.133   1.949   4.044  0.1636  0.8421  0.3017
 6828SOL    HW122491  10.173   1.992   3.969 -0.6789  0.0028 -0.6511
 6828SOL    HW222492  10.053   1.999   4.061 -0.3777  0.1802 -0.2680
 6829SOL     OW22493   0.268   8.043   5.658 -0.4419  0.5168  0.3620
 6829SOL    HW122494   0.244   8.066   5.568  2.1633 -0.1692 -0.6183
 6829SOL    HW222495   0.309   7.957   5.650 -0.5085  0.2660  2.2881
 6830SOL     OW22496   1.820   0.572   4.824 -0.0829 -0.3207  0.3663
 6830SOL    HW122497   1.809   0.610   4.911  1.2084 -0.4376  0.5963
 6830SOL    HW222498   1.784   0.638   4.764  0.0231  0.2357  0.9100
 6831SOL     OW22499   5.703   9.454   4.902  0.3505 -0.3249 -0.3122
 6831SOL    HW122500   5.681   9.384   4.963  0.2560 -0.8874 -0.9832
 6831SOL    HW222501   5.679   9.420   4.816 -0.1940  0.7275 -0.6033
 6832SOL     OW22502   1.740   9.172   5.704 -0.6818 -0.1770  0.3299
 6832SOL    HW122503   1.655   9.148   5.741 -1.4499 -0.8379 -1.7126
 6832SOL    HW222504   1.740   9.267   5.705 -1.0983 -0.1776  1.1073
 6833SOL     OW22505   9.223   3.107   4.819 -0.0291 -0.5001 -0.1000
 6833SOL    HW122506   9.215   3.179   4.882  0.0230 -0.2991 -0.3252
 6833SOL    HW222507   9.138   3.062   4.823 -0.6040  0.4587 -1.0428
 6834SOL     OW22508   0.876   8.585   2.219 -0.1198  0.3485 -0.1363
 6834SOL    HW122509   0.891   8.678   2.199  0.6052  0.0983 -0.8370
 6834SOL    HW222510   0.821   8.585   2.297  1.4750  1.3697  1.0354
 6835SOL     OW22511   9.729  10.789   7.949  0.0775  0.5899 -0.2111
 6835SOL    HW122512   9.787  10.713   7.956  0.0719  0.5525 -0.5719
 6835SOL    HW222513   9.641  10.751   7.948  0.1039  0.5208 -1.4735
 6836SOL     OW22514   9.242   7.761   4.346  0.8370  0.2315 -0.2612
 6836SOL    HW122515   9.278   7.810   4.273  2.6509 -0.7910 -0.1201
 6836SOL    HW222516   9.296   7.786   4.421 -1.1652  1.4738  0.8498
 6837SOL     OW22517  10.302   9.146   5.677  0.9893  0.3030 -0.2171
 6837SOL    HW122518  10.230   9.142   5.741 -0.1325 -0.4217 -1.4546
 6837SOL    HW222519  10.323   9.239   5.670  1.6011  0.3418  1.6619
 6838SOL     OW22520   8.850   9.592   2.086 -0.7642 -0.0451 -0.0979
 6838SOL    HW122521   8.856   9.522   2.151  0.9312 -1.2343 -1.4508
 6838SOL    HW222522   8.764   9.631   2.101 -0.8075 -0.8696  2.2282
 6839SOL     OW22523   3.794   9.543   8.801  0.6169 -0.3523 -0.0145
 6839SOL    HW122524   3.866   9.487   8.829 -0.5834 -1.7836  0.3040
 6839SOL    HW222525   3.719   9.485   8.793 -0.8420  1.3049  0.9071
 6840SOL     OW22526   7.598   9.699   3.536 -0.5123 -0.1446  0.2631
 6840SOL    HW122527   7.668   9.747   3.580 -1.1350 -0.2322  1.4010
 6840SOL    HW222528   7.545   9.766   3.493 -0.4222  0.0409  0.4385
 6841SOL     OW22529   1.921   7.925   0.215  0.2294  0.1529 -0.3381
 6841SOL    HW122530   1.876   7.987   0.157 -0.5811  0.1565  0.2749
 6841SOL    HW222531   1.940   7.975   0.294  0.4728 -0.1083 -0.2296
 6842SOL     OW22532   5.326   1.318   4.983 -0.2226  0.0774  0.2333
 6842SOL    HW122533   5.250   1.350   4.934 -1.1647  0.0181  1.5793
 6842SOL    HW222534   5.294   1.308   5.073  1.3485 -0.1144  0.8088
 6843SOL     OW22535   0.461   5.797   0.931  0.2681  0.0900 -0.5142
 6843SOL    HW122536   0.501   5.744   1.000 -0.3908  1.6997  1.1873
 6843SOL    HW222537   0.372   5.762   0.923 -0.3205  1.1692  0.9374
 6844SOL     OW22538   9.621   4.827   0.466 -0.4951 -0.3009 -0.2763
 6844SOL    HW122539   9.590   4.906   0.511  0.6886  0.7456 -1.2462
 6844SOL    HW222540   9.716   4.828   0.478 -0.1284 -0.0135 -2.6944
 6845SOL     OW22541   4.564   3.424   0.718  0.2870 -0.1598  0.5507
 6845SOL    HW122542   4.510   3.439   0.641 -0.1973  1.2647  1.1446
 6845SOL    HW222543   4.654   3.439   0.687  0.0413  1.1303  0.4125
 6846SOL     OW22544   9.933   3.433   1.040 -0.0568 -0.5565 -0.4525
 6846SOL    HW122545   9.862   3.491   1.011 -0.7409 -0.9637  0.3607
 6846SOL    HW222546   9.996   3.434   0.968 -0.4727  0.4994 -0.8267
 6847SOL     OW22547   2.316  10.426   3.829  0.2945  0.1915 -0.3362
 6847SOL    HW122548   2.296  10.333   3.820 -0.2773  0.3557 -0.8258
 6847SOL    HW222549   2.365  10.448   3.750 -0.4296  0.5218 -0.7045
 6848SOL     OW22550   9.738   2.014   2.050  0.1900 -0.1234 -0.6011
 6848SOL    HW122551   9.727   1.996   2.144 -2.4474  0.4533 -0.7264
 6848SOL    HW222552   9.763   2.107   2.046  3.6418 -0.9039 -0.4219
 6849SOL     OW22553   9.809   4.190   5.823  0.3785  0.4636  0.9299
 6849SOL    HW122554   9.840   4.110   5.783 -0.7321  0.5150 -0.0782
 6849SOL    HW222555   9.837   4.260   5.763  0.1037  0.6987  1.0728
 6850SOL     OW22556   0.532   0.163  10.419 -0.0519  0.0923  0.7436
 6850SOL    HW122557   0.513   0.256  10.433  0.0281  0.4403 -1.1302
 6850SOL    HW222558   0.563   0.131  10.503  1.0644  2.0614  1.1302
 6851SOL     OW22559   3.414   8.618   4.204  0.3215 -0.6948  0.1932
 6851SOL    HW122560   3.336   8.592   4.251  1.5772 -1.5444  1.9077
 6851SOL    HW222561   3.460   8.677   4.264  0.7181  0.2958 -1.0326
 6852SOL     OW22562   6.595   2.221   2.261 -0.1351  0.0495  0.0328
 6852SOL    HW122563   6.563   2.296   2.210  2.1613  1.0199 -0.0839
 6852SOL    HW222564   6.683   2.206   2.229 -0.6400 -3.0407 -0.2417
 6853SOL     OW22565   9.350   7.450   6.734 -0.0229  0.0476  0.3439
 6853SOL    HW122566   9.285   7.437   6.665 -0.4907 -2.8394  1.1803
 6853SOL    HW222567   9.422   7.391   6.711  1.7028  2.0776  0.2270
 6854SOL     OW22568   5.826   1.544   3.836 -0.0638 -0.2787  0.1792
 6854SOL    HW122569   5.883   1.488   3.784  2.2504  0.6856  1.5061
 6854SOL    HW222570   5.800   1.490   3.910  0.7229 -0.1576  0.5528
 6855SOL     OW22571   9.911   3.953   1.520  0.1146  0.0779 -0.0164
 6855SOL    HW122572   9.840   3.950   1.455  0.1683 -1.4862 -0.0438
 6855SOL    HW222573   9.962   4.030   1.496 -0.6016  0.2576 -1.0478
 6856SOL     OW22574   1.012   8.593   3.984  0.2843 -0.1175 -0.4462
 6856SOL    HW122575   0.935   8.640   4.015  0.7125 -0.7046  1.6853
 6856SOL    HW222576   0.985   8.502   3.979  0.9824 -0.4300  0.9756
 6857SOL     OW22577   3.046   3.564   5.318  0.3019  0.7585  0.2680
 6857SOL    HW122578   2.997   3.575   5.236 -1.1113 -0.1211  0.9672
 6857SOL    HW222579   3.122   3.621   5.308  0.4737  0.2532 -1.8994
 6858SOL     OW22580  10.002   7.941   5.249  0.3972 -0.1782  0.2644
 6858SOL    HW122581   9.907   7.940   5.239  0.4685 -1.1261 -0.4064
 6858SOL    HW222582  10.033   7.999   5.178  0.2539  1.1787  1.2775
 6859SOL     OW22583   8.288   0.723   4.665 -0.0979  0.3447 -0.1315
 6859SOL    HW122584   8.357   0.770   4.617  0.2778  0.5787  0.6101
 6859SOL    HW222585   8.324   0.635   4.678  0.3510  0.6484  0.8037
 6860SOL     OW22586   8.887   6.944   5.138  0.5335 -0.8254  0.0200
 6860SOL    HW122587   8.884   6.914   5.047 -3.5089  0.6940 -0.5412
 6860SOL    HW222588   8.914   7.036   5.132 -0.8099 -0.3982  0.1721
 6861SOL     OW22589   2.281   0.996   9.339 -0.2138 -0.3312  0.9472
 6861SOL    HW122590   2.190   0.981   9.362 -0.1030  0.1852  1.7611
 6861SOL    HW222591   2.316   0.909   9.319 -0.6690 -0.6242  1.4167
 6862SOL     OW22592   4.383   8.018   3.560 -0.1895 -0.1449  0.4847
 6862SOL    HW122593   4.376   8.113   3.564  1.6600 -0.0021  1.3973
 6862SOL    HW222594   4.324   7.992   3.489 -1.4204  1.5720  0.8356
 6863SOL     OW22595   1.147   7.012   0.248  0.2705  0.0113 -0.0199
 6863SOL    HW122596   1.099   6.968   0.318  0.4569 -0.4181 -0.1635
 6863SOL    HW222597   1.203   7.075   0.293  0.3052 -0.1827  0.2117
 6864SOL     OW22598   3.358   8.505   8.408 -0.3174  0.3715 -0.4673
 6864SOL    HW122599   3.372   8.414   8.383 -0.0350  0.0216  0.8909
 6864SOL    HW222600   3.302   8.500   8.486  1.3262  1.2468  0.8347
 6865SOL     OW22601   4.933   8.134   7.336 -0.2159  0.5311 -0.1207
 6865SOL    HW122602   4.838   8.142   7.349 -0.2387  0.7028 -0.4020
 6865SOL    HW222603   4.942   8.066   7.269 -0.2103  1.7571 -1.3904
 6866SOL     OW22604   8.117   4.920   6.457 -0.6695 -0.2852  0.2882
 6866SOL    HW122605   8.210   4.943   6.453 -0.8699  0.5488  0.2898
 6866SOL    HW222606   8.099   4.911   6.551 -0.0993 -2.6048  0.2405
 6867SOL     OW22607   7.081   6.403   1.052 -0.2915 -0.1605  0.4436
 6867SOL    HW122608   7.035   6.321   1.069  0.9475 -0.7792  1.0008
 6867SOL    HW222609   7.173   6.377   1.043  0.1538  1.1945  0.8448
 6868SOL     OW22610  10.021   8.812   1.617  0.4463 -0.5786  0.4097
 6868SOL    HW122611   9.939   8.764   1.604  0.2567 -0.0404 -0.4794
 6868SOL    HW222612  10.005   8.867   1.693 -0.1909 -0.1260 -0.0482
 6869SOL     OW22613   1.092   4.514   1.337  0.4177 -0.5414  0.3144
 6869SOL    HW122614   1.123   4.581   1.276  0.5922 -0.7052  0.2239
 6869SOL    HW222615   1.142   4.435   1.314 -0.1523 -0.8431  0.0760
 6870SOL     OW22616   1.075   1.169   3.019 -0.7182  0.3393 -0.0819
 6870SOL    HW122617   0.999   1.129   2.977  0.1799 -1.4699 -0.0982
 6870SOL    HW222618   1.121   1.095   3.059 -0.3109  1.7091  2.1298
 6871SOL     OW22619   3.195  10.143   1.581  0.1506  0.5882 -0.0019
 6871SOL    HW122620   3.126  10.199   1.617 -0.2303 -0.4329  0.9273
 6871SOL    HW222621   3.150  10.091   1.514 -0.8044 -2.1470  2.5416
 6872SOL     OW22622   4.696   9.357   2.590 -0.4299 -0.3124  0.4943
 6872SOL    HW122623   4.603   9.370   2.612 -0.7597  0.0385 -0.9419
 6872SOL    HW222624   4.717   9.432   2.534  0.2328 -1.2497 -0.5481
 6873SOL     OW22625   8.127  10.095   2.923 -0.4510  0.1002  0.8248
 6873SOL    HW122626   8.117  10.133   3.010 -1.6464 -0.1213  0.7973
 6873SOL    HW222627   8.091  10.162   2.864 -1.5873 -0.6214  0.6853
 6874SOL     OW22628   1.458   0.607  10.119  0.6944 -0.4052  0.4943
 6874SOL    HW122629   1.486   0.533  10.066  0.2591  0.2807 -0.7137
 6874SOL    HW222630   1.537   0.633  10.168  1.7416  0.3409 -1.4775
 6875SOL     OW22631   3.691  10.374   0.432 -0.0899 -0.0775 -0.9543
 6875SOL    HW122632   3.692  10.464   0.401 -0.7799 -0.2601 -1.5330
 6875SOL    HW222633   3.618  10.333   0.385 -1.4053 -0.2806  1.1110
 6876SOL     OW22634  10.032   7.961   3.261 -0.0955  0.0014  0.0487
 6876SOL    HW122635  10.127   7.968   3.249 -0.2712 -0.5580 -2.0050
 6876SOL    HW222636  10.010   8.035   3.317  1.5441  0.1460  0.5650
 6877SOL     OW22637   7.826   9.872   3.602 -0.1115  0.0462 -0.4019
 6877SOL    HW122638   7.763   9.918   3.658 -0.1971 -2.7289  2.0463
 6877SOL    HW222639   7.907   9.922   3.611 -0.7623  1.0176  0.2663
 6878SOL     OW22640   9.812   5.401   7.211 -0.0660  0.2784 -0.3811
 6878SOL    HW122641   9.768   5.337   7.156  0.6901 -1.2826  0.7320
 6878SOL    HW222642   9.769   5.392   7.297  1.2322 -0.0859  0.2660
 6879SOL     OW22643   8.089   1.601   1.647  0.0930  0.0488  0.1190
 6879SOL    HW122644   8.132   1.685   1.659 -2.4044  1.4841 -0.1281
 6879SOL    HW222645   8.048   1.582   1.732 -0.7107 -0.0538 -0.2761
 6880SOL     OW22646   3.363   7.666   9.627  0.6404  0.4066 -0.7217
 6880SOL    HW122647   3.320   7.751   9.637 -2.5706 -0.9426 -1.5304
 6880SOL    HW222648   3.364   7.629   9.716 -1.8477 -0.3036 -0.9163
 6881SOL     OW22649   0.291   2.269   3.628 -0.0932  0.7111  0.3381
 6881SOL    HW122650   0.213   2.218   3.649  0.6075 -0.0235  1.2208
 6881SOL    HW222651   0.311   2.317   3.709  0.4679  0.7576  0.1784
 6882SOL     OW22652   9.397   1.589   5.403 -0.2752  0.5382  0.2211
 6882SOL    HW122653   9.360   1.543   5.478  1.2282  0.6111  1.0416
 6882SOL    HW222654   9.448   1.522   5.357 -1.4788  0.3989 -0.9812
 6883SOL     OW22655   2.499  10.879   3.373 -0.0350  0.0114 -0.7208
 6883SOL    HW122656   2.531  10.790   3.358  1.3226  0.5456 -1.1119
 6883SOL    HW222657   2.496  10.918   3.286  0.0393  0.5700 -0.4772
 6884SOL     OW22658   0.867  10.573   7.429  0.2011 -0.1252 -0.3452
 6884SOL    HW122659   0.804  10.501   7.427  1.3687 -1.1900 -0.8617
 6884SOL    HW222660   0.931  10.546   7.495  0.6442  0.4286 -0.5390
 6885SOL     OW22661  10.191   0.201   3.378 -0.0340  0.3524 -0.5031
 6885SOL    HW122662  10.124   0.269   3.373 -0.7559 -0.4080 -3.0102
 6885SOL    HW222663  10.274   0.248   3.374 -0.5156  1.1532 -2.2161
 6886SOL     OW22664  10.847   0.290   4.909 -0.2331  0.1239  0.2100
 6886SOL    HW122665  10.831   0.383   4.927 -0.1454 -0.2146  2.3892
 6886SOL    HW222666  10.762   0.256   4.882 -0.3553  0.7524 -0.2231
 6887SOL     OW22667   3.777   5.600   3.994  0.2172 -0.4077 -0.3408
 6887SOL    HW122668   3.868   5.584   4.019  0.0523  2.4248  2.6981
 6887SOL    HW222669   3.782   5.638   3.907  1.8037 -1.2704 -0.6648
 6888SOL     OW22670   2.013   4.852   5.037 -0.5093 -0.1979 -0.5767
 6888SOL    HW122671   1.985   4.898   4.958 -3.4252  1.2259  1.1106
 6888SOL    HW222672   2.057   4.774   5.005 -0.4864  0.9343 -3.5887
 6889SOL     OW22673   8.524   9.612   3.198  0.3288 -0.3104  0.0026
 6889SOL    HW122674   8.611   9.604   3.236  0.2878 -0.7510  0.0122
 6889SOL    HW222675   8.537   9.601   3.104  0.7749  3.2314 -0.4699
 6890SOL     OW22676   4.311   8.913   7.306 -0.0363  0.1923  0.2645
 6890SOL    HW122677   4.258   8.987   7.278 -1.4199 -1.0830 -0.6462
 6890SOL    HW222678   4.249   8.840   7.313  1.5830 -1.3907 -0.9085
 6891SOL     OW22679   3.616  10.515   6.963 -0.1389 -0.2076 -0.2727
 6891SOL    HW122680   3.650  10.434   6.925  1.2593 -1.0077  2.4309
 6891SOL    HW222681   3.525  10.495   6.985 -0.4314 -0.3029 -1.5046
 6892SOL     OW22682   1.162   9.756  10.780 -0.0805 -0.1313 -0.0874
 6892SOL    HW122683   1.188   9.835  10.827  0.5993 -0.2307 -0.2964
 6892SOL    HW222684   1.072   9.774  10.752 -0.3456  0.0918  0.8923
 6893SOL     OW22685   1.690   7.625   7.119  0.6412 -0.1969  0.2143
 6893SOL    HW122686   1.756   7.555   7.117  3.9058  2.5947 -0.0815
 6893SOL    HW222687   1.683   7.655   7.028 -0.8231 -0.1910  0.3022
 6894SOL     OW22688   4.830  10.775   3.977  0.1097 -0.4605  0.3334
 6894SOL    HW122689   4.780  10.746   3.901  0.7978 -2.1830  0.4842
 6894SOL    HW222690   4.911  10.724   3.972  0.7328  0.3776  1.5063
 6895SOL     OW22691   0.841   6.676   0.085 -0.1572  0.4001 -0.1826
 6895SOL    HW122692   0.899   6.644   0.153 -0.0088  0.9425 -0.0461
 6895SOL    HW222693   0.900   6.704   0.015 -0.3402 -1.1211 -0.9875
 6896SOL     OW22694   0.295   0.299   5.132 -0.6957  0.2097  0.3811
 6896SOL    HW122695   0.278   0.210   5.165  0.1241  0.0804  0.4685
 6896SOL    HW222696   0.388   0.299   5.110 -0.3857  1.4588  1.6206
 6897SOL     OW22697   8.614   5.626   4.542  0.1172 -0.0156  0.3515
 6897SOL    HW122698   8.607   5.607   4.635  0.9649  1.4295  0.7407
 6897SOL    HW222699   8.529   5.599   4.505  1.2320 -4.8459  0.6597
 6898SOL     OW22700  10.424   6.229   8.231  0.2652 -0.7464  0.3379
 6898SOL    HW122701  10.349   6.249   8.176  1.4755  0.2705 -0.9958
 6898SOL    HW222702  10.472   6.162   8.183  1.3266  0.1452  0.1106
 6899SOL     OW22703   6.913   1.395   6.285 -0.1116 -0.4399 -0.2309
 6899SOL    HW122704   6.920   1.491   6.285 -1.0788 -0.3334 -1.7607
 6899SOL    HW222705   6.822   1.378   6.262  0.1815 -1.7283 -0.4997
 6900SOL     OW22706   2.529   9.671   7.258 -0.4380 -0.1321  0.1560
 6900SOL    HW122707   2.582   9.640   7.185 -1.7600 -0.7368 -0.5705
 6900SOL    HW222708   2.576   9.748   7.290  1.0667 -0.8605 -0.2127
 6901SOL     OW22709   9.222   7.484   5.928  0.2778  0.4367  0.1038
 6901SOL    HW122710   9.187   7.431   5.999 -0.0624 -0.7197 -0.8933
 6901SOL    HW222711   9.311   7.451   5.916  0.1151  0.1938 -0.4303
 6902SOL     OW22712  10.173   6.113   2.164 -0.1034 -0.1234 -0.2363
 6902SOL    HW122713  10.083   6.143   2.177 -0.3428 -0.3411 -1.3168
 6902SOL    HW222714  10.222   6.193   2.146 -0.2745 -0.1115 -0.6580
 6903SOL     OW22715   5.175   8.819   3.904  0.5975 -0.6225  0.3776
 6903SOL    HW122716   5.216   8.819   3.991 -0.0163 -1.5991  0.6917
 6903SOL    HW222717   5.186   8.729   3.873  2.5381  0.1731 -1.4317
 6904SOL     OW22718   5.996   8.917   5.673  0.0002  0.3450  0.0331
 6904SOL    HW122719   5.949   8.995   5.643 -2.0132 -0.1130  1.7209
 6904SOL    HW222720   5.948   8.844   5.634  0.3200 -0.0955  0.4555
 6905SOL     OW22721   4.498   5.192   2.739  0.4512  0.0200 -0.1644
 6905SOL    HW122722   4.483   5.259   2.805  0.0763  0.3285 -0.5558
 6905SOL    HW222723   4.477   5.235   2.656 -0.1817 -0.6885 -0.3860
 6906SOL     OW22724   9.459   0.370   3.778 -0.1038  0.3024  0.1230
 6906SOL    HW122725   9.406   0.426   3.721  2.3079  0.8085 -1.7995
 6906SOL    HW222726   9.544   0.413   3.780  1.1185 -2.0257  0.5923
 6907SOL     OW22727   1.676   1.379   3.751  0.0263  0.4091  0.3432
 6907SOL    HW122728   1.648   1.292   3.721 -0.5489  0.6880  0.0655
 6907SOL    HW222729   1.645   1.439   3.683  0.0353  0.8824  0.7555
 6908SOL     OW22730  10.061   0.532   6.635 -0.4178 -0.3810  0.2674
 6908SOL    HW122731  10.066   0.552   6.728  0.0813  2.2071 -0.2391
 6908SOL    HW222732   9.983   0.579   6.605  0.3284  0.1725 -0.8816
 6909SOL     OW22733   0.215   8.390   4.655 -0.4680  0.5895  0.3325
 6909SOL    HW122734   0.269   8.408   4.578 -2.0743  2.7867 -0.3956
 6909SOL    HW222735   0.263   8.324   4.704  1.6191  0.6449 -1.5113
 6910SOL     OW22736   8.576   2.592   3.463 -0.3667 -0.1369 -0.7463
 6910SOL    HW122737   8.488   2.578   3.498 -0.9229  1.0569 -1.5724
 6910SOL    HW222738   8.600   2.679   3.494  0.3748 -0.3058 -0.8387
 6911SOL     OW22739   2.216   8.387   3.005  0.3724 -0.2817  0.5436
 6911SOL    HW122740   2.146   8.401   2.941 -0.1239  0.5867  1.2571
 6911SOL    HW222741   2.296   8.412   2.959 -0.0770  1.2570  0.5332
 6912SOL     OW22742   1.302   6.661   3.952 -0.6805 -0.2203  0.0481
 6912SOL    HW122743   1.283   6.730   4.016 -2.1235 -0.0270 -0.5406
 6912SOL    HW222744   1.394   6.673   3.931  0.0518 -0.7738  2.6222
 6913SOL     OW22745   4.417   8.494  10.494  0.1312  0.0924 -0.0699
 6913SOL    HW122746   4.408   8.501  10.589 -1.0800 -1.1809 -0.0616
 6913SOL    HW222747   4.507   8.462  10.481  0.0624 -0.4480  0.6963
 6914SOL     OW22748  11.029   6.469   4.282  0.3406  0.2699 -0.5076
 6914SOL    HW122749  10.970   6.404   4.245  1.9682 -0.9954 -1.0052
 6914SOL    HW222750  11.001   6.552   4.245 -1.3149 -0.2452 -0.4534
 6915SOL     OW22751  11.073  10.321   6.936 -1.1753 -0.3230  0.2606
 6915SOL    HW122752  11.136  10.342   6.867 -2.3453  0.7613 -0.5277
 6915SOL    HW222753  11.104  10.369   7.012 -1.2466  0.5235 -0.2312
 6916SOL     OW22754   1.012   6.004   1.298  0.1067  0.0039 -0.8324
 6916SOL    HW122755   1.099   6.032   1.270  0.0094  0.2202 -0.9211
 6916SOL    HW222756   0.967   5.979   1.217 -0.7350  2.1792 -1.1150
 6917SOL     OW22757  11.016   9.261   3.786  0.1804  0.2734  0.1403
 6917SOL    HW122758  10.968   9.246   3.704  0.1351 -1.1836  0.3962
 6917SOL    HW222759  11.082   9.191   3.788  1.0339  1.0727  0.7331
 6918SOL     OW22760   0.767   0.060   6.243 -0.2833 -0.0778  0.0029
 6918SOL    HW122761   0.787   0.044   6.335 -1.4790 -2.4436 -0.0588
 6918SOL    HW222762   0.811   0.142   6.222  1.0208 -0.1046  2.3446
 6919SOL     OW22763   1.043   4.271  11.047 -0.0468 -0.1433 -0.2617
 6919SOL    HW122764   1.128   4.237  11.019 -0.1478  0.0745 -0.8460
 6919SOL    HW222765   0.994   4.194  11.076  0.0067 -0.3982 -0.8417
 6920SOL     OW22766   0.157   7.968   7.385  0.2045 -0.5084 -0.5227
 6920SOL    HW122767   0.157   7.902   7.455 -1.7052  0.2252  0.2503
 6920SOL    HW222768   0.230   8.026   7.407 -0.0496 -0.5867  0.6255
 6921SOL     OW22769   7.075   0.313   1.542  0.3061 -0.4183  0.7565
 6921SOL    HW122770   7.112   0.399   1.558 -0.5726  0.3058 -0.8589
 6921SOL    HW222771   7.145   0.252   1.565  1.7910  0.8233 -0.2949
 6922SOL     OW22772   9.578  10.421   8.820 -0.2495  0.3854 -0.3734
 6922SOL    HW122773   9.620  10.339   8.795  1.7589  1.2756 -0.1806
 6922SOL    HW222774   9.628  10.451   8.896 -0.8907  1.8080 -0.4811
 6923SOL     OW22775   5.997  10.790   6.792  0.3350 -0.7181  0.7706
 6923SOL    HW122776   6.027  10.701   6.774  0.1843 -0.4830 -0.7609
 6923SOL    HW222777   5.904  10.789   6.771 -0.3059 -0.8325  3.2598
 6924SOL     OW22778   9.162   1.030  10.320 -0.0139  0.1753  0.0650
 6924SOL    HW122779   9.190   1.050  10.231 -1.5193  0.1076 -0.4479
 6924SOL    HW222780   9.100   0.958  10.311 -0.4368  0.3770  1.1272
 6925SOL     OW22781   2.827   7.907   7.591  0.3430  0.6086  0.0588
 6925SOL    HW122782   2.917   7.902   7.620  0.6128  1.5022 -0.5581
 6925SOL    HW222783   2.832   7.951   7.506 -0.7333  1.4024  0.3776
 6926SOL     OW22784   2.071   8.165   4.454  0.1690 -0.4668 -0.3280
 6926SOL    HW122785   2.145   8.178   4.514 -1.1483  1.6014  0.9947
 6926SOL    HW222786   2.046   8.253   4.427 -2.8341 -0.8985  0.6288
 6927SOL     OW22787   4.981   6.164   8.950 -0.4271  0.0963  0.1370
 6927SOL    HW122788   4.887   6.179   8.960 -0.0268  2.7247  0.7935
 6927SOL    HW222789   5.017   6.251   8.929  1.7767 -0.9578 -0.7324
 6928SOL     OW22790  10.780   1.276   1.502  0.3289 -0.2184  0.3026
 6928SOL    HW122791  10.789   1.204   1.564 -0.7955  0.0395  0.7925
 6928SOL    HW222792  10.729   1.342   1.549 -1.7113 -0.5468 -1.3115
 6929SOL     OW22793  10.970   3.312   4.919  0.2358 -0.2562  0.0930
 6929SOL    HW122794  10.899   3.373   4.940  1.6275  2.6330 -2.6573
 6929SOL    HW222795  11.029   3.316   4.994 -0.2941  0.9223  0.4703
 6930SOL     OW22796   0.004   0.631   0.860  0.4810 -0.6618  0.2346
 6930SOL    HW122797   0.099   0.624   0.864  0.3272 -2.4591  2.4439
 6930SOL    HW222798  -0.027   0.540   0.868 -1.4249 -0.0073  0.7585
 6931SOL     OW22799   9.103   1.542   4.851 -0.2179  0.5541  0.2910
 6931SOL    HW122800   9.190   1.554   4.812 -0.2551 -2.9152 -1.2224
 6931SOL    HW222801   9.122   1.512   4.940  0.1010  0.5238  0.2165
 6932SOL     OW22802   3.340   9.949  10.124  0.0578  0.4986 -0.1391
 6932SOL    HW122803   3.342   9.944  10.220  0.1383  0.9289 -0.1138
 6932SOL    HW222804   3.392   9.875  10.094 -0.8674 -0.2745  0.1278
 6933SOL     OW22805   0.734   9.848   5.295  0.5097  0.0760 -0.6802
 6933SOL    HW122806   0.677   9.862   5.220 -1.0703 -0.3941  0.3938
 6933SOL    HW222807   0.720   9.925   5.350  1.2210  0.1437 -0.5792
 6934SOL     OW22808   2.481   3.653   6.940 -0.0015  0.3504 -0.2847
 6934SOL    HW122809   2.554   3.606   6.899  0.0326 -0.1103  0.2826
 6934SOL    HW222810   2.405   3.633   6.886  0.1444  0.1803 -0.4257
 6935SOL     OW22811   5.811   6.508   9.314  0.7793 -0.3772  0.0540
 6935SOL    HW122812   5.752   6.435   9.334  0.8069 -0.6234 -0.7330
 6935SOL    HW222813   5.760   6.565   9.257  0.4320  0.7178  1.3937
 6936SOL     OW22814   8.764  10.148   3.502  0.8316 -0.6041 -0.0884
 6936SOL    HW122815   8.681  10.102   3.516 -0.5001  0.9592 -2.2285
 6936SOL    HW222816   8.831  10.083   3.526 -0.9497 -2.7757 -0.5952
 6937SOL     OW22817   3.132   1.295   9.758 -0.1056 -0.2884  0.3732
 6937SOL    HW122818   3.078   1.318   9.683 -0.2737  0.4487  0.7116
 6937SOL    HW222819   3.072   1.299   9.833  0.2102 -0.3497  0.6358
 6938SOL     OW22820   1.005  10.357   3.639 -0.4049  0.8216 -0.3754
 6938SOL    HW122821   0.949  10.372   3.563 -1.1708  0.8293  0.1700
 6938SOL    HW222822   1.067  10.430   3.639 -0.4247  0.8375 -0.9720
 6939SOL     OW22823   2.619   0.317   4.066 -0.1191 -0.3052 -0.1537
 6939SOL    HW122824   2.680   0.319   3.992  1.0591  1.8584  0.7600
 6939SOL    HW222825   2.532   0.325   4.026  0.5131  1.2315 -1.3288
 6940SOL     OW22826   1.659   3.206   7.891 -0.4599 -0.0142  0.3806
 6940SOL    HW122827   1.695   3.196   7.980 -1.4359 -0.7038  0.7070
 6940SOL    HW222828   1.737   3.213   7.835  0.1815 -0.3957  1.1978
 6941SOL     OW22829  10.634   0.486   8.545  0.3790  0.1688  0.1490
 6941SOL    HW122830  10.584   0.427   8.489  0.3493  0.5900 -0.2756
 6941SOL    HW222831  10.724   0.456   8.539  0.4800  0.6132 -0.6552
 6942SOL     OW22832   4.667   3.776   3.850  0.2942 -0.3566  0.1546
 6942SOL    HW122833   4.619   3.846   3.893 -2.6387 -0.0946 -3.0518
 6942SOL    HW222834   4.667   3.704   3.912  1.1362  1.5747  2.5479
 6943SOL     OW22835   3.274   5.533   1.933 -0.0689  0.4081 -0.8562
 6943SOL    HW122836   3.237   5.610   1.890  1.5723  0.6536 -1.9182
 6943SOL    HW222837   3.270   5.464   1.867 -0.6364 -0.1694 -0.2351
 6944SOL     OW22838   1.499   2.100   6.741  0.0660 -0.1331  0.2490
 6944SOL    HW122839   1.490   2.030   6.676 -0.2002  0.0932  0.0378
 6944SOL    HW222840   1.519   2.178   6.689 -0.4344  0.1098  0.4114
 6945SOL     OW22841   1.674   2.552   8.371  0.0561  0.6295 -0.6897
 6945SOL    HW122842   1.586   2.571   8.339 -0.4083 -1.2719 -0.6734
 6945SOL    HW222843   1.682   2.602   8.452 -0.7899  1.2564 -0.9854
 6946SOL     OW22844   3.221   0.712   5.272 -0.8849 -0.2032  0.2563
 6946SOL    HW122845   3.262   0.633   5.306  0.0679 -0.2290 -0.8759
 6946SOL    HW222846   3.156   0.680   5.210 -0.0154 -0.1216 -0.7322
 6947SOL     OW22847   9.704  10.154  10.552  0.1596 -0.0916  0.6971
 6947SOL    HW122848   9.698  10.226  10.615  1.4297  0.6362  0.0113
 6947SOL    HW222849   9.712  10.197  10.467 -2.8734 -1.0374 -0.1914
 6948SOL     OW22850   4.417   8.650   7.164 -0.3803  0.2992 -0.6073
 6948SOL    HW122851   4.367   8.601   7.229  1.6442 -1.1144 -0.0166
 6948SOL    HW222852   4.397   8.605   7.081 -2.0544  1.3866 -0.8485
 6949SOL     OW22853   9.550   1.200   5.657 -0.4117  0.0544  0.6889
 6949SOL    HW122854   9.459   1.168   5.661 -0.0027 -1.0422  2.8863
 6949SOL    HW222855   9.602   1.126   5.690  1.1644  1.0640  0.5258
 6950SOL     OW22856   1.109   3.499   0.895 -0.2713 -0.0146 -0.2880
 6950SOL    HW122857   1.137   3.489   0.804 -0.6452  0.3103 -0.4387
 6950SOL    HW222858   1.129   3.414   0.935 -4.4542 -2.0239 -1.8419
 6951SOL     OW22859   7.760   8.805   8.895  0.0762 -0.0099 -0.7367
 6951SOL    HW122860   7.713   8.785   8.976  0.8874 -0.2819 -0.3200
 6951SOL    HW222861   7.753   8.725   8.843  0.5463 -0.2588 -0.4322
 6952SOL     OW22862   9.991   4.822   9.805  0.4338  0.4260  0.3694
 6952SOL    HW122863  10.075   4.781   9.781 -0.8193 -1.5308 -0.9562
 6952SOL    HW222864   9.925   4.766   9.765 -1.5007  3.0056 -0.2942
 6953SOL     OW22865   3.816   7.940   1.838 -0.2818 -0.1563  0.7746
 6953SOL    HW122866   3.890   7.889   1.871  1.9129  2.3981  0.0950
 6953SOL    HW222867   3.750   7.933   1.907  1.8108  0.0092  2.9188
 6954SOL     OW22868   1.224   0.357   4.505  0.0626  0.0358  0.5300
 6954SOL    HW122869   1.189   0.291   4.446 -0.7735  1.4730 -0.6459
 6954SOL    HW222870   1.192   0.441   4.470  1.0974  1.0795  1.9424
 6955SOL     OW22871   3.063   5.331   6.617  0.1645  0.1208 -0.5260
 6955SOL    HW122872   3.109   5.298   6.695  1.3973 -0.2551 -1.3806
 6955SOL    HW222873   3.001   5.395   6.651 -0.6205 -1.3587  0.9569
 6956SOL     OW22874   7.619   7.348   2.214 -0.2527  0.2102  0.2606
 6956SOL    HW122875   7.580   7.408   2.151  0.5414  0.8570  0.3715
 6956SOL    HW222876   7.641   7.270   2.163  1.1164  1.0280 -0.4606
 6957SOL     OW22877   0.304   9.049   5.945  0.3527  0.7017 -0.3191
 6957SOL    HW122878   0.392   9.040   5.909  0.7775 -0.8396  0.9841
 6957SOL    HW222879   0.253   8.982   5.900 -0.2580  1.7294 -1.2264
 6958SOL     OW22880   0.246   9.095   4.924 -0.3110 -0.2211 -0.4901
 6958SOL    HW122881   0.186   9.062   4.857 -1.8514  0.7000  0.3883
 6958SOL    HW222882   0.192   9.152   4.979  0.6707 -1.6098  2.0883
 6959SOL     OW22883   2.300   1.165   3.977  0.5268  0.2149 -0.0286
 6959SOL    HW122884   2.349   1.226   3.922 -1.2301 -0.7115 -2.8299
 6959SOL    HW222885   2.367   1.117   4.025  2.3489  0.1020 -2.4738
 6960SOL     OW22886   1.646  10.371   4.995 -0.2031 -0.6048  0.8851
 6960SOL    HW122887   1.579  10.357   4.928  0.0449 -0.6698  0.6492
 6960SOL    HW222888   1.605  10.430   5.058 -0.6589 -1.0492  1.0052
 6961SOL     OW22889  10.482   8.988   4.790 -0.4927 -0.2816  0.7486
 6961SOL    HW122890  10.426   9.014   4.864  1.1603 -0.0950  2.0055
 6961SOL    HW222891  10.533   9.066   4.770 -0.7395 -0.4120 -0.4445
 6962SOL     OW22892   2.736   8.685   5.098 -0.2597  0.5303 -0.0232
 6962SOL    HW122893   2.662   8.746   5.092 -1.2714 -0.7273 -1.3555
 6962SOL    HW222894   2.791   8.707   5.022  0.0547  0.6330  0.2342
 6963SOL     OW22895   5.466   3.089   0.107 -0.1733 -0.1432 -0.2271
 6963SOL    HW122896   5.380   3.131   0.108  0.1777  0.5942  0.2556
 6963SOL    HW222897   5.476   3.052   0.195 -0.5247 -1.3636 -0.6812
 6964SOL     OW22898   3.931   2.878   4.275 -0.2036 -0.3533 -0.5012
 6964SOL    HW122899   3.936   2.804   4.336  0.7481 -0.0035 -0.1270
 6964SOL    HW222900   4.015   2.877   4.230 -0.6744 -0.2482 -1.4035
 6965SOL     OW22901  10.672   1.827   6.278  0.3593 -0.8008 -0.0986
 6965SOL    HW122902  10.632   1.842   6.363 -2.4377  5.0171 -1.9144
 6965SOL    HW222903  10.605   1.778   6.229  0.1659 -0.5672 -0.0712
 6966SOL     OW22904   1.470   8.801   4.125 -0.2190 -0.2435  0.1009
 6966SOL    HW122905   1.396   8.767   4.076  0.9190 -1.2642 -0.9737
 6966SOL    HW222906   1.462   8.761   4.212 -1.9931  1.2279  0.6811
 6967SOL     OW22907  10.123   3.784   7.589  0.8105  0.0612  0.6888
 6967SOL    HW122908  10.148   3.705   7.543  1.3170  0.9381 -0.5996
 6967SOL    HW222909  10.164   3.855   7.540 -0.2674  1.1838  1.3403
 6968SOL     OW22910  10.827   3.111   2.969 -0.3506 -0.2502  1.0658
 6968SOL    HW122911  10.889   3.039   2.984 -1.4516 -1.2294  1.0154
 6968SOL    HW222912  10.855   3.179   3.031  0.7245 -0.6956  1.0965
 6969SOL     OW22913   9.914  10.472   7.061 -0.3486  0.7101 -0.0165
 6969SOL    HW122914   9.888  10.504   7.147 -0.4080  1.7844 -0.4176
 6969SOL    HW222915   9.837  10.426   7.027 -0.2260  0.0152  0.6084
 6970SOL     OW22916   1.290  11.021   7.800 -0.0283 -0.5907 -0.3239
 6970SOL    HW122917   1.337  11.066   7.871  1.3019 -0.2181 -1.3836
 6970SOL    HW222918   1.198  11.041   7.815  0.0468 -1.7114  2.1037
 6971SOL     OW22919   7.817   4.494   9.446  0.2032  0.3540  0.0183
 6971SOL    HW122920   7.740   4.529   9.401 -0.9626  0.2292  1.8041
 6971SOL    HW222921   7.813   4.532   9.533  0.9457 -1.3280  0.8417
 6972SOL     OW22922   0.111   7.435   0.870 -0.2305 -0.0194  0.0537
 6972SOL    HW122923   0.047   7.479   0.814 -1.5203 -0.1924  1.3334
 6972SOL    HW222924   0.184   7.415   0.811 -0.1540  2.6072 -0.8726
 6973SOL     OW22925   4.307   1.379   0.851 -0.1202 -0.1949  0.1633
 6973SOL    HW122926   4.235   1.424   0.896 -0.6116 -1.8234  1.1011
 6973SOL    HW222927   4.386   1.425   0.880 -0.6927  0.8616  0.0778
 6974SOL     OW22928   2.607   4.402   8.414  0.1527  0.3265 -0.1772
 6974SOL    HW122929   2.661   4.332   8.377  0.2931 -0.1405  0.8901
 6974SOL    HW222930   2.539   4.357   8.463 -1.6347  0.8892 -1.9841
 6975SOL     OW22931   8.956   6.769   8.735 -0.0181  0.2319  0.1138
 6975SOL    HW122932   8.976   6.698   8.675  1.4875  0.7401 -0.0075
 6975SOL    HW222933   8.980   6.735   8.821 -0.6515  0.0915  0.2424
 6976SOL     OW22934   3.143   9.611   7.175 -0.4371  0.4114  0.2688
 6976SOL    HW122935   3.223   9.571   7.208 -1.8954 -1.6851  1.5027
 6976SOL    HW222936   3.138   9.695   7.219  0.3774 -0.0466  1.2705
 6977SOL     OW22937  11.005   1.688  10.365 -0.1182  0.2748 -0.1845
 6977SOL    HW122938  10.919   1.668  10.400 -0.7464  0.2570 -1.6719
 6977SOL    HW222939  11.032   1.767  10.412 -1.4137  0.8874 -0.4342
 6978SOL     OW22940   0.486   6.036   7.892 -0.2834 -0.0089  0.3482
 6978SOL    HW122941   0.406   5.984   7.901 -1.1402  0.6329 -2.4863
 6978SOL    HW222942   0.556   5.971   7.883 -0.8336 -0.6081  0.3223
 6979SOL     OW22943   9.202   8.525   5.484 -0.2318 -0.3436 -0.3421
 6979SOL    HW122944   9.175   8.493   5.398  0.2131 -0.1372 -0.5610
 6979SOL    HW222945   9.226   8.446   5.533 -0.8254 -0.4948 -0.2794
 6980SOL     OW22946   8.524   9.933   5.626  0.4291  0.4736  0.0032
 6980SOL    HW122947   8.498  10.017   5.664  2.3941  0.7382  0.9352
 6980SOL    HW222948   8.563   9.885   5.700 -0.3224 -1.1198 -0.5915
 6981SOL     OW22949   8.963   7.008   5.882  0.7329  0.1682  0.2744
 6981SOL    HW122950   9.055   7.030   5.866  0.1977  0.9063 -2.1784
 6981SOL    HW222951   8.952   6.922   5.842  0.8401 -1.0278  2.6290
 6982SOL     OW22952   1.660   3.434  10.559  0.1682 -0.1495  0.9283
 6982SOL    HW122953   1.607   3.503  10.600 -1.6832 -0.4820 -0.7631
 6982SOL    HW222954   1.738   3.480  10.527 -0.9462  1.1644 -0.0124
 6983SOL     OW22955   0.401   8.296   2.502  0.5528 -0.0040 -0.4457
 6983SOL    HW122956   0.387   8.220   2.559  0.6432 -1.0600 -1.7770
 6983SOL    HW222957   0.428   8.366   2.561  0.4282 -0.9954  0.8235
 6984SOL     OW22958  10.353   3.697   4.610 -0.4465 -0.0580  0.0792
 6984SOL    HW122959  10.309   3.625   4.655 -0.6662 -0.2784 -0.4754
 6984SOL    HW222960  10.347   3.771   4.670  1.7924 -1.0665  1.6905
 6985SOL     OW22961   5.260   9.270   9.603  0.1911 -0.1042 -0.6260
 6985SOL    HW122962   5.284   9.318   9.682  1.0758  0.8852 -1.4583
 6985SOL    HW222963   5.166   9.254   9.612  0.0750  0.9026  0.1506
 6986SOL     OW22964   7.927   7.475   5.821 -0.1742 -0.1342 -0.7013
 6986SOL    HW122965   7.898   7.547   5.877  1.1249 -0.6476  0.6974
 6986SOL    HW222966   8.011   7.448   5.858  0.4372 -0.9285 -2.5248
 6987SOL     OW22967   4.893   9.533   2.162 -0.0395  0.2259  0.5863
 6987SOL    HW122968   4.955   9.546   2.091  1.1480 -2.4672  1.0136
 6987SOL    HW222969   4.827   9.474   2.127 -1.2241  1.3460  0.8188
 6988SOL     OW22970  10.753   0.079   6.636  0.3632 -0.2439 -0.0276
 6988SOL    HW122971  10.740   0.171   6.614 -3.9610 -0.9624 -1.2523
 6988SOL    HW222972  10.714   0.069   6.723  1.6047 -0.8539  0.5010
 6989SOL     OW22973   3.346   9.771   6.265 -0.2682 -0.1043  0.2170
 6989SOL    HW122974   3.299   9.693   6.234 -1.6056  0.7146  0.1158
 6989SOL    HW222975   3.430   9.768   6.219 -1.0648 -0.4654 -1.2767
 6990SOL     OW22976   2.339   5.942   8.584  0.0079 -0.2221 -0.6596
 6990SOL    HW122977   2.423   5.911   8.618 -0.0197  0.0342 -0.3559
 6990SOL    HW222978   2.317   5.880   8.514 -1.5652 -2.8264  1.9057
 6991SOL     OW22979   2.432  11.041   8.342  0.0935 -0.0129  0.1810
 6991SOL    HW122980   2.410  11.130   8.369 -0.8596  0.3791 -1.7734
 6991SOL    HW222981   2.527  11.043   8.327 -0.2610  1.4138 -2.2792
 6992SOL     OW22982   2.035   2.652   5.289  0.1664  0.0026 -0.6011
 6992SOL    HW122983   2.018   2.558   5.288  1.3978 -0.2616  0.8691
 6992SOL    HW222984   1.975   2.687   5.354  0.3799  0.0877 -0.4484
 6993SOL     OW22985   0.201   9.858   1.726  0.3501 -0.1119 -0.1809
 6993SOL    HW122986   0.291   9.859   1.759  1.1753  2.1127 -2.1447
 6993SOL    HW222987   0.168   9.946   1.745 -0.1367  0.2727 -2.4272
 6994SOL     OW22988   1.972   7.996   8.953 -0.0399 -0.1086  0.4259
 6994SOL    HW122989   1.900   7.979   8.892 -0.7363 -1.1412  1.4906
 6994SOL    HW222990   2.050   8.003   8.897 -1.1419  2.6586 -0.9143
 6995SOL     OW22991   0.392   0.519   3.822  0.1438 -0.0383 -0.8197
 6995SOL    HW122992   0.313   0.471   3.846  0.7282 -0.0759  1.1617
 6995SOL    HW222993   0.360   0.603   3.790 -0.6920  0.6341  1.5885
 6996SOL     OW22994   4.415   3.075   0.346  0.1723  0.3715 -0.7298
 6996SOL    HW122995   4.424   3.161   0.386 -0.4400  0.8872 -1.6579
 6996SOL    HW222996   4.377   3.020   0.415  1.0707  0.7000  0.0369
 6997SOL     OW22997   4.363   7.030   5.078 -0.2900  0.0813  0.3672
 6997SOL    HW122998   4.454   7.015   5.104  0.0104  2.3236  0.8501
 6997SOL    HW222999   4.312   6.982   5.143  0.5381  0.5456  1.4002
 6998SOL     OW23000   1.327   7.348  10.223  0.0744  0.6048  0.5207
 6998SOL    HW123001   1.354   7.361  10.314 -1.9437  0.2638  1.2145
 6998SOL    HW223002   1.383   7.406  10.172  2.3593 -0.3825  1.7789
 6999SOL     OW23003   4.548   0.205   4.612  0.3961 -0.5641  0.4515
 6999SOL    HW123004   4.554   0.110   4.607  0.1438 -0.5788  0.4417
 6999SOL    HW223005   4.612   0.230   4.679  3.4720 -0.4220 -2.2979
 7000SOL     OW23006   4.016   0.935   5.186  0.2089  0.3959 -0.1949
 7000SOL    HW123007   4.078   0.872   5.150 -0.9691  0.2244 -2.0336
 7000SOL    HW223008   3.966   0.884   5.251  1.1545  0.2296  0.4227
 7001SOL     OW23009   7.535  10.533   7.390 -0.0919  0.0703  0.2889
 7001SOL    HW123010   7.446  10.522   7.422  0.0828  2.1832  1.7192
 7001SOL    HW223011   7.573  10.446   7.393 -2.0561 -0.8591 -0.2779
 7002SOL     OW23012   5.545   8.932   5.798  0.1360  0.0622  0.3031
 7002SOL    HW123013   5.472   8.873   5.818  0.3644  0.2471  1.8385
 7002SOL    HW223014   5.596   8.886   5.732  0.6792 -1.8333  1.9237
 7003SOL     OW23015   0.225  10.530   5.607  0.1350  0.5550  0.6493
 7003SOL    HW123016   0.300  10.523   5.548 -1.0265 -1.2596 -0.7530
 7003SOL    HW223017   0.255  10.492   5.690  1.1026  0.9326  0.4836
 7004SOL     OW23018   1.782  11.028   2.543 -0.1228 -0.2238  0.2253
 7004SOL    HW123019   1.726  11.097   2.508 -1.7812 -2.2027 -1.2661
 7004SOL    HW223020   1.756  11.019   2.634  1.1468  2.0102  0.8939
 7005SOL     OW23021   5.444   9.915   0.106  0.1195  0.1323 -0.3137
 7005SOL    HW123022   5.405   9.950   0.027 -2.3130 -0.3211  0.6084
 7005SOL    HW223023   5.452   9.821   0.089  1.4420  0.2844 -0.6975
 7006SOL     OW23024  10.595   8.438  10.606  0.9226  0.5019  0.2610
 7006SOL    HW123025  10.535   8.383  10.555  2.0414  0.2736 -0.8600
 7006SOL    HW223026  10.555   8.443  10.692 -0.3204 -0.2716 -0.2378
 7007SOL     OW23027   5.773   0.713   1.804  0.0873  0.0030  0.2757
 7007SOL    HW123028   5.823   0.703   1.885  0.3533 -1.6054 -0.0408
 7007SOL    HW223029   5.832   0.758   1.744  0.1419  0.5698  0.7519
 7008SOL     OW23030   0.904   2.570   9.329 -0.0567  0.2381 -0.2967
 7008SOL    HW123031   0.809   2.577   9.335 -0.2790 -1.2490 -1.5687
 7008SOL    HW223032   0.921   2.478   9.313  1.5629  0.5880 -0.8247
 7009SOL     OW23033  10.590   5.036   2.322  0.4556  0.5875 -0.1332
 7009SOL    HW123034  10.566   5.010   2.234  0.7604  2.6881 -0.9010
 7009SOL    HW223035  10.650   5.110   2.310  0.3057  1.0968  1.8177
 7010SOL     OW23036   0.793  10.427  11.025 -0.2453 -0.3987  0.0024
 7010SOL    HW123037   0.710  10.393  10.992  0.7720 -2.3385 -0.7629
 7010SOL    HW223038   0.809  10.377  11.105  0.1189  0.0659  0.2270
 7011SOL     OW23039   3.145   5.684   4.926  0.7085 -0.3671  0.5777
 7011SOL    HW123040   3.208   5.632   4.974  0.1603 -0.3718  1.3031
 7011SOL    HW223041   3.149   5.771   4.967  0.4009 -0.3069  0.4854
 7012SOL     OW23042   5.103   8.899   5.039  0.2490  0.2444 -0.2856
 7012SOL    HW123043   5.139   8.947   5.114  0.4079  0.2970 -0.3947
 7012SOL    HW223044   5.128   8.808   5.056 -1.0703 -0.0010  0.5244
 7013SOL     OW23045   8.584   3.103   1.189  0.1435 -0.1362 -0.1177
 7013SOL    HW123046   8.619   3.146   1.110 -0.8207 -0.5228 -0.7750
 7013SOL    HW223047   8.614   3.158   1.261  0.5849  0.5427 -0.7941
 7014SOL     OW23048   0.883   6.864   1.507 -0.0132  0.4436 -0.6435
 7014SOL    HW123049   0.799   6.910   1.499  0.2257  0.6910 -1.8559
 7014SOL    HW223050   0.941   6.908   1.444  0.9996  0.1973  0.0797
 7015SOL     OW23051   3.030   4.088   9.649 -0.3620  0.3310 -0.3035
 7015SOL    HW123052   3.107   4.083   9.706  0.6866 -0.3379 -1.6980
 7015SOL    HW223053   3.022   4.180   9.627  1.1544  0.2276 -1.5046
 7016SOL     OW23054   9.510   3.024   7.321  0.4928  0.4114 -0.0309
 7016SOL    HW123055   9.550   3.036   7.235  0.8229 -1.2702 -0.1418
 7016SOL    HW223056   9.415   3.027   7.305  0.5533  0.0164 -0.4701
 7017SOL     OW23057  10.321  10.870   0.144 -0.3432 -0.5622 -0.1877
 7017SOL    HW123058  10.284  10.952   0.176  1.6219  0.1823  0.3820
 7017SOL    HW223059  10.271  10.850   0.066 -0.5256  1.5150 -0.6693
 7018SOL     OW23060   0.801   3.630   8.216  0.3464  0.4662  0.4461
 7018SOL    HW123061   0.736   3.649   8.149 -1.9744  1.0704  2.7401
 7018SOL    HW223062   0.786   3.538   8.239  0.3802  0.5680  0.8908
 7019SOL     OW23063   2.021   2.328   2.618 -0.2393  0.0401  0.3004
 7019SOL    HW123064   2.017   2.233   2.630 -0.2650 -0.0153 -0.1494
 7019SOL    HW223065   2.068   2.360   2.695 -0.1150 -0.3487  0.3864
 7020SOL     OW23066   3.733   1.638   5.121 -0.1362 -0.3315  0.6957
 7020SOL    HW123067   3.703   1.690   5.047 -1.1424 -0.6195  0.8912
 7020SOL    HW223068   3.676   1.561   5.122  1.7663 -1.8693 -0.0436
 7021SOL     OW23069   0.264   5.985   6.378  0.1274 -0.2745 -0.0288
 7021SOL    HW123070   0.331   6.050   6.353  0.0318 -0.4532 -0.7685
 7021SOL    HW223071   0.293   5.953   6.463 -1.3433  2.8418  1.8454
 7022SOL     OW23072   8.370   0.863  10.738 -0.3333  0.0398  0.8944
 7022SOL    HW123073   8.309   0.805  10.693  0.4585  0.3693 -0.6455
 7022SOL    HW223074   8.343   0.857  10.830 -4.1630  1.9153  0.1026
 7023SOL     OW23075   8.164  10.475   6.681 -0.4099  0.0955 -0.3257
 7023SOL    HW123076   8.161  10.483   6.776 -0.2080  1.0014 -0.3900
 7023SOL    HW223077   8.248  10.433   6.663 -1.5421 -2.4876  0.0221
 7024SOL     OW23078   9.568   9.369   2.422 -0.2547  0.3642  0.5471
 7024SOL    HW123079   9.653   9.340   2.456  0.4282  1.1490 -0.4504
 7024SOL    HW223080   9.517   9.391   2.500  0.2653 -0.5922  1.1789
 7025SOL     OW23081   1.100   2.342  10.184 -0.6729  0.2997  0.1916
 7025SOL    HW123082   1.077   2.374  10.272 -0.6921  0.5838  0.0848
 7025SOL    HW223083   1.109   2.422  10.131  2.8143  0.4175  0.7292
 7026SOL     OW23084   1.578   9.147   1.577 -0.3677  0.1240  0.5245
 7026SOL    HW123085   1.648   9.099   1.533 -0.0525 -0.2600  1.4170
 7026SOL    HW223086   1.497   9.112   1.540 -0.0975  0.3134 -0.2549
 7027SOL     OW23087   7.153   8.594   8.206 -0.0836  0.2880  0.1244
 7027SOL    HW123088   7.235   8.552   8.179 -1.0389 -1.8149  0.3069
 7027SOL    HW223089   7.177   8.644   8.284  0.9011 -0.9050  0.6269
 7028SOL     OW23090   6.379   8.694   0.668 -0.6088 -0.0774  0.5065
 7028SOL    HW123091   6.454   8.751   0.650 -0.2474 -0.3195  1.2011
 7028SOL    HW223092   6.303   8.747   0.646 -0.2188 -0.3149 -1.5787
 7029SOL     OW23093   1.903   9.395   4.599  0.2123  0.4877  0.1763
 7029SOL    HW123094   1.937   9.317   4.642  3.8523  1.8460  0.1578
 7029SOL    HW223095   1.969   9.416   4.533 -1.2912  2.8247 -0.6827
 7030SOL     OW23096   9.472  10.836   5.303  0.5397 -0.0099 -0.3847
 7030SOL    HW123097   9.534  10.908   5.295  0.2393  0.3978  0.8070
 7030SOL    HW223098   9.435  10.845   5.391 -1.5198  0.0004 -1.2051
 7031SOL     OW23099   0.736   5.765   6.953 -0.6527  0.3959 -0.0580
 7031SOL    HW123100   0.777   5.681   6.976  1.0380  1.6912  2.1000
 7031SOL    HW223101   0.661   5.771   7.012  1.3793  1.9394  2.5803
 7032SOL     OW23102   2.489  10.302   7.643 -0.0526 -0.3805  0.4106
 7032SOL    HW123103   2.513  10.284   7.552 -0.1744 -0.0153  0.3042
 7032SOL    HW223104   2.563  10.352   7.678 -1.0536  1.6330 -0.2124
 7033SOL     OW23105   7.534   0.038   3.652  0.3137 -0.0100 -0.0163
 7033SOL    HW123106   7.471   0.082   3.594 -0.1539 -2.5788 -1.6074
 7033SOL    HW223107   7.483   0.009   3.726 -0.2647 -1.3713 -0.9154
 7034SOL     OW23108  10.432   1.162   7.018 -0.4331 -0.4754 -0.0042
 7034SOL    HW123109  10.407   1.072   6.999 -2.0940  0.2230 -1.3575
 7034SOL    HW223110  10.526   1.166   6.999 -0.4311 -1.7921 -0.3338
 7035SOL     OW23111   3.330   8.196  10.070 -0.0936  0.1163  0.3697
 7035SOL    HW123112   3.293   8.110  10.048  0.1670 -0.1018  0.7701
 7035SOL    HW223113   3.272   8.259  10.027 -1.0761 -0.2031  1.1992
 7036SOL     OW23114   1.011   6.459   6.336  0.1936  0.5038 -0.0038
 7036SOL    HW123115   1.010   6.517   6.260  0.3158  0.6014  0.0681
 7036SOL    HW223116   1.096   6.415   6.332  0.0089  0.1585 -0.1847
 7037SOL     OW23117   4.195   0.354   5.425 -0.0085  0.1303  0.3788
 7037SOL    HW123118   4.198   0.380   5.333 -0.8567  0.5132  0.4492
 7037SOL    HW223119   4.259   0.283   5.432 -1.5284 -1.4792 -1.0285
 7038SOL     OW23120   4.361   8.189   3.982 -0.0244 -0.0035 -0.1372
 7038SOL    HW123121   4.383   8.145   4.063  0.2864  0.2004 -0.1066
 7038SOL    HW223122   4.307   8.263   4.008 -0.0062  0.0055 -0.1235
 7039SOL     OW23123   1.627  10.391   1.834  0.6775  0.0652  0.1762
 7039SOL    HW123124   1.637  10.484   1.815 -0.3688  0.5455  1.8396
 7039SOL    HW223125   1.707  10.368   1.882  1.1444 -0.0145 -0.6308
 7040SOL     OW23126   6.825   3.203   7.263  0.1591  0.5205  0.6744
 7040SOL    HW123127   6.732   3.181   7.273  0.3484  0.3742  2.5501
 7040SOL    HW223128   6.825   3.297   7.242 -0.4473  0.0684 -1.5657
 7041SOL     OW23129   9.775   0.556   6.466 -0.2450 -0.1612 -0.6775
 7041SOL    HW123130   9.764   0.540   6.560 -0.5669  1.8820 -0.3121
 7041SOL    HW223131   9.704   0.616   6.444  1.6612  1.9184 -1.4893
 7042SOL     OW23132  10.808   6.414   1.155 -0.0827  0.0115 -0.0712
 7042SOL    HW123133  10.813   6.354   1.080 -0.8793  0.1370 -0.2423
 7042SOL    HW223134  10.864   6.375   1.221 -0.1936 -0.6645 -0.3625
 7043SOL     OW23135   3.599   6.559   6.992 -0.2245  0.2023  0.8772
 7043SOL    HW123136   3.656   6.598   6.926 -0.6912 -0.8204 -0.1620
 7043SOL    HW223137   3.556   6.634   7.033  1.7909  1.0023  1.6707
 7044SOL     OW23138   8.204   0.359   9.731 -0.1205 -0.1337  0.1284
 7044SOL    HW123139   8.255   0.304   9.791 -0.7491 -0.8326  0.0366
 7044SOL    HW223140   8.158   0.420   9.788 -0.4936 -0.6105  0.3499
 7045SOL     OW23141   0.300   9.034  10.554 -0.8045 -0.0043  0.3869
 7045SOL    HW123142   0.226   9.015  10.498  1.1634  1.3494 -2.9977
 7045SOL    HW223143   0.366   8.969  10.530  0.6169  1.5251 -0.0419
 7046SOL     OW23144   1.138  10.426   4.707 -0.6357  0.3156 -0.0986
 7046SOL    HW123145   1.175  10.511   4.682 -0.9664  0.3412 -0.5082
 7046SOL    HW223146   1.140  10.374   4.627  1.0182 -0.6146  0.4964
 7047SOL     OW23147   4.284   9.750   6.150 -0.1141  0.9162  0.0417
 7047SOL    HW123148   4.310   9.665   6.185  1.0443  0.9342 -0.7338
 7047SOL    HW223149   4.228   9.787   6.218  0.7195  0.2567  1.1314
 7048SOL     OW23150   0.063   5.903   9.113 -0.3910  0.3156  0.1535
 7048SOL    HW123151   0.101   5.924   9.199  0.5466  0.0609 -0.1868
 7048SOL    HW223152   0.020   5.984   9.086  0.0846  0.6824  0.4661
 7049SOL     OW23153   8.081   1.695   8.892  0.2954  0.3007 -0.6989
 7049SOL    HW123154   8.138   1.621   8.871  1.1382  0.2225  1.5278
 7049SOL    HW223155   8.014   1.694   8.824 -0.6179 -3.4773  0.0059
 7050SOL     OW23156   3.153   0.537   5.654 -0.1679 -0.9355 -0.2569
 7050SOL    HW123157   3.101   0.600   5.705  1.6577 -0.2538  0.8390
 7050SOL    HW223158   3.167   0.463   5.713  1.1581 -0.5547 -0.0728
 7051SOL     OW23159  10.623   3.061   9.100  0.5169  0.3222 -0.2162
 7051SOL    HW123160  10.664   2.977   9.117  1.3057  0.7962  0.3024
 7051SOL    HW223161  10.650   3.083   9.011 -0.6432 -0.4916 -0.7929
 7052SOL     OW23162   9.838   2.721   0.219  0.2162 -0.3980  0.9745
 7052SOL    HW123163   9.845   2.716   0.314  0.7917 -2.4723  0.8840
 7052SOL    HW223164   9.918   2.681   0.186  0.5578  1.3130 -0.4314
 7053SOL     OW23165   1.170   3.327   2.075  0.7190  0.7727  0.5890
 7053SOL    HW123166   1.209   3.339   2.161 -1.5663 -0.7456  1.9244
 7053SOL    HW223167   1.164   3.233   2.063 -0.3438  0.9585 -0.5902
 7054SOL     OW23168   5.107   4.628   8.653  0.2129 -0.2880 -0.3405
 7054SOL    HW123169   5.154   4.560   8.605 -2.1487 -0.6874 -2.2909
 7054SOL    HW223170   5.128   4.611   8.745  0.3600 -3.1580 -0.8122
 7055SOL     OW23171  10.969   9.946  10.522  0.0763  0.3181  0.2364
 7055SOL    HW123172  11.016   9.973  10.444 -2.3490  2.9237 -0.4762
 7055SOL    HW223173  10.981  10.018  10.584 -2.4639  0.9274  0.1617
 7056SOL     OW23174   9.951   9.404  10.801 -0.8329 -0.0631  0.3102
 7056SOL    HW123175  10.000   9.484  10.819 -0.4233  0.0960 -1.3604
 7056SOL    HW223176   9.880   9.405  10.866  1.0669 -0.0974  2.5045
 7057SOL     OW23177   8.977   8.345   4.247 -0.0448 -0.2513 -0.5247
 7057SOL    HW123178   8.993   8.404   4.320  2.1787 -2.2597  0.7802
 7057SOL    HW223179   8.882   8.330   4.248 -0.1983  0.6242  1.2519
 7058SOL     OW23180   7.586   6.440   6.914 -0.1709  0.1087 -0.2576
 7058SOL    HW123181   7.644   6.369   6.887  2.2572  2.5502 -2.0779
 7058SOL    HW223182   7.631   6.481   6.988 -1.3679 -0.0346  0.5734
 7059SOL     OW23183   8.536   0.856   4.528 -0.3201 -0.0929  0.2982
 7059SOL    HW123184   8.483   0.862   4.448 -2.1146  1.1126  1.5185
 7059SOL    HW223185   8.624   0.836   4.496 -1.0271  0.0903 -1.9632
 7060SOL     OW23186  10.762  10.482   6.592 -0.1050 -0.3176 -0.2825
 7060SOL    HW123187  10.736  10.569   6.562  0.0334 -0.4706 -0.8545
 7060SOL    HW223188  10.727  10.422   6.526 -0.9113 -0.7740  0.5245
 7061SOL     OW23189  10.704   0.746   0.114  0.1969 -0.1456  0.1340
 7061SOL    HW123190  10.756   0.687   0.060  1.4503 -0.5175  1.6830
 7061SOL    HW223191  10.764   0.816   0.139 -0.6994  0.6784  0.0425
 7062SOL     OW23192   2.859   6.658   4.947 -0.6391 -0.0455 -0.1826
 7062SOL    HW123193   2.900   6.635   5.030 -2.2494 -2.2933  0.0958
 7062SOL    HW223194   2.925   6.638   4.881 -0.2245 -0.6840  0.4172
 7063SOL     OW23195   0.908   4.622   1.796  0.3559 -0.2632  0.1593
 7063SOL    HW123196   0.993   4.623   1.840 -0.2054  0.7287  1.2827
 7063SOL    HW223197   0.865   4.542   1.827  1.0488 -1.0248 -0.7946
 7064SOL     OW23198   1.640  10.568   9.254 -0.3466  0.2081  0.0772
 7064SOL    HW123199   1.733  10.552   9.242 -0.2064  0.8301  0.2880
 7064SOL    HW223200   1.633  10.663   9.261 -1.0039  0.1686  0.0044
 7065SOL     OW23201   6.991   9.256   9.663 -0.2088  0.3069 -0.2591
 7065SOL    HW123202   7.065   9.197   9.650  1.4962  2.0543  0.9857
 7065SOL    HW223203   6.927   9.229   9.597  1.5049 -1.3062 -1.3594
 7066SOL     OW23204   1.135   5.121   3.250 -0.1292 -0.3693 -0.0890
 7066SOL    HW123205   1.179   5.110   3.166 -0.1837 -0.1795 -0.1421
 7066SOL    HW223206   1.047   5.085   3.236  0.5279 -2.3711  0.5071
 7067SOL     OW23207   1.023   9.367   4.166  0.7788  0.2642  0.1414
 7067SOL    HW123208   0.997   9.281   4.132  0.7361  0.6810 -0.9329
 7067SOL    HW223209   1.095   9.348   4.226  2.0334 -0.4015 -1.4961
 7068SOL     OW23210   7.456   9.824   3.815 -0.2188 -0.0346 -0.1587
 7068SOL    HW123211   7.494   9.817   3.903  1.8634  0.9064 -0.9136
 7068SOL    HW223212   7.503   9.897   3.775 -0.7481 -0.7700 -2.2200
 7069SOL     OW23213   2.295   0.043   6.066 -0.7551 -0.2277  0.1976
 7069SOL    HW123214   2.360   0.045   5.996 -1.0592 -0.3615 -0.0907
 7069SOL    HW223215   2.341   0.003   6.140 -0.5107 -0.3318 -0.0083
 7070SOL     OW23216  10.886   1.701   0.286 -0.1695 -0.4386 -0.1805
 7070SOL    HW123217  10.920   1.629   0.339 -3.5759 -3.0755 -1.1950
 7070SOL    HW223218  10.794   1.708   0.313 -0.5794  1.8683 -1.9317
 7071SOL     OW23219   2.546   0.996   6.250  0.4731 -0.1069  0.7642
 7071SOL    HW123220   2.580   1.069   6.302  0.6141  0.0762  0.4195
 7071SOL    HW223221   2.452   1.010   6.247  0.6824  1.3288 -1.1631
 7072SOL     OW23222   1.243   5.201   2.862 -0.8061 -0.7511  0.0088
 7072SOL    HW123223   1.187   5.137   2.905  0.8123 -1.5864  0.9467
 7072SOL    HW223224   1.328   5.157   2.852  1.2281  2.0081  3.1284
 7073SOL     OW23225   3.840   1.043   1.646  0.0228 -0.3819  0.9959
 7073SOL    HW123226   3.870   0.952   1.642  0.6864 -0.1407 -0.0141
 7073SOL    HW223227   3.918   1.094   1.623  0.1797  0.5741  3.4462
 7074SOL     OW23228   4.811   9.010  10.252  0.2258  0.0333 -0.1057
 7074SOL    HW123229   4.826   8.964  10.335  1.2310  0.2736 -0.1333
 7074SOL    HW223230   4.762   9.088  10.276 -0.2951 -0.3597  0.1301
 7075SOL     OW23231   2.456   6.448   8.106 -0.6858 -0.3866  0.3443
 7075SOL    HW123232   2.501   6.529   8.129 -0.2205 -0.1205 -1.3364
 7075SOL    HW223233   2.391   6.436   8.175 -1.0419  1.6526  0.4346
 7076SOL     OW23234   5.866   3.533   5.388  0.2623 -0.5746 -0.2614
 7076SOL    HW123235   5.942   3.538   5.330  1.4944  0.4069  1.3460
 7076SOL    HW223236   5.791   3.535   5.330  1.4384 -0.0528 -1.8350
 7077SOL     OW23237   9.040   7.775   3.266  0.2758 -0.5395 -0.4226
 7077SOL    HW123238   9.125   7.747   3.231  0.1177 -0.4322 -0.8955
 7077SOL    HW223239   8.997   7.693   3.292  0.3691 -0.6267 -0.5381
 7078SOL     OW23240   1.357   8.505   3.291  0.8021  0.4787 -0.4291
 7078SOL    HW123241   1.367   8.586   3.242  0.2751  1.3072  0.7899
 7078SOL    HW223242   1.263   8.485   3.285  0.8736  0.1404 -0.4358
 7079SOL     OW23243   0.638   2.651   7.828  0.2146 -0.0743 -0.3969
 7079SOL    HW123244   0.697   2.726   7.836 -1.0200  0.9507 -0.7747
 7079SOL    HW223245   0.652   2.601   7.909 -1.1756  2.1984  1.3641
 7080SOL     OW23246  10.212   1.628   7.074 -0.0803  0.3550 -0.4923
 7080SOL    HW123247  10.267   1.677   7.135 -0.7528 -0.1649  0.5539
 7080SOL    HW223248  10.268   1.556   7.044  0.9361  1.7520 -2.0983
 7081SOL     OW23249   9.713   8.122   2.093 -0.6317 -0.1223  0.4444
 7081SOL    HW123250   9.735   8.029   2.096 -0.9608 -0.2308 -0.2412
 7081SOL    HW223251   9.617   8.124   2.093 -0.6861  0.0741 -2.2265
 7082SOL     OW23252   0.585   1.011   2.417  0.1592  0.2159  0.6623
 7082SOL    HW123253   0.522   0.975   2.479 -0.3524 -1.5321 -0.7925
 7082SOL    HW223254   0.640   0.937   2.391  3.0196  1.7031  1.9953
 7083SOL     OW23255   3.203   6.151   7.848  0.5465  0.3650  0.5592
 7083SOL    HW123256   3.204   6.118   7.938  0.4957  0.5938  0.6417
 7083SOL    HW223257   3.230   6.242   7.855  0.5415  0.3835  0.3415
 7084SOL     OW23258   1.075   4.213   6.382 -0.4124 -0.7067  0.4706
 7084SOL    HW123259   1.009   4.252   6.325 -0.2257 -1.7037 -0.4710
 7084SOL    HW223260   1.027   4.187   6.460 -1.0446 -0.9584  0.0086
 7085SOL     OW23261   9.139  10.373  11.011 -0.0321  0.6163  0.1705
 7085SOL    HW123262   9.054  10.333  10.989  0.2191 -0.6705  1.4240
 7085SOL    HW223263   9.118  10.464  11.032 -0.7148  1.0533 -2.0879
 7086SOL     OW23264   2.715   7.700   6.016  0.0550  0.2374 -0.1010
 7086SOL    HW123265   2.705   7.788   5.978 -1.1071  0.6327  1.0719
 7086SOL    HW223266   2.627   7.676   6.044  1.0387  0.7056  3.9280
 7087SOL     OW23267   8.888  10.006   7.354 -0.3549 -0.5236  0.2569
 7087SOL    HW123268   8.946   9.933   7.331  0.0284  0.5149 -2.4582
 7087SOL    HW223269   8.946  10.072   7.391 -0.3714 -0.7572  0.7116
 7088SOL     OW23270   6.723  10.591   0.474  0.7210  0.0994 -0.1611
 7088SOL    HW123271   6.753  10.589   0.384  1.9728 -3.7704  0.1731
 7088SOL    HW223272   6.630  10.613   0.468  0.3844 -1.6284 -2.5798
 7089SOL     OW23273   5.307  10.555   7.256  0.3499 -0.1515 -0.0342
 7089SOL    HW123274   5.309  10.631   7.199 -0.3953 -0.6561 -0.7485
 7089SOL    HW223275   5.278  10.483   7.200 -0.6741 -0.6050  1.0448
 7090SOL     OW23276   5.664   3.808   8.240 -0.5734 -0.1028 -0.5952
 7090SOL    HW123277   5.571   3.814   8.265 -0.0144 -1.2723  2.1122
 7090SOL    HW223278   5.699   3.895   8.258 -0.5946 -0.4163  1.1689
 7091SOL     OW23279   8.834   1.407   8.064 -0.0662 -0.1123  0.4398
 7091SOL    HW123280   8.849   1.320   8.027  0.4641 -0.5521  1.6633
 7091SOL    HW223281   8.743   1.405   8.094 -0.3171  0.0512 -0.2889
 7092SOL     OW23282   1.361   5.883   4.237 -0.4579 -0.3131  0.7614
 7092SOL    HW123283   1.320   5.803   4.206  1.3960 -1.0622  0.0982
 7092SOL    HW223284   1.330   5.951   4.176 -2.6605 -0.3005  1.7987
 7093SOL     OW23285  10.538  10.517   5.876  0.6034 -0.1085 -0.0567
 7093SOL    HW123286  10.467  10.498   5.937 -0.4943 -0.8332 -1.5156
 7093SOL    HW223287  10.496  10.561   5.802  1.6932 -0.3858 -0.8676
 7094SOL     OW23288   0.941   8.852   2.167 -0.3920 -0.1718  0.6191
 7094SOL    HW123289   1.017   8.812   2.124 -1.3812 -0.0200 -1.3900
 7094SOL    HW223290   0.963   8.945   2.174 -0.9229  0.1445 -1.3336
 7095SOL     OW23291   0.653   3.411   7.970 -0.2756  0.3973 -0.3423
 7095SOL    HW123292   0.723   3.354   8.001 -1.1369 -0.7306 -0.3744
 7095SOL    HW223293   0.659   3.406   7.875 -1.7908 -1.6000 -0.4066
 7096SOL     OW23294   1.222   7.673   3.248  0.2497 -0.0507  0.5308
 7096SOL    HW123295   1.216   7.762   3.213 -0.5770  0.0005  0.7975
 7096SOL    HW223296   1.314   7.665   3.274  0.2029  0.9317  1.0498
 7097SOL     OW23297   9.625   5.652   9.951 -0.1432 -0.0923  0.2922
 7097SOL    HW123298   9.599   5.670  10.041  1.1276 -1.3165  0.9498
 7097SOL    HW223299   9.555   5.689   9.898  0.0196  2.4013  1.6572
 7098SOL     OW23300   3.646   6.117   8.983  0.0476 -0.1290  0.5020
 7098SOL    HW123301   3.611   6.206   8.989  1.8722  0.6197  0.8719
 7098SOL    HW223302   3.651   6.099   8.889 -0.2156  0.2209  0.4223
 7099SOL     OW23303   0.357  10.300   8.434 -0.5174 -0.2490 -0.0916
 7099SOL    HW123304   0.322  10.388   8.421 -0.6938 -0.2598  0.3283
 7099SOL    HW223305   0.411  10.307   8.512 -0.0018 -0.3595 -0.4302
 7100SOL     OW23306   3.170   1.094   6.915 -0.1318 -0.1434  0.2466
 7100SOL    HW123307   3.248   1.042   6.900 -1.2285 -1.6250 -0.5240
 7100SOL    HW223308   3.160   1.096   7.010  0.1827 -0.9491  0.3009
 7101SOL     OW23309   5.136   0.446   1.585 -0.1526  0.0605 -0.1834
 7101SOL    HW123310   5.042   0.429   1.587  0.0911 -1.5196 -0.5670
 7101SOL    HW223311   5.165   0.432   1.675 -0.1183 -0.6269 -0.2937
 7102SOL     OW23312   2.065   5.632  10.607  0.1851 -0.2433  0.5845
 7102SOL    HW123313   1.982   5.631  10.559 -0.7476 -0.4707  2.1623
 7102SOL    HW223314   2.087   5.725  10.615  0.2753 -0.1937 -0.1135
 7103SOL     OW23315   8.009   6.359  10.764  0.4883  0.0191  0.4231
 7103SOL    HW123316   8.049   6.446  10.775  0.3314 -0.0526  1.7815
 7103SOL    HW223317   8.058   6.303  10.824 -0.1743 -0.5771  0.4161
 7104SOL     OW23318   2.030   3.150   5.441  0.6470  0.2014  0.0571
 7104SOL    HW123319   1.985   3.227   5.476  1.3547 -0.2586  2.0779
 7104SOL    HW223320   1.968   3.113   5.378 -0.9379  0.7611  1.2302
 7105SOL     OW23321  11.073   0.257   4.728  0.1963 -0.2013  0.9622
 7105SOL    HW123322  11.123   0.208   4.792 -1.4136 -2.2791  0.7494
 7105SOL    HW223323  10.988   0.272   4.770 -0.3019 -0.1044 -0.0390
 7106SOL     OW23324   4.168   7.554   4.650 -0.0024  0.9932 -1.2521
 7106SOL    HW123325   4.240   7.568   4.588  1.8931 -1.1524  0.3070
 7106SOL    HW223326   4.211   7.538   4.734 -2.3334  0.2521 -0.1192
 7107SOL     OW23327  10.121   6.578   3.507 -0.0971 -0.3876 -0.3523
 7107SOL    HW123328  10.148   6.663   3.474 -0.8236  0.5550  1.3593
 7107SOL    HW223329  10.159   6.515   3.445 -0.9387  1.2108 -2.6005
 7108SOL     OW23330   9.592   7.623   2.992 -0.4298 -0.2243 -0.1197
 7108SOL    HW123331   9.603   7.705   3.041 -0.4764 -0.3087  0.0340
 7108SOL    HW223332   9.499   7.622   2.969 -0.1847  0.3651 -1.1983
 7109SOL     OW23333  10.623   2.463  10.314 -0.1658 -0.1256 -0.4363
 7109SOL    HW123334  10.566   2.392  10.344 -1.3358  1.2434  0.7384
 7109SOL    HW223335  10.620   2.528  10.384  0.7535  1.1506 -1.5172
 7110SOL     OW23336  10.021   5.689   8.162  0.7245  0.3057 -0.2381
 7110SOL    HW123337  10.116   5.673   8.160  0.9366  1.5133 -1.3544
 7110SOL    HW223338  10.010   5.761   8.225  0.1645 -1.7257  2.1465
 7111SOL     OW23339   7.480   6.358   1.816 -0.6516  0.2933 -0.0766
 7111SOL    HW123340   7.458   6.373   1.908 -0.6183 -0.6466  0.0932
 7111SOL    HW223341   7.530   6.277   1.816 -1.8548 -0.4905 -1.0640
 7112SOL     OW23342   0.616   2.902   9.109  0.0923  0.0379  0.3963
 7112SOL    HW123343   0.709   2.904   9.086 -0.1505 -0.2434 -0.6702
 7112SOL    HW223344   0.612   2.848   9.188  0.7148 -0.9908 -0.2470
 7113SOL     OW23345  10.058   2.937   1.499 -0.0161  0.5653 -0.6349
 7113SOL    HW123346   9.979   2.953   1.448  0.2366  0.2375 -1.1378
 7113SOL    HW223347  10.066   3.014   1.555 -0.9284  0.4064 -0.2602
 7114SOL     OW23348   1.323   2.361   8.149 -0.1445 -0.4363 -0.2513
 7114SOL    HW123349   1.332   2.348   8.243 -0.3912 -0.0448 -0.1692
 7114SOL    HW223350   1.357   2.281   8.109 -1.8947 -1.4756  0.2288
 7115SOL     OW23351   7.457   5.262   2.636 -0.7443  0.0117 -0.3323
 7115SOL    HW123352   7.405   5.254   2.716  0.1991 -0.1804  0.2831
 7115SOL    HW223353   7.526   5.324   2.660  0.2557 -0.9657 -0.6012
 7116SOL     OW23354   3.187   8.590   8.173 -0.2230 -0.1086  0.6199
 7116SOL    HW123355   3.229   8.550   8.249  1.6912  0.1315 -0.2516
 7116SOL    HW223356   3.149   8.516   8.125  2.1367 -0.8308 -0.2891
 7117SOL     OW23357   7.798   1.067   0.859  0.3704 -0.2595  0.2152
 7117SOL    HW123358   7.841   1.112   0.933  2.5465  0.9869 -1.6687
 7117SOL    HW223359   7.870   1.036   0.805 -1.1237 -0.0400 -2.0308
 7118SOL     OW23360   6.311  10.265   6.525  0.0833 -0.9269 -0.0897
 7118SOL    HW123361   6.392  10.313   6.545 -0.5971  0.3000 -0.1384
 7118SOL    HW223362   6.260  10.271   6.606 -0.1891 -1.1974 -0.2435
 7119SOL     OW23363   4.888  10.864   8.328 -0.6781  0.3275  0.2734
 7119SOL    HW123364   4.857  10.843   8.416  3.1141  0.0383  1.7064
 7119SOL    HW223365   4.954  10.932   8.340 -1.3694  1.6756 -2.6072
 7120SOL     OW23366   0.885  10.273   5.726 -0.0871 -0.5199 -1.0836
 7120SOL    HW123367   0.872  10.320   5.644 -1.0767  0.9213 -0.1536
 7120SOL    HW223368   0.826  10.198   5.721 -1.7137  0.6957 -0.8806
 7121SOL     OW23369   0.967   5.882   5.953  0.2281 -0.3978 -0.0085
 7121SOL    HW123370   0.995   5.875   5.862  1.1247 -0.3745  0.2565
 7121SOL    HW223371   0.937   5.794   5.976  0.4209 -0.5137 -0.1971
 7122SOL     OW23372   5.185   6.650   0.537 -0.6807 -0.1809 -0.2998
 7122SOL    HW123373   5.097   6.678   0.561 -1.0316 -1.1811 -0.3564
 7122SOL    HW223374   5.235   6.656   0.618 -0.8738  0.1417 -0.2049
 7123SOL     OW23375   2.979   1.976   8.261 -0.2449 -0.4735 -0.0419
 7123SOL    HW123376   3.044   2.040   8.235 -0.1697 -0.5260  0.0169
 7123SOL    HW223377   2.977   1.913   8.189 -1.1317  0.2049 -0.6335
 7124SOL     OW23378   3.133   6.880   8.442 -0.2940  0.3720  0.0591
 7124SOL    HW123379   3.049   6.914   8.412  0.0458  0.4219 -0.8632
 7124SOL    HW223380   3.111   6.820   8.513 -1.1722 -0.1433 -0.6306
 7125SOL     OW23381   0.017  10.136   7.777  0.4025 -0.5002 -0.4148
 7125SOL    HW123382  -0.065  10.180   7.752  1.5658  0.1319 -3.6522
 7125SOL    HW223383   0.073  10.207   7.809  0.4614 -0.5541 -0.3991
 7126SOL     OW23384   1.185   3.014   3.752  0.4788  0.2234 -0.0307
 7126SOL    HW123385   1.235   3.071   3.811 -0.6681  1.0545  0.1629
 7126SOL    HW223386   1.094   3.036   3.768 -0.2427 -3.2274  1.6992
 7127SOL     OW23387   0.881   0.312   6.163  0.4090  0.0631 -0.4591
 7127SOL    HW123388   0.823   0.344   6.093 -0.5319  2.1256  1.1384
 7127SOL    HW223389   0.966   0.352   6.144  0.0232  1.0464 -0.1740
 7128SOL     OW23390   4.138   9.662   2.772  0.8046 -0.3700 -0.5467
 7128SOL    HW123391   4.047   9.634   2.782  0.3431  0.8636 -1.0168
 7128SOL    HW223392   4.174   9.658   2.860  0.1655 -0.4652 -0.2811
 7129SOL     OW23393   7.829   1.508   0.084  0.2134  0.0483 -0.0730
 7129SOL    HW123394   7.788   1.427   0.054 -1.8913  0.6828  0.9102
 7129SOL    HW223395   7.839   1.561   0.005 -1.2146  0.0081 -0.2907
 7130SOL     OW23396   9.643   1.007   7.113  0.1664 -0.3336  0.2137
 7130SOL    HW123397   9.667   0.955   7.189  1.6404 -1.0765 -0.7099
 7130SOL    HW223398   9.678   1.095   7.132  0.3102 -0.4522  0.5066
 7131SOL     OW23399   2.562   9.203   8.433  0.3422 -0.2912 -0.1763
 7131SOL    HW123400   2.552   9.118   8.476 -1.3105  0.6216  1.3929
 7131SOL    HW223401   2.623   9.251   8.488 -2.3345  1.1430  1.8047
 7132SOL     OW23402   1.322   7.741   8.193  0.0732 -0.2977 -0.3661
 7132SOL    HW123403   1.274   7.678   8.246 -0.6768  0.5012 -0.0683
 7132SOL    HW223404   1.411   7.739   8.228 -0.2323 -0.3308  0.4267
 7133SOL     OW23405   9.138   3.777  10.523 -0.2541  0.0905  0.3850
 7133SOL    HW123406   9.212   3.774  10.584  0.1936 -2.9895 -0.1168
 7133SOL    HW223407   9.179   3.786  10.437 -0.7099  1.6243  0.3056
 7134SOL     OW23408   1.218   6.477   8.054  0.1659 -0.1142 -0.3782
 7134SOL    HW123409   1.164   6.472   8.134 -1.9218 -0.5236 -1.7345
 7134SOL    HW223410   1.176   6.415   7.994  1.4051  0.5513 -1.9801
 7135SOL     OW23411   8.777   1.100   0.101  0.7850  0.3069 -0.3406
 7135SOL    HW123412   8.861   1.134   0.132 -0.2215  0.4375  2.5695
 7135SOL    HW223413   8.788   1.005   0.101  0.4319  0.2160  1.9181
 7136SOL     OW23414   2.084   8.814   6.984  0.2343  0.3498 -0.2481
 7136SOL    HW123415   2.172   8.792   7.014  0.1630 -0.4186 -0.5721
 7136SOL    HW223416   2.075   8.908   7.000  0.0459 -0.0662  2.4845
 7137SOL     OW23417   7.772   4.785   5.759  0.2598  0.5325 -0.0994
 7137SOL    HW123418   7.682   4.807   5.736  0.0733 -0.1872 -0.0846
 7137SOL    HW223419   7.775   4.690   5.756  1.1625  0.5687 -0.5983
 7138SOL     OW23420   2.207   2.828   6.304 -0.0444  0.0639 -0.2766
 7138SOL    HW123421   2.215   2.820   6.209  0.2900 -0.1458 -0.2298
 7138SOL    HW223422   2.281   2.779   6.339 -0.0527  0.3102  0.0896
 7139SOL     OW23423   7.926   6.856   1.142  0.0688 -0.1672 -0.5107
 7139SOL    HW123424   7.886   6.902   1.216  0.1763  0.5260 -0.8756
 7139SOL    HW223425   8.006   6.817   1.178  0.4380  0.6787 -0.3876
 7140SOL     OW23426   5.700   3.244   4.713  0.8291 -0.5631  0.0447
 7140SOL    HW123427   5.784   3.199   4.722  1.8027  0.9803 -0.8602
 7140SOL    HW223428   5.713   3.305   4.640 -0.8182  0.3289  0.4433
 7141SOL     OW23429   5.643   0.652   7.608 -0.4245  0.0923  0.4252
 7141SOL    HW123430   5.654   0.594   7.684 -1.2484 -1.1179 -0.3420
 7141SOL    HW223431   5.684   0.604   7.536  0.1742  1.1421  0.0410
 7142SOL     OW23432   7.263   4.958   7.777  0.3069  0.1794  0.0847
 7142SOL    HW123433   7.262   5.009   7.858  0.8493  1.7743 -0.8445
 7142SOL    HW223434   7.191   4.896   7.786  0.3348  0.3475  1.7528
 7143SOL     OW23435   8.292  10.702   2.152  0.1533 -0.1407  0.0129
 7143SOL    HW123436   8.245  10.784   2.141  0.8890  0.2258 -0.4389
 7143SOL    HW223437   8.379  10.727   2.183  1.0761 -0.5870 -2.0529
 7144SOL     OW23438   5.746   0.653   2.986  1.0250 -0.7125  0.6279
 7144SOL    HW123439   5.661   0.613   2.970 -0.0470  0.9298  1.8856
 7144SOL    HW223440   5.803   0.618   2.917 -1.2997  0.0623 -1.8363
 7145SOL     OW23441   8.630  10.035  10.015 -0.1342 -0.8301  0.1046
 7145SOL    HW123442   8.595   9.964  10.069 -1.2902  0.6142  1.3505
 7145SOL    HW223443   8.561  10.052   9.950  0.0608 -0.7260 -0.0766
 7146SOL     OW23444   1.285  10.820   8.324  0.0948  0.3599  0.4183
 7146SOL    HW123445   1.379  10.801   8.317 -0.5021 -3.8877  1.0710
 7146SOL    HW223446   1.269  10.827   8.419 -0.5951 -2.5822  0.6459
 7147SOL     OW23447   4.780   1.974   2.202  0.1709 -0.2061 -0.1262
 7147SOL    HW123448   4.825   1.905   2.251 -0.9561 -0.2692  0.8547
 7147SOL    HW223449   4.752   2.036   2.270  1.6685  1.5610 -1.0086
 7148SOL     OW23450   7.791   9.235   2.029  0.3483 -1.0888  0.4003
 7148SOL    HW123451   7.874   9.274   2.056  0.5328 -0.2588 -1.2565
 7148SOL    HW223452   7.808   9.199   1.941 -0.9588 -1.1607  0.1547
 7149SOL     OW23453   7.589   3.787   9.003 -0.0898  0.7517  0.2723
 7149SOL    HW123454   7.555   3.835   8.928 -0.3932  0.6127  0.3202
 7149SOL    HW223455   7.515   3.735   9.034  0.0483  0.7652  0.6315
 7150SOL     OW23456   2.196   8.856   6.315  0.1727  0.3904 -0.1162
 7150SOL    HW123457   2.133   8.830   6.381  0.9229 -0.9786  0.0980
 7150SOL    HW223458   2.161   8.937   6.278 -2.6668 -1.2141 -1.2858
 7151SOL     OW23459   3.899   5.774   8.902 -0.6637 -0.0427 -0.0624
 7151SOL    HW123460   3.849   5.853   8.925 -0.8031 -0.7081  2.2085
 7151SOL    HW223461   3.987   5.806   8.882 -0.2258  0.6210  2.5463
 7152SOL     OW23462   6.126   8.541   4.326  0.2823 -0.0085  0.1535
 7152SOL    HW123463   6.033   8.530   4.306  0.3578  0.5382 -0.5433
 7152SOL    HW223464   6.168   8.546   4.241  1.0260 -0.7670  0.4645
 7153SOL     OW23465   1.526   0.968   7.021 -0.2611 -0.5530  0.6100
 7153SOL    HW123466   1.459   0.998   6.960  1.2185 -0.5772 -1.1082
 7153SOL    HW223467   1.534   0.874   7.004  1.0983 -0.3194 -0.1784
 7154SOL     OW23468   8.890   4.706   9.290 -0.1998  0.0322 -0.2680
 7154SOL    HW123469   8.921   4.617   9.273 -3.2168 -0.6502 -3.3875
 7154SOL    HW223470   8.890   4.748   9.204 -1.8095  1.9950  0.6085
 7155SOL     OW23471   8.495   3.558   5.869 -0.7531 -0.5227 -0.2053
 7155SOL    HW123472   8.497   3.466   5.895 -1.1401  0.1618  2.5357
 7155SOL    HW223473   8.416   3.567   5.816 -2.9216 -1.0660  2.7368
 7156SOL     OW23474   0.798   8.355  10.851  0.3832  0.0724  0.0286
 7156SOL    HW123475   0.848   8.429  10.885  2.5435 -0.4296 -1.7631
 7156SOL    HW223476   0.707   8.381  10.861  1.0285  3.2775 -1.0720
 7157SOL     OW23477   8.328   1.109   1.616  0.2331 -0.2019  0.3812
 7157SOL    HW123478   8.408   1.116   1.564 -0.5417 -2.3236 -1.2293
 7157SOL    HW223479   8.348   1.046   1.684  0.4218  0.5667  1.0576
 7158SOL     OW23480   0.971   8.137   0.631  0.3207 -0.5157  0.0250
 7158SOL    HW123481   0.922   8.211   0.667  0.2681 -0.0288 -1.0137
 7158SOL    HW223482   0.955   8.141   0.536  1.6497 -0.8659 -0.2366
 7159SOL     OW23483   7.864   8.666  10.945 -0.1059  0.1912 -0.3814
 7159SOL    HW123484   7.802   8.697  10.878 -1.3409  0.6544  0.9004
 7159SOL    HW223485   7.844   8.573  10.954  2.4902 -0.7789 -3.0759
 7160SOL     OW23486   7.340   4.735   0.515 -0.2665  0.3034  0.3498
 7160SOL    HW123487   7.248   4.735   0.488 -0.4566 -1.2642  0.8932
 7160SOL    HW223488   7.352   4.651   0.558  1.0471  1.0776  1.5996
 7161SOL     OW23489   5.072   7.206   3.594  0.1538 -0.7895  0.4349
 7161SOL    HW123490   5.018   7.158   3.532 -0.4713  1.2791 -0.7375
 7161SOL    HW223491   5.014   7.221   3.670  0.1277 -1.2813  0.5110
 7162SOL     OW23492   4.970   8.373   4.701 -0.4412 -0.5036 -0.0155
 7162SOL    HW123493   5.041   8.310   4.699  0.7663  0.7235 -3.7711
 7162SOL    HW223494   5.013   8.458   4.700 -2.0080  0.3383  0.4337
 7163SOL     OW23495   7.806   3.871   7.645  0.1589 -0.3745 -0.2308
 7163SOL    HW123496   7.893   3.910   7.654  0.4317 -1.2301  1.2728
 7163SOL    HW223497   7.822   3.787   7.602 -0.2329  0.4008 -1.9909
 7164SOL     OW23498   0.698   2.230   5.576 -0.0809 -0.1916 -0.5534
 7164SOL    HW123499   0.784   2.191   5.565  0.9793  1.9404 -0.4381
 7164SOL    HW223500   0.713   2.309   5.629 -2.4195 -0.7885  1.1817
 7165SOL     OW23501   6.960   2.152   7.803  0.3363  0.2094  0.1951
 7165SOL    HW123502   6.994   2.232   7.764  1.7309 -0.0840  0.7304
 7165SOL    HW223503   6.974   2.084   7.737  3.2382 -0.4024  1.2918
 7166SOL     OW23504   5.552   9.372   7.765  0.4226  0.1654 -0.7663
 7166SOL    HW123505   5.611   9.382   7.840  1.8476 -2.3109 -1.4157
 7166SOL    HW223506   5.601   9.406   7.691 -0.7703  2.1045 -0.7365
 7167SOL     OW23507  10.838   1.277   5.013 -0.1415  0.2287  0.0635
 7167SOL    HW123508  10.893   1.267   4.935  0.8008  0.2336  0.7086
 7167SOL    HW223509  10.889   1.335   5.070  1.1276 -2.9410  2.4094
 7168SOL     OW23510   7.808   9.595   9.195 -0.0702  0.0288 -0.6915
 7168SOL    HW123511   7.833   9.594   9.102 -0.9299 -0.2802 -0.9330
 7168SOL    HW223512   7.715   9.617   9.194 -0.0802  0.0299  0.1049
 7169SOL     OW23513   0.290   2.178   5.244  0.1849 -0.0027 -0.0761
 7169SOL    HW123514   0.321   2.188   5.334 -0.5937  1.0422  0.0858
 7169SOL    HW223515   0.368   2.192   5.190  0.5165  0.0348  0.4101
 7170SOL     OW23516   9.197   5.959   1.240 -0.0303 -0.1842  0.4370
 7170SOL    HW123517   9.136   6.033   1.236  1.0017  0.6652  0.1280
 7170SOL    HW223518   9.261   5.984   1.306 -0.9356 -1.8259  2.0620
 7171SOL     OW23519   1.096   5.614   7.245 -0.1868 -0.3247  0.4359
 7171SOL    HW123520   1.110   5.701   7.207 -1.4572 -0.9551 -1.6179
 7171SOL    HW223521   1.145   5.555   7.187 -0.3112 -1.1139  1.1215
 7172SOL     OW23522   8.533   9.522   9.988  0.6025 -0.1702  0.0139
 7172SOL    HW123523   8.447   9.541   9.950  0.3958 -0.9281  0.0803
 7172SOL    HW223524   8.595   9.567   9.931  0.2217 -0.3861 -0.5811
 7173SOL     OW23525   6.255  10.923   7.485 -0.2915  0.3738 -0.2053
 7173SOL    HW123526   6.337  10.968   7.468  0.8820 -1.8635 -0.8081
 7173SOL    HW223527   6.273  10.831   7.467 -3.5625  0.0281 -2.7422
 7174SOL     OW23528  10.300   2.074   4.403  0.5205  0.1653 -0.5893
 7174SOL    HW123529  10.357   2.018   4.350  0.2280  0.4463 -1.2006
 7174SOL    HW223530  10.287   2.024   4.484  4.8191  1.6544  1.3635
 7175SOL     OW23531   1.137   7.233   6.101 -0.7924  0.1663  0.0471
 7175SOL    HW123532   1.138   7.145   6.064 -1.1478  0.3730 -0.4656
 7175SOL    HW223533   1.206   7.232   6.168 -0.6550 -0.4330 -0.0980
 7176SOL     OW23534   9.361   2.381   3.733  0.2038  0.3541 -0.0943
 7176SOL    HW123535   9.383   2.322   3.660 -1.9617 -2.3584  1.2627
 7176SOL    HW223536   9.270   2.406   3.718  0.2343  1.0887  0.8393
 7177SOL     OW23537   7.467   7.397   6.119  0.3820  0.3024  0.1188
 7177SOL    HW123538   7.504   7.403   6.031 -1.6077 -0.0973 -0.8033
 7177SOL    HW223539   7.392   7.338   6.109  0.9847 -0.9701  2.4082
 7178SOL     OW23540   7.372  10.741  10.165 -0.1909  0.0380  0.5413
 7178SOL    HW123541   7.327  10.752  10.248  0.9387  1.7563  0.9863
 7178SOL    HW223542   7.356  10.822  10.117  1.2470  0.1320  0.1492
 7179SOL     OW23543   7.199   5.891  10.003 -0.1388 -0.3777  0.2446
 7179SOL    HW123544   7.145   5.816  10.027  0.0867 -0.4829  0.4333
 7179SOL    HW223545   7.285   5.853   9.985 -0.1963 -0.2503 -0.3316
 7180SOL     OW23546   0.938   9.950   2.230 -0.2170 -0.2020  0.6983
 7180SOL    HW123547   0.857   9.908   2.200 -0.0320  0.0131 -0.1425
 7180SOL    HW223548   0.965  10.003   2.155  1.9534 -2.0572  0.0600
 7181SOL     OW23549   1.986   7.737   2.447 -0.1852 -0.1843  0.1106
 7181SOL    HW123550   1.987   7.781   2.532  0.3351 -0.1462  0.0892
 7181SOL    HW223551   1.917   7.782   2.398  0.0137  0.2960  0.2586
 7182SOL     OW23552   3.843   5.547   9.053 -0.0928 -0.4765  0.2708
 7182SOL    HW123553   3.873   5.621   8.999  2.3808 -1.0236  0.7608
 7182SOL    HW223554   3.782   5.586   9.115 -0.8308  0.6671 -1.1279
 7183SOL     OW23555   2.534   7.415   7.722  0.7524 -1.0054 -0.0282
 7183SOL    HW123556   2.475   7.466   7.666 -0.3000 -0.8455  1.1797
 7183SOL    HW223557   2.620   7.455   7.710  0.0622  0.6769  0.4229
 7184SOL     OW23558   4.587   7.957   3.977 -0.1974 -0.0850  0.0350
 7184SOL    HW123559   4.652   7.888   3.981 -0.1762 -0.0309  2.4980
 7184SOL    HW223560   4.519   7.924   3.919  2.3453  0.2616 -3.4399
 7185SOL     OW23561   9.933   4.458   2.320 -0.4969 -0.1464  0.0646
 7185SOL    HW123562   9.891   4.412   2.393  0.0503  0.0801  0.5313
 7185SOL    HW223563   9.953   4.545   2.355  1.9182 -0.7812  0.4492
 7186SOL     OW23564   4.618   9.707   7.315 -0.1867 -0.8253 -0.3021
 7186SOL    HW123565   4.575   9.633   7.272  0.6012 -2.2666  1.3281
 7186SOL    HW223566   4.601   9.695   7.408 -0.7029  1.4997 -0.0160
 7187SOL     OW23567  10.440   6.611   1.418  0.3600  0.6539  0.0072
 7187SOL    HW123568  10.500   6.610   1.343  0.3016 -2.3311 -0.1518
 7187SOL    HW223569  10.356   6.637   1.381  0.4360 -0.3441 -0.9197
 7188SOL     OW23570   1.049   6.975  10.783 -0.4012 -0.2845  0.4080
 7188SOL    HW123571   1.012   6.945  10.866 -3.9478 -0.1044 -0.9211
 7188SOL    HW223572   1.098   7.054  10.806 -2.0260  0.2715  2.2712
 7189SOL     OW23573   1.054   6.620   6.094 -0.3751  0.0881  0.5865
 7189SOL    HW123574   1.113   6.649   6.163 -0.6885  0.1430  0.8307
 7189SOL    HW223575   0.981   6.682   6.096 -0.3698  0.1116  0.1827
 7190SOL     OW23576   6.635   0.626   7.784 -0.3775  0.4021  0.2932
 7190SOL    HW123577   6.543   0.601   7.779  0.2184 -1.7152 -1.7381
 7190SOL    HW223578   6.634   0.721   7.779 -2.4696  0.5036  1.3398
 7191SOL     OW23579   5.814  11.034  10.464  0.4026  0.0545 -0.7090
 7191SOL    HW123580   5.783  11.124  10.450  2.4147  0.5362 -2.5813
 7191SOL    HW223581   5.873  11.040  10.539  0.1466  0.1647 -0.5124
 7192SOL     OW23582  10.057   3.336   7.401 -0.5443 -0.1721  0.5083
 7192SOL    HW123583   9.969   3.312   7.430 -1.0051 -0.6586 -1.1744
 7192SOL    HW223584  10.097   3.252   7.378 -1.3199  0.3107 -3.1457
 7193SOL     OW23585   8.045   0.351   3.429 -0.4085 -0.7529  0.4980
 7193SOL    HW123586   8.139   0.355   3.412 -0.2121 -0.4050  1.5600
 7193SOL    HW223587   8.039   0.341   3.524 -1.4563  0.0476  0.5286
 7194SOL     OW23588  10.945   4.886   7.802  0.5227  0.4368  0.0506
 7194SOL    HW123589  10.985   4.953   7.858  0.7926 -0.0727  0.4781
 7194SOL    HW223590  11.017   4.856   7.746  0.7803 -0.5282  0.8665
 7195SOL     OW23591   0.620   7.640   7.888 -0.3211 -0.4135 -0.4484
 7195SOL    HW123592   0.676   7.613   7.815 -0.2489  0.4270 -0.7191
 7195SOL    HW223593   0.676   7.635   7.965 -0.9830 -3.4361 -0.0426
 7196SOL     OW23594   0.639   9.619   6.844  0.6092  0.1370 -0.4937
 7196SOL    HW123595   0.557   9.595   6.888  0.5820 -2.1909 -1.6654
 7196SOL    HW223596   0.619   9.701   6.799 -0.9183 -0.0870 -0.2895
 7197SOL     OW23597   4.456   9.016  10.866 -0.1378 -0.1365  0.2204
 7197SOL    HW123598   4.504   9.009  10.949 -0.4345 -1.2725  0.3107
 7197SOL    HW223599   4.390   9.084  10.882  0.2556  0.1409  0.6853
 7198SOL     OW23600   1.627   9.352   6.000  0.0747 -0.1511  0.1795
 7198SOL    HW123601   1.635   9.424   6.064  1.3401  0.4263 -0.5825
 7198SOL    HW223602   1.578   9.390   5.928 -1.2666 -0.7753  0.7322
 7199SOL     OW23603   0.315   8.063   8.674 -0.1382  0.0954 -0.0634
 7199SOL    HW123604   0.279   7.982   8.709  0.2834 -0.7986 -1.5789
 7199SOL    HW223605   0.377   8.092   8.741 -0.9456 -0.3353  0.9007
 7200SOL     OW23606   1.642   5.961  11.007  0.0318 -0.2337  0.7594
 7200SOL    HW123607   1.698   6.022  10.959 -0.1250  0.2581  1.1869
 7200SOL    HW223608   1.621   6.007  11.088 -0.9037 -0.4449  0.6578
 7201SOL     OW23609   5.010   0.697  10.384 -0.0971 -0.3340  0.1122
 7201SOL    HW123610   5.081   0.741  10.338  0.0498 -0.3452  0.3264
 7201SOL    HW223611   5.002   0.612  10.340 -1.4932  0.5209 -1.4108
 7202SOL     OW23612   8.309  10.528   9.072 -0.1114  0.0012 -0.0801
 7202SOL    HW123613   8.315  10.483   8.987 -0.9024  0.8316 -0.5940
 7202SOL    HW223614   8.332  10.461   9.136  0.9331 -0.5364 -0.9684
 7203SOL     OW23615   9.668   1.695   6.459  0.4056  0.2192  0.1933
 7203SOL    HW123616   9.709   1.634   6.397 -0.3059  0.7283 -0.8121
 7203SOL    HW223617   9.585   1.719   6.418 -0.3259  0.1932  1.5975
 7204SOL     OW23618   5.149   1.919  10.193  0.4402  0.3489  0.0987
 7204SOL    HW123619   5.104   1.998  10.162  0.5495  0.4178  0.1170
 7204SOL    HW223620   5.166   1.869  10.113 -0.6537 -0.1946  0.1986
 7205SOL     OW23621  10.380   9.665   0.663  0.1514  0.4463 -0.0440
 7205SOL    HW123622  10.460   9.638   0.619  0.7736  1.6589  0.3024
 7205SOL    HW223623  10.345   9.736   0.609  0.6590  1.6084  1.0989
 7206SOL     OW23624   9.392   4.530   7.166 -0.5488  0.3296  0.0593
 7206SOL    HW123625   9.341   4.461   7.124 -0.9797  0.2179  0.7379
 7206SOL    HW223626   9.462   4.483   7.212  0.2838  0.4945 -1.0045
 7207SOL     OW23627  10.922   6.625   3.564  0.2345  0.3002  0.3444
 7207SOL    HW123628  10.912   6.685   3.490 -4.7810  0.0826  0.4545
 7207SOL    HW223629  10.908   6.679   3.642  2.0409 -0.0360  0.9403
 7208SOL     OW23630  10.768   8.733   7.210  0.1104 -0.3608  0.4036
 7208SOL    HW123631  10.834   8.798   7.233  1.6236 -1.6839  0.0403
 7208SOL    HW223632  10.703   8.781   7.159  0.4644  1.1113  1.2877
 7209SOL     OW23633  10.874   8.580   0.677 -0.2973 -0.4974  0.2649
 7209SOL    HW123634  10.907   8.491   0.677  2.9369  0.5651  1.3895
 7209SOL    HW223635  10.848   8.597   0.768  0.5021  0.1211  0.3927
 7210SOL     OW23636   9.172   0.680   9.305  0.6541 -0.3887  0.1380
 7210SOL    HW123637   9.190   0.709   9.215 -1.1214  1.2176  0.2266
 7210SOL    HW223638   9.174   0.585   9.301  2.2473 -0.3429 -1.2179
 7211SOL     OW23639   7.200   7.996   2.822 -0.2892 -0.0343  0.0154
 7211SOL    HW123640   7.267   7.977   2.888 -0.6634 -1.8623 -0.0731
 7211SOL    HW223641   7.118   7.967   2.862 -0.6719 -0.1625 -0.8373
 7212SOL     OW23642   2.427   4.289   4.543  0.0401  0.1192  0.0707
 7212SOL    HW123643   2.345   4.327   4.574 -1.3839 -2.6961  0.0815
 7212SOL    HW223644   2.482   4.284   4.621 -0.0556  1.3261  0.2276
 7213SOL     OW23645   7.473   9.418   9.167  0.2407  0.1207  0.0471
 7213SOL    HW123646   7.529   9.388   9.096 -0.4233  0.1681 -0.5108
 7213SOL    HW223647   7.470   9.513   9.157 -1.7245 -0.0199 -1.3448
 7214SOL     OW23648  10.885   0.492  10.631 -0.2425  0.5176  0.7012
 7214SOL    HW123649  10.890   0.415  10.687 -2.2702  0.0701  0.3803
 7214SOL    HW223650  10.793   0.494  10.602  0.0062  2.4696 -0.1268
 7215SOL     OW23651   4.047   1.393   0.046  0.5857 -0.0769  0.2000
 7215SOL    HW123652   4.023   1.480   0.077 -0.5361 -0.2180 -0.2341
 7215SOL    HW223653   4.131   1.405   0.001 -1.0069  1.3869 -2.6146
 7216SOL     OW23654   0.184   6.985   4.181 -0.0434 -0.3509  0.0190
 7216SOL    HW123655   0.120   6.950   4.243  1.1696 -1.4360  0.7102
 7216SOL    HW223656   0.260   7.007   4.234 -0.1685  1.9144 -0.6362
 7217SOL     OW23657   1.359  10.770   9.430  0.6331  0.3407 -0.5781
 7217SOL    HW123658   1.283  10.774   9.487  1.3264 -0.3156  0.4231
 7217SOL    HW223659   1.338  10.703   9.365  0.3457  0.1754 -0.3161
 7218SOL     OW23660   3.654   3.744   9.329 -0.3093 -0.1726  0.6094
 7218SOL    HW123661   3.579   3.687   9.346  0.2664 -0.7131  1.4114
 7218SOL    HW223662   3.687   3.716   9.244 -0.7600 -0.2163  0.4471
 7219SOL     OW23663   9.568   5.537   8.744 -0.1903 -0.2988 -0.0342
 7219SOL    HW123664   9.485   5.579   8.725 -0.5302 -0.8778  0.1284
 7219SOL    HW223665   9.544   5.458   8.793  0.5369  0.1623  1.0956
 7220SOL     OW23666   1.084   0.309   9.177  0.4072  0.0602 -0.1717
 7220SOL    HW123667   1.140   0.357   9.115  0.1819  1.6019  0.7452
 7220SOL    HW223668   1.001   0.357   9.176  0.1666 -0.3173  0.7863
 7221SOL     OW23669  10.724  10.274  10.406 -0.1662  0.5665  0.3002
 7221SOL    HW123670  10.686  10.326  10.477  0.2683  0.4297  0.6332
 7221SOL    HW223671  10.800  10.324  10.377  1.2796 -0.6576  1.7603
 7222SOL     OW23672   4.846   1.226   4.473 -0.6878  0.6315 -0.5648
 7222SOL    HW123673   4.811   1.296   4.418  0.8927  0.4094 -1.9626
 7222SOL    HW223674   4.807   1.241   4.559 -1.4929  2.3732 -1.1793
 7223SOL     OW23675   9.897  10.732   4.054  0.4914 -0.1086  0.2399
 7223SOL    HW123676   9.855  10.662   4.004 -0.3414 -0.1175  0.9397
 7223SOL    HW223677   9.833  10.757   4.120  0.2568  2.1803 -0.7322
 7224SOL     OW23678  10.717   6.751   4.392  0.0136 -0.2958  0.1817
 7224SOL    HW123679  10.732   6.670   4.440 -0.7180 -0.6942 -0.2312
 7224SOL    HW223680  10.660   6.725   4.319 -0.3249  0.6023  0.1104
 7225SOL     OW23681   2.376   2.772   7.862  0.1115  0.0761  0.4468
 7225SOL    HW123682   2.332   2.802   7.783 -0.6909 -1.0469  0.4581
 7225SOL    HW223683   2.305   2.747   7.921  0.7422 -1.6750  0.5051
 7226SOL     OW23684   5.401  11.056   6.176 -0.1996  0.0056  0.0722
 7226SOL    HW123685   5.343  11.032   6.104 -0.2452  2.4804 -0.8281
 7226SOL    HW223686   5.489  11.039   6.143 -0.1771  1.8262 -0.9535
 7227SOL     OW23687  10.339   0.282   9.328  0.0747 -0.0241 -0.1354
 7227SOL    HW123688  10.342   0.377   9.339  0.4384 -0.0594  0.0630
 7227SOL    HW223689  10.281   0.252   9.399  0.3856 -0.0002  0.1328
 7228SOL     OW23690   1.424   6.430   9.350  0.4213  0.1510  0.2732
 7228SOL    HW123691   1.429   6.524   9.332 -1.8829  0.6334  1.6819
 7228SOL    HW223692   1.334   6.406   9.325  1.9171 -2.5502 -3.3545
 7229SOL     OW23693   1.240   0.993   5.026 -0.2893 -0.7168 -0.1690
 7229SOL    HW123694   1.202   0.922   4.973  0.9632 -1.3855 -0.1970
 7229SOL    HW223695   1.234   1.070   4.970  0.1450 -1.2198 -0.9190
 7230SOL     OW23696   1.649   2.459   2.994 -0.3615 -0.7055  0.7191
 7230SOL    HW123697   1.639   2.551   3.019 -1.6362 -1.2093  2.2705
 7230SOL    HW223698   1.617   2.454   2.904  3.7699  1.0802 -1.0974
 7231SOL     OW23699  10.480  10.445   5.054  0.0583  0.3482 -0.3530
 7231SOL    HW123700  10.565  10.436   5.097  0.9993 -2.1084 -2.4551
 7231SOL    HW223701  10.501  10.445   4.960 -2.2500  0.0635 -0.9253
 7232SOL     OW23702   8.412   4.298   8.138  0.5415 -0.5581  0.3700
 7232SOL    HW123703   8.490   4.348   8.160 -0.5084  0.5079  1.9331
 7232SOL    HW223704   8.443   4.228   8.080  2.6064 -0.1105  0.8602
 7233SOL     OW23705   7.230  10.471   7.378 -0.1465  0.1318  0.3197
 7233SOL    HW123706   7.247  10.393   7.326 -1.7966  0.1412 -0.3156
 7233SOL    HW223707   7.201  10.536   7.314 -1.3868  0.4095  1.1189
 7234SOL     OW23708   0.790   0.339  10.177  0.4570 -0.2514 -0.1784
 7234SOL    HW123709   0.795   0.331  10.272 -0.6643 -1.1547 -0.1709
 7234SOL    HW223710   0.703   0.305  10.155 -0.0662  1.6752 -1.3517
 7235SOL     OW23711   2.807   1.574   3.208  0.2109  0.0208 -0.5915
 7235SOL    HW123712   2.715   1.574   3.180  0.4068 -0.5577 -1.2655
 7235SOL    HW223713   2.852   1.623   3.139  0.0749  2.5314  0.9829
 7236SOL     OW23714   6.126   3.298   3.046  0.3924 -0.6006 -0.0848
 7236SOL    HW123715   6.217   3.324   3.029  0.6802 -1.1322  0.6239
 7236SOL    HW223716   6.116   3.215   3.000 -0.1935  0.1696 -1.4067
 7237SOL     OW23717   0.309   0.253   4.131 -0.3025  0.7330 -0.0133
 7237SOL    HW123718   0.243   0.297   4.077  0.5081  0.3751 -1.3617
 7237SOL    HW223719   0.346   0.187   4.073  1.8836  1.5314  0.3843
 7238SOL     OW23720   1.380   0.761   5.857 -0.1403  0.5253  0.6494
 7238SOL    HW123721   1.380   0.767   5.953 -2.0192  0.3935  0.6920
 7238SOL    HW223722   1.292   0.789   5.831 -0.6949 -2.1634 -0.8278
 7239SOL     OW23723   1.929   7.054   4.326 -0.0229  0.2329  0.1522
 7239SOL    HW123724   2.017   7.048   4.365 -0.0612  3.3710  1.0132
 7239SOL    HW223725   1.869   7.034   4.398 -0.0632 -0.4340 -0.0558
 7240SOL     OW23726   1.675   3.710   9.703 -0.5390  0.3442 -0.5347
 7240SOL    HW123727   1.638   3.720   9.615  0.3318  0.0888 -0.9452
 7240SOL    HW223728   1.708   3.620   9.705  1.4983  1.0394 -0.7897
 7241SOL     OW23729   1.897   1.524   7.071 -0.6661 -0.1198  0.1889
 7241SOL    HW123730   1.879   1.512   6.978 -0.0748 -0.5875  0.1314
 7241SOL    HW223731   1.851   1.451   7.114  0.0292 -0.5887  0.1528
 7242SOL     OW23732   6.013   7.796   9.396 -0.0399  0.4385 -0.3460
 7242SOL    HW123733   5.955   7.868   9.421 -1.1720 -0.0940 -1.3437
 7242SOL    HW223734   5.954   7.722   9.379  1.0335 -0.4909 -0.1433
 7243SOL     OW23735   6.067  10.847   1.693 -0.7031 -0.3527 -0.1520
 7243SOL    HW123736   6.066  10.844   1.598 -1.7598  1.6084 -0.2614
 7243SOL    HW223737   5.978  10.823   1.719 -0.9268  0.8385  0.2297
 7244SOL     OW23738   4.171   5.936  10.317  0.3691 -0.1009  0.2652
 7244SOL    HW123739   4.172   5.843  10.294 -0.6183  0.3062 -1.6234
 7244SOL    HW223740   4.252   5.971  10.280  0.5447 -0.1252  0.6218
 7245SOL     OW23741   0.480   2.008  10.865  0.2174  0.8691 -0.8844
 7245SOL    HW123742   0.497   1.950  10.940 -1.0136  2.1097  0.4190
 7245SOL    HW223743   0.529   1.968  10.793  0.5830 -0.9753  0.2986
 7246SOL     OW23744   9.774   8.529   5.584 -0.5667  0.2498  0.7681
 7246SOL    HW123745   9.764   8.594   5.515  2.0469 -0.2942 -0.2361
 7246SOL    HW223746   9.735   8.449   5.548  0.6085  0.0196 -0.0538
 7247SOL     OW23747   0.522  10.566   7.400 -0.2754  0.0789  0.0422
 7247SOL    HW123748   0.579  10.497   7.436 -2.0213 -1.3321  0.2470
 7247SOL    HW223749   0.507  10.625   7.474 -0.1106 -0.2498  0.3428
 7248SOL     OW23750  10.707   3.492   6.085 -0.1018 -0.3364 -0.1002
 7248SOL    HW123751  10.708   3.451   6.171 -1.1893 -2.6505 -1.1133
 7248SOL    HW223752  10.620   3.475   6.050 -0.0068  1.3404 -1.3359
 7249SOL     OW23753  10.843   0.949  10.098 -0.3019 -0.1464  0.1442
 7249SOL    HW123754  10.763   0.964  10.047 -0.5927 -2.9738 -0.3893
 7249SOL    HW223755  10.910   1.000  10.053 -1.2159 -0.0189 -1.1291
 7250SOL     OW23756   4.832   1.012   1.525 -0.4405  0.3607  0.0417
 7250SOL    HW123757   4.754   0.984   1.574 -0.2883 -0.1064  0.0209
 7250SOL    HW223758   4.904   0.965   1.567 -0.1468  0.9033  0.1540
 7251SOL     OW23759   0.383   6.721   1.959  0.4222  0.1146 -0.0250
 7251SOL    HW123760   0.389   6.812   1.989 -0.2517 -0.1240  0.8612
 7251SOL    HW223761   0.473   6.689   1.962  0.4886  0.3563  0.9488
 7252SOL     OW23762  10.414   3.307   1.538 -0.2372  0.2250 -0.1612
 7252SOL    HW123763  10.509   3.317   1.542 -0.1289 -0.7333 -0.0733
 7252SOL    HW223764  10.380   3.393   1.562  0.6100  1.1193 -1.9511
 7253SOL     OW23765   1.936   8.428   0.097 -0.5842  0.4286  0.8274
 7253SOL    HW123766   2.027   8.408   0.119 -0.4753  0.1303  0.1238
 7253SOL    HW223767   1.885   8.364   0.145 -0.5240  1.4296  2.3031
 7254SOL     OW23768   1.870   0.952   5.281  0.3554 -0.2106  0.5051
 7254SOL    HW123769   1.808   0.991   5.219 -0.3148  1.4830  2.1759
 7254SOL    HW223770   1.872   0.859   5.256 -2.2437 -0.1868 -0.1141
 7255SOL     OW23771   5.222   4.777   9.996 -0.4787  0.5787  0.2024
 7255SOL    HW123772   5.189   4.862   9.966 -4.1536 -0.1590  1.6190
 7255SOL    HW223773   5.233   4.726   9.915 -1.8457  1.2755 -0.4623
 7256SOL     OW23774  10.423   6.291   7.518 -0.3706 -0.7310  0.1751
 7256SOL    HW123775  10.327   6.294   7.519 -0.4007 -1.6632  0.3271
 7256SOL    HW223776  10.447   6.347   7.444 -0.9573  0.8748  1.1251
 7257SOL     OW23777   8.502   1.966   7.432  0.8404 -0.5767  0.2875
 7257SOL    HW123778   8.419   1.990   7.474  1.5894  2.3321  0.2939
 7257SOL    HW223779   8.493   1.872   7.415 -3.6014  0.0004 -2.2238
 7258SOL     OW23780   2.479   9.933   7.562  0.1475 -0.3669  0.2295
 7258SOL    HW123781   2.528   9.960   7.485  0.2182 -0.6762  0.1682
 7258SOL    HW223782   2.407   9.880   7.528  0.0667 -0.3447  0.3624
 7259SOL     OW23783   9.760   1.894   7.352 -0.6884 -0.1136 -0.0158
 7259SOL    HW123784   9.786   1.841   7.427 -2.9020  1.6425  2.1393
 7259SOL    HW223785   9.826   1.962   7.346  0.5848 -1.3750 -0.9958
 7260SOL     OW23786   7.857   9.387   9.778 -0.3499  0.2044  0.7315
 7260SOL    HW123787   7.887   9.409   9.690 -0.1560  0.2799  0.8175
 7260SOL    HW223788   7.830   9.296   9.772 -1.9762  0.6808  0.1494
 7261SOL     OW23789   9.550   1.628   0.710  0.0017  0.1084  0.1517
 7261SOL    HW123790   9.615   1.693   0.736 -0.2885  0.1875  0.7033
 7261SOL    HW223791   9.491   1.622   0.786 -1.5285  1.1858 -0.8779
 7262SOL     OW23792   1.016   1.262   2.663  0.2530  0.2845 -0.2529
 7262SOL    HW123793   1.092   1.307   2.700 -0.0270  1.5372 -1.1473
 7262SOL    HW223794   1.033   1.261   2.569 -0.5359 -0.0121 -0.3963
 7263SOL     OW23795   4.399   3.391   2.661 -0.2097 -0.0925 -0.3299
 7263SOL    HW123796   4.329   3.451   2.684 -0.7514 -0.8432  0.0180
 7263SOL    HW223797   4.478   3.445   2.657 -0.5679  0.5187  0.6348
 7264SOL     OW23798   7.756   7.909   7.524  0.1603 -0.2765  0.0665
 7264SOL    HW123799   7.783   7.998   7.505  0.2947 -0.4112 -0.3905
 7264SOL    HW223800   7.737   7.871   7.438 -3.6513  0.4647  0.4467
 7265SOL     OW23801   7.825   0.626   9.901 -0.5803 -0.1315 -0.0091
 7265SOL    HW123802   7.821   0.687   9.826 -0.3937 -0.5645 -0.3747
 7265SOL    HW223803   7.866   0.677   9.971 -0.0987  0.0612 -0.4226
 7266SOL     OW23804   5.507   8.291   2.585  0.3145 -0.2698 -0.0764
 7266SOL    HW123805   5.574   8.360   2.579  0.1618 -0.1070  0.0945
 7266SOL    HW223806   5.427   8.337   2.611  0.3822 -0.6047  0.7544
 7267SOL     OW23807   5.489   4.304  10.676 -0.1481  0.3707 -0.0284
 7267SOL    HW123808   5.411   4.249  10.690 -0.1519 -0.0376 -1.4867
 7267SOL    HW223809   5.453   4.388  10.647 -0.0683  0.2237 -0.5718
 7268SOL     OW23810   8.804   2.477   7.151 -0.1678  0.4394 -0.6877
 7268SOL    HW123811   8.794   2.407   7.215 -1.1394  1.2130  0.0167
 7268SOL    HW223812   8.776   2.556   7.196  0.0843  1.1622 -1.7546
 7269SOL     OW23813   3.565   6.044   4.838 -0.4662 -0.3603 -0.3243
 7269SOL    HW123814   3.526   6.009   4.758  0.6222 -0.8507 -0.6578
 7269SOL    HW223815   3.655   6.066   4.814  0.2990 -1.7573  1.0787
 7270SOL     OW23816   3.608  10.400   8.440  0.2733 -0.3085  0.1700
 7270SOL    HW123817   3.602  10.487   8.478  1.3278  0.4354 -1.2865
 7270SOL    HW223818   3.697  10.371   8.459  0.8421  0.0992 -1.6725
 7271SOL     OW23819   0.473   6.681  10.971 -0.1037  0.4672  0.0178
 7271SOL    HW123820   0.549   6.738  10.964  0.2310  0.0824  0.4926
 7271SOL    HW223821   0.401   6.732  10.932  0.5208  0.5743 -1.0195
 7272SOL     OW23822  11.071   2.332   1.939  0.1761  0.2392  0.6292
 7272SOL    HW123823  11.080   2.318   2.034 -2.1306  1.9183  1.1993
 7272SOL    HW223824  11.147   2.385   1.915  1.1251 -0.7276  1.3889
 7273SOL     OW23825   5.664   8.457   5.208 -0.3121 -0.1862 -0.2615
 7273SOL    HW123826   5.602   8.423   5.143  0.4969  0.2799 -1.2959
 7273SOL    HW223827   5.745   8.408   5.193  0.4609  1.2389 -0.8922
 7274SOL     OW23828   3.535   7.245   0.549  0.2916 -0.1180  0.7485
 7274SOL    HW123829   3.547   7.150   0.552 -1.2217 -0.3727 -0.2259
 7274SOL    HW223830   3.622   7.280   0.528  1.1205 -1.1786  2.2704
 7275SOL     OW23831   2.629   9.587  11.023 -0.6517  0.3930 -0.1216
 7275SOL    HW123832   2.597   9.642  10.952 -2.9538 -1.0742 -0.3340
 7275SOL    HW223833   2.670   9.512  10.979 -3.6746 -1.4419 -0.1285
 7276SOL     OW23834   7.788   1.260   8.255  0.0779 -0.2206 -0.0507
 7276SOL    HW123835   7.721   1.222   8.199 -0.5379 -0.3110  0.7306
 7276SOL    HW223836   7.802   1.195   8.324  1.1384 -0.3028 -0.3249
 7277SOL     OW23837   6.502   1.183   5.290  0.5670  0.5624 -0.3113
 7277SOL    HW123838   6.508   1.109   5.350 -1.2372 -1.6517 -2.6648
 7277SOL    HW223839   6.449   1.248   5.336  0.5115 -0.4176  1.0441
 7278SOL     OW23840   6.650  11.065   1.096 -0.0505  0.2424  0.1276
 7278SOL    HW123841   6.639  11.157   1.070  0.1330  0.3919  0.5737
 7278SOL    HW223842   6.600  11.056   1.176  0.5984  0.1629  0.5323
 7279SOL     OW23843   3.353   8.950   7.694 -0.1082  0.0372  0.3650
 7279SOL    HW123844   3.394   8.932   7.609 -1.1530  0.7130 -0.3072
 7279SOL    HW223845   3.364   8.869   7.743 -0.6137 -0.8190 -0.8893
 7280SOL     OW23846   9.424   7.319   2.839  0.4958  0.1927  0.6139
 7280SOL    HW123847   9.348   7.270   2.871 -0.1337  0.6691 -0.1054
 7280SOL    HW223848   9.420   7.402   2.886  0.9128 -0.0102  1.0077
 7281SOL     OW23849   5.551   8.723   7.378 -0.4073  0.4508 -0.9847
 7281SOL    HW123850   5.459   8.733   7.354 -0.4952 -0.5251 -1.0833
 7281SOL    HW223851   5.598   8.725   7.295 -0.4406 -0.0555 -1.0194
 7282SOL     OW23852  11.086   5.962   2.689 -0.0888 -0.7569  0.1416
 7282SOL    HW123853  11.129   5.931   2.610  1.1907  0.9740  0.1082
 7282SOL    HW223854  10.993   5.965   2.666  0.4019  1.4312 -1.9912
 7283SOL     OW23855   2.571   2.400   0.741  0.5299  0.4194  0.3090
 7283SOL    HW123856   2.619   2.471   0.785  2.9987 -0.0041 -1.4961
 7283SOL    HW223857   2.607   2.320   0.779 -0.4665  0.0936  0.5778
 7284SOL     OW23858   3.101   6.530  10.720 -0.2089  0.6646  0.2018
 7284SOL    HW123859   3.160   6.578  10.661  1.0880 -1.3241 -0.2017
 7284SOL    HW223860   3.158   6.500  10.791 -0.9202 -0.4615  0.3189
 7285SOL     OW23861   5.317   9.014   3.238  0.7068 -0.2455 -0.6104
 7285SOL    HW123862   5.249   8.972   3.185 -1.1847  0.0841  1.4371
 7285SOL    HW223863   5.384   9.040   3.174 -0.6562 -1.3531 -2.6032
 7286SOL     OW23864   6.121   7.100   4.568  0.1054  0.0714 -0.2665
 7286SOL    HW123865   6.144   7.017   4.610  1.0890 -0.6546 -2.1525
 7286SOL    HW223866   6.025   7.106   4.578  0.2557 -0.1373  1.8348
 7287SOL     OW23867   7.524  10.820   8.585 -0.1996 -0.0105  0.5747
 7287SOL    HW123868   7.560  10.735   8.611 -0.2539 -1.1557 -2.6564
 7287SOL    HW223869   7.600  10.869   8.554 -0.3375  0.7684  1.4083
 7288SOL     OW23870   3.136   2.727   7.512 -0.2986  0.4112 -0.3553
 7288SOL    HW123871   3.043   2.705   7.508 -0.3843  0.4605  0.9182
 7288SOL    HW223872   3.142   2.793   7.580  0.9031 -0.9261  0.9013
 7289SOL     OW23873   0.697  10.324   7.988  0.4784  0.1956 -0.1620
 7289SOL    HW123874   0.644  10.326   8.068 -1.1416  0.4605 -1.1988
 7289SOL    HW223875   0.684  10.236   7.952  0.1425  0.5022 -0.8081
 7290SOL     OW23876   3.933  10.779   9.464 -0.2927  0.8168 -0.3384
 7290SOL    HW123877   3.983  10.829   9.529 -0.7225 -0.2876  0.8885
 7290SOL    HW223878   3.868  10.732   9.516 -0.5334 -0.2304 -1.5604
 7291SOL     OW23879   4.233   3.064   7.985  0.0828 -0.5387  0.8410
 7291SOL    HW123880   4.257   3.146   8.028 -0.5156  0.4245 -0.5761
 7291SOL    HW223881   4.138   3.070   7.973  0.3451 -0.1937 -1.6074
 7292SOL     OW23882  10.994   0.299   2.115 -0.3602  0.5102 -0.8968
 7292SOL    HW123883  10.994   0.203   2.120  0.2384  0.5028 -0.9883
 7292SOL    HW223884  10.903   0.324   2.131 -0.3049 -0.0189  0.3545
 7293SOL     OW23885   3.431   8.447   7.237  0.0089 -0.5857 -0.0202
 7293SOL    HW123886   3.365   8.506   7.201  0.0325  0.4225  1.4743
 7293SOL    HW223887   3.503   8.450   7.174 -0.1631  0.6778 -0.1862
 7294SOL     OW23888   6.154   1.064   6.953  0.3183 -0.1653  0.0081
 7294SOL    HW123889   6.115   1.006   6.888 -0.2330  0.4733 -0.2356
 7294SOL    HW223890   6.208   1.124   6.902  0.5194 -0.1665  0.2168
 7295SOL     OW23891   5.696  10.284   6.901 -0.0473 -0.7673 -0.2001
 7295SOL    HW123892   5.743  10.366   6.911 -1.0159 -0.2929  0.5882
 7295SOL    HW223893   5.761  10.216   6.920  1.0414 -0.2557 -1.9162
 7296SOL     OW23894   6.360   7.163  10.420  0.0044  0.1656 -0.4722
 7296SOL    HW123895   6.330   7.111  10.495 -1.6317  1.4917 -0.1553
 7296SOL    HW223896   6.450   7.187  10.443 -0.1515 -0.2246  0.6337
 7297SOL     OW23897   1.420   6.264   1.673  0.0899 -0.1788 -0.3397
 7297SOL    HW123898   1.477   6.242   1.600  0.7857 -1.6978  0.6118
 7297SOL    HW223899   1.414   6.184   1.725 -0.9328  0.6484  0.9068
 7298SOL     OW23900   0.532   5.515   5.546 -0.2308  0.4889  0.2598
 7298SOL    HW123901   0.530   5.444   5.611 -1.2786 -1.1551 -1.4447
 7298SOL    HW223902   0.553   5.471   5.464  2.7270  2.7376 -0.3350
 7299SOL     OW23903   4.766   0.752   0.276  0.8142 -0.2579 -0.2362
 7299SOL    HW123904   4.815   0.785   0.351  1.2903  1.9682 -1.4295
 7299SOL    HW223905   4.690   0.811   0.269  1.0041 -0.1460 -1.7270
 7300SOL     OW23906   3.117   3.886   3.368 -0.1596  0.3967  0.4011
 7300SOL    HW123907   3.184   3.850   3.426  0.8631  2.2094  0.4281
 7300SOL    HW223908   3.070   3.950   3.421 -0.4966  0.6696 -0.2083
 7301SOL     OW23909   1.564  10.211   9.635  0.2733 -0.8821  0.4063
 7301SOL    HW123910   1.481  10.258   9.644  0.4090 -0.9500  2.6853
 7301SOL    HW223911   1.631  10.273   9.663  0.5345 -2.0176  2.6092
 7302SOL     OW23912  10.188   1.136   4.528  0.9984  0.1223 -0.3177
 7302SOL    HW123913  10.121   1.201   4.508 -1.3421 -2.0489 -0.0150
 7302SOL    HW223914  10.159   1.097   4.611  3.0122 -0.5033  0.1582
 7303SOL     OW23915   5.172   0.094   5.454  0.5235  0.6723 -0.5259
 7303SOL    HW123916   5.117   0.072   5.380  0.0924 -1.8104  0.4315
 7303SOL    HW223917   5.243   0.030   5.451  0.9861  1.0968  0.6936
 7304SOL     OW23918   7.135   9.840   7.239 -0.0249  0.4222 -0.2154
 7304SOL    HW123919   7.048   9.856   7.202 -0.3897 -1.5555 -0.3200
 7304SOL    HW223920   7.118   9.821   7.331 -0.1459 -2.8355 -0.7823
 7305SOL     OW23921   2.951   8.108  10.820  0.4153 -0.3029  0.4540
 7305SOL    HW123922   3.042   8.084  10.805  0.3018 -1.8855  1.9464
 7305SOL    HW223923   2.943   8.197  10.786  2.1671 -0.6058 -0.8819
 7306SOL     OW23924   8.909   2.092   2.818  0.2385  0.0587 -0.1267
 7306SOL    HW123925   8.815   2.107   2.831  0.6828  0.8682  2.8523
 7306SOL    HW223926   8.925   2.120   2.728 -2.5193 -1.1094 -1.1205
 7307SOL     OW23927   4.925   2.528  11.057  0.1935 -0.0372  0.8554
 7307SOL    HW123928   4.889   2.504  11.142 -1.4560  2.2112  0.8866
 7307SOL    HW223929   5.014   2.556  11.076  0.8658 -2.2575  1.3306
 7308SOL     OW23930   9.049   2.519   9.161 -0.4742 -0.5407  0.0440
 7308SOL    HW123931   9.121   2.501   9.101  0.3199 -1.1144  1.1386
 7308SOL    HW223932   8.976   2.467   9.128 -0.6312  0.5676 -1.4657
 7309SOL     OW23933   0.873   7.315   0.403  0.0781 -0.1201  0.7902
 7309SOL    HW123934   0.874   7.250   0.473  2.7226 -0.4474  0.5362
 7309SOL    HW223935   0.965   7.331   0.383 -0.5649  0.4130 -2.2125
 7310SOL     OW23936   8.228   4.439   2.639 -0.0148  0.5655 -0.6012
 7310SOL    HW123937   8.184   4.369   2.590 -0.4602  0.0828  0.4493
 7310SOL    HW223938   8.319   4.409   2.647 -0.1298  0.2472 -0.4389
 7311SOL     OW23939  10.411   8.399   5.157 -0.0949  0.0673  0.4697
 7311SOL    HW123940  10.442   8.463   5.221 -1.9362 -1.5861  3.2400
 7311SOL    HW223941  10.316   8.400   5.167 -0.5428  0.2141 -2.8551
 7312SOL     OW23942   2.144   5.413   7.530 -0.0215 -0.1131 -0.5354
 7312SOL    HW123943   2.072   5.365   7.488  0.7753 -0.7472 -1.2306
 7312SOL    HW223944   2.122   5.505   7.519 -0.9321 -0.2957 -0.3511
 7313SOL     OW23945   0.847   0.610   9.678  0.4546  0.3325 -0.3037
 7313SOL    HW123946   0.867   0.575   9.764  0.6958  0.4924 -0.2937
 7313SOL    HW223947   0.896   0.555   9.617  0.3763  0.2927 -0.3309
 7314SOL     OW23948  10.599  10.819  10.520 -0.2356  0.1789 -0.1152
 7314SOL    HW123949  10.593  10.799  10.427  1.4517 -1.9876  0.1470
 7314SOL    HW223950  10.686  10.856  10.531 -0.9196  1.6782  0.4419
 7315SOL     OW23951   2.128   9.238   8.573  0.3371  0.2060  0.7008
 7315SOL    HW123952   2.189   9.259   8.502 -0.0354  0.5806  0.4850
 7315SOL    HW223953   2.079   9.319   8.587 -0.2886 -0.1653  0.6974
 7316SOL     OW23954   4.675   4.858   3.599  0.5682 -0.1543 -0.5211
 7316SOL    HW123955   4.698   4.939   3.553  1.6885 -1.2179 -1.9636
 7316SOL    HW223956   4.607   4.883   3.661  0.9378  1.8920 -0.8795
 7317SOL     OW23957   3.727   5.482   3.101  0.1285 -0.2338  0.4729
 7317SOL    HW123958   3.792   5.533   3.052 -2.7037  2.5551 -0.7454
 7317SOL    HW223959   3.722   5.528   3.186 -0.6993  0.0032  0.2993
 7318SOL     OW23960   0.755  10.951   9.943 -0.8645 -0.1732  0.0897
 7318SOL    HW123961   0.702  10.878   9.909 -0.5433 -1.0228  1.3455
 7318SOL    HW223962   0.707  11.029   9.915 -0.4652 -0.7685 -2.5283
 7319SOL     OW23963   1.016   8.162   6.704 -0.4587 -0.5906  0.5363
 7319SOL    HW123964   0.951   8.112   6.753 -0.5910 -0.1012  0.8616
 7319SOL    HW223965   1.099   8.118   6.724 -0.5976 -0.7986  0.6654
 7320SOL     OW23966   9.074   2.257   4.130 -0.6284 -0.4761 -0.4262
 7320SOL    HW123967   9.109   2.293   4.212 -0.8893 -0.1602 -0.4493
 7320SOL    HW223968   9.145   2.204   4.094 -0.5805 -0.7964  0.1148
 7321SOL     OW23969   1.573   6.489   1.105 -0.2173 -0.2341  0.1566
 7321SOL    HW123970   1.591   6.398   1.080  0.1644  0.3531 -1.8762
 7321SOL    HW223971   1.659   6.529   1.115 -0.3139  0.5703 -1.7462
 7322SOL     OW23972   9.019   6.363   7.443 -0.1324  0.5026 -0.6599
 7322SOL    HW123973   9.069   6.282   7.450 -0.1588  0.5029 -0.4723
 7322SOL    HW223974   8.982   6.377   7.530  1.4731  1.7432 -0.1189
 7323SOL     OW23975   0.328   7.157  10.585 -0.5631 -0.2801  0.1941
 7323SOL    HW123976   0.263   7.133  10.519 -1.9398  1.9865  0.6184
 7323SOL    HW223977   0.358   7.244  10.559 -1.5375  0.9203  2.7682
 7324SOL     OW23978   6.566   9.980   5.801 -0.2650 -0.3411  0.4653
 7324SOL    HW123979   6.504   9.910   5.781  1.2929 -1.3814 -1.0319
 7324SOL    HW223980   6.590  10.016   5.716  1.7550 -0.5309  0.8992
 7325SOL     OW23981  11.091   0.446   1.393 -0.5256 -0.1406  0.6765
 7325SOL    HW123982  11.038   0.378   1.351 -0.7213 -0.6858  1.7827
 7325SOL    HW223983  11.104   0.511   1.324 -1.1546 -0.8316 -0.1232
 7326SOL     OW23984   5.300   8.604   8.742  0.0865  0.7138  0.4603
 7326SOL    HW123985   5.383   8.651   8.737  0.9387 -0.7611  0.2068
 7326SOL    HW223986   5.325   8.511   8.742 -1.5121  0.2496  1.3657
 7327SOL     OW23987   2.667   7.301   2.868  0.4552 -0.3694  0.0688
 7327SOL    HW123988   2.592   7.338   2.915 -0.4006 -0.5751 -1.0914
 7327SOL    HW223989   2.654   7.206   2.871 -0.0462 -0.3625 -1.2352
 7328SOL     OW23990   2.806   0.223   2.114 -0.8513 -0.0000 -0.0721
 7328SOL    HW123991   2.744   0.154   2.091 -1.9005  0.5198  1.0878
 7328SOL    HW223992   2.892   0.183   2.105 -1.4524 -1.6607  1.1932
 7329SOL     OW23993  10.923   0.932   0.121 -0.2033 -0.5439  0.1968
 7329SOL    HW123994  11.016   0.942   0.103 -0.1739 -1.1835 -0.0113
 7329SOL    HW223995  10.908   0.983   0.201  0.2285 -0.0648 -0.0222
 7330SOL     OW23996   0.792   6.594   9.193  0.5833  0.4990  0.1877
 7330SOL    HW123997   0.845   6.516   9.211 -0.4921 -0.0829  0.9946
 7330SOL    HW223998   0.759   6.620   9.279  0.3584  1.4333 -0.1734
 7331SOL     OW23999   5.095   9.365   4.687 -0.4452  0.2566 -0.0481
 7331SOL    HW124000   5.054   9.353   4.773 -2.5142  2.1591 -0.6942
 7331SOL    HW224001   5.030   9.334   4.625  0.0017  1.2393 -1.0331
 7332SOL     OW24002   8.815   1.361   9.457  0.7190 -0.2773 -0.2655
 7332SOL    HW124003   8.781   1.427   9.397 -1.0071 -0.8023  0.0714
 7332SOL    HW224004   8.811   1.401   9.543  0.3593 -0.5690 -0.1454
 7333SOL     OW24005   0.968   7.616   2.332  0.1781 -0.1085 -0.3286
 7333SOL    HW124006   1.035   7.680   2.310 -2.0356  2.4621 -0.0165
 7333SOL    HW224007   0.990   7.588   2.421 -0.0481  1.9779  0.4244
 7334SOL     OW24008   2.024   4.276   8.155 -0.0727  0.0492 -0.1624
 7334SOL    HW124009   2.024   4.184   8.129  0.2298 -0.4016  1.3289
 7334SOL    HW224010   1.962   4.281   8.228  0.4081  0.8911  0.2113
 7335SOL     OW24011   4.924   9.531  10.654 -0.4902  0.6189  0.0674
 7335SOL    HW124012   4.988   9.564  10.591  0.4784 -1.0014  0.1405
 7335SOL    HW224013   4.948   9.573  10.736  0.0643  0.5484 -0.0526
 7336SOL     OW24014  11.064   5.648   0.825  0.3969  0.2258  0.1535
 7336SOL    HW124015  10.992   5.625   0.767  1.3950 -0.2405 -0.9543
 7336SOL    HW224016  11.029   5.716   0.882 -0.4939  1.0244 -1.3023
 7337SOL     OW24017   9.492   5.743   3.369  0.0807  0.0684 -0.4086
 7337SOL    HW124018   9.484   5.763   3.276  1.3531 -1.3545 -0.8531
 7337SOL    HW224019   9.586   5.729   3.383 -0.1483 -0.2680  0.9738
 7338SOL     OW24020   6.154   9.563   3.081  0.9163  0.2537  0.5423
 7338SOL    HW124021   6.230   9.561   3.022  0.6821  0.6599  0.2211
 7338SOL    HW224022   6.083   9.600   3.027 -0.1473 -2.2510  0.0909
 7339SOL     OW24023   1.073   5.523   9.084 -0.4839  0.1593 -0.3085
 7339SOL    HW124024   1.140   5.478   9.136  0.2499  2.0301  0.4377
 7339SOL    HW224025   0.995   5.468   9.093  0.6030 -1.4266 -0.1965
 7340SOL     OW24026   9.419   2.823  10.906  0.1805  0.4479 -0.3599
 7340SOL    HW124027   9.490   2.761  10.923  0.5288  1.0508  0.4908
 7340SOL    HW224028   9.380   2.839  10.992 -1.5913 -0.5655 -0.9311
 7341SOL     OW24029   7.262   4.293   9.584 -0.5827 -0.5070  0.3297
 7341SOL    HW124030   7.241   4.321   9.673  0.4241 -0.2960  0.5109
 7341SOL    HW224031   7.347   4.332   9.566 -1.9282  1.7672 -1.7665
 7342SOL     OW24032   3.101   1.300   8.165  0.4162 -0.2248 -0.5915
 7342SOL    HW124033   3.010   1.285   8.139  0.0047  0.9413  0.0905
 7342SOL    HW224034   3.143   1.215   8.156 -0.3562 -0.4698 -2.3822
 7343SOL     OW24035   2.295   7.842  10.481 -0.1617 -0.4346 -0.0119
 7343SOL    HW124036   2.303   7.915  10.542 -0.8448 -0.2546 -0.1230
 7343SOL    HW224037   2.297   7.882  10.394 -1.8989 -0.3549 -0.0658
 7344SOL     OW24038   2.544   6.747   2.219  0.0435 -0.2675  0.2210
 7344SOL    HW124039   2.471   6.715   2.272 -1.6941  1.4134 -0.9953
 7344SOL    HW224040   2.554   6.682   2.149 -1.0301 -0.0099 -0.1965
 7345SOL     OW24041   2.334   1.642   1.362  0.4908  0.5130 -0.2915
 7345SOL    HW124042   2.268   1.635   1.293  2.3091 -0.0249 -2.0730
 7345SOL    HW224043   2.293   1.600   1.438 -1.2106  0.2457 -1.2932
 7346SOL     OW24044   1.390  10.424   9.705 -0.4550  0.4750 -0.5225
 7346SOL    HW124045   1.447  10.492   9.667 -0.1520 -0.2091 -1.3151
 7346SOL    HW224046   1.364  10.460   9.790  1.9437  0.4167  0.3344
 7347SOL     OW24047   1.608   3.864  10.735  0.5806 -0.0612 -0.0520
 7347SOL    HW124048   1.612   3.782  10.784  1.3005 -0.2024 -0.3211
 7347SOL    HW224049   1.700   3.893  10.730  0.3637  0.6193 -0.1866
 7348SOL     OW24050   2.318   8.847   8.580  0.1517  0.1582 -0.3243
 7348SOL    HW124051   2.407   8.881   8.570  0.2122  1.0002  2.3219
 7348SOL    HW224052   2.316   8.813   8.670 -2.4007  0.8203 -0.0700
 7349SOL     OW24053   8.137  11.008   1.288  0.1887  0.0946  0.0817
 7349SOL    HW124054   8.063  11.056   1.324  0.4867  0.8893 -0.3290
 7349SOL    HW224055   8.112  10.989   1.197 -0.2458 -1.2233  0.4573
 7350SOL     OW24056  10.990  11.085   4.979 -0.1633  0.0891  0.0946
 7350SOL    HW124057  11.057  11.149   5.002 -1.0908  1.5344 -1.1011
 7350SOL    HW224058  10.934  11.080   5.057 -0.5690  1.4050 -0.0848
 7351SOL     OW24059   7.701   0.192   4.856  0.1341 -0.6667  0.0733
 7351SOL    HW124060   7.700   0.181   4.951 -2.2282 -1.2026  0.0563
 7351SOL    HW224061   7.639   0.127   4.824 -0.5464  0.7525 -1.6658
 7352SOL     OW24062   9.473   7.189   6.422  0.0158  0.2148  0.6411
 7352SOL    HW124063   9.463   7.220   6.332  1.3540 -0.4445  0.2269
 7352SOL    HW224064   9.387   7.153   6.444 -0.2431  0.0607 -0.5095
 7353SOL     OW24065   8.472   8.012   4.872  0.1154 -0.0940  0.6398
 7353SOL    HW124066   8.493   7.962   4.951 -3.5123  0.1441  1.9346
 7353SOL    HW224067   8.480   7.949   4.801  1.0526 -0.9880  1.5167
 7354SOL     OW24068   5.033   8.546   0.351  0.4102  0.6825 -0.4031
 7354SOL    HW124069   5.068   8.516   0.267  0.1280 -0.1192 -0.2459
 7354SOL    HW224070   5.028   8.641   0.343 -0.2596  0.5628 -1.5408
 7355SOL     OW24071  10.372   2.376  10.072 -0.0873  0.0048  0.1439
 7355SOL    HW124072  10.308   2.375  10.000  1.8101  1.4284 -1.6802
 7355SOL    HW224073  10.373   2.466  10.102  1.0713  0.0012  0.1333
 7356SOL     OW24074   0.392   1.804   1.072  0.2087 -0.0071 -0.2287
 7356SOL    HW124075   0.418   1.713   1.055 -2.2785 -0.9582  0.6113
 7356SOL    HW224076   0.320   1.820   1.012  0.1408  1.1730  0.1420
 7357SOL     OW24077   5.292   7.634   7.914  0.2412  0.3395  0.2016
 7357SOL    HW124078   5.245   7.718   7.919 -1.4451 -0.6023  1.2243
 7357SOL    HW224079   5.237   7.580   7.857  1.5571  0.0436 -0.8226
 7358SOL     OW24080   2.651   6.804  10.842  0.0151 -0.0775  0.0557
 7358SOL    HW124081   2.652   6.867  10.770 -1.2866 -0.3205 -0.1913
 7358SOL    HW224082   2.621   6.854  10.917 -1.5411 -0.4895 -0.2578
 7359SOL     OW24083   8.981   1.619   0.410  0.2223  0.6182 -0.7612
 7359SOL    HW124084   9.000   1.618   0.504 -1.1217 -0.0029 -0.4730
 7359SOL    HW224085   9.049   1.564   0.371 -1.5654 -2.6767  0.3890
 7360SOL     OW24086   0.365   4.616   1.404  0.6281 -0.4059  0.0655
 7360SOL    HW124087   0.449   4.662   1.399  0.4531 -0.1489 -0.7175
 7360SOL    HW224088   0.367   4.556   1.329 -0.4764  0.6249 -0.8146
 7361SOL     OW24089   0.675   9.418   3.535  0.4187 -0.0932 -0.1164
 7361SOL    HW124090   0.649   9.383   3.450  2.6036 -0.4792 -0.6978
 7361SOL    HW224091   0.606   9.481   3.558  0.2007  0.6851 -2.5945
 7362SOL     OW24092   2.551   2.295   2.746 -0.5772 -0.3646  0.0013
 7362SOL    HW124093   2.588   2.361   2.804 -0.8615  0.2601 -0.5198
 7362SOL    HW224094   2.563   2.331   2.658 -1.5965 -0.5642 -0.2352
 7363SOL     OW24095   8.516   5.364   8.889  0.0437 -0.6246 -0.2903
 7363SOL    HW124096   8.454   5.313   8.940 -1.0553 -0.4176 -1.3763
 7363SOL    HW224097   8.569   5.411   8.954 -1.8275  0.2582  0.6540
 7364SOL     OW24098   0.562   1.926   4.269  0.3115  0.4779  0.0863
 7364SOL    HW124099   0.474   1.920   4.232  1.0353  0.3537 -1.7276
 7364SOL    HW224100   0.565   2.011   4.313 -0.2858  1.0972 -1.0415
 7365SOL     OW24101   1.012   1.870   7.170  0.1938  0.0078  0.5120
 7365SOL    HW124102   1.040   1.957   7.139 -1.9706  0.7223  0.4075
 7365SOL    HW224103   1.019   1.814   7.093  3.5374 -0.5173  1.0258
 7366SOL     OW24104   1.670   9.411   7.799 -0.3576 -0.2732 -0.3401
 7366SOL    HW124105   1.765   9.418   7.801 -0.3412 -0.2158  2.5340
 7366SOL    HW224106   1.640   9.468   7.870 -2.7329  1.4047 -2.4915
 7367SOL     OW24107   1.227   7.027   1.053  0.3548  0.1534  0.0361
 7367SOL    HW124108   1.262   6.952   1.102 -0.2735 -0.6614 -0.7398
 7367SOL    HW224109   1.229   6.999   0.962 -0.8517  0.6979 -0.1665
 7368SOL     OW24110   0.462   0.515  10.907 -0.0756  0.2710 -0.2988
 7368SOL    HW124111   0.422   0.506  10.994  0.0801 -1.4992 -0.3787
 7368SOL    HW224112   0.511   0.597  10.912 -2.1774  1.5659  0.4012
 7369SOL     OW24113  10.816   7.726   1.885 -0.2733 -0.0485 -0.1603
 7369SOL    HW124114  10.871   7.778   1.943  0.5925 -0.5781 -0.4939
 7369SOL    HW224115  10.758   7.790   1.843  1.3234  0.7742 -1.1850
 7370SOL     OW24116   3.529   8.435   9.035  0.7078  0.1761 -0.3872
 7370SOL    HW124117   3.480   8.513   9.061 -0.4505 -0.2777 -1.1011
 7370SOL    HW224118   3.527   8.436   8.939  1.1292 -0.4575 -0.4089
 7371SOL     OW24119   2.393   5.921   1.380 -0.1767  0.9287 -0.1813
 7371SOL    HW124120   2.485   5.942   1.362 -0.5473  0.5112 -3.0463
 7371SOL    HW224121   2.393   5.829   1.405  0.2700  1.2042  0.8649
 7372SOL     OW24122   0.652   0.079   0.815  0.2536  1.1477 -0.0145
 7372SOL    HW124123   0.681  -0.012   0.815 -0.7465  0.8137  1.5418
 7372SOL    HW224124   0.692   0.116   0.736  0.1186 -0.7950 -1.0489
 7373SOL     OW24125   3.200   6.248   6.880 -0.2064 -0.1913  0.6803
 7373SOL    HW124126   3.227   6.157   6.867  3.8311  1.2434 -3.9321
 7373SOL    HW224127   3.267   6.285   6.937 -0.9245  0.2576  1.2447
 7374SOL     OW24128  10.049   2.045   2.543  0.2832 -0.1017 -1.0287
 7374SOL    HW124129  10.074   2.136   2.561 -0.6932  0.1112 -0.7162
 7374SOL    HW224130  10.133   1.998   2.537  0.7697  0.5522  0.2261
 7375SOL     OW24131   4.870  10.532   9.664  0.5875  0.4417 -0.6706
 7375SOL    HW124132   4.867  10.612   9.611 -0.2026 -0.4068 -1.9313
 7375SOL    HW224133   4.957  10.496   9.648  0.4875  0.3855 -1.0929
 7376SOL     OW24134   7.165  10.439   5.251 -0.7004 -0.1773 -0.1416
 7376SOL    HW124135   7.070  10.430   5.249 -0.7805  0.3855  0.6526
 7376SOL    HW224136   7.181  10.532   5.236 -0.1769 -0.5060 -1.9249
 7377SOL     OW24137   9.455   0.099   9.474 -0.0574 -0.0609  0.1928
 7377SOL    HW124138   9.452   0.186   9.513  0.4706 -0.2806  0.7634
 7377SOL    HW224139   9.430   0.040   9.546  0.0836 -0.4102 -0.0396
 7378SOL     OW24140   7.009   1.756   5.717 -0.1696 -0.1833  0.1365
 7378SOL    HW124141   6.995   1.850   5.711 -1.6913 -0.4299 -0.5725
 7378SOL    HW224142   6.971   1.731   5.801 -0.7146 -0.3073 -0.1416
 7379SOL     OW24143   0.880   1.898   1.101  0.1857  0.0655  0.2173
 7379SOL    HW124144   0.861   1.809   1.131  1.0010 -0.4162 -0.6472
 7379SOL    HW224145   0.964   1.890   1.056  0.4794  1.3657  0.5190
 7380SOL     OW24146   9.132   6.320   0.962  0.1373 -0.4492 -0.1034
 7380SOL    HW124147   9.101   6.231   0.980  1.4192 -0.5033  2.3636
 7380SOL    HW224148   9.183   6.343   1.040  1.3629  1.7710 -1.4664
 7381SOL     OW24149  10.175   2.477  10.342 -0.4706 -0.2347 -0.7055
 7381SOL    HW124150  10.211   2.416  10.406 -0.0886  0.6406 -0.0519
 7381SOL    HW224151  10.104   2.429  10.300  0.1340 -1.2869 -0.5698
 7382SOL     OW24152   1.974   1.607  10.935 -0.6305  0.3605  0.1639
 7382SOL    HW124153   2.047   1.547  10.919 -1.7148 -1.1296  0.5639
 7382SOL    HW224154   1.942   1.630  10.848 -1.6347 -1.5246 -0.0260
 7383SOL     OW24155   3.286   0.035   7.779  0.1649  0.2476 -0.2335
 7383SOL    HW124156   3.238  -0.047   7.766 -0.3785  0.7190 -1.3106
 7383SOL    HW224157   3.324   0.026   7.866  0.0144 -1.0997 -0.2751
 7384SOL     OW24158   9.782   5.607   7.457  0.2580 -0.5598 -0.0493
 7384SOL    HW124159   9.740   5.656   7.386  0.2201 -2.4834 -1.4119
 7384SOL    HW224160   9.875   5.628   7.448  0.0954  0.3894  0.3256
 7385SOL     OW24161   1.718   3.706   2.228 -0.5835  0.1780  0.2206
 7385SOL    HW124162   1.625   3.730   2.217 -0.4224  1.0893  0.7212
 7385SOL    HW224163   1.762   3.747   2.154 -0.8390 -2.0779 -1.2795
 7386SOL     OW24164   3.800   1.965   4.876  0.0867 -0.1876  0.4424
 7386SOL    HW124165   3.717   2.010   4.866 -0.0255  0.0824  2.2823
 7386SOL    HW224166   3.862   2.034   4.900  0.8182 -0.4171 -0.7090
 7387SOL     OW24167   0.452   2.015   9.013  0.4206 -0.0526 -0.3042
 7387SOL    HW124168   0.490   2.037   9.098 -2.1158 -1.2548  1.2714
 7387SOL    HW224169   0.494   2.075   8.951  1.3590  1.8224  2.0097
 7388SOL     OW24170   0.722   0.040   7.709  0.4098 -0.1385  0.1907
 7388SOL    HW124171   0.799   0.096   7.710 -0.8705  1.7135  0.6438
 7388SOL    HW224172   0.702   0.029   7.616  0.9455 -0.2434  0.0850
 7389SOL     OW24173   8.425  10.716   0.654 -0.6323  0.2977  0.1430
 7389SOL    HW124174   8.351  10.655   0.652  0.1110 -0.6903  1.5205
 7389SOL    HW224175   8.408  10.772   0.729  0.2685 -0.2924  0.8033
 7390SOL     OW24176   2.056   9.968  10.988 -0.2718 -0.5257 -0.0264
 7390SOL    HW124177   2.113   9.913  10.934  1.8413  1.2100  0.3263
 7390SOL    HW224178   1.969   9.930  10.976  0.9523 -3.5569 -0.2546
 7391SOL     OW24179   3.942  10.047   9.316  0.0968  0.4865 -0.5523
 7391SOL    HW124180   3.930  10.114   9.250  1.7587  1.2348 -0.1466
 7391SOL    HW224181   4.031  10.014   9.302  0.9026  1.3789  1.8874
 7392SOL     OW24182  11.091   7.048   8.414  0.0169  0.9248 -0.0124
 7392SOL    HW124183  11.009   7.039   8.365 -0.0726  2.5090 -0.2329
 7392SOL    HW224184  11.080   7.129   8.463  0.7584  0.1993  1.3897
 7393SOL     OW24185   3.000   1.185   7.467  0.3506 -0.4391  0.2454
 7393SOL    HW124186   3.066   1.118   7.485  0.7122  0.1926  1.3934
 7393SOL    HW224187   2.960   1.157   7.385  1.2004 -1.4983  0.1567
 7394SOL     OW24188   8.543   5.653   0.886  0.7686 -0.1789 -0.0553
 7394SOL    HW124189   8.485   5.728   0.875 -0.6668 -1.5303 -2.7997
 7394SOL    HW224190   8.552   5.643   0.981  1.0407  3.3775  0.4366
 7395SOL     OW24191   6.852   7.544   9.769 -0.5983 -0.0186  0.3822
 7395SOL    HW124192   6.784   7.499   9.720  1.5695 -0.7593 -2.1548
 7395SOL    HW224193   6.836   7.637   9.752 -1.4356 -0.1366  0.4987
 7396SOL     OW24194   2.974   5.417  10.087  0.3596  0.0617 -0.1812
 7396SOL    HW124195   2.892   5.465  10.087 -0.2912 -0.9792  0.9188
 7396SOL    HW224196   2.948   5.325  10.080  1.4029 -0.3127  0.5747
 7397SOL     OW24197   3.469   9.031   7.355 -0.1956 -0.0936 -0.0692
 7397SOL    HW124198   3.423   8.964   7.305 -0.8850  1.3025 -1.4075
 7397SOL    HW224199   3.522   9.077   7.289 -0.0591  0.9213  0.7293
 7398SOL     OW24200   5.242   4.447  10.591 -0.2130  0.2964 -0.1346
 7398SOL    HW124201   5.195   4.367  10.569 -0.3720 -0.1027  1.5207
 7398SOL    HW224202   5.208   4.512  10.529  0.4864 -1.0391 -2.0451
 7399SOL     OW24203   3.023   6.463   7.551 -0.5330  0.2256 -0.4428
 7399SOL    HW124204   2.954   6.427   7.608  0.0205 -1.5333 -0.8036
 7399SOL    HW224205   3.051   6.388   7.498  1.3142  1.0089 -0.6451
 7400SOL     OW24206   8.894   2.292  10.100  0.2097  0.3059 -0.2568
 7400SOL    HW124207   8.851   2.305  10.016  0.6467 -1.4159 -0.7841
 7400SOL    HW224208   8.984   2.322  10.087  0.0134  0.9761 -0.0933
 7401SOL     OW24209   1.226   0.078   9.762  0.2179  0.3801 -0.0934
 7401SOL    HW124210   1.138   0.043   9.743  0.2402  0.4416 -0.3113
 7401SOL    HW224211   1.214   0.131   9.840 -0.4479  2.3890 -1.4855
 7402SOL     OW24212   8.089   8.990   1.209 -0.0810 -0.2590 -0.7779
 7402SOL    HW124213   8.147   9.044   1.155 -0.5597  0.4671 -0.5701
 7402SOL    HW224214   8.082   8.908   1.160  4.2144 -2.0046  0.9761
 7403SOL     OW24215   6.192  10.872  10.599  0.1732  0.1351  0.6744
 7403SOL    HW124216   6.126  10.938  10.621 -0.0849 -0.2682  1.1331
 7403SOL    HW224217   6.141  10.800  10.561  0.5974  0.7780 -1.2088
 7404SOL     OW24218  10.315  10.140   6.529 -0.6086  0.0800 -0.2367
 7404SOL    HW124219  10.350  10.207   6.587 -0.9892 -0.8796  1.1440
 7404SOL    HW224220  10.221  10.152   6.532 -0.7707 -1.3224  1.0718
 7405SOL     OW24221   3.364  10.487   9.354  0.4485  0.2804  0.2670
 7405SOL    HW124222   3.305  10.539   9.409 -1.3757 -1.6535  0.2513
 7405SOL    HW224223   3.401  10.551   9.293 -1.3606  1.6668  0.5172
 7406SOL     OW24224   3.426   5.059   8.489  0.0980  0.1030  0.1461
 7406SOL    HW124225   3.415   4.989   8.425  1.6832  0.5398 -0.6410
 7406SOL    HW224226   3.367   5.129   8.459 -2.1152 -1.1217  1.3893
 7407SOL     OW24227  10.336   1.948   1.603  0.5336 -0.5997  0.2665
 7407SOL    HW124228  10.288   1.870   1.634  0.3916  0.2294  2.2645
 7407SOL    HW224229  10.415   1.912   1.562  0.0649 -1.8220  0.3721
 7408SOL     OW24230   1.303   7.364   5.684  0.3293 -0.6003 -0.6645
 7408SOL    HW124231   1.280   7.455   5.667  1.8355  0.0149  0.3379
 7408SOL    HW224232   1.261   7.314   5.614  0.3257  0.9751 -1.8185
 7409SOL     OW24233   8.004  10.906   0.494 -0.2114 -0.7019  0.1174
 7409SOL    HW124234   8.035  10.966   0.426  0.3335 -0.6427  0.4165
 7409SOL    HW224235   7.913  10.889   0.471 -1.0632  1.8937  1.1730
 7410SOL     OW24236   2.786   3.616   0.216  0.5398 -0.0455  0.1533
 7410SOL    HW124237   2.879   3.614   0.195  0.1671 -1.3757 -1.5631
 7410SOL    HW224238   2.750   3.683   0.158  0.6264  1.7779  2.0543
 7411SOL     OW24239   8.519   9.772   1.769  0.2929  0.1453  0.3885
 7411SOL    HW124240   8.465   9.743   1.842  1.2947  1.7081  1.8027
 7411SOL    HW224241   8.456   9.807   1.705 -0.4485  1.0812  1.6021
 7412SOL     OW24242   3.706   0.187   6.578  0.4826  0.3119 -0.1445
 7412SOL    HW124243   3.665   0.214   6.660  0.5529  0.1342 -0.0505
 7412SOL    HW224244   3.758   0.110   6.601  0.6401  0.3637 -0.3199
 7413SOL     OW24245   7.359   1.381   7.433  0.1682  0.2898  0.5007
 7413SOL    HW124246   7.400   1.325   7.499  1.9069 -0.1106 -0.8254
 7413SOL    HW224247   7.401   1.466   7.443  1.4315 -0.1255 -0.8797
 7414SOL     OW24248   1.250   1.522   8.610 -0.0869 -0.1891  0.2619
 7414SOL    HW124249   1.281   1.550   8.524 -0.3072 -2.6938 -0.7066
 7414SOL    HW224250   1.197   1.445   8.592 -1.6190  0.2544  2.5091
 7415SOL     OW24251   9.469   2.794   1.248 -0.2209 -0.3640 -0.2539
 7415SOL    HW124252   9.466   2.761   1.337 -2.2438 -0.6666 -0.3820
 7415SOL    HW224253   9.434   2.883   1.254  0.7898  0.0730 -0.5905
 7416SOL     OW24254   8.327   0.988   5.065  0.1844 -0.2140  0.0218
 7416SOL    HW124255   8.259   0.982   5.132  0.4137 -0.7734  0.2069
 7416SOL    HW224256   8.281   1.017   4.986 -0.4123 -1.4198 -0.0845
 7417SOL     OW24257   5.157   4.762   1.990  0.0012 -0.7892 -0.3808
 7417SOL    HW124258   5.246   4.796   1.989 -0.2773  0.0925  1.3498
 7417SOL    HW224259   5.153   4.708   2.068 -0.9539 -0.9267 -0.5130
 7418SOL     OW24260   0.487   7.934   0.911  0.3754 -0.2523  0.2948
 7418SOL    HW124261   0.475   8.018   0.955  0.7166 -0.1941  0.2789
 7418SOL    HW224262   0.573   7.941   0.869 -0.0085 -0.2559 -0.4995
 7419SOL     OW24263   0.565   6.286   8.149  0.1291 -0.8242 -0.7531
 7419SOL    HW124264   0.555   6.380   8.135  1.6501 -0.4329  0.4186
 7419SOL    HW224265   0.545   6.246   8.065  1.2894  0.7098 -1.8134
 7420SOL     OW24266   8.374   9.896   1.554  0.5835  0.0309 -0.0013
 7420SOL    HW124267   8.334   9.981   1.572 -0.1429  0.7524 -4.2152
 7420SOL    HW224268   8.463   9.917   1.524  1.3905 -0.9892  1.5330
 7421SOL     OW24269   3.347  10.749   2.614  0.3713  0.4401  0.3798
 7421SOL    HW124270   3.315  10.738   2.703 -0.0552 -0.5183  0.1141
 7421SOL    HW224271   3.319  10.838   2.590 -1.4121 -0.0647  0.4484
 7422SOL     OW24272   3.276   7.734   2.072 -0.2974 -0.1694  0.4147
 7422SOL    HW124273   3.253   7.778   2.154 -1.1064 -0.2688  0.2530
 7422SOL    HW224274   3.197   7.741   2.019  0.2524 -0.0350 -0.3903
 7423SOL     OW24275   3.550   0.436  10.340 -0.2120  0.3678 -0.1064
 7423SOL    HW124276   3.542   0.431  10.245  1.5231  0.1762 -0.2666
 7423SOL    HW224277   3.638   0.405  10.359  0.0022  1.7702  1.4536
 7424SOL     OW24278   5.034   4.444   1.074 -0.1765 -0.1592  0.0074
 7424SOL    HW124279   5.129   4.443   1.069 -0.1997  0.8420 -1.0104
 7424SOL    HW224280   5.013   4.523   1.123 -0.4989 -0.2987  0.0998
 7425SOL     OW24281   3.696   0.857   8.058 -0.5945  0.2619 -0.3838
 7425SOL    HW124282   3.742   0.914   8.121 -2.2573  1.6681 -0.3550
 7425SOL    HW224283   3.668   0.782   8.110 -0.5440  0.6350  0.2020
 7426SOL     OW24284   7.444  10.123   6.548  0.5570 -0.1516  0.1932
 7426SOL    HW124285   7.353  10.125   6.578  0.7119  0.6986  0.6375
 7426SOL    HW224286   7.495  10.155   6.623  1.0741  0.8355 -0.5581
 7427SOL     OW24287   3.511   9.553   6.516 -0.0415  0.3534  0.1541
 7427SOL    HW124288   3.442   9.512   6.464 -0.4233  2.1029 -0.7937
 7427SOL    HW224289   3.511   9.504   6.598 -0.4161 -1.5419 -0.9160
 7428SOL     OW24290   5.376   1.636   4.242  0.0589  1.0546  0.3370
 7428SOL    HW124291   5.412   1.664   4.158  1.1331  0.4093  0.5677
 7428SOL    HW224292   5.376   1.715   4.295 -2.6113  1.9957 -0.8761
 7429SOL     OW24293   3.215   0.738   7.694 -0.0758 -0.1823  0.4737
 7429SOL    HW124294   3.198   0.672   7.761 -0.2004 -0.3823  0.2457
 7429SOL    HW224295   3.310   0.747   7.691 -0.0406 -0.6232  0.2421
 7430SOL     OW24296   1.541   7.633   5.282  0.2459 -0.1655  0.0578
 7430SOL    HW124297   1.559   7.574   5.355  0.0847  0.5828  0.7132
 7430SOL    HW224298   1.501   7.577   5.215  0.5837 -0.8978  0.4561
 7431SOL     OW24299   4.063   2.210   8.358  0.4669 -0.5150  0.2932
 7431SOL    HW124300   4.010   2.261   8.419 -1.2584  0.5152 -1.9198
 7431SOL    HW224301   4.154   2.229   8.382 -0.1505  1.4579  1.2234
 7432SOL     OW24302   6.708   3.055   9.273  0.0744 -0.3738  0.1744
 7432SOL    HW124303   6.638   3.110   9.238 -1.6351 -2.3825  0.2321
 7432SOL    HW224304   6.750   3.017   9.197  1.2480  0.9137  0.1356
 7433SOL     OW24305   1.776   3.832   3.729 -0.0564  0.0537 -0.7103
 7433SOL    HW124306   1.827   3.759   3.765  0.6945  1.7864  1.9641
 7433SOL    HW224307   1.704   3.844   3.790 -0.4307  1.2813 -1.3637
 7434SOL     OW24308   9.817   3.495  10.977  0.1765 -0.1453 -0.3688
 7434SOL    HW124309   9.874   3.427  10.940  0.7287 -0.5850  1.2187
 7434SOL    HW224310   9.786   3.544  10.901 -1.0685 -2.7733 -1.6938
 7435SOL     OW24311   3.249   0.604   7.054 -0.2372 -0.5121 -0.1308
 7435SOL    HW124312   3.256   0.651   6.971  1.1054 -1.0271 -0.3298
 7435SOL    HW224313   3.155   0.585   7.063 -0.3540 -0.8490 -1.7660
 7436SOL     OW24314   6.483   9.440   5.310 -0.4224  0.3205 -0.0295
 7436SOL    HW124315   6.448   9.485   5.234 -0.2194  1.9254  0.7845
 7436SOL    HW224316   6.410   9.388   5.343 -1.1816  1.3668 -0.0296
 7437SOL     OW24317   8.760   9.068   8.089  0.0309 -0.4505 -0.0624
 7437SOL    HW124318   8.742   9.003   8.020  0.4973 -0.8486  0.1888
 7437SOL    HW224319   8.852   9.090   8.078 -0.2471  0.5919 -0.4907
 7438SOL     OW24320   5.297   7.297   1.625 -0.1796 -0.2437 -0.0643
 7438SOL    HW124321   5.374   7.303   1.682 -0.9970 -1.3537  1.2349
 7438SOL    HW224322   5.272   7.388   1.609  1.2662  0.1348 -0.3600
 7439SOL     OW24323   7.834   1.483   4.061  0.1815  0.1381 -0.8564
 7439SOL    HW124324   7.828   1.502   3.967  0.4489 -0.4656 -1.0049
 7439SOL    HW224325   7.926   1.463   4.076  0.5081  2.0824 -0.0738
 7440SOL     OW24326   2.969   7.325   4.259 -0.0307  0.1383  0.1743
 7440SOL    HW124327   2.987   7.302   4.168  1.1231 -0.0718  0.4383
 7440SOL    HW224328   3.009   7.411   4.270  0.6743 -0.2505  0.7305
 7441SOL     OW24329   2.485   6.865   9.345  0.3048  0.0563 -0.5075
 7441SOL    HW124330   2.393   6.885   9.360  0.1418 -0.5939 -0.6401
 7441SOL    HW224331   2.530   6.947   9.366 -0.1814  0.0375  0.6792
 7442SOL     OW24332   5.010   0.052   2.594  0.2262 -0.2294  0.4599
 7442SOL    HW124333   5.105   0.064   2.593  0.0183  1.9095 -1.6665
 7442SOL    HW224334   4.984   0.068   2.685  1.7746  0.3859  0.8187
 7443SOL     OW24335   8.933   9.817   2.961 -0.1738 -0.3251  0.5115
 7443SOL    HW124336   8.851   9.855   2.928 -0.6621 -0.2206  1.7672
 7443SOL    HW224337   8.923   9.723   2.947  0.6864 -0.1285 -1.8467
 7444SOL     OW24338   2.985   8.995   1.591 -0.0802  0.3136 -0.2393
 7444SOL    HW124339   2.929   8.940   1.536 -0.0381  0.0361 -0.0060
 7444SOL    HW224340   2.987   8.950   1.676  0.3486  0.4191 -0.1923
 7445SOL     OW24341   7.359   1.340   6.813  0.1529  0.0292 -0.1299
 7445SOL    HW124342   7.418   1.416   6.814  1.0890 -0.6699 -0.5264
 7445SOL    HW224343   7.408   1.272   6.859 -1.5023  0.2252  2.0674
 7446SOL     OW24344   0.279   0.949  10.513  0.6284 -0.0775 -0.2628
 7446SOL    HW124345   0.372   0.970  10.521  0.6354  0.0352 -0.6360
 7446SOL    HW224346   0.271   0.907  10.427  0.2476  0.4136 -0.4708
 7447SOL     OW24347   1.141   5.206  10.035 -0.1816 -0.1838 -0.1590
 7447SOL    HW124348   1.188   5.263   9.974 -0.8010 -0.3379 -0.7967
 7447SOL    HW224349   1.159   5.242  10.122  0.1678  0.4360 -0.4899
 7448SOL     OW24350   9.732  10.252   1.500  0.2952 -0.0229 -0.4290
 7448SOL    HW124351   9.733  10.279   1.408 -0.1570 -2.2748 -1.1400
 7448SOL    HW224352   9.788  10.175   1.503 -0.3839 -0.4882  1.0171
 7449SOL     OW24353   3.580   7.813  11.060 -0.1533  0.0915  0.4048
 7449SOL    HW124354   3.492   7.843  11.083 -1.1879 -0.8337 -1.9505
 7449SOL    HW224355   3.573   7.790  10.967  2.9469  1.2217 -0.2032
 7450SOL     OW24356   4.565  10.237   6.914  0.0056  0.1710 -0.2992
 7450SOL    HW124357   4.645  10.261   6.961  1.0983 -2.3492 -0.6997
 7450SOL    HW224358   4.518  10.178   6.973 -1.3549  1.2413 -0.2613
 7451SOL     OW24359   7.565   7.117   5.241  0.7380 -0.5139 -0.8376
 7451SOL    HW124360   7.607   7.085   5.161 -1.2621 -1.6653 -1.4952
 7451SOL    HW224361   7.531   7.204   5.217  1.5376 -0.1534 -0.7057
 7452SOL     OW24362   6.319   3.566   4.632  0.3582 -0.5188 -0.4611
 7452SOL    HW124363   6.378   3.499   4.599  0.5259 -0.4480 -0.3064
 7452SOL    HW224364   6.330   3.640   4.572 -0.4163 -0.9100 -1.1048
 7453SOL     OW24365   0.930   3.795  10.505 -0.2479  0.4496  0.0653
 7453SOL    HW124366   0.984   3.718  10.522 -0.3585  0.3438 -0.0560
 7453SOL    HW224367   0.840   3.761  10.505 -0.2536  0.4397 -0.7241
 7454SOL     OW24368   8.770   9.774   2.614  0.1194  0.3512 -0.4813
 7454SOL    HW124369   8.694   9.802   2.563  0.6086  2.1697 -0.3088
 7454SOL    HW224370   8.740   9.775   2.705  0.2825  0.9502 -0.4243
 7455SOL     OW24371   3.127   9.399  10.074  0.5497 -0.0335  0.0845
 7455SOL    HW124372   3.064   9.456  10.118 -0.2402 -1.5238  0.9467
 7455SOL    HW224373   3.082   9.371   9.994  0.8492  0.3353 -0.2219
 7456SOL     OW24374   0.428   1.453   3.173  0.0669 -0.0510  0.1721
 7456SOL    HW124375   0.446   1.419   3.085  0.0353 -1.0263  0.5442
 7456SOL    HW224376   0.510   1.493   3.200 -0.0040  0.5201 -0.4108
 7457SOL     OW24377   0.215   7.483   8.838 -0.2022  0.1440  0.4068
 7457SOL    HW124378   0.301   7.525   8.842  0.1347 -0.2569 -1.5442
 7457SOL    HW224379   0.234   7.392   8.818 -1.0772 -0.0165  0.2765
 7458SOL     OW24380   8.510   6.155   1.710 -0.4120 -0.0438  0.1486
 7458SOL    HW124381   8.438   6.157   1.647 -0.7501  0.0333  0.5345
 7458SOL    HW224382   8.584   6.118   1.661 -0.4125  0.8624 -0.5483
 7459SOL     OW24383   4.886   8.198   3.795 -0.4827 -0.3495 -0.1194
 7459SOL    HW124384   4.808   8.146   3.775  0.1256 -0.6923 -1.7598
 7459SOL    HW224385   4.854   8.289   3.795 -1.4452 -0.6115  2.2559
 7460SOL     OW24386   2.761  10.857   7.392  0.2668 -0.3531 -0.2661
 7460SOL    HW124387   2.721  10.943   7.385 -0.4047 -0.4996  1.3282
 7460SOL    HW224388   2.695  10.797   7.357  0.4607 -0.2954 -0.7413
 7461SOL     OW24389   8.833   2.133   5.398  0.3331  0.3798 -0.6812
 7461SOL    HW124390   8.845   2.096   5.485  0.6169  0.4361 -0.6947
 7461SOL    HW224391   8.744   2.167   5.398 -0.1307 -0.7899 -0.8592
 7462SOL     OW24392   3.402   2.126   6.541 -0.2981 -0.2616  0.2468
 7462SOL    HW124393   3.479   2.181   6.556 -0.0143 -0.1712 -1.3915
 7462SOL    HW224394   3.368   2.155   6.457 -0.5337 -2.1225 -0.3458
 7463SOL     OW24395   1.173  10.500   4.368  0.1142  0.2360  0.0425
 7463SOL    HW124396   1.096  10.536   4.324  0.6436 -0.3177 -1.3821
 7463SOL    HW224397   1.225  10.577   4.391 -0.4609  0.5670  0.2457
 7464SOL     OW24398   1.230   0.306   0.701 -0.1009  0.5229  0.1767
 7464SOL    HW124399   1.215   0.258   0.620 -1.7252 -0.1502  0.8278
 7464SOL    HW224400   1.256   0.239   0.764  1.8912  1.1382  0.0821
 7465SOL     OW24401  10.763   5.378   0.468  0.1800 -0.4009  0.0809
 7465SOL    HW124402  10.800   5.387   0.380 -0.7810 -0.2793 -0.3186
 7465SOL    HW224403  10.717   5.294   0.466 -1.4627  0.4749 -0.1492
 7466SOL     OW24404   1.992   9.057   0.575  0.0782 -0.3413  0.0690
 7466SOL    HW124405   1.974   9.132   0.631  1.1359  0.3668 -0.5154
 7466SOL    HW224406   2.022   8.989   0.635  0.7265  0.2446  0.4163
 7467SOL     OW24407   8.109   1.764  10.602 -0.8293 -0.3910 -0.3185
 7467SOL    HW124408   8.047   1.802  10.539  0.6607 -0.2776 -1.8024
 7467SOL    HW224409   8.087   1.671  10.605 -1.7851 -0.1691  0.0778
 7468SOL     OW24410   0.141   0.392   6.498 -0.0914  0.3087  0.3207
 7468SOL    HW124411   0.153   0.369   6.406 -0.5360  1.3521 -0.0077
 7468SOL    HW224412   0.131   0.307   6.542 -1.6766 -0.1686 -0.8490
 7469SOL     OW24413  10.444   8.364   1.302  0.4001 -0.9409  0.0524
 7469SOL    HW124414  10.472   8.430   1.238  1.1643 -0.9903  0.3329
 7469SOL    HW224415  10.374   8.406   1.351  0.6595 -0.4551  0.0078
 7470SOL     OW24416  10.743   8.485   9.388  0.3306 -0.4507 -0.3025
 7470SOL    HW124417  10.738   8.459   9.480 -0.9297 -0.1967 -0.2811
 7470SOL    HW224418  10.786   8.412   9.344 -2.5632 -2.4258 -0.1550
 7471SOL     OW24419   0.130   1.085   9.406  0.2234  0.0702 -0.2898
 7471SOL    HW124420   0.064   1.038   9.356 -2.4373  0.3303  2.6380
 7471SOL    HW224421   0.177   1.016   9.454  1.1203  0.0053 -1.2142
 7472SOL     OW24422   0.121   2.204  10.661 -0.1444  0.0837  0.5398
 7472SOL    HW124423   0.147   2.184  10.751 -0.9577  0.0410  0.7731
 7472SOL    HW224424   0.069   2.284  10.668  0.6003  0.6301 -0.0197
 7473SOL     OW24425  10.729   7.662  10.560 -0.0725 -0.1397  0.4155
 7473SOL    HW124426  10.757   7.695  10.645 -0.5134  2.4909 -0.3757
 7473SOL    HW224427  10.636   7.644  10.570 -0.1300  0.1959  0.4689
 7474SOL     OW24428  10.683   8.191   5.672  0.5144 -0.6971 -0.2197
 7474SOL    HW124429  10.632   8.112   5.689 -0.2857 -0.3427 -0.8785
 7474SOL    HW224430  10.618   8.261   5.667  1.2838  0.1661  1.2220
 7475SOL     OW24431   8.064   6.540   6.920  0.2854  0.3218  0.0886
 7475SOL    HW124432   7.997   6.608   6.908 -0.2499 -0.4916 -2.0464
 7475SOL    HW224433   8.096   6.554   7.009 -1.8636  1.5114  0.7662
 7476SOL     OW24434   9.966   3.763   0.953 -0.2837  0.0412  0.3727
 7476SOL    HW124435  10.050   3.733   0.919  0.1290  2.3650 -0.8723
 7476SOL    HW224436   9.982   3.781   1.045  0.1491 -0.9607  0.5074
 7477SOL     OW24437   5.460   6.325   8.841  0.0063 -0.2080 -0.2699
 7477SOL    HW124438   5.440   6.242   8.885 -0.5305  1.0240  1.9626
 7477SOL    HW224439   5.556   6.330   8.843  0.0026 -0.2556  0.7014
 7478SOL     OW24440   8.653   6.116   4.998 -0.0971  0.1842  0.0067
 7478SOL    HW124441   8.744   6.086   4.999 -0.5633 -1.3353  0.8891
 7478SOL    HW224442   8.617   6.085   5.082 -1.9094 -0.8411 -1.0893
 7479SOL     OW24443   9.606   3.001   1.585  0.4656 -0.2342 -0.2440
 7479SOL    HW124444   9.549   2.924   1.591  0.4883 -0.2100  0.3415
 7479SOL    HW224445   9.668   2.991   1.657 -1.4637  1.8946  1.9028
 7480SOL     OW24446   8.824   5.235   9.978  0.0363  0.1354 -0.1468
 7480SOL    HW124447   8.733   5.266   9.978  0.5184  1.6734 -1.5002
 7480SOL    HW224448   8.840   5.208  10.068 -0.6979  3.1514  0.9886
 7481SOL     OW24449   0.359   6.570   8.994 -0.0655  0.2221  0.1476
 7481SOL    HW124450   0.366   6.524   9.078  0.1587  1.8272  1.0509
 7481SOL    HW224451   0.438   6.624   8.990  0.1568 -0.1800 -1.3348
 7482SOL     OW24452   1.610   0.488   7.138 -0.0217  0.8706  0.6508
 7482SOL    HW124453   1.686   0.475   7.195  0.1276 -0.1038  0.2538
 7482SOL    HW224454   1.538   0.507   7.199 -0.2032 -1.6653  1.3686
 7483SOL     OW24455   4.675   3.666   2.335 -0.6557 -0.5990 -0.5035
 7483SOL    HW124456   4.753   3.645   2.283  0.1775 -0.5320  0.6881
 7483SOL    HW224457   4.709   3.693   2.420 -1.9473  0.3733 -0.2699
 7484SOL     OW24458   4.674   0.185   4.853 -0.0409  0.1703  0.1123
 7484SOL    HW124459   4.639   0.184   4.942  1.4441 -1.0617  0.7425
 7484SOL    HW224460   4.682   0.093   4.830 -1.1858  0.4714 -1.6622
 7485SOL     OW24461   3.302   3.559   0.815  0.1243  0.2218 -0.3344
 7485SOL    HW124462   3.339   3.559   0.726  1.0843 -0.0293  0.0504
 7485SOL    HW224463   3.301   3.466   0.839 -0.3254  0.2732 -0.1574
 7486SOL     OW24464   2.217   8.460   9.215  0.4158 -0.2201 -0.4724
 7486SOL    HW124465   2.301   8.484   9.175  1.4207 -0.9361  1.1037
 7486SOL    HW224466   2.240   8.433   9.304 -1.5153 -0.3539  0.0278
 7487SOL     OW24467   5.226   3.011   1.596 -0.1708  0.5161  0.3390
 7487SOL    HW124468   5.289   3.081   1.614  0.7384 -0.2993  0.4541
 7487SOL    HW224469   5.244   2.946   1.664  0.3736 -0.7058 -0.9443
 7488SOL     OW24470  10.767   1.420   9.361  0.0043  0.0333  0.3793
 7488SOL    HW124471  10.830   1.436   9.431 -0.9657 -0.6564  1.4561
 7488SOL    HW224472  10.689   1.467   9.387 -0.6757 -0.9769  0.2335
 7489SOL     OW24473  10.840   0.657   0.953 -0.3152 -0.0046  0.4137
 7489SOL    HW124474  10.927   0.636   0.919 -0.4974  1.6644 -1.2166
 7489SOL    HW224475  10.780   0.622   0.888 -0.7776  0.5548  0.5310
 7490SOL     OW24476   1.825   5.791   4.549 -0.3818  0.3163  0.0523
 7490SOL    HW124477   1.813   5.862   4.612  1.2752  0.4672  0.2190
 7490SOL    HW224478   1.919   5.789   4.531 -0.5336 -1.1522 -0.7526
 7491SOL     OW24479   8.473   2.477   1.207  0.1745 -0.8930 -0.0698
 7491SOL    HW124480   8.405   2.519   1.154  0.4104 -1.2485 -0.6674
 7491SOL    HW224481   8.537   2.444   1.143 -0.1603 -2.4472  0.3427
 7492SOL     OW24482   3.597   1.624   5.568 -0.3990  0.2091 -0.3221
 7492SOL    HW124483   3.524   1.582   5.522  0.2672  0.7161 -1.9199
 7492SOL    HW224484   3.653   1.551   5.595  1.7812 -0.1603 -4.7934
 7493SOL     OW24485   3.371   5.064   2.394  0.0523  0.1511  0.3786
 7493SOL    HW124486   3.283   5.025   2.391  0.4530 -0.7713 -2.1705
 7493SOL    HW224487   3.357   5.156   2.372 -0.2734 -0.1160 -0.6184
 7494SOL     OW24488   0.178   0.036   5.375  0.3778  0.1340 -0.1994
 7494SOL    HW124489   0.163  -0.040   5.431 -1.1559  0.6049  0.0762
 7494SOL    HW224490   0.163   0.111   5.433  1.0382  0.6401 -0.6742
 7495SOL     OW24491   7.872   2.829   9.148 -0.1647 -0.5609 -0.2502
 7495SOL    HW124492   7.947   2.779   9.117 -0.3423 -1.2590  0.4087
 7495SOL    HW224493   7.837   2.871   9.069 -0.0303 -1.5068 -0.8334
 7496SOL     OW24494   5.913   8.574   5.439 -0.3150  0.4004  0.3971
 7496SOL    HW124495   6.008   8.570   5.453 -0.1628 -1.5087 -0.7690
 7496SOL    HW224496   5.885   8.482   5.439 -2.1409  0.9130  0.4663
 7497SOL     OW24497   0.039   2.482   6.294 -0.1977 -0.1133 -0.2422
 7497SOL    HW124498  -0.028   2.532   6.247 -0.9069 -2.3245 -1.7664
 7497SOL    HW224499   0.005   2.393   6.294  0.0383 -0.3753  4.1516
 7498SOL     OW24500  10.849   8.098   0.328  0.1302 -0.2073  0.2169
 7498SOL    HW124501  10.832   8.028   0.391  0.4925 -0.4316  0.0676
 7498SOL    HW224502  10.932   8.136   0.355 -0.0427  0.1433  0.2713
 7499SOL     OW24503  10.864   7.487   9.994 -0.1103 -0.6623 -0.3562
 7499SOL    HW124504  10.953   7.520   9.981  0.3498 -1.6255  0.2403
 7499SOL    HW224505  10.841   7.444   9.912  0.7491 -2.1234  0.1331
 7500SOL     OW24506   5.703   9.769   9.422  0.2339  0.4187  0.1588
 7500SOL    HW124507   5.643   9.784   9.349  0.0595 -0.6831  0.0668
 7500SOL    HW224508   5.788   9.802   9.391  0.0700  0.3306 -0.3838
 7501SOL     OW24509   7.732   2.555   6.504 -0.0395  0.2239 -0.2309
 7501SOL    HW124510   7.653   2.608   6.500 -0.0440  0.2821  0.5458
 7501SOL    HW224511   7.798   2.607   6.460 -0.4183  0.1943 -0.8508
 7502SOL     OW24512   1.028   8.722   9.763 -0.2981  0.2071 -0.0397
 7502SOL    HW124513   1.036   8.817   9.753  0.1919  0.8926  4.6436
 7502SOL    HW224514   1.116   8.688   9.748 -0.2720  0.5711 -0.7770
 7503SOL     OW24515   1.378   3.964  10.613  0.2075 -0.7424  0.1275
 7503SOL    HW124516   1.410   4.051  10.589 -2.1222 -0.2208 -1.4153
 7503SOL    HW224517   1.446   3.929  10.671  0.5796  2.6338  2.0129
 7504SOL     OW24518   1.419   4.536   6.453 -0.2276  0.3741 -0.1572
 7504SOL    HW124519   1.483   4.605   6.435  0.8626 -0.4815  0.3126
 7504SOL    HW224520   1.468   4.455   6.446 -1.0678 -0.2701  1.0199
 7505SOL     OW24521   8.614   2.116  10.734  0.0066  0.2235 -0.3382
 7505SOL    HW124522   8.638   2.180  10.667 -1.5860  1.6036  0.3220
 7505SOL    HW224523   8.519   2.106  10.725  0.1550 -1.7845 -0.1477
 7506SOL     OW24524   3.532   3.764   0.977  0.0174  0.2916 -0.3969
 7506SOL    HW124525   3.473   3.702   1.020  0.9219 -0.8210 -0.7193
 7506SOL    HW224526   3.599   3.783   1.043 -0.9094  1.9220  0.1359
 7507SOL     OW24527   0.627   2.720   3.149  0.1845 -0.4387 -0.2377
 7507SOL    HW124528   0.719   2.710   3.124  0.2378 -2.4560  0.5573
 7507SOL    HW224529   0.579   2.703   3.068  0.4736  1.6254 -0.9059
 7508SOL     OW24530   1.472   4.618   1.472 -0.4998  0.0162 -0.3394
 7508SOL    HW124531   1.564   4.610   1.494 -0.6042 -1.9601 -0.4887
 7508SOL    HW224532   1.469   4.605   1.377 -0.8542  0.9710 -0.4734
 7509SOL     OW24533   3.716   9.308   3.056 -0.4820  0.3363  0.4537
 7509SOL    HW124534   3.676   9.226   3.028 -0.6241 -0.2504  2.2775
 7509SOL    HW224535   3.783   9.326   2.989 -0.0079 -1.5955  0.3414
 7510SOL     OW24536   1.559   2.928   8.544  0.3917  0.1161 -0.0645
 7510SOL    HW124537   1.464   2.915   8.542  0.2316  1.1736 -0.3820
 7510SOL    HW224538   1.595   2.841   8.559 -0.6805 -0.1426  1.3105
 7511SOL     OW24539   5.436   1.379   6.975 -0.1130  0.0436 -0.2433
 7511SOL    HW124540   5.417   1.408   6.886 -2.9324  0.6633  0.4796
 7511SOL    HW224541   5.525   1.410   6.992  0.3887  0.1404 -2.7146
 7512SOL     OW24542   1.058   5.828   5.388 -0.1970  0.1648  0.0930
 7512SOL    HW124543   1.108   5.783   5.320  1.7609  1.9933  0.2035
 7512SOL    HW224544   0.996   5.763   5.420  2.5626 -2.5255  0.3771
 7513SOL     OW24545   3.675   3.393   0.849  0.2528  0.1503 -0.1735
 7513SOL    HW124546   3.713   3.440   0.774 -1.1014 -0.1889 -1.1050
 7513SOL    HW224547   3.645   3.310   0.813 -0.7696  0.1409  0.6507
 7514SOL     OW24548   7.852   1.381   0.714  0.2324  0.0532  0.1090
 7514SOL    HW124549   7.946   1.359   0.716  0.9969  2.5430 -2.3299
 7514SOL    HW224550   7.811   1.306   0.670  1.3286 -0.3430 -0.2763
 7515SOL     OW24551   6.147  10.388   9.517 -0.4748  0.2011 -0.5942
 7515SOL    HW124552   6.217  10.419   9.575 -0.9231 -1.3524  0.8416
 7515SOL    HW224553   6.118  10.467   9.471 -0.2576  1.5616  1.4672
 7516SOL     OW24554   3.215   0.016  10.170 -0.0919 -0.3577 -0.5041
 7516SOL    HW124555   3.132  -0.030  10.181 -1.6116  2.4325  0.6281
 7516SOL    HW224556   3.246   0.032  10.259  0.7592  0.1983 -0.8898
 7517SOL     OW24557   4.628   5.231   8.144  0.8989  0.6397 -0.9207
 7517SOL    HW124558   4.564   5.171   8.107  1.1944 -0.6534  0.5778
 7517SOL    HW224559   4.579   5.312   8.160  0.2874  0.5336 -2.1524
 7518SOL     OW24560   1.484   7.060   1.622 -0.2615 -0.7331 -0.2177
 7518SOL    HW124561   1.459   6.977   1.582 -1.2106  0.2058 -1.6600
 7518SOL    HW224562   1.527   7.109   1.551  1.2008 -0.3455  0.8722
 7519SOL     OW24563   1.705   0.269   8.337  0.4754 -0.2927 -0.4139
 7519SOL    HW124564   1.711   0.174   8.321 -3.2343 -0.8337  0.4719
 7519SOL    HW224565   1.732   0.279   8.429 -0.7241 -0.7754  0.0044
 7520SOL     OW24566   4.389   9.209   8.550 -0.0988  0.0198 -0.3300
 7520SOL    HW124567   4.428   9.227   8.465  0.3881 -1.5322 -0.4752
 7520SOL    HW224568   4.347   9.291   8.576  0.7539  0.8615 -1.5168
 7521SOL     OW24569   1.996   4.980  10.214  0.1643 -0.1134  0.6599
 7521SOL    HW124570   1.957   4.970  10.128  0.0842 -1.6784  0.8569
 7521SOL    HW224571   2.086   5.009  10.196 -0.5772  2.0642  0.1674
 7522SOL     OW24572   9.148   9.095  10.343 -0.2367 -0.0101  0.4983
 7522SOL    HW124573   9.206   9.168  10.364  0.4381 -0.7081  1.0965
 7522SOL    HW224574   9.085   9.093  10.416 -0.8600  0.5697 -0.0084
 7523SOL     OW24575   5.179   0.815   0.039  0.1251 -0.5863 -0.0072
 7523SOL    HW124576   5.208   0.830   0.129  1.0362 -0.7427 -0.2687
 7523SOL    HW224577   5.199   0.723   0.022 -0.8583 -0.7983 -0.0826
 7524SOL     OW24578   8.508   7.161   1.754 -0.1277 -0.2902  0.3219
 7524SOL    HW124579   8.472   7.197   1.835  0.6598 -2.3242  1.6781
 7524SOL    HW224580   8.432   7.148   1.697 -0.7846  0.5268  0.9968
 7525SOL     OW24581  10.439  10.128   1.037  0.1673  0.1608  0.1726
 7525SOL    HW124582  10.471  10.168   0.956 -0.1490 -1.2328 -0.6785
 7525SOL    HW224583  10.358  10.175   1.057 -0.1074  0.0811 -0.7049
 7526SOL     OW24584   0.304   3.604   5.985  0.1352 -0.3318  0.2465
 7526SOL    HW124585   0.298   3.650   6.069  1.6808  0.0566  0.1707
 7526SOL    HW224586   0.287   3.512   6.008  1.4190 -0.3711  1.1705
 7527SOL     OW24587   2.707   7.952   9.698 -0.6622  0.8170  0.0617
 7527SOL    HW124588   2.647   7.994   9.759  0.0548  0.8316  0.7668
 7527SOL    HW224589   2.772   8.020   9.677  0.3774  0.1448  1.0402
 7528SOL     OW24590   2.689   6.198   9.817 -0.2000  0.5592 -0.2871
 7528SOL    HW124591   2.752   6.257   9.775  0.3398  0.1260 -0.0841
 7528SOL    HW224592   2.605   6.243   9.807  0.3437  1.9116  0.8328
 7529SOL     OW24593  10.172   6.439   0.951 -0.5904 -0.2053 -0.3181
 7529SOL    HW124594  10.257   6.474   0.978 -0.1474 -1.5786  0.1638
 7529SOL    HW224595  10.193   6.355   0.910 -1.5168  0.5531 -2.4746
 7530SOL     OW24596   5.713   0.416   1.610  0.4033  0.0478  0.3917
 7530SOL    HW124597   5.655   0.351   1.571  0.2423 -0.7381  1.8522
 7530SOL    HW224598   5.683   0.500   1.576  0.0434 -0.5537 -0.8362
 7531SOL     OW24599   8.453  10.656   3.428  0.4113 -0.0050 -0.6482
 7531SOL    HW124600   8.490  10.629   3.344  0.3032  1.0679 -1.0569
 7531SOL    HW224601   8.529  10.678   3.481  0.4717 -0.4865 -0.5356
 7532SOL     OW24602   6.337   7.464   1.363  0.3549 -0.1810  0.1331
 7532SOL    HW124603   6.253   7.436   1.328  0.4861 -0.3111 -0.0827
 7532SOL    HW224604   6.398   7.394   1.338  0.8840  0.7321 -1.2717
 7533SOL     OW24605   1.159   2.487   5.585 -0.1214 -0.0260  0.3685
 7533SOL    HW124606   1.216   2.415   5.559  0.2929  0.7227 -0.8818
 7533SOL    HW224607   1.189   2.561   5.533 -1.2135  0.7855  0.8590
 7534SOL     OW24608   0.787  10.834   1.402 -0.4827 -0.1577 -0.0769
 7534SOL    HW124609   0.725  10.840   1.475 -1.2629 -1.4317 -0.6113
 7534SOL    HW224610   0.817  10.744   1.404  0.6526  0.1959 -0.4258
 7535SOL     OW24611   4.069   0.176   2.358 -0.2763  0.5042  0.2794
 7535SOL    HW124612   4.112   0.175   2.444 -1.5914  1.2912  0.9835
 7535SOL    HW224613   4.126   0.230   2.304  0.5867 -0.0198  0.6363
 7536SOL     OW24614   8.001   4.914   3.616  0.3065 -0.6312 -0.0148
 7536SOL    HW124615   7.963   4.995   3.652  0.8769  0.0394 -0.8733
 7536SOL    HW224616   8.095   4.931   3.614  0.6295 -1.9994  1.4149
 7537SOL     OW24617   3.596   8.504   2.246  0.7808 -0.5420 -0.0326
 7537SOL    HW124618   3.524   8.542   2.196  0.3352  0.2823  1.1910
 7537SOL    HW224619   3.666   8.493   2.182 -1.3267 -4.3120 -2.0271
 7538SOL     OW24620   2.456   3.075   0.228 -0.1661  0.0965 -0.5033
 7538SOL    HW124621   2.402   3.012   0.181  0.2101  1.0819 -2.3585
 7538SOL    HW224622   2.427   3.160   0.196 -1.0016  0.9767  2.2989
 7539SOL     OW24623  10.994   4.130   1.441  0.4060 -0.3103 -0.0903
 7539SOL    HW124624  11.048   4.206   1.423 -1.1799  1.4413  2.0708
 7539SOL    HW224625  11.055   4.063   1.471  1.7022  0.4570 -0.9241
 7540SOL     OW24626   6.330   3.179   1.162 -0.0340 -0.2888 -0.1574
 7540SOL    HW124627   6.390   3.113   1.195 -0.6288 -0.6687  0.1727
 7540SOL    HW224628   6.306   3.231   1.239 -1.4543 -1.1994  0.0437
 7541SOL     OW24629   6.731   1.322   4.741  0.1483  0.0373  0.6387
 7541SOL    HW124630   6.785   1.370   4.678  0.0695 -1.4870 -0.6604
 7541SOL    HW224631   6.655   1.294   4.690  0.1031 -1.2764  1.3934
 7542SOL     OW24632   7.342   4.941   9.417 -0.2059 -0.3690 -0.1163
 7542SOL    HW124633   7.400   4.871   9.445  0.1007  1.0545  3.3893
 7542SOL    HW224634   7.398   5.019   9.414 -1.1010  0.2692 -0.9549
 7543SOL     OW24635   1.314   3.193   3.983  0.0681 -0.3883 -0.6874
 7543SOL    HW124636   1.273   3.278   3.999 -2.8332 -1.5364 -1.3946
 7543SOL    HW224637   1.321   3.154   4.070  1.1611  0.4379 -0.3898
 7544SOL     OW24638   2.848   5.966   9.353 -0.2976  0.6175  0.0722
 7544SOL    HW124639   2.817   6.044   9.308 -0.3757 -0.2651 -1.4696
 7544SOL    HW224640   2.932   5.991   9.390  0.5212  0.9618 -1.8996
 7545SOL     OW24641   7.740   3.261   0.502  0.3697 -0.1735  0.6085
 7545SOL    HW124642   7.779   3.176   0.483  1.2544 -0.0913  1.9210
 7545SOL    HW224643   7.734   3.264   0.597 -1.0611  0.6299  0.5244
 7546SOL     OW24644   8.951   0.180   0.899 -0.1485 -0.2658  0.2554
 7546SOL    HW124645   8.949   0.086   0.919  0.5105 -0.3500 -0.0695
 7546SOL    HW224646   9.033   0.193   0.852  0.0700  0.5822  0.8452
 7547SOL     OW24647   8.275   1.284   5.222  0.4051  0.2664 -0.1519
 7547SOL    HW124648   8.360   1.327   5.231  0.8811 -1.0423  2.4889
 7547SOL    HW224649   8.289   1.196   5.257 -1.9353 -0.1179 -0.0530
 7548SOL     OW24650   3.850   7.819   5.587 -0.3443 -0.6485 -0.4269
 7548SOL    HW124651   3.894   7.853   5.665  1.6438 -1.2890 -1.2132
 7548SOL    HW224652   3.798   7.893   5.554  0.7491  0.3878  0.1285
 7549SOL     OW24653   2.024   6.277   2.971  0.0321 -0.3437  0.4275
 7549SOL    HW124654   2.008   6.363   2.932 -0.3364  0.2555  1.8269
 7549SOL    HW224655   1.991   6.286   3.061 -0.3275 -2.0621  0.4865
 7550SOL     OW24656   3.905  10.967   7.301  0.4441 -0.0896 -0.2775
 7550SOL    HW124657   3.951  10.884   7.292  1.3518  0.4243 -0.4816
 7550SOL    HW224658   3.962  11.032   7.260 -0.9294  0.4283 -1.4503
 7551SOL     OW24659   7.853   3.298   2.457  0.3706  0.1172 -0.0478
 7551SOL    HW124660   7.806   3.381   2.451  0.4256  0.3576  2.1697
 7551SOL    HW224661   7.785   3.232   2.468  0.4321  0.1926  0.8331
 7552SOL     OW24662   4.838   9.929  10.376 -0.3443  0.2233  0.4224
 7552SOL    HW124663   4.911   9.932  10.313  0.0574 -1.1864  0.7884
 7552SOL    HW224664   4.770   9.880  10.330 -1.3767  2.1293 -0.1839
 7553SOL     OW24665   9.146   5.554   2.217  0.2227  0.1947 -0.0040
 7553SOL    HW124666   9.070   5.550   2.160  0.3754 -0.3170 -0.1773
 7553SOL    HW224667   9.154   5.466   2.253 -0.3480  0.7093  1.4406
 7554SOL     OW24668   7.106   1.314   5.128 -0.4394  0.5811 -0.5993
 7554SOL    HW124669   7.125   1.250   5.196 -0.4118  0.3273 -0.8455
 7554SOL    HW224670   7.157   1.391   5.153 -1.6239  1.0365  0.4963
 7555SOL     OW24671   9.484  10.865   1.931 -0.0068 -0.0842 -0.0627
 7555SOL    HW124672   9.574  10.871   1.897  0.9070 -1.4340  1.9065
 7555SOL    HW224673   9.431  10.842   1.855  1.4062  0.2184 -1.1754
 7556SOL     OW24674   3.393   4.749   0.753 -0.9166 -0.2646 -0.0683
 7556SOL    HW124675   3.337   4.825   0.736  0.1079  0.3073 -1.0389
 7556SOL    HW224676   3.369   4.686   0.685 -0.1714  0.1225 -0.7123
 7557SOL     OW24677   0.363   3.158   3.846  0.2509  0.1007  0.1811
 7557SOL    HW124678   0.404   3.207   3.774 -1.6873  2.3703  0.4803
 7557SOL    HW224679   0.419   3.082   3.858  1.9676  0.8624 -2.1477
 7558SOL     OW24680   1.359   8.159   9.952  0.7613 -0.1073 -0.3776
 7558SOL    HW124681   1.358   8.072   9.912 -0.3856 -0.1923 -0.1947
 7558SOL    HW224682   1.267   8.177   9.971  1.1188  0.6289  0.7062
 7559SOL     OW24683   8.321   7.308   2.862 -0.0001 -0.3260 -0.3232
 7559SOL    HW124684   8.365   7.392   2.875 -0.0066 -0.6971  2.5564
 7559SOL    HW224685   8.392   7.244   2.862 -0.2422 -0.6339  1.2870
 7560SOL     OW24686   3.959   6.928   2.958  0.0404 -0.5742 -0.2696
 7560SOL    HW124687   3.977   6.997   3.021 -2.2971  0.7177 -0.9121
 7560SOL    HW224688   3.919   6.973   2.883 -0.9632 -2.5351 -0.9819
 7561SOL     OW24689   5.701   1.649   8.969 -0.1153 -0.6508 -0.1252
 7561SOL    HW124690   5.762   1.718   8.941 -0.9262  0.4032  0.6270
 7561SOL    HW224691   5.665   1.681   9.051 -2.9321 -0.4239 -1.3359
 7562SOL     OW24692   2.089  11.091   5.841 -0.3569 -0.0549  0.5057
 7562SOL    HW124693   2.182  11.090   5.819 -0.3012 -1.6152  0.7118
 7562SOL    HW224694   2.049  11.149   5.776  0.8473  1.1967  0.8515
 7563SOL     OW24695   8.678   2.748   8.631 -0.0824 -0.3051 -0.1672
 7563SOL    HW124696   8.686   2.665   8.677 -0.8275 -1.3005 -1.7513
 7563SOL    HW224697   8.592   2.745   8.589  0.0861  1.0549 -0.6810
 7564SOL     OW24698   9.798  10.491   1.988  0.1979  0.2003 -0.0617
 7564SOL    HW124699   9.829  10.533   2.068 -0.7210  0.5854  0.1075
 7564SOL    HW224700   9.787  10.563   1.926 -2.6024  0.4638  0.6178
 7565SOL     OW24701   1.077   9.588   7.519 -0.2063 -0.3632  0.5587
 7565SOL    HW124702   1.129   9.656   7.561 -0.1977  0.0199 -0.0593
 7565SOL    HW224703   1.139   9.543   7.461 -0.4043 -0.3368  0.3243
 7566SOL     OW24704   3.394   0.254  10.146  0.1254  0.1022  0.5424
 7566SOL    HW124705   3.415   0.306  10.068 -0.5397  1.5502  1.2911
 7566SOL    HW224706   3.413   0.164  10.120  1.7809  0.7404 -0.6534
 7567SOL     OW24707   6.066   0.098   0.201 -0.5452 -0.3799  0.2109
 7567SOL    HW124708   6.093   0.186   0.176 -0.0961 -0.7545 -0.6998
 7567SOL    HW224709   5.992   0.078   0.143 -1.2348 -0.2764  1.0295
 7568SOL     OW24710   7.574   3.841   0.253  0.1274 -0.2679 -0.2146
 7568SOL    HW124711   7.641   3.858   0.320  1.1034 -1.2404 -0.9131
 7568SOL    HW224712   7.502   3.899   0.276  1.1781  0.7500  0.6131
 7569SOL     OW24713   3.771   2.010   9.278 -0.3075  1.0021 -0.4639
 7569SOL    HW124714   3.770   1.985   9.370  0.5950  1.5754 -0.2826
 7569SOL    HW224715   3.689   1.975   9.242 -0.3965  0.2744  0.4166
 7570SOL     OW24716   7.299   4.266   0.912  0.2419 -0.2243 -0.0380
 7570SOL    HW124717   7.329   4.265   1.003  0.0754  0.3515  0.0286
 7570SOL    HW224718   7.345   4.193   0.870 -1.7830 -2.3497  1.1755
 7571SOL     OW24719   4.473   0.755   0.142  0.1064 -0.4848  0.3435
 7571SOL    HW124720   4.388   0.763   0.186 -0.4575 -2.7265 -0.1781
 7571SOL    HW224721   4.510   0.674   0.178  0.0579 -1.8902 -2.4701
 7572SOL     OW24722   0.335  10.256   9.842  0.1582 -1.1043 -0.2493
 7572SOL    HW124723   0.245  10.283   9.857  0.1722 -0.5716 -1.0863
 7572SOL    HW224724   0.383  10.293   9.917 -0.3400 -1.5732  0.3120
 7573SOL     OW24725   3.376   7.591  10.677 -0.0209 -0.0968 -0.4885
 7573SOL    HW124726   3.418   7.661  10.726 -0.9447  1.0258 -1.2475
 7573SOL    HW224727   3.448   7.533  10.651  0.5964 -0.1519  1.2568
 7574SOL     OW24728   2.701   0.811   5.897 -0.1023  0.3436  0.0191
 7574SOL    HW124729   2.685   0.892   5.945 -0.3876  1.5400 -1.9833
 7574SOL    HW224730   2.675   0.742   5.957  0.5920  1.6926  1.9611
 7575SOL     OW24731   4.724   6.561   7.641  0.2816 -0.1729 -0.0155
 7575SOL    HW124732   4.750   6.649   7.614 -0.5777  0.2307  0.4255
 7575SOL    HW224733   4.714   6.512   7.560  1.0423  0.0527 -0.2488
 7576SOL     OW24734   9.036   0.184   2.806 -0.2571  0.0192 -0.3806
 7576SOL    HW124735   9.109   0.174   2.744 -0.7603 -0.5797 -0.8950
 7576SOL    HW224736   9.066   0.139   2.885 -0.3625 -0.8909 -0.8505
 7577SOL     OW24737   4.203   4.974   5.206  0.2644 -0.2295 -0.0566
 7577SOL    HW124738   4.284   4.940   5.168  0.5016 -2.0761  1.8871
 7577SOL    HW224739   4.226   4.997   5.296 -1.1996 -0.1028  0.3137
 7578SOL     OW24740   5.625   0.356   2.267 -0.2322 -0.2165  0.8021
 7578SOL    HW124741   5.690   0.339   2.199 -0.3126  0.9876  0.4090
 7578SOL    HW224742   5.542   0.332   2.226 -0.5730  2.6619 -0.4321
 7579SOL     OW24743  10.177  10.937   2.264  0.6464  0.3086  0.1447
 7579SOL    HW124744  10.156  10.895   2.180  1.8156 -0.4404  0.2066
 7579SOL    HW224745  10.112  10.901   2.325  0.2186  0.3365 -0.2825
 7580SOL     OW24746   1.255  10.550   9.258 -0.0290 -0.3578  0.5244
 7580SOL    HW124747   1.208  10.507   9.329 -2.2845 -0.9363 -1.1889
 7580SOL    HW224748   1.305  10.479   9.217  0.2939 -0.2761  0.7731
 7581SOL     OW24749   1.868   9.847   3.474  0.3099  0.0132 -0.9028
 7581SOL    HW124750   1.788   9.866   3.523  0.0702 -1.4069 -0.7076
 7581SOL    HW224751   1.878   9.922   3.415 -2.0340 -0.4725 -2.0376
 7582SOL     OW24752   0.461   0.028   2.015  0.3813  0.2199  0.0381
 7582SOL    HW124753   0.507  -0.018   2.085 -1.3960 -0.6517  0.6814
 7582SOL    HW224754   0.495  -0.011   1.934  0.4981 -0.6794  0.5087
 7583SOL     OW24755   9.415   6.931   7.337 -0.3167 -0.0028 -0.5926
 7583SOL    HW124756   9.484   6.934   7.403 -1.7286 -1.7640  1.0682
 7583SOL    HW224757   9.345   6.985   7.373  0.0074  1.5634 -2.1478
 7584SOL     OW24758   0.778   0.254   1.415 -0.0945  0.8337  0.4123
 7584SOL    HW124759   0.789   0.302   1.497 -0.5697  1.2985  0.2052
 7584SOL    HW224760   0.818   0.168   1.432  1.2247  1.4704  0.6166
 7585SOL     OW24761   5.241   4.448   2.519  0.3711 -0.0931  0.2476
 7585SOL    HW124762   5.197   4.363   2.522 -3.1650  1.5507 -0.6128
 7585SOL    HW224763   5.320   4.432   2.467 -1.0311 -2.5249 -1.3238
 7586SOL     OW24764   5.158   2.231   0.975  0.4380  0.3229 -0.0546
 7586SOL    HW124765   5.096   2.302   0.955  1.1265  0.5042 -1.7894
 7586SOL    HW224766   5.118   2.153   0.936  1.5128  0.5497 -1.7172
 7587SOL     OW24767   6.854   2.209   8.954 -0.5893 -0.0101  0.2089
 7587SOL    HW124768   6.778   2.267   8.945 -1.3897 -0.8424  1.2297
 7587SOL    HW224769   6.816   2.122   8.967  0.5424 -0.4704  0.5876
 7588SOL     OW24770   7.687   0.098  10.782  0.2447 -0.1169  0.7557
 7588SOL    HW124771   7.600   0.119  10.816  0.1369  0.4231  0.1583
 7588SOL    HW224772   7.738   0.078  10.860 -0.4831 -0.7023  1.0965
 7589SOL     OW24773  10.956   3.325   3.173 -0.6538  0.1802 -0.2998
 7589SOL    HW124774  10.987   3.373   3.249 -1.4807 -1.6712  1.2822
 7589SOL    HW224775  10.886   3.380   3.136  1.4361  2.3215 -1.3633
 7590SOL     OW24776   1.218   5.853   8.140  0.0352  0.2844  0.6246
 7590SOL    HW124777   1.184   5.852   8.051  1.8763 -3.0318 -0.2286
 7590SOL    HW224778   1.207   5.943   8.170 -0.4948  1.5607 -2.9983
 7591SOL     OW24779   0.010   1.140   2.121  0.4463 -0.4355  0.9427
 7591SOL    HW124780  -0.033   1.078   2.062 -1.5537  1.2191  0.5256
 7591SOL    HW224781   0.101   1.141   2.093  0.2401 -2.1612  0.0874
 7592SOL     OW24782   6.526   3.312   7.157 -0.6703 -0.5634  0.6903
 7592SOL    HW124783   6.572   3.263   7.088  0.0157  0.4597  0.4030
 7592SOL    HW224784   6.433   3.296   7.140 -0.5367  0.1036 -0.8210
 7593SOL     OW24785   2.198   6.273   4.103 -0.6029  0.1865  0.4831
 7593SOL    HW124786   2.268   6.278   4.169 -0.1392  1.4155 -0.0733
 7593SOL    HW224787   2.212   6.350   4.047 -1.3791 -0.4782 -0.6635
 7594SOL     OW24788   6.915   6.342   2.280  0.3816  0.1063 -0.2258
 7594SOL    HW124789   6.926   6.426   2.325  0.8028  0.2404 -0.5772
 7594SOL    HW224790   6.820   6.329   2.279  0.3927 -1.6296  3.8509
 7595SOL     OW24791   9.226   2.161   1.792 -0.1597 -0.3392  0.5166
 7595SOL    HW124792   9.183   2.231   1.743  0.7303  0.9824  1.5686
 7595SOL    HW224793   9.161   2.133   1.856 -1.0164 -1.4738 -0.8111
 7596SOL     OW24794  10.567   0.544   3.747 -0.7846 -0.0885 -0.0254
 7596SOL    HW124795  10.576   0.638   3.728 -0.0381 -0.3093 -0.7808
 7596SOL    HW224796  10.651   0.519   3.784 -0.9187 -0.5114 -0.0074
 7597SOL     OW24797   2.876   1.175   0.749 -0.5271 -0.0180 -0.1225
 7597SOL    HW124798   2.838   1.136   0.671 -0.7647 -2.7350  1.2340
 7597SOL    HW224799   2.802   1.215   0.795 -0.5836  0.5046 -0.6520
 7598SOL     OW24800   5.411   8.278   4.395  0.4233  0.2159  0.3502
 7598SOL    HW124801   5.361   8.343   4.345  1.3516  0.8168  0.1776
 7598SOL    HW224802   5.347   8.211   4.419 -0.3050  0.5974 -0.4983
 7599SOL     OW24803   1.947   8.699   6.767  0.0754 -0.3745  0.1694
 7599SOL    HW124804   2.018   8.730   6.822 -0.5227 -0.1150  0.8184
 7599SOL    HW224805   1.964   8.606   6.754 -0.9749 -1.0325  2.7662
 7600SOL     OW24806   8.383   7.642  10.438 -0.3642 -0.7388 -0.5475
 7600SOL    HW124807   8.398   7.699  10.363  0.3956 -1.7120 -1.1726
 7600SOL    HW224808   8.442   7.675  10.505  1.5278 -1.8682 -1.5399
 7601SOL     OW24809   8.731   2.636   4.620 -0.1204  0.2555 -0.8963
 7601SOL    HW124810   8.826   2.630   4.631  0.1954  2.2630 -1.9776
 7601SOL    HW224811   8.702   2.546   4.605  1.3914 -0.5761  0.8140
 7602SOL     OW24812   1.263  10.888  10.238 -0.2878 -0.3041  0.0710
 7602SOL    HW124813   1.353  10.893  10.272 -0.1025 -0.2240 -0.4186
 7602SOL    HW224814   1.217  10.831  10.300  0.0094 -0.0616  0.5197
 7603SOL     OW24815   4.515   5.412   9.400  0.3904 -0.2569 -0.2627
 7603SOL    HW124816   4.430   5.457   9.398  0.2217 -0.5698 -0.1074
 7603SOL    HW224817   4.509   5.352   9.474 -0.4453 -2.6098 -2.1372
 7604SOL     OW24818   3.931   8.450   3.212 -0.5723  0.1152 -0.2373
 7604SOL    HW124819   3.876   8.374   3.229 -0.2819  0.2800  1.7439
 7604SOL    HW224820   4.018   8.414   3.195 -0.8382 -0.0588 -1.2670
 7605SOL     OW24821   9.053   3.998   6.380  0.2761 -0.3231 -0.1597
 7605SOL    HW124822   9.051   3.985   6.285 -1.3572  0.9910 -0.3439
 7605SOL    HW224823   9.089   3.916   6.414 -1.6343 -1.9340 -1.7456
 7606SOL     OW24824   4.557   4.222   4.502 -0.1109  0.4549 -0.3384
 7606SOL    HW124825   4.554   4.290   4.570  0.9171 -0.5604  0.7529
 7606SOL    HW224826   4.480   4.168   4.520  1.0129 -0.7458  1.0611
 7607SOL     OW24827   5.567   2.041   3.033 -0.3903  0.0565  0.5412
 7607SOL    HW124828   5.580   1.972   2.969 -0.3361  2.3823 -2.1379
 7607SOL    HW224829   5.481   2.077   3.012  1.1409  3.2927 -0.8542
 7608SOL     OW24830   3.374   6.218   9.492  0.0039  0.0258 -0.2486
 7608SOL    HW124831   3.381   6.136   9.541  1.0768  0.4187  0.3145
 7608SOL    HW224832   3.458   6.224   9.445 -1.3094 -0.7486 -2.8621
 7609SOL     OW24833   0.094   3.146   8.839 -0.3909 -0.4779 -0.0350
 7609SOL    HW124834   0.017   3.202   8.831 -0.4329 -0.4027  0.8577
 7609SOL    HW224835   0.061   3.058   8.819 -1.3638 -0.9068  3.0022
 7610SOL     OW24836  11.093   6.144   0.627  0.3622 -0.1834  0.6778
 7610SOL    HW124837  11.171   6.134   0.572  0.1534  0.9102  0.1462
 7610SOL    HW224838  11.041   6.211   0.582 -0.7484 -0.6873  1.1785
 7611SOL     OW24839   0.613  10.527   4.335  0.0886 -0.2829  0.1858
 7611SOL    HW124840   0.591  10.618   4.313 -1.8839 -0.7926 -0.0835
 7611SOL    HW224841   0.544  10.499   4.394  1.5154 -1.1673  1.5009
 7612SOL     OW24842   9.551   0.792  11.014  0.1018  0.1017  0.0278
 7612SOL    HW124843   9.510   0.749  10.939 -0.5940  0.1056  0.3962
 7612SOL    HW224844   9.641   0.806  10.987 -0.0010 -0.3922 -0.6026
 7613SOL     OW24845   2.461   3.886   3.852  0.0309 -0.9019 -0.4015
 7613SOL    HW124846   2.517   3.896   3.929 -0.3901 -1.4962 -0.0010
 7613SOL    HW224847   2.383   3.841   3.886 -1.2027  0.9086 -0.7145
 7614SOL     OW24848   9.428   8.144   2.105  0.3140 -0.0563  0.0980
 7614SOL    HW124849   9.424   8.239   2.105 -0.4493 -0.0676 -1.5094
 7614SOL    HW224850   9.342   8.116   2.134 -1.2014 -0.1924 -3.8872
 7615SOL     OW24851  10.986   1.588   2.428  0.3729 -0.2697 -0.1276
 7615SOL    HW124852  11.014   1.504   2.465  1.5598  0.2152  0.1187
 7615SOL    HW224853  11.028   1.654   2.483 -1.4079  0.5300  0.3530
 7616SOL     OW24854   6.108   7.150   9.145 -0.0016  0.7667  0.3684
 7616SOL    HW124855   6.141   7.171   9.233 -0.2108 -0.4617  0.7679
 7616SOL    HW224856   6.106   7.054   9.143 -2.4164  0.7739 -0.0610
 7617SOL     OW24857  10.283   0.710   1.532  0.5078  0.0419  0.1963
 7617SOL    HW124858  10.349   0.699   1.463  1.5369  2.0679  0.7740
 7617SOL    HW224859  10.315   0.656   1.605 -0.4291 -1.8690 -0.7382
 7618SOL     OW24860   4.879   2.793   2.768  0.4761  0.0941  0.2155
 7618SOL    HW124861   4.827   2.873   2.775  0.2054 -0.0495 -0.1779
 7618SOL    HW224862   4.935   2.795   2.846 -0.1277  0.2340  0.6528
 7619SOL     OW24863  10.366   6.958   7.787 -0.1281 -0.3099  0.5432
 7619SOL    HW124864  10.361   6.889   7.720 -0.6032 -0.6738  0.9424
 7619SOL    HW224865  10.453   6.948   7.825  1.1360  1.4618 -1.6353
 7620SOL     OW24866   1.406   4.831   2.095 -0.1983  0.6200  0.6936
 7620SOL    HW124867   1.384   4.902   2.155  1.5598  2.3101 -0.5337
 7620SOL    HW224868   1.484   4.791   2.132  1.1974  1.9943 -0.5930
 7621SOL     OW24869   4.517   7.383   9.193 -0.1430  0.0001  0.5391
 7621SOL    HW124870   4.592   7.363   9.136 -0.6622  0.1977 -0.2211
 7621SOL    HW224871   4.557   7.426   9.269  0.6317 -0.9022  0.6660
 7622SOL     OW24872   3.772   0.723   6.460 -0.4460 -0.2756 -0.4451
 7622SOL    HW124873   3.813   0.652   6.508  0.4934  1.1280  0.9307
 7622SOL    HW224874   3.810   0.718   6.373  1.5034  0.0224  0.3485
 7623SOL     OW24875   9.178   1.685   0.075  0.8171 -0.0832  0.5630
 7623SOL    HW124876   9.250   1.630   0.045 -0.0771 -2.3438  2.2885
 7623SOL    HW224877   9.221   1.758   0.121  2.0132  0.6617 -1.6041
 7624SOL     OW24878  10.730   2.361  10.668  0.3478 -0.1354  0.2177
 7624SOL    HW124879  10.654   2.412  10.641  1.1705  0.5415 -0.9491
 7624SOL    HW224880  10.699   2.271  10.675 -0.7457  0.2663  0.6084
 7625SOL     OW24881   3.940   3.938  10.072 -0.2062  0.0312 -0.2409
 7625SOL    HW124882   3.849   3.921  10.099 -0.6905  1.3288 -1.0082
 7625SOL    HW224883   3.971   3.853  10.041 -0.2457 -1.0888  2.4989
 7626SOL     OW24884   3.250   5.160   1.866  0.2542 -0.1860 -0.3419
 7626SOL    HW124885   3.204   5.240   1.841 -0.9427 -0.9806 -0.8128
 7626SOL    HW224886   3.309   5.142   1.793  1.4000  0.8741  0.2896
 7627SOL     OW24887   7.675   6.366  10.526 -0.1891 -0.5380  0.4773
 7627SOL    HW124888   7.629   6.395  10.447  0.6349 -0.0594  0.1539
 7627SOL    HW224889   7.767   6.361  10.499  0.0617 -0.6660  1.3259
 7628SOL     OW24890   3.605   8.139   7.143  0.1174  0.3617  0.0502
 7628SOL    HW124891   3.546   8.133   7.069 -1.2363 -2.3565  1.2257
 7628SOL    HW224892   3.684   8.180   7.108 -0.6775 -0.3041 -2.7086
 7629SOL     OW24893   6.678   1.444   4.073  0.0926 -0.0888  0.8034
 7629SOL    HW124894   6.731   1.366   4.061  0.2270 -0.0824  1.3248
 7629SOL    HW224895   6.683   1.462   4.167  0.2375  0.6676  0.6552
 7630SOL     OW24896   0.424   2.264   2.312 -0.0208  0.2102 -0.6893
 7630SOL    HW124897   0.395   2.353   2.329  1.5690  1.0702 -2.1219
 7630SOL    HW224898   0.355   2.226   2.258 -0.5018  0.7259 -0.4445
 7631SOL     OW24899   4.966   5.939   7.676 -0.2799  0.0853 -0.4255
 7631SOL    HW124900   5.001   5.990   7.749 -3.6042  1.8072  0.1443
 7631SOL    HW224901   4.971   5.997   7.601  0.9299 -0.8350 -1.1078
 7632SOL     OW24902   5.030   4.558   1.572 -0.1567  0.5631 -0.8622
 7632SOL    HW124903   5.108   4.525   1.616 -0.5172 -0.6992 -1.1345
 7632SOL    HW224904   5.035   4.522   1.483  0.0274  2.2163 -1.5569
 7633SOL     OW24905   2.772   2.620   0.296 -0.4879 -0.0824 -0.3124
 7633SOL    HW124906   2.772   2.713   0.271  2.4145  1.5799  4.4519
 7633SOL    HW224907   2.865   2.595   0.296 -1.0888 -2.6017 -0.1474
 7634SOL     OW24908   7.974   0.033   6.190 -0.1514 -0.3361 -0.3782
 7634SOL    HW124909   8.056   0.048   6.236  0.2617  1.7719 -1.6709
 7634SOL    HW224910   7.984  -0.054   6.151  0.7846 -0.7778  0.7999
 7635SOL     OW24911   9.469   3.737   7.316  0.1015 -0.4187  0.5931
 7635SOL    HW124912   9.500   3.699   7.399  0.4150  0.4986  0.9134
 7635SOL    HW224913   9.377   3.758   7.332 -0.1202 -1.1648  0.3599
 7636SOL     OW24914   3.280   5.817   2.802 -0.0481 -0.3385  0.6860
 7636SOL    HW124915   3.201   5.764   2.808 -0.6956  0.4810 -0.3749
 7636SOL    HW224916   3.343   5.761   2.757 -0.6151 -0.3367 -0.1246
 7637SOL     OW24917  10.798   6.745   1.397 -0.0549  0.3076  0.0133
 7637SOL    HW124918  10.872   6.685   1.408 -0.6298 -0.6387 -1.0642
 7637SOL    HW224919  10.816   6.817   1.458  0.9437 -0.6793  0.9316
 7638SOL     OW24920   2.000   2.943   9.567  0.1533 -0.0791 -0.0182
 7638SOL    HW124921   2.081   2.902   9.596 -0.3712  1.0813  3.4989
 7638SOL    HW224922   2.028   3.025   9.527  0.7629 -0.6709 -0.8739
 7639SOL     OW24923   4.031   8.483   4.954 -0.9168 -0.5877 -0.5929
 7639SOL    HW124924   4.037   8.578   4.962  0.3878 -0.4819 -2.3456
 7639SOL    HW224925   3.945   8.462   4.991 -0.5436  1.0501  1.3707
 7640SOL     OW24926   9.419   7.565   8.873  0.2037 -0.5917  0.5096
 7640SOL    HW124927   9.350   7.629   8.890  1.8860  1.6738 -0.6546
 7640SOL    HW224928   9.484   7.579   8.942  0.0826 -1.9164  0.9340
 7641SOL     OW24929   2.760   6.615   0.935 -0.1500  0.0035 -0.5748
 7641SOL    HW124930   2.705   6.568   0.872  0.6372 -0.7982 -0.6840
 7641SOL    HW224931   2.849   6.587   0.914  0.3100  1.2989 -0.4216
 7642SOL     OW24932   7.244   4.679   9.665 -0.1502  0.1118  0.0390
 7642SOL    HW124933   7.308   4.740   9.630 -0.7162  0.6128 -0.1473
 7642SOL    HW224934   7.290   4.631   9.733  0.0175  1.4582  0.8991
 7643SOL     OW24935   4.410   0.445   1.310 -0.0085 -1.1953  0.1111
 7643SOL    HW124936   4.468   0.409   1.243  0.2911 -0.4257 -0.0563
 7643SOL    HW224937   4.345   0.496   1.261 -0.1436 -1.1247  0.3639
 7644SOL     OW24938   2.161   1.786   1.162  0.1819 -0.4528  0.2004
 7644SOL    HW124939   2.069   1.761   1.156 -0.7689  2.2471  1.7036
 7644SOL    HW224940   2.188   1.800   1.071 -1.3756  0.1895 -0.1943
 7645SOL     OW24941   4.152   0.152   1.133  0.3935  0.0513  0.3447
 7645SOL    HW124942   4.217   0.083   1.147 -0.2881 -0.3913  1.5177
 7645SOL    HW224943   4.078   0.107   1.093  0.5523  0.4357 -0.4012
 7646SOL     OW24944   3.378   2.314   3.214  0.1202  0.2419 -0.3259
 7646SOL    HW124945   3.427   2.384   3.171  0.4368 -0.2029 -0.7005
 7646SOL    HW224946   3.425   2.234   3.191 -0.8438 -0.2066 -0.7879
 7647SOL     OW24947   4.225   8.060   6.127  0.0054  0.2792  0.2858
 7647SOL    HW124948   4.275   8.135   6.158 -0.2629  0.7153 -0.3248
 7647SOL    HW224949   4.287   8.007   6.077  0.2866 -0.1098  1.0231
 7648SOL     OW24950   0.200   1.847   2.692 -0.4233  0.3278 -0.3040
 7648SOL    HW124951   0.203   1.876   2.601 -2.7580  0.9466 -0.2577
 7648SOL    HW224952   0.116   1.801   2.700 -1.5748  2.5587  2.1119
 7649SOL     OW24953   5.618   5.991   0.650  0.1506  0.2482  0.0100
 7649SOL    HW124954   5.607   5.901   0.680  0.1001 -0.0713 -0.9577
 7649SOL    HW224955   5.528   6.023   0.638  0.1768  0.2662 -0.1331
 7650SOL     OW24956   7.469   8.886  10.829 -0.6053  0.6782 -0.1662
 7650SOL    HW124957   7.495   8.827  10.900 -1.4542 -0.3640 -0.6796
 7650SOL    HW224958   7.400   8.940  10.867 -0.2763  0.9069  0.1177
 7651SOL     OW24959   4.225   3.736   9.451  0.5014  0.2191 -0.2347
 7651SOL    HW124960   4.287   3.794   9.407 -1.6545  1.1133 -2.4051
 7651SOL    HW224961   4.155   3.795   9.481 -0.0277 -0.8809  0.7596
 7652SOL     OW24962   0.136   4.569   3.354 -0.0278  0.5564 -0.4251
 7652SOL    HW124963   0.070   4.618   3.305  0.8597  1.8669 -0.3515
 7652SOL    HW224964   0.089   4.492   3.386 -2.4049  2.8197  2.1043
 7653SOL     OW24965  10.358   5.744   5.932  0.0167 -0.5008  0.0159
 7653SOL    HW124966  10.286   5.800   5.961 -0.9290 -2.3223  1.3641
 7653SOL    HW224967  10.426   5.806   5.904 -1.9106  1.2787 -1.0336
 7654SOL     OW24968  10.243   0.995   1.653 -0.3106 -0.1841 -0.1816
 7654SOL    HW124969  10.252   0.915   1.602  1.1168  0.5921 -1.2187
 7654SOL    HW224970  10.286   1.062   1.600  0.3856  0.8575  1.6229
 7655SOL     OW24971   5.175   5.775   2.865  0.7448 -0.0968  0.4439
 7655SOL    HW124972   5.225   5.790   2.785  2.8506 -1.8450  1.3363
 7655SOL    HW224973   5.207   5.842   2.926  0.5959 -0.0028  0.4170
 7656SOL     OW24974   3.911  10.593   2.581 -0.4873 -0.4285 -0.4821
 7656SOL    HW124975   3.975  10.641   2.529 -0.3874  0.0676  0.0900
 7656SOL    HW224976   3.859  10.545   2.516 -2.0161  2.1202 -1.3234
 7657SOL     OW24977   8.329   3.901   0.316  0.2046  0.1598 -0.3581
 7657SOL    HW124978   8.323   3.805   0.314  0.5459  0.1377 -0.4640
 7657SOL    HW224979   8.331   3.927   0.224 -3.0101  0.5033 -0.4172
 7658SOL     OW24980   6.622   0.886   2.834 -0.6675  0.7456  0.4889
 7658SOL    HW124981   6.676   0.896   2.755 -1.5571 -0.5454 -0.3263
 7658SOL    HW224982   6.586   0.973   2.850 -2.5059  0.5782 -2.0781
 7659SOL     OW24983   5.130  10.309   6.372  0.0628 -0.0791 -0.0709
 7659SOL    HW124984   5.139  10.381   6.435  0.8252  0.2077 -0.4877
 7659SOL    HW224985   5.083  10.347   6.298 -1.9130 -0.7350  0.7882
 7660SOL     OW24986   9.635   8.644   1.304 -0.1324  0.0680 -0.3897
 7660SOL    HW124987   9.662   8.655   1.395 -0.3223  0.3570 -0.3676
 7660SOL    HW224988   9.717   8.636   1.255  0.0311  1.5684 -0.4067
 7661SOL     OW24989   0.623   4.729   7.938  0.2269  0.4221 -0.2319
 7661SOL    HW124990   0.711   4.713   7.905  0.9469 -1.1860  2.2184
 7661SOL    HW224991   0.635   4.794   8.008 -0.5710  0.3802 -0.0426
 7662SOL     OW24992   0.038   6.468  11.029 -0.5729 -0.1950 -0.6672
 7662SOL    HW124993  -0.044   6.436  11.067  0.3807  0.8604  2.5757
 7662SOL    HW224994   0.103   6.403  11.055 -0.0746 -0.2471 -1.9445
 7663SOL     OW24995   5.943   6.086   2.431 -0.3364  0.3116  0.3825
 7663SOL    HW124996   5.985   6.053   2.352 -1.3765  2.3234 -1.1258
 7663SOL    HW224997   6.014   6.100   2.493  0.5518 -1.0049 -0.3096
 7664SOL     OW24998   4.969  11.029   1.615 -0.4525  0.3140 -0.2060
 7664SOL    HW124999   4.896  11.087   1.594 -2.5185 -2.3935 -1.0628
 7664SOL    HW225000   5.032  11.043   1.544 -1.9094 -0.0235 -1.6293
 7665SOL     OW25001   4.260   3.949   1.737 -0.4334 -0.6234 -0.2181
 7665SOL    HW125002   4.212   4.030   1.721  0.3354  0.0190  0.6813
 7665SOL    HW225003   4.197   3.880   1.715 -1.5589  0.1990  0.2991
 7666SOL     OW25004   8.720   1.467   2.915  0.1906 -0.2688  0.3684
 7666SOL    HW125005   8.774   1.393   2.887  0.3178  0.9964 -3.2464
 7666SOL    HW225006   8.766   1.544   2.882 -1.4880  1.2313  1.3400
 7667SOL     OW25007   1.937   0.596   0.978  0.0474  0.2579  0.3839
 7667SOL    HW125008   1.995   0.571   0.906  0.3266 -0.3946  0.8259
 7667SOL    HW225009   1.996   0.616   1.050 -0.2332  0.9009  0.4457
 7668SOL     OW25010   4.668   1.555   1.776 -0.2212 -0.1484  0.0019
 7668SOL    HW125011   4.734   1.604   1.825 -1.1377  1.1388  0.0026
 7668SOL    HW225012   4.615   1.512   1.844 -0.0615 -0.2768  0.0458
 7669SOL     OW25013   6.759   9.778   0.696  0.6028  1.1748  0.0195
 7669SOL    HW125014   6.735   9.860   0.654  0.9451  1.2276 -0.0769
 7669SOL    HW225015   6.853   9.768   0.677  0.0975 -0.4040 -1.9766
 7670SOL     OW25016   0.055   0.642   3.016  0.5652  0.6955 -0.6821
 7670SOL    HW125017  -0.011   0.648   3.085  0.9410  0.9018 -0.3332
 7670SOL    HW225018   0.014   0.589   2.948  0.9101 -1.2768  0.5594
 7671SOL     OW25019   3.561   6.003   3.687 -0.1294 -0.2581 -0.0134
 7671SOL    HW125020   3.547   6.071   3.752 -3.5600 -0.4319 -0.3413
 7671SOL    HW225021   3.622   6.041   3.624 -1.0328  2.0834  0.4394
 7672SOL     OW25022   4.834   2.396   7.463  0.2695  0.1728 -0.2160
 7672SOL    HW125023   4.883   2.314   7.463  0.7453  0.4452 -0.7393
 7672SOL    HW225024   4.806   2.408   7.554  2.8669  0.9743  0.5662
 7673SOL     OW25025   1.281   0.604   0.703 -0.2870  0.0797 -0.3282
 7673SOL    HW125026   1.302   0.597   0.610 -0.5922 -0.0642 -0.3888
 7673SOL    HW225027   1.186   0.594   0.706 -0.6680  2.9067 -0.3068
 7674SOL     OW25028  10.434   9.759   7.690 -0.5402 -0.6770  0.3133
 7674SOL    HW125029  10.513   9.811   7.675 -2.8624  3.2820  0.1197
 7674SOL    HW225030  10.416   9.717   7.606  0.3908 -0.0982 -0.1863
 7675SOL     OW25031   7.920   3.916   2.871  0.0554 -0.1197  0.0877
 7675SOL    HW125032   7.969   3.992   2.903 -1.7150  0.7049  1.0289
 7675SOL    HW225033   7.829   3.934   2.896 -1.1493 -0.5150 -3.4644
 7676SOL     OW25034  10.113   7.861   2.133  0.2228  0.1188  0.0798
 7676SOL    HW125035  10.115   7.939   2.189  0.2462 -0.5653  1.0549
 7676SOL    HW225036  10.186   7.874   2.072  0.7965  0.4387  0.8179
 7677SOL     OW25037   2.203   2.728   5.741  0.0191  1.0456 -0.2147
 7677SOL    HW125038   2.244   2.646   5.714  0.5489  0.8404  1.1060
 7677SOL    HW225039   2.228   2.791   5.674  1.0000  0.5039 -0.3767
 7678SOL     OW25040   5.571   8.427  10.867 -0.5742 -0.3291 -0.0940
 7678SOL    HW125041   5.592   8.473  10.786 -1.6175 -0.0773 -0.2266
 7678SOL    HW225042   5.621   8.345  10.862 -0.0112  0.0400 -0.6182
 7679SOL     OW25043   2.432   9.194   2.376 -0.0770 -0.6033 -0.2317
 7679SOL    HW125044   2.415   9.185   2.470 -0.2758  1.5470 -0.0132
 7679SOL    HW225045   2.521   9.159   2.364  0.8013  0.9994  1.1707
 7680SOL     OW25046   1.293   0.029   7.230 -0.5954 -0.1385  0.3561
 7680SOL    HW125047   1.246  -0.044   7.271  0.8842 -1.4341 -0.1617
 7680SOL    HW225048   1.384   0.016   7.256  0.3191 -0.6285 -2.7379
 7681SOL     OW25049   9.774   2.727   4.648 -0.4420 -0.8943 -0.7251
 7681SOL    HW125050   9.772   2.694   4.558  0.9602 -1.8254 -0.4471
 7681SOL    HW225051   9.694   2.694   4.688 -0.4951 -1.4615 -1.2947
 7682SOL     OW25052   5.975   3.384   6.710 -0.0299 -0.0637 -0.0260
 7682SOL    HW125053   5.989   3.291   6.730 -1.7521 -0.5057 -0.7842
 7682SOL    HW225054   5.891   3.387   6.666 -0.9466  2.1005  1.7053
 7683SOL     OW25055   4.235   8.802   7.000 -0.0518  0.0217 -0.1112
 7683SOL    HW125056   4.200   8.794   7.088 -0.0886 -0.8342 -0.1969
 7683SOL    HW225057   4.330   8.801   7.011 -0.0557  0.4866 -0.0342
 7684SOL     OW25058   3.437   9.505   2.144  0.4846  0.1500 -0.0358
 7684SOL    HW125059   3.476   9.590   2.125  0.2874  0.1414 -0.4936
 7684SOL    HW225060   3.507   9.455   2.187  0.2974  0.8672  1.1380
 7685SOL     OW25061   8.218   9.934   0.117  0.4881  0.3580 -0.0115
 7685SOL    HW125062   8.236  10.023   0.087 -0.4334  1.1558  1.6728
 7685SOL    HW225063   8.131   9.914   0.082  0.1556  0.6169  0.6598
 7686SOL     OW25064   8.028   6.681   4.383 -0.0915  0.1823 -0.2015
 7686SOL    HW125065   7.951   6.625   4.380  0.8845 -1.1399 -2.8399
 7686SOL    HW225066   7.996   6.763   4.422 -2.9857 -0.1003 -1.7072
 7687SOL     OW25067   7.751  10.779   9.778 -0.1328  0.2942 -0.4031
 7687SOL    HW125068   7.720  10.766   9.688 -0.4730 -0.0712 -0.2372
 7687SOL    HW225069   7.804  10.858   9.774 -0.9125  0.8129 -0.7404
 7688SOL     OW25070   4.694   8.151  10.531 -0.2178 -0.1624 -0.1568
 7688SOL    HW125071   4.655   8.082  10.585 -1.6671  1.4786  1.0037
 7688SOL    HW225072   4.709   8.109  10.446 -1.1469 -1.8693  0.4756
 7689SOL     OW25073   4.559   8.062   9.341 -0.2389 -0.2754 -0.3238
 7689SOL    HW125074   4.604   8.011   9.273 -1.5884 -0.6783 -0.9540
 7689SOL    HW225075   4.491   8.109   9.293 -1.2097 -0.5527  0.7531
 7690SOL     OW25076   1.844   1.984   2.161  0.1355  0.4143 -0.5643
 7690SOL    HW125077   1.919   1.983   2.103  0.9223  0.8204  0.4120
 7690SOL    HW225078   1.877   1.948   2.243 -0.3260  1.9385  0.3337
 7691SOL     OW25079   3.812   1.595   9.998  0.1417 -0.3226  0.1220
 7691SOL    HW125080   3.840   1.655  10.067  0.8191 -0.5590  0.0528
 7691SOL    HW225081   3.725   1.627   9.973 -0.1298 -0.2627  1.1099
 7692SOL     OW25082   0.823   1.928  10.033 -0.5312 -0.6919 -0.0603
 7692SOL    HW125083   0.917   1.943  10.036 -0.0642 -2.7459 -1.9773
 7692SOL    HW225084   0.799   1.910  10.124  0.9006 -0.1120  0.4645
 7693SOL     OW25085   8.176   8.604   4.843 -0.2223 -0.3344 -0.6197
 7693SOL    HW125086   8.149   8.516   4.869 -0.1636  0.2016  1.3675
 7693SOL    HW225087   8.261   8.617   4.886 -0.1046  0.6102 -1.1123
 7694SOL     OW25088   3.549   2.229   7.287 -0.1022  0.3283  0.3168
 7694SOL    HW125089   3.611   2.268   7.225 -1.0993 -0.7127 -1.4156
 7694SOL    HW225090   3.555   2.135   7.269 -1.2925  0.1153  0.9695
 7695SOL     OW25091   9.983  11.064   3.782  0.1883  0.0509 -0.2145
 7695SOL    HW125092  10.044  10.992   3.763  0.5303  0.6782 -1.5690
 7695SOL    HW225093  10.027  11.142   3.750 -0.8277  0.6743 -0.1355
 7696SOL     OW25094  10.354   0.547   4.336 -0.1433  0.0489  0.3509
 7696SOL    HW125095  10.381   0.568   4.426  0.9348  1.6214 -0.2978
 7696SOL    HW225096  10.380   0.624   4.285 -0.1785 -1.0686 -1.4193
 7697SOL     OW25097   0.521  11.076   7.913 -0.0090 -0.0129 -0.0623
 7697SOL    HW125098   0.578  11.099   7.839  0.1294  0.4589  0.1884
 7697SOL    HW225099   0.576  11.088   7.990  0.3039 -1.9103  0.0555
 7698SOL     OW25100   8.199   6.528   2.536  0.4826  0.2953  0.7641
 7698SOL    HW125101   8.109   6.522   2.570  0.1581 -0.8603 -0.2342
 7698SOL    HW225102   8.254   6.496   2.607 -0.2132 -2.4480  0.1867
 7699SOL     OW25103   8.840  11.012   0.976  0.9127  0.0960 -0.1600
 7699SOL    HW125104   8.766  11.033   1.032  1.7509 -1.3461  1.5904
 7699SOL    HW225105   8.802  10.961   0.904 -0.0951  1.4770 -0.6567
 7700SOL     OW25106   0.336   0.792   1.764  0.2255  0.1767 -0.4942
 7700SOL    HW125107   0.273   0.728   1.795 -0.9462  2.1066  1.3928
 7700SOL    HW225108   0.418   0.768   1.808 -0.2899  0.1697  0.4916
 7701SOL     OW25109   0.237   6.060   7.661  0.0446  0.1236  0.4816
 7701SOL    HW125110   0.238   6.135   7.602  0.1981 -0.7443 -0.6648
 7701SOL    HW225111   0.300   5.999   7.623 -0.4546 -0.8003  1.0946
 7702SOL     OW25112   1.025  11.068   7.724 -0.0342  0.0108 -0.0133
 7702SOL    HW125113   0.992  11.154   7.750 -1.5462 -0.0480 -1.5509
 7702SOL    HW225114   1.027  11.070   7.629 -0.5978 -1.8145 -0.1073
 7703SOL     OW25115  11.008   4.544   4.143 -0.4853  0.4493 -0.3116
 7703SOL    HW125116  10.953   4.565   4.068  0.2993  1.3502 -0.6577
 7703SOL    HW225117  11.041   4.455   4.126 -0.8230  0.4026 -0.7142
 7704SOL     OW25118   6.370   1.692   2.363  0.6697 -0.3952 -0.0525
 7704SOL    HW125119   6.314   1.757   2.320  0.5473 -1.3412 -1.4191
 7704SOL    HW225120   6.450   1.691   2.310  1.4062 -0.0956  1.0210
 7705SOL     OW25121   8.872   9.322   9.803  0.0621 -0.6384 -0.0010
 7705SOL    HW125122   8.865   9.237   9.845  0.8331  0.0751  1.6651
 7705SOL    HW225123   8.964   9.347   9.812 -0.0036  0.0782 -1.0773
 7706SOL     OW25124   7.710   9.741   5.083 -0.1366 -0.6552  0.1755
 7706SOL    HW125125   7.620   9.773   5.087  0.4482  0.9798  1.6844
 7706SOL    HW225126   7.746   9.761   5.170  2.2410  0.5310 -0.9925
 7707SOL     OW25127   1.654   0.150   8.739 -0.1431  0.2673 -0.2229
 7707SOL    HW125128   1.642   0.124   8.648 -0.4998  0.5844 -0.2690
 7707SOL    HW225129   1.661   0.068   8.787 -0.6230  0.0950 -0.4483
 7708SOL     OW25130   7.596   9.342   8.919  0.2514  0.0474 -0.2647
 7708SOL    HW125131   7.671   9.287   8.893 -1.3228 -2.4700  0.1427
 7708SOL    HW225132   7.546   9.354   8.838  0.5201  0.8334 -0.3246
 7709SOL     OW25133   1.493  10.616   4.526  0.0087  0.2332  1.0883
 7709SOL    HW125134   1.563  10.682   4.528 -0.3728  0.7112 -0.2298
 7709SOL    HW225135   1.422  10.657   4.477 -0.1332 -1.2433 -0.0343
 7710SOL     OW25136   5.696   2.076   0.506  0.0774 -0.1078 -0.0795
 7710SOL    HW125137   5.691   2.151   0.448  0.8605  0.0649  0.0591
 7710SOL    HW225138   5.789   2.052   0.506  0.2575  0.4514  1.7812
 7711SOL     OW25139   0.758   9.413  10.107  0.4812  0.1415 -0.3928
 7711SOL    HW125140   0.687   9.467  10.141 -1.3500 -1.8081 -0.8808
 7711SOL    HW225141   0.803   9.380  10.185 -0.2047  0.0975 -0.0135
 7712SOL     OW25142  10.293   4.826   6.573 -0.0407 -0.3166  0.2908
 7712SOL    HW125143  10.269   4.904   6.523  0.3630 -0.6184 -0.3782
 7712SOL    HW225144  10.330   4.861   6.654 -0.2162  0.1800  0.1638
 7713SOL     OW25145   1.143   8.510   0.576  0.1035  0.2807  0.4314
 7713SOL    HW125146   1.234   8.535   0.592  0.3604  0.1125 -0.6606
 7713SOL    HW225147   1.099   8.527   0.659  1.3505 -0.6828  1.3354
 7714SOL     OW25148   3.741   8.841   4.378  0.0997 -0.5188 -0.1733
 7714SOL    HW125149   3.733   8.876   4.467  3.0452 -1.7442  0.7071
 7714SOL    HW225150   3.699   8.755   4.383 -2.7276  0.7007 -0.9927
 7715SOL     OW25151   1.367  10.156   5.329  0.2038  0.6162 -0.8167
 7715SOL    HW125152   1.395  10.248   5.332 -1.2879  1.0809  0.5692
 7715SOL    HW225153   1.390  10.121   5.415 -1.9336  0.6106 -0.1765
 7716SOL     OW25154   9.047   0.035   3.122 -0.0577 -0.2176  0.7070
 7716SOL    HW125155   9.118   0.099   3.125 -0.9026  0.7961 -0.2192
 7716SOL    HW225156   9.014   0.032   3.211 -0.1889  0.8609  0.7077
 7717SOL     OW25157   4.043   1.492   0.833 -0.0827  0.1769 -0.2803
 7717SOL    HW125158   4.046   1.431   0.906  2.5697 -0.0649 -0.5001
 7717SOL    HW225159   4.008   1.573   0.871  1.2807  0.0770  1.3322
 7718SOL     OW25160   8.364   1.867   3.656 -0.0381 -0.3220  0.2419
 7718SOL    HW125161   8.284   1.903   3.618  0.4861  0.0821 -0.4978
 7718SOL    HW225162   8.407   1.821   3.584  0.7758  0.1252  0.4279
 7719SOL     OW25163   2.030   6.813   4.600 -0.2307  0.4067 -0.0816
 7719SOL    HW125164   2.095   6.845   4.537  1.2625 -1.1749  0.5768
 7719SOL    HW225165   2.077   6.810   4.683 -0.8209 -1.7198  0.2220
 7720SOL     OW25166   5.275   5.203   1.665  0.6514  0.1444 -0.3186
 7720SOL    HW125167   5.221   5.276   1.694  0.0390 -0.1536 -0.7049
 7720SOL    HW225168   5.267   5.203   1.570  1.4409  0.1801 -0.3974
 7721SOL     OW25169   6.531   2.969   1.236  0.1284 -0.0249 -0.4271
 7721SOL    HW125170   6.609   3.023   1.222  0.6371 -0.3798  0.9552
 7721SOL    HW225171   6.562   2.894   1.286 -0.8868 -0.7952 -0.9044
 7722SOL     OW25172   5.179   6.672   4.492 -0.3159  0.3876  0.1814
 7722SOL    HW125173   5.247   6.611   4.522 -1.4199 -0.8163  0.3177
 7722SOL    HW225174   5.126   6.621   4.431  0.6122  2.1571 -2.2589
 7723SOL     OW25175   5.447  10.396  10.097  0.2856  0.7695  0.4053
 7723SOL    HW125176   5.402  10.352  10.169  0.7827 -0.8716 -0.2578
 7723SOL    HW225177   5.540  10.385  10.116  0.4277 -0.0144 -0.6576
 7724SOL     OW25178   2.821   1.785   1.424  0.1664  0.0227 -0.3620
 7724SOL    HW125179   2.763   1.711   1.409  0.6833 -0.5053  0.1800
 7724SOL    HW225180   2.767   1.850   1.470  0.0979 -0.6131  0.4777
 7725SOL     OW25181   7.930   6.990   6.282  0.2390 -0.6157  0.1414
 7725SOL    HW125182   7.836   6.973   6.286  0.4501 -1.6283  1.9516
 7725SOL    HW225183   7.940   7.080   6.310 -0.2341 -0.2044 -0.9464
 7726SOL     OW25184   6.160   3.047   1.595 -0.0961  0.2132 -0.3214
 7726SOL    HW125185   6.099   3.064   1.523 -0.8105  0.5568  0.3452
 7726SOL    HW225186   6.242   3.022   1.553 -0.9277 -1.0478 -1.2309
 7727SOL     OW25187   9.766   1.591   6.110 -0.0622 -0.0827  0.5244
 7727SOL    HW125188   9.751   1.550   6.195 -0.2148  0.0437  0.5595
 7727SOL    HW225189   9.772   1.685   6.129  2.4155 -0.2253  0.7334
 7728SOL     OW25190  10.723   9.124   3.831 -0.2833 -0.5871  0.1364
 7728SOL    HW125191  10.775   9.180   3.890 -0.1635  0.6732 -1.1004
 7728SOL    HW225192  10.784   9.058   3.800  0.2669  0.1033 -0.2917
 7729SOL     OW25193   6.042   8.042   8.361 -0.4134  0.5414 -0.3433
 7729SOL    HW125194   6.058   8.008   8.449 -2.4963 -0.0524 -0.1386
 7729SOL    HW225195   5.947   8.053   8.357 -0.1554  2.9430 -1.6764
 7730SOL     OW25196   0.474   7.137   5.735  0.1234  0.6741  0.2545
 7730SOL    HW125197   0.451   7.206   5.672  0.7445  2.3605  1.7967
 7730SOL    HW225198   0.547   7.091   5.693 -1.7191 -0.5867 -1.8006
 7731SOL     OW25199   9.501  11.056   1.520  0.3751  0.6644 -0.0788
 7731SOL    HW125200   9.492  11.130   1.581 -0.0014  0.3551  0.2411
 7731SOL    HW225201   9.412  11.038   1.491  0.4077  0.0311  0.2102
 7732SOL     OW25202   2.256   1.946   1.588  0.3435 -0.1338 -0.0087
 7732SOL    HW125203   2.256   1.881   1.658  1.7687 -1.5044 -1.2018
 7732SOL    HW225204   2.202   1.907   1.519 -0.5241  0.9164  0.0493
 7733SOL     OW25205   6.597   2.643   2.581  0.2055  0.0893 -0.8378
 7733SOL    HW125206   6.685   2.614   2.606 -0.0631  0.1627  0.2250
 7733SOL    HW225207   6.589   2.730   2.620 -1.4311 -1.0877  1.7718
 7734SOL     OW25208   4.636   4.253  10.814 -0.0793 -0.0942  0.2724
 7734SOL    HW125209   4.587   4.259  10.896 -1.6745  0.1128 -0.6481
 7734SOL    HW225210   4.606   4.172  10.773 -0.7147  0.7206 -0.9440
 7735SOL     OW25211  10.899   3.974   4.423 -0.1385  0.2033  0.4698
 7735SOL    HW125212  10.955   3.935   4.356  0.8690  2.1157  0.1416
 7735SOL    HW225213  10.848   4.040   4.376  1.6429  2.6275  1.7618
 7736SOL     OW25214   4.770   4.938   6.926 -0.4971  0.0164  0.2754
 7736SOL    HW125215   4.743   4.951   7.017  0.7035 -1.2841  0.8490
 7736SOL    HW225216   4.739   4.850   6.905 -1.7962  0.7405 -0.9929
 7737SOL     OW25217   1.809   1.302   2.093 -0.4411 -0.5173  0.0821
 7737SOL    HW125218   1.903   1.309   2.082 -0.4780  0.8050  0.4094
 7737SOL    HW225219   1.787   1.368   2.159 -1.4652 -1.5171  0.7760
 7738SOL     OW25220   4.134   7.857   0.053 -0.4511  0.1689 -0.0477
 7738SOL    HW125221   4.093   7.799   0.117  2.3908 -1.4382  0.4604
 7738SOL    HW225222   4.119   7.945   0.088 -1.7747 -0.4503  1.0510
 7739SOL     OW25223   8.543   6.986   1.211 -0.3212  0.2302  0.1728
 7739SOL    HW125224   8.598   7.060   1.236 -0.9951  0.0906  2.2240
 7739SOL    HW225225   8.594   6.909   1.233 -0.9938  0.1026  1.3542
 7740SOL     OW25226   1.722   1.614   4.508 -0.7081  0.3923 -0.0491
 7740SOL    HW125227   1.788   1.653   4.451 -0.3808  0.7245  0.5395
 7740SOL    HW225228   1.664   1.567   4.449  0.0487  0.1062 -0.5861
 7741SOL     OW25229   1.238   9.021   3.519 -0.0683 -0.5636  0.1848
 7741SOL    HW125230   1.252   9.085   3.449 -1.2176  0.1635  0.5817
 7741SOL    HW225231   1.321   8.973   3.525 -0.0411 -0.8884 -1.8882
 7742SOL     OW25232  10.292   5.083  10.861 -0.6405  0.5084  0.5362
 7742SOL    HW125233  10.212   5.067  10.911 -0.2342 -1.8326  0.5964
 7742SOL    HW225234  10.266   5.073  10.770 -0.6194  0.7657  0.5035
 7743SOL     OW25235   7.052   2.691   0.533  0.0817  0.5638 -0.2400
 7743SOL    HW125236   7.127   2.662   0.481 -0.4386  0.4630 -0.9476
 7743SOL    HW225237   6.983   2.706   0.469 -0.8637 -0.4780  0.4966
 7744SOL     OW25238   0.853   2.361  10.477 -0.0814 -0.0857  0.1829
 7744SOL    HW125239   0.790   2.359  10.549 -2.2730  0.3176 -1.6266
 7744SOL    HW225240   0.841   2.448  10.438  0.0031 -0.8344 -1.5629
 7745SOL     OW25241   9.794   4.487   1.549 -0.2846  0.2143  0.2035
 7745SOL    HW125242   9.798   4.576   1.514  0.2143 -0.1946 -0.8212
 7745SOL    HW225243   9.885   4.456   1.547 -0.2720  0.0818  1.6581
 7746SOL     OW25244   6.054   1.456   7.259 -0.5234  0.5278  0.1300
 7746SOL    HW125245   6.141   1.464   7.298  0.6191  1.9119 -2.4298
 7746SOL    HW225246   6.043   1.363   7.243  1.4017  0.4905 -1.2818
 7747SOL     OW25247   6.514   2.008   6.381 -0.0211  0.0805  0.2794
 7747SOL    HW125248   6.444   1.959   6.340 -0.6081 -0.4008  1.7810
 7747SOL    HW225249   6.476   2.094   6.400  0.1770  0.2299 -0.0034
 7748SOL     OW25250   6.906   5.833   9.872 -0.5996  0.2273  0.1746
 7748SOL    HW125251   6.955   5.915   9.881 -0.4370  0.2449 -0.8065
 7748SOL    HW225252   6.828   5.857   9.822 -0.8385 -0.1084  0.3838
 7749SOL     OW25253   4.061   1.168  10.047 -0.2310  0.4423  0.3253
 7749SOL    HW125254   4.001   1.233  10.084 -1.2725 -0.7168  0.7694
 7749SOL    HW225255   4.062   1.097  10.112  1.4887  0.3348  0.2257
 7750SOL     OW25256   1.491   3.823   6.485 -0.0276  0.5535  0.1710
 7750SOL    HW125257   1.432   3.772   6.430 -0.1694 -0.4628  1.2155
 7750SOL    HW225258   1.434   3.881   6.536 -0.0367  0.3443  0.4008
 7751SOL     OW25259   0.413   2.638   2.934 -0.0064  0.2613 -0.2403
 7751SOL    HW125260   0.355   2.662   2.861 -1.5560 -1.2285  0.4473
 7751SOL    HW225261   0.355   2.611   3.004  1.5228 -0.7597  0.7024
 7752SOL     OW25262   1.584  10.322   5.687  0.2306 -0.5193 -0.2674
 7752SOL    HW125263   1.636  10.289   5.761 -0.5420 -0.0520  0.5126
 7752SOL    HW225264   1.571  10.415   5.708  0.1587 -0.3405 -1.0963
 7753SOL     OW25265   8.064   8.481   2.084 -0.1944  0.4872  0.0742
 7753SOL    HW125266   7.980   8.460   2.123  0.1660 -0.0311  0.5737
 7753SOL    HW225267   8.117   8.402   2.094  0.7997  1.2290  0.9691
 7754SOL     OW25268   4.234   0.175   6.081  0.1493  0.5521  0.7771
 7754SOL    HW125269   4.220   0.086   6.111 -2.3847  0.9071  0.8932
 7754SOL    HW225270   4.265   0.222   6.159  0.0740  0.0597  1.1065
 7755SOL     OW25271   6.938   3.426   3.759  0.4173 -0.7337  0.4540
 7755SOL    HW125272   6.958   3.350   3.814  0.2671 -0.6253  0.6628
 7755SOL    HW225273   6.851   3.453   3.787  0.8784  0.1379  1.1099
 7756SOL     OW25274   9.618   3.983   7.601 -0.2101 -0.4002  0.7385
 7756SOL    HW125275   9.687   3.983   7.535 -0.4318 -2.6179  0.4402
 7756SOL    HW225276   9.600   4.076   7.616 -0.0577  0.2058 -2.1961
 7757SOL     OW25277   3.906   9.386   4.956  0.1169  0.1607 -0.2662
 7757SOL    HW125278   3.812   9.404   4.950  0.3641  1.8482  0.4557
 7757SOL    HW225279   3.936   9.390   4.865 -0.4009  0.2489 -0.4404
 7758SOL     OW25280   6.943   1.899   0.074 -0.5175  0.2924  0.2796
 7758SOL    HW125281   7.004   1.963   0.111  1.6712 -1.8601  0.6511
 7758SOL    HW225282   6.865   1.906   0.129  0.9885  0.2884  2.5748
 7759SOL     OW25283   4.269   3.174   0.800 -0.4363 -0.0377  0.1639
 7759SOL    HW125284   4.211   3.246   0.826 -1.7892 -1.0848  0.1273
 7759SOL    HW225285   4.342   3.179   0.862  0.7632  2.8061 -1.2831
 7760SOL     OW25286   1.887   3.074   2.632  0.3920 -0.5685  0.6865
 7760SOL    HW125287   1.862   3.118   2.551  2.0233 -0.3044  0.2893
 7760SOL    HW225288   1.889   3.145   2.697 -1.4614 -0.8707  1.1284
 7761SOL     OW25289   5.558  10.656   3.458  0.3575 -0.3140  0.6315
 7761SOL    HW125290   5.544  10.706   3.538 -0.5337 -1.1970  1.0538
 7761SOL    HW225291   5.551  10.721   3.387  1.5464  0.5436  1.2589
 7762SOL     OW25292   2.479   8.971   0.708  0.7569 -0.1334  0.3119
 7762SOL    HW125293   2.409   9.027   0.673 -0.9567 -1.4725  1.4314
 7762SOL    HW225294   2.527   9.027   0.768 -0.9301  0.1757  1.4249
 7763SOL     OW25295   2.802   9.948   8.961 -0.3581  0.1057 -0.5085
 7763SOL    HW125296   2.739   9.980   8.897  0.1294  1.4171 -0.3504
 7763SOL    HW225297   2.870  10.015   8.965 -0.3438  0.0392  1.3318
 7764SOL     OW25298   0.292   9.809   0.737 -0.2036  0.4126 -0.4320
 7764SOL    HW125299   0.271   9.898   0.766 -0.0569  0.6257 -0.9705
 7764SOL    HW225300   0.207   9.766   0.728 -0.4058  1.0960 -2.0481
 7765SOL     OW25301   0.843   7.980   9.482 -0.7038  0.1032  0.3581
 7765SOL    HW125302   0.790   8.050   9.444 -1.4949  0.0602  1.3375
 7765SOL    HW225303   0.910   7.962   9.416  0.7431  3.0956  0.8109
 7766SOL     OW25304   2.634   9.691   0.626 -0.9256  0.3717 -0.2210
 7766SOL    HW125305   2.645   9.597   0.608  0.4917 -0.0146  2.1777
 7766SOL    HW225306   2.691   9.733   0.562  0.1524 -0.5902  0.0492
 7767SOL     OW25307   9.035   0.541   0.329 -0.4670 -0.6700  0.7882
 7767SOL    HW125308   8.951   0.541   0.375 -0.7665  0.5746  0.2962
 7767SOL    HW225309   9.042   0.453   0.291 -3.0301  0.0444 -1.7143
 7768SOL     OW25310   4.398   0.828   1.132 -0.1712 -0.0955 -0.1744
 7768SOL    HW125311   4.487   0.830   1.097 -0.0983  0.2050  0.0214
 7768SOL    HW225312   4.371   0.920   1.134  0.7086  0.2002  2.7325
 7769SOL     OW25313   3.834   2.477   3.894 -1.1267  0.4892 -0.6423
 7769SOL    HW125314   3.817   2.383   3.899  0.1460  0.2397 -0.6756
 7769SOL    HW225315   3.835   2.506   3.986 -0.8477  0.3439 -0.6000
 7770SOL     OW25316   3.703   9.123   9.845  0.0864 -0.4478  0.1777
 7770SOL    HW125317   3.751   9.170   9.777  0.7242 -1.4707 -0.1072
 7770SOL    HW225318   3.649   9.190   9.887  0.1121  0.3112 -0.9508
 7771SOL     OW25319   1.731   0.761   4.646 -0.4734  0.3987  0.6138
 7771SOL    HW125320   1.739   0.755   4.551 -0.7053 -0.3031  0.6311
 7771SOL    HW225321   1.731   0.855   4.665 -0.0438  0.5319 -0.0423
 7772SOL     OW25322   0.341   2.342   4.298  0.0341 -0.0945  0.3121
 7772SOL    HW125323   0.256   2.310   4.266  0.1354  0.5655 -0.6528
 7772SOL    HW225324   0.402   2.321   4.228  0.4204  0.6404  0.4250
 7773SOL     OW25325   3.686   1.782   1.691  0.0549  0.0799 -0.1690
 7773SOL    HW125326   3.776   1.753   1.707  0.7074  1.1448 -1.6410
 7773SOL    HW225327   3.670   1.761   1.599 -0.6642  1.1966 -0.3238
 7774SOL     OW25328   1.124   0.236   5.336  0.0066  0.5232 -0.3524
 7774SOL    HW125329   1.173   0.309   5.375  1.9245 -0.6368 -0.4190
 7774SOL    HW225330   1.106   0.264   5.246  1.9490  0.4322 -0.8143
 7775SOL     OW25331   6.577   8.952   2.119  0.1305 -0.1809  0.0382
 7775SOL    HW125332   6.645   8.924   2.180 -0.5125 -1.6761  0.1190
 7775SOL    HW225333   6.611   9.034   2.081  0.1012  1.3400  3.0512
 7776SOL     OW25334   2.009   8.146   1.955  0.1731  0.4638 -0.1881
 7776SOL    HW125335   2.098   8.127   1.924 -0.3159 -0.4577 -1.0700
 7776SOL    HW225336   1.985   8.070   2.007 -0.9027 -0.3365 -1.7680
 7777SOL     OW25337   4.291   4.507   4.334  0.1456 -0.1834  0.5492
 7777SOL    HW125338   4.289   4.527   4.428 -1.3265  2.4209  0.0734
 7777SOL    HW225339   4.313   4.591   4.293  0.7502 -1.2621 -1.4563
 7778SOL     OW25340   5.433   7.109   2.966  0.0987 -0.3948  0.3579
 7778SOL    HW125341   5.411   7.150   3.049  2.0060  0.4676  0.4836
 7778SOL    HW225342   5.399   7.019   2.974 -0.1090 -0.2063  1.8889
 7779SOL     OW25343   0.973   2.780   0.665  0.2069  0.8155  0.7452
 7779SOL    HW125344   1.058   2.823   0.670  1.9086 -2.0883 -0.5775
 7779SOL    HW225345   0.975   2.714   0.734  0.2019 -1.0368 -0.9269
 7780SOL     OW25346   2.797   3.032   9.623  0.4063 -0.2842 -0.5493
 7780SOL    HW125347   2.813   2.938   9.616  1.7924 -0.3507  2.2944
 7780SOL    HW225348   2.728   3.040   9.689  1.7132  0.7022  0.7613
 7781SOL     OW25349   5.916   9.332   0.368  0.5018 -0.3756  0.5469
 7781SOL    HW125350   5.823   9.315   0.378  0.6923 -1.0321  1.3182
 7781SOL    HW225351   5.941   9.380   0.448  0.3205  2.2060 -0.8164
 7782SOL     OW25352   5.763   9.142   8.174  1.1994  0.1500 -0.2964
 7782SOL    HW125353   5.846   9.111   8.138  0.4228 -1.7547 -0.5812
 7782SOL    HW225354   5.704   9.145   8.099  0.4334 -0.7032  0.2479
 7783SOL     OW25355   2.746   8.508   5.537 -0.2691  0.5747 -0.4427
 7783SOL    HW125356   2.763   8.533   5.447  1.0707  0.6451 -0.1930
 7783SOL    HW225357   2.824   8.458   5.563 -0.7253  0.3855  0.6028
 7784SOL     OW25358   2.304   4.515   2.840  0.0776  0.6386  0.3090
 7784SOL    HW125359   2.234   4.503   2.776  0.8930 -0.9391 -0.3244
 7784SOL    HW225360   2.336   4.427   2.858  1.4526  1.2690  1.1052
 7785SOL     OW25361   4.806   7.277   3.075 -0.5203 -0.5119  0.7089
 7785SOL    HW125362   4.729   7.237   3.032  0.1248 -1.2793  0.2352
 7785SOL    HW225363   4.848   7.327   3.006 -0.7968  0.2280  1.0674
 7786SOL     OW25364   2.401   0.311   9.335  0.4066 -0.3903 -0.8697
 7786SOL    HW125365   2.487   0.268   9.338 -0.1414 -1.4645 -0.3369
 7786SOL    HW225366   2.352   0.263   9.269  0.8654  1.5439 -2.7383
 7787SOL     OW25367   7.252   8.028   2.114  0.1860 -0.0783 -0.2248
 7787SOL    HW125368   7.241   8.023   2.209 -0.4115  1.8151 -0.1575
 7787SOL    HW225369   7.163   8.043   2.081  0.2808 -1.4644 -1.1692
 7788SOL     OW25370   2.107  10.511   4.466 -0.5487  0.1842 -0.0648
 7788SOL    HW125371   2.152  10.482   4.545 -1.3027 -2.2736 -0.4347
 7788SOL    HW225372   2.092  10.604   4.479  0.5294  0.1178  2.0718
 7789SOL     OW25373   0.650  10.480   0.819 -0.1868 -0.0140  0.1088
 7789SOL    HW125374   0.610  10.502   0.734  0.7661  2.0086  0.1304
 7789SOL    HW225375   0.585  10.424   0.861 -1.4465  0.3188 -1.2726
 7790SOL     OW25376   8.810   4.564   1.241  0.0721  0.6812 -0.3289
 7790SOL    HW125377   8.838   4.508   1.313 -1.2110 -0.2962 -0.5616
 7790SOL    HW225378   8.806   4.652   1.279 -0.2911  0.2261  0.7069
 7791SOL     OW25379  10.885  10.479   2.741 -0.2718  0.2077  0.1168
 7791SOL    HW125380  10.884  10.567   2.779  0.8238  0.2733  0.0270
 7791SOL    HW225381  10.974  10.447   2.757 -0.3522 -0.4864 -0.7486
 7792SOL     OW25382   1.423   5.838   2.507 -0.1646  0.2029  0.1750
 7792SOL    HW125383   1.329   5.831   2.494 -0.0199 -3.0981  0.0604
 7792SOL    HW225384   1.458   5.857   2.420 -0.7213  3.2309  0.5027
 7793SOL     OW25385   2.374   7.788   5.044  0.1973 -0.3429 -0.7039
 7793SOL    HW125386   2.455   7.838   5.034 -0.4987  0.5950 -2.0569
 7793SOL    HW225387   2.350   7.800   5.136  0.6146  0.9604 -0.7384
 7794SOL     OW25388  10.111   4.314  10.648 -0.8224 -0.5248 -1.1994
 7794SOL    HW125389  10.042   4.380  10.649 -1.0366 -0.7512 -0.2549
 7794SOL    HW225390  10.188   4.361  10.613 -1.0620  0.1354 -0.8637
 7795SOL     OW25391   5.975   1.605  10.402 -0.0141 -0.8439 -0.0766
 7795SOL    HW125392   6.031   1.631  10.475 -0.4704 -1.0898  0.3691
 7795SOL    HW225393   5.924   1.683  10.382 -0.8235 -1.1405  0.7441
 7796SOL     OW25394   3.691   9.619   5.550  0.2488  0.5193 -0.1254
 7796SOL    HW125395   3.636   9.694   5.575 -1.1322  0.3508 -2.3314
 7796SOL    HW225396   3.702   9.569   5.631 -3.0478  0.4964  0.4591
 7797SOL     OW25397   2.599  10.603   9.431 -0.5901 -0.2059 -0.1653
 7797SOL    HW125398   2.595  10.609   9.526  1.0650  1.2669 -0.1233
 7797SOL    HW225399   2.685  10.640   9.408 -1.7300  1.3387 -2.3477
 7798SOL     OW25400   9.594   0.613   1.528 -0.1059  0.1069 -0.2382
 7798SOL    HW125401   9.673   0.613   1.475  0.0797  0.0881  0.0347
 7798SOL    HW225402   9.624   0.632   1.617 -0.5895  1.6455 -0.3851
 7799SOL     OW25403   4.283   6.176   0.165  0.2641  0.6587 -0.5966
 7799SOL    HW125404   4.214   6.177   0.099 -0.3440  1.1610  0.0223
 7799SOL    HW225405   4.364   6.187   0.115  0.0030 -0.8840 -1.4204
 7800SOL     OW25406   0.028   0.173   3.715  0.4226 -0.2795  0.1749
 7800SOL    HW125407  -0.055   0.126   3.709 -0.4326  1.0122  1.2940
 7800SOL    HW225408   0.055   0.186   3.624 -1.7196  1.1645 -0.3084
 7801SOL     OW25409  11.015  10.122  10.851 -0.2233  0.1911  0.2551
 7801SOL    HW125410  11.033  10.166  10.768 -2.1253  0.6572  0.0609
 7801SOL    HW225411  10.939  10.167  10.887  0.3855 -0.1931  2.1408
 7802SOL     OW25412   1.839   8.423   8.426  0.4951 -0.0720 -0.1096
 7802SOL    HW125413   1.860   8.492   8.488 -0.1943  0.8253 -0.8387
 7802SOL    HW225414   1.744   8.411   8.434  0.8934 -2.8118  1.8795
 7803SOL     OW25415   6.104   9.633   8.576  0.1401  0.2660  0.0151
 7803SOL    HW125416   6.049   9.556   8.592 -0.0038  0.7105  1.9348
 7803SOL    HW225417   6.055   9.684   8.512 -1.0312 -0.0342  0.6410
 7804SOL     OW25418   6.962  10.426  11.078 -0.1427  0.4225  0.0313
 7804SOL    HW125419   6.867  10.436  11.073 -0.7254 -2.7431  1.9861
 7804SOL    HW225420   6.985  10.369  11.004  0.5549  2.2974 -1.2844
 7805SOL     OW25421   2.453   2.562   8.060  0.1274  0.0947  0.3367
 7805SOL    HW125422   2.386   2.572   8.127 -1.9024  1.3608 -1.6972
 7805SOL    HW225423   2.439   2.636   8.001  1.4235 -1.2013 -1.7633
 7806SOL     OW25424   3.278   0.400   3.730  0.7542 -0.3806 -0.5763
 7806SOL    HW125425   3.354   0.366   3.778 -1.3063 -1.9646  1.8186
 7806SOL    HW225426   3.252   0.478   3.779  0.8437  0.1749 -1.4048
 7807SOL     OW25427   1.811   0.077   4.176  0.0190 -0.1372 -0.0045
 7807SOL    HW125428   1.884   0.021   4.203 -0.8788 -0.5141  1.7560
 7807SOL    HW225429   1.734   0.039   4.219 -1.1358  0.6420 -1.2867
 7808SOL     OW25430   4.966   0.007   5.651  0.2896  0.2164  0.2669
 7808SOL    HW125431   5.036   0.050   5.602 -1.1998  1.8547 -0.5148
 7808SOL    HW225432   5.009  -0.025   5.730  2.5971 -1.8258 -1.6598
 7809SOL     OW25433   4.088   2.943   3.330  0.3707  0.3053  0.1049
 7809SOL    HW125434   3.993   2.929   3.327  0.6366 -1.5461 -1.2999
 7809SOL    HW225435   4.102   3.020   3.274 -0.1253 -0.8315 -1.6573
 7810SOL     OW25436   1.103   7.936   1.690  0.0104  0.1439  0.4237
 7810SOL    HW125437   1.111   7.899   1.602 -0.7207  1.3359 -0.1648
 7810SOL    HW225438   1.187   7.917   1.732  0.0121 -1.3143 -0.1679
 7811SOL     OW25439   0.263   0.062   0.902  0.3506  0.2089 -0.1475
 7811SOL    HW125440   0.308  -0.006   0.851  0.9083  0.3082  0.1993
 7811SOL    HW225441   0.333   0.104   0.952 -0.0741  0.6600  0.0724
 7812SOL     OW25442   5.814   5.753   0.040 -0.6528  0.0414  0.2599
 7812SOL    HW125443   5.762   5.732  -0.038 -0.3025 -1.0844  0.3053
 7812SOL    HW225444   5.814   5.848   0.044 -0.4955  0.1412 -1.2572
 7813SOL     OW25445   3.430   5.202   5.507 -0.3852 -0.5325 -0.2809
 7813SOL    HW125446   3.476   5.224   5.589 -1.4168 -2.0386  0.7486
 7813SOL    HW225447   3.473   5.256   5.441 -0.2352  1.5625  1.4149
 7814SOL     OW25448   4.644   3.907   7.520  0.1782 -0.1029  0.3150
 7814SOL    HW125449   4.554   3.928   7.545  0.6055 -0.3336  2.2028
 7814SOL    HW225450   4.642   3.901   7.425 -2.0244 -1.1126  0.3775
 7815SOL     OW25451   1.954   9.988   2.736 -0.1327  0.4382  0.1827
 7815SOL    HW125452   2.041   9.966   2.702 -0.3873  0.5770 -0.5770
 7815SOL    HW225453   1.929   9.912   2.788 -0.0524 -0.1018 -0.5601
 7816SOL     OW25454   2.292   1.035   3.400 -0.5586  0.0711 -0.1507
 7816SOL    HW125455   2.342   0.962   3.435  0.4214  1.2332  0.9910
 7816SOL    HW225456   2.244   1.070   3.475  2.7968  3.6083  0.6755
 7817SOL     OW25457   5.349   0.124   8.331  0.1284  0.6300  0.0640
 7817SOL    HW125458   5.349   0.160   8.242  0.4574 -0.0346 -0.2134
 7817SOL    HW225459   5.309   0.038   8.322  1.2960  0.0311  0.3227
 7818SOL     OW25460  10.579   2.611   1.011 -0.1491  0.4596 -0.6322
 7818SOL    HW125461  10.628   2.662   1.076  2.3721  0.1023 -2.1183
 7818SOL    HW225462  10.522   2.555   1.063  0.4765  1.4339  1.2038
 7819SOL     OW25463   7.766   4.455   2.099  0.1383  0.4105  0.0570
 7819SOL    HW125464   7.822   4.441   2.023 -0.6517  0.2485 -0.4979
 7819SOL    HW225465   7.771   4.550   2.116  0.6627  0.3800  0.0796
 7820SOL     OW25466   1.409   0.897   4.028 -0.2904 -0.2880  0.2879
 7820SOL    HW125467   1.369   0.939   3.953 -1.9030  1.0795  1.8321
 7820SOL    HW225468   1.345   0.831   4.055  0.0299 -0.3990  0.7808
 7821SOL     OW25469  10.318   8.586   2.068  0.2045  0.0286 -0.3772
 7821SOL    HW125470  10.295   8.499   2.035  0.6547 -0.0225 -0.5720
 7821SOL    HW225471  10.327   8.575   2.163  1.7603 -0.5072 -0.5487
 7822SOL     OW25472   0.436   0.031   7.420 -0.2977 -0.2695 -0.8864
 7822SOL    HW125473   0.409   0.007   7.331  0.1225 -1.0692 -0.8086
 7822SOL    HW225474   0.417  -0.047   7.473  1.1595 -0.4771 -0.6334
 7823SOL     OW25475   0.387   8.947   3.336 -0.1207 -0.0993 -0.1294
 7823SOL    HW125476   0.345   9.030   3.315  1.3815  0.4670 -1.1043
 7823SOL    HW225477   0.409   8.953   3.429  1.5671  1.4019 -0.5657
 7824SOL     OW25478   0.030   7.299   6.709  0.0671 -0.5070 -0.3165
 7824SOL    HW125479   0.062   7.385   6.736 -2.2981 -0.1396  1.7008
 7824SOL    HW225480   0.012   7.307   6.616  1.6469  0.5685 -0.5561
 7825SOL     OW25481   3.507   0.075   0.178  0.0194  0.7831 -0.5058
 7825SOL    HW125482   3.579   0.052   0.237 -0.6837  0.1765  0.1267
 7825SOL    HW225483   3.460   0.145   0.223 -0.6977  0.1103 -0.1998
 7826SOL     OW25484   4.675   7.675   9.603  0.7623 -0.2209  0.4089
 7826SOL    HW125485   4.716   7.604   9.654  1.0232 -1.3472 -1.2914
 7826SOL    HW225486   4.748   7.723   9.566  0.5692  0.5320  0.9823
 7827SOL     OW25487   2.549  10.030   4.377 -0.0595  0.4540 -0.2980
 7827SOL    HW125488   2.486  10.003   4.310  0.8475 -0.6079 -0.7635
 7827SOL    HW225489   2.632  10.039   4.330 -0.0208  2.8309  0.1046
 7828SOL     OW25490   7.734   3.123  10.886 -0.3878  0.1671  0.4254
 7828SOL    HW125491   7.771   3.211  10.888 -1.5052  0.6935 -0.7338
 7828SOL    HW225492   7.652   3.132  10.838 -1.3497 -1.2146  1.7154
 7829SOL     OW25493   6.765   0.872   4.535  0.2089 -0.2826 -0.5800
 7829SOL    HW125494   6.758   0.932   4.610  1.2356 -0.2607 -0.4918
 7829SOL    HW225495   6.858   0.871   4.514 -0.2479  1.2651 -3.1197
 7830SOL     OW25496   1.877   3.531   1.321  0.6559 -0.1588  0.3774
 7830SOL    HW125497   1.933   3.602   1.288  1.4354 -0.7897  0.2962
 7830SOL    HW225498   1.937   3.477   1.373 -0.0111 -0.5455  0.7455
 7831SOL     OW25499   3.584   9.072   8.150 -0.2250 -0.1207 -0.1329
 7831SOL    HW125500   3.612   9.044   8.062 -1.8339 -0.8927 -0.4392
 7831SOL    HW225501   3.510   9.015   8.170 -0.4885  0.7046  1.3332
 7832SOL     OW25502   1.849   0.844   7.326 -0.1215 -0.4680 -0.1706
 7832SOL    HW125503   1.824   0.897   7.249  3.6876 -0.9028 -1.9062
 7832SOL    HW225504   1.767   0.803   7.353 -2.9554  4.4125 -0.0567
 7833SOL     OW25505   5.877   1.241   1.027  0.1571  0.0342  0.2789
 7833SOL    HW125506   5.854   1.333   1.013  0.3125  0.1578  0.7996
 7833SOL    HW225507   5.915   1.212   0.944  1.2645  0.8022  0.4951
 7834SOL     OW25508   3.138   2.253   7.634  0.7295  0.1105  0.2848
 7834SOL    HW125509   3.100   2.237   7.720  1.0136  2.9275  1.0309
 7834SOL    HW225510   3.075   2.216   7.572 -2.3608  2.7557  1.5559
 7835SOL     OW25511   7.899   9.231   0.625  0.0948 -0.1422 -0.5476
 7835SOL    HW125512   7.835   9.284   0.578  0.0887  1.1480  0.8350
 7835SOL    HW225513   7.853   9.200   0.702  0.9808  0.4051  0.2198
 7836SOL     OW25514   8.348   7.040   8.676  0.2387  0.3648  0.2313
 7836SOL    HW125515   8.298   7.119   8.700  0.2287  0.8361 -1.2739
 7836SOL    HW225516   8.417   7.035   8.742 -1.3780  0.0467  2.0097
 7837SOL     OW25517   0.840   2.425   4.537  0.1723  0.1242  0.0671
 7837SOL    HW125518   0.807   2.460   4.620  0.1676  1.1016 -0.3298
 7837SOL    HW225519   0.821   2.494   4.473  2.6571  0.6212 -0.2518
 7838SOL     OW25520   0.144   5.036   4.517  0.3164  0.3551 -0.0501
 7838SOL    HW125521   0.056   5.016   4.549  0.2791  1.4502  0.6177
 7838SOL    HW225522   0.146   5.132   4.512  1.9236  0.4399  1.3537
 7839SOL     OW25523   0.029   6.900   6.463  0.7752  0.0783 -0.1417
 7839SOL    HW125524  -0.019   6.818   6.453  0.4165  0.1532  0.8736
 7839SOL    HW225525   0.098   6.881   6.526 -0.5845  1.0413  1.7500
 7840SOL     OW25526   2.329   3.690   1.035  0.2617  0.3556 -0.0812
 7840SOL    HW125527   2.263   3.627   1.062 -0.2285  1.2732  0.9278
 7840SOL    HW225528   2.376   3.646   0.963 -0.6664 -0.7632 -0.0356
 7841SOL     OW25529   4.979   1.571   3.085  0.2197  0.3003 -0.1337
 7841SOL    HW125530   4.934   1.642   3.040 -0.3493 -0.1675 -0.3291
 7841SOL    HW225531   4.949   1.492   3.040 -0.7995 -0.2301  1.3790
 7842SOL     OW25532   1.600   1.115   8.000 -0.0743 -0.5117  0.0430
 7842SOL    HW125533   1.633   1.205   8.000  0.5826 -0.5743 -3.6573
 7842SOL    HW225534   1.676   1.062   8.025  0.3655 -0.1758 -0.5551
 7843SOL     OW25535   2.183   9.867   2.624  0.6258  0.4671 -0.4929
 7843SOL    HW125536   2.272   9.887   2.593  1.0389  0.7936  0.8191
 7843SOL    HW225537   2.195   9.790   2.680  0.2269  0.9913  0.3293
 7844SOL     OW25538   7.449   8.685   8.038  0.5995  0.5836 -0.5652
 7844SOL    HW125539   7.445   8.601   7.994  1.5987  0.3098 -0.1551
 7844SOL    HW225540   7.500   8.668   8.117 -0.6076  1.2033  0.3821
 7845SOL     OW25541   1.342   4.591  10.884  0.3805  0.5540 -0.6064
 7845SOL    HW125542   1.301   4.554  10.963 -0.8257  0.4586 -1.2519
 7845SOL    HW225543   1.275   4.647  10.846  1.0008  0.7164 -1.4898
 7846SOL     OW25544   2.958   0.975   5.553  0.5694 -0.6309  0.1600
 7846SOL    HW125545   3.043   0.970   5.509  0.8152 -0.7661  0.6493
 7846SOL    HW225546   2.916   0.892   5.533 -0.1536  0.0910 -1.4973
 7847SOL     OW25547   6.160   4.569   8.465 -0.3979 -0.1839 -0.0281
 7847SOL    HW125548   6.135   4.661   8.467 -1.0675 -0.3800  0.8438
 7847SOL    HW225549   6.166   4.543   8.557  0.5119 -0.8224 -0.2486
 7848SOL     OW25550   6.401   2.562   4.879 -0.3450  0.2403  0.3129
 7848SOL    HW125551   6.360   2.565   4.965  0.3062 -1.1308  0.7000
 7848SOL    HW225552   6.346   2.501   4.829 -1.2738  1.7419 -0.5795
 7849SOL     OW25553   2.037   3.440   9.490  0.0580 -0.0572 -0.2033
 7849SOL    HW125554   2.026   3.345   9.496 -0.8213  0.0218 -0.4156
 7849SOL    HW225555   1.997   3.463   9.406  1.1780  0.3814 -0.6309
 7850SOL     OW25556  10.989   5.857   0.327  0.2492  0.1163  0.2032
 7850SOL    HW125557  10.982   5.895   0.414 -0.5838  1.0186 -0.2353
 7850SOL    HW225558  10.943   5.773   0.334  0.5877 -0.0315  0.7392
 7851SOL     OW25559   2.925   1.179   6.053 -0.1462 -0.0993  0.2276
 7851SOL    HW125560   2.954   1.102   6.100  0.7500  1.6809  2.7820
 7851SOL    HW225561   2.832   1.164   6.037 -0.6205 -0.6018  3.0680
 7852SOL     OW25562  10.104   1.732   3.329  0.6905 -0.2521 -0.1810
 7852SOL    HW125563  10.076   1.748   3.419  1.0913  0.8256 -0.2339
 7852SOL    HW225564  10.109   1.637   3.322 -0.6443 -0.4057  0.5281
 7853SOL     OW25565   2.550  10.205   0.719  0.1318  0.5545  0.1115
 7853SOL    HW125566   2.618  10.139   0.731  0.0159  0.3336 -0.4255
 7853SOL    HW225567   2.482  10.160   0.669 -0.1052  0.9765  0.0535
 7854SOL     OW25568   5.639   0.212  10.943 -0.5625  0.0481  0.3128
 7854SOL    HW125569   5.547   0.213  10.968 -0.5437 -0.6026  0.4249
 7854SOL    HW225570   5.642   0.258  10.859 -1.2850 -1.5758 -0.6462
 7855SOL     OW25571   1.134   7.223   1.834 -0.0288  0.0241  0.1167
 7855SOL    HW125572   1.147   7.140   1.788  0.0223 -0.7838  1.5505
 7855SOL    HW225573   1.062   7.265   1.787  0.5008 -0.4332 -1.1422
 7856SOL     OW25574   6.599   0.469   1.257  0.0436  0.3510  0.0941
 7856SOL    HW125575   6.618   0.547   1.206 -0.0633  1.3316  1.5006
 7856SOL    HW225576   6.512   0.485   1.294  0.3197 -0.1169  0.9686
 7857SOL     OW25577   7.748   9.769   2.916  0.0195 -0.1618  0.5918
 7857SOL    HW125578   7.690   9.749   2.989 -1.1739 -1.3343 -0.6272
 7857SOL    HW225579   7.812   9.699   2.917 -1.9971 -2.1834 -1.4561
 7858SOL     OW25580   4.366   8.201   3.266 -0.0679  0.5102  0.1911
 7858SOL    HW125581   4.344   8.128   3.324  0.9705  0.4356  0.5175
 7858SOL    HW225582   4.372   8.162   3.179  0.3570  0.2220  0.3448
 7859SOL     OW25583   0.344   3.369   4.029 -0.2202 -0.0891  0.6371
 7859SOL    HW125584   0.334   3.287   3.980 -0.6330 -0.1268  0.7762
 7859SOL    HW225585   0.427   3.360   4.074  1.1007  0.7128 -1.4871
 7860SOL     OW25586   1.197   4.910   7.480  0.1550 -0.2856  0.3144
 7860SOL    HW125587   1.172   4.829   7.436 -0.7976  0.6467 -0.9273
 7860SOL    HW225588   1.261   4.883   7.546  0.5800 -1.9104 -0.7204
 7861SOL     OW25589   9.381   4.196   4.514  0.1058  0.0349  0.4352
 7861SOL    HW125590   9.433   4.154   4.446 -2.2792 -0.6374 -1.0845
 7861SOL    HW225591   9.296   4.212   4.474 -2.2013 -2.3379  3.8083
 7862SOL     OW25592   2.456   2.991   7.513  0.2939 -0.1150 -0.0523
 7862SOL    HW125593   2.464   3.071   7.564  0.9728  0.0929 -0.4776
 7862SOL    HW225594   2.467   3.019   7.422 -0.0933 -0.6007 -0.2537
 7863SOL     OW25595   2.339   2.727   2.904 -0.2156 -0.0234 -0.4997
 7863SOL    HW125596   2.290   2.746   2.984  0.8506 -0.6768  0.3354
 7863SOL    HW225597   2.394   2.804   2.890 -0.1305 -0.0595 -0.3733
 7864SOL     OW25598   7.290   9.037   7.666  0.2429  0.1975 -0.0373
 7864SOL    HW125599   7.204   8.998   7.682 -0.5433  1.3675 -1.1809
 7864SOL    HW225600   7.301   9.101   7.735  0.6474 -0.6187  0.6744
 7865SOL     OW25601   3.505   4.828   6.469  0.3889 -0.3363  0.3341
 7865SOL    HW125602   3.495   4.899   6.533 -0.1024  0.4666 -0.6165
 7865SOL    HW225603   3.591   4.844   6.429  0.2176 -0.1954  0.0225
 7866SOL     OW25604   5.910   6.772  10.147 -0.1271  0.2640  0.2950
 7866SOL    HW125605   5.940   6.756  10.057  1.8989  1.3632  0.6959
 7866SOL    HW225606   5.969   6.721  10.201  0.1933  1.4377  1.0882
 7867SOL     OW25607   9.816   6.355   0.660 -0.1088  0.3749 -0.4313
 7867SOL    HW125608   9.740   6.412   0.647 -0.4013  1.0095  3.1829
 7867SOL    HW225609   9.836   6.360   0.753  0.9893 -4.0848 -0.1615
 7868SOL     OW25610   3.625   9.462   5.027  0.0411  0.5177 -0.0151
 7868SOL    HW125611   3.635   9.488   5.119  0.2081  1.5580 -0.3139
 7868SOL    HW225612   3.531   9.454   5.014  0.0237  0.2219  0.2866
 7869SOL     OW25613   3.558   1.476   3.019 -0.0742  0.2696  0.1236
 7869SOL    HW125614   3.545   1.526   2.939 -1.6403  0.2760  0.3523
 7869SOL    HW225615   3.653   1.459   3.022  0.2243  1.5989 -0.9051
 7870SOL     OW25616   3.884   5.842  10.568 -0.4485  0.0911  0.5292
 7870SOL    HW125617   3.952   5.900  10.533  0.1070 -1.0931 -0.4190
 7870SOL    HW225618   3.917   5.754  10.552 -2.2724 -0.5220 -0.0807
 7871SOL     OW25619   2.607   3.291  10.117  0.4340 -0.5479  0.2959
 7871SOL    HW125620   2.591   3.235  10.041  0.0841  1.0801 -0.8849
 7871SOL    HW225621   2.520   3.326  10.140  0.8265  0.5871  0.1171
 7872SOL     OW25622   8.625   4.568   1.049  0.0780 -0.2481  0.5364
 7872SOL    HW125623   8.602   4.477   1.029 -0.3176 -0.3039  1.2338
 7872SOL    HW225624   8.688   4.562   1.120 -0.6801  0.0559  1.2435
 7873SOL     OW25625   7.061   0.584   0.919  0.3317  0.3872 -0.1218
 7873SOL    HW125626   7.000   0.612   0.851 -1.3685  1.6686  1.8090
 7873SOL    HW225627   7.053   0.489   0.921  0.8408  0.2667 -2.0274
 7874SOL     OW25628   7.756  10.666   1.731 -0.3712  0.2569  0.2192
 7874SOL    HW125629   7.783  10.749   1.692  0.1110 -0.5628 -1.2538
 7874SOL    HW225630   7.661  10.664   1.720 -0.3227  0.3733 -0.2340
 7875SOL     OW25631   0.865   4.140   7.825 -0.3749 -0.5081 -0.6049
 7875SOL    HW125632   0.809   4.210   7.857  0.6398  0.9136 -1.7821
 7875SOL    HW225633   0.853   4.069   7.887  0.2855  1.4934  1.9975
 7876SOL     OW25634   7.250   9.118   3.281  0.3401 -0.0073  0.1302
 7876SOL    HW125635   7.193   9.052   3.319  0.4490 -0.0127  0.2848
 7876SOL    HW225636   7.280   9.080   3.199 -0.4418  0.2838 -0.3077
 7877SOL     OW25637   9.069   5.792   2.339  0.4461  0.3805  0.0966
 7877SOL    HW125638   9.153   5.838   2.328  0.8404 -0.3540 -0.0143
 7877SOL    HW225639   9.082   5.709   2.294 -0.2270  0.1118  0.3946
 7878SOL     OW25640   2.548   7.974   1.770 -0.2862 -0.6228 -0.4885
 7878SOL    HW125641   2.574   7.886   1.743 -1.6040 -0.8278 -1.1661
 7878SOL    HW225642   2.501   7.961   1.853  1.1305 -0.3261  0.3938
 7879SOL     OW25643   7.085   3.925   8.351 -0.5696 -0.1711  0.2527
 7879SOL    HW125644   7.110   3.833   8.359 -1.1061 -0.2587  1.0729
 7879SOL    HW225645   7.166   3.974   8.362 -0.0372 -0.5644 -1.5616
 7880SOL     OW25646   1.492   2.635   7.152  0.4896  0.2557 -0.1870
 7880SOL    HW125647   1.498   2.587   7.235  2.4636  0.2656 -0.2763
 7880SOL    HW225648   1.438   2.579   7.097  0.4092 -0.5011  0.6247
 7881SOL     OW25649  10.713   2.320   8.802 -0.2900  0.4967  0.3471
 7881SOL    HW125650  10.784   2.315   8.866 -1.1631  1.0620  1.3965
 7881SOL    HW225651  10.687   2.412   8.804  0.2264  0.7133 -1.4735
 7882SOL     OW25652   2.908   8.265   3.778  0.0200 -0.3028 -0.3355
 7882SOL    HW125653   2.822   8.306   3.773 -0.2223 -0.7355  0.1300
 7882SOL    HW225654   2.952   8.309   3.852  0.8885  1.1494 -1.6561
 7883SOL     OW25655  10.394   0.717   2.057 -0.4129  0.6482  0.2598
 7883SOL    HW125656  10.400   0.664   1.978  0.1017 -0.2761  0.9049
 7883SOL    HW225657  10.374   0.805   2.026  1.5251  0.6727 -1.0247
 7884SOL     OW25658  10.665   5.729  11.046  0.4190 -0.0013  0.6457
 7884SOL    HW125659  10.731   5.673  11.005  0.1736 -0.2521  0.5924
 7884SOL    HW225660  10.640   5.791  10.977 -0.2285 -0.6254  0.3115
 7885SOL     OW25661   2.307   7.408  10.684  0.3144 -0.0040 -0.6517
 7885SOL    HW125662   2.252   7.439  10.755  1.2032  1.2312 -0.4762
 7885SOL    HW225663   2.265   7.441  10.604 -0.4005 -0.9583 -0.6891
 7886SOL     OW25664   2.089   0.075   4.539 -0.4746 -0.3398 -0.2619
 7886SOL    HW125665   2.097   0.104   4.630 -0.3480  1.4500 -0.8075
 7886SOL    HW225666   2.177   0.088   4.503 -0.1723 -2.3052 -0.3234
 7887SOL     OW25667   3.215  11.086  10.552 -0.3580  0.2598  0.0163
 7887SOL    HW125668   3.278  11.025  10.590 -0.4492 -1.1267 -1.9125
 7887SOL    HW225669   3.269  11.144  10.497 -0.7093 -1.3593 -2.1870
 7888SOL     OW25670  10.365   5.280   3.572 -0.1164 -0.2906 -0.3157
 7888SOL    HW125671  10.449   5.244   3.601 -0.1215 -0.5691 -0.6343
 7888SOL    HW225672  10.351   5.356   3.628  0.9889  0.5510 -1.1439
 7889SOL     OW25673   1.308   8.587   3.932 -0.7253 -0.2501 -0.3194
 7889SOL    HW125674   1.323   8.585   3.837  0.1595  0.0341 -0.1957
 7889SOL    HW225675   1.225   8.633   3.942 -0.3197  0.6408 -0.9113
 7890SOL     OW25676   9.442   1.262   0.343  0.6298  0.1858  0.0687
 7890SOL    HW125677   9.498   1.193   0.380  1.7630 -0.4878 -2.6331
 7890SOL    HW225678   9.500   1.338   0.334  0.5445  0.1689 -0.7303
 7891SOL     OW25679   6.279   2.209   3.823 -0.1467  0.1599  0.4169
 7891SOL    HW125680   6.233   2.126   3.832 -0.6551  0.5549  1.6816
 7891SOL    HW225681   6.343   2.209   3.893  1.2755 -0.0228 -0.8293
 7892SOL     OW25682   8.860   5.576   4.758  0.2873 -0.4627 -0.2931
 7892SOL    HW125683   8.935   5.529   4.722  0.7643 -0.0756  0.1804
 7892SOL    HW225684   8.802   5.507   4.790  1.1005 -0.7443  0.6241
 7893SOL     OW25685   4.066   9.308   0.458  0.1388  0.1612 -0.6550
 7893SOL    HW125686   4.035   9.219   0.444 -0.1310  0.4113 -1.7659
 7893SOL    HW225687   4.077   9.316   0.553  0.1759 -1.0466 -0.5520
 7894SOL     OW25688   2.689   6.895   0.156 -0.2417  0.0177  0.2714
 7894SOL    HW125689   2.672   6.908   0.249 -1.3675  1.3748 -0.1001
 7894SOL    HW225690   2.784   6.908   0.148 -0.1218 -0.1560  1.2203
 7895SOL     OW25691   1.437   1.876   4.577  0.3782 -0.4632  0.3302
 7895SOL    HW125692   1.383   1.951   4.552  0.0880 -0.8348 -0.1821
 7895SOL    HW225693   1.516   1.884   4.523  1.3786  0.6894  1.8509
 7896SOL     OW25694   6.408   0.930   7.612  0.1797 -0.3193  0.3515
 7896SOL    HW125695   6.492   0.927   7.658  0.0929 -0.8074  0.4801
 7896SOL    HW225696   6.362   1.005   7.650  0.3506 -0.3595  0.6377
 7897SOL     OW25697   0.405   4.677   3.687 -0.5910 -0.3795  0.1890
 7897SOL    HW125698   0.419   4.700   3.779  0.5268  0.0992 -0.0791
 7897SOL    HW225699   0.382   4.759   3.645  0.4000 -0.2958 -0.2212
 7898SOL     OW25700   5.083   3.272   6.645  0.0993 -0.0034  0.0652
 7898SOL    HW125701   5.100   3.319   6.564  1.1141  0.4209  0.5122
 7898SOL    HW225702   5.132   3.190   6.637  0.2720  0.0771  0.2828
 7899SOL     OW25703   2.863   1.958   7.676  0.1556  0.3780 -0.0808
 7899SOL    HW125704   2.856   1.871   7.637  0.2328  1.0993 -1.7722
 7899SOL    HW225705   2.810   1.953   7.756  0.1730 -1.2080 -0.1411
 7900SOL     OW25706   4.078   7.892   5.224 -0.4580 -0.3888 -0.6570
 7900SOL    HW125707   3.989   7.871   5.254 -0.0790 -0.7469  0.2601
 7900SOL    HW225708   4.107   7.813   5.179 -0.5113 -0.3629 -0.7363
 7901SOL     OW25709   4.766   7.150   6.139 -0.3038  0.2303 -0.0904
 7901SOL    HW125710   4.852   7.174   6.103 -1.1928  1.9019 -1.1954
 7901SOL    HW225711   4.742   7.071   6.091  0.4084  0.0049 -0.0937
 7902SOL     OW25712  10.230   0.936   9.448 -0.0236 -0.1911  0.2094
 7902SOL    HW125713  10.273   0.923   9.363  0.6700  0.4345  0.4528
 7902SOL    HW225714  10.182   1.018   9.438 -0.0727 -0.1995  0.3763
 7903SOL     OW25715   5.254   4.596   2.227 -0.1508  0.0997 -0.0789
 7903SOL    HW125716   5.316   4.650   2.276 -0.4349  0.5334 -0.1889
 7903SOL    HW225717   5.191   4.566   2.292  0.7757 -1.2496  0.2381
 7904SOL     OW25718   0.002   3.275  10.960  0.2647 -0.0088 -0.1293
 7904SOL    HW125719  -0.035   3.257  11.047  1.3775  0.7037  0.5112
 7904SOL    HW225720  -0.070   3.255  10.899 -0.5929 -0.3412  0.9553
 7905SOL     OW25721   6.341   0.825   3.582 -0.0216  0.1389  0.1741
 7905SOL    HW125722   6.426   0.868   3.583 -0.6504  1.4455 -0.2619
 7905SOL    HW225723   6.281   0.890   3.618 -0.9199 -0.5598 -0.0320
 7906SOL     OW25724  11.006   2.771   4.536 -0.0220  0.3278 -0.8358
 7906SOL    HW125725  11.003   2.727   4.621  1.2339  1.1175 -0.3473
 7906SOL    HW225726  10.960   2.854   4.551  1.1000  0.9233 -0.6219
 7907SOL     OW25727  10.826   2.313   5.466 -0.8401  0.5308  0.0689
 7907SOL    HW125728  10.856   2.222   5.468 -1.1705  0.4117 -0.2734
 7907SOL    HW225729  10.733   2.308   5.486 -0.8927  0.7789 -0.1123
 7908SOL     OW25730   9.823   0.252   3.825 -0.3786  0.4140  0.0984
 7908SOL    HW125731   9.752   0.262   3.888  0.1090  0.3027  0.6789
 7908SOL    HW225732   9.854   0.162   3.837 -1.3142 -0.1434 -1.4215
 7909SOL     OW25733   7.658   5.194   6.931 -0.4184  0.0728 -0.0899
 7909SOL    HW125734   7.621   5.142   7.003 -1.1966  1.4459  0.5367
 7909SOL    HW225735   7.587   5.203   6.868 -0.6717  1.3457  0.3567
 7910SOL     OW25736   2.513   3.745   4.354  0.2647 -0.0361 -0.5399
 7910SOL    HW125737   2.562   3.776   4.430  1.0140 -2.3870  0.0236
 7910SOL    HW225738   2.423   3.737   4.385  0.4328 -0.2830 -0.1020
 7911SOL     OW25739   2.750   4.319   8.053 -0.9191 -0.4868  0.1985
 7911SOL    HW125740   2.729   4.307   8.146 -1.2998  0.3615  0.2263
 7911SOL    HW225741   2.815   4.251   8.034 -1.2426 -1.0177  0.9458
 7912SOL     OW25742   4.133   8.787   0.676 -0.2481  0.4064  0.6687
 7912SOL    HW125743   4.182   8.850   0.623  2.0363 -0.8452  1.1680
 7912SOL    HW225744   4.097   8.840   0.747  0.4314  1.3829  0.3130
 7913SOL     OW25745   4.902   0.469   5.123  0.2580 -0.5853  0.3799
 7913SOL    HW125746   4.943   0.472   5.209  0.7655  0.3620  0.1223
 7913SOL    HW225747   4.931   0.550   5.080 -0.1701 -0.9352 -0.5925
 7914SOL     OW25748   9.471   9.848   6.685  0.1235  0.2886 -0.3276
 7914SOL    HW125749   9.505   9.878   6.769 -1.1022 -0.1935  0.3691
 7914SOL    HW225750   9.439   9.927   6.642  0.8167  0.5470 -0.3858
 7915SOL     OW25751   3.821   1.564   7.726 -0.4786 -0.1450 -0.4875
 7915SOL    HW125752   3.852   1.581   7.815 -1.4887 -0.3850 -0.0888
 7915SOL    HW225753   3.902   1.554   7.675  0.1943  2.2317 -0.0613
 7916SOL     OW25754   2.147  10.823   5.996 -0.4489 -0.0226  0.7893
 7916SOL    HW125755   2.180  10.793   5.911  0.2605  0.7033  0.7990
 7916SOL    HW225756   2.226  10.844   6.046 -0.9082  1.7578  0.8130
 7917SOL     OW25757   3.915   8.083   2.099 -0.6702  0.0645 -0.0897
 7917SOL    HW125758   3.959   8.076   2.014  0.4654 -1.5788  0.5850
 7917SOL    HW225759   3.894   7.993   2.123  0.2422  0.3328  1.9546
 7918SOL     OW25760   1.896   5.298   7.032  0.0408 -0.3260  0.2031
 7918SOL    HW125761   1.971   5.355   7.050  0.5562 -0.3231 -1.7762
 7918SOL    HW225762   1.889   5.296   6.937 -2.5681 -0.2530  0.3289
 7919SOL     OW25763   2.190   2.199   1.604  0.0905 -0.0430  0.0461
 7919SOL    HW125764   2.223   2.110   1.603  2.3722  0.7141  1.1678
 7919SOL    HW225765   2.146   2.207   1.689  0.7655  0.1729  0.3812
 7920SOL     OW25766   6.596   9.979   2.129  0.3371 -0.3889 -0.3867
 7920SOL    HW125767   6.592   9.893   2.172  0.9258 -0.3579 -0.2563
 7920SOL    HW225768   6.647  10.033   2.190  2.1636 -0.6407 -1.5977
 7921SOL     OW25769   2.233   0.429   9.532 -0.3883 -0.4023 -0.4902
 7921SOL    HW125770   2.321   0.405   9.504 -0.4161 -0.4469 -0.5402
 7921SOL    HW225771   2.227   0.399   9.623 -0.8652 -1.7777 -0.9366
 7922SOL     OW25772   6.536   8.006   0.413  0.1963 -0.6664 -0.4333
 7922SOL    HW125773   6.610   8.018   0.472  0.1080 -2.7822  0.1890
 7922SOL    HW225774   6.481   8.083   0.428  1.7732  0.4911 -0.2391
 7923SOL     OW25775   1.676   3.207   4.117  0.4255  0.5196 -0.0676
 7923SOL    HW125776   1.725   3.162   4.186 -0.0493 -1.0725 -0.7174
 7923SOL    HW225777   1.648   3.137   4.058 -1.6868  1.4788 -0.3000
 7924SOL     OW25778  10.615   8.044   6.896  0.1862  0.1615  0.4466
 7924SOL    HW125779  10.692   8.072   6.945  0.2021  1.7210 -0.4186
 7924SOL    HW225780  10.542   8.091   6.937 -0.1119 -0.2001  0.3434
 7925SOL     OW25781   0.700  10.867   8.915  0.2345 -0.0951  0.0511
 7925SOL    HW125782   0.755  10.945   8.919  0.7386 -0.4771  0.7270
 7925SOL    HW225783   0.656  10.873   8.830  2.8151 -0.7726 -1.4691
 7926SOL     OW25784   2.385   5.389  10.338  0.0963 -0.7975 -0.3647
 7926SOL    HW125785   2.463   5.383  10.394  0.2713 -1.1361 -0.6371
 7926SOL    HW225786   2.385   5.478  10.305  1.1021 -1.1570 -1.4015
 7927SOL     OW25787   6.689   3.628   3.115 -0.2994 -0.2861 -0.8945
 7927SOL    HW125788   6.632   3.698   3.083  0.5559  0.9828  0.2230
 7927SOL    HW225789   6.643   3.592   3.191  0.0129  0.1982 -0.4718
 7928SOL     OW25790   7.134   4.515   1.766 -0.7452 -0.0433  0.1990
 7928SOL    HW125791   7.114   4.599   1.725  0.6930  1.1239  1.7498
 7928SOL    HW225792   7.049   4.473   1.779 -1.4825  1.1155 -0.7051
 7929SOL     OW25793   3.174   0.643   0.409 -0.0709  0.4536 -0.2618
 7929SOL    HW125794   3.164   0.559   0.454 -1.0713  0.9982  0.5673
 7929SOL    HW225795   3.266   0.665   0.420  0.0826 -0.2748 -0.0283
 7930SOL     OW25796   7.337   8.854   1.991  0.2401 -0.1638  0.0602
 7930SOL    HW125797   7.396   8.925   2.015  0.8564 -0.4037 -0.6839
 7930SOL    HW225798   7.341   8.794   2.066  2.0776 -0.8717 -0.5360
 7931SOL     OW25799   4.713   1.204   4.744  0.3124  0.0394 -0.1858
 7931SOL    HW125800   4.735   1.117   4.777 -0.1214  0.3317  0.8825
 7931SOL    HW225801   4.628   1.192   4.701  1.7576 -0.7945 -3.1449
 7932SOL     OW25802   1.667   5.906   6.370  0.0258 -0.2924  0.9546
 7932SOL    HW125803   1.739   5.850   6.343 -1.0003 -1.7489  1.0717
 7932SOL    HW225804   1.661   5.892   6.465  0.8517  1.3983  1.2850
 7933SOL     OW25805  10.987   6.437   4.562 -0.2528 -0.0248  0.1226
 7933SOL    HW125806  11.010   6.508   4.621  1.4996 -0.3462 -0.1177
 7933SOL    HW225807  11.028   6.461   4.479 -0.8333 -0.6375 -0.3509
 7934SOL     OW25808   4.201   8.225   5.241  0.5007  0.7982  0.4131
 7934SOL    HW125809   4.108   8.241   5.256  0.3100  1.1091 -0.9465
 7934SOL    HW225810   4.227   8.167   5.312 -1.3453 -1.3908 -0.5598
 7935SOL     OW25811   4.852   2.849   9.399 -0.0250 -0.3106 -0.3837
 7935SOL    HW125812   4.804   2.777   9.439 -0.8587  1.0116  1.1280
 7935SOL    HW225813   4.809   2.863   9.314 -0.9354 -0.5284  0.0352
 7936SOL     OW25814   5.102   9.983   6.602  0.5720 -0.5130  0.1657
 7936SOL    HW125815   5.159   9.906   6.599  1.6382  0.2711 -0.2553
 7936SOL    HW225816   5.124  10.026   6.685 -0.4167 -0.9264  0.6690
 7937SOL     OW25817   2.934   9.921  10.445 -0.2819 -0.3892  0.1112
 7937SOL    HW125818   2.935   9.883  10.533 -1.4633 -0.8574 -0.0660
 7937SOL    HW225819   2.952   9.847  10.387  0.5301 -0.0746 -0.0612
 7938SOL     OW25820   3.421   4.176   8.741 -0.3826  0.4838  0.0376
 7938SOL    HW125821   3.515   4.176   8.760 -0.4999 -0.2418  0.6924
 7938SOL    HW225822   3.390   4.092   8.774 -1.1694  0.4748 -0.6869
 7939SOL     OW25823   2.049   0.231   1.452  0.0847 -0.8807 -0.1043
 7939SOL    HW125824   2.112   0.191   1.393 -0.5321 -1.5915 -0.3053
 7939SOL    HW225825   1.967   0.184   1.435 -0.1878 -0.8691  1.0607
 7940SOL     OW25826   0.363   0.444   2.173 -0.2088  0.3891  1.1678
 7940SOL    HW125827   0.268   0.441   2.166 -0.1561 -0.2705  0.5298
 7940SOL    HW225828   0.391   0.353   2.158  0.6728  0.9835 -1.3216
 7941SOL     OW25829   3.781   7.311   0.458 -0.4895  0.5380 -0.7324
 7941SOL    HW125830   3.870   7.286   0.486 -0.7475  0.5496  0.1259
 7941SOL    HW225831   3.784   7.306   0.363  0.7174  1.4685 -0.7694
 7942SOL     OW25832   3.735   3.660   3.930 -0.6238 -0.0530 -0.6008
 7942SOL    HW125833   3.776   3.618   4.006 -1.3639 -1.5291 -0.9755
 7942SOL    HW225834   3.649   3.618   3.923 -0.2147 -0.6747 -2.7990
 7943SOL     OW25835   1.527   9.432   1.762  0.1033  0.3024  0.5576
 7943SOL    HW125836   1.477   9.367   1.812  0.2496  0.4269  0.8744
 7943SOL    HW225837   1.462   9.496   1.732 -0.0728 -0.1180  0.0397
 7944SOL     OW25838   3.427   1.332   7.977 -0.0132  0.0782 -0.1852
 7944SOL    HW125839   3.410   1.280   8.056  1.9319 -2.1912 -1.1171
 7944SOL    HW225840   3.341   1.354   7.944 -0.9097  1.7881  2.9167
 7945SOL     OW25841   6.890   5.098   9.516  0.7204  0.1001 -0.2297
 7945SOL    HW125842   6.805   5.062   9.540 -0.4752  1.1864 -2.5387
 7945SOL    HW225843   6.889   5.187   9.551  1.7540 -0.4658  1.3790
 7946SOL     OW25844   1.577   4.275   0.246  0.0779 -0.7319  0.2243
 7946SOL    HW125845   1.519   4.240   0.313 -2.0448 -0.8862 -1.5939
 7946SOL    HW225846   1.612   4.356   0.284 -2.5534  0.2041  0.8515
 7947SOL     OW25847   3.467  10.581   5.271 -0.0780  0.1346 -0.0122
 7947SOL    HW125848   3.383  10.612   5.303 -0.6723 -0.4510 -0.9662
 7947SOL    HW225849   3.511  10.659   5.238 -0.8849  0.2264 -0.9029
 7948SOL     OW25850  10.749   8.639   1.204  0.3866 -0.9350 -0.5235
 7948SOL    HW125851  10.662   8.600   1.205 -0.2676  0.4794  0.9410
 7948SOL    HW225852  10.789   8.609   1.286  1.3780 -1.7041 -1.2553
 7949SOL     OW25853   3.330  10.017   0.969  0.9404  0.5642  0.5505
 7949SOL    HW125854   3.240  10.041   0.945  1.0784 -0.7660 -1.5538
 7949SOL    HW225855   3.368  10.097   1.003 -0.8692  1.2964  0.9777
 7950SOL     OW25856   1.703   4.384   1.660 -0.2401  0.6455  0.2446
 7950SOL    HW125857   1.682   4.439   1.735 -0.3858  1.4014 -0.3423
 7950SOL    HW225858   1.640   4.312   1.665 -0.1315  0.5884  0.9393
 7951SOL     OW25859   3.570   4.782   4.016 -0.1061  0.0065  0.4564
 7951SOL    HW125860   3.593   4.784   3.923  0.9625 -1.4914  0.6427
 7951SOL    HW225861   3.616   4.857   4.054  1.5601 -0.8373  0.1800
 7952SOL     OW25862   1.092   0.288   3.516 -0.0947  0.0422 -0.8737
 7952SOL    HW125863   1.036   0.359   3.485  1.0309  1.6364  0.5442
 7952SOL    HW225864   1.172   0.332   3.544  1.2101 -1.9719 -1.2405
 7953SOL     OW25865   5.002   3.879   3.425 -0.7198 -0.1261  0.5139
 7953SOL    HW125866   5.074   3.917   3.375 -0.2043  1.4374  2.2990
 7953SOL    HW225867   4.931   3.869   3.362  0.0596  1.2544 -0.6466
 7954SOL     OW25868   8.432   1.850   1.969 -0.1830 -0.1548 -0.9305
 7954SOL    HW125869   8.372   1.913   2.009  0.0810  0.1730 -1.0455
 7954SOL    HW225870   8.519   1.885   1.986  0.1680 -1.9988  1.6306
 7955SOL     OW25871   0.193   1.683   6.283 -0.1184 -0.8221 -0.1442
 7955SOL    HW125872   0.156   1.602   6.319 -0.4632 -0.0095  1.4545
 7955SOL    HW225873   0.208   1.738   6.360 -2.1794  1.6024 -1.3108
 7956SOL     OW25874  10.634   8.835   8.113  1.0584 -0.3444  0.1880
 7956SOL    HW125875  10.573   8.762   8.114  0.1038  0.4131 -0.9264
 7956SOL    HW225876  10.688   8.820   8.035  0.6777  0.2562 -0.2048
 7957SOL     OW25877  10.640   8.382   9.622 -0.2377 -0.1183  0.0769
 7957SOL    HW125878  10.550   8.414   9.630 -0.3143 -0.7244  2.8969
 7957SOL    HW225879  10.667   8.367   9.713  2.3138 -1.0767 -0.7711
 7958SOL     OW25880  10.657   3.543   9.130  0.4420  0.4266  0.0604
 7958SOL    HW125881  10.626   3.571   9.216  0.1209  0.2312  0.0090
 7958SOL    HW225882  10.579   3.539   9.076  0.6756  0.7664 -0.3052
 7959SOL     OW25883   0.159   3.114   8.444  0.0524 -0.4840 -0.0378
 7959SOL    HW125884   0.239   3.140   8.489  0.8418 -1.2076 -0.9928
 7959SOL    HW225885   0.106   3.072   8.512  0.6409 -0.3543  0.5147
 7960SOL     OW25886   3.850  10.834   6.188  0.4701  0.5250 -0.1170
 7960SOL    HW125887   3.858  10.889   6.110  0.8499  1.7448  0.7542
 7960SOL    HW225888   3.933  10.846   6.235  0.0282  0.2628  0.7567
 7961SOL     OW25889   8.047   7.551   7.292  0.4004  0.6724  0.4574
 7961SOL    HW125890   8.035   7.457   7.275 -0.5157  0.6689  1.0176
 7961SOL    HW225891   8.044   7.558   7.387  0.9545  1.2183  0.4380
 7962SOL     OW25892   4.821   0.009   8.093 -0.0316  0.1623 -0.2049
 7962SOL    HW125893   4.826   0.089   8.144 -2.9554 -0.0411  0.5825
 7962SOL    HW225894   4.901  -0.039   8.115 -0.2306  0.9767  2.6721
 7963SOL     OW25895   0.963   2.952   1.407  0.0389  0.0101 -0.2379
 7963SOL    HW125896   0.952   3.044   1.382  2.6681  1.6115  3.5392
 7963SOL    HW225897   0.881   2.929   1.450 -0.0192  1.2103  0.3289
 7964SOL     OW25898   3.105   1.971   4.976 -0.0948  0.3404  0.0169
 7964SOL    HW125899   3.109   1.929   4.890  0.0966  0.2197  0.0852
 7964SOL    HW225900   3.195   1.973   5.007 -0.1648  0.3672  0.2235
 7965SOL     OW25901   7.134   2.519   1.102 -0.1524  0.1848  0.2077
 7965SOL    HW125902   7.171   2.454   1.162 -0.4781 -1.0192 -0.8496
 7965SOL    HW225903   7.060   2.556   1.150 -0.3360 -0.6689  0.6151
 7966SOL     OW25904   1.804   8.982   1.441 -0.1143 -0.3103 -0.0017
 7966SOL    HW125905   1.814   8.892   1.409  1.5919  0.0226 -0.5254
 7966SOL    HW225906   1.883   8.997   1.494 -0.4086  0.8465  0.1354
 7967SOL     OW25907   8.023   9.096   7.453  0.4568  0.0123  0.1395
 7967SOL    HW125908   8.079   9.050   7.515 -1.7572  0.8170  2.9325
 7967SOL    HW225909   8.066   9.180   7.439  2.6466 -1.3581 -2.1449
 7968SOL     OW25910   8.850   0.764   4.097  0.1901  0.1759  0.2922
 7968SOL    HW125911   8.839   0.730   4.186 -1.0882 -0.7242 -0.1834
 7968SOL    HW225912   8.769   0.814   4.081  1.0059  1.4885  0.1127
 7969SOL     OW25913   0.428   1.220   7.625  0.3533 -0.2188  0.0665
 7969SOL    HW125914   0.505   1.244   7.677  0.1528  0.1364  0.1976
 7969SOL    HW225915   0.359   1.279   7.655  0.1294 -0.2822 -0.3185
 7970SOL     OW25916   6.994   7.655   4.376  0.3490  0.8746 -0.0919
 7970SOL    HW125917   6.961   7.653   4.466 -4.2836 -0.1803 -1.5244
 7970SOL    HW225918   6.930   7.709   4.329  1.3387 -0.4474 -3.1514
 7971SOL     OW25919   6.431   5.127   3.219 -0.2493 -0.0661  0.6301
 7971SOL    HW125920   6.403   5.041   3.251  0.4196 -1.0399 -1.2255
 7971SOL    HW225921   6.489   5.160   3.287  0.0152 -1.3935  1.0910
 7972SOL     OW25922  10.725   7.964   4.746 -0.2313  0.3213 -0.1445
 7972SOL    HW125923  10.768   7.955   4.661 -0.8830 -1.1205 -0.3469
 7972SOL    HW225924  10.667   8.040   4.736 -0.4601  0.0368 -1.0606
 7973SOL     OW25925   0.068   0.955   4.296 -0.3384  1.1857  0.0085
 7973SOL    HW125926   0.018   0.954   4.214 -0.8868  0.4322  0.3343
 7973SOL    HW225927   0.053   0.868   4.334 -0.9539  1.8789  1.4183
 7974SOL     OW25928   0.724   9.502   0.832  0.2480  0.2777 -0.3285
 7974SOL    HW125929   0.725   9.480   0.925  1.6452 -0.0137 -0.3887
 7974SOL    HW225930   0.640   9.545   0.818  0.5359  1.4757  1.3428
 7975SOL     OW25931   2.175   4.833   9.907 -0.1842 -0.2606  0.0887
 7975SOL    HW125932   2.249   4.893   9.899 -0.2180 -0.1800  0.3589
 7975SOL    HW225933   2.190   4.766   9.840  0.0029 -0.1077 -0.0209
 7976SOL     OW25934   3.575   5.037   7.376 -0.7285  0.2605  0.0579
 7976SOL    HW125935   3.521   5.000   7.446 -0.2212 -0.4506  0.0775
 7976SOL    HW225936   3.535   5.003   7.295 -0.6126  0.1406  0.0511
 7977SOL     OW25937   9.156   4.580   4.320 -0.0474 -0.2904  0.0046
 7977SOL    HW125938   9.130   4.657   4.370 -0.4199 -0.2082 -0.3050
 7977SOL    HW225939   9.226   4.611   4.263 -0.3637 -0.1123 -0.2952
 7978SOL     OW25940   6.240  11.008   6.212 -0.0242 -0.0314 -0.2389
 7978SOL    HW125941   6.309  10.971   6.267  0.7746 -0.0738 -1.2290
 7978SOL    HW225942   6.288  11.054   6.142 -0.9909  1.4182  0.0011
 7979SOL     OW25943   1.406   5.274   8.736  0.2057  0.1892 -0.3440
 7979SOL    HW125944   1.335   5.214   8.713  0.6436 -1.8027  2.8221
 7979SOL    HW225945   1.485   5.221   8.727  1.2626  2.0106 -2.6235
 7980SOL     OW25946   5.078   5.705   8.406 -0.0867 -0.0818 -0.3257
 7980SOL    HW125947   5.096   5.767   8.336 -0.3235  0.3376 -0.0152
 7980SOL    HW225948   5.081   5.757   8.486 -2.5982  0.0334 -0.2245
 7981SOL     OW25949   6.599   4.616   8.558  0.7530 -0.3567  0.9524
 7981SOL    HW125950   6.620   4.523   8.556  2.3331 -0.0434  1.6152
 7981SOL    HW225951   6.649   4.650   8.632 -1.9715  0.5289  2.5292
 7982SOL     OW25952  10.866   9.135   6.897 -0.2540  0.0409  0.2033
 7982SOL    HW125953  10.920   9.129   6.818 -0.4982 -2.2030  0.1473
 7982SOL    HW225954  10.904   9.208   6.946 -0.0930  1.4951 -1.9544
 7983SOL     OW25955   7.399   3.500   4.196 -0.1848  0.0838  0.0445
 7983SOL    HW125956   7.461   3.572   4.189 -0.0172 -0.1377 -0.8087
 7983SOL    HW225957   7.314   3.540   4.174 -0.2457  0.2327  0.5357
 7984SOL     OW25958   3.817   1.582   0.097 -0.9686 -0.2974  0.3141
 7984SOL    HW125959   3.774   1.532   0.027  0.1880 -0.1303 -0.5629
 7984SOL    HW225960   3.866   1.650   0.050  1.3265 -1.2999  1.1168
 7985SOL     OW25961   3.292   2.071   2.974  0.3442 -0.3370 -0.1874
 7985SOL    HW125962   3.217   2.021   3.006  0.6158 -0.1356  0.8060
 7985SOL    HW225963   3.254   2.148   2.932 -0.0080  0.0739  0.8453
 7986SOL     OW25964   3.032   6.936   0.538  0.8642  0.2574 -0.5133
 7986SOL    HW125965   3.110   6.917   0.591 -0.7611 -0.1274  1.8785
 7986SOL    HW225966   2.993   7.013   0.579 -0.0666  0.4267 -1.6629
 7987SOL     OW25967   4.788   8.660   2.859  0.4537 -0.2606 -0.1286
 7987SOL    HW125968   4.764   8.615   2.940 -0.5418  2.5818  1.3081
 7987SOL    HW225969   4.864   8.713   2.882  0.3841  0.3091 -1.1367
 7988SOL     OW25970   8.350   1.521   4.249 -0.3058  0.2728 -0.5324
 7988SOL    HW125971   8.373   1.572   4.171  0.5454  0.1878 -0.3441
 7988SOL    HW225972   8.286   1.576   4.295 -0.7153  0.3845 -1.2153
 7989SOL     OW25973  10.853   4.187  10.809 -0.6390 -0.1713  0.1669
 7989SOL    HW125974  10.835   4.263  10.753 -0.4601  1.1878  1.8692
 7989SOL    HW225975  10.779   4.184  10.870  0.2299 -0.2410  1.2613
 7990SOL     OW25976   1.974   3.035   4.690  0.2566  0.1582 -0.2309
 7990SOL    HW125977   1.922   2.966   4.650  0.4839 -1.7369  2.4449
 7990SOL    HW225978   2.040   3.056   4.624  1.3430 -3.5597 -0.5923
 7991SOL     OW25979   1.062   0.263   7.461  0.1912  0.6124  0.3589
 7991SOL    HW125980   1.149   0.301   7.447  0.0220  1.4368  1.4278
 7991SOL    HW225981   1.042   0.281   7.553 -0.3066 -1.2636  0.6769
 7992SOL     OW25982   6.134  10.762   3.989 -0.6014 -0.1863  0.2993
 7992SOL    HW125983   6.154  10.856   3.985 -3.2481  0.6012  2.8977
 7992SOL    HW225984   6.215  10.722   4.021  0.3803  1.2296 -0.2809
 7993SOL     OW25985   9.767   0.316   0.521  0.0391  0.1764 -0.0122
 7993SOL    HW125986   9.836   0.368   0.561 -0.2485  0.8710 -0.4152
 7993SOL    HW225987   9.686   0.351   0.558 -0.3182  1.5801 -1.9862
 7994SOL     OW25988   8.519   7.263   0.715  0.0330  0.4577  0.0426
 7994SOL    HW125989   8.578   7.327   0.756 -0.1893 -0.3263  1.6492
 7994SOL    HW225990   8.565   7.180   0.723 -0.3664  0.1653 -0.6408
 7995SOL     OW25991   6.235   8.692   2.284  0.0877  0.0601  0.2382
 7995SOL    HW125992   6.241   8.735   2.198  2.4616  0.3872  0.4808
 7995SOL    HW225993   6.212   8.763   2.344 -0.7640 -0.0043  0.0019
 7996SOL     OW25994   7.671  10.900  10.503 -0.4529  0.5687 -0.3173
 7996SOL    HW125995   7.644  10.935  10.418  0.2830 -1.5078 -1.4694
 7996SOL    HW225996   7.602  10.838  10.527  0.8233 -1.1537 -0.9409
 7997SOL     OW25997   1.544   9.451   1.409 -0.1081  0.3328  0.1239
 7997SOL    HW125998   1.536   9.544   1.390 -1.0005  0.3453  0.4828
 7997SOL    HW225999   1.520   9.407   1.327  2.2690  0.3984 -0.6785
 7998SOL     OW26000   6.697   1.421   1.220 -0.0757 -0.4601 -0.6369
 7998SOL    HW126001   6.692   1.413   1.315 -0.5992 -0.4008 -0.6538
 7998SOL    HW226002   6.625   1.481   1.198 -0.8271 -1.5304 -1.1943
 7999SOL     OW26003   6.653   3.567   3.810 -0.1159 -0.0645  0.2319
 7999SOL    HW126004   6.683   3.628   3.877  0.8058  1.3175 -1.3524
 7999SOL    HW226005   6.559   3.581   3.803  0.1909  1.8271 -0.6649
 8000SOL     OW26006  10.618   2.044   6.107  0.0737  0.2085  0.3649
 8000SOL    HW126007  10.640   2.109   6.174 -1.2521  0.2489  0.7857
 8000SOL    HW226008  10.618   1.961   6.155 -0.4067  0.1791  0.3141
 8001SOL     OW26009   6.598   6.003  10.457  0.1783 -0.1608  0.5940
 8001SOL    HW126010   6.573   5.990  10.549  1.8561  1.2258  1.3268
 8001SOL    HW226011   6.517   5.992  10.408 -1.2204  1.0578  2.4570
 8002SOL     OW26012   1.988   6.947   7.037 -0.6088  0.3643 -0.3727
 8002SOL    HW126013   1.899   6.979   7.023 -0.9029 -0.5145 -0.5326
 8002SOL    HW226014   2.005   6.889   6.963 -0.3123 -0.3447  0.2405
 8003SOL     OW26015   8.017   0.566   1.978 -0.0498  0.0623  0.1801
 8003SOL    HW126016   8.056   0.511   1.910  0.0315  0.0594  0.2294
 8003SOL    HW226017   7.989   0.644   1.931 -1.4124 -0.5952 -0.1378
 8004SOL     OW26018   0.257   9.016   6.625  0.1465  0.2290 -0.0977
 8004SOL    HW126019   0.176   8.991   6.581 -0.5609 -2.0166  2.2469
 8004SOL    HW226020   0.325   9.004   6.559 -0.9021 -2.4655 -0.8110
 8005SOL     OW26021  10.749  10.239   2.783 -0.2493  0.3350 -0.2814
 8005SOL    HW126022  10.778  10.329   2.773 -1.5595  0.7006 -1.0968
 8005SOL    HW226023  10.793  10.208   2.862 -0.6871  2.0767  0.6955
 8006SOL     OW26024   3.964   9.154   3.611 -0.1364  0.3896 -0.0455
 8006SOL    HW126025   3.947   9.144   3.517  2.0609 -0.4058 -0.4381
 8006SOL    HW226026   4.003   9.241   3.619 -0.2446  0.4237  0.0988
 8007SOL     OW26027   5.240   7.421   4.838 -0.3398 -0.1514 -0.5315
 8007SOL    HW126028   5.315   7.478   4.856 -0.2417 -0.2823 -0.5284
 8007SOL    HW226029   5.250   7.348   4.899 -0.5974 -0.0528 -0.3715
 8008SOL     OW26030   6.737   1.435   3.159 -0.5692 -0.8696 -0.4154
 8008SOL    HW126031   6.737   1.339   3.165  0.6587 -0.8452  0.3394
 8008SOL    HW226032   6.742   1.453   3.065 -0.0785 -1.5702 -0.5356
 8009SOL     OW26033   9.070   9.672  10.985 -0.2225  1.1772 -0.6429
 8009SOL    HW126034   8.987   9.711  10.956 -0.4084  1.4413  0.2172
 8009SOL    HW226035   9.115   9.743  11.030  0.1497  0.8313 -0.4702
 8010SOL     OW26036   7.208   4.884   7.072  0.1840 -0.0456 -0.5887
 8010SOL    HW126037   7.159   4.889   7.154 -1.8138 -2.2310 -1.5312
 8010SOL    HW226038   7.153   4.929   7.008  0.6357 -0.3105 -1.1775
 8011SOL     OW26039   3.913  10.263   1.806 -0.4854 -0.1183  0.9611
 8011SOL    HW126040   3.825  10.300   1.808 -0.2582  0.3923  1.6694
 8011SOL    HW226041   3.950  10.281   1.892  0.1840 -0.6581  0.8035
 8012SOL     OW26042   0.714   0.425   5.955 -0.4246  0.1565 -0.1912
 8012SOL    HW126043   0.721   0.508   5.907 -0.7132  0.7170  0.7047
 8012SOL    HW226044   0.705   0.359   5.887 -0.6976  0.9123 -0.9155
 8013SOL     OW26045   4.415   6.710   1.311 -0.5561 -0.3911  0.0422
 8013SOL    HW126046   4.338   6.761   1.287  0.8689  1.6425 -0.5209
 8013SOL    HW226047   4.457   6.688   1.228  0.6959  0.5955  0.3811
 8014SOL     OW26048  10.915   8.068  10.601  0.0256  0.6641 -0.1307
 8014SOL    HW126049  10.837   8.019  10.628  1.1417 -0.7806  0.5968
 8014SOL    HW226050  10.920   8.053  10.506 -0.9113  1.3048 -0.3012
 8015SOL     OW26051  10.109   8.792  10.453  0.3481  0.1074 -0.1801
 8015SOL    HW126052  10.042   8.852  10.419  0.0689 -0.5386 -0.7972
 8015SOL    HW226053  10.059   8.726  10.501  0.5991  0.0132 -0.0482
 8016SOL     OW26054   8.242   2.480   3.310  0.0451  0.2094 -0.6724
 8016SOL    HW126055   8.244   2.506   3.402  0.5525  1.7795 -1.0846
 8016SOL    HW226056   8.208   2.391   3.310  0.1035  0.1645  1.0346
 8017SOL     OW26057   7.088   0.359  10.906 -0.3285 -0.4884 -0.4139
 8017SOL    HW126058   7.031   0.380  10.980 -3.0603 -0.6752 -2.3147
 8017SOL    HW226059   7.139   0.284  10.936 -1.2086 -0.4412  1.3353
 8018SOL     OW26060   7.745   0.689   6.623 -0.3918  0.0953 -0.1622
 8018SOL    HW126061   7.650   0.689   6.622 -0.3957  0.2833 -1.6710
 8018SOL    HW226062   7.771   0.708   6.533  1.0724 -0.1980  0.1585
 8019SOL     OW26063   4.958   3.216  10.497 -0.1634  0.0956  0.1259
 8019SOL    HW126064   4.973   3.163  10.419 -2.5566 -1.3033  0.5333
 8019SOL    HW226065   5.042   3.259  10.513  1.2447 -1.8620 -1.4917
 8020SOL     OW26066   3.101  10.945   9.685 -0.0562  0.3704 -0.2448
 8020SOL    HW126067   3.007  10.957   9.673  0.1197  1.3156 -0.7363
 8020SOL    HW226068   3.108  10.883   9.758 -1.0385  2.2963  1.6004
 8021SOL     OW26069   5.059   3.116   5.211 -0.3466  0.2349  0.1560
 8021SOL    HW126070   5.020   3.090   5.295  0.6778 -1.0862  0.2536
 8021SOL    HW226071   5.053   3.038   5.156 -1.3630  1.2055 -1.1627
 8022SOL     OW26072   3.378   3.083   2.684  0.3354  0.1928  0.2973
 8022SOL    HW126073   3.398   3.176   2.684  0.3618  0.2047  1.2223
 8022SOL    HW226074   3.282   3.079   2.692  0.2659  0.1399 -0.5618
 8023SOL     OW26075   5.257   0.809   6.580 -0.8652  0.2453 -0.2055
 8023SOL    HW126076   5.343   0.800   6.620 -1.3844 -0.7459  0.7419
 8023SOL    HW226077   5.264   0.763   6.497 -1.5969 -3.7184  1.6910
 8024SOL     OW26078  11.016  10.410   8.577  0.0009  0.5944  0.7291
 8024SOL    HW126079  11.106  10.437   8.558  0.0274  1.4315  1.9332
 8024SOL    HW226080  11.022  10.363   8.660 -0.4647 -0.7468  0.0323
 8025SOL     OW26081   1.786   3.613   4.923 -0.0862 -0.1601  0.1218
 8025SOL    HW126082   1.738   3.556   4.864  0.1638 -1.0531  0.7520
 8025SOL    HW226083   1.792   3.697   4.878  1.2366 -1.1642 -1.7059
 8026SOL     OW26084   5.468   1.281   4.357  0.3260  0.2832  0.5683
 8026SOL    HW126085   5.502   1.306   4.271 -0.7622 -1.1142 -0.3150
 8026SOL    HW226086   5.516   1.202   4.380  0.2541  0.3703  1.0261
 8027SOL     OW26087   3.922   5.631   2.152  0.2577  0.7521  0.0306
 8027SOL    HW126088   4.002   5.603   2.108  0.1307  0.3466  0.0613
 8027SOL    HW226089   3.952   5.693   2.218  0.8713 -1.4913  1.9713
 8028SOL     OW26090   3.201   3.228   9.948  0.1701  0.1080  0.0002
 8028SOL    HW126091   3.206   3.135   9.925  0.2937 -0.3596  1.7625
 8028SOL    HW226092   3.122   3.259   9.904 -1.1082 -1.3991  1.1130
 8029SOL     OW26093   0.998   9.312   2.689 -0.2672 -0.5463  0.3018
 8029SOL    HW126094   1.072   9.297   2.748 -0.1696 -1.8022 -0.1200
 8029SOL    HW226095   1.037   9.350   2.610 -0.0173 -1.4704 -0.0306
 8030SOL     OW26096   3.577   6.320   0.180 -0.2466  0.1531  0.9269
 8030SOL    HW126097   3.588   6.233   0.217  1.1591  0.3320  0.9903
 8030SOL    HW226098   3.567   6.378   0.255  0.7824  0.2782  0.9886
 8031SOL     OW26099   8.246   6.977   9.545 -0.2120 -0.3623  0.0503
 8031SOL    HW126100   8.315   6.951   9.484  0.0431 -0.2849  0.3045
 8031SOL    HW226101   8.267   6.931   9.626  0.9368  1.5286  0.8878
 8032SOL     OW26102   2.189   5.134   1.023 -0.2573 -0.1186  0.4226
 8032SOL    HW126103   2.127   5.095   0.961  0.0145 -1.7808  1.1523
 8032SOL    HW226104   2.140   5.139   1.105 -0.7187  2.3556  0.0667
 8033SOL     OW26105   1.876   8.420   6.140 -0.0488  0.0211 -0.1832
 8033SOL    HW126106   1.788   8.458   6.130  0.2253  0.8002  0.3093
 8033SOL    HW226107   1.936   8.491   6.116  0.5400  0.6922  2.8898
 8034SOL     OW26108   3.698   8.648   7.994  0.1245 -0.1320  0.4982
 8034SOL    HW126109   3.603   8.648   7.988 -0.0080 -3.8532  0.1806
 8034SOL    HW226110   3.716   8.639   8.088  0.2720  1.6693  0.6784
 8035SOL     OW26111   4.863   7.300   7.838 -0.1580 -0.4562  0.5001
 8035SOL    HW126112   4.788   7.321   7.895  1.8272  0.6454  2.9043
 8035SOL    HW226113   4.926   7.257   7.896  0.9031 -1.8762 -1.5767
 8036SOL     OW26114   3.921   8.515   8.497 -0.1089  0.0383  0.2732
 8036SOL    HW126115   3.917   8.604   8.530  1.2441  0.4896 -0.6952
 8036SOL    HW226116   3.941   8.524   8.403  1.9905 -1.2694  0.5089
 8037SOL     OW26117   8.504   3.586   3.801 -0.5803  0.9573 -0.3432
 8037SOL    HW126118   8.572   3.617   3.741 -0.7700 -0.3235 -1.2398
 8037SOL    HW226119   8.424   3.629   3.770 -0.5413  0.8902 -0.5389
 8038SOL     OW26120   5.451   0.703  10.897  0.3581  0.1265 -0.1822
 8038SOL    HW126121   5.524   0.719  10.837 -0.2376  1.0701 -0.6900
 8038SOL    HW226122   5.488   0.717  10.984  0.9451 -0.0862 -0.3942
 8039SOL     OW26123  10.532   7.684   0.158 -0.1650  0.2657 -0.3365
 8039SOL    HW126124  10.542   7.592   0.131  0.6783 -0.4578  2.2159
 8039SOL    HW226125  10.621   7.716   0.168 -0.4177  0.5436  1.2942
 8040SOL     OW26126   2.903   1.552   3.755  0.3154  0.2276  0.3981
 8040SOL    HW126127   2.981   1.517   3.713  0.4882 -0.8423  1.5537
 8040SOL    HW226128   2.836   1.550   3.686  1.0017  0.0808 -0.2815
 8041SOL     OW26129  10.984   1.339   1.813 -0.0745  0.0493 -0.3792
 8041SOL    HW126130  11.045   1.407   1.784 -0.7100  0.3357 -1.0683
 8041SOL    HW226131  11.000   1.331   1.907  0.3711  0.7857 -0.3832
 8042SOL     OW26132   5.136   0.723   8.007 -0.6109  0.1913 -0.4127
 8042SOL    HW126133   5.104   0.812   7.994 -1.9258  0.0755  1.5256
 8042SOL    HW226134   5.213   0.716   7.951 -0.4248  2.5686 -0.5458
 8043SOL     OW26135   7.512   7.755   2.710 -0.6651 -0.4579 -0.0958
 8043SOL    HW126136   7.531   7.691   2.778 -1.1648  0.2112  0.6941
 8043SOL    HW226137   7.496   7.702   2.632  1.5503 -1.1731 -0.1434
 8044SOL     OW26138   3.127   3.307   1.984 -0.3202 -0.5826 -0.6264
 8044SOL    HW126139   3.201   3.315   2.044 -1.1090  0.7178  0.2248
 8044SOL    HW226140   3.149   3.231   1.929 -0.0938 -2.5972  2.0308
 8045SOL     OW26141   6.949  10.417   4.383 -0.2108 -0.4101 -0.8210
 8045SOL    HW126142   7.007  10.414   4.460  3.3221 -0.3863 -3.2400
 8045SOL    HW226143   6.972  10.499   4.339 -1.0486 -1.1341 -2.6935
 8046SOL     OW26144  11.004   3.032   3.636  0.4073 -0.2491  0.2219
 8046SOL    HW126145  11.016   3.115   3.590 -0.5581  0.1633  0.6955
 8046SOL    HW226146  11.079   3.025   3.694  0.8697 -0.0657 -0.3437
 8047SOL     OW26147   4.396   4.186   4.865 -0.4893 -0.1346  0.4236
 8047SOL    HW126148   4.444   4.250   4.812 -0.2512 -1.2828 -0.7952
 8047SOL    HW226149   4.304   4.213   4.856 -0.2228  1.2881  1.6875
 8048SOL     OW26150   2.498   3.903   6.785 -0.0619  0.5891  0.7019
 8048SOL    HW126151   2.419   3.955   6.799 -0.6732 -0.2459  0.4623
 8048SOL    HW226152   2.480   3.819   6.828  0.6151  0.3112  0.4678
 8049SOL     OW26153   2.396   0.278   6.206 -0.2121  0.5798 -0.4701
 8049SOL    HW126154   2.384   0.215   6.135  1.8351 -2.4206  1.5891
 8049SOL    HW226155   2.351   0.238   6.281  2.5995  0.5494  1.3601
 8050SOL     OW26156   6.746   2.111   6.231 -0.5597 -0.1104  0.0838
 8050SOL    HW126157   6.693   2.165   6.172 -1.2047  0.0474  0.7830
 8050SOL    HW226158   6.682   2.069   6.289  0.0484 -0.3468  0.6001
 8051SOL     OW26159   1.278   9.004   4.529 -0.0898 -0.4466 -0.0743
 8051SOL    HW126160   1.366   9.029   4.501 -0.1611 -1.1356 -0.9887
 8051SOL    HW226161   1.291   8.951   4.608  0.1610  1.0869  0.9455
 8052SOL     OW26162   5.502  10.820   0.246 -0.4384  0.1072  0.2373
 8052SOL    HW126163   5.584  10.774   0.228  0.1390  1.4033 -0.5885
 8052SOL    HW226164   5.447  10.802   0.170 -0.5875 -0.0487  0.3830
 8053SOL     OW26165   3.497   0.693   0.932  0.4431  0.2883  0.3297
 8053SOL    HW126166   3.582   0.666   0.897  0.9735  0.1349  1.7094
 8053SOL    HW226167   3.472   0.623   0.992  0.4562  1.4417  1.7227
 8054SOL     OW26168  10.159   3.196   3.965  0.1894  0.3320 -0.3109
 8054SOL    HW126169  10.094   3.265   3.949  0.8119  0.9536 -0.1847
 8054SOL    HW226170  10.241   3.243   3.977  0.2395 -0.2359  2.0617
 8055SOL     OW26171   6.125   3.216   5.664  0.0497 -0.0682 -0.2725
 8055SOL    HW126172   6.149   3.214   5.756 -2.1931 -1.5924  0.3499
 8055SOL    HW226173   6.050   3.274   5.660  1.6850  2.1298 -1.6608
 8056SOL     OW26174   5.305   0.287   5.601  0.3056  0.1974  0.0692
 8056SOL    HW126175   5.236   0.229   5.567  1.5704 -1.2010 -0.2227
 8056SOL    HW226176   5.385   0.235   5.595  1.1550  1.1933  1.8780
 8057SOL     OW26177   5.913   1.971   6.000 -0.8709 -0.3829 -0.0303
 8057SOL    HW126178   5.892   2.064   5.987 -2.3221 -0.8285 -1.1316
 8057SOL    HW226179   5.882   1.951   6.088 -0.4112  0.2049  0.2745
 8058SOL     OW26180   8.560   4.860   2.975  0.1505  0.0071 -0.2025
 8058SOL    HW126181   8.637   4.815   2.942  0.1531  0.6702 -1.1255
 8058SOL    HW226182   8.506   4.790   3.013  0.5846 -0.6484 -0.7685
 8059SOL     OW26183   9.799   6.123   1.109 -0.6303  0.8460 -0.1706
 8059SOL    HW126184   9.892   6.102   1.099 -0.0934  2.1652  1.5446
 8059SOL    HW226185   9.793   6.165   1.195 -3.0758 -0.5734  0.4553
 8060SOL     OW26186   3.565   3.993   7.092  0.3447  0.0892  0.0163
 8060SOL    HW126187   3.558   3.995   6.996  5.1642  1.6385 -0.5690
 8060SOL    HW226188   3.636   3.930   7.110  2.4501  2.8193  2.0976
 8061SOL     OW26189   5.705   1.250   0.770  0.7213  0.6253  0.5499
 8061SOL    HW126190   5.796   1.229   0.753 -0.0216 -1.3274 -1.5860
 8061SOL    HW226191   5.673   1.287   0.688 -0.4508  1.1778  1.2263
 8062SOL     OW26192   9.926  10.676   9.169 -0.4894 -0.4168 -0.3641
 8062SOL    HW126193   9.854  10.738   9.156  0.5822  0.4547 -2.9440
 8062SOL    HW226194   9.972  10.708   9.246 -0.4097  1.6351 -1.1952
 8063SOL     OW26195   9.922   6.097  10.115  0.2783  0.2087  0.1245
 8063SOL    HW126196   9.949   6.009  10.141 -1.0778  0.1927  1.6265
 8063SOL    HW226197   9.973   6.156  10.170  1.1362  0.3985 -0.8333
 8064SOL     OW26198   4.387   4.067   3.681 -0.4205  0.2942 -0.5178
 8064SOL    HW126199   4.310   4.124   3.678 -0.3051  0.4078 -1.5730
 8064SOL    HW226200   4.461   4.127   3.683 -0.3356  0.1833  0.4775
 8065SOL     OW26201  10.735   0.090   2.820 -0.2717  0.1384 -0.4560
 8065SOL    HW126202  10.673   0.045   2.877  0.2583  0.9306  0.8031
 8065SOL    HW226203  10.699   0.080   2.732 -0.7569 -1.7309 -0.0923
 8066SOL     OW26204   1.535   8.634  11.091  0.1693 -0.3351  0.1743
 8066SOL    HW126205   1.472   8.564  11.110 -0.6961  0.6389  1.0489
 8066SOL    HW226206   1.500   8.710  11.136  1.2486  0.6007 -0.5126
 8067SOL     OW26207   5.727   5.172   2.061 -0.2336  0.1110 -0.0467
 8067SOL    HW126208   5.764   5.229   2.127  0.8746 -1.8003  1.0591
 8067SOL    HW226209   5.635   5.162   2.086 -0.6643  1.9306 -0.7051
 8068SOL     OW26210   1.275   5.117   8.953  0.0574  0.9472 -0.1477
 8068SOL    HW126211   1.185   5.122   8.986  0.4050 -0.0307  0.9893
 8068SOL    HW226212   1.297   5.207   8.930 -1.8317  0.9976 -2.2076
 8069SOL     OW26213   3.555  10.879   5.419  0.5490 -0.1024 -0.5680
 8069SOL    HW126214   3.586  10.867   5.329 -1.3627  1.3899 -1.5106
 8069SOL    HW226215   3.462  10.901   5.409 -0.3203 -2.1959  1.9322
 8070SOL     OW26216   4.163   0.562   2.321  0.1455 -0.1699  0.0498
 8070SOL    HW126217   4.196   0.477   2.292 -1.3967 -0.6238 -0.4731
 8070SOL    HW226218   4.219   0.586   2.394  1.9126 -0.6589 -1.0891
 8071SOL     OW26219   3.864   4.678   7.997 -0.1199 -0.0162  0.3124
 8071SOL    HW126220   3.958   4.676   7.979 -0.3281  1.3129 -1.1683
 8071SOL    HW226221   3.823   4.645   7.916 -0.9330 -0.6529  0.9641
 8072SOL     OW26222   2.842   2.608   1.339  0.1144 -0.1265 -0.3983
 8072SOL    HW126223   2.802   2.576   1.420  2.4216  0.8835  1.2320
 8072SOL    HW226224   2.935   2.591   1.350  0.5294  0.2424 -2.8007
 8073SOL     OW26225   4.002  10.942   1.783 -0.4219  0.5373 -0.2173
 8073SOL    HW126226   3.928  10.937   1.722 -0.1496  0.0426 -0.5120
 8073SOL    HW226227   4.026  10.851   1.799  0.2752  0.7002 -0.3082
 8074SOL     OW26228   7.039   3.779   3.455 -0.3735 -0.6561  0.2882
 8074SOL    HW126229   6.991   3.860   3.443 -1.2693 -1.2871 -0.5684
 8074SOL    HW226230   7.024   3.730   3.374 -1.0077 -2.2660  1.3312
 8075SOL     OW26231   5.780   0.812   4.526 -0.7751 -0.1280  0.0078
 8075SOL    HW126232   5.706   0.754   4.541  0.1537 -1.1782  0.7663
 8075SOL    HW226233   5.825   0.816   4.611  0.4023 -0.0797 -0.5891
 8076SOL     OW26234   1.768   2.639  10.996 -0.3489  0.3439 -0.3148
 8076SOL    HW126235   1.838   2.670  11.054 -0.8851 -1.3098  1.2731
 8076SOL    HW226236   1.803   2.559  10.957 -0.4477  0.8229 -1.4331
 8077SOL     OW26237   8.727   1.766   3.997 -0.0822  0.1780  0.1201
 8077SOL    HW126238   8.818   1.781   4.022 -0.3309 -1.5078  2.3066
 8077SOL    HW226239   8.732   1.740   3.905  1.3927  2.0578 -0.3912
 8078SOL     OW26240   9.803   2.297   2.044 -0.4501  0.0030 -0.1147
 8078SOL    HW126241   9.894   2.299   2.014 -0.4273 -1.0111 -0.1480
 8078SOL    HW226242   9.791   2.379   2.092 -0.4070  1.5700 -2.6141
 8079SOL     OW26243   8.405  10.446   1.123  0.0961  0.6263 -0.0517
 8079SOL    HW126244   8.339  10.473   1.187  0.8622  0.5841  0.7727
 8079SOL    HW226245   8.361  10.456   1.038 -1.1671  0.0437  0.4993
 8080SOL     OW26246   1.856   4.438  11.006  0.0202 -0.0497  0.2486
 8080SOL    HW126247   1.856   4.530  11.033  0.4851  0.4326 -1.2533
 8080SOL    HW226248   1.838   4.442  10.911  0.1672 -1.5015  0.1470
 8081SOL     OW26249   0.152   0.829   2.852  0.2904  0.0365 -0.2175
 8081SOL    HW126250   0.110   0.765   2.910 -3.3095  0.8980 -1.6501
 8081SOL    HW226251   0.203   0.884   2.912 -0.5034 -1.1539  1.6778
 8082SOL     OW26252   4.017   7.353   5.133  0.5728 -0.4014  0.1879
 8082SOL    HW126253   4.017   7.279   5.073  0.9886  0.2896 -0.6760
 8082SOL    HW226254   3.990   7.428   5.080  2.0890  0.4537  0.5534
 8083SOL     OW26255   5.575   4.021   5.678  0.2724  0.1757  0.7596
 8083SOL    HW126256   5.566   4.039   5.771  0.5619  0.2207  0.7821
 8083SOL    HW226257   5.661   3.979   5.670  1.3441  2.2932  0.2379
 8084SOL     OW26258   1.330   0.471   3.898  0.1438 -0.4437 -0.2972
 8084SOL    HW126259   1.404   0.460   3.959  0.3039  0.8571 -0.2256
 8084SOL    HW226260   1.367   0.520   3.825 -0.9088  1.2655  0.2741
 8085SOL     OW26261   6.068   0.722   9.394 -0.6042 -0.0219  0.5934
 8085SOL    HW126262   6.038   0.807   9.359 -1.5221  0.5482  2.6070
 8085SOL    HW226263   5.988   0.682   9.428 -0.4060 -2.3007 -1.3744
 8086SOL     OW26264   0.791   1.090   5.042  0.0699  0.1197 -0.6327
 8086SOL    HW126265   0.723   1.024   5.052  0.9984 -0.9153 -0.9352
 8086SOL    HW226266   0.861   1.062   5.101  0.2462  1.1706 -0.3149
 8087SOL     OW26267   3.799   2.263   1.653  0.1481  0.2126 -0.0142
 8087SOL    HW126268   3.771   2.352   1.673  1.8576  0.4342  1.6545
 8087SOL    HW226269   3.891   2.272   1.628  0.3710 -1.1030  0.2641
 8088SOL     OW26270   0.548  10.034  10.430  0.1226 -0.1860  0.3141
 8088SOL    HW126271   0.621  10.076  10.386 -0.1708  0.0072  0.0022
 8088SOL    HW226272   0.543   9.946  10.392  1.1678 -0.7657  1.4599
 8089SOL     OW26273   2.190  10.896   4.624  0.4705  0.2700 -0.2197
 8089SOL    HW126274   2.099  10.866   4.631  0.6841 -0.3418  0.0176
 8089SOL    HW226275   2.183  10.986   4.593 -0.2882  0.7086  1.1065
 8090SOL     OW26276   8.183  10.167   3.207 -0.4403 -0.3506 -0.2502
 8090SOL    HW126277   8.264  10.218   3.216 -0.6902 -0.0171  0.1255
 8090SOL    HW226278   8.206  10.080   3.241  0.0457 -0.5673 -1.0807
 8091SOL     OW26279   6.076   2.035  10.289 -0.3394  0.0680  0.1526
 8091SOL    HW126280   6.074   1.943  10.315 -0.5906 -0.1465 -0.5848
 8091SOL    HW226281   5.998   2.074  10.330 -2.3651 -0.9050 -2.4319
 8092SOL     OW26282  10.678   7.161   7.000  0.1697 -0.3063  0.2351
 8092SOL    HW126283  10.665   7.156   6.906  0.3282 -0.5529  0.2258
 8092SOL    HW226284  10.751   7.222   7.012  0.1197 -0.2400  0.2012
 8093SOL     OW26285   6.685   1.869   9.250  0.3978 -0.4968  0.1006
 8093SOL    HW126286   6.649   1.878   9.338  1.7068 -0.4730  0.6614
 8093SOL    HW226287   6.658   1.781   9.222  1.5220 -1.2574  1.2875
 8094SOL     OW26288   7.389   7.640   2.464 -0.3960  0.9347  0.5531
 8094SOL    HW126289   7.359   7.604   2.380  1.4573 -1.9751  0.9955
 8094SOL    HW226290   7.384   7.566   2.525  2.2685  1.7537  1.9197
 8095SOL     OW26291   5.653   2.623   1.275  0.3270 -0.3505 -0.5349
 8095SOL    HW126292   5.708   2.581   1.341  0.9665  0.3308 -0.6243
 8095SOL    HW226293   5.612   2.696   1.321 -0.5051 -0.8317 -0.4772
 8096SOL     OW26294   6.093   2.509   5.056  0.1664  0.0572  0.0230
 8096SOL    HW126295   6.075   2.554   5.138  0.2730 -0.9893  0.6406
 8096SOL    HW226296   6.125   2.423   5.082 -0.3961 -0.5243 -1.1207
 8097SOL     OW26297   2.974   2.483   5.505 -0.0047 -0.5458  0.3273
 8097SOL    HW126298   2.962   2.402   5.456  0.9399 -1.0287  0.8699
 8097SOL    HW226299   2.961   2.458   5.597 -4.0616  0.7478  0.3374
 8098SOL     OW26300   0.787   8.097   7.943  0.0528 -0.1033  0.3354
 8098SOL    HW126301   0.731   8.023   7.918  0.1544 -0.2108  0.4222
 8098SOL    HW226302   0.827   8.125   7.861  0.1202 -0.2342  0.3217
 8099SOL     OW26303   0.729   7.602   3.948  0.0808  0.0540  0.7824
 8099SOL    HW126304   0.729   7.652   4.030  1.2384  0.5947  0.4698
 8099SOL    HW226305   0.809   7.630   3.903 -1.0738  0.5658 -1.0288
 8100SOL     OW26306   6.157   2.150   2.266 -0.2356 -0.1335  0.8414
 8100SOL    HW126307   6.221   2.086   2.296  1.3452  1.2015  0.4745
 8100SOL    HW226308   6.127   2.117   2.181  1.1863 -0.0232  0.2634
 8101SOL     OW26309   4.519   0.365   6.098 -0.3147  0.4367 -0.3854
 8101SOL    HW126310   4.517   0.330   6.187  0.5361 -0.0541 -0.5427
 8101SOL    HW226311   4.488   0.294   6.043  0.0054  0.4270 -0.5603
 8102SOL     OW26312   2.746   6.581   5.300  0.5747 -0.4704 -0.1648
 8102SOL    HW126313   2.824   6.551   5.255  0.9393 -0.5003  0.4833
 8102SOL    HW226314   2.756   6.676   5.305  0.7502 -0.5086  0.2462
 8103SOL     OW26315   0.407   3.403   7.745  0.4827  0.1818 -0.2405
 8103SOL    HW126316   0.373   3.417   7.657 -1.3297 -1.7672  0.0608
 8103SOL    HW226317   0.394   3.487   7.790  1.6785  1.2764 -1.8599
 8104SOL     OW26318   3.866   3.124   2.213 -0.1393 -0.3164  0.0844
 8104SOL    HW126319   3.781   3.163   2.193 -0.3278 -0.2240  1.0141
 8104SOL    HW226320   3.908   3.188   2.272  0.7421 -0.1666 -0.6831
 8105SOL     OW26321   5.701  10.679   5.944 -0.0242 -0.3137  0.4634
 8105SOL    HW126322   5.715  10.738   5.870  0.9825 -0.7471  0.2907
 8105SOL    HW226323   5.789  10.654   5.972 -0.3981 -0.4016  1.6197
 8106SOL     OW26324  10.977   2.867   0.709  0.2371 -0.6272  0.1409
 8106SOL    HW126325  11.013   2.934   0.651  0.3213 -1.8716 -1.3120
 8106SOL    HW226326  11.053   2.816   0.736  0.4012  0.7293  2.5158
 8107SOL     OW26327   4.804   8.200   8.384 -0.4324  0.2084  0.2038
 8107SOL    HW126328   4.796   8.282   8.433 -0.2975 -0.4447  1.3517
 8107SOL    HW226329   4.714   8.168   8.376 -0.3788 -0.0973  0.7683
 8108SOL     OW26330   6.155   1.596   2.693  0.0355 -0.2405  0.0449
 8108SOL    HW126331   6.205   1.587   2.774  0.8019  2.2569 -0.0704
 8108SOL    HW226332   6.064   1.604   2.721 -0.3305 -3.7583  0.3152
 8109SOL     OW26333   1.788   8.248   4.423  0.0085 -0.1943 -0.0107
 8109SOL    HW126334   1.792   8.288   4.510 -0.1774 -0.2492  0.0234
 8109SOL    HW226335   1.859   8.184   4.423  0.0558 -0.1434  0.0743
 8110SOL     OW26336   5.837   1.220   6.734 -0.5610  0.2653  0.1514
 8110SOL    HW126337   5.890   1.290   6.771  0.6989  0.2954 -1.5876
 8110SOL    HW226338   5.814   1.251   6.646 -1.2783 -0.8450 -0.0771
 8111SOL     OW26339   0.642   7.694   2.815  0.0754 -0.0082  0.4423
 8111SOL    HW126340   0.714   7.631   2.812 -0.0846 -0.4191  2.8678
 8111SOL    HW226341   0.666   7.754   2.886 -1.8750 -0.0300  1.1776
 8112SOL     OW26342   1.976   7.868   4.006  0.3488  0.0196 -0.0189
 8112SOL    HW126343   1.916   7.918   4.061 -0.3590 -1.7711  0.9162
 8112SOL    HW226344   2.055   7.858   4.059  0.4907  0.1506 -0.2040
 8113SOL     OW26345   8.198   6.762   8.337 -0.2117  1.1583 -0.1270
 8113SOL    HW126346   8.238   6.681   8.366  0.3075  1.8293  1.0882
 8113SOL    HW226347   8.261   6.830   8.360 -0.9428  1.9822 -0.4903
 8114SOL     OW26348   1.248   2.225   3.197 -0.1374  0.0061  0.0663
 8114SOL    HW126349   1.294   2.252   3.277 -1.2664  0.5368  0.5637
 8114SOL    HW226350   1.313   2.232   3.128  0.8285 -0.3254  0.9138
 8115SOL     OW26351   5.432   1.718   4.603 -0.0740 -0.2756  0.3322
 8115SOL    HW126352   5.439   1.624   4.592 -1.5611 -0.5394  1.2509
 8115SOL    HW226353   5.449   1.755   4.516  0.9689 -1.3376  0.0646
 8116SOL     OW26354   2.622   0.188   3.435  0.0043  0.2768 -0.7987
 8116SOL    HW126355   2.636   0.123   3.505  0.8820  0.9752 -0.3010
 8116SOL    HW226356   2.581   0.138   3.364 -0.6775 -0.5070  0.1132
 8117SOL     OW26357   1.186   2.165   9.817 -0.0089 -0.1410  0.2433
 8117SOL    HW126358   1.220   2.220   9.746  0.5172 -0.2259  0.4239
 8117SOL    HW226359   1.260   2.156   9.877 -0.3337 -0.3966  0.6070
 8118SOL     OW26360   1.993   7.594   1.115  0.2849  0.2160  0.1111
 8118SOL    HW126361   2.045   7.630   1.044  0.3791  1.8779  0.9561
 8118SOL    HW226362   1.910   7.569   1.074 -0.5527  3.2420 -0.3056
 8119SOL     OW26363   5.854   4.268   2.317 -0.3919 -0.2108 -0.1175
 8119SOL    HW126364   5.902   4.194   2.278 -0.3968  1.1549 -2.9969
 8119SOL    HW226365   5.855   4.250   2.411  1.9231 -2.4838 -0.4436
 8120SOL     OW26366  11.009   7.216   3.511 -0.2859 -0.4973 -0.2082
 8120SOL    HW126367  10.980   7.125   3.501 -2.1323 -0.0222  0.3392
 8120SOL    HW226368  11.043   7.221   3.600 -0.8565 -0.5007  0.0150
 8121SOL     OW26369   7.494   6.980   3.544 -0.3927 -0.0754 -0.0189
 8121SOL    HW126370   7.562   7.005   3.482 -0.2342  1.1322  0.6198
 8121SOL    HW226371   7.507   6.886   3.557  2.9201  0.5540  2.1263
 8122SOL     OW26372   4.409  10.911   5.641 -0.1890 -0.0456 -0.5019
 8122SOL    HW126373   4.446  10.823   5.646 -0.7370 -0.2236  0.5743
 8122SOL    HW226374   4.315  10.896   5.629 -0.6081  0.3430  1.8453
 8123SOL     OW26375   9.841   1.163   6.404 -0.3930 -0.9814 -0.1119
 8123SOL    HW126376   9.745   1.165   6.403 -0.3847 -0.6523 -0.2728
 8123SOL    HW226377   9.863   1.108   6.479 -0.7112 -1.2670 -0.2234
 8124SOL     OW26378   1.120   7.697   5.184  0.3483 -0.1558  0.1221
 8124SOL    HW126379   1.053   7.730   5.244  1.8691 -0.1308  1.8780
 8124SOL    HW226380   1.096   7.606   5.169  0.3810 -0.3804  1.4024
 8125SOL     OW26381   3.177   0.311   7.451  0.7615  0.4101  0.2590
 8125SOL    HW126382   3.084   0.327   7.436  0.6065  1.9126  2.3757
 8125SOL    HW226383   3.220   0.388   7.412  1.2750 -0.8415 -1.7686
 8126SOL     OW26384   1.399   0.839  11.075  0.9430 -0.3440 -0.0660
 8126SOL    HW126385   1.360   0.833  11.162  2.3433  0.9682  0.6986
 8126SOL    HW226386   1.389   0.752  11.037  0.4579 -0.9741  1.4755
 8127SOL     OW26387   4.504   1.922   4.729 -0.2369 -0.7926 -0.6403
 8127SOL    HW126388   4.412   1.934   4.752 -0.4261 -1.1389 -1.1997
 8127SOL    HW226389   4.518   1.828   4.739  0.1310 -0.7000 -0.2860
 8128SOL     OW26390   1.846   0.932   3.958  0.3432  0.2683  0.9107
 8128SOL    HW126391   1.923   0.988   3.953  0.1286  0.4791 -1.0827
 8128SOL    HW226392   1.880   0.842   3.954  0.5051  0.3602  0.0650
 8129SOL     OW26393   1.147   1.963   8.069  0.3381 -0.6243  0.2101
 8129SOL    HW126394   1.122   2.042   8.021  0.9769 -0.4925  0.0827
 8129SOL    HW226395   1.101   1.970   8.153  0.1397 -0.2790  0.0756
 8130SOL     OW26396   2.187   0.091   2.866  0.7207 -0.0622  0.1850
 8130SOL    HW126397   2.191   0.187   2.865  0.1248 -0.0319  0.4549
 8130SOL    HW226398   2.203   0.066   2.774  3.0914  0.1760  0.4655
 8131SOL     OW26399   1.013   1.642   7.992  0.2930  0.2678  0.4499
 8131SOL    HW126400   1.081   1.703   7.963  0.4908  1.1255  2.5651
 8131SOL    HW226401   0.931   1.684   7.968  0.4192  1.5584  2.0763
 8132SOL     OW26402   4.122   9.023   5.150  0.2402  0.9127  0.0588
 8132SOL    HW126403   4.155   9.007   5.238  0.4715 -1.3002 -0.3629
 8132SOL    HW226404   4.039   8.975   5.146 -0.2831  1.8170 -0.6371
 8133SOL     OW26405  10.587   2.794   1.991  0.2438  0.1904 -0.2708
 8133SOL    HW126406  10.493   2.797   2.008  0.6040  1.3316  1.8045
 8133SOL    HW226407  10.619   2.880   2.015  1.8565 -0.2170 -0.8323
 8134SOL     OW26408   8.243   2.450  10.223 -0.3491  0.3699  0.2396
 8134SOL    HW126409   8.307   2.390  10.186  0.5141  0.2326  1.8595
 8134SOL    HW226410   8.258   2.533  10.176  0.7896  0.2418  0.3381
 8135SOL     OW26411   2.051   8.085   2.391 -0.3438 -0.4397 -0.3374
 8135SOL    HW126412   2.089   7.999   2.379 -1.4016 -0.8574 -0.7995
 8135SOL    HW226413   2.074   8.134   2.312  1.0441  0.0242  0.3261
 8136SOL     OW26414   1.269   2.141   3.550  0.5516 -0.2361 -0.5713
 8136SOL    HW126415   1.312   2.216   3.508  0.8858  0.4379  0.9100
 8136SOL    HW226416   1.224   2.178   3.625 -2.4986 -0.9712 -1.9068
 8137SOL     OW26417   7.450   6.553   6.391 -0.7274  0.3040  0.2708
 8137SOL    HW126418   7.522   6.596   6.344 -1.7173  0.7431 -0.9174
 8137SOL    HW226419   7.492   6.504   6.461  0.9083 -0.7840 -1.3709
 8138SOL     OW26420   4.281   5.545   9.416 -0.1849  0.4051  0.1325
 8138SOL    HW126421   4.211   5.562   9.353 -0.3111  1.4055  0.5233
 8138SOL    HW226422   4.236   5.534   9.500  0.0526  0.0214  0.2117
 8139SOL     OW26423   1.886   5.799   1.159  0.4604 -0.0277  0.5269
 8139SOL    HW126424   1.963   5.846   1.129  0.7314  0.6119  2.1106
 8139SOL    HW226425   1.873   5.829   1.249 -1.1285 -0.7688  0.5868
 8140SOL     OW26426  10.944   0.727  10.329  0.6887 -0.3440  0.2904
 8140SOL    HW126427  10.965   0.757  10.417 -1.0772 -0.0697  0.6487
 8140SOL    HW226428  10.923   0.807  10.280  0.7767 -0.5743 -0.1362
 8141SOL     OW26429   8.731   6.541   4.661 -0.2733  0.0573  0.4914
 8141SOL    HW126430   8.817   6.550   4.619 -0.8258  2.4572 -0.2911
 8141SOL    HW226431   8.748   6.485   4.737  1.9329  0.2417  0.2230
 8142SOL     OW26432   0.332   2.749   2.239 -0.1486 -0.5912 -0.5973
 8142SOL    HW126433   0.271   2.741   2.166 -0.7546 -4.3292  0.0758
 8142SOL    HW226434   0.289   2.809   2.300 -1.3957 -0.2975 -1.7093
 8143SOL     OW26435   1.259   0.643   3.240  0.1913 -0.5395 -0.0680
 8143SOL    HW126436   1.278   0.584   3.168 -0.6790 -0.0567 -0.7200
 8143SOL    HW226437   1.166   0.628   3.260 -1.3812  3.4028 -3.0553
 8144SOL     OW26438   2.546   7.339   6.127  0.7396  0.6769  0.3802
 8144SOL    HW126439   2.468   7.295   6.093 -0.7750  2.0135  1.9228
 8144SOL    HW226440   2.609   7.338   6.054 -0.0172 -2.0046 -0.3394
 8145SOL     OW26441   4.682   0.373   3.639  0.0488  0.1878  0.0198
 8145SOL    HW126442   4.770   0.339   3.653 -0.2090 -0.7030 -0.4702
 8145SOL    HW226443   4.659   0.415   3.722  0.1652 -1.3541  0.8791
 8146SOL     OW26444   9.057  10.813   9.091  0.8908 -0.0482  0.4834
 8146SOL    HW126445   9.148  10.794   9.115  0.8792 -0.6533  0.0741
 8146SOL    HW226446   9.004  10.760   9.151  0.8300 -0.4122  0.1110
 8147SOL     OW26447   6.183   8.507   6.941  0.1665 -0.3096  0.1887
 8147SOL    HW126448   6.171   8.465   6.856 -0.4595 -0.1466  0.1930
 8147SOL    HW226449   6.132   8.454   7.002  1.2349 -0.8735  0.6060
 8148SOL     OW26450   5.966   3.289   7.427 -0.2283  0.5640 -0.5035
 8148SOL    HW126451   6.011   3.210   7.457  0.6669  0.7607 -1.2769
 8148SOL    HW226452   5.873   3.266   7.430 -0.2412  0.6515  2.5806
 8149SOL     OW26453   1.718   6.388   9.310  0.5257 -0.8214  0.1920
 8149SOL    HW126454   1.710   6.480   9.287  0.0468 -0.7269  0.7314
 8149SOL    HW226455   1.628   6.357   9.319  0.6895 -0.8185  2.0941
 8150SOL     OW26456   0.523   9.195   5.120  0.4466  0.0711 -0.2852
 8150SOL    HW126457   0.509   9.148   5.202 -2.6200 -1.3668 -1.4576
 8150SOL    HW226458   0.447   9.254   5.114  1.2255  0.9881 -1.5769
 8151SOL     OW26459   1.970   3.299   2.789 -0.5353 -0.4757  0.3956
 8151SOL    HW126460   1.985   3.380   2.741 -1.4624 -1.3538 -1.4466
 8151SOL    HW226461   1.960   3.327   2.880  0.9159  1.2617  0.0751
 8152SOL     OW26462   4.891  10.455   8.643 -0.0137  0.2627 -0.7978
 8152SOL    HW126463   4.870  10.392   8.712  0.9561  0.8299  0.0302
 8152SOL    HW226464   4.819  10.519   8.646 -0.0328  0.2261 -0.3828
 8153SOL     OW26465   1.265   0.186   2.538 -0.0563  0.5605  0.2599
 8153SOL    HW126466   1.202   0.135   2.588  0.0492  0.1405 -0.0280
 8153SOL    HW226467   1.218   0.266   2.513 -1.3091 -0.7758 -2.0284
 8154SOL     OW26468   5.395   1.959   6.436  0.1337  0.0012 -0.2021
 8154SOL    HW126469   5.349   2.042   6.448 -0.5981 -0.4305 -0.0327
 8154SOL    HW226470   5.459   1.956   6.507  2.3444  1.8522 -1.9274
 8155SOL     OW26471   0.197   0.976   6.795 -0.3508  0.0769  0.3584
 8155SOL    HW126472   0.152   1.041   6.742  0.9639  1.1050  0.4654
 8155SOL    HW226473   0.244   0.921   6.732  1.2473  1.3250  0.3981
 8156SOL     OW26474   2.886   0.736   1.562 -0.4842 -0.2256 -0.3255
 8156SOL    HW126475   2.947   0.775   1.499 -0.7809  0.4114 -0.2234
 8156SOL    HW226476   2.862   0.809   1.620  1.0652 -1.1315  1.5600
 8157SOL     OW26477   3.253   3.607   6.845 -0.0595 -0.3516  0.7710
 8157SOL    HW126478   3.159   3.592   6.838 -0.0439 -1.1875  2.1301
 8157SOL    HW226479   3.275   3.584   6.935  1.8893 -2.7834 -0.2174
 8158SOL     OW26480  10.675   4.333   3.531  0.1659  0.5109 -0.5316
 8158SOL    HW126481  10.761   4.330   3.574 -0.3249 -0.4954  0.4311
 8158SOL    HW226482  10.693   4.303   3.442  0.9503  1.1638 -0.6119
 8159SOL     OW26483   0.570   8.378   4.226 -0.0233  0.2356 -0.3161
 8159SOL    HW126484   0.664   8.388   4.239 -0.0976  0.0809  0.3688
 8159SOL    HW226485   0.561   8.311   4.158  0.3347 -0.6658  0.5152
 8160SOL     OW26486   8.002   7.572   8.392  0.5386 -0.0403  0.1511
 8160SOL    HW126487   7.937   7.516   8.434 -0.0291  0.6617  0.2380
 8160SOL    HW226488   8.086   7.540   8.423  0.1377  0.3868  1.7382
 8161SOL     OW26489   4.755   7.766  10.004  0.0378  0.4314  0.5587
 8161SOL    HW126490   4.679   7.708  10.000  0.6172 -0.3548  0.5182
 8161SOL    HW226491   4.813   7.725  10.069  1.1631  0.0626 -0.6290
 8162SOL     OW26492   2.716   9.649   4.658  0.2994  0.0474  0.1401
 8162SOL    HW126493   2.657   9.651   4.583 -1.1461  0.4266  1.2494
 8162SOL    HW226494   2.701   9.563   4.697  0.1897  0.2997  0.6522
 8163SOL     OW26495  10.805   0.376   2.868  0.0431 -0.0755  0.4357
 8163SOL    HW126496  10.811   0.289   2.828  0.1065  0.4376 -0.7100
 8163SOL    HW226497  10.711   0.394   2.870 -0.0738 -0.6680  1.8429
 8164SOL     OW26498   3.228   5.569   6.472 -0.0515 -0.3893 -0.0777
 8164SOL    HW126499   3.170   5.498   6.499  0.5233 -1.8817 -2.3879
 8164SOL    HW226500   3.170   5.639   6.443 -0.6417 -0.3884  1.0600
 8165SOL     OW26501   9.645   0.417   7.894  0.2096 -0.2117  0.8277
 8165SOL    HW126502   9.627   0.508   7.873 -0.6271 -0.4130  0.6186
 8165SOL    HW226503   9.670   0.418   7.986 -0.2359  0.1725  0.9453
 8166SOL     OW26504   4.456   1.553   8.201 -0.5488 -0.1760 -0.0653
 8166SOL    HW126505   4.493   1.605   8.130  0.3054  0.3714  0.7627
 8166SOL    HW226506   4.522   1.485   8.217  0.3863  1.0828  1.7332
 8167SOL     OW26507   8.827   4.453  10.887 -0.1744 -0.0753 -0.4504
 8167SOL    HW126508   8.762   4.516  10.855 -0.1093  0.1808 -0.0796
 8167SOL    HW226509   8.775   4.385  10.930 -0.1232  1.0008  1.3888
 8168SOL     OW26510   5.497   3.489   8.587  0.1182 -0.2138  0.5500
 8168SOL    HW126511   5.581   3.530   8.567 -0.1633 -1.0791 -2.9630
 8168SOL    HW226512   5.437   3.563   8.598  0.8283  0.3791  0.5647
 8169SOL     OW26513   3.639   7.292   9.460 -0.0360  0.3430  0.2645
 8169SOL    HW126514   3.592   7.372   9.482  0.2270  0.5531  0.0736
 8169SOL    HW226515   3.574   7.222   9.469 -0.6700  0.7368 -1.0152
 8170SOL     OW26516   2.814   8.814   2.859  0.1075 -0.1680  0.2121
 8170SOL    HW126517   2.791   8.747   2.923  2.0124  1.1081  2.3934
 8170SOL    HW226518   2.897   8.849   2.890 -0.2357  2.4124 -1.4722
 8171SOL     OW26519   9.240   7.301   1.241 -0.0146 -0.3420  0.0884
 8171SOL    HW126520   9.332   7.322   1.255  0.0374 -1.1461  1.0386
 8171SOL    HW226521   9.212   7.258   1.322 -1.3772  0.3783  0.0356
 8172SOL     OW26522   5.428   0.867   4.139 -0.5542  0.3018  0.3890
 8172SOL    HW126523   5.477   0.889   4.218 -1.3165  0.3161  0.8695
 8172SOL    HW226524   5.380   0.787   4.161 -0.8657  0.3705 -0.0127
 8173SOL     OW26525   7.830  10.342   8.460 -0.0131 -0.3279 -0.0664
 8173SOL    HW126526   7.808  10.433   8.443 -1.3918 -0.8621 -1.3758
 8173SOL    HW226527   7.873  10.312   8.380 -0.8484 -1.1817 -0.2190
 8174SOL     OW26528   4.171   6.694   1.917 -0.2458 -0.1768  0.1688
 8174SOL    HW126529   4.236   6.645   1.967 -0.9403 -0.4214  0.8577
 8174SOL    HW226530   4.148   6.768   1.973 -2.4749 -1.5029  1.1649
 8175SOL     OW26531   3.016   0.555   9.977  0.2772  0.1258 -0.3210
 8175SOL    HW126532   3.062   0.473   9.956  1.6327  0.7916 -0.1049
 8175SOL    HW226533   2.923   0.532   9.976  0.6196 -1.3503 -0.5250
 8176SOL     OW26534  10.494   3.266   2.457 -0.4159 -0.3578 -0.1516
 8176SOL    HW126535  10.431   3.207   2.500  1.8938 -1.8602  1.3834
 8176SOL    HW226536  10.502   3.340   2.517 -1.1426  0.1653 -0.6724
 8177SOL     OW26537   2.292   6.081   8.005  0.0646 -0.4510 -0.2614
 8177SOL    HW126538   2.279   6.113   7.916 -0.2787 -3.0728 -1.2401
 8177SOL    HW226539   2.217   6.115   8.054 -0.5045 -0.1404 -1.3216
 8178SOL     OW26540   1.412   3.304   3.549  0.0839 -0.4985 -0.3648
 8178SOL    HW126541   1.439   3.250   3.624  0.6552  0.3118  0.0292
 8178SOL    HW226542   1.327   3.340   3.575  0.3387 -0.1183 -0.0416
 8179SOL     OW26543   1.223   1.866   3.522 -0.4455  0.5452 -0.3560
 8179SOL    HW126544   1.254   1.951   3.553 -0.3122  0.5002 -0.3666
 8179SOL    HW226545   1.265   1.853   3.437  0.5550 -0.1104  0.2191
 8180SOL     OW26546   9.186   1.177   6.522  0.1320  0.0208 -0.1280
 8180SOL    HW126547   9.245   1.105   6.503  0.3599  0.1364  0.1424
 8180SOL    HW226548   9.117   1.138   6.575 -0.6605 -0.3672 -1.3978
 8181SOL     OW26549   6.464   1.176   0.141  0.1807  0.0994  0.3957
 8181SOL    HW126550   6.480   1.171   0.047  1.2513  0.2866  0.5498
 8181SOL    HW226551   6.484   1.089   0.174  0.9842  0.3540  0.6036
 8182SOL     OW26552   8.312   8.727   0.100  0.5918  0.0841  0.0876
 8182SOL    HW126553   8.273   8.755   0.183  1.4606  0.7355  0.2940
 8182SOL    HW226554   8.406   8.740   0.112  0.8227 -0.7830 -0.6441
 8183SOL     OW26555   1.948   0.755   2.895 -0.1502  0.1060  0.0760
 8183SOL    HW126556   1.931   0.736   2.803 -0.4832  0.7971 -0.0139
 8183SOL    HW226557   2.037   0.791   2.895 -0.5382  1.1103 -0.1362
 8184SOL     OW26558   6.142  10.856   7.729  0.2554 -0.2730 -0.4753
 8184SOL    HW126559   6.222  10.826   7.773  1.3849  0.8484 -1.6730
 8184SOL    HW226560   6.174  10.904   7.653 -1.5043  1.6780 -0.0615
 8185SOL     OW26561   7.799   1.547   3.797 -0.0574 -0.2384 -0.1759
 8185SOL    HW126562   7.759   1.615   3.743  0.9446 -0.0432 -0.6960
 8185SOL    HW226563   7.772   1.465   3.755 -2.7925 -0.3428  1.4807
 8186SOL     OW26564   6.716   5.514   9.581 -0.3223 -0.3839 -0.3390
 8186SOL    HW126565   6.660   5.534   9.656  0.6665 -0.0384  0.3299
 8186SOL    HW226566   6.778   5.449   9.614  1.5924  1.4363 -0.1147
 8187SOL     OW26567   8.225   8.361   4.159 -0.0682  0.2625 -0.3858
 8187SOL    HW126568   8.137   8.376   4.193 -0.4520 -1.4971 -0.4819
 8187SOL    HW226569   8.221   8.273   4.121  1.2489  0.8454 -2.0161
 8188SOL     OW26570   9.870   9.684   4.994  0.6516  0.0412 -0.5412
 8188SOL    HW126571   9.785   9.720   5.022  0.9150  1.3480 -1.3294
 8188SOL    HW226572   9.934   9.749   5.022  1.2595 -0.3002 -1.1219
 8189SOL     OW26573   2.821   1.829   2.831 -0.6813  0.3776  0.0350
 8189SOL    HW126574   2.843   1.742   2.797  0.7740  0.7673 -0.0718
 8189SOL    HW226575   2.795   1.879   2.753 -1.0320  0.1910  0.0296
 8190SOL     OW26576   2.180   3.943   0.134  0.1914 -0.2622  0.2494
 8190SOL    HW126577   2.131   3.934   0.216  0.3523  0.2954  0.4110
 8190SOL    HW226578   2.143   4.020   0.092 -1.2911 -1.6691 -1.2049
 8191SOL     OW26579   7.510   2.509   4.827 -0.4486  0.7195  0.0532
 8191SOL    HW126580   7.536   2.599   4.845 -0.9750  0.5597  1.7951
 8191SOL    HW226581   7.415   2.510   4.826 -0.4621  0.1827  0.1461
 8192SOL     OW26582   1.313   4.549   0.991  0.0905 -0.4928  0.4094
 8192SOL    HW126583   1.246   4.585   1.049 -0.2948  0.6977 -0.7379
 8192SOL    HW226584   1.335   4.621   0.931  2.1448 -0.9430  0.5206
 8193SOL     OW26585   0.013   7.707  10.814  0.1018 -0.0720 -0.1578
 8193SOL    HW126586  -0.029   7.793  10.816 -0.1595 -0.2027  0.0053
 8193SOL    HW226587   0.097   7.720  10.858 -0.3308 -0.1078  0.7005
 8194SOL     OW26588   3.474   8.618   5.044  0.3898  0.2345  0.1191
 8194SOL    HW126589   3.414   8.689   5.067 -0.4904 -0.2511 -0.5764
 8194SOL    HW226590   3.419   8.540   5.043  0.9700 -0.1877 -0.8068
 8195SOL     OW26591   1.318   0.400   3.053 -0.2472 -0.1952 -0.2702
 8195SOL    HW126592   1.352   0.338   3.118 -0.3678  0.0186 -0.0024
 8195SOL    HW226593   1.324   0.353   2.970 -2.8067 -1.5893  0.2405
 8196SOL     OW26594   3.220   1.620   3.298  0.2580 -0.1592 -0.2786
 8196SOL    HW126595   3.313   1.629   3.278  0.2848  0.7256  0.1614
 8196SOL    HW226596   3.210   1.661   3.384 -0.3894 -1.0445  0.0874
 8197SOL     OW26597   7.844   6.423   7.774  0.3449 -0.4611 -0.1878
 8197SOL    HW126598   7.782   6.403   7.704 -0.3267  0.7170  0.0364
 8197SOL    HW226599   7.927   6.387   7.744 -0.1434 -0.8417 -1.1292
 8198SOL     OW26600   5.421   1.792   5.314  0.7506 -0.2434 -0.3356
 8198SOL    HW126601   5.487   1.772   5.380  0.9159  1.9803  0.2408
 8198SOL    HW226602   5.463   1.854   5.255 -0.6606  0.8637 -0.2191
 8199SOL     OW26603  10.383   2.461   3.119  0.8249  0.2266  0.3476
 8199SOL    HW126604  10.475   2.438   3.137  0.6374 -0.5170  0.3859
 8199SOL    HW226605  10.359   2.520   3.190  1.1522  0.0862  0.5807
 8200SOL     OW26606   9.563   5.233   7.238 -0.0240  0.3526  0.5277
 8200SOL    HW126607   9.552   5.144   7.206  2.7546  0.0524  0.1264
 8200SOL    HW226608   9.553   5.226   7.333 -0.4974 -0.2543  0.4383
 8201SOL     OW26609   0.092   1.568   3.730  0.1362 -0.1487 -0.3927
 8201SOL    HW126610   0.048   1.642   3.690 -1.2740 -0.9377 -0.3825
 8201SOL    HW226611   0.186   1.588   3.724 -0.1957  1.2638 -1.0434
 8202SOL     OW26612   0.175  11.057   8.724  0.4416  0.0365  0.1462
 8202SOL    HW126613   0.170  10.963   8.710 -1.7702 -0.1148  1.4600
 8202SOL    HW226614   0.205  11.066   8.815  1.1489  0.6199 -0.1342
 8203SOL     OW26615   4.868   6.350  10.151  0.3300 -0.2603  0.1258
 8203SOL    HW126616   4.781   6.321  10.123  0.4624  0.2744 -0.9191
 8203SOL    HW226617   4.868   6.444  10.132  0.3480  0.2128  2.2610
 8204SOL     OW26618   5.015   7.543   1.750 -0.0105  0.0462  0.4092
 8204SOL    HW126619   4.964   7.472   1.788  0.1897 -0.7874 -0.8037
 8204SOL    HW226620   5.089   7.554   1.809  0.7244 -1.7501 -0.1087
 8205SOL     OW26621   5.797   3.005   4.123 -0.2484 -0.2488  0.0247
 8205SOL    HW126622   5.817   3.031   4.213  0.9962  0.9721 -0.5620
 8205SOL    HW226623   5.827   3.079   4.069 -1.6767 -0.5996 -1.3533
 8206SOL     OW26624   1.611   0.888   7.690 -0.6564 -0.0594  0.5673
 8206SOL    HW126625   1.576   0.944   7.621 -0.2595 -1.8125 -1.1645
 8206SOL    HW226626   1.704   0.877   7.667 -1.2729 -3.6445 -0.9350
 8207SOL     OW26627   3.044   1.688   9.473 -0.0297  1.2613 -0.0669
 8207SOL    HW126628   2.969   1.683   9.414  0.6012 -0.2332 -0.8039
 8207SOL    HW226629   3.107   1.624   9.438  0.3691  0.3105  2.2055
 8208SOL     OW26630   6.219  10.012   4.004  0.1293  0.5053  0.1288
 8208SOL    HW126631   6.240   9.919   4.011  2.8734  1.0310 -0.1400
 8208SOL    HW226632   6.130  10.019   4.038  0.0350 -2.1251  0.6241
 8209SOL     OW26633   6.078   7.077   5.672 -0.2665 -0.8138  0.1077
 8209SOL    HW126634   6.071   7.104   5.764 -1.8358 -1.1671  0.1309
 8209SOL    HW226635   6.137   7.002   5.674 -1.8612 -2.1310  1.1776
 8210SOL     OW26636   0.225   0.847   6.425 -0.2690  0.3429  0.1492
 8210SOL    HW126637   0.195   0.936   6.408 -0.1632  0.1837 -0.9883
 8210SOL    HW226638   0.280   0.826   6.350 -1.2198 -1.0818 -0.1879
 8211SOL     OW26639   1.384   4.652   7.198 -0.4770  0.0641  0.0311
 8211SOL    HW126640   1.324   4.626   7.128  0.5875  1.4004 -1.4323
 8211SOL    HW226641   1.418   4.570   7.233 -2.4287 -0.6940  0.2981
 8212SOL     OW26642   6.206   1.310   9.707 -0.6607 -0.0676 -0.6230
 8212SOL    HW126643   6.193   1.375   9.638 -3.7664 -0.8450 -0.9154
 8212SOL    HW226644   6.210   1.361   9.787 -0.2499  0.6386 -1.0800
 8213SOL     OW26645   0.026   4.418  10.501  0.2338  0.2168  0.1987
 8213SOL    HW126646  -0.028   4.497  10.505 -0.6572 -0.4182  1.1044
 8213SOL    HW226647   0.116   4.450  10.508 -0.1745  1.0470  2.6369
 8214SOL     OW26648   5.406   1.495   3.202  0.0497  0.3185  0.8676
 8214SOL    HW126649   5.423   1.405   3.174 -0.0143  0.8317 -0.9474
 8214SOL    HW226650   5.488   1.524   3.241  1.2838  0.5626 -1.6758
 8215SOL     OW26651  10.986   7.020   0.518  0.2429  0.3840 -0.1843
 8215SOL    HW126652  10.984   7.112   0.544 -0.6056  0.4499 -0.4384
 8215SOL    HW226653  10.927   6.976   0.580  1.0961 -0.0885  0.3014
 8216SOL     OW26654   1.360   2.800   1.249 -0.2889 -0.0046  0.4145
 8216SOL    HW126655   1.390   2.710   1.238 -0.6433 -0.2741  1.4986
 8216SOL    HW226656   1.265   2.792   1.260 -0.9144  0.8232 -3.0070
 8217SOL     OW26657   4.615   8.021   7.200  0.0871  0.3780  0.4585
 8217SOL    HW126658   4.605   7.925   7.198  2.1819  0.1118  0.4347
 8217SOL    HW226659   4.608   8.044   7.292 -2.1633  0.4775  0.3235
 8218SOL     OW26660   2.977   9.095   7.377  0.7209  0.3877 -0.0507
 8218SOL    HW126661   3.012   9.174   7.420  0.3073  0.0060  1.0353
 8218SOL    HW226662   3.034   9.024   7.408  0.4915  0.1197 -0.2444
 8219SOL     OW26663   1.899   7.171   1.899  0.0918  0.6466  0.2773
 8219SOL    HW126664   1.876   7.078   1.910  0.4969  0.5355  0.2105
 8219SOL    HW226665   1.924   7.200   1.987  0.4761  0.5476  0.2046
 8220SOL     OW26666   4.125  11.032   4.090 -0.5611  0.4606  0.3179
 8220SOL    HW126667   4.220  11.036   4.084 -0.6434  0.3515 -1.4638
 8220SOL    HW226668   4.105  11.060   4.180  1.0522  1.7704  0.3056
 8221SOL     OW26669   0.962   8.333   8.653  0.1195  0.0522 -0.0909
 8221SOL    HW126670   0.894   8.269   8.675  1.0931 -0.5227  1.4331
 8221SOL    HW226671   0.941   8.409   8.707  1.8409 -0.9283  2.1440
 8222SOL     OW26672   5.661   0.502   8.109 -0.3150 -0.4554  0.9364
 8222SOL    HW126673   5.599   0.561   8.153  0.3091  0.1739  0.9809
 8222SOL    HW226674   5.668   0.427   8.169 -1.7135 -0.9731  0.5126
 8223SOL     OW26675   0.589   6.423   7.559 -0.1882 -0.2110 -0.3108
 8223SOL    HW126676   0.624   6.510   7.539 -0.2574  0.1108  0.8658
 8223SOL    HW226677   0.494   6.436   7.562 -0.1790 -0.2301  0.2332
 8224SOL     OW26678   2.177   6.638  10.336 -0.3675 -0.1776 -0.1211
 8224SOL    HW126679   2.120   6.674  10.404 -0.9488 -1.3625  0.0497
 8224SOL    HW226680   2.263   6.678  10.352 -0.9672  1.0778  0.0640
 8225SOL     OW26681  10.334   9.975   8.210 -0.0296  0.1333  0.1392
 8225SOL    HW126682  10.264   9.947   8.269 -0.0395 -0.2081 -0.0324
 8225SOL    HW226683  10.321   9.923   8.131  0.9891 -0.6214  0.4526
 8226SOL     OW26684   3.155   9.600   3.305 -0.0083 -0.5368  0.4186
 8226SOL    HW126685   3.130   9.544   3.231 -0.0390 -1.9934  1.4767
 8226SOL    HW226686   3.209   9.544   3.360  0.7884  0.8053  1.0530
 8227SOL     OW26687   8.466   6.118   1.999  0.4023  0.3988 -0.1182
 8227SOL    HW126688   8.385   6.068   2.008  0.0174  1.0993  0.4492
 8227SOL    HW226689   8.475   6.132   1.905  1.2503 -1.8849 -0.4332
 8228SOL     OW26690   3.284   6.230   6.413 -0.0342  0.7428  0.2019
 8228SOL    HW126691   3.299   6.323   6.394 -1.1549  1.0881  0.9145
 8228SOL    HW226692   3.340   6.211   6.488  0.6380  0.6810 -0.3083
 8229SOL     OW26693   8.997   0.887   6.440 -0.4768 -0.3531 -0.1273
 8229SOL    HW126694   9.019   0.938   6.362 -0.0216  0.1259  0.3048
 8229SOL    HW226695   8.928   0.938   6.483 -0.9063 -0.7464 -0.3510
 8230SOL     OW26696   4.897   2.655   7.398 -0.2079 -0.7491 -0.6028
 8230SOL    HW126697   4.885   2.568   7.438 -0.9381 -0.8272 -0.9765
 8230SOL    HW226698   4.984   2.683   7.428  0.2352 -1.8012 -0.8321
 8231SOL     OW26699   7.106   0.944   1.647  0.4052  0.1165 -0.0546
 8231SOL    HW126700   7.133   0.997   1.572  0.2486  1.7669  1.0016
 8231SOL    HW226701   7.050   0.876   1.609  1.0052  0.3976 -1.5185
 8232SOL     OW26702   9.286  10.467   5.159 -0.1810  0.3201  0.6938
 8232SOL    HW126703   9.195  10.494   5.168 -1.0521 -1.5370 -1.5676
 8232SOL    HW226704   9.285  10.372   5.167  1.5874  0.2685  0.8017
 8233SOL     OW26705   2.973   9.173   3.450  0.0305 -0.2619  0.4808
 8233SOL    HW126706   2.915   9.223   3.393 -0.8931 -0.1109  1.5223
 8233SOL    HW226707   3.054   9.162   3.399 -0.2094  1.1718 -0.2537
 8234SOL     OW26708   0.767   1.950   2.792  0.1165 -1.2790  0.2853
 8234SOL    HW126709   0.686   1.988   2.826  2.4140  4.5893  0.3817
 8234SOL    HW226710   0.816   1.924   2.870  0.6046  0.9402  0.7928
 8235SOL     OW26711   5.665   2.167   1.507 -0.0942  0.3732 -0.4402
 8235SOL    HW126712   5.641   2.219   1.430 -0.5009 -0.0178 -0.5809
 8235SOL    HW226713   5.625   2.215   1.580  1.0670  1.2547 -0.3472
 8236SOL     OW26714   0.019   5.462   9.272 -0.2214 -0.4802  0.4068
 8236SOL    HW126715   0.030   5.384   9.218  1.7676  0.0667 -0.0685
 8236SOL    HW226716   0.102   5.508   9.264 -1.1176  1.3738  1.1855
 8237SOL     OW26717   6.579   7.917   7.048  0.1759 -0.2247 -0.4717
 8237SOL    HW126718   6.532   7.837   7.026 -1.4928  0.5615  0.1109
 8237SOL    HW226719   6.633   7.894   7.123 -0.5748 -0.7130 -0.0768
 8238SOL     OW26720   0.947   1.600   0.849 -0.3098 -0.3479 -0.0108
 8238SOL    HW126721   0.915   1.629   0.934  0.2498  0.3075 -0.0076
 8238SOL    HW226722   1.040   1.583   0.863 -0.1416  0.0808 -0.5607
 8239SOL     OW26723   3.788   7.936   0.116 -0.0535 -0.3849 -0.1765
 8239SOL    HW126724   3.835   7.876   0.175 -0.0491 -0.1196  0.0917
 8239SOL    HW226725   3.741   7.878   0.056  0.1435 -0.6565 -0.0717
 8240SOL     OW26726   2.497   0.920   2.980  0.3852 -0.3016  0.0083
 8240SOL    HW126727   2.523   0.909   3.071  0.3102  0.0502  0.0707
 8240SOL    HW226728   2.554   0.860   2.932  1.2068  0.3403  0.1568
 8241SOL     OW26729   3.530   5.377   8.901  0.0241 -0.2165 -0.5914
 8241SOL    HW126730   3.518   5.347   8.811 -3.5578 -1.0965  0.0199
 8241SOL    HW226731   3.519   5.472   8.897 -2.0383 -0.4271 -0.9308
 8242SOL     OW26732   5.924  10.083   2.276 -0.1531  0.3895 -0.0972
 8242SOL    HW126733   5.955   9.996   2.301 -1.8617 -0.6738 -1.4617
 8242SOL    HW226734   5.857  10.105   2.340  0.7308  1.0302  0.6357
 8243SOL     OW26735   2.189   7.948   0.911  0.5603  0.0755 -0.1598
 8243SOL    HW126736   2.166   8.030   0.866 -2.0375 -1.0758 -1.1438
 8243SOL    HW226737   2.171   7.965   1.003 -0.5875  0.4384 -0.4378
 8244SOL     OW26738   4.876   5.178   8.843 -0.2703 -0.1311 -0.0753
 8244SOL    HW126739   4.900   5.086   8.829  0.7100  0.4308 -2.9854
 8244SOL    HW226740   4.784   5.176   8.869  0.2084 -1.9741  1.6821
 8245SOL     OW26741   1.608   9.932   8.972 -0.3016  0.2178 -0.0301
 8245SOL    HW126742   1.572   9.858   9.022  0.1602 -0.4127 -0.6116
 8245SOL    HW226743   1.677   9.893   8.918  1.1968  1.3731  0.9663
 8246SOL     OW26744   3.062   0.140   2.767  0.0112  0.1408 -0.0745
 8246SOL    HW126745   3.092   0.176   2.851 -0.6043  0.2094  0.1202
 8246SOL    HW226746   2.990   0.081   2.791 -0.9527  1.0460 -0.6439
 8247SOL     OW26747   5.096   3.121   8.215  0.0122  0.2691  0.2324
 8247SOL    HW126748   5.182   3.133   8.255  0.8796  2.6635 -2.0408
 8247SOL    HW226749   5.106   3.043   8.160  0.9788  0.9002 -0.5184
 8248SOL     OW26750   5.641   4.021  10.105 -0.2347  0.3289  0.5060
 8248SOL    HW126751   5.563   3.969  10.082 -0.5260  0.1332  1.8417
 8248SOL    HW226752   5.606   4.109  10.122 -0.2652  0.1076  1.6547
 8249SOL     OW26753   1.970   0.573   9.132  0.0985 -0.0226  0.0487
 8249SOL    HW126754   2.002   0.546   9.046  0.2526 -1.5587  0.5636
 8249SOL    HW226755   2.045   0.562   9.190 -0.2629  0.1545  0.5533
 8250SOL     OW26756   1.425   7.769   3.777 -0.1555 -0.0485  0.4420
 8250SOL    HW126757   1.471   7.708   3.719 -0.6408  0.8292 -0.9134
 8250SOL    HW226758   1.480   7.773   3.856  1.7485  0.4279 -0.8330
 8251SOL     OW26759   8.188   0.458   3.050 -0.3871 -0.3673 -0.8300
 8251SOL    HW126760   8.216   0.373   3.082  0.3048 -0.3046 -1.2620
 8251SOL    HW226761   8.175   0.445   2.956 -0.3167 -0.0024 -0.8896
 8252SOL     OW26762   9.876   9.012   4.184  0.2304 -0.0377 -0.1611
 8252SOL    HW126763   9.875   9.059   4.267 -0.1596  0.7812 -0.6073
 8252SOL    HW226764   9.960   9.035   4.144  0.8890 -1.2849  0.4562
 8253SOL     OW26765   0.330   7.816   9.885 -0.7845  0.1119  0.1782
 8253SOL    HW126766   0.400   7.832   9.948  0.0102  0.1639 -0.7057
 8253SOL    HW226767   0.323   7.897   9.835 -1.7700  0.2588  0.5202
 8254SOL     OW26768   0.121   2.048   5.563  0.0869  0.3743  0.2898
 8254SOL    HW126769   0.030   2.049   5.593  0.0587  0.7502  0.1913
 8254SOL    HW226770   0.148   1.956   5.572 -0.7455 -0.0291 -1.0567
 8255SOL     OW26771   0.415   6.626   8.141  0.4686  0.1692  0.5290
 8255SOL    HW126772   0.342   6.569   8.118 -0.1836  1.2382 -0.1308
 8255SOL    HW226773   0.463   6.638   8.059  1.4413 -0.5700  0.9660
 8256SOL     OW26774   8.030   6.478   8.610 -0.1540  0.9128 -0.2004
 8256SOL    HW126775   8.120   6.510   8.606  0.1908 -0.0359 -0.1636
 8256SOL    HW226776   8.026   6.429   8.692 -1.9439  4.5735  2.1893
 8257SOL     OW26777   6.474  10.946   7.693  0.2030 -0.6196 -0.1133
 8257SOL    HW126778   6.457  10.913   7.781  1.4513  0.3150  0.4938
 8257SOL    HW226779   6.528  10.878   7.652  0.8074 -0.4218  0.3372
 8258SOL     OW26780   8.206   2.349   6.557  0.0550 -0.7165 -0.2425
 8258SOL    HW126781   8.154   2.355   6.637  0.2557  1.3614 -0.2024
 8258SOL    HW226782   8.148   2.382   6.488  0.3873 -1.0465 -0.6842
 8259SOL     OW26783   5.279   1.539   7.427 -1.0601  0.2474 -0.0981
 8259SOL    HW126784   5.292   1.457   7.474 -3.8727 -0.5972 -0.6013
 8259SOL    HW226785   5.273   1.513   7.335  2.3734  1.6416 -0.8995
 8260SOL     OW26786   4.046   2.015  10.958 -0.0716 -0.3178  0.0401
 8260SOL    HW126787   4.040   2.106  10.990  0.9366  0.1682 -1.0893
 8260SOL    HW226788   4.091   2.022  10.874  0.3013 -1.9107  0.0784
 8261SOL     OW26789   3.843   1.417   2.979 -0.2639  0.0681  0.2296
 8261SOL    HW126790   3.845   1.323   2.993 -0.6433  0.1514  0.9133
 8261SOL    HW226791   3.935   1.442   2.969 -0.0918 -0.2578  0.9153
 8262SOL     OW26792   4.469   0.141   3.066  0.4643 -0.1223  0.0037
 8262SOL    HW126793   4.423   0.070   3.021  1.7082 -1.3432  0.5740
 8262SOL    HW226794   4.402   0.184   3.118 -0.4329 -0.5193 -0.7874
 8263SOL     OW26795   1.622   1.483   4.255 -0.5148  0.3638  0.5955
 8263SOL    HW126796   1.638   1.573   4.228  0.4320  0.2416  0.6933
 8263SOL    HW226797   1.625   1.433   4.173  1.4277  0.1154  0.7754
 8264SOL     OW26798   0.656   3.274   3.158  0.1740  0.1556 -1.0020
 8264SOL    HW126799   0.669   3.356   3.207  0.3729 -0.6093  0.2669
 8264SOL    HW226800   0.734   3.267   3.103  0.6024  0.3694 -0.4364
 8265SOL     OW26801   6.393   2.315   6.219 -0.2833 -0.0361 -0.2462
 8265SOL    HW126802   6.454   2.287   6.287  0.1542 -0.2938 -0.7368
 8265SOL    HW226803   6.394   2.411   6.223  0.2333 -0.0392 -0.3221
 8266SOL     OW26804   5.833   9.382   8.804 -0.6942 -0.1189 -0.0470
 8266SOL    HW126805   5.835   9.286   8.801 -1.3598 -0.1221 -1.2895
 8266SOL    HW226806   5.905   9.409   8.747 -1.3610  0.0917 -0.8125
 8267SOL     OW26807   8.783   0.028   3.032  0.0451 -0.1168 -0.4218
 8267SOL    HW126808   8.874   0.002   3.043 -0.2115 -0.7103  0.4210
 8267SOL    HW226809   8.758  -0.005   2.946  0.8943  0.8807 -1.0612
 8268SOL     OW26810  10.569   0.026   5.826 -0.3960 -0.3325 -0.7271
 8268SOL    HW126811  10.505   0.090   5.857 -1.0117 -1.1420 -0.2796
 8268SOL    HW226812  10.536  -0.002   5.741  0.5851  0.8991 -1.5601
 8269SOL     OW26813   6.729   4.160   0.857  0.3345  0.1592  0.0385
 8269SOL    HW126814   6.685   4.081   0.888 -0.0638 -0.5031 -2.1107
 8269SOL    HW226815   6.667   4.201   0.798  0.8679  1.6646  0.4684
 8270SOL     OW26816   2.475   2.035   6.795 -0.0829  0.1668 -0.5193
 8270SOL    HW126817   2.499   2.028   6.703 -2.6520  1.9940 -1.4337
 8270SOL    HW226818   2.531   2.105   6.829  1.5943 -1.1855 -0.3282
 8271SOL     OW26819   2.148   8.645   1.964 -0.6044  0.5007 -0.0300
 8271SOL    HW126820   2.166   8.624   2.055 -0.4143  0.3613 -0.0991
 8271SOL    HW226821   2.202   8.584   1.914 -0.3607  0.8815 -0.2372
 8272SOL     OW26822   4.948   2.878   7.209  0.0460 -0.0515 -0.4768
 8272SOL    HW126823   4.969   2.845   7.296  0.6808  2.0927  0.2543
 8272SOL    HW226824   4.906   2.804   7.164 -0.5998 -1.1115  1.7435
 8273SOL     OW26825   6.363   3.657   3.827  0.1348 -0.3077  0.2652
 8273SOL    HW126826   6.333   3.585   3.883  1.4885 -0.7837  0.4406
 8273SOL    HW226827   6.398   3.722   3.888  0.2948 -0.1785  0.0380
 8274SOL     OW26828   2.715   3.793   8.869 -0.2736 -0.2921 -0.0711
 8274SOL    HW126829   2.635   3.821   8.824 -0.1672  0.8486  0.4272
 8274SOL    HW226830   2.766   3.873   8.879  0.4559 -0.8286  0.5898
 8275SOL     OW26831   0.036   6.849   3.976 -0.3783 -0.0576  0.1269
 8275SOL    HW126832   0.101   6.905   4.018  0.2324  0.3311 -1.2836
 8275SOL    HW226833   0.087   6.781   3.933 -0.8348  0.5908 -1.4966
 8276SOL     OW26834   6.518   1.203   2.218 -0.3233  0.2193  0.1105
 8276SOL    HW126835   6.592   1.143   2.214 -1.6261 -1.4261 -1.0494
 8276SOL    HW226836   6.493   1.203   2.311  1.4467  1.2898  0.6248
 8277SOL     OW26837   1.941   1.455   3.676 -0.2920  0.3889  0.3702
 8277SOL    HW126838   2.022   1.472   3.723  0.3197  1.1846 -0.9146
 8277SOL    HW226839   1.882   1.417   3.742  2.0954 -3.2879  0.6716
 8278SOL     OW26840  10.254   2.800   2.388 -0.5294 -0.4778 -0.1995
 8278SOL    HW126841  10.241   2.771   2.298 -1.5442 -1.4974  0.2562
 8278SOL    HW226842  10.228   2.726   2.442 -0.0365  0.1476  0.9509
 8279SOL     OW26843   1.280   8.448   4.594 -0.2856  0.0438 -0.0208
 8279SOL    HW126844   1.289   8.526   4.540 -0.5289  1.5797  2.0549
 8279SOL    HW226845   1.280   8.376   4.532  0.4812  1.6428 -1.9714
 8280SOL     OW26846   2.914   4.635   7.198  0.6105  0.3076 -0.3710
 8280SOL    HW126847   2.848   4.567   7.205  0.5586  0.4238  0.3037
 8280SOL    HW226848   2.898   4.676   7.112  2.4384 -2.3981 -2.1561
 8281SOL     OW26849   7.089   0.918   4.519 -0.1378  0.5645  1.0749
 8281SOL    HW126850   7.163   0.889   4.572 -1.0320  0.3466  2.2349
 8281SOL    HW226851   7.058   0.998   4.561 -0.2094  0.9847  0.2517
 8282SOL     OW26852   2.947   4.142   7.978  0.3692  0.5199 -0.6217
 8282SOL    HW126853   3.024   4.142   8.035  1.3346  1.5762 -1.8662
 8282SOL    HW226854   2.972   4.087   7.904 -1.0087 -1.1406  0.0883
 8283SOL     OW26855  11.028   2.336   9.169 -0.1606 -0.0675 -0.5109
 8283SOL    HW126856  11.046   2.359   9.260 -0.8797  0.1790 -0.4283
 8283SOL    HW226857  11.013   2.419   9.125 -0.8255 -0.2465 -0.6354
 8284SOL     OW26858  10.705   2.249   9.470  0.2361 -0.2152  0.2488
 8284SOL    HW126859  10.684   2.314   9.403  2.8676  0.8913  0.3816
 8284SOL    HW226860  10.715   2.299   9.550  1.4636 -0.8812  0.5401
 8285SOL     OW26861  10.051  10.958  10.548 -0.3511  0.0477 -0.1231
 8285SOL    HW126862   9.982  11.006  10.500 -1.4216 -1.4244 -0.1248
 8285SOL    HW226863  10.100  10.914  10.479  0.2932  0.6882 -0.0823
 8286SOL     OW26864   5.859  10.677   8.852 -0.3925 -0.3074 -0.1514
 8286SOL    HW126865   5.831  10.606   8.794  2.3459 -0.5996 -1.2624
 8286SOL    HW226866   5.920  10.636   8.913 -1.8187  0.3770  1.8107
 8287SOL     OW26867   6.399   8.033   5.692 -0.1132 -0.0588 -0.0548
 8287SOL    HW126868   6.379   7.940   5.700  1.0566 -0.3828 -0.6820
 8287SOL    HW226869   6.494   8.038   5.703  0.1849  0.7478 -2.4457
 8288SOL     OW26870   5.360   2.371   1.023  0.2832  0.4411 -0.4216
 8288SOL    HW126871   5.345   2.405   1.111  0.7385 -1.0162  0.2523
 8288SOL    HW226872   5.276   2.333   0.997 -0.5151  2.7820 -1.5666
 8289SOL     OW26873   5.818   2.054   3.600  0.8333 -0.2873  0.1564
 8289SOL    HW126874   5.783   1.969   3.625 -0.5801  0.3487  0.4296
 8289SOL    HW226875   5.758   2.087   3.534  0.6810  0.9945  0.8869
 8290SOL     OW26876   3.758   9.806  11.058 -0.3377  0.0307 -0.1238
 8290SOL    HW126877   3.798   9.765  11.135  0.0626  2.2197  0.8835
 8290SOL    HW226878   3.679   9.849  11.091 -0.5859  0.3572 -1.0916
 8291SOL     OW26879   0.515   3.112   5.943  0.2374 -0.5564  0.3144
 8291SOL    HW126880   0.606   3.094   5.967  0.3808 -0.1426  0.0999
 8291SOL    HW226881   0.510   3.088   5.850  0.3362  0.1281  0.1222
 8292SOL     OW26882   5.675   6.392   9.841 -0.1158 -0.1291 -0.3947
 8292SOL    HW126883   5.770   6.389   9.828  0.2534  0.6570  1.7489
 8292SOL    HW226884   5.660   6.472   9.891 -1.8250 -0.5875 -0.1057
 8293SOL     OW26885   7.522   9.232  10.096 -0.3898  0.0184 -0.6154
 8293SOL    HW126886   7.580   9.165  10.062  0.9954  0.9090 -0.1005
 8293SOL    HW226887   7.469   9.187  10.162  2.0377 -0.1913  1.3418
 8294SOL     OW26888   7.371   9.681   1.392 -0.5052  0.4501 -0.7263
 8294SOL    HW126889   7.429   9.639   1.328 -0.8370  1.0038 -1.3994
 8294SOL    HW226890   7.404   9.770   1.400 -1.5857  0.9345 -1.5281
 8295SOL     OW26891   3.512   1.762   1.920  0.0949  0.2586 -0.5535
 8295SOL    HW126892   3.602   1.754   1.953 -0.4025  0.3659  0.8773
 8295SOL    HW226893   3.521   1.756   1.825  1.6448  0.5046 -0.4447
 8296SOL     OW26894   3.398   6.391  10.183  0.2747 -0.5130  0.3068
 8296SOL    HW126895   3.363   6.302  10.181 -0.2064 -0.3630  1.3220
 8296SOL    HW226896   3.343   6.437  10.246  0.0889  0.6967 -0.6960
 8297SOL     OW26897   1.146   2.794   6.565  0.2145 -0.6309 -0.0200
 8297SOL    HW126898   1.099   2.753   6.493 -0.4827 -0.0108  0.0658
 8297SOL    HW226899   1.154   2.886   6.539  1.5645 -0.7614 -0.1230
 8298SOL     OW26900   7.720   0.554   0.363  0.6608  0.0173 -0.3043
 8298SOL    HW126901   7.689   0.496   0.294  1.4728 -0.1340 -0.5554
 8298SOL    HW226902   7.686   0.640   0.340  0.1568 -0.1986 -0.3844
 8299SOL     OW26903   1.096   9.414   5.894 -0.4249 -0.0597  0.0811
 8299SOL    HW126904   1.025   9.468   5.931 -2.0438 -2.5539  0.8630
 8299SOL    HW226905   1.069   9.400   5.803 -0.7200 -0.6491  0.2572
 8300SOL     OW26906  10.926   8.500   8.045 -0.4137 -0.5591 -0.5004
 8300SOL    HW126907  10.981   8.434   8.002 -2.5303 -2.8210  0.0531
 8300SOL    HW226908  10.909   8.565   7.977  0.7913 -1.1677 -1.4183
 8301SOL     OW26909   2.329   3.065   6.240  0.1782  0.4652  0.0988
 8301SOL    HW126910   2.248   3.024   6.270  0.7140  0.2635  1.3457
 8301SOL    HW226911   2.396   2.998   6.253  0.5078  0.5122 -1.2373
 8302SOL     OW26912   3.333   2.585   7.642 -0.0626  0.4470 -0.6678
 8302SOL    HW126913   3.326   2.615   7.551 -0.6376  0.3979 -0.6435
 8302SOL    HW226914   3.390   2.509   7.638 -2.0318 -1.0779 -1.3618
 8303SOL     OW26915   2.611   9.111   4.187  0.2469 -0.5269  0.4087
 8303SOL    HW126916   2.688   9.150   4.229 -0.4587  0.9969  0.3786
 8303SOL    HW226917   2.638   9.097   4.096  0.1455  1.1537  0.0817
 8304SOL     OW26918   3.316   2.670   2.426 -0.6519 -0.1220  0.0469
 8304SOL    HW126919   3.286   2.625   2.347 -2.0353 -0.8660  0.9690
 8304SOL    HW226920   3.378   2.736   2.393 -0.9159 -0.6491 -1.6160
 8305SOL     OW26921   3.893   6.218   8.020  0.1579  0.0883 -0.4272
 8305SOL    HW126922   3.974   6.171   8.000  0.7262  0.8963 -0.0668
 8305SOL    HW226923   3.841   6.155   8.071  1.7426  0.4827  1.8218
 8306SOL     OW26924   3.557   0.865   3.527 -0.1743 -0.0737 -0.4917
 8306SOL    HW126925   3.536   0.774   3.507 -0.4588 -0.1999  0.3130
 8306SOL    HW226926   3.479   0.898   3.572  0.3602  0.2205  0.2392
 8307SOL     OW26927   0.245  10.099   8.269 -0.4003 -0.0188 -0.1310
 8307SOL    HW126928   0.317  10.047   8.232 -1.0479  1.1293 -3.3039
 8307SOL    HW226929   0.288  10.171   8.314  0.4484 -0.2135 -0.6039
 8308SOL     OW26930   0.044   1.190   9.655 -0.0055  0.8819 -0.2567
 8308SOL    HW126931  -0.016   1.130   9.699  1.9425 -0.4505  0.7214
 8308SOL    HW226932   0.031   1.174   9.562  0.2897 -0.9069 -0.0208
 8309SOL     OW26933   3.241   2.851   5.407 -0.4937  0.2909  0.2589
 8309SOL    HW126934   3.208   2.761   5.406 -0.5604  0.3101  0.7602
 8309SOL    HW226935   3.262   2.868   5.499 -1.2085  1.0595  0.2916
 8310SOL     OW26936   1.889   2.580   3.258  0.2261  0.3143  0.0388
 8310SOL    HW126937   1.974   2.617   3.233  1.0812 -2.4285 -1.5009
 8310SOL    HW226938   1.908   2.526   3.335  0.0058 -0.6819 -0.5931
 8311SOL     OW26939   2.496   6.893   3.423 -0.3832  0.0642 -0.0287
 8311SOL    HW126940   2.548   6.816   3.447 -0.3890  0.3205  0.8553
 8311SOL    HW226941   2.414   6.857   3.389 -0.0764 -0.3289 -0.3598
 8312SOL     OW26942   9.294   5.276  10.550  0.2262 -0.0715  0.1376
 8312SOL    HW126943   9.366   5.334  10.525  1.3978 -2.4548 -2.4761
 8312SOL    HW226944   9.337   5.197  10.581 -1.3101 -0.9499  0.1142
 8313SOL     OW26945   8.781  10.242  10.260  0.2564 -0.5471  0.1842
 8313SOL    HW126946   8.767  10.187  10.337 -3.6685  0.5661  0.4929
 8313SOL    HW226947   8.742  10.192  10.188 -0.3162  0.3498 -0.1453
 8314SOL     OW26948   3.811   3.682   9.529 -0.2385  0.4839  0.0729
 8314SOL    HW126949   3.742   3.713   9.470  1.8629  1.3639 -2.1076
 8314SOL    HW226950   3.848   3.606   9.485  1.5661  1.3164  0.0731
 8315SOL     OW26951   5.897   9.037   4.984  0.5011 -0.0009  0.6208
 8315SOL    HW126952   5.842   9.056   5.060  0.8306  2.0660  0.4090
 8315SOL    HW226953   5.834   9.025   4.912  0.1868 -2.0126  1.1655
 8316SOL     OW26954   3.268   4.419   3.383  0.0701  0.2176  0.6939
 8316SOL    HW126955   3.222   4.500   3.360 -0.0895  0.9994  3.4892
 8316SOL    HW226956   3.357   4.447   3.404  0.3342 -0.5203  0.5907
 8317SOL     OW26957   9.868   7.747   5.104 -0.4914 -0.3620 -0.0063
 8317SOL    HW126958   9.879   7.669   5.049 -2.6968 -1.7866  1.4042
 8317SOL    HW226959   9.957   7.770   5.130  0.6502  0.2245 -3.7858
 8318SOL     OW26960   9.178   3.545   5.983 -0.1912  0.1124  0.3690
 8318SOL    HW126961   9.159   3.621   5.928  1.7703 -0.6368 -1.4677
 8318SOL    HW226962   9.106   3.542   6.045 -1.7943  1.8192 -1.2913
 8319SOL     OW26963  10.894   0.244  11.090 -0.4797 -0.1970  0.3456
 8319SOL    HW126964  10.820   0.283  11.043 -0.9299 -0.7103  0.6059
 8319SOL    HW226965  10.971   0.266  11.038 -0.6720  1.2875  0.6560
 8320SOL     OW26966   3.959   7.552   4.981 -0.5245  0.2756 -0.7163
 8320SOL    HW126967   4.043   7.597   4.995 -0.0492 -1.2142  1.7900
 8320SOL    HW226968   3.896   7.623   4.966  0.7142  1.6115  0.1080
 8321SOL     OW26969   4.109   1.370   5.025 -0.2612  0.1967 -0.1147
 8321SOL    HW126970   4.104   1.284   4.984 -1.2917  0.2398 -0.1092
 8321SOL    HW226971   4.031   1.416   4.993  0.2725  1.1245 -0.1118
 8322SOL     OW26972   9.867   0.754   5.919  0.0227 -0.1347  0.7916
 8322SOL    HW126973   9.919   0.736   5.998  1.3309  1.6789  0.4262
 8322SOL    HW226974   9.909   0.832   5.881 -2.9606  1.4454  0.4434
 8323SOL     OW26975   6.341   0.009  10.610 -0.2447  0.2102 -0.6459
 8323SOL    HW126976   6.319  -0.023  10.698 -2.3948  0.1146 -1.1549
 8323SOL    HW226977   6.332  -0.068  10.554  1.7236  0.1266 -0.9058
 8324SOL     OW26978   2.338   7.119   8.095  0.3045 -0.0481  0.3895
 8324SOL    HW126979   2.323   7.024   8.091 -0.3782  0.0760 -0.4778
 8324SOL    HW226980   2.365   7.142   8.006 -0.6403  0.7427  0.2933
 8325SOL     OW26981   1.760   6.726   8.517 -0.5725  0.0985 -0.6094
 8325SOL    HW126982   1.665   6.731   8.503 -0.7549 -1.5486 -0.1531
 8325SOL    HW226983   1.771   6.742   8.611 -0.5385 -0.9840 -0.4198
 8326SOL     OW26984   6.225   3.708   0.651 -0.5656  0.0873 -0.0139
 8326SOL    HW126985   6.279   3.635   0.622  0.0386  1.2396 -1.9858
 8326SOL    HW226986   6.152   3.711   0.589 -0.4758  1.2572 -0.0890
 8327SOL     OW26987   9.036   6.203   1.359  0.4273  0.0698  0.5600
 8327SOL    HW126988   8.979   6.266   1.403 -0.5321  1.0685 -1.9518
 8327SOL    HW226989   8.981   6.162   1.292  2.8970  2.5315 -3.4105
 8328SOL     OW26990   1.159  10.882   0.782  0.1221  0.1711  0.5833
 8328SOL    HW126991   1.144  10.929   0.864  2.1958 -0.0322  1.1498
 8328SOL    HW226992   1.192  10.796   0.810 -1.0645 -0.6595 -0.4672
 8329SOL     OW26993   9.320   9.349   6.591  0.1648 -0.4196  0.1588
 8329SOL    HW126994   9.332   9.432   6.637  1.3923 -0.0892 -0.7160
 8329SOL    HW226995   9.254   9.302   6.643  0.1822  0.6839  1.2162
 8330SOL     OW26996   2.553   3.224   5.979 -0.3351 -0.1651  0.1180
 8330SOL    HW126997   2.532   3.314   5.953  0.8105  0.3046  0.7382
 8330SOL    HW226998   2.564   3.228   6.074  0.7019 -0.7329  0.0404
 8331SOL     OW26999   4.542   7.244   2.978 -0.1209 -0.0634 -0.1463
 8331SOL    HW127000   4.549   7.277   2.888  0.3381 -0.9332 -0.4409
 8331SOL    HW227001   4.502   7.316   3.026 -0.4416  0.3917 -1.0599
 8332SOL     OW27002   7.179   4.227   7.943 -1.0088  0.1363 -0.4035
 8332SOL    HW127003   7.093   4.223   7.901 -0.2196 -0.0315 -2.1264
 8332SOL    HW227004   7.211   4.137   7.940 -0.3724  0.3651 -0.7203
 8333SOL     OW27005   4.148   7.821   9.266 -0.0555 -0.1249 -0.0978
 8333SOL    HW127006   4.061   7.780   9.270  0.0904 -0.4309 -0.0450
 8333SOL    HW227007   4.174   7.814   9.174 -0.5852  1.0174 -0.3536
 8334SOL     OW27008   7.198   0.598   6.095  0.2759  0.2673 -0.4183
 8334SOL    HW127009   7.138   0.608   6.022  0.2650 -0.4972 -0.5201
 8334SOL    HW227010   7.217   0.504   6.098  1.2510  0.4554 -0.2251
 8335SOL     OW27011   8.432   9.415   8.166 -0.1676 -0.0853 -0.2023
 8335SOL    HW127012   8.497   9.383   8.103 -0.6441 -0.6927 -0.3984
 8335SOL    HW227013   8.382   9.337   8.190 -0.5175  0.2923  0.3076
 8336SOL     OW27014   7.114  10.901   8.668  0.0887  0.0907  0.4308
 8336SOL    HW127015   7.135  10.827   8.611 -1.1949  0.3213 -0.3783
 8336SOL    HW227016   7.148  10.977   8.623 -0.0447  0.1648  0.4541
 8337SOL     OW27017   0.449   1.760   9.265 -0.7204  0.5229  0.1567
 8337SOL    HW127018   0.378   1.821   9.244 -1.0234 -0.8253 -3.4895
 8337SOL    HW227019   0.408   1.692   9.317 -2.1821 -0.1710 -1.7818
 8338SOL     OW27020   1.614   4.389   7.295  0.2801  1.0672  0.4422
 8338SOL    HW127021   1.554   4.360   7.363  0.3186 -0.6725 -0.2223
 8338SOL    HW227022   1.697   4.346   7.314  0.3259  0.6520 -0.6216
 8339SOL     OW27023   1.667   2.561  10.199  0.4955  0.4705  0.0115
 8339SOL    HW127024   1.598   2.556  10.266 -0.7597 -0.1767 -1.2679
 8339SOL    HW227025   1.735   2.502  10.230 -1.2846 -2.0788 -0.5397
 8340SOL     OW27026   0.956   1.085   3.827 -0.9751 -0.5177 -0.6811
 8340SOL    HW127027   0.959   1.079   3.732 -0.7434  0.5057 -0.7475
 8340SOL    HW227028   0.930   1.175   3.845 -2.2050 -1.0159  0.2281
 8341SOL     OW27029   1.337   2.588   0.169 -0.2340  0.6406 -0.4719
 8341SOL    HW127030   1.341   2.615   0.260  2.2222 -0.0951 -0.3002
 8341SOL    HW227031   1.422   2.613   0.132  0.1564 -2.0339 -1.6255
 8342SOL     OW27032   0.769   4.147   4.978 -0.0063 -0.6555  0.4685
 8342SOL    HW127033   0.767   4.053   4.963 -0.5638 -0.3186 -2.2246
 8342SOL    HW227034   0.808   4.183   4.898 -1.5516  1.4914  0.5739
 8343SOL     OW27035  10.073   1.419   4.620  0.2535 -0.0175 -0.4537
 8343SOL    HW127036  10.133   1.490   4.595  2.3003 -1.4744  0.0265
 8343SOL    HW227037  10.039   1.446   4.706 -1.2221  1.6352 -1.4747
 8344SOL     OW27038   1.104   0.144   6.549  0.5614  0.3525  0.1881
 8344SOL    HW127039   1.020   0.098   6.550  1.0110 -0.5111 -0.1633
 8344SOL    HW227040   1.082   0.235   6.568 -0.2414 -0.1960  2.1169
 8345SOL     OW27041   9.268  10.514   8.542 -0.1531  0.5621 -0.7251
 8345SOL    HW127042   9.188  10.560   8.513 -0.2582  1.2947  0.6571
 8345SOL    HW227043   9.314  10.578   8.596  0.1413 -0.6705  0.5306
 8346SOL     OW27044  10.072   3.174  10.148  0.0280 -0.0878 -0.2878
 8346SOL    HW127045  10.016   3.164  10.225 -0.3858  1.9414 -0.2740
 8346SOL    HW227046  10.151   3.216  10.181  1.7509 -3.0349 -0.2894
 8347SOL     OW27047   2.126   5.019   7.999 -0.7505 -0.0402  0.0652
 8347SOL    HW127048   2.114   5.098   8.051  0.2362 -0.1885  0.5488
 8347SOL    HW227049   2.219   5.020   7.975 -0.7272 -1.0483  0.0654
 8348SOL     OW27050   1.260   5.376   9.848  0.7442 -0.0921 -0.2324
 8348SOL    HW127051   1.286   5.433   9.920  1.6110 -2.4400  1.4512
 8348SOL    HW227052   1.333   5.379   9.787  1.4873 -0.5108  0.5967
 8349SOL     OW27053  11.076   7.495   8.701  0.0316  0.1132  0.1520
 8349SOL    HW127054  11.159   7.530   8.667  1.2953 -1.8520  1.0715
 8349SOL    HW227055  11.098   7.459   8.786 -1.3109 -2.2949 -0.4341
 8350SOL     OW27056   2.754   7.472   9.021 -0.0342 -0.0295  0.1466
 8350SOL    HW127057   2.812   7.465   9.097 -0.3587  0.6819  0.4722
 8350SOL    HW227058   2.696   7.544   9.042 -0.7787 -0.4667 -0.3558
 8351SOL     OW27059   2.175   1.487   1.852 -0.0210  0.2874 -0.2264
 8351SOL    HW127060   2.131   1.403   1.843  1.3208 -0.3833 -0.8064
 8351SOL    HW227061   2.117   1.539   1.908 -0.9411 -0.9546  0.0146
 8352SOL     OW27062   2.248   5.635   5.026 -0.3339 -0.3388  0.9721
 8352SOL    HW127063   2.234   5.677   5.111 -2.9513 -0.4963  0.7051
 8352SOL    HW227064   2.291   5.552   5.047  0.1000  0.1299  2.0116
 8353SOL     OW27065   0.163  11.078   2.324  0.1942 -0.3818 -0.2257
 8353SOL    HW127066   0.246  11.126   2.336  1.4031 -2.3769 -0.1040
 8353SOL    HW227067   0.188  10.986   2.331 -1.8703 -1.0861 -1.4346
 8354SOL     OW27068   0.667   5.791   6.575  0.4376 -0.2310 -0.4860
 8354SOL    HW127069   0.718   5.740   6.513 -0.1321  1.0171 -2.0675
 8354SOL    HW227070   0.677   5.882   6.545 -2.5983  0.0819 -0.8462
 8355SOL     OW27071   6.133   9.407   8.241 -0.7580  0.1563 -0.6008
 8355SOL    HW127072   6.226   9.411   8.218 -1.0181 -1.2128 -2.0999
 8355SOL    HW227073   6.088   9.415   8.157 -2.0701  2.1574  0.2482
 8356SOL     OW27074   8.480   5.014   3.360  0.0368  0.2989 -0.2080
 8356SOL    HW127075   8.545   5.084   3.357 -0.4073  0.6919 -2.0737
 8356SOL    HW227076   8.531   4.934   3.351  0.2991  0.6002 -1.6127
 8357SOL     OW27077   5.716   1.807  10.889 -0.3015 -0.1518  0.1265
 8357SOL    HW127078   5.757   1.818  10.975  1.5712  2.5941 -0.9774
 8357SOL    HW227079   5.651   1.877  10.884  0.2208  0.2877 -0.9654
 8358SOL     OW27080   4.504   9.585   8.435 -0.0517  0.2087  0.0869
 8358SOL    HW127081   4.416   9.612   8.464 -0.4249  0.1184 -0.9036
 8358SOL    HW227082   4.526   9.511   8.491 -0.8173 -0.0671  0.0349
 8359SOL     OW27083   2.513   5.579   7.881 -0.4833 -0.2794 -0.1069
 8359SOL    HW127084   2.444   5.513   7.888 -0.9439  0.3077  1.4871
 8359SOL    HW227085   2.481   5.652   7.935  0.5845  0.7384 -0.7879
 8360SOL     OW27086   1.663   3.945  10.395  0.1172  0.0134 -0.2798
 8360SOL    HW127087   1.611   3.902  10.327  0.0974 -0.8713  0.2772
 8360SOL    HW227088   1.616   4.027  10.413 -1.0159 -0.6889  0.0911
 8361SOL     OW27089  10.488   9.000   3.934 -0.1598  0.2505  0.0449
 8361SOL    HW127090  10.578   9.033   3.922 -0.7945  1.8006 -0.7632
 8361SOL    HW227091  10.448   9.009   3.848 -0.5754 -2.2034 -0.0680
 8362SOL     OW27092   0.915   2.299   9.340 -0.5223 -0.7085  0.4752
 8362SOL    HW127093   0.988   2.250   9.378 -0.9621 -0.9592  0.9931
 8362SOL    HW227094   0.837   2.261   9.379 -0.9122 -0.1443  0.2559
 8363SOL     OW27095   1.600   6.374   6.105 -0.3813 -0.0443  0.1041
 8363SOL    HW127096   1.632   6.290   6.138  0.2439 -0.3142 -1.1197
 8363SOL    HW227097   1.506   6.372   6.121 -0.1817 -0.3961  1.3081
 8364SOL     OW27098   9.057   6.700   4.806 -0.0423  0.4092  0.3340
 8364SOL    HW127099   9.150   6.699   4.827  0.3105  1.3855 -1.0541
 8364SOL    HW227100   9.048   6.644   4.730  0.0475  2.9600 -1.6976
 8365SOL     OW27101   5.681   8.326   7.599  0.0801 -0.1354  0.3523
 8365SOL    HW127102   5.686   8.335   7.504 -3.4006  0.6572  0.1304
 8365SOL    HW227103   5.667   8.415   7.630  2.2048 -0.2288  1.8007
 8366SOL     OW27104   4.954  10.803   7.472  0.1488  0.3449  0.6904
 8366SOL    HW127105   4.914  10.883   7.438  1.4201  0.6895 -0.0679
 8366SOL    HW227106   4.938  10.737   7.405 -1.9285 -0.4041  1.8307
 8367SOL     OW27107   4.717   8.307   4.335  0.0349 -0.6222 -0.2354
 8367SOL    HW127108   4.703   8.267   4.420  0.4588  1.5296  0.8996
 8367SOL    HW227109   4.639   8.360   4.319  0.8456  0.6370 -0.1806
 8368SOL     OW27110   3.649   2.920  10.920 -0.3242 -0.0897  0.2431
 8368SOL    HW127111   3.742   2.939  10.904 -0.2475 -0.4790  0.2089
 8368SOL    HW227112   3.628   2.970  10.999  0.3184 -1.1838  1.1360
 8369SOL     OW27113   9.240   3.013   7.251 -0.2975 -0.3101  0.1287
 8369SOL    HW127114   9.154   2.984   7.221 -0.4036  0.6033 -0.4861
 8369SOL    HW227115   9.228   3.104   7.278  0.0660 -0.7422  1.8765
 8370SOL     OW27116   0.335   4.065   0.456  0.1230 -0.4635  0.4041
 8370SOL    HW127117   0.302   4.074   0.545  0.3667 -0.4097  0.4904
 8370SOL    HW227118   0.394   3.990   0.461  0.9237  0.1642  0.5210
 8371SOL     OW27119   1.105   3.836   7.861  0.5356  0.0150 -0.1415
 8371SOL    HW127120   1.096   3.860   7.954  2.0090 -0.3273  0.1167
 8371SOL    HW227121   1.165   3.901   7.825  1.2745 -0.8255 -0.4440
 8372SOL     OW27122   8.245   8.560  10.643  0.2183 -0.4211  0.1935
 8372SOL    HW127123   8.241   8.556  10.548 -1.1350  0.8660  0.1670
 8372SOL    HW227124   8.204   8.478  10.672 -1.7895  0.3534 -0.3452
 8373SOL     OW27125  10.733   7.251   0.036 -0.1368 -0.1558  0.0875
 8373SOL    HW127126  10.745   7.241   0.130 -0.9415 -0.6074  0.1546
 8373SOL    HW227127  10.813   7.215  -0.003 -0.0987 -0.5966  0.5724
 8374SOL     OW27128   5.672   6.585  10.032  0.0639  0.1297 -0.0155
 8374SOL    HW127129   5.703   6.672  10.056 -0.8857  0.1223  1.3183
 8374SOL    HW227130   5.583   6.581  10.065  0.4053 -1.6973  0.8119
 8375SOL     OW27131   6.685  10.330   5.087 -0.2135  0.0056 -0.3712
 8375SOL    HW127132   6.675  10.237   5.108 -0.3712  0.2592  0.7525
 8375SOL    HW227133   6.704  10.331   4.993 -0.9584 -1.1066 -0.5595
 8376SOL     OW27134   2.051   4.742   6.049  0.4821  0.3803  0.7614
 8376SOL    HW127135   2.003   4.808   6.099  1.3909  1.2202  0.5558
 8376SOL    HW227136   2.094   4.791   5.979 -0.3751 -0.7037 -0.5688
 8377SOL     OW27137   3.274  10.794   5.414  0.3850 -0.2867  0.1914
 8377SOL    HW127138   3.239  10.734   5.349 -0.8584  0.8913 -0.2671
 8377SOL    HW227139   3.218  10.871   5.408  1.4315  0.5970  1.3334
 8378SOL     OW27140   9.201   0.761   1.434  0.0096  0.3540  0.4750
 8378SOL    HW127141   9.183   0.814   1.512  2.2073  0.9450  0.6183
 8378SOL    HW227142   9.214   0.824   1.364  1.1318 -0.0483  0.3112
 8379SOL     OW27143  10.619   1.987   7.442 -0.2292  0.1008  0.3586
 8379SOL    HW127144  10.663   1.936   7.510 -0.8475 -0.7445  0.1414
 8379SOL    HW227145  10.559   2.043   7.490 -0.8049 -0.6334  0.5205
 8380SOL     OW27146   9.808   0.284   8.557 -0.0820  0.3196  0.2870
 8380SOL    HW127147   9.878   0.297   8.493  1.3435  2.4705  2.1062
 8380SOL    HW227148   9.834   0.206   8.606 -0.5326 -0.5948 -0.8883
 8381SOL     OW27149  10.098  10.176   8.153  0.2006  0.3024  0.4706
 8381SOL    HW127150  10.007  10.175   8.124 -0.2823  1.4885  1.8625
 8381SOL    HW227151  10.148  10.198   8.074 -0.7250 -0.1321 -0.2561
 8382SOL     OW27152   8.974   9.952   3.507 -0.2265  0.0885  0.3534
 8382SOL    HW127153   8.909   9.894   3.467 -1.0495  0.3369  1.2871
 8382SOL    HW227154   9.016   9.899   3.575  0.7701 -0.1599 -0.4322
 8383SOL     OW27155   5.611  10.435   9.189 -0.2075  0.6487 -0.5402
 8383SOL    HW127156   5.691  10.393   9.221  0.5139  1.3464 -1.3658
 8383SOL    HW227157   5.598  10.399   9.102 -1.2011  0.0278 -0.1531
 8384SOL     OW27158   3.109   1.813  10.077  0.3743  0.2427  0.2889
 8384SOL    HW127159   3.039   1.872  10.049  1.0784  0.6426 -0.6824
 8384SOL    HW227160   3.067   1.727  10.083 -0.3457  0.5923  0.3893
 8385SOL     OW27161   3.878   9.002   0.174  0.1922  0.4894 -0.0680
 8385SOL    HW127162   3.916   8.992   0.261 -0.2134 -2.2607 -0.1278
 8385SOL    HW227163   3.806   9.065   0.186  0.8627  1.0216  1.3133
 8386SOL     OW27164   0.386   6.889   7.807 -0.6326  0.1539 -0.1716
 8386SOL    HW127165   0.433   6.806   7.812 -2.4709 -1.0067 -1.1746
 8386SOL    HW227166   0.388   6.912   7.714 -0.9415  0.7770 -0.0312
 8387SOL     OW27167   8.727   3.727   0.183  0.5686  0.3724  0.3351
 8387SOL    HW127168   8.744   3.675   0.104  1.7738  0.2401  0.6684
 8387SOL    HW227169   8.677   3.803   0.151  2.0697  0.9493 -0.7719
 8388SOL     OW27170   8.887   5.283   0.276 -0.6792 -0.9944  0.2600
 8388SOL    HW127171   8.936   5.337   0.214 -0.5379 -1.1237  0.2590
 8388SOL    HW227172   8.795   5.308   0.262 -0.6312 -0.8942  0.1254
 8389SOL     OW27173  10.017   2.381   0.311  0.0565 -1.2415  0.0453
 8389SOL    HW127174  10.071   2.303   0.299 -0.3272 -2.0702  3.0215
 8389SOL    HW227175  10.076   2.454   0.291  0.6462 -2.1977 -2.0327
 8390SOL     OW27176   5.956   0.271   7.278 -0.4734  0.1836 -0.6927
 8390SOL    HW127177   6.046   0.260   7.308 -1.1903 -0.4658  1.3685
 8390SOL    HW227178   5.934   0.362   7.301 -0.4549  0.2383 -0.8895
 8391SOL     OW27179   0.006   6.507   6.250 -0.2358 -0.2984 -0.2021
 8391SOL    HW127180   0.017   6.599   6.228 -0.3914 -0.5417 -1.3624
 8391SOL    HW227181   0.086   6.465   6.220  0.4597 -0.3683  1.5778
 8392SOL     OW27182   1.763   2.551   7.905  0.0287 -0.0936 -0.2776
 8392SOL    HW127183   1.682   2.590   7.937  1.2331 -0.6662  4.1812
 8392SOL    HW227184   1.822   2.625   7.892 -0.1555  0.0827 -0.1128
 8393SOL     OW27185   3.727   8.420   8.324 -0.4478 -0.0683  0.1517
 8393SOL    HW127186   3.670   8.488   8.290  0.6727  0.3574 -0.9682
 8393SOL    HW227187   3.774   8.461   8.396 -1.3917 -0.3692  0.9662
 8394SOL     OW27188   1.887   4.211   0.536 -0.5429 -0.2095  0.0750
 8394SOL    HW127189   1.960   4.273   0.535 -1.0824  0.5393 -2.6773
 8394SOL    HW227190   1.817   4.258   0.581  0.1534 -0.3028  1.2941
 8395SOL     OW27191   2.739   1.944   9.044  0.7850  0.9018 -0.2439
 8395SOL    HW127192   2.805   1.918   9.108  0.9163 -1.4665 -1.2524
 8395SOL    HW227193   2.787   1.949   8.961  0.2056  1.8729 -0.5414
 8396SOL     OW27194   4.676   4.414   8.509  0.2186 -0.2727  0.5914
 8396SOL    HW127195   4.603   4.446   8.561 -1.2095  2.6492 -2.7807
 8396SOL    HW227196   4.738   4.486   8.508  0.6764 -0.6517 -0.8429
 8397SOL     OW27197   4.880  10.323   4.480 -0.1485 -0.0914  0.7290
 8397SOL    HW127198   4.884  10.330   4.575  0.9455  0.5961  0.6407
 8397SOL    HW227199   4.971  10.318   4.452 -0.4220  0.5699 -0.3473
 8398SOL     OW27200   1.123   5.057   6.334 -0.0847 -0.0335  0.8195
 8398SOL    HW127201   1.200   5.000   6.325  0.3463  0.2278  2.4276
 8398SOL    HW227202   1.052   4.997   6.358 -0.2520 -0.1927 -0.0355
 8399SOL     OW27203   1.979   0.927   2.664  0.9510  0.4542  0.3798
 8399SOL    HW127204   1.950   0.963   2.747  1.0628 -2.8215  2.0289
 8399SOL    HW227205   2.071   0.952   2.658  0.8111  1.1462  0.9733
 8400SOL     OW27206   3.659   1.562   6.468 -0.3885 -0.4086  0.4488
 8400SOL    HW127207   3.704   1.601   6.393 -0.9129  1.0316  0.8672
 8400SOL    HW227208   3.574   1.534   6.433 -1.0813  1.2699  0.7217
 8401SOL     OW27209   0.508   9.638  10.131  0.3526  0.0086  0.0444
 8401SOL    HW127210   0.436   9.664  10.075 -0.1478 -1.3749  0.0216
 8401SOL    HW227211   0.587   9.656  10.079 -0.1224 -2.3773 -1.6588
 8402SOL     OW27212   4.010   1.794  10.446  0.3802 -0.0609  0.1120
 8402SOL    HW127213   3.961   1.825  10.522  0.8706  0.3802  0.2570
 8402SOL    HW227214   3.971   1.841  10.372 -1.0778 -1.5840 -0.1294
 8403SOL     OW27215   9.576  10.219   9.731 -0.3829  0.3314  0.1559
 8403SOL    HW127216   9.657  10.250   9.769 -0.5640 -1.0790  1.8535
 8403SOL    HW227217   9.521  10.297   9.723  0.9712  1.2301 -0.6403
 8404SOL     OW27218   0.645   3.132   7.027 -0.3696 -0.0003 -0.2979
 8404SOL    HW127219   0.678   3.174   6.948  1.8662  2.2700  1.6691
 8404SOL    HW227220   0.552   3.156   7.030 -0.2084  0.8908 -1.5938
 8405SOL     OW27221   1.840   0.640   5.951 -0.4735 -0.1971  0.3911
 8405SOL    HW127222   1.916   0.665   5.899  0.8639 -3.8152  0.2977
 8405SOL    HW227223   1.767   0.686   5.910  1.1473  0.6000 -1.8349
 8406SOL     OW27224   2.345   5.765   8.016  0.2039 -0.0259  0.1411
 8406SOL    HW127225   2.328   5.854   8.047  0.4300  0.6333 -1.5061
 8406SOL    HW227226   2.268   5.715   8.043 -1.2358  1.3154 -1.2260
 8407SOL     OW27227   3.823   2.052   3.158 -0.1160  0.0515 -0.7593
 8407SOL    HW127228   3.898   1.998   3.133  0.0305  0.4897 -1.2943
 8407SOL    HW227229   3.784   2.079   3.074  0.9144  2.3069 -0.5721
 8408SOL     OW27230   9.967   0.281   9.428  0.0313  0.3854 -0.2777
 8408SOL    HW127231  10.017   0.357   9.458  2.1943 -1.8178  2.2070
 8408SOL    HW227232  10.027   0.234   9.371 -0.4583 -0.5801 -0.0042
 8409SOL     OW27233   3.000   1.931   9.641  0.3334 -0.4014  0.0885
 8409SOL    HW127234   3.042   1.849   9.619 -2.0431 -2.4696  2.4808
 8409SOL    HW227235   2.936   1.945   9.571 -0.8368 -1.9250  0.7898
 8410SOL     OW27236   1.458   1.641   2.343  0.0708  0.0784  0.7903
 8410SOL    HW127237   1.516   1.695   2.288 -0.3783  0.8636  1.0694
 8410SOL    HW227238   1.395   1.603   2.281 -0.2833  0.7657  0.7164
 8411SOL     OW27239   1.993   7.843   7.034 -0.4088  0.4044 -0.0472
 8411SOL    HW127240   1.999   7.832   6.939 -0.2245 -2.8882  0.2302
 8411SOL    HW227241   1.908   7.884   7.048  0.0581  2.0874 -1.6275
 8412SOL     OW27242   6.640  11.091   7.302 -0.1776  0.3049 -0.8192
 8412SOL    HW127243   6.716  11.038   7.279 -0.2556  0.7712 -2.2624
 8412SOL    HW227244   6.627  11.076   7.395  0.2660 -1.5949 -1.0223
 8413SOL     OW27245   4.104   1.181   6.890  0.2383  0.1532 -0.1781
 8413SOL    HW127246   4.119   1.225   6.806  0.4545  0.3040 -0.0625
 8413SOL    HW227247   4.036   1.233   6.933 -0.9155 -0.7484 -0.8616
 8414SOL     OW27248   3.038   7.306  10.121 -0.2166 -0.5029 -0.3115
 8414SOL    HW127249   3.083   7.307  10.206  1.4643  1.9415 -1.1103
 8414SOL    HW227250   2.947   7.326  10.141 -0.4836 -2.7591  1.1013
 8415SOL     OW27251   6.171   9.093  10.730  0.3516 -0.3140  0.4805
 8415SOL    HW127252   6.152   9.079  10.822 -1.6730 -0.1240  0.1210
 8415SOL    HW227253   6.255   9.049  10.716 -0.0094 -1.5825  2.0781
 8416SOL     OW27254   3.731   5.570   4.843 -0.0726 -0.5483 -0.2709
 8416SOL    HW127255   3.771   5.636   4.899 -2.0141 -1.7900  2.8504
 8416SOL    HW227256   3.658   5.615   4.801 -1.5063 -0.6144  1.9909
 8417SOL     OW27257   2.471   5.588   0.151  0.2409  0.0100 -0.7047
 8417SOL    HW127258   2.454   5.665   0.096  0.4864 -0.7909 -1.9401
 8417SOL    HW227259   2.559   5.560   0.127 -0.2243 -1.2559 -1.0580
 8418SOL     OW27260   3.730   8.816   8.431 -0.6571 -0.1015 -0.0170
 8418SOL    HW127261   3.665   8.872   8.474 -1.0160  0.8543 -1.7188
 8418SOL    HW227262   3.680   8.740   8.401 -0.2701 -1.1438  1.8077
 8419SOL     OW27263   6.567   9.876   8.758  0.5428  0.1719 -0.2704
 8419SOL    HW127264   6.533   9.961   8.790 -0.8810 -0.1534 -0.8438
 8419SOL    HW227265   6.574   9.887   8.664  1.5191  0.0225 -0.2265
 8420SOL     OW27266   5.406   7.208   4.240  0.0010  0.2198  0.2255
 8420SOL    HW127267   5.451   7.248   4.315  2.2797  1.1600 -1.5180
 8420SOL    HW227268   5.411   7.114   4.256  0.1887  0.4069  1.3693
 8421SOL     OW27269   8.844   7.336   0.339 -0.2960 -0.0997 -0.5762
 8421SOL    HW127270   8.915   7.335   0.275 -0.4755 -1.4844 -0.7864
 8421SOL    HW227271   8.820   7.244   0.350 -2.0060  0.3212 -0.4490
 8422SOL     OW27272   4.182   0.740   6.324 -0.1909  0.1509 -0.0122
 8422SOL    HW127273   4.178   0.645   6.316 -1.8611 -0.0187  1.9426
 8422SOL    HW227274   4.274   0.759   6.343 -0.1972 -1.3699  1.8657
 8423SOL     OW27275  10.981   3.328   8.897  0.5894 -0.3093  0.2955
 8423SOL    HW127276  10.981   3.336   8.992  1.3640  2.0587  0.1558
 8423SOL    HW227277  11.032   3.402   8.867 -1.3255  0.1722 -2.0647
 8424SOL     OW27278   4.622   7.064   5.545 -0.2750  0.1966 -0.7035
 8424SOL    HW127279   4.535   7.072   5.508 -0.1302 -0.9224 -1.3126
 8424SOL    HW227280   4.677   7.035   5.472  0.2514 -0.8186  0.0688
 8425SOL     OW27281   3.283   4.379   2.161 -0.1072 -0.6187  0.1225
 8425SOL    HW127282   3.325   4.401   2.245  0.2973  2.0001 -0.6779
 8425SOL    HW227283   3.191   4.402   2.174  0.1878  1.0839 -0.4897
 8426SOL     OW27284   0.707   8.186   2.359 -0.2104  0.1717 -0.1881
 8426SOL    HW127285   0.620   8.150   2.373 -0.4817  1.3058  1.3063
 8426SOL    HW227286   0.718   8.189   2.264 -1.1284 -1.4912 -0.3761
 8427SOL     OW27287   5.258   6.316   7.274 -0.1362 -0.0851  0.6228
 8427SOL    HW127288   5.321   6.250   7.243 -0.4220  0.1242 -0.4457
 8427SOL    HW227289   5.313   6.384   7.312  0.4127  0.6322 -1.3130
 8428SOL     OW27290   3.413   2.957   0.890 -0.2483 -0.2590  0.0556
 8428SOL    HW127291   3.444   2.923   0.806  0.6749 -1.7374  0.9485
 8428SOL    HW227292   3.453   2.899   0.955 -1.1998  0.6569  1.5005
 8429SOL     OW27293   1.919   4.663   8.177 -0.2201 -0.1730  0.0407
 8429SOL    HW127294   1.926   4.739   8.235 -0.9150 -0.6463  0.7758
 8429SOL    HW227295   1.923   4.588   8.236  1.0612 -0.7380 -0.7375
 8430SOL     OW27296   2.968   3.185   0.979  0.1808  0.2254 -0.9300
 8430SOL    HW127297   2.900   3.191   0.912 -0.6541 -0.2144 -0.1365
 8430SOL    HW227298   2.921   3.180   1.062  1.1898  0.4394 -0.3177
 8431SOL     OW27299   4.867  10.847   0.163  0.1567  0.3067  0.0124
 8431SOL    HW127300   4.959  10.824   0.177  0.5223  1.6778 -0.0095
 8431SOL    HW227301   4.830  10.770   0.119  1.4657  0.0245 -0.6705
 8432SOL     OW27302   6.958   9.475  11.038  0.1058  0.1470  0.3299
 8432SOL    HW127303   6.993   9.453  10.952 -1.7027 -0.6633 -0.2443
 8432SOL    HW227304   6.973   9.570  11.046 -0.1650  0.3375 -1.1202
 8433SOL     OW27305   1.026  10.517   7.642 -0.5159 -0.1956  0.8415
 8433SOL    HW127306   1.087  10.444   7.644  0.1235  0.2444 -0.7314
 8433SOL    HW227307   0.980  10.513   7.726  0.9544 -1.1391  1.6376
 8434SOL     OW27308   7.712   2.088   6.692 -0.0812  0.0620 -0.5643
 8434SOL    HW127309   7.724   2.135   6.609  0.4454  0.7807 -0.1054
 8434SOL    HW227310   7.706   2.158   6.758 -0.4631 -0.4962  0.0037
 8435SOL     OW27311   3.619   4.702   6.099  0.2950  0.1636  0.0846
 8435SOL    HW127312   3.679   4.677   6.029 -0.4748  0.2900 -0.6324
 8435SOL    HW227313   3.587   4.788   6.074  1.4387  1.0767  1.5588
 8436SOL     OW27314   7.573   2.659   2.827  0.1774  0.4813  0.3116
 8436SOL    HW127315   7.589   2.574   2.785 -0.9860  1.2610 -1.8341
 8436SOL    HW227316   7.656   2.706   2.818  0.1661  0.3600 -0.4330
 8437SOL     OW27317   7.503  10.127   7.090 -0.4764  0.5473 -0.9390
 8437SOL    HW127318   7.539  10.047   7.128 -0.9860  0.1287 -1.3199
 8437SOL    HW227319   7.579  10.179   7.065 -0.1427  0.3158 -0.4071
 8438SOL     OW27320   3.345   8.088  11.027 -0.0297  0.0689  0.0000
 8438SOL    HW127321   3.335   8.029  11.102 -0.1334  1.2538  0.9393
 8438SOL    HW227322   3.439   8.101  11.020 -0.0647  0.5519  0.4019
 8439SOL     OW27323   3.942  10.276   4.590 -0.0373  0.7056 -0.3239
 8439SOL    HW127324   3.885  10.272   4.513 -0.6392  1.6578  0.0435
 8439SOL    HW227325   4.029  10.293   4.555 -0.0818 -0.1294 -0.8617
 8440SOL     OW27326   3.824  11.049   7.051  0.4523  0.3083  0.5895
 8440SOL    HW127327   3.877  11.005   7.117 -0.3311 -0.6398  0.6213
 8440SOL    HW227328   3.762  11.102   7.102  0.2709  0.0878  0.5978
 8441SOL     OW27329   4.620   3.583  10.328 -0.1478  0.7887 -0.1737
 8441SOL    HW127330   4.635   3.506  10.383 -0.8608 -0.4788 -1.6594
 8441SOL    HW227331   4.603   3.547  10.241 -2.1765  2.5116 -0.5896
 8442SOL     OW27332   4.983   8.893   2.336 -0.0069 -0.4936 -0.4926
 8442SOL    HW127333   4.914   8.871   2.274 -0.4027 -0.7523  0.0306
 8442SOL    HW227334   4.936   8.928   2.412  0.4206 -0.9420 -0.0150
 8443SOL     OW27335   4.799   8.310   7.895  0.1884 -0.3653 -0.6657
 8443SOL    HW127336   4.858   8.235   7.885  0.3317 -0.2579 -0.6255
 8443SOL    HW227337   4.833   8.357   7.971  1.1218  0.6823 -1.7022
 8444SOL     OW27338   4.154   7.079   8.938  0.0618 -0.2040  0.0523
 8444SOL    HW127339   4.180   7.090   8.847  0.5075 -3.2184 -0.2791
 8444SOL    HW227340   4.227   7.117   8.988  0.5143  0.1255 -0.8309
 8445SOL     OW27341  10.874   0.982  10.722 -0.1816 -0.4592 -0.1025
 8445SOL    HW127342  10.937   0.976  10.651  0.4017  2.1859  0.0804
 8445SOL    HW227343  10.928   0.995  10.801 -0.8454  1.9366  0.0440
 8446SOL     OW27344   2.234   2.873   8.783 -0.7429  0.3384 -0.4938
 8446SOL    HW127345   2.237   2.969   8.776 -0.6242  0.3045 -0.9077
 8446SOL    HW227346   2.320   2.849   8.818  0.1183  0.2088 -2.5546
 8447SOL     OW27347   3.283   4.832   8.391 -0.4773 -0.0792  0.1406
 8447SOL    HW127348   3.241   4.847   8.306 -0.2955  2.1402  0.3684
 8447SOL    HW227349   3.215   4.854   8.455  0.3023  1.3323  0.5228
 8448SOL     OW27350   5.423   7.209  11.002 -0.7355 -0.5477  0.2249
 8448SOL    HW127351   5.358   7.278  11.009 -1.0195 -0.9827  3.1597
 8448SOL    HW227352   5.441   7.202  10.908 -3.4688  0.8809 -0.5036
 8449SOL     OW27353   3.841   5.868   4.342 -0.3014 -0.2660  0.2213
 8449SOL    HW127354   3.852   5.910   4.256  1.4309  0.7330  0.8640
 8449SOL    HW227355   3.920   5.814   4.352  0.1011  0.5355  1.6338
 8450SOL     OW27356   0.233  10.327  10.278 -0.2736  0.4290 -0.1477
 8450SOL    HW127357   0.240  10.347  10.185 -0.9588 -0.2441 -0.3535
 8450SOL    HW227358   0.279  10.399  10.322 -0.6908  1.2108 -0.9629
 8451SOL     OW27359   0.356   6.837   8.646 -0.1234 -0.3129 -0.1514
 8451SOL    HW127360   0.336   6.865   8.735 -1.7892  0.1832 -0.6476
 8451SOL    HW227361   0.319   6.750   8.639  0.6136 -0.6366 -0.1708
 8452SOL     OW27362   4.639   3.786   5.458 -0.1160 -0.2453  0.1136
 8452SOL    HW127363   4.617   3.775   5.365  1.5946  0.1107 -0.3665
 8452SOL    HW227364   4.608   3.705   5.499 -0.9618 -0.3812 -0.7380
 8453SOL     OW27365   2.218   5.878   9.616 -0.3005  0.4524  0.1663
 8453SOL    HW127366   2.276   5.917   9.683 -0.4409  0.1295  0.4767
 8453SOL    HW227367   2.177   5.954   9.574 -0.0968  0.6649  0.3450
 8454SOL     OW27368   3.581   3.134  10.373  0.2180  0.3673 -0.0371
 8454SOL    HW127369   3.567   3.168  10.462  2.9061 -0.4237  0.8053
 8454SOL    HW227370   3.515   3.066  10.362 -1.7430  2.1387  0.3536
 8455SOL     OW27371   1.840   4.867   8.690  0.1012  0.2848 -0.0210
 8455SOL    HW127372   1.849   4.905   8.603 -1.4133  1.5900  0.3536
 8455SOL    HW227373   1.930   4.855   8.720  0.6473  1.7575 -0.9452
 8456SOL     OW27374   6.612   6.901  10.704 -0.1210 -1.1796  0.0440
 8456SOL    HW127375   6.673   6.835  10.737 -0.4386 -1.3336  0.3338
 8456SOL    HW227376   6.591   6.954  10.781 -0.7279 -1.4249  0.0473
 8457SOL     OW27377  11.007   1.489   9.023  0.4397  0.1124 -0.2563
 8457SOL    HW127378  11.094   1.501   9.060 -0.0278  1.5419  0.4871
 8457SOL    HW227379  10.987   1.573   8.981 -0.2511 -0.4817 -1.1539
 8458SOL     OW27380   0.539   5.155   3.126  0.4005  0.0969 -0.2176
 8458SOL    HW127381   0.569   5.066   3.108 -1.1658 -0.4163 -0.4188
 8458SOL    HW227382   0.539   5.199   3.040 -2.2495 -0.8412 -0.8061
 8459SOL     OW27383   5.479   4.118   9.175 -0.0598 -0.2690  0.0058
 8459SOL    HW127384   5.477   4.089   9.084  1.0033 -1.3508  0.3001
 8459SOL    HW227385   5.565   4.089   9.207 -1.0993 -1.5081  1.8529
 8460SOL     OW27386   5.402   0.556   3.557  0.5207  0.0128 -0.2855
 8460SOL    HW127387   5.328   0.513   3.601  2.1335  0.4494  3.2283
 8460SOL    HW227388   5.369   0.643   3.534 -0.7749 -0.6980 -1.2770
 8461SOL     OW27389  10.534  10.389   0.924  0.5380 -0.2175  0.6336
 8461SOL    HW127390  10.485  10.421   0.849  0.5563 -0.5992  0.4536
 8461SOL    HW227391  10.499  10.437   0.999 -1.0943 -1.4829  0.7208
 8462SOL     OW27392   4.203  10.043   0.988 -0.0006 -0.4227  0.3239
 8462SOL    HW127393   4.239   9.992   1.061 -1.9767 -0.7241  1.1665
 8462SOL    HW227394   4.279  10.074   0.940  1.3274 -1.8111  1.4289
 8463SOL     OW27395   1.257   1.359   7.998  0.0163  0.1848  0.1832
 8463SOL    HW127396   1.268   1.425   7.931 -0.8702  0.0709 -0.0899
 8463SOL    HW227397   1.191   1.395   8.057 -3.0718 -1.7969 -1.8092
 8464SOL     OW27398   9.263   5.838   5.404  0.7891 -0.1747 -0.0071
 8464SOL    HW127399   9.205   5.879   5.468  1.3838  0.9591 -0.1647
 8464SOL    HW227400   9.225   5.861   5.319  1.8441  1.2384 -0.1382
 8465SOL     OW27401   7.786  10.580   8.049  0.0345  0.5550  0.0049
 8465SOL    HW127402   7.752  10.604   7.963 -0.4422  0.4318  0.1577
 8465SOL    HW227403   7.710  10.550   8.098  0.2966  0.6463  0.4814
 8466SOL     OW27404   7.553   9.016   4.950  0.2551 -0.2884  0.2595
 8466SOL    HW127405   7.560   8.929   4.910  0.3865  0.8251 -2.3448
 8466SOL    HW227406   7.630   9.063   4.919 -0.0165  0.8809  1.2974
 8467SOL     OW27407   4.079   0.816  10.178 -0.0531 -0.4869  0.1134
 8467SOL    HW127408   4.150   0.841  10.238 -1.5610 -0.0856  1.8000
 8467SOL    HW227409   4.016   0.771  10.233 -0.7086 -1.6725 -1.5461
 8468SOL     OW27410   4.538   7.667   3.597 -0.2077 -0.0103  0.4555
 8468SOL    HW127411   4.448   7.675   3.566 -0.1592 -0.6475  0.1288
 8468SOL    HW227412   4.587   7.728   3.542 -0.2258 -0.6704 -0.3157
 8469SOL     OW27413  10.425   8.411  10.871  0.0522  0.5861  0.2936
 8469SOL    HW127414  10.383   8.328  10.850 -1.2038  1.0976  0.6750
 8469SOL    HW227415  10.432   8.412  10.966  2.6120 -0.2531  0.1710
 8470SOL     OW27416   1.436  10.489   7.800 -0.0428  0.2151  0.2200
 8470SOL    HW127417   1.491  10.435   7.857 -0.7070 -0.2221  0.4560
 8470SOL    HW227418   1.461  10.579   7.821  0.5614  0.0263  0.3406
 8471SOL     OW27419   4.066   7.469   9.166 -0.5542  0.0138 -0.3636
 8471SOL    HW127420   4.044   7.416   9.090  0.5668 -1.9386  0.5839
 8471SOL    HW227421   3.986   7.469   9.219 -0.2539 -1.7269  0.1397
 8472SOL     OW27422   7.333   1.673   2.046 -1.0571 -0.2016  0.1718
 8472SOL    HW127423   7.380   1.724   1.980  0.0755  0.3635  1.3790
 8472SOL    HW227424   7.396   1.608   2.075 -2.4157 -2.2391 -1.1853
 8473SOL     OW27425   3.905   2.538   2.069 -0.5477  0.3460 -0.2545
 8473SOL    HW127426   3.829   2.483   2.081  0.4933 -0.9642  0.5991
 8473SOL    HW227427   3.942   2.549   2.157  0.0311  1.2893 -0.5927
 8474SOL     OW27428   7.118   2.553   1.845  0.1835  0.3774  0.7591
 8474SOL    HW127429   7.090   2.481   1.902 -1.8086  0.8223  0.4286
 8474SOL    HW227430   7.193   2.517   1.797 -0.7887 -1.5179  0.5410
 8475SOL     OW27431   9.622   9.337   3.442  0.3195 -0.5799  0.4564
 8475SOL    HW127432   9.660   9.320   3.356 -0.6330 -0.4821 -0.0016
 8475SOL    HW227433   9.651   9.425   3.465  0.9376 -0.7791  0.4361
 8476SOL     OW27434   0.459   9.069   8.634  0.1641 -0.0172  0.5500
 8476SOL    HW127435   0.511   9.035   8.561  1.3355  0.6188  1.0570
 8476SOL    HW227436   0.413   9.145   8.597 -1.6637 -1.4402 -0.3068
 8477SOL     OW27437  10.784   0.923   8.129 -0.3070 -0.2345  0.2334
 8477SOL    HW127438  10.693   0.893   8.131  0.3718 -2.5620 -0.0943
 8477SOL    HW227439  10.800   0.944   8.037 -0.5046  0.1716  0.2903
 8478SOL     OW27440   1.125   5.099   9.647 -0.2106  0.0880 -0.0415
 8478SOL    HW127441   1.114   5.173   9.707  1.1928 -0.2311  0.6361
 8478SOL    HW227442   1.147   5.025   9.704  1.3296 -0.1841 -0.9436
 8479SOL     OW27443   4.964   3.917   0.047  0.0897  0.3288  0.1053
 8479SOL    HW127444   5.022   3.885   0.116 -0.7458 -0.3696  0.5155
 8479SOL    HW227445   5.005   3.998   0.016  1.1060  0.0149  0.5837
 8480SOL     OW27446   7.562   9.734   4.081 -0.1342  0.4491  0.2260
 8480SOL    HW127447   7.538   9.643   4.093 -1.4720  0.5073 -1.5107
 8480SOL    HW227448   7.528   9.779   4.159 -1.1403 -0.2667  0.2152
 8481SOL     OW27449   1.232   9.307   4.320 -0.3498 -0.0027  0.4346
 8481SOL    HW127450   1.299   9.375   4.318 -0.9949  0.6727  1.1376
 8481SOL    HW227451   1.278   9.228   4.349  0.4855  0.0137 -0.7785
 8482SOL     OW27452   2.473   1.195   3.255  0.8296  0.3409  0.3985
 8482SOL    HW127453   2.412   1.140   3.304  0.7537 -0.3426 -0.4276
 8482SOL    HW227454   2.421   1.269   3.225  0.8579  0.7215  1.2650
 8483SOL     OW27455  10.373   6.395   1.562 -0.2994 -0.6577 -0.1592
 8483SOL    HW127456  10.414   6.395   1.648  2.1765 -1.9060 -1.2313
 8483SOL    HW227457  10.410   6.472   1.518  1.3403 -2.0040 -1.2667
 8484SOL     OW27458   6.408   6.427   0.662  0.4706 -0.2617  0.0271
 8484SOL    HW127459   6.462   6.453   0.587 -0.3081 -1.2811 -0.9277
 8484SOL    HW227460   6.319   6.453   0.637  0.3539  0.4652  1.1345
 8485SOL     OW27461   2.081   6.402   6.935  0.5422 -0.0670 -0.6429
 8485SOL    HW127462   2.094   6.487   6.977  1.3479 -0.5713  0.1401
 8485SOL    HW227463   2.151   6.396   6.870  1.1027 -0.5511 -0.0068
 8486SOL     OW27464   1.637   3.136   9.878  0.4166  0.8043  0.7463
 8486SOL    HW127465   1.642   3.209   9.940  0.9923  0.9922  0.4856
 8486SOL    HW227466   1.716   3.144   9.825 -0.5897  1.2781 -0.7257
 8487SOL     OW27467   4.867   0.300   7.740 -0.0008 -0.0298  0.1810
 8487SOL    HW127468   4.842   0.390   7.718 -1.2929 -0.1671  0.9991
 8487SOL    HW227469   4.962   0.300   7.736 -0.0072  1.2235 -0.4176
 8488SOL     OW27470   6.330   3.710  10.449 -0.1578  0.0678  0.4002
 8488SOL    HW127471   6.318   3.633  10.394  0.6082  0.7599 -0.7616
 8488SOL    HW227472   6.409   3.752  10.417  1.0475 -0.1416  2.8294
 8489SOL     OW27473  11.047   3.081   8.035  0.3076 -0.4049  0.0995
 8489SOL    HW127474  11.100   3.152   7.997  0.7989 -0.9504 -0.2487
 8489SOL    HW227475  11.051   3.011   7.970  2.5698 -2.0392  1.8204
 8490SOL     OW27476  10.283   5.076   6.369  0.0554  0.2453  0.7070
 8490SOL    HW127477  10.355   5.058   6.309  0.2808 -1.3733  1.4292
 8490SOL    HW227478  10.231   5.142   6.324  2.3538  2.0480  0.4849
 8491SOL     OW27479   6.990   4.789   9.064  0.4699  0.4015  0.1175
 8491SOL    HW127480   6.958   4.700   9.082 -0.2943  0.1751 -2.1055
 8491SOL    HW227481   6.912   4.844   9.075  1.4188  1.2875  3.9470
 8492SOL     OW27482   8.126   2.070   0.618  0.0322  0.1297 -0.3030
 8492SOL    HW127483   8.064   2.131   0.578  0.5405  0.3481 -0.7647
 8492SOL    HW227484   8.171   2.029   0.544  0.9969  0.5494  0.0359
 8493SOL     OW27485   1.056   3.197   6.595 -0.5018  0.0076  0.3065
 8493SOL    HW127486   0.975   3.237   6.563 -0.4829 -0.7138 -0.6784
 8493SOL    HW227487   1.093   3.154   6.519  0.3732 -0.4072  0.9526
 8494SOL     OW27488   8.429   3.686   8.999 -0.3458  0.3728 -0.6009
 8494SOL    HW127489   8.370   3.727   9.062  0.0797 -2.3906  1.7906
 8494SOL    HW227490   8.517   3.713   9.026 -0.2620  2.0123 -2.2904
 8495SOL     OW27491   4.097  10.225   7.580  0.0903  0.2877  0.0184
 8495SOL    HW127492   4.029  10.255   7.520 -2.4501 -0.0472  2.5001
 8495SOL    HW227493   4.088  10.130   7.581 -0.2042  0.3106  1.1875
 8496SOL     OW27494   2.988   5.059   8.397 -0.1676 -0.0700 -0.1495
 8496SOL    HW127495   2.912   5.024   8.350 -0.5945  1.3420 -0.5578
 8496SOL    HW227496   2.982   5.154   8.386  1.4397  0.1035  0.1608
 8497SOL     OW27497   3.846   6.796   5.443 -0.0519 -0.1986  0.2265
 8497SOL    HW127498   3.934   6.834   5.443  0.2690 -0.9258 -0.0358
 8497SOL    HW227499   3.802   6.839   5.517 -0.5498  2.5621 -1.5327
 8498SOL     OW27500  10.609   8.827  11.003  0.5119 -0.1534  0.5921
 8498SOL    HW127501  10.674   8.799  11.068 -0.1452 -0.9624  0.9237
 8498SOL    HW227502  10.654   8.820  10.919  1.4152  1.0399  0.9549
 8499SOL     OW27503   9.424   1.880   5.700  0.1146  0.3630 -0.3976
 8499SOL    HW127504   9.459   1.969   5.702  0.4524  0.2377  1.8418
 8499SOL    HW227505   9.370   1.874   5.779  0.5680 -1.5892 -0.1957
 8500SOL     OW27506   7.809   3.138   4.502 -0.3427 -0.1865  0.2814
 8500SOL    HW127507   7.821   3.220   4.455  0.0642 -0.1125  0.5085
 8500SOL    HW227508   7.868   3.144   4.577 -2.0213  0.3100  1.6283
 8501SOL     OW27509   8.370   1.557   7.991 -0.2136  0.2835  0.4180
 8501SOL    HW127510   8.323   1.474   7.998  1.3206 -0.7464 -0.7634
 8501SOL    HW227511   8.411   1.569   8.076  0.3262 -0.6670  0.2978
 8502SOL     OW27512   4.302   8.464   5.384 -0.0068 -0.3679 -0.3516
 8502SOL    HW127513   4.252   8.427   5.311 -0.0207 -0.4865 -0.2827
 8502SOL    HW227514   4.381   8.499   5.343  0.2241 -0.8875 -0.3636
 8503SOL     OW27515   6.510   2.457   0.624 -0.0066  0.4674  0.1163
 8503SOL    HW127516   6.533   2.461   0.717 -0.5975  0.1946  0.2732
 8503SOL    HW227517   6.558   2.382   0.590  0.6366  0.8863  0.0758
 8504SOL     OW27518  10.099   8.372   0.749  0.1524 -0.9361  0.6190
 8504SOL    HW127519  10.027   8.323   0.789  0.8931 -2.0923  0.5784
 8504SOL    HW227520  10.092   8.353   0.655  0.6688 -1.2546  0.6461
 8505SOL     OW27521   6.367   1.875   1.014  0.3164 -0.4161 -0.3977
 8505SOL    HW127522   6.408   1.797   0.976 -1.5813 -0.2475 -2.9923
 8505SOL    HW227523   6.428   1.946   0.994 -0.8383 -0.2370 -3.8566
 8506SOL     OW27524   2.213   2.029   2.996  0.4624  0.6962 -0.1510
 8506SOL    HW127525   2.303   2.033   3.029  1.0368 -2.0903 -1.0694
 8506SOL    HW227526   2.222   2.041   2.902  0.1594 -1.2742 -0.4770
 8507SOL     OW27527   8.696   4.144   4.447 -0.2430  0.1124 -0.3051
 8507SOL    HW127528   8.708   4.159   4.541 -0.8100  0.3037 -0.2597
 8507SOL    HW227529   8.601   4.144   4.435 -0.1882 -0.6408 -0.7674
 8508SOL     OW27530   6.966   3.440   7.480 -0.2896  0.0616 -0.0858
 8508SOL    HW127531   6.938   3.454   7.571 -2.3517 -2.7866 -0.1282
 8508SOL    HW227532   6.901   3.485   7.427 -1.2167 -1.2692 -0.1256
 8509SOL     OW27533   0.308   0.276   0.457 -0.0401 -0.3934  0.0233
 8509SOL    HW127534   0.264   0.316   0.382  0.9870  0.4809 -0.1401
 8509SOL    HW227535   0.386   0.234   0.421  0.8240  0.6099  0.6501
 8510SOL     OW27536   9.100  10.059   9.299 -0.0448 -0.4034  0.8993
 8510SOL    HW127537   9.131  10.110   9.224 -1.4179  0.6949  1.0340
 8510SOL    HW227538   9.070   9.977   9.261 -1.9951  0.6509 -0.0419
 8511SOL     OW27539   1.950   3.488   7.160  0.3647  0.0622 -0.4012
 8511SOL    HW127540   1.913   3.452   7.080 -2.5215  1.4360  0.1898
 8511SOL    HW227541   1.874   3.520   7.210  2.0069 -0.8460  2.9680
 8512SOL     OW27542   4.317   2.629   0.370  0.4266  0.6634  0.6683
 8512SOL    HW127543   4.320   2.673   0.286 -2.3866 -0.9862 -0.4088
 8512SOL    HW227544   4.237   2.661   0.412  1.6183  1.2439  2.6585
 8513SOL     OW27545   0.562   7.123  10.110 -0.2636  0.6508  0.6364
 8513SOL    HW127546   0.635   7.071  10.079 -2.6269 -2.8596  0.4157
 8513SOL    HW227547   0.526   7.163  10.030 -1.5729 -1.9069 -0.1698
 8514SOL     OW27548  10.285   2.291   6.792  0.2974 -0.1162  0.3297
 8514SOL    HW127549  10.243   2.280   6.877  0.1456  0.5803  0.3472
 8514SOL    HW227550  10.369   2.333   6.811  0.8076 -1.0689  0.2484
 8515SOL     OW27551   2.784   2.364   9.994  0.3746  0.5169  0.1103
 8515SOL    HW127552   2.847   2.299   9.963 -1.5796 -1.3229 -0.2271
 8515SOL    HW227553   2.710   2.356   9.933  0.3162  3.6292 -0.4092
 8516SOL     OW27554   1.881   5.971   9.584  0.1523  0.2971  0.8698
 8516SOL    HW127555   1.903   5.892   9.634 -0.2374  1.3712  2.8442
 8516SOL    HW227556   1.810   5.944   9.526  0.7740 -1.0529  0.7015
 8517SOL     OW27557   7.486   8.312  10.113 -0.4420 -0.4021 -0.4231
 8517SOL    HW127558   7.427   8.387  10.115 -0.7474 -0.6523  0.1636
 8517SOL    HW227559   7.493   8.289  10.021  0.3562  0.8927 -0.7247
 8518SOL     OW27560  10.863   0.291   5.664  0.5102  0.4681  0.1426
 8518SOL    HW127561  10.888   0.232   5.735 -1.3199  0.2270  0.6624
 8518SOL    HW227562  10.808   0.357   5.706 -1.7148 -0.4144 -1.1479
 8519SOL     OW27563   4.711   0.939   0.977 -0.6899 -0.2285  0.4095
 8519SOL    HW127564   4.790   0.994   0.981 -1.0459  0.2606  0.8806
 8519SOL    HW227565   4.639   1.001   0.986 -1.1440 -0.6366 -0.4059
 8520SOL     OW27566   2.117   3.550   4.689  0.1828  0.0346  0.0851
 8520SOL    HW127567   2.056   3.500   4.635  1.8877  0.7342 -2.7087
 8520SOL    HW227568   2.062   3.612   4.736 -1.4598 -0.8211 -0.6436
 8521SOL     OW27569   3.020   3.950   6.816  0.3937 -0.8641  0.2313
 8521SOL    HW127570   2.936   3.961   6.860  0.0818 -0.0828 -0.5335
 8521SOL    HW227571   3.084   3.945   6.888  0.0017  1.3031  0.8115
 8522SOL     OW27572   4.353   5.180   8.402  0.2906  0.1317 -0.3321
 8522SOL    HW127573   4.432   5.128   8.417  1.0615  1.2228 -0.4659
 8522SOL    HW227574   4.381   5.271   8.415 -1.3443  0.4635  1.3801
 8523SOL     OW27575   5.924   3.551  10.568 -0.2725  0.3139 -0.5658
 8523SOL    HW127576   5.923   3.470  10.619 -0.9866  0.6277 -0.0646
 8523SOL    HW227577   5.982   3.532  10.494  1.7016  0.2199  0.9285
 8524SOL     OW27578   1.454   9.908   4.694  0.2009 -0.1955  0.0103
 8524SOL    HW127579   1.475   9.844   4.626  0.2081  0.5582 -0.7077
 8524SOL    HW227580   1.539   9.939   4.725  0.1930  0.2705 -0.4217
 8525SOL     OW27581   1.010   1.253   4.970 -0.0038  0.2195 -0.6577
 8525SOL    HW127582   1.047   1.210   4.893 -1.0612 -1.4149 -0.3127
 8525SOL    HW227583   0.929   1.204   4.988  0.8503 -0.2936  2.2347
 8526SOL     OW27584   3.874   7.756   9.278  0.4746  0.2034 -0.2941
 8526SOL    HW127585   3.784   7.723   9.284  0.3058  0.6384 -0.4532
 8526SOL    HW227586   3.868   7.834   9.224  1.0013  0.0508 -0.5796
 8527SOL     OW27587   0.970  10.439   2.433  0.7090 -0.2112  0.1107
 8527SOL    HW127588   0.974  10.344   2.434 -2.3516 -0.5023 -1.1957
 8527SOL    HW227589   0.884  10.460   2.470  0.1905  1.8145 -1.9444
 8528SOL     OW27590   0.498   9.251  10.401 -0.0712  0.4886  0.1484
 8528SOL    HW127591   0.512   9.170  10.450  0.9078  0.9869  0.7233
 8528SOL    HW227592   0.536   9.234  10.315  1.4178  0.7608  0.7016
 8529SOL     OW27593   2.505   8.909   2.520 -0.4381  0.3755  0.0289
 8529SOL    HW127594   2.566   8.836   2.513 -0.8331 -0.0233  0.6360
 8529SOL    HW227595   2.521   8.947   2.607  0.3103  1.5233 -0.5789
 8530SOL     OW27596   8.643   1.324   1.304 -0.0620 -0.3284  0.8866
 8530SOL    HW127597   8.691   1.262   1.248 -0.1373  0.3769  0.0150
 8530SOL    HW227598   8.625   1.399   1.247 -1.2983 -0.1388  1.4849
 8531SOL     OW27599   3.929   0.958   2.711  0.1258 -0.3064  0.1814
 8531SOL    HW127600   4.023   0.962   2.694  0.2675 -0.1182  0.9463
 8531SOL    HW227601   3.889   1.000   2.636  0.6826  0.0237  0.0606
 8532SOL     OW27602   0.260   2.718   7.295 -0.1269 -0.5327 -0.0132
 8532SOL    HW127603   0.311   2.709   7.375 -0.6098 -2.0209  0.1570
 8532SOL    HW227604   0.172   2.689   7.319 -1.0638  1.7970 -0.3512
 8533SOL     OW27605   4.291   9.325   8.142 -0.0746  0.5065  0.4506
 8533SOL    HW127606   4.337   9.363   8.067 -0.3534  1.2323  0.6393
 8533SOL    HW227607   4.346   9.348   8.217 -0.4439  0.8959  0.6107
 8534SOL     OW27608   3.693   2.487   0.483  0.6476 -0.1848 -0.4097
 8534SOL    HW127609   3.732   2.574   0.476  0.6603 -0.2583 -1.2883
 8534SOL    HW227610   3.603   2.503   0.513  0.3127  0.2102 -1.5877
 8535SOL     OW27611   4.553   0.855   6.864  0.3347 -0.2332 -0.5297
 8535SOL    HW127612   4.535   0.770   6.905  1.0726 -0.2905 -0.3005
 8535SOL    HW227613   4.475   0.908   6.881 -0.7631 -1.3203 -1.9133
 8536SOL     OW27614   8.517   4.105   7.974 -0.1159  0.4219  0.0500
 8536SOL    HW127615   8.606   4.073   7.957  0.8639  2.9873 -0.1749
 8536SOL    HW227616   8.488   4.142   7.891 -1.3824 -0.2711  0.1616
 8537SOL     OW27617   6.029  10.812   5.145 -0.3263  0.2519 -0.9728
 8537SOL    HW127618   6.086  10.736   5.153 -1.3909 -0.5397 -0.5593
 8537SOL    HW227619   6.088  10.887   5.152  0.5877 -0.5213  0.1246
 8538SOL     OW27620  10.099   0.944   3.336  0.2531 -0.2005  0.3108
 8538SOL    HW127621  10.160   1.017   3.329  1.1303 -0.9807 -0.6447
 8538SOL    HW227622  10.156   0.866   3.340 -0.6683 -0.8898  0.2954
 8539SOL     OW27623   5.958   2.477   7.395  0.5506  0.0959 -0.0714
 8539SOL    HW127624   5.908   2.544   7.442  0.9801  0.1127  0.3715
 8539SOL    HW227625   5.911   2.396   7.414  0.6278  0.1257  0.2577
 8540SOL     OW27626   3.529   4.827  10.254  0.0919  0.2475  0.5074
 8540SOL    HW127627   3.514   4.887  10.180 -0.9361 -0.7346 -0.1171
 8540SOL    HW227628   3.530   4.740  10.214 -1.1912 -0.3595  1.7277
 8541SOL     OW27629   0.930   9.708  10.114  0.2015 -0.0766 -0.1762
 8541SOL    HW127630   0.926   9.669  10.201  2.2977  0.9092  0.4357
 8541SOL    HW227631   1.013   9.678  10.078  0.6635  1.7216 -0.6964
 8542SOL     OW27632   5.148   4.022   0.875 -0.2263  0.0001  0.0747
 8542SOL    HW127633   5.207   3.947   0.867  0.5398  0.4081  1.5445
 8542SOL    HW227634   5.200   4.096   0.845 -1.0708 -0.0475 -1.6375
 8543SOL     OW27635   9.367   1.474   2.721 -0.6079  0.4262  0.3055
 8543SOL    HW127636   9.394   1.391   2.761  2.9721  1.0326 -0.5107
 8543SOL    HW227637   9.297   1.449   2.660 -2.1769 -1.3465  2.6348
 8544SOL     OW27638   4.768   9.750   5.537  0.4495  1.1195 -0.4291
 8544SOL    HW127639   4.859   9.727   5.518  0.5338 -0.6319  1.7415
 8544SOL    HW227640   4.769   9.775   5.629 -1.6109 -1.2523  0.3266
 8545SOL     OW27641   5.863   1.391  10.272  0.1965  0.0194 -0.5040
 8545SOL    HW127642   5.910   1.472  10.293 -0.4783  1.4324 -3.8759
 8545SOL    HW227643   5.931   1.324  10.273  0.9025  0.6639  1.6261
 8546SOL     OW27644   8.776  10.607   1.255  0.1632  0.4912  0.4720
 8546SOL    HW127645   8.868  10.621   1.277  0.5219 -0.4604 -0.3810
 8546SOL    HW227646   8.758  10.516   1.280  0.2035 -0.1847 -1.7489
 8547SOL     OW27647   9.994   4.414   7.465 -0.1142  0.0883  0.6950
 8547SOL    HW127648   9.925   4.399   7.530  0.3493  0.6089  1.3212
 8547SOL    HW227649   9.959   4.377   7.384 -1.1301  0.3374  1.0014
 8548SOL     OW27650   8.761   8.415  11.090 -0.6226  0.2621  0.6251
 8548SOL    HW127651   8.768   8.340  11.150 -0.3757 -1.7880 -1.7945
 8548SOL    HW227652   8.847   8.456  11.092  0.7385 -2.2453 -1.2067
 8549SOL     OW27653   3.340   7.493   3.814 -0.0891  0.5011  0.1454
 8549SOL    HW127654   3.340   7.399   3.834  1.6742 -0.1066 -2.1844
 8549SOL    HW227655   3.433   7.517   3.813 -0.4439  1.9674 -0.5064
 8550SOL     OW27656   4.931   3.737   7.255  0.1977  0.6223  0.2649
 8550SOL    HW127657   4.849   3.772   7.289 -1.4737 -2.2772 -0.4844
 8550SOL    HW227658   4.936   3.648   7.290  2.6671  0.4464 -0.3370
 8551SOL     OW27659   1.190   3.390   0.189  0.2368 -0.1206 -0.5360
 8551SOL    HW127660   1.116   3.361   0.243 -0.4875 -0.0557 -1.4535
 8551SOL    HW227661   1.231   3.459   0.239  0.4372 -1.0032  0.5557
 8552SOL     OW27662   1.644   8.269   9.135  0.0493  0.3085  0.2510
 8552SOL    HW127663   1.732   8.306   9.140  1.2727 -2.4108  0.6423
 8552SOL    HW227664   1.602   8.297   9.216  1.5052 -0.5177  1.3369
 8553SOL     OW27665   2.079  11.010   3.762 -0.5672  0.2300 -0.4325
 8553SOL    HW127666   2.111  10.977   3.678 -0.0377 -0.0298 -0.1291
 8553SOL    HW227667   2.087  11.106   3.754 -1.8356  0.2987 -1.2017
 8554SOL     OW27668   4.832   4.059   4.200  0.3955 -0.7340 -0.3741
 8554SOL    HW127669   4.742   4.032   4.180  0.5201 -0.8542 -0.7816
 8554SOL    HW227670   4.826   4.102   4.286  0.0243 -1.1286 -0.2028
 8555SOL     OW27671   2.081   8.641   9.096  0.0083 -1.0436  0.5208
 8555SOL    HW127672   2.145   8.711   9.094  1.7148 -2.4565 -2.7223
 8555SOL    HW227673   2.118   8.575   9.154  0.0029 -0.6314  0.9958
 8556SOL     OW27674   3.691   8.146   0.274 -0.2252 -0.1243  0.3584
 8556SOL    HW127675   3.596   8.150   0.262 -0.1670  1.4881  0.1933
 8556SOL    HW227676   3.718   8.068   0.225 -1.2962  0.1605 -0.7465
 8557SOL     OW27677   7.347   4.380   6.787  0.0232 -0.4894  0.4513
 8557SOL    HW127678   7.335   4.452   6.724  0.6409 -0.8603 -0.1037
 8557SOL    HW227679   7.422   4.406   6.840 -1.5685  0.6652  2.2698
 8558SOL     OW27680   5.841  11.073   8.041  0.8957 -0.8833 -0.0103
 8558SOL    HW127681   5.778  11.022   8.092 -1.5468 -0.1610 -2.0566
 8558SOL    HW227682   5.830  11.041   7.951  1.9638  0.7251 -0.7663
 8559SOL     OW27683   1.786   9.205   9.499 -0.6153 -0.3988 -0.0871
 8559SOL    HW127684   1.814   9.242   9.583  1.2905 -2.2186  0.1595
 8559SOL    HW227685   1.694   9.181   9.513 -1.4361  2.5236  0.2518
 8560SOL     OW27686   8.942   8.571   1.911 -0.2794  0.0559 -0.1362
 8560SOL    HW127687   8.919   8.525   1.992 -0.2609 -0.7948 -0.5978
 8560SOL    HW227688   8.893   8.652   1.915  3.0786  2.2730  2.8911
 8561SOL     OW27689   3.965  10.979   1.231 -0.3391 -0.0592  0.1697
 8561SOL    HW127690   4.046  11.018   1.264  0.6361 -0.5541 -1.5305
 8561SOL    HW227691   3.983  10.885   1.228 -1.6560 -0.4005  1.4811
 8562SOL     OW27692  10.977   0.137   7.838  0.2168 -0.5230 -0.0613
 8562SOL    HW127693  10.950   0.227   7.818 -4.2870 -1.9434 -1.6004
 8562SOL    HW227694  10.943   0.121   7.926  1.5114 -0.6032  0.4422
 8563SOL     OW27695   4.123   2.725   2.781  0.2086 -0.0209  0.0861
 8563SOL    HW127696   4.217   2.711   2.765  0.5286  0.7779  1.1820
 8563SOL    HW227697   4.114   2.721   2.876 -1.1321 -1.5827 -0.0547
 8564SOL     OW27698   7.186  10.706   1.736  0.0330  0.0512 -0.6280
 8564SOL    HW127699   7.105  10.729   1.691  0.3855  0.7424 -0.9237
 8564SOL    HW227700   7.157  10.658   1.814 -0.6289 -0.1901 -1.0200
 8565SOL     OW27701   4.471  10.653   5.038  0.1148 -0.3885 -0.0855
 8565SOL    HW127702   4.376  10.647   5.027  0.1847  0.9839 -1.9409
 8565SOL    HW227703   4.490  10.747   5.037  1.5858 -0.6581 -1.0655
 8566SOL     OW27704   1.589   4.062   2.269 -0.3117 -0.0545 -0.1511
 8566SOL    HW127705   1.683   4.080   2.264 -0.3118  0.2645  0.7323
 8566SOL    HW227706   1.575   4.033   2.359 -0.3178 -4.6395 -1.3682
 8567SOL     OW27707   4.344   8.651   3.502  0.3711  0.6517 -0.1342
 8567SOL    HW127708   4.309   8.713   3.438  2.1057  0.9606 -0.8437
 8567SOL    HW227709   4.392   8.587   3.449  0.5800  0.0517  0.7598
 8568SOL     OW27710   3.392   4.369   3.760 -0.1711 -0.5477  0.1415
 8568SOL    HW127711   3.376   4.294   3.704  1.6774  0.8135 -2.3933
 8568SOL    HW227712   3.439   4.333   3.836 -0.3910 -2.0804 -0.4247
 8569SOL     OW27713   5.301   0.477   4.510  0.3606  0.2533 -0.0690
 8569SOL    HW127714   5.237   0.434   4.454  0.7926  0.1298 -0.4732
 8569SOL    HW227715   5.289   0.570   4.494 -0.7447  0.3141  0.9904
 8570SOL     OW27716   6.735   1.348   6.563 -0.3546  0.2313 -0.1479
 8570SOL    HW127717   6.771   1.305   6.640 -0.0988 -0.7020 -0.7662
 8570SOL    HW227718   6.695   1.278   6.513 -2.0690  1.0842 -0.0300
 8571SOL     OW27719   3.577   8.623   3.266 -0.0204 -0.5589  0.4732
 8571SOL    HW127720   3.607   8.714   3.263 -2.6886  0.4012 -0.4338
 8571SOL    HW227721   3.608   8.590   3.350  2.1059  0.7620  0.2643
 8572SOL     OW27722   4.840   2.900   3.521 -0.3491  0.0852 -0.1119
 8572SOL    HW127723   4.755   2.855   3.524  0.4133 -1.6282 -1.7524
 8572SOL    HW227724   4.887   2.857   3.450  2.5888 -0.2275  1.8330
 8573SOL     OW27725   3.195   9.819   0.797  0.2374  0.6607  0.6842
 8573SOL    HW127726   3.233   9.904   0.820  1.7487  0.3851 -0.5838
 8573SOL    HW227727   3.202   9.767   0.877 -0.2158  1.5476  1.3185
 8574SOL     OW27728  10.966   4.977   1.923 -0.6185  0.3469  0.6357
 8574SOL    HW127729  10.998   4.929   1.846  2.3281 -0.8968  2.4676
 8574SOL    HW227730  11.004   5.064   1.915  0.6260 -0.1208  1.1607
 8575SOL     OW27731   6.569   1.006  11.009  0.2634  0.0872 -0.3066
 8575SOL    HW127732   6.531   0.954  10.938  1.5026  1.9172 -2.4155
 8575SOL    HW227733   6.664   1.000  10.995  0.5410  0.5011  1.2068
 8576SOL     OW27734  10.116   9.468   5.922  0.2844  0.0190  0.1726
 8576SOL    HW127735  10.085   9.501   6.006  2.5440  0.4556  0.8992
 8576SOL    HW227736  10.136   9.547   5.871  0.3568 -0.2491 -0.2227
 8577SOL     OW27737   7.570   2.624   0.355 -0.1710 -0.2821 -0.0712
 8577SOL    HW127738   7.664   2.620   0.374 -0.6472  0.4413  3.0483
 8577SOL    HW227739   7.556   2.712   0.321  0.4341 -0.8504 -1.8719
 8578SOL     OW27740   0.194   2.021   1.702 -0.2607  0.2783  0.5753
 8578SOL    HW127741   0.208   1.931   1.731 -0.2252 -0.2705 -1.0125
 8578SOL    HW227742   0.134   2.012   1.628  0.6617  1.4269 -0.3486
 8579SOL     OW27743   2.218  11.045   0.484 -0.3255  1.3730 -0.2029
 8579SOL    HW127744   2.286  10.979   0.468 -1.7745  0.0296 -1.1363
 8579SOL    HW227745   2.264  11.117   0.527  1.4241 -0.0369  0.4186
 8580SOL     OW27746   2.313  10.432   5.907  0.3684  0.2150  0.1737
 8580SOL    HW127747   2.287  10.341   5.894 -1.1898  0.6324  0.2047
 8580SOL    HW227748   2.309  10.471   5.820 -1.5134  0.8511  0.4874
 8581SOL     OW27749   7.082   1.191   7.191 -0.5293  0.5648 -0.0737
 8581SOL    HW127750   7.042   1.265   7.145  0.9578 -0.3348 -3.0909
 8581SOL    HW227751   7.176   1.207   7.185 -0.2460 -0.5214  1.0865
 8582SOL     OW27752  10.819   1.874   0.027  0.2642  0.1414  0.4379
 8582SOL    HW127753  10.764   1.889   0.103 -0.9823  1.7941 -0.7207
 8582SOL    HW227754  10.798   1.945  -0.033 -0.4977 -2.2505 -2.4020
 8583SOL     OW27755   4.315   4.024   2.039 -0.0063  0.4386  0.2967
 8583SOL    HW127756   4.266   3.948   2.068  0.2729  0.8141  1.8427
 8583SOL    HW227757   4.314   4.019   1.944 -1.0846 -0.7866  0.3553
 8584SOL     OW27758   9.910   1.595   1.045  0.1952 -0.1831  0.1568
 8584SOL    HW127759   9.827   1.635   1.071 -0.1741 -0.5164 -0.4925
 8584SOL    HW227760   9.918   1.518   1.103 -0.4064 -0.6701 -0.3859
 8585SOL     OW27761   5.687   9.027   4.798  0.3119  1.1787  1.2880
 8585SOL    HW127762   5.666   8.944   4.754  0.5424  2.6362 -1.8475
 8585SOL    HW227763   5.611   9.083   4.782  1.3794  2.5156  0.6371
 8586SOL     OW27764   0.153   9.339   2.128  0.6852  0.1344 -0.7445
 8586SOL    HW127765   0.247   9.341   2.109  0.6678  0.6037 -0.7946
 8586SOL    HW227766   0.111   9.321   2.044  0.7060  0.3682 -0.8045
 8587SOL     OW27767   0.609   0.669   0.673  0.0452  0.1523  0.1227
 8587SOL    HW127768   0.620   0.707   0.586 -0.8305  0.8175  0.2885
 8587SOL    HW227769   0.629   0.576   0.661  1.9050  0.5787 -0.3604
 8588SOL     OW27770   9.316   6.295   9.801  0.6984 -0.1289 -0.0584
 8588SOL    HW127771   9.264   6.246   9.737 -1.5914  0.1772  1.4544
 8588SOL    HW227772   9.353   6.228   9.858  0.1539 -0.2663  0.1417
 8589SOL     OW27773   1.610   6.895   0.717  0.1555 -0.1643  0.6141
 8589SOL    HW127774   1.531   6.911   0.665  0.4586 -0.3635  0.0831
 8589SOL    HW227775   1.621   6.800   0.714  0.3275 -0.1510  0.8152
 8590SOL     OW27776   9.808   6.237   2.736  0.2078 -0.1850  0.1686
 8590SOL    HW127777   9.753   6.313   2.754  0.6198 -0.0086  0.7136
 8590SOL    HW227778   9.748   6.173   2.696 -0.3342  0.1036  0.5065
 8591SOL     OW27779   3.567   0.048   8.545  0.2045 -0.2716 -0.2448
 8591SOL    HW127780   3.621   0.002   8.482  1.0840  0.7438 -0.2622
 8591SOL    HW227781   3.549   0.133   8.504 -0.7490 -0.2939  0.0957
 8592SOL     OW27782   7.195   1.601   6.496 -0.4740  0.1177  0.0262
 8592SOL    HW127783   7.144   1.553   6.561  0.3610 -1.7858 -0.6411
 8592SOL    HW227784   7.190   1.547   6.417  0.7104  1.0229 -0.7079
 8593SOL     OW27785   4.822   0.246   8.239 -0.0266 -0.1418  0.0633
 8593SOL    HW127786   4.766   0.315   8.276 -0.3636 -0.1260 -0.4605
 8593SOL    HW227787   4.911   0.276   8.257 -0.1425  1.0109 -1.1445
 8594SOL     OW27788   2.501   9.734   9.911  0.0561 -0.1148 -0.0746
 8594SOL    HW127789   2.477   9.688   9.991 -1.0500  2.8787  1.4772
 8594SOL    HW227790   2.443   9.698   9.844 -1.5933 -0.2069  1.3373
 8595SOL     OW27791   1.970   4.794   1.080 -0.5071 -0.5274  0.5981
 8595SOL    HW127792   1.886   4.830   1.109  0.3791  1.4239  0.9377
 8595SOL    HW227793   1.991   4.843   1.000  0.3801 -0.8819  0.5985
 8596SOL     OW27794   6.532   1.117   2.921  0.2860 -0.1455 -0.1793
 8596SOL    HW127795   6.584   1.142   2.997  0.4693  1.0461 -0.6752
 8596SOL    HW227796   6.447   1.158   2.936  0.2122 -0.2022 -0.4454
 8597SOL     OW27797   1.257   5.803   9.822 -0.4484 -0.2191  0.2555
 8597SOL    HW127798   1.196   5.764   9.885 -0.4510  1.3657  1.3043
 8597SOL    HW227799   1.238   5.897   9.827  0.9566  0.1292 -0.6350
 8598SOL     OW27800   5.088   3.950   1.438  0.4840 -0.2788 -0.4632
 8598SOL    HW127801   5.055   3.990   1.357  0.6692  0.3570 -0.2297
 8598SOL    HW227802   5.013   3.954   1.498 -0.5137 -3.0483 -1.3406
 8599SOL     OW27803   3.380   8.893   6.529 -0.1806  0.4518 -0.8074
 8599SOL    HW127804   3.382   8.799   6.547 -0.1438 -0.0525 -3.0925
 8599SOL    HW227805   3.293   8.920   6.556  0.3901  0.1666  1.4933
 8600SOL     OW27806   8.921   1.454  10.324  0.2179  0.2874 -0.2161
 8600SOL    HW127807   8.845   1.508  10.346  0.6747  1.8589 -2.1320
 8600SOL    HW227808   8.885   1.375  10.285 -0.4592  0.3890  0.2058
 8601SOL     OW27809   2.901   3.023   0.263  0.1901 -0.0983 -0.1546
 8601SOL    HW127810   2.915   3.081   0.188 -2.1923  1.7115  0.6975
 8601SOL    HW227811   2.824   2.971   0.239  0.4114 -0.6947  0.3934
 8602SOL     OW27812   5.958   0.123   3.777 -0.0822  0.0872 -0.2535
 8602SOL    HW127813   5.986   0.051   3.720 -0.5035 -0.3441  0.0750
 8602SOL    HW227814   6.006   0.199   3.745  0.5299 -0.3810 -0.4750
 8603SOL     OW27815   4.088  10.741   8.272  0.0480  0.2327 -0.0703
 8603SOL    HW127816   4.153  10.799   8.312  0.7872  0.1839 -1.1467
 8603SOL    HW227817   4.138  10.690   8.209 -0.9445 -0.2407 -0.4926
 8604SOL     OW27818   6.475   1.262   1.405  0.2082  0.5883 -0.2046
 8604SOL    HW127819   6.466   1.238   1.313 -1.9132  0.1215  0.0589
 8604SOL    HW227820   6.421   1.341   1.413 -1.6121 -0.6921  1.0517
 8605SOL     OW27821   0.522   0.455   0.928 -0.0777 -0.4213  0.3352
 8605SOL    HW127822   0.526   0.362   0.948  0.3257 -0.2304  1.2124
 8605SOL    HW227823   0.554   0.462   0.838  1.8520 -0.9536  0.9153
 8606SOL     OW27824   5.480   3.000   1.124 -0.6392  0.4884  0.0633
 8606SOL    HW127825   5.419   2.988   1.197 -1.1153  1.0348 -0.2324
 8606SOL    HW227826   5.535   3.073   1.149  1.4177 -1.3604  1.3051
 8607SOL     OW27827   1.017   7.365   9.517 -0.2869  0.3855  0.2067
 8607SOL    HW127828   0.926   7.394   9.512 -0.6290 -0.8466 -1.1239
 8607SOL    HW227829   1.038   7.370   9.610 -1.6034  0.9844  0.4978
 8608SOL     OW27830   3.918   9.827   4.814 -0.1148 -0.0028 -0.6137
 8608SOL    HW127831   3.937   9.767   4.742  0.9210 -0.2463 -0.1634
 8608SOL    HW227832   3.898   9.770   4.888  0.1083  0.2207 -0.3794
 8609SOL     OW27833   1.762   2.977   4.917  0.1158  0.0206  0.0798
 8609SOL    HW127834   1.793   2.971   4.827  1.0588 -2.9900  0.4972
 8609SOL    HW227835   1.747   2.887   4.944  0.9238  0.7001  3.3021
 8610SOL     OW27836   0.448  10.873   0.201  0.1968  0.0927  0.3002
 8610SOL    HW127837   0.369  10.828   0.171  0.4503 -1.2854  1.5499
 8610SOL    HW227838   0.476  10.926   0.127  0.2393 -2.3494 -1.5387
 8611SOL     OW27839   2.584   7.757   8.370 -0.2750 -0.6382 -0.2498
 8611SOL    HW127840   2.517   7.766   8.438  0.5027 -0.1672  0.4774
 8611SOL    HW227841   2.546   7.800   8.294 -1.2298 -1.3222 -0.1672
 8612SOL     OW27842   9.665   0.662   8.939  0.5023 -0.2581  0.5254
 8612SOL    HW127843   9.727   0.608   8.889  0.7842 -0.2101  0.8184
 8612SOL    HW227844   9.708   0.674   9.024  0.2416  0.0637  0.6099
 8613SOL     OW27845   9.599   1.617  10.361  0.0148 -0.1424 -0.1032
 8613SOL    HW127846   9.671   1.593  10.419 -0.1130 -0.5713 -0.1174
 8613SOL    HW227847   9.521   1.604  10.415 -0.2453 -2.3471 -0.9127
 8614SOL     OW27848   2.157   4.320  10.668 -0.0301  0.3238  0.2898
 8614SOL    HW127849   2.102   4.361  10.734 -1.1034  2.2705 -1.6846
 8614SOL    HW227850   2.181   4.235  10.706 -1.5948  0.8339  2.6133
 8615SOL     OW27851   6.111  10.237   5.836  0.3237 -0.2144 -0.2730
 8615SOL    HW127852   6.038  10.237   5.898  0.7514 -0.5454  0.2442
 8615SOL    HW227853   6.077  10.192   5.759  0.1429 -0.8570  0.1723
 8616SOL     OW27854   2.446   6.157   7.694 -0.0235  0.4741 -0.2530
 8616SOL    HW127855   2.516   6.107   7.736  1.0256  1.0073 -1.2864
 8616SOL    HW227856   2.472   6.162   7.602 -0.9239  1.5317 -0.4765
 8617SOL     OW27857   5.943  10.597   6.014  0.0364  0.2302  0.0867
 8617SOL    HW127858   6.001  10.659   6.058  0.8957 -0.0691 -0.5897
 8617SOL    HW227859   5.936  10.523   6.074 -0.9508  0.9413  0.8732
 8618SOL     OW27860   0.559   3.291   1.666  0.2135  0.0373 -0.0920
 8618SOL    HW127861   0.534   3.383   1.668 -0.7524 -0.2234  0.6948
 8618SOL    HW227862   0.637   3.286   1.722 -2.6558 -0.3775  4.3157
 8619SOL     OW27863   5.392  10.874   9.030  0.0644  0.3021 -0.1649
 8619SOL    HW127864   5.378  10.951   8.976  1.7330  0.3549 -0.5723
 8619SOL    HW227865   5.464  10.827   8.987  1.5530  0.4185  2.0139
 8620SOL     OW27866   3.887   2.087  10.492  0.6209 -0.1085 -0.6761
 8620SOL    HW127867   3.876   2.098  10.398 -1.3889  0.8852 -0.3711
 8620SOL    HW227868   3.927   2.169  10.521  1.8270 -0.6626 -0.7246
 8621SOL     OW27869   2.924   7.549   4.570  0.1531 -0.3872 -0.5843
 8621SOL    HW127870   2.857   7.483   4.550 -0.8080  0.3501  0.1118
 8621SOL    HW227871   2.971   7.513   4.645 -0.2603 -0.3650 -0.3114
 8622SOL     OW27872   6.806   7.798   8.232  0.1943 -1.0317  0.5346
 8622SOL    HW127873   6.751   7.861   8.186 -0.3736 -1.1556  1.0288
 8622SOL    HW227874   6.873   7.851   8.275 -2.1697 -0.3292  3.6795
 8623SOL     OW27875   3.529   2.980   6.558  0.1866  0.1714 -1.0027
 8623SOL    HW127876   3.616   3.011   6.585 -0.2659  0.7120 -0.1095
 8623SOL    HW227877   3.546   2.923   6.484  1.2405  0.9671 -1.4060
 8624SOL     OW27878   3.035   5.676   1.381 -0.7937 -0.8777 -0.5047
 8624SOL    HW127879   2.982   5.753   1.360 -0.4490 -0.4243  0.2249
 8624SOL    HW227880   3.013   5.657   1.472  1.0225 -0.0526  0.1583
 8625SOL     OW27881   4.596   3.834  10.121 -0.4249  0.2068 -0.1729
 8625SOL    HW127882   4.611   3.927  10.106  0.3084  0.2310  0.6188
 8625SOL    HW227883   4.672   3.791  10.082  1.3356  0.2495  2.8901
 8626SOL     OW27884   0.455   8.350   2.871 -0.0831 -0.3122  0.6650
 8626SOL    HW127885   0.483   8.323   2.959 -1.2806  1.9341  1.8253
 8626SOL    HW227886   0.365   8.319   2.863  0.3411 -1.3858 -0.2224
 8627SOL     OW27887   5.627   3.327   6.954  0.2074  0.2739 -0.2438
 8627SOL    HW127888   5.640   3.419   6.931 -0.7048  0.0780 -1.6643
 8627SOL    HW227889   5.537   3.322   6.984  0.0772 -0.2363 -0.7008
 8628SOL     OW27890  10.968   3.096   9.848  0.3077 -0.5884  0.0562
 8628SOL    HW127891  11.043   3.053   9.890 -0.3429  1.0106  3.2014
 8628SOL    HW227892  10.892   3.064   9.896 -0.7183  0.1426 -1.0210
 8629SOL     OW27893   5.833   6.810   1.125 -0.1717  0.0035 -0.1354
 8629SOL    HW127894   5.792   6.724   1.116  0.5215 -0.1999 -1.4787
 8629SOL    HW227895   5.760   6.872   1.129 -0.6425 -0.5383 -0.3900
 8630SOL     OW27896  10.058   6.306   0.550  0.3017 -0.5340  0.5331
 8630SOL    HW127897  10.049   6.323   0.456  2.0792  0.2663  0.4645
 8630SOL    HW227898   9.969   6.310   0.584 -0.4004 -0.9921 -1.1368
 8631SOL     OW27899   7.304   0.346   7.840 -0.1466  0.0644  0.2086
 8631SOL    HW127900   7.221   0.374   7.881  0.2211 -0.5854  1.4611
 8631SOL    HW227901   7.357   0.425   7.837 -1.0466  0.6503 -1.2618
 8632SOL     OW27902   4.465   8.504   8.698  0.7663 -0.4189 -0.8256
 8632SOL    HW127903   4.404   8.571   8.728  0.6293 -0.9012 -0.0129
 8632SOL    HW227904   4.432   8.480   8.611  0.8876  0.6374 -1.1791
 8633SOL     OW27905   1.007   1.359   4.268 -0.1125 -0.1893 -0.5223
 8633SOL    HW127906   1.000   1.418   4.344 -0.1721  0.1509 -0.7879
 8633SOL    HW227907   0.972   1.276   4.299  0.8291 -0.3586  0.1502
 8634SOL     OW27908   1.441   5.057   3.398  0.3714 -0.1273 -0.3087
 8634SOL    HW127909   1.352   5.055   3.431  0.1419  0.1589 -0.9140
 8634SOL    HW227910   1.487   4.992   3.452 -0.1296 -0.0803  0.1866
 8635SOL     OW27911   7.652  10.468   5.262  0.2584  0.0573  0.0965
 8635SOL    HW127912   7.696  10.457   5.347  0.6264 -0.3040 -0.1342
 8635SOL    HW227913   7.580  10.406   5.264 -0.3347  0.7464  0.5301
 8636SOL     OW27914   0.586   8.707   0.831 -0.3011 -0.0507  0.2228
 8636SOL    HW127915   0.536   8.688   0.911  2.1243 -1.8540  1.4340
 8636SOL    HW227916   0.531   8.769   0.783 -2.0446  0.8563  3.1159
 8637SOL     OW27917  10.880  10.178   9.125 -0.5722 -0.1866 -0.6296
 8637SOL    HW127918  10.853  10.269   9.126 -0.0045  0.0773 -2.8853
 8637SOL    HW227919  10.799  10.128   9.118 -0.7972  0.2580 -1.2277
 8638SOL     OW27920   2.676   9.562   7.649  0.0530 -0.1193  0.1619
 8638SOL    HW127921   2.710   9.585   7.563 -0.0431 -3.2344 -0.8103
 8638SOL    HW227922   2.592   9.520   7.631 -1.0291  1.1162  1.9918
 8639SOL     OW27923   2.490   0.647   0.787  0.3881  0.0400  0.5050
 8639SOL    HW127924   2.508   0.586   0.716 -1.6682  1.3350 -1.2606
 8639SOL    HW227925   2.573   0.695   0.798  1.0064 -0.7699 -0.4230
 8640SOL     OW27926   7.047   3.742   6.798  0.0653  0.2583  0.1882
 8640SOL    HW127927   6.986   3.791   6.743  0.2375 -0.2393 -0.4513
 8640SOL    HW227928   7.132   3.757   6.759  0.5895  2.0481  1.8449
 8641SOL     OW27929   0.352   5.809   2.327 -0.1800  0.3747  0.5767
 8641SOL    HW127930   0.434   5.801   2.374  0.2031 -0.2892 -0.1727
 8641SOL    HW227931   0.366   5.881   2.265  1.0957 -1.8281 -1.9151
 8642SOL     OW27932   4.400  10.463   3.517  0.2009  0.3035  0.3547
 8642SOL    HW127933   4.477  10.494   3.469  0.1271 -0.0636  0.0018
 8642SOL    HW227934   4.331  10.459   3.451 -0.2923  1.2331  0.7925
 8643SOL     OW27935   3.040   8.999   4.683 -0.3322 -0.1279 -0.2586
 8643SOL    HW127936   2.990   9.028   4.759  2.8192  0.2010  1.9015
 8643SOL    HW227937   3.112   9.062   4.676  0.3121 -1.0030 -2.6459
 8644SOL     OW27938  10.597   3.295   3.479 -0.0298 -0.1637 -0.2980
 8644SOL    HW127939  10.684   3.321   3.510 -0.3214 -0.1994  0.5949
 8644SOL    HW227940  10.613   3.218   3.425  0.4231 -0.6753  0.5396
 8645SOL     OW27941   9.826   5.134   4.207  0.5143  0.0417  0.2921
 8645SOL    HW127942   9.826   5.194   4.282  1.8693 -0.5404  0.8023
 8645SOL    HW227943   9.827   5.047   4.247 -1.0534 -0.3425 -0.4321
 8646SOL     OW27944  10.568   0.086   7.936 -0.6928 -0.4385 -0.2217
 8646SOL    HW127945  10.478   0.058   7.919 -0.2858 -2.1907  0.2827
 8646SOL    HW227946  10.622   0.017   7.896  0.4187  0.2607  0.0275
 8647SOL     OW27947   2.323  10.614   1.809 -0.5436 -0.1100  0.0057
 8647SOL    HW127948   2.417  10.603   1.793 -0.3904  0.9709  0.1096
 8647SOL    HW227949   2.282  10.544   1.758  0.2917 -0.3060 -0.4203
 8648SOL     OW27950   3.566   4.790   8.562 -0.0711 -0.2473 -0.6035
 8648SOL    HW127951   3.551   4.744   8.480 -3.1126  2.1160 -1.5509
 8648SOL    HW227952   3.479   4.816   8.592  1.1896  2.0586  1.4903
 8649SOL     OW27953   2.335   7.489   0.542 -0.2164  0.9222 -0.9826
 8649SOL    HW127954   2.330   7.511   0.449  2.3925  0.6180 -1.2733
 8649SOL    HW227955   2.336   7.573   0.587 -3.2265  1.0794 -0.9973
 8650SOL     OW27956   9.179  11.003   0.869  0.6822 -0.2513 -0.3972
 8650SOL    HW127957   9.257  10.949   0.871  2.4861  2.1806 -0.5761
 8650SOL    HW227958   9.107  10.941   0.855  2.1942 -2.9148  2.4091
 8651SOL     OW27959   3.136   1.994   2.420  0.0378  0.4425 -0.3827
 8651SOL    HW127960   3.144   1.928   2.351  0.7383 -0.7456  0.7740
 8651SOL    HW227961   3.220   1.992   2.465 -0.3936  1.1755  0.4970
 8652SOL     OW27962   9.702   8.404   0.647 -0.0035  0.4682  0.4227
 8652SOL    HW127963   9.696   8.374   0.737 -0.3204 -0.2539  0.1685
 8652SOL    HW227964   9.690   8.499   0.653 -3.1597  0.1632  0.8795
 8653SOL     OW27965   1.327   1.031   0.777 -0.3097  0.3760  0.3045
 8653SOL    HW127966   1.395   1.097   0.764 -1.8462  1.8393 -0.5859
 8653SOL    HW227967   1.283   1.025   0.693 -1.5668 -0.2378  0.9865
 8654SOL     OW27968   1.957   4.018   8.676 -0.1486 -0.1509 -0.2217
 8654SOL    HW127969   1.987   4.038   8.765  0.9204  0.4895 -0.6999
 8654SOL    HW227970   1.862   4.017   8.682 -0.1473  1.3294  0.6508
 8655SOL     OW27971   4.390   2.538   8.063 -0.3896 -0.0714 -0.3244
 8655SOL    HW127972   4.467   2.485   8.081 -1.3145 -1.4335 -0.1956
 8655SOL    HW227973   4.334   2.481   8.009 -1.2173  0.9506 -0.5747
 8656SOL     OW27974   1.487   2.155   4.788 -0.3655 -0.1925  0.3212
 8656SOL    HW127975   1.544   2.232   4.784 -1.8915  1.0938  1.8129
 8656SOL    HW227976   1.406   2.183   4.745 -0.4577 -1.4536 -0.3580
 8657SOL     OW27977   8.580   4.567  10.624 -0.1714 -0.7674 -0.4892
 8657SOL    HW127978   8.669   4.533  10.614 -0.0639 -1.7349  2.7768
 8657SOL    HW227979   8.589   4.643  10.682 -1.4163 -0.3416 -0.8166
 8658SOL     OW27980   1.413  10.420   8.296  0.2481  0.2801 -0.4959
 8658SOL    HW127981   1.382  10.498   8.342  0.2608  0.2164 -0.3786
 8658SOL    HW227982   1.334  10.383   8.256  0.1959  0.2036 -0.3254
 8659SOL     OW27983   4.325   2.254   9.614 -0.0482  0.1027  0.0787
 8659SOL    HW127984   4.343   2.348   9.615  0.9847 -0.0843 -0.4739
 8659SOL    HW227985   4.267   2.241   9.690  0.2781  1.0857  0.5178
 8660SOL     OW27986   5.604   2.062   9.820  0.5077 -0.3412 -0.1449
 8660SOL    HW127987   5.546   2.086   9.748  1.6921  1.1773 -0.6630
 8660SOL    HW227988   5.599   2.136   9.880  1.7388 -0.2620 -0.1113
 8661SOL     OW27989   4.902   8.993   7.419  0.2135  0.0166 -0.3534
 8661SOL    HW127990   4.952   9.074   7.412  1.0720 -0.0580  2.9006
 8661SOL    HW227991   4.881   8.987   7.513 -3.0804 -1.6601 -1.0680
 8662SOL     OW27992   1.792   9.941   6.697  0.4974  0.1331  0.4689
 8662SOL    HW127993   1.728  10.012   6.694  0.2332 -0.1199  0.0466
 8662SOL    HW227994   1.851   9.965   6.769  0.0381  0.4563  0.7430
 8663SOL     OW27995   1.623   1.776   2.170 -0.4532  0.0871 -0.4709
 8663SOL    HW127996   1.572   1.856   2.181 -0.4764 -0.2094  2.6398
 8663SOL    HW227997   1.714   1.804   2.183 -0.3009 -0.1480 -1.0084
 8664SOL     OW27998   9.155  10.743   6.044 -0.4497 -0.2596  0.5139
 8664SOL    HW127999   9.109  10.814   5.999 -0.5728  1.1385  2.6842
 8664SOL    HW228000   9.089  10.675   6.055 -0.4572 -0.5803 -1.1970
 8665SOL     OW28001  10.095  11.045   9.351 -0.6954  0.3206  0.3617
 8665SOL    HW128002  10.095  11.100   9.273  1.5633 -0.4623 -0.2848
 8665SOL    HW228003  10.140  11.097   9.417  0.6853 -0.3602 -0.0009
 8666SOL     OW28004  10.700  10.686  10.839 -0.2679 -0.1057 -0.3026
 8666SOL    HW128005  10.636  10.729  10.896 -1.8026  0.9929 -2.7226
 8666SOL    HW228006  10.724  10.753  10.775  2.8616 -0.7016  0.0860
 8667SOL     OW28007   1.558   4.850   6.695 -0.2311  0.3324 -0.5505
 8667SOL    HW128008   1.573   4.900   6.615  4.0627  0.2685 -0.0129
 8667SOL    HW228009   1.563   4.915   6.765 -1.6187  0.0377 -0.1327
 8668SOL     OW28010   3.495  10.618   8.563 -0.3587 -0.0223 -0.2400
 8668SOL    HW128011   3.559  10.663   8.619  1.3217 -0.4133 -1.7456
 8668SOL    HW228012   3.440  10.569   8.624  0.3312  0.8850  1.1609
 8669SOL     OW28013   4.143   1.752   6.449 -0.8435  0.0749  0.5919
 8669SOL    HW128014   4.185   1.740   6.534 -1.3634  0.1026  0.8549
 8669SOL    HW228015   4.080   1.681   6.443  0.9042 -1.4623 -0.8556
 8670SOL     OW28016   5.298   3.397   4.521 -0.1191  0.2066  0.3309
 8670SOL    HW128017   5.345   3.327   4.475 -1.2522 -0.1475 -0.3219
 8670SOL    HW228018   5.350   3.476   4.505 -0.6392  0.1533 -1.8386
 8671SOL     OW28019   3.453   0.271  10.622  0.8428 -0.1167 -0.3238
 8671SOL    HW128020   3.427   0.253  10.532  0.6644 -0.3978 -0.2178
 8671SOL    HW228021   3.521   0.206  10.640  1.4673  0.4672 -0.5229
 8672SOL     OW28022  10.457   2.118   9.539 -0.5336 -0.6882  0.2838
 8672SOL    HW128023  10.524   2.171   9.582 -0.4023 -0.4071 -0.2618
 8672SOL    HW228024  10.505   2.041   9.508 -0.1050  0.2568 -1.5382
 8673SOL     OW28025   3.683   0.504   0.083 -0.0196 -0.2359 -0.4934
 8673SOL    HW128026   3.773   0.472   0.091 -0.8178 -2.5901 -0.0404
 8673SOL    HW228027   3.659   0.484  -0.008 -0.0161  0.6608 -0.7008
 8674SOL     OW28028   9.581  10.285   2.145 -0.6445  0.0364 -0.0414
 8674SOL    HW128029   9.563  10.361   2.090  0.1495 -0.1009 -0.4960
 8674SOL    HW228030   9.616  10.220   2.085  0.8339  0.0975  0.7154
 8675SOL     OW28031   2.262   5.305   1.710 -0.1786 -0.3760 -0.0627
 8675SOL    HW128032   2.222   5.386   1.741  0.6495  0.3670 -0.8580
 8675SOL    HW228033   2.258   5.311   1.614  0.6240 -0.8847 -0.1423
 8676SOL     OW28034   1.750   0.345   4.213  0.7741 -0.1230  0.7165
 8676SOL    HW128035   1.786   0.261   4.188 -0.2105 -0.3179 -0.1209
 8676SOL    HW228036   1.793   0.366   4.296 -0.0398 -2.1496  1.7205
 8677SOL     OW28037   9.958   1.474   6.568  0.2036  0.0219 -0.7314
 8677SOL    HW128038  10.014   1.492   6.643  0.1381 -0.2313 -0.6215
 8677SOL    HW228039   9.969   1.550   6.511 -0.9619  0.9699  0.2584
 8678SOL     OW28040   1.201  10.170   0.031  0.4032 -0.6306 -0.2643
 8678SOL    HW128041   1.252  10.174   0.112  0.3220 -1.1640 -0.1884
 8678SOL    HW228042   1.212  10.257  -0.007  0.0060 -0.2040  0.5765
 8679SOL     OW28043   1.880   7.744   0.743 -0.1476  0.3067 -0.1937
 8679SOL    HW128044   1.808   7.722   0.802 -0.2962  1.5262  0.1006
 8679SOL    HW228045   1.875   7.677   0.674 -0.2822 -0.8348  0.8880
 8680SOL     OW28046   3.183   0.730  10.757  0.2263  0.0971 -0.5658
 8680SOL    HW128047   3.214   0.739  10.667  1.7373 -2.6716 -0.4177
 8680SOL    HW228048   3.263   0.719  10.809 -0.7017 -0.0033  0.8904
 8681SOL     OW28049   1.517   7.630   2.000 -0.1301  0.0086 -0.1430
 8681SOL    HW128050   1.437   7.624   1.949  0.3321 -0.8004 -0.7989
 8681SOL    HW228051   1.587   7.633   1.935  0.5900 -2.6299  0.3814
 8682SOL     OW28052   5.209  10.582   0.950 -0.1292 -0.0546  0.7837
 8682SOL    HW128053   5.228  10.494   0.918 -2.8303 -0.2232 -0.6451
 8682SOL    HW228054   5.166  10.568   1.034 -2.2998 -0.3107 -0.3026
 8683SOL     OW28055  10.828   5.137   7.473  0.0792 -0.1593 -0.7684
 8683SOL    HW128056  10.905   5.175   7.513 -0.3915  0.1967 -0.1918
 8683SOL    HW228057  10.764   5.208   7.469  0.1471 -0.1333 -2.2876
 8684SOL     OW28058   0.916   3.291   3.034 -0.2125  0.3755  0.5518
 8684SOL    HW128059   0.986   3.283   2.970 -1.4930  0.0503 -0.8772
 8684SOL    HW228060   0.918   3.383   3.061  0.3437  0.5169  0.0393
 8685SOL     OW28061   2.488   7.528   7.986 -0.2525 -0.1673  0.5073
 8685SOL    HW128062   2.456   7.460   7.927  0.4987 -0.5477  0.5203
 8685SOL    HW228063   2.583   7.512   7.992 -0.0987  0.7331  0.6947
 8686SOL     OW28064   1.612  10.377  10.382 -0.3749  0.1862 -0.6352
 8686SOL    HW128065   1.532  10.335  10.412 -0.0915 -0.8328 -1.2553
 8686SOL    HW228066   1.588  10.418  10.299 -0.3721  0.2835 -0.5883
 8687SOL     OW28067   7.771   7.445   0.594 -0.3723 -0.5163  0.4958
 8687SOL    HW128068   7.730   7.370   0.636 -0.2913  1.0986  3.7682
 8687SOL    HW228069   7.820   7.489   0.664  3.7570 -0.0933 -2.3112
 8688SOL     OW28070   2.413   9.886   5.672  0.2055 -0.3691 -0.3569
 8688SOL    HW128071   2.368   9.905   5.754  1.3608 -0.6226  0.3465
 8688SOL    HW228072   2.371   9.807   5.639 -0.4574 -0.1034 -0.1659
 8689SOL     OW28073   0.659   0.837   4.173  0.2183 -0.6068 -0.4859
 8689SOL    HW128074   0.585   0.840   4.234 -0.1129 -0.1747 -0.9032
 8689SOL    HW228075   0.719   0.772   4.211 -1.0646 -2.1073 -0.9186
 8690SOL     OW28076   9.219  10.605   8.048  0.3961  0.1838 -0.4078
 8690SOL    HW128077   9.135  10.648   8.037  0.9050  1.0234 -1.1966
 8690SOL    HW228078   9.283  10.676   8.045  1.0776 -0.3105  1.2878
 8691SOL     OW28079   2.641  10.190  10.959  0.0749  0.3324  0.0614
 8691SOL    HW128080   2.687  10.272  10.941  0.2761  0.7039  2.0343
 8691SOL    HW228081   2.563  10.216  11.007 -0.6459 -0.5345 -0.6079
 8692SOL     OW28082  11.037   0.033   2.170 -0.4445  0.4729  0.1291
 8692SOL    HW128083  11.114   0.025   2.226 -0.9382 -0.2683  0.7124
 8692SOL    HW228084  11.050  -0.031   2.100  0.2204  1.4684 -0.6902
 8693SOL     OW28085  10.962   2.107   3.532  0.1874 -0.1693 -0.8106
 8693SOL    HW128086  10.928   2.084   3.445  1.0955 -0.2199 -1.1710
 8693SOL    HW228087  10.885   2.110   3.588 -0.2328 -1.8110 -1.2457
 8694SOL     OW28088   2.186   1.140   6.787 -0.2980  0.3939 -0.1953
 8694SOL    HW128089   2.095   1.131   6.814 -0.4070  0.0623 -0.6529
 8694SOL    HW228090   2.236   1.086   6.849 -0.6153 -0.9168 -1.0418
 8695SOL     OW28091   1.165   3.880   5.221  0.4843 -0.0262  0.5549
 8695SOL    HW128092   1.199   3.968   5.206  0.4222  0.2038  1.6776
 8695SOL    HW228093   1.071   3.887   5.210  0.6665 -0.7155 -2.8091
 8696SOL     OW28094   7.926   2.832  10.785  0.1334 -0.4154  0.1310
 8696SOL    HW128095   7.914   2.877  10.702  0.5007 -1.8811 -0.7426
 8696SOL    HW228096   8.017   2.804  10.784  0.0223 -0.8204  0.8477
 8697SOL     OW28097   6.007   4.571   0.882  0.4953 -0.3654  0.5768
 8697SOL    HW128098   5.980   4.510   0.813  1.5540  0.1140 -0.3052
 8697SOL    HW228099   6.101   4.583   0.867  0.2458  1.7904  0.4569
 8698SOL     OW28100   8.626   8.671   9.903 -0.3221 -0.4229  0.6038
 8698SOL    HW128101   8.572   8.747   9.882 -2.1567 -1.5970  0.8649
 8698SOL    HW228102   8.714   8.696   9.875 -0.8773  1.7489  0.6068
 8699SOL     OW28103   7.054   2.979   2.371  0.1611  0.0051  0.4190
 8699SOL    HW128104   7.128   3.038   2.357 -0.3789  0.8923  1.2166
 8699SOL    HW228105   7.093   2.896   2.398  0.9274 -0.0287 -0.7021
 8700SOL     OW28106   4.540   7.828   8.240 -0.1549  0.6597 -0.3700
 8700SOL    HW128107   4.524   7.817   8.146  2.2651  2.3057 -1.0761
 8700SOL    HW228108   4.594   7.753   8.263 -0.4631  0.4374 -0.3610
 8701SOL     OW28109   2.490   5.465   8.485  0.4539 -0.4333 -0.3648
 8701SOL    HW128110   2.516   5.539   8.540  1.2165 -0.8171 -0.1988
 8701SOL    HW228111   2.403   5.489   8.452  0.5332  0.3632 -0.0112
 8702SOL     OW28112   8.146   2.963   3.153  0.5763 -0.2388  0.1839
 8702SOL    HW128113   8.064   2.953   3.104  0.2853 -0.4359  0.7095
 8702SOL    HW228114   8.142   3.051   3.191  0.5707 -0.2804  0.2799
 8703SOL     OW28115   5.070   6.407   0.843  0.0079 -0.4611 -0.4732
 8703SOL    HW128116   5.020   6.426   0.923  2.3579  1.2975  0.6979
 8703SOL    HW228117   5.029   6.461   0.776  0.2327  0.8725  0.4277
 8704SOL     OW28118   5.480   1.905   0.378  0.2885  0.0580 -0.0751
 8704SOL    HW128119   5.488   1.911   0.283  1.2998 -0.6673 -0.0463
 8704SOL    HW228120   5.550   1.962   0.411  0.4955 -0.3758  0.2343
 8705SOL     OW28121   2.237   0.093   1.290  0.3399  0.5841  0.3678
 8705SOL    HW128122   2.289   0.157   1.241  1.4593  1.1736  2.2573
 8705SOL    HW228123   2.262   0.008   1.252 -1.5308  1.1651 -2.5112
 8706SOL     OW28124  10.177  10.904   1.728 -0.5598  0.0872 -0.3677
 8706SOL    HW128125  10.181  10.822   1.680 -0.6529 -0.1164 -0.0313
 8706SOL    HW228126  10.262  10.946   1.711 -1.9068  1.7893 -3.7782
 8707SOL     OW28127  10.257   5.556   3.831  0.2556 -0.7203  0.8938
 8707SOL    HW128128  10.315   5.569   3.756 -2.8413 -1.0787 -1.7357
 8707SOL    HW228129  10.266   5.463   3.853  1.2406 -0.5938  1.0761
 8708SOL     OW28130   4.146  10.891   9.783  0.0248 -0.3608  0.3898
 8708SOL    HW128131   4.093  10.811   9.789  1.3283 -1.3292 -0.3283
 8708SOL    HW228132   4.164  10.900   9.689  0.3498  0.4763  0.5238
 8709SOL     OW28133   3.420   5.141   9.818  0.6904 -0.6905  0.2112
 8709SOL    HW128134   3.406   5.149   9.723 -1.9157 -0.9029  0.4857
 8709SOL    HW228135   3.509   5.170   9.832  1.3304 -1.1243 -2.3743
 8710SOL     OW28136   0.324   5.535   5.312  0.0463  0.2031 -0.2743
 8710SOL    HW128137   0.325   5.596   5.238 -0.0601  1.2127  0.5195
 8710SOL    HW228138   0.411   5.495   5.312 -0.3379 -0.6849 -1.6237
 8711SOL     OW28139   6.482   8.805   1.350 -0.1958 -0.2384 -0.5715
 8711SOL    HW128140   6.392   8.836   1.353 -1.6037 -3.8954  0.1129
 8711SOL    HW228141   6.529   8.859   1.414 -1.8784  1.6851 -0.8848
 8712SOL     OW28142   3.178   3.546   1.844  0.1696  1.0177 -0.0119
 8712SOL    HW128143   3.184   3.487   1.919  2.4876  0.0423 -0.8770
 8712SOL    HW228144   3.129   3.497   1.778  0.9487  0.5716 -0.2646
 8713SOL     OW28145   1.237   2.222   8.769  0.2985 -0.3449 -0.2254
 8713SOL    HW128146   1.174   2.282   8.808 -0.7204 -0.8826 -0.9877
 8713SOL    HW228147   1.322   2.259   8.792 -0.2458  2.4478 -2.1373
 8714SOL     OW28148   1.895   6.427   8.612  0.1242 -0.1380 -0.4789
 8714SOL    HW128149   1.896   6.385   8.698 -2.3573  0.0535 -0.2611
 8714SOL    HW228150   1.909   6.356   8.550  0.9439 -0.4374  0.0293
 8715SOL     OW28151   2.633   2.808  11.015  0.2373  0.1975  0.3913
 8715SOL    HW128152   2.551   2.858  11.008 -0.2098 -0.3343  1.5284
 8715SOL    HW228153   2.616   2.728  10.965  0.4841  0.5901 -0.3330
 8716SOL     OW28154   4.253   2.022   4.802  0.5238  0.1780 -0.4300
 8716SOL    HW128155   4.232   2.053   4.890 -1.1317  0.3414 -0.8455
 8716SOL    HW228156   4.255   2.101   4.749  0.0306 -0.0473 -0.7969
 8717SOL     OW28157   9.968  10.707   8.720 -0.0123 -0.6862  0.0596
 8717SOL    HW128158   9.959  10.658   8.801 -2.1900 -0.9267 -0.2650
 8717SOL    HW228159   9.987  10.641   8.653  1.9235 -0.4733  0.3308
 8718SOL     OW28160   6.122   3.846   8.722 -0.3847 -0.4630  0.2563
 8718SOL    HW128161   6.132   3.776   8.657 -1.5517 -1.1497  0.7748
 8718SOL    HW228162   6.206   3.850   8.767  0.4583  0.0303 -1.2647
 8719SOL     OW28163   0.042   0.233   2.781  0.3679 -0.1827  0.3072
 8719SOL    HW128164  -0.001   0.209   2.699  2.0045 -0.5899 -0.4764
 8719SOL    HW228165   0.098   0.307   2.759  0.0752  0.3648  1.3071
 8720SOL     OW28166   9.395   7.967   2.469 -0.5462 -0.4866  0.1306
 8720SOL    HW128167   9.362   8.055   2.452 -0.4990 -0.3701  0.6214
 8720SOL    HW228168   9.427   7.936   2.384  1.4812  0.8403  0.3466
 8721SOL     OW28169   1.851  10.781   3.719 -0.2305  0.1823 -0.2429
 8721SOL    HW128170   1.888  10.835   3.788  1.0531  1.9009 -2.1746
 8721SOL    HW228171   1.927  10.750   3.669 -1.1364 -0.6666 -1.1513
 8722SOL     OW28172   2.048   0.877   1.556  0.5034 -0.3166 -0.0156
 8722SOL    HW128173   2.084   0.798   1.597  1.4755 -0.2423 -0.6845
 8722SOL    HW228174   2.108   0.947   1.584 -0.4857  0.2481  0.7671
 8723SOL     OW28175   3.731  10.275   6.830  0.3824 -0.1906  0.1959
 8723SOL    HW128176   3.795  10.260   6.900 -1.0331 -1.3362  1.2957
 8723SOL    HW228177   3.772  10.238   6.752  0.6994 -1.8005  1.0744
 8724SOL     OW28178   0.438   9.079   1.778 -0.3744 -0.1756  0.4892
 8724SOL    HW128179   0.435   9.028   1.859 -1.7452 -0.2703  0.4058
 8724SOL    HW228180   0.417   9.015   1.709 -1.8391  0.3977  0.3580
 8725SOL     OW28181   1.844  10.730   0.086 -0.0277  0.0844 -0.8775
 8725SOL    HW128182   1.880  10.664   0.146  0.7858  0.7553 -0.6167
 8725SOL    HW228183   1.821  10.804   0.143  0.5495  0.6459 -1.3598
 8726SOL     OW28184   0.242   0.186   8.154  0.4349  0.2440  0.0574
 8726SOL    HW128185   0.185   0.155   8.084  0.0642 -0.9259  0.8498
 8726SOL    HW228186   0.279   0.107   8.192  2.4243  0.9652 -0.2704
 8727SOL     OW28187   6.221   2.252  10.806  0.0257  0.5432 -0.2172
 8727SOL    HW128188   6.314   2.258  10.786  0.4615 -0.0568  1.4366
 8727SOL    HW228189   6.188   2.341  10.797  1.2318  1.1650  1.1938
 8728SOL     OW28190   3.476   7.842   5.090  0.7496 -0.8512  0.7208
 8728SOL    HW128191   3.489   7.926   5.134 -1.9408 -0.6358  1.3086
 8728SOL    HW228192   3.449   7.782   5.160 -0.1948 -1.4118 -0.0842
 8729SOL     OW28193   5.371   1.968   4.691 -0.1423  0.0971  0.1093
 8729SOL    HW128194   5.340   1.983   4.781  1.4371  0.3545  0.6416
 8729SOL    HW228195   5.371   1.873   4.682 -0.4084  0.0726  0.3415
 8730SOL     OW28196   6.892   3.682   0.073 -0.2066 -0.4313 -0.1310
 8730SOL    HW128197   6.911   3.661  -0.018 -0.2510 -0.6517 -0.0888
 8730SOL    HW228198   6.870   3.598   0.113 -1.0193 -0.2135 -0.1116
 8731SOL     OW28199   4.662   6.979   1.123 -0.0986 -0.0964 -0.0882
 8731SOL    HW128200   4.571   6.986   1.154  0.1642 -1.4679  1.0594
 8731SOL    HW228201   4.664   6.897   1.075  0.1918  0.6741 -1.4349
 8732SOL     OW28202   1.851   4.677   7.390  0.0211 -0.2711  0.3881
 8732SOL    HW128203   1.904   4.638   7.320 -0.4405  1.0220 -0.7274
 8732SOL    HW228204   1.914   4.700   7.458  0.6764 -0.2685 -0.2046
 8733SOL     OW28205   3.869   5.377  10.952  0.5107  0.5554  0.1011
 8733SOL    HW128206   3.824   5.449  10.907  1.4044  2.0649  1.5267
 8733SOL    HW228207   3.830   5.374  11.039 -1.2082 -2.3419 -0.6363
 8734SOL     OW28208   1.631   4.792   5.844 -0.1534  0.1946  0.0477
 8734SOL    HW128209   1.704   4.751   5.891 -0.7330  0.3335  1.1191
 8734SOL    HW228210   1.559   4.730   5.853 -0.4462  0.5043 -0.1417
 8735SOL     OW28211   5.721  11.020   4.021 -0.7519  0.2153 -0.7131
 8735SOL    HW128212   5.702  11.003   4.114 -4.3631 -1.8888 -1.6360
 8735SOL    HW228213   5.815  11.004   4.013  0.3434  3.1605  2.9712
 8736SOL     OW28214   8.591   8.588  10.991 -0.1331 -0.2647 -0.3135
 8736SOL    HW128215   8.654   8.518  11.007  0.8602  0.7694  0.4668
 8736SOL    HW228216   8.638   8.668  11.012 -0.4098  0.8802 -3.5342
 8737SOL     OW28217   8.909   0.831   1.430  0.8605  0.7112  0.2306
 8737SOL    HW128218   8.989   0.780   1.436  0.5763  0.3925  1.6948
 8737SOL    HW228219   8.866   0.818   1.514 -1.0672  0.3251 -0.7562
 8738SOL     OW28220   5.668   1.329  11.001  0.3749  0.0329  0.2284
 8738SOL    HW128221   5.575   1.323  11.024  0.3195 -0.3304 -0.0714
 8738SOL    HW228222   5.672   1.293  10.912  1.1291 -1.9694  1.0274
 8739SOL     OW28223   3.988   2.721   1.896 -0.2663  0.1018 -0.1069
 8739SOL    HW128224   4.015   2.782   1.964 -1.1204 -0.0668  0.3863
 8739SOL    HW228225   3.963   2.642   1.943  1.4121 -0.8872 -0.7712
 8740SOL     OW28226   6.071   2.064   3.036 -0.2134 -0.0910 -0.6241
 8740SOL    HW128227   6.087   2.104   3.121 -0.2611  0.6793 -0.9680
 8740SOL    HW228228   6.135   2.105   2.978 -1.1822  0.5333 -1.2801
 8741SOL     OW28229   4.912   5.538   7.750 -0.5019  0.0713 -0.0214
 8741SOL    HW128230   4.854   5.548   7.675 -0.9710  0.9679  0.4412
 8741SOL    HW228231   4.858   5.562   7.825 -0.1613 -1.1921  0.6610
 8742SOL     OW28232   1.634   5.048   5.774  0.2231 -0.2896 -0.0679
 8742SOL    HW128233   1.649   4.960   5.807 -2.4022 -1.3130 -1.2670
 8742SOL    HW228234   1.714   5.070   5.727  0.5108 -2.5965 -0.8058
 8743SOL     OW28235   4.107   5.258   5.142 -0.1069 -0.8762 -0.0135
 8743SOL    HW128236   4.166   5.305   5.201  0.5169 -0.3911 -1.0042
 8743SOL    HW228237   4.114   5.166   5.169  0.0344 -0.6370  0.7745
 8744SOL     OW28238   6.660   4.031   8.730 -0.2821 -0.1795 -0.0184
 8744SOL    HW128239   6.593   4.062   8.791 -0.7037  0.4024 -0.7653
 8744SOL    HW228240   6.613   4.009   8.650  0.1234 -1.9697  0.1919
 8745SOL     OW28241   3.626   2.588   2.430 -0.9132  0.2415  0.2045
 8745SOL    HW128242   3.573   2.534   2.488 -1.5312  0.0359 -0.5405
 8745SOL    HW228243   3.704   2.608   2.481 -2.0177  1.1705  1.6008
 8746SOL     OW28244   0.280   7.136   9.909  0.2269 -0.0904 -0.7955
 8746SOL    HW128245   0.343   7.198   9.872 -0.3707  1.2490  0.3433
 8746SOL    HW228246   0.210   7.191   9.943  0.2539 -1.3070  1.3809
 8747SOL     OW28247   8.243   7.407   0.089  0.4952 -0.1426 -0.1564
 8747SOL    HW128248   8.194   7.472   0.139 -2.6809 -0.3811 -2.6228
 8747SOL    HW228249   8.281   7.457   0.017  1.2983 -0.4756  0.0275
 8748SOL     OW28250   1.024   0.683   7.991 -0.1154 -0.4689  0.1620
 8748SOL    HW128251   1.101   0.734   7.964 -0.4891 -0.5456 -1.1212
 8748SOL    HW228252   0.990   0.729   8.067 -0.2801  1.0664 -0.7935
 8749SOL     OW28253   7.432   9.576  10.433  0.0411 -0.2383  0.2656
 8749SOL    HW128254   7.389   9.585  10.348  0.3694 -0.9234  0.0156
 8749SOL    HW228255   7.464   9.663  10.454  2.7128 -0.5951 -1.8254
 8750SOL     OW28256   2.752   3.538   3.334 -0.0070  0.1542  0.1620
 8750SOL    HW128257   2.782   3.488   3.410 -1.6605 -1.3017 -0.0658
 8750SOL    HW228258   2.656   3.533   3.339 -0.1644  1.1084 -1.3292
 8751SOL     OW28259   3.379  10.761  10.343 -0.0122  0.2770 -0.5390
 8751SOL    HW128260   3.382  10.666  10.332 -1.5004 -0.1060  1.7663
 8751SOL    HW228261   3.459  10.793  10.300  0.8496 -2.0671 -0.7936
 8752SOL     OW28262   5.275   1.804   9.661 -0.0663  0.1174 -0.2434
 8752SOL    HW128263   5.207   1.775   9.601 -1.3829  1.0911  0.6931
 8752SOL    HW228264   5.318   1.876   9.615 -1.4574  1.2527  0.1520
 8753SOL     OW28265   1.817   4.669   0.641 -0.0851  0.4461 -0.1208
 8753SOL    HW128266   1.904   4.705   0.628  0.6887 -1.2788 -0.0339
 8753SOL    HW228267   1.801   4.616   0.562 -1.6254  1.7830 -0.7572
 8754SOL     OW28268  10.828   5.333   1.455  0.0796  0.7540 -0.2827
 8754SOL    HW128269  10.887   5.288   1.394 -0.4107  0.2514 -0.3896
 8754SOL    HW228270  10.804   5.267   1.519 -0.1274  1.0421 -0.0621
 8755SOL     OW28271   4.991   3.582   8.015  0.4647 -0.3864 -0.2615
 8755SOL    HW128272   4.913   3.577   8.070  1.3942  1.5988  1.3863
 8755SOL    HW228273   5.064   3.567   8.076  1.4510  0.1932 -1.2694
 8756SOL     OW28274  10.460  10.686   8.469 -0.3615 -0.1200  0.5317
 8756SOL    HW128275  10.433  10.776   8.450 -0.3969 -0.3793 -0.7889
 8756SOL    HW228276  10.539  10.695   8.522  0.0515  0.7101 -0.2021
 8757SOL     OW28277   6.698   9.993   1.439  0.4526  0.0263 -0.1649
 8757SOL    HW128278   6.675  10.033   1.523  0.2914  1.4990 -0.8924
 8757SOL    HW228279   6.630   9.927   1.426 -0.0377  0.3934  0.4401
 8758SOL     OW28280   3.572  10.461   2.429 -0.0154 -0.0018 -0.2534
 8758SOL    HW128281   3.530  10.471   2.515  0.1666 -0.4565 -0.1099
 8758SOL    HW228282   3.516  10.399   2.382  1.5962 -2.2969  0.6958
 8759SOL     OW28283   3.373   4.219  10.824 -0.1405  0.4506  0.0033
 8759SOL    HW128284   3.357   4.128  10.798 -0.4355  1.0291 -1.9488
 8759SOL    HW228285   3.460   4.216  10.865 -0.2555 -0.7414  0.2199
 8760SOL     OW28286   6.412   3.731   0.236  0.0181  0.1821  0.1464
 8760SOL    HW128287   6.323   3.702   0.216 -0.0776 -0.0159  0.8310
 8760SOL    HW228288   6.468   3.671   0.188 -0.2177  1.3456 -1.6785
 8761SOL     OW28289   6.300   8.661  10.766 -0.9483  0.5336  0.2629
 8761SOL    HW128290   6.283   8.578  10.721  2.0873 -1.3675  2.2464
 8761SOL    HW228291   6.338   8.717  10.698 -0.2036 -0.8047 -0.4721
 8762SOL     OW28292  10.798   4.789   6.241 -0.3758 -0.3391  0.1866
 8762SOL    HW128293  10.814   4.743   6.324 -0.6615 -0.8437 -0.0310
 8762SOL    HW228294  10.853   4.867   6.246  2.1578 -1.9386 -0.5048
 8763SOL     OW28295   3.962   6.065   1.177  0.6110 -0.3335  0.0442
 8763SOL    HW128296   3.910   5.999   1.130  1.6329 -0.0994 -1.4692
 8763SOL    HW228297   3.964   6.034   1.268  1.1883 -2.4807 -0.6470
 8764SOL     OW28298   5.259   1.822  10.438  0.0576  0.3028 -0.0394
 8764SOL    HW128299   5.253   1.727  10.427  1.5082  0.2651 -0.7935
 8764SOL    HW228300   5.205   1.858  10.368 -1.5608  0.0666  1.0325
 8765SOL     OW28301   3.716   5.212   0.382  0.2832  0.1868  0.2820
 8765SOL    HW128302   3.788   5.233   0.442 -0.2848  0.3340  0.9251
 8765SOL    HW228303   3.695   5.295   0.339 -0.7576  0.5908  1.4990
 8766SOL     OW28304   5.671   9.248   0.331 -0.1480 -0.3326  0.3231
 8766SOL    HW128305   5.654   9.317   0.267  2.0848  1.3273  1.4182
 8766SOL    HW228306   5.716   9.180   0.281  0.7505  0.5431 -0.0969
 8767SOL     OW28307   0.179   6.690  10.059 -0.2170  0.0262 -0.2163
 8767SOL    HW128308   0.161   6.604  10.023  2.9561 -0.2916 -1.3567
 8767SOL    HW228309   0.230   6.673  10.139  0.2600  0.8080 -0.3416
 8768SOL     OW28310   3.901   4.831   9.574  0.3642  0.4809  0.0400
 8768SOL    HW128311   3.815   4.863   9.600  0.9582  0.7864  1.8505
 8768SOL    HW228312   3.886   4.742   9.543 -0.8386  1.2121 -1.6378
 8769SOL     OW28313   4.173   3.228   2.234  0.3385 -0.3874 -0.1389
 8769SOL    HW128314   4.107   3.222   2.166 -0.5541  3.6059  0.1142
 8769SOL    HW228315   4.132   3.189   2.311  0.1264 -2.0100 -1.0248
 8770SOL     OW28316   2.899   3.060   4.188 -0.0999  0.3770 -0.5785
 8770SOL    HW128317   2.981   3.023   4.219 -0.0289  0.3257 -0.8281
 8770SOL    HW228318   2.923   3.143   4.148 -0.0417 -0.0501 -1.4676
 8771SOL     OW28319   5.805   8.157   1.416  0.1076 -0.1275  0.0766
 8771SOL    HW128320   5.749   8.080   1.431  0.4488  0.0283  2.5832
 8771SOL    HW228321   5.754   8.231   1.449  0.0364  0.6747 -1.7380
 8772SOL     OW28322   9.270   9.518   7.320  0.6431  0.5589  0.0110
 8772SOL    HW128323   9.295   9.597   7.366 -0.9738 -0.1648  2.3065
 8772SOL    HW228324   9.318   9.447   7.363 -1.3575 -0.2076  1.1161
 8773SOL     OW28325   9.730   6.907   3.312  0.2831  0.0311  0.5691
 8773SOL    HW128326   9.811   6.863   3.285 -0.1777  0.9220 -2.7250
 8773SOL    HW228327   9.671   6.836   3.335  1.5859 -0.6849  1.8839
 8774SOL     OW28328   2.483   3.437   8.913 -0.0993 -0.3675  0.1992
 8774SOL    HW128329   2.530   3.478   8.841  1.6510 -1.6851  0.5336
 8774SOL    HW228330   2.417   3.382   8.871 -0.5921  0.5873 -0.3061
 8775SOL     OW28331   0.243   4.850   5.652 -0.4549  0.8714  0.8565
 8775SOL    HW128332   0.158   4.822   5.617 -0.0090  0.1592  0.3038
 8775SOL    HW228333   0.306   4.824   5.584  0.5475 -1.2796  2.4887
 8776SOL     OW28334   9.046   6.077   2.595 -0.0830  0.6933 -0.0795
 8776SOL    HW128335   9.139   6.084   2.573 -0.3434 -0.5083 -1.8070
 8776SOL    HW228336   9.031   5.983   2.604 -1.4655  0.7127 -1.6371
 8777SOL     OW28337   6.812   2.270   3.279  0.4905  0.0702 -0.0993
 8777SOL    HW128338   6.882   2.229   3.228 -0.7347 -0.8736 -1.0913
 8777SOL    HW228339   6.745   2.291   3.215  0.2487  1.9136  0.6795
 8778SOL     OW28340   7.803   0.923   5.282 -0.2692  0.2048 -0.2024
 8778SOL    HW128341   7.749   0.881   5.349 -1.1211 -1.7182 -1.9632
 8778SOL    HW228342   7.741   0.946   5.213  0.9162 -0.5676 -1.5784
 8779SOL     OW28343  10.952   4.863   9.867 -0.2690  0.3018 -0.4677
 8779SOL    HW128344  10.950   4.888   9.959 -0.2750 -1.0771 -0.0750
 8779SOL    HW228345  10.932   4.944   9.820 -2.4914  0.5782  0.8013
 8780SOL     OW28346   8.769   7.650   7.091  0.5800  0.1258  0.4471
 8780SOL    HW128347   8.809   7.619   7.009 -0.2993 -1.2838  0.5121
 8780SOL    HW228348   8.679   7.671   7.067 -0.3192 -2.2833  1.3931
 8781SOL     OW28349   8.286   2.650   8.259  0.0998  0.5847  0.0618
 8781SOL    HW128350   8.333   2.669   8.178  0.5278 -2.3139 -0.5061
 8781SOL    HW228351   8.194   2.650   8.234  0.2849 -1.6974 -0.8813
 8782SOL     OW28352   0.736   2.558   2.625 -0.3706  0.2282 -0.0669
 8782SOL    HW128353   0.707   2.486   2.569 -1.7174  1.3168 -0.8482
 8782SOL    HW228354   0.721   2.527   2.714  2.2566 -1.7318 -0.1963
 8783SOL     OW28355   4.031   3.991   9.274 -0.2369 -0.1683  0.3192
 8783SOL    HW128356   4.125   4.005   9.288 -0.2996 -0.4729  1.0645
 8783SOL    HW228357   4.001   3.945   9.352 -1.2616  0.9853  0.6286
 8784SOL     OW28358   5.085   8.686   2.702 -1.2698  0.8463 -0.1355
 8784SOL    HW128359   5.050   8.606   2.741 -1.7042  0.0654 -2.0369
 8784SOL    HW228360   5.124   8.733   2.776 -3.6638  0.3366  1.5535
 8785SOL     OW28361   2.708   6.094  10.429 -0.8764 -0.3306  0.7899
 8785SOL    HW128362   2.750   6.151  10.493 -0.7889  0.5817 -0.0483
 8785SOL    HW228363   2.778   6.071  10.368 -1.6000  1.5158 -0.8404
 8786SOL     OW28364   4.535   1.264   3.054 -0.3070 -0.5952  0.1107
 8786SOL    HW128365   4.504   1.244   2.966  0.6537  0.3789 -0.4791
 8786SOL    HW228366   4.558   1.357   3.051  1.2682 -0.9150  0.9078
 8787SOL     OW28367   4.822   0.814   5.962  0.9515  0.0968  0.3500
 8787SOL    HW128368   4.813   0.795   6.055 -0.8097  1.4635  0.5299
 8787SOL    HW228369   4.874   0.742   5.927  0.7373 -1.0155  2.1942
 8788SOL     OW28370   5.733   8.503   3.436 -0.3172  0.3882  0.7425
 8788SOL    HW128371   5.795   8.575   3.424  0.1817 -0.3860 -1.9520
 8788SOL    HW228372   5.788   8.425   3.443 -0.9343 -0.0595  0.6083
 8789SOL     OW28373   5.524   2.303   1.319 -0.2978 -0.2895 -0.2263
 8789SOL    HW128374   5.460   2.246   1.276 -0.7347  0.3337 -0.4199
 8789SOL    HW228375   5.476   2.342   1.393 -0.6202  1.2891 -1.2063
 8790SOL     OW28376   4.661   0.773   2.344 -0.0106 -0.2698 -0.1105
 8790SOL    HW128377   4.694   0.718   2.273 -0.6741 -0.8725  0.0474
 8790SOL    HW228378   4.701   0.859   2.327  0.4287 -0.5947 -0.7840
 8791SOL     OW28379   4.227   4.708   0.759 -0.0434  0.1938 -0.8756
 8791SOL    HW128380   4.184   4.784   0.798 -2.1972 -0.2225 -2.2419
 8791SOL    HW228381   4.164   4.676   0.694  0.4959 -3.1428  0.0782
 8792SOL     OW28382   4.474   2.020   4.456  0.1646  0.6443  0.3450
 8792SOL    HW128383   4.430   2.103   4.442  0.1133  0.8129  1.4514
 8792SOL    HW228384   4.471   2.006   4.551  0.8167 -0.2575  0.2491
 8793SOL     OW28385   3.220   5.238  11.007 -0.0238 -0.0153  0.1479
 8793SOL    HW128386   3.212   5.158  10.954 -0.4221 -1.3651  2.1284
 8793SOL    HW228387   3.312   5.264  10.997  0.1097 -0.7036 -0.5388
 8794SOL     OW28388   4.624   0.445   2.786  0.6733  0.1873 -0.1122
 8794SOL    HW128389   4.659   0.487   2.707  1.1183 -0.0286 -0.0307
 8794SOL    HW228390   4.687   0.376   2.806  2.0623  1.9155  1.9862
 8795SOL     OW28391   2.904   9.547  10.277 -0.3498 -0.0104 -0.3916
 8795SOL    HW128392   2.826   9.591  10.244  0.2668 -1.2638 -3.9435
 8795SOL    HW228393   2.977   9.602  10.250  0.1761  0.8804  2.4390
 8796SOL     OW28394   3.612   0.381   9.707 -0.5956  0.5218 -0.2483
 8796SOL    HW128395   3.576   0.351   9.624  0.6217  0.7032 -0.8578
 8796SOL    HW228396   3.705   0.356   9.704 -0.4545  0.8200  0.9116
 8797SOL     OW28397   1.475   2.630   5.418 -0.2273  0.0822  0.3754
 8797SOL    HW128398   1.521   2.691   5.361 -1.6777 -0.8146 -1.8731
 8797SOL    HW228399   1.382   2.647   5.402 -0.6663 -1.6214  0.9215
 8798SOL     OW28400   1.323   2.668   6.732  0.2934  0.3917  0.4550
 8798SOL    HW128401   1.275   2.716   6.665  1.3723  0.4291 -0.3101
 8798SOL    HW228402   1.269   2.591   6.750  1.2252 -1.1099 -2.4741
 8799SOL     OW28403   5.843   4.754   7.937 -0.0425  0.6354 -0.6465
 8799SOL    HW128404   5.910   4.802   7.984 -2.1416  0.2921  3.1177
 8799SOL    HW228405   5.872   4.663   7.941 -0.4304  0.5437  0.5587
 8800SOL     OW28406   1.428  11.051  10.515  0.1103 -1.0329 -0.1071
 8800SOL    HW128407   1.455  11.002  10.593  0.0124 -0.9624 -0.0288
 8800SOL    HW228408   1.510  11.080  10.475  0.1678 -1.2317 -0.1352
 8801SOL     OW28409   7.673   4.983   3.295 -0.6159 -0.0244  0.1491
 8801SOL    HW128410   7.667   5.076   3.318 -1.3759 -0.0914  0.2367
 8801SOL    HW228411   7.763   4.959   3.316 -0.7629  0.3902  1.2767
 8802SOL     OW28412   9.411  11.013  10.417 -0.2524  0.7220  0.4668
 8802SOL    HW128413   9.322  10.976  10.413 -0.3066  0.9863 -2.1541
 8802SOL    HW228414   9.462  10.946  10.463 -1.0182 -1.2654 -1.3948
 8803SOL     OW28415   4.282   8.722  10.370  0.2256  0.3394 -0.3433
 8803SOL    HW128416   4.326   8.642  10.400 -0.5032  0.1030  0.1134
 8803SOL    HW228417   4.353   8.776  10.335  0.9712  0.2047  0.8879
 8804SOL     OW28418   1.779   1.040   4.713  0.6457  0.0497  0.5525
 8804SOL    HW128419   1.707   1.064   4.654 -0.8073 -2.0047  1.3644
 8804SOL    HW228420   1.853   1.094   4.684 -0.6081  0.7008 -1.6926
 8805SOL     OW28421   7.801   1.087   5.932 -0.1499 -0.0056  0.0606
 8805SOL    HW128422   7.839   1.095   5.845 -2.0604  0.5918 -0.7637
 8805SOL    HW228423   7.714   1.049   5.917 -1.4791  2.2565  1.4173
 8806SOL     OW28424   4.090   1.887   1.956 -0.0614 -0.1874  0.0317
 8806SOL    HW128425   4.097   1.970   2.002 -0.0733 -0.2566  0.1613
 8806SOL    HW228426   4.115   1.906   1.866 -1.0493  0.1724 -0.1807
 8807SOL     OW28427   2.718   4.634   8.570  0.4616  0.4648  0.2849
 8807SOL    HW128428   2.734   4.704   8.507 -0.0230  0.2197 -0.1208
 8807SOL    HW228429   2.657   4.575   8.525 -0.1382  0.4511  1.1021
 8808SOL     OW28430   6.717   3.887   0.940  0.1100  0.5758  0.4057
 8808SOL    HW128431   6.746   3.796   0.947 -1.4423  0.0275  0.1483
 8808SOL    HW228432   6.680   3.908   1.026 -1.8415  0.0818 -0.2582
 8809SOL     OW28433   8.929   9.409   8.354  0.3138  0.0372 -0.3270
 8809SOL    HW128434   8.949   9.459   8.433 -1.6969 -0.8244  0.7964
 8809SOL    HW228435   8.846   9.446   8.323 -0.2886 -1.3997 -0.4830
 8810SOL     OW28436   7.604   8.399   6.761 -0.1206  0.3266  0.4263
 8810SOL    HW128437   7.656   8.343   6.818  1.3795  1.4547  0.2300
 8810SOL    HW228438   7.627   8.372   6.672  1.8079  2.1656  0.2807
 8811SOL     OW28439   4.666  11.061   2.243 -0.0690  0.1315 -0.1741
 8811SOL    HW128440   4.740  11.084   2.300  1.5968 -0.5882 -1.9566
 8811SOL    HW228441   4.609  11.008   2.299  2.5271 -2.3513  0.4126
 8812SOL     OW28442   6.834   3.787   1.974  0.2208  0.4413  0.1155
 8812SOL    HW128443   6.801   3.765   1.886  0.6268  2.9751 -0.7545
 8812SOL    HW228444   6.791   3.724   2.032 -0.7959 -0.7134 -1.7730
 8813SOL     OW28445   4.920  10.389   1.932  0.2112  0.5479 -0.3233
 8813SOL    HW128446   4.959  10.358   1.850 -0.7870 -0.4552 -0.4527
 8813SOL    HW228447   4.995  10.415   1.986  0.8610  1.5553 -1.6689
 8814SOL     OW28448   3.403   4.491   4.923 -0.4611  0.2306 -0.0346
 8814SOL    HW128449   3.472   4.436   4.886 -0.6965  0.1755 -0.3916
 8814SOL    HW228450   3.446   4.574   4.941 -0.5366  0.5317 -1.1880
 8815SOL     OW28451   4.658   0.967   1.834  0.0273  0.0515 -0.6993
 8815SOL    HW128452   4.606   0.893   1.803 -0.7552  0.6952 -0.9658
 8815SOL    HW228453   4.604   1.007   1.902  1.8599 -1.5384  1.8412
 8816SOL     OW28454   9.397   8.799   0.385 -0.2771 -0.0028  0.2434
 8816SOL    HW128455   9.387   8.883   0.430  0.9922  0.0355  0.5105
 8816SOL    HW228456   9.328   8.744   0.421 -0.8572  0.7867  0.3818
 8817SOL     OW28457   4.013   8.939   0.881 -0.1545  0.3207  0.1582
 8817SOL    HW128458   3.971   8.949   0.795  0.6673 -0.9454 -0.4216
 8817SOL    HW228459   3.942   8.913   0.939 -0.8333  1.7544  0.0253
 8818SOL     OW28460   2.739   4.903   1.475 -0.2107  0.2881  0.1839
 8818SOL    HW128461   2.742   4.925   1.382 -0.4540  1.2050  0.3893
 8818SOL    HW228462   2.695   4.977   1.516 -0.7506 -0.4359  0.9377
 8819SOL     OW28463   3.496  10.780   5.694  0.1307  0.5160 -0.1547
 8819SOL    HW128464   3.483  10.701   5.643 -1.6342 -0.2517  1.3882
 8819SOL    HW228465   3.518  10.847   5.629  0.3146 -0.9151 -1.6263
 8820SOL     OW28466   3.436   3.168   1.333 -0.1815 -0.1917  0.2253
 8820SOL    HW128467   3.403   3.095   1.386  0.2593 -0.1416  0.5757
 8820SOL    HW228468   3.411   3.145   1.244  0.0220 -0.8186  0.3200
 8821SOL     OW28469   3.706   0.817   7.775 -0.6814  0.2816  0.3962
 8821SOL    HW128470   3.706   0.812   7.870  0.3997 -0.6254  0.3710
 8821SOL    HW228471   3.702   0.911   7.755  1.4901  0.6544  1.3922
 8822SOL     OW28472   7.647   8.223   0.452  0.3832 -0.4764 -0.4643
 8822SOL    HW128473   7.585   8.245   0.522  1.0246 -3.7816  1.3380
 8822SOL    HW228474   7.733   8.227   0.494  0.6930 -3.8441 -0.4571
 8823SOL     OW28475   4.048  10.248   0.799 -0.1719  0.4951 -0.0721
 8823SOL    HW128476   4.029  10.174   0.856  2.8640 -0.6770 -0.3693
 8823SOL    HW228477   4.065  10.321   0.858 -2.4155  0.8227  0.2468
 8824SOL     OW28478   0.608   1.619   1.319  0.1402 -0.0039  0.1144
 8824SOL    HW128479   0.530   1.568   1.297  0.0322  0.2435 -0.0705
 8824SOL    HW228480   0.655   1.564   1.382  0.7714 -1.0194 -1.1752
 8825SOL     OW28481   3.002   7.456   0.490 -0.1238  0.6836  0.5377
 8825SOL    HW128482   3.024   7.527   0.429 -1.0345 -0.1043 -0.7595
 8825SOL    HW228483   2.920   7.484   0.530 -0.5482  0.3210 -0.0664
 8826SOL     OW28484   4.285   0.050   3.710  0.2946 -0.1669 -0.2111
 8826SOL    HW128485   4.233   0.096   3.775  0.4820 -0.4275  0.1235
 8826SOL    HW228486   4.373   0.047   3.747  0.8665  1.4270 -1.3466
 8827SOL     OW28487   2.763   3.514   2.382  0.3590 -0.0092 -0.5094
 8827SOL    HW128488   2.811   3.464   2.315 -0.0774 -0.7748 -0.2579
 8827SOL    HW228489   2.762   3.604   2.348  0.8795 -0.2271 -1.1232
 8828SOL     OW28490  10.367   0.947   1.108 -0.3703 -0.2149  0.0389
 8828SOL    HW128491  10.362   1.034   1.069  0.2918 -0.4569 -0.6146
 8828SOL    HW228492  10.413   0.894   1.043  0.3866 -0.7366  0.9556
 8829SOL     OW28493   8.277   1.841   1.735 -0.2035  0.5786 -0.1550
 8829SOL    HW128494   8.197   1.848   1.787 -0.4041  1.1137 -0.5177
 8829SOL    HW228495   8.348   1.852   1.799 -0.1971 -3.9076  0.8973
 8830SOL     OW28496   5.936   4.824   1.211  0.5990 -0.6153  0.0410
 8830SOL    HW128497   5.883   4.864   1.281 -0.5141  1.4438 -1.8424
 8830SOL    HW228498   6.008   4.782   1.257 -0.0300  0.7108  2.4269
 8831SOL     OW28499   1.713   2.581   3.565 -0.1207 -0.1344 -0.0154
 8831SOL    HW128500   1.788   2.639   3.552 -0.0488  0.0819  1.1942
 8831SOL    HW228501   1.669   2.616   3.643 -0.2645 -1.4946  0.5537
 8832SOL     OW28502   7.580   2.958  11.046  0.0762 -0.2363 -0.4818
 8832SOL    HW128503   7.574   2.885  10.984  1.0019 -1.7095  1.0633
 8832SOL    HW228504   7.626   3.027  10.998  0.8222 -1.3477 -1.4280
 8833SOL     OW28505   6.895   5.054   3.961 -1.1556  0.2390  0.1718
 8833SOL    HW128506   6.896   4.969   4.006 -2.0331  0.2262  0.1720
 8833SOL    HW228507   6.970   5.101   3.998  0.3580 -1.1267 -1.0141
 8834SOL     OW28508  10.720   9.430   2.853  0.7641 -0.1679  0.0298
 8834SOL    HW128509  10.695   9.338   2.839  0.5769 -0.6474  2.8736
 8834SOL    HW228510  10.638   9.479   2.839  0.1784 -0.7829  1.1585
 8835SOL     OW28511   0.795   4.036   4.295 -0.3648  0.4360  0.4750
 8835SOL    HW128512   0.888   4.025   4.315 -0.4779  0.3098  0.9380
 8835SOL    HW228513   0.767   4.106   4.353 -1.5039 -2.2032  3.3541
 8836SOL     OW28514   4.969   0.448   2.642 -0.4689  0.0632  0.3360
 8836SOL    HW128515   5.032   0.457   2.714 -0.8940  1.3871  0.5761
 8836SOL    HW228516   4.906   0.383   2.674 -1.3893  1.5842  1.7457
 8837SOL     OW28517   8.276   9.824   1.297 -0.0910  0.4136  0.5737
 8837SOL    HW128518   8.307   9.868   1.376 -0.3543  0.2260  0.7871
 8837SOL    HW228519   8.182   9.811   1.312 -0.0811  0.0815  0.3725
 8838SOL     OW28520   5.984  10.656   7.287 -0.1454  0.0754 -0.0880
 8838SOL    HW128521   5.914  10.660   7.222 -0.2651 -2.2541 -0.2186
 8838SOL    HW228522   6.057  10.704   7.249 -1.2940  1.5824 -0.4387
 8839SOL     OW28523   6.967   2.039   1.239  0.5738 -0.5481 -1.1453
 8839SOL    HW128524   7.014   2.107   1.192 -0.0619  0.3082 -0.5761
 8839SOL    HW228525   6.883   2.079   1.262  0.4684 -1.2809 -0.1860
 8840SOL     OW28526  10.080   0.935   0.162 -0.4095  0.2542  0.7007
 8840SOL    HW128527  10.086   0.992   0.086 -0.1422  0.6180  0.9885
 8840SOL    HW228528  10.003   0.881   0.146 -1.4958  1.6327  1.0297
 8841SOL     OW28529   6.284   6.076   9.062  0.5422 -0.6301 -0.1041
 8841SOL    HW128530   6.338   6.107   9.135  0.2922  0.1184 -0.2227
 8841SOL    HW228531   6.291   6.145   8.996 -0.8134 -0.3439  0.0170
 8842SOL     OW28532   5.146   0.657   2.868 -0.1922 -0.2927  0.4424
 8842SOL    HW128533   5.147   0.565   2.895 -1.4529 -0.5216 -0.2138
 8842SOL    HW228534   5.228   0.668   2.819  1.5059 -0.2054  3.0876
 8843SOL     OW28535   9.604   3.706   2.785  0.0445 -0.1818 -0.0797
 8843SOL    HW128536   9.640   3.774   2.842  1.8766 -1.4726  0.3750
 8843SOL    HW228537   9.543   3.657   2.842 -2.8452  2.1615 -0.9195
 8844SOL     OW28538   7.497   4.099   7.991 -0.3352 -0.2701 -0.1993
 8844SOL    HW128539   7.526   4.008   7.989 -0.7538 -0.4835  1.5427
 8844SOL    HW228540   7.409   4.096   7.954  0.2732 -0.2748 -1.7066
 8845SOL     OW28541   2.182   4.598   3.469 -0.2267  0.2734  0.1857
 8845SOL    HW128542   2.254   4.661   3.468  0.2134 -0.2278  0.3329
 8845SOL    HW228543   2.108   4.648   3.434  0.5331  0.3922 -1.3666
 8846SOL     OW28544   0.181   2.945   7.856  0.0130  0.3013 -0.2268
 8846SOL    HW128545   0.203   2.982   7.770 -0.1467  0.8996 -0.0171
 8846SOL    HW228546   0.243   2.986   7.916 -0.5805  0.7293  0.1110
 8847SOL     OW28547   9.510   5.417   4.039 -0.4102 -0.1749 -0.2489
 8847SOL    HW128548   9.593   5.451   4.005  0.1948 -1.1313  0.2136
 8847SOL    HW228549   9.528   5.324   4.056 -2.0166 -0.7887 -1.5666
 8848SOL     OW28550   0.271   2.289   1.764  0.7056  0.4045 -0.0925
 8848SOL    HW128551   0.279   2.207   1.716 -2.3883 -0.6230  0.9309
 8848SOL    HW228552   0.334   2.281   1.836 -0.3657 -1.6572  0.6935
 8849SOL     OW28553   1.606   4.460   0.450 -0.5232  0.0964  0.4674
 8849SOL    HW128554   1.694   4.481   0.421 -0.5388 -0.0024  0.3488
 8849SOL    HW228555   1.618   4.423   0.537 -0.4346 -0.0587  0.3885
 8850SOL     OW28556   3.463   3.589  10.262 -0.8556  0.0267 -0.1341
 8850SOL    HW128557   3.475   3.554  10.350 -0.3039 -1.0303 -0.6098
 8850SOL    HW228558   3.471   3.684  10.273  0.8485 -0.1716  0.7266
 8851SOL     OW28559   3.982   9.248   1.230 -0.0781 -0.2971  0.0226
 8851SOL    HW128560   3.910   9.198   1.269  0.3481 -0.5033  0.5767
 8851SOL    HW228561   3.963   9.250   1.137 -0.3977 -1.0188  0.0671
 8852SOL     OW28562   3.742   2.841   1.870  0.3581  0.3911  0.0773
 8852SOL    HW128563   3.757   2.919   1.817 -0.4456  2.0610  2.1435
 8852SOL    HW228564   3.829   2.807   1.889  0.6669 -0.5660 -2.5880
 8853SOL     OW28565   9.522   2.407   6.839 -0.4324 -0.3956  0.1089
 8853SOL    HW128566   9.578   2.361   6.777 -0.1307  0.0221  0.0685
 8853SOL    HW228567   9.444   2.351   6.847  1.3454 -2.8001  2.7238
 8854SOL     OW28568   3.184   1.302   6.382 -0.1498 -0.3780 -0.2633
 8854SOL    HW128569   3.127   1.331   6.311 -0.5965 -0.1048  0.2012
 8854SOL    HW228570   3.227   1.223   6.347  0.0201  0.0352 -1.0172
 8855SOL     OW28571   8.584   7.253   4.104  0.1428  0.3572 -0.2219
 8855SOL    HW128572   8.673   7.231   4.074  1.1001  2.8293  0.6195
 8855SOL    HW228573   8.581   7.222   4.194  1.1657  2.5777  0.6498
 8856SOL     OW28574   2.240   4.658   3.078  0.5598 -0.2177 -0.1736
 8856SOL    HW128575   2.309   4.674   3.142 -1.0308  1.5847  1.2536
 8856SOL    HW228576   2.286   4.630   2.999  3.0531  2.1500  0.2758
 8857SOL     OW28577   0.062   1.258  11.066 -0.1501  0.0416  0.2365
 8857SOL    HW128578   0.133   1.247  11.130  0.2106 -0.4531 -0.2324
 8857SOL    HW228579   0.101   1.230  10.983 -0.6590  0.5228 -0.1689
 8858SOL     OW28580   2.098   0.841   4.626 -0.7410 -0.2133  0.9151
 8858SOL    HW128581   2.060   0.886   4.551 -0.3597 -0.4129  0.5959
 8858SOL    HW228582   2.104   0.749   4.598  1.0771 -0.0021  0.4856
 8859SOL     OW28583   6.481   4.631   2.564  0.5650  0.2625  0.1617
 8859SOL    HW128584   6.393   4.642   2.530 -0.3013 -0.8601  1.8918
 8859SOL    HW228585   6.508   4.719   2.590  0.0510  0.6404 -0.5536
 8860SOL     OW28586   1.840   7.429   0.179 -0.0836  0.1265 -0.1908
 8860SOL    HW128587   1.746   7.447   0.180 -0.4354 -1.3794 -1.9782
 8860SOL    HW228588   1.870   7.459   0.093  1.0100  0.2250  0.2024
 8861SOL     OW28589   2.425   5.526   9.644  0.3362 -0.5942  0.4369
 8861SOL    HW128590   2.344   5.567   9.673  0.6040 -0.0453  0.4215
 8861SOL    HW228591   2.410   5.506   9.551 -0.3365 -1.8944  0.8036
 8862SOL     OW28592   5.614   3.760  10.992  0.1210  0.1450  0.5291
 8862SOL    HW128593   5.668   3.836  10.971 -0.3109 -0.1014 -1.6999
 8862SOL    HW228594   5.663   3.714  11.061  1.5127  1.2272  0.3089
 8863SOL     OW28595   6.531   8.900   5.021  0.1454 -0.5131 -0.1826
 8863SOL    HW128596   6.564   8.968   5.078 -0.1307 -0.2774 -0.3027
 8863SOL    HW228597   6.483   8.840   5.079 -0.6926  0.0734 -0.2509
 8864SOL     OW28598   2.400   3.912   0.424 -0.1270  0.2397  0.0452
 8864SOL    HW128599   2.480   3.939   0.378  1.4972  0.8597  2.9760
 8864SOL    HW228600   2.344   3.990   0.422  0.4374  0.6598  0.1325
 8865SOL     OW28601   1.068   7.901   0.123 -0.1476  0.1118  0.1911
 8865SOL    HW128602   0.994   7.921   0.066 -1.1279  2.3584  2.0681
 8865SOL    HW228603   1.143   7.944   0.082 -0.5964  0.7475  0.0316
 8866SOL     OW28604   4.639   0.707   4.299 -0.3419 -0.3530  0.0756
 8866SOL    HW128605   4.644   0.644   4.371 -1.4980  1.6840  2.0412
 8866SOL    HW228606   4.546   0.712   4.278 -0.2956  0.8977  0.1328
 8867SOL     OW28607   3.875   9.029   3.830  0.3500  0.5397  0.1043
 8867SOL    HW128608   3.899   9.076   3.750  0.1865 -1.0112 -0.8834
 8867SOL    HW228609   3.956   8.988   3.859  0.2696  0.5844  0.3950
 8868SOL     OW28610   7.662  10.301   9.601 -0.3149 -0.3078 -0.1850
 8868SOL    HW128611   7.669  10.276   9.509  1.5396 -2.2016  0.3810
 8868SOL    HW228612   7.677  10.219   9.648  1.3221  1.0692  1.8241
 8869SOL     OW28613   0.226   1.580   9.378  0.3904  0.2446 -0.0544
 8869SOL    HW128614   0.197   1.519   9.446 -1.4062  0.2347 -0.7651
 8869SOL    HW228615   0.213   1.667   9.417  1.9765  0.2206  0.5838
 8870SOL     OW28616   1.235   3.147   6.832  0.3511  0.0333 -0.0730
 8870SOL    HW128617   1.198   3.144   6.743 -0.1584 -1.1086  0.1498
 8870SOL    HW228618   1.200   3.227   6.870  0.2427  0.3231 -0.7693
 8871SOL     OW28619   6.230   9.710   2.729 -0.1016 -0.1562  0.5771
 8871SOL    HW128620   6.258   9.797   2.760 -0.2681  0.6249 -1.2952
 8871SOL    HW228621   6.304   9.679   2.676 -0.9403 -0.1028 -0.6588
 8872SOL     OW28622   5.203   2.705   3.185 -0.0538  0.4695  0.0954
 8872SOL    HW128623   5.119   2.711   3.140 -0.7426 -0.9861  1.1129
 8872SOL    HW228624   5.210   2.787   3.234 -1.4529  0.1297  0.9163
 8873SOL     OW28625   2.088   5.112   3.799  0.3166  0.3191 -0.1796
 8873SOL    HW128626   2.106   5.161   3.720 -2.0746  2.3932  0.4293
 8873SOL    HW228627   2.004   5.069   3.783 -0.1310  0.6390  1.1433
 8874SOL     OW28628   8.512   8.281   3.654 -0.0894  0.5860  0.3545
 8874SOL    HW128629   8.574   8.215   3.686 -0.5620  0.2664  0.6148
 8874SOL    HW228630   8.567   8.345   3.609  0.3396 -0.1829 -0.2367
 8875SOL     OW28631   6.431   8.778   1.737  0.2855 -0.9355  0.0604
 8875SOL    HW128632   6.511   8.803   1.691 -0.1670 -1.4128 -1.0278
 8875SOL    HW228633   6.396   8.704   1.687 -2.2434  0.9048 -1.1240
 8876SOL     OW28634   4.883   0.832   0.527  0.1574 -0.0005 -0.0551
 8876SOL    HW128635   4.936   0.847   0.606  0.6779 -1.7532 -0.0256
 8876SOL    HW228636   4.815   0.771   0.555  0.2712 -0.5384 -0.9221
 8877SOL     OW28637   1.878   6.317   1.762  0.4750  0.2367 -0.1376
 8877SOL    HW128638   1.877   6.224   1.785 -0.6749  0.1833 -0.3660
 8877SOL    HW228639   1.799   6.352   1.803  0.4269  0.9268 -0.8047
 8878SOL     OW28640  10.823   3.320   3.685  0.0518  0.1574  0.2626
 8878SOL    HW128641  10.866   3.240   3.714  2.3567  0.5200 -1.8687
 8878SOL    HW228642  10.895   3.380   3.664 -1.5810  2.2161  0.1963
 8879SOL     OW28643   3.990   9.692   5.526  0.4153 -0.3159  0.4168
 8879SOL    HW128644   3.953   9.676   5.440  0.3547 -0.7360  0.5198
 8879SOL    HW228645   3.916   9.719   5.580  0.8893  3.3276 -0.4464
 8880SOL     OW28646   4.415   4.875   5.033  0.0447 -0.2824  0.1764
 8880SOL    HW128647   4.503   4.906   5.054 -0.9793  1.2515  2.7077
 8880SOL    HW228648   4.427   4.782   5.012  2.2682 -0.1053  0.3793
 8881SOL     OW28649   9.618   8.012   6.323  0.1941 -0.0869 -0.0516
 8881SOL    HW128650   9.606   8.105   6.304  2.3391  0.6239  1.6522
 8881SOL    HW228651   9.560   7.995   6.398  0.7062  0.2324  0.4296
 8882SOL     OW28652   2.680   1.031   3.614 -0.1217  0.0973  0.1000
 8882SOL    HW128653   2.630   0.950   3.603 -1.7347  0.9703  0.5345
 8882SOL    HW228654   2.670   1.053   3.707 -0.0492  0.9813 -0.0907
 8883SOL     OW28655   0.986   2.746   5.271  0.4030  0.0013 -0.1701
 8883SOL    HW128656   0.916   2.682   5.275 -0.7153  1.1568 -0.3795
 8883SOL    HW228657   0.951   2.823   5.317  0.7464  1.2901 -1.9395
 8884SOL     OW28658   4.657   4.131   2.754  0.1650  0.0057 -0.5570
 8884SOL    HW128659   4.692   4.218   2.772  0.9469 -0.1433 -1.3025
 8884SOL    HW228660   4.711   4.098   2.682  0.8410 -1.6612  0.6646
 8885SOL     OW28661   8.661   3.127  10.154 -0.2618 -0.5937 -0.0963
 8885SOL    HW128662   8.623   3.159  10.236  0.5077 -1.1941  0.5094
 8885SOL    HW228663   8.715   3.199  10.122 -1.0462 -0.1267 -0.4180
 8886SOL     OW28664   7.926   9.197   7.850 -0.0193  0.2268  0.5257
 8886SOL    HW128665   7.871   9.172   7.775 -0.2085 -2.3349  1.4003
 8886SOL    HW228666   8.015   9.175   7.821  0.0305  0.2798  0.6433
 8887SOL     OW28667   1.375   2.872   1.914  0.2300  0.1902  0.7042
 8887SOL    HW128668   1.311   2.941   1.929 -0.6052 -0.2150 -0.7202
 8887SOL    HW228669   1.322   2.797   1.884  1.2865 -0.4091  0.2789
 8888SOL     OW28670   5.896  10.302   2.934  0.1688 -0.1238 -0.7024
 8888SOL    HW128671   5.978  10.303   2.983 -0.3879 -0.2879  0.2524
 8888SOL    HW228672   5.830  10.331   2.997 -0.5825 -0.4417 -1.3310
 8889SOL     OW28673   5.678   2.261   9.285  0.1492 -0.1253  0.0453
 8889SOL    HW128674   5.692   2.301   9.199 -1.2077  0.8005  0.2296
 8889SOL    HW228675   5.597   2.211   9.276 -0.0106 -0.0127  0.7860
 8890SOL     OW28676   3.275   9.749   1.035  0.1231  0.8248  0.5979
 8890SOL    HW128677   3.211   9.730   1.103 -1.2510  2.1809 -0.2556
 8890SOL    HW228678   3.298   9.841   1.049  0.2963  0.9407 -0.3758
 8891SOL     OW28679   3.630   9.478   4.524  0.5692  0.5789 -0.1737
 8891SOL    HW128680   3.702   9.418   4.539  0.0298 -0.7579 -2.4712
 8891SOL    HW228681   3.672   9.558   4.491  1.0982  0.5253  0.3522
 8892SOL     OW28682   3.572   3.934   3.273 -0.0320 -0.0113  0.6873
 8892SOL    HW128683   3.560   3.957   3.181  2.8436  0.7573  0.3994
 8892SOL    HW228684   3.584   3.839   3.273 -0.1552 -0.0279  0.2965
 8893SOL     OW28685   1.912   7.529  11.022  0.2436 -0.0233  0.2130
 8893SOL    HW128686   1.918   7.625  11.025  0.6676  0.0268 -1.3764
 8893SOL    HW228687   1.967   7.504  10.948 -0.1042 -1.4906  0.4241
 8894SOL     OW28688   4.283   0.360   4.639 -0.5213  0.0705 -0.0726
 8894SOL    HW128689   4.350   0.295   4.618 -0.2215  0.8557 -1.6713
 8894SOL    HW228690   4.200   0.314   4.625 -0.3328 -0.5300  0.7041
 8895SOL     OW28691   3.964  11.075  11.017 -0.0276  0.1744 -0.1663
 8895SOL    HW128692   3.906  11.034  11.081  0.4272  0.1004  0.2088
 8895SOL    HW228693   4.046  11.090  11.065 -0.1842  1.5409 -0.2698
 8896SOL     OW28694  10.016   4.715   6.296 -0.4639 -0.3822  0.4084
 8896SOL    HW128695   9.931   4.701   6.336 -0.6842 -0.7835 -0.2016
 8896SOL    HW228696  10.014   4.806   6.267  0.1486  0.3197  2.3608
 8897SOL     OW28697   9.464   3.735   1.549  0.1630  0.1948  0.7339
 8897SOL    HW128698   9.478   3.829   1.556 -1.3973  0.3733  2.5380
 8897SOL    HW228699   9.376   3.727   1.512  1.3815 -0.6625 -2.2081
 8898SOL     OW28700   6.194   0.985   2.944  0.6519  0.3523 -0.4463
 8898SOL    HW128701   6.255   0.996   2.871  1.9248  1.5119  0.7373
 8898SOL    HW228702   6.200   1.067   2.993  0.4693 -0.6809  1.4206
 8899SOL     OW28703   6.480   3.552  10.894 -0.2693 -0.3744  0.2131
 8899SOL    HW128704   6.387   3.555  10.915 -0.4525 -0.2831 -0.5929
 8899SOL    HW228705   6.486   3.495  10.817  0.2418  0.2823 -0.2476
 8900SOL     OW28706   1.373   3.848   0.720  0.2305 -0.2961  0.0190
 8900SOL    HW128707   1.279   3.842   0.706  0.4947 -0.7865 -1.7187
 8900SOL    HW228708   1.399   3.931   0.679  0.2565  1.0489  2.5538
 8901SOL     OW28709   8.988   5.492   6.498 -0.1889 -0.4641 -0.1592
 8901SOL    HW128710   8.896   5.479   6.472  0.0612 -0.5605 -1.0257
 8901SOL    HW228711   9.000   5.587   6.496 -0.8847 -0.2696  2.1970
 8902SOL     OW28712   1.196   9.444   1.874  0.8590  0.3294  0.1203
 8902SOL    HW128713   1.165   9.512   1.813 -1.5996 -1.0067 -0.2610
 8902SOL    HW228714   1.172   9.362   1.831  1.1912 -0.7148  1.8659
 8903SOL     OW28715   2.528   2.019  10.487  0.2109 -0.5362 -0.0743
 8903SOL    HW128716   2.606   2.007  10.433 -0.4592  1.4151 -1.6030
 8903SOL    HW228717   2.551   1.980  10.571  4.1153  2.7522  0.6834
 8904SOL     OW28718   8.818   1.366   1.525  0.0703 -0.3977 -0.2676
 8904SOL    HW128719   8.763   1.435   1.561  0.3483 -1.0601  1.5203
 8904SOL    HW228720   8.760   1.318   1.465 -1.3108 -0.9896  1.4486
 8905SOL     OW28721   3.954   1.965   0.303  0.3986  0.0706 -0.4623
 8905SOL    HW128722   3.892   1.976   0.230 -1.0220  0.4728  0.7523
 8905SOL    HW228723   3.964   1.870   0.312  0.4155  0.0143 -1.0390
 8906SOL     OW28724   2.839   3.013   4.785 -0.6675  0.4255  0.2264
 8906SOL    HW128725   2.790   2.937   4.818 -0.4548 -0.2131 -0.8797
 8906SOL    HW228726   2.907   2.975   4.729 -0.8357  1.4565 -0.7041
 8907SOL     OW28727   2.707   1.476  10.330 -0.3278 -0.1882  0.2806
 8907SOL    HW128728   2.748   1.487  10.244 -1.9583 -0.4449 -0.5878
 8907SOL    HW228729   2.668   1.561  10.349  2.2308  0.6989  2.0735
 8908SOL     OW28730   9.737   3.531   9.886  0.6666 -0.6490 -0.0302
 8908SOL    HW128731   9.744   3.616   9.929  0.1525 -0.6330  0.0276
 8908SOL    HW228732   9.822   3.490   9.901  0.6939 -0.4121  0.5019
 8909SOL     OW28733  10.032   0.465   0.415 -0.0322 -0.2380  0.3876
 8909SOL    HW128734  10.091   0.540   0.418  1.1566 -1.1361  0.2634
 8909SOL    HW228735   9.951   0.499   0.378 -0.2734  1.4643  2.2787
 8910SOL     OW28736   2.450   6.908   1.266 -0.2557 -0.3617 -0.0548
 8910SOL    HW128737   2.450   6.997   1.229 -1.4646  0.0074  0.8052
 8910SOL    HW228738   2.532   6.870   1.234  1.2680  1.7151  1.1339
 8911SOL     OW28739   9.070   4.407   2.381 -0.5889 -0.3295  0.6776
 8911SOL    HW128740   9.036   4.455   2.457 -1.2144  0.6200 -0.1712
 8911SOL    HW228741   9.135   4.467   2.342 -0.4420 -0.7116  0.3284
 8912SOL     OW28742   0.524   3.193   9.078  0.5345 -0.1044 -0.0122
 8912SOL    HW128743   0.551   3.107   9.109  0.2682  0.0243  0.5900
 8912SOL    HW228744   0.561   3.255   9.141  0.5627  0.2087 -0.3327
 8913SOL     OW28745   0.145  10.418   5.371  0.3725 -0.6228  0.0687
 8913SOL    HW128746   0.175  10.468   5.447  0.0261  0.4972 -0.5009
 8913SOL    HW228747   0.210  10.349   5.360  1.4855  0.3774  0.2215
 8914SOL     OW28748   7.691   0.827   5.933 -0.3574 -0.3798 -0.5192
 8914SOL    HW128749   7.760   0.769   5.965 -0.6591 -2.1306 -2.7702
 8914SOL    HW228750   7.677   0.800   5.842 -2.6004  1.2860 -0.7644
 8915SOL     OW28751   2.522   9.951  10.096 -0.9043 -0.0121  0.0501
 8915SOL    HW128752   2.509   9.884  10.030  2.7398 -1.0220  0.1105
 8915SOL    HW228753   2.502   9.909  10.179 -2.1174  0.1666 -0.1372
 8916SOL     OW28754   6.313   8.835   2.048  0.7712  0.5864 -0.1454
 8916SOL    HW128755   6.324   8.813   1.955 -1.7273  0.5169 -0.4978
 8916SOL    HW228756   6.402   8.844   2.081  1.7543 -0.4274 -2.2975
 8917SOL     OW28757   6.482   8.028   1.221 -0.4654  0.3024  0.3573
 8917SOL    HW128758   6.528   8.083   1.158 -1.2258 -0.9149 -1.3586
 8917SOL    HW228759   6.444   8.089   1.284 -0.1515  1.6167 -0.6922
 8918SOL     OW28760   8.210   2.046   3.048  0.5411 -0.2646  0.1831
 8918SOL    HW128761   8.216   1.995   2.967 -0.8336 -0.6925  0.3198
 8918SOL    HW228762   8.281   2.013   3.103 -0.7649 -2.6567  0.5711
 8919SOL     OW28763   1.821  10.911   8.015 -0.1189  0.2418  0.8700
 8919SOL    HW128764   1.896  10.871   8.060  0.3618 -0.2137 -0.3044
 8919SOL    HW228765   1.746  10.888   8.070  0.1394 -2.2267  0.3335
 8920SOL     OW28766   0.579   1.286   1.794 -0.1598 -0.3418 -0.2287
 8920SOL    HW128767   0.641   1.217   1.767 -1.4894 -2.1605  1.1177
 8920SOL    HW228768   0.509   1.281   1.729  0.2969  0.5958 -0.8112
 8921SOL     OW28769   1.508   9.899  10.591 -0.1691  0.0308  0.5222
 8921SOL    HW128770   1.496   9.936  10.679  0.3134  0.4642  0.4102
 8921SOL    HW228771   1.429   9.847  10.577 -1.0266  1.2571  0.5779
 8922SOL     OW28772   3.707   4.486   9.970  0.1638  0.3769 -0.5150
 8922SOL    HW128773   3.673   4.421   9.908 -0.5174  0.9193 -0.7307
 8922SOL    HW228774   3.795   4.505   9.938 -0.2609  0.8276 -1.4975
 8923SOL     OW28775   5.285   4.045  10.217 -0.3847 -0.6113 -0.3845
 8923SOL    HW128776   5.256   3.963  10.256  2.1464 -0.4176  2.2418
 8923SOL    HW228777   5.209   4.103  10.225 -1.1126 -1.6862  1.0204
 8924SOL     OW28778   6.974   3.153   3.263 -0.0448  0.4078  0.3076
 8924SOL    HW128779   6.998   3.216   3.194 -0.6062  0.2237 -0.0656
 8924SOL    HW228780   6.961   3.207   3.341 -0.1584  0.7156  0.0811
 8925SOL     OW28781   0.461   2.266   5.467  0.0249 -0.7680  0.2746
 8925SOL    HW128782   0.419   2.322   5.532  0.2826 -0.2414 -0.0017
 8925SOL    HW228783   0.544   2.241   5.506  0.8291  0.7067 -0.3841
 8926SOL     OW28784   6.196   7.704   8.585 -0.5466 -0.0402 -0.3185
 8926SOL    HW128785   6.287   7.695   8.555 -0.5354 -0.0812 -0.2721
 8926SOL    HW228786   6.145   7.714   8.505 -0.1838  3.1987 -0.2750
 8927SOL     OW28787   5.213   1.663  10.826  0.3565 -0.0060 -0.4545
 8927SOL    HW128788   5.224   1.752  10.793  0.2719  0.6495  1.2052
 8927SOL    HW228789   5.165   1.618  10.757 -0.3720  1.4767 -0.9621
 8928SOL     OW28790   6.040   1.283   6.286 -0.5991  0.2743 -0.3181
 8928SOL    HW128791   6.132   1.271   6.310 -0.5011 -0.5529 -1.0690
 8928SOL    HW228792   6.027   1.378   6.288  0.9338  0.6057 -2.5864
 8929SOL     OW28793   4.415   2.180   8.142  0.3509  0.4283  0.1686
 8929SOL    HW128794   4.389   2.088   8.138  2.4349 -0.2576  1.1497
 8929SOL    HW228795   4.383   2.210   8.227  0.9746  0.1476  0.5127
 8930SOL     OW28796   5.524   1.425   4.841  0.0657  0.2545 -0.0602
 8930SOL    HW128797   5.600   1.382   4.879 -0.1012 -0.3535 -0.3988
 8930SOL    HW228798   5.449   1.392   4.890 -0.0743  0.0642 -0.3952
 8931SOL     OW28799   3.750   1.472   1.381  0.2004 -0.1763 -0.0647
 8931SOL    HW128800   3.757   1.395   1.325  0.9445  0.5023 -0.9242
 8931SOL    HW228801   3.759   1.438   1.470 -0.4414 -1.1951 -0.3693
 8932SOL     OW28802   1.056   2.317   6.441  0.2224 -0.2527  0.3124
 8932SOL    HW128803   0.961   2.314   6.451  0.1557  0.0801 -0.1878
 8932SOL    HW228804   1.069   2.343   6.350  0.7934 -0.0737  0.4452
 8933SOL     OW28805   0.394   6.581   6.297  0.0770  0.0950  0.2735
 8933SOL    HW128806   0.478   6.591   6.343  0.3362 -3.7544  0.9212
 8933SOL    HW228807   0.358   6.499   6.330 -3.3976  0.9770 -0.9488
 8934SOL     OW28808   1.364   5.283   2.489 -0.2503 -0.0268  0.0588
 8934SOL    HW128809   1.444   5.247   2.528 -0.8634  0.0096  1.4160
 8934SOL    HW228810   1.329   5.341   2.557 -1.5280 -0.1977 -0.4350
 8935SOL     OW28811  10.904   0.578   1.553  0.0698 -0.1741  0.3771
 8935SOL    HW128812  10.976   0.527   1.515  1.0922  1.8061 -0.4631
 8935SOL    HW228813  10.853   0.609   1.478 -0.2181  0.4915  0.8355
 8936SOL     OW28814   9.366   0.516   8.996 -0.2529 -0.5478 -0.4926
 8936SOL    HW128815   9.431   0.578   8.965 -0.9067  0.3548 -0.0975
 8936SOL    HW228816   9.406   0.474   9.072  0.2033 -0.6543 -0.7869
 8937SOL     OW28817   9.139   3.596   4.772 -0.2454  0.1325 -0.1907
 8937SOL    HW128818   9.119   3.677   4.725  0.1327  0.2855 -0.0979
 8937SOL    HW228819   9.142   3.529   4.704 -0.1336  0.2736 -0.3268
 8938SOL     OW28820  10.228   6.127   6.703  0.3469  0.1214 -0.2518
 8938SOL    HW128821  10.206   6.034   6.693  2.3250 -0.3752 -0.4228
 8938SOL    HW228822  10.287   6.129   6.778 -0.8210  1.4715  0.6618
 8939SOL     OW28823   7.917  10.734   2.227  0.9575 -0.2441 -0.0679
 8939SOL    HW128824   7.867  10.776   2.297  0.5228 -0.5286 -0.2004
 8939SOL    HW228825   7.856  10.729   2.154  0.8434 -1.5226  0.0935
 8940SOL     OW28826   0.945   3.545   3.103 -0.1405 -0.3658 -0.1967
 8940SOL    HW128827   1.039   3.562   3.111 -0.3676  0.3554  1.2010
 8940SOL    HW228828   0.903   3.614   3.155 -1.3465 -1.7807  0.8105
 8941SOL     OW28829   2.918   2.117   7.038 -0.4915 -0.3572 -0.7402
 8941SOL    HW128830   2.888   2.207   7.049  0.1938 -0.2193  0.0981
 8941SOL    HW228831   2.838   2.065   7.041 -1.0169  0.2973 -2.4044
 8942SOL     OW28832   2.580   0.496   2.374  0.6336 -0.1719  0.4304
 8942SOL    HW128833   2.579   0.566   2.308 -0.1921 -0.8988 -0.3429
 8942SOL    HW228834   2.671   0.493   2.403  0.7534  1.0122  0.2533
 8943SOL     OW28835   3.932   0.567   1.478  0.7334 -0.1140 -0.2830
 8943SOL    HW128836   3.986   0.487   1.478  0.0976 -0.5544  0.2599
 8943SOL    HW228837   3.854   0.543   1.528  1.1855  1.2971  1.1720
 8944SOL     OW28838   7.502   0.990   6.679 -0.1086  0.2847 -0.4593
 8944SOL    HW128839   7.541   1.015   6.595 -0.9843  0.2998 -0.8637
 8944SOL    HW228840   7.493   0.895   6.673  1.3971  0.0555  0.3049
 8945SOL     OW28841   0.885   3.314   3.569  0.1110 -0.3935  0.2672
 8945SOL    HW128842   0.905   3.229   3.608  1.9690  0.2811  0.8804
 8945SOL    HW228843   0.804   3.341   3.612 -1.0226 -2.2012 -0.5877
 8946SOL     OW28844   2.499   8.110   4.036 -0.3365  0.7154 -0.0354
 8946SOL    HW128845   2.486   8.173   3.965  0.1317  0.9505  0.0851
 8946SOL    HW228846   2.470   8.157   4.114 -0.7223  0.5041 -0.0473
 8947SOL     OW28847   9.449  11.073   3.037  0.4906  0.1419  0.1010
 8947SOL    HW128848   9.446  11.132   3.113 -1.5242  0.8015 -0.4344
 8947SOL    HW228849   9.398  11.118   2.970  0.3432 -1.4538 -0.8985
 8948SOL     OW28850   7.797   2.832   1.794  0.4987 -0.1996  0.1476
 8948SOL    HW128851   7.821   2.916   1.835 -1.3436  0.8534 -0.8054
 8948SOL    HW228852   7.704   2.841   1.775  0.2784 -2.4709 -0.0524
 8949SOL     OW28853   1.721   1.968   7.626  0.1626 -0.4045 -0.0752
 8949SOL    HW128854   1.816   1.971   7.611  0.2654 -0.9478  0.4303
 8949SOL    HW228855   1.683   1.993   7.542  0.7526 -0.1484 -0.2757
 8950SOL     OW28856   3.403   2.169   2.216  0.2221 -0.4046  0.6424
 8950SOL    HW128857   3.428   2.079   2.198  0.6644 -0.4704  1.5370
 8950SOL    HW228858   3.310   2.164   2.236  0.3799 -0.7621  1.3126
 8951SOL     OW28859   4.441   2.926   6.652  0.4671 -0.1187  0.0745
 8951SOL    HW128860   4.521   2.902   6.698  0.8306 -1.8078 -1.3067
 8951SOL    HW228861   4.471   2.982   6.580  0.0811  1.3040  0.9915
 8952SOL     OW28862   1.301   6.710   0.358 -0.0501  0.3466 -0.3987
 8952SOL    HW128863   1.381   6.659   0.372 -0.2523 -0.0862 -0.7707
 8952SOL    HW228864   1.321   6.766   0.283  0.8637  2.3054  1.2155
 8953SOL     OW28865   0.731   5.480   2.549  0.1258 -0.7257  0.1810
 8953SOL    HW128866   0.700   5.391   2.564  0.6570 -0.8969  0.2525
 8953SOL    HW228867   0.814   5.470   2.504 -0.7375 -0.2414 -1.6387
 8954SOL     OW28868  10.253   4.949   2.719  0.7962  0.6015  0.4513
 8954SOL    HW128869  10.187   5.017   2.737  0.1496 -0.2558  1.4932
 8954SOL    HW228870  10.329   4.997   2.686  0.6655  1.9490  1.9708
 8955SOL     OW28871   5.709  10.379   3.127 -0.7841 -0.4723 -0.0893
 8955SOL    HW128872   5.614  10.386   3.115 -0.6623 -0.8101 -1.4344
 8955SOL    HW228873   5.723  10.395   3.220 -1.9231  1.9845 -0.2672
 8956SOL     OW28874   6.706   0.179  10.638 -0.0881  0.5250 -0.2326
 8956SOL    HW128875   6.719   0.145  10.549  0.2119 -1.0222  0.3760
 8956SOL    HW228876   6.779   0.144  10.688 -1.8910 -1.2999  1.3321
 8957SOL     OW28877   3.910   4.985   3.213 -0.3656 -0.6301  0.3860
 8957SOL    HW128878   3.997   4.946   3.205 -0.2431 -0.0215 -2.4947
 8957SOL    HW228879   3.927   5.078   3.230 -0.4816 -0.6575  0.6555
 8958SOL     OW28880   5.258   6.123   9.584  0.2152 -0.0770  0.2024
 8958SOL    HW128881   5.328   6.091   9.641  0.2880 -0.7176 -0.2324
 8958SOL    HW228882   5.302   6.147   9.502 -0.0912 -0.7098 -0.1588
 8959SOL     OW28883   2.807   2.333   4.646  0.1921  0.4366  0.4705
 8959SOL    HW128884   2.870   2.261   4.639 -0.0137  0.1669  1.3243
 8959SOL    HW228885   2.817   2.365   4.736 -0.3084  0.9371  0.3549
 8960SOL     OW28886   6.749   0.211   0.686 -0.0156  0.0158 -0.0778
 8960SOL    HW128887   6.806   0.178   0.755  0.2105 -0.4085 -0.4623
 8960SOL    HW228888   6.806   0.224   0.611 -0.3260  0.1005 -0.3035
 8961SOL     OW28889   4.429   6.451   4.552 -0.0965  0.1077 -0.5463
 8961SOL    HW128890   4.386   6.534   4.531 -0.5933 -0.0871 -0.3067
 8961SOL    HW228891   4.377   6.414   4.624  0.8655  0.1919  0.2137
 8962SOL     OW28892  10.343   9.149   3.283 -1.0877 -0.0594  0.2985
 8962SOL    HW128893  10.311   9.130   3.372 -2.8147  0.0390 -0.2539
 8962SOL    HW228894  10.297   9.086   3.227  0.2250 -0.3349 -0.5086
 8963SOL     OW28895   6.028   5.714   2.334 -0.2229 -0.5131 -0.1243
 8963SOL    HW128896   5.933   5.722   2.333 -0.1116  1.1841 -0.0958
 8963SOL    HW228897   6.060   5.803   2.322  1.3747 -1.0158  0.1195
 8964SOL     OW28898  10.951   8.116   5.951 -0.0098  0.5644 -0.4283
 8964SOL    HW128899  10.931   8.082   5.864 -0.7220 -1.0128  0.3126
 8964SOL    HW228900  10.881   8.178   5.969 -1.4503 -1.1235  0.0777
 8965SOL     OW28901  10.108   7.731   5.990 -0.2704 -0.9926 -0.4736
 8965SOL    HW128902  10.076   7.779   6.067  1.0920  1.4869 -1.3400
 8965SOL    HW228903  10.084   7.786   5.916  2.1674 -1.1429 -1.4503
 8966SOL     OW28904   4.559   5.110   1.241  0.2990  0.2238 -0.1423
 8966SOL    HW128905   4.572   5.135   1.150 -0.7955 -0.2460 -0.4552
 8966SOL    HW228906   4.599   5.023   1.248  2.0535  1.0364  0.3400
 8967SOL     OW28907   6.794   8.116   7.880 -0.0232 -0.1367  1.1134
 8967SOL    HW128908   6.818   8.188   7.823 -0.7464 -0.3674  0.4976
 8967SOL    HW228909   6.857   8.047   7.861 -0.9628 -0.6419 -0.2912
 8968SOL     OW28910   6.174  10.524  10.909  0.1723 -0.1624 -0.3221
 8968SOL    HW128911   6.115  10.482  10.971  0.2998 -1.1647 -0.8574
 8968SOL    HW228912   6.154  10.483  10.824  1.5845 -0.4985 -0.5253
 8969SOL     OW28913   1.940   2.988   4.023  0.0115 -0.0326  0.9094
 8969SOL    HW128914   1.904   2.988   4.112 -0.7557  2.1938  0.6607
 8969SOL    HW228915   1.870   3.023   3.969  0.7537 -0.6036 -0.4664
 8970SOL     OW28916   0.014   1.839   4.547 -0.2130  0.2286 -0.4657
 8970SOL    HW128917  -0.013   1.930   4.546  0.4886  0.5018 -3.6799
 8970SOL    HW228918   0.107   1.842   4.573 -0.4762  0.2557  0.5430
 8971SOL     OW28919   1.041   3.096   2.644 -0.5387 -0.3331 -0.1847
 8971SOL    HW128920   1.096   3.019   2.628 -0.7983 -0.1644 -2.2111
 8971SOL    HW228921   1.072   3.130   2.728  1.1270 -1.3542 -0.3272
 8972SOL     OW28922  10.271  10.792  10.917 -0.0309 -0.0027 -0.2937
 8972SOL    HW128923  10.244  10.868  10.865 -0.9521 -0.3380 -0.3222
 8972SOL    HW228924  10.359  10.815  10.948  0.8480 -0.0940 -2.5432
 8973SOL     OW28925   4.698   3.025   4.272  0.0752 -0.3394 -0.5416
 8973SOL    HW128926   4.620   3.028   4.327  0.6976  0.9264  0.3280
 8973SOL    HW228927   4.740   2.942   4.295 -0.1166 -0.2185  0.2812
 8974SOL     OW28928   2.421   3.361   6.454 -0.3726  0.1759 -0.2784
 8974SOL    HW128929   2.511   3.355   6.485 -0.6308  0.1900  0.4908
 8974SOL    HW228930   2.421   3.311   6.372  0.5213  0.8898 -0.7257
 8975SOL     OW28931   0.809   9.763   8.635  0.1683 -0.7393  0.2852
 8975SOL    HW128932   0.766   9.820   8.570  0.6922 -1.0156 -0.3177
 8975SOL    HW228933   0.760   9.778   8.716  0.9716  1.4110  0.4398
 8976SOL     OW28934   9.884   2.861   0.852 -0.0121  0.1277  0.0461
 8976SOL    HW128935   9.844   2.859   0.939 -1.0099 -0.5024 -0.4174
 8976SOL    HW228936   9.811   2.874   0.792  0.5049 -0.7577 -0.8004
 8977SOL     OW28937   7.164   6.508   1.358  0.3513 -0.2560 -0.4695
 8977SOL    HW128938   7.219   6.579   1.391  1.1820 -1.3622  0.5859
 8977SOL    HW228939   7.123   6.544   1.279  1.2221  1.1797 -0.2926
 8978SOL     OW28940   0.478   7.696   7.618 -0.6888 -1.2491  0.0864
 8978SOL    HW128941   0.565   7.705   7.579 -0.6097 -0.7278  0.3753
 8978SOL    HW228942   0.495   7.686   7.711 -0.9269 -1.3692  0.1154
 8979SOL     OW28943   1.604   8.022   4.459 -0.1744  0.1495  0.3502
 8979SOL    HW128944   1.635   7.970   4.533  0.3144 -0.6150 -0.3779
 8979SOL    HW228945   1.644   8.108   4.471  0.3049 -0.1235  0.6987
 8980SOL     OW28946   6.941   1.986   2.849  0.1042  0.0152 -0.2280
 8980SOL    HW128947   7.008   1.919   2.864  0.3219  0.2468 -0.1606
 8980SOL    HW228948   6.863   1.937   2.823  0.4808 -0.2192 -0.9553
 8981SOL     OW28949   0.760   0.704  10.003  0.1561 -0.3771 -0.3237
 8981SOL    HW128950   0.724   0.635  10.058  2.3725 -2.6198 -1.4804
 8981SOL    HW228951   0.855   0.694  10.011  0.6512 -1.2674 -4.9014
 8982SOL     OW28952   2.214   3.180   2.773  0.0499  0.1692 -0.3436
 8982SOL    HW128953   2.265   3.221   2.843 -0.5840  0.3155  0.0382
 8982SOL    HW228954   2.131   3.227   2.774  0.2214  0.5317 -1.5516
 8983SOL     OW28955   4.389   3.678   0.988  0.1440  0.3504 -0.0375
 8983SOL    HW128956   4.315   3.727   1.023  1.7793  1.1839  2.5980
 8983SOL    HW228957   4.405   3.717   0.902  0.1438  3.2376  1.1398
 8984SOL     OW28958   0.681   1.941   4.743 -0.3553  0.4903  0.3561
 8984SOL    HW128959   0.659   2.034   4.740 -1.0545  0.3170 -0.7405
 8984SOL    HW228960   0.746   1.929   4.674  0.6673  0.3734  1.3185
 8985SOL     OW28961   8.905   5.798   4.888  0.6611 -0.3468 -0.0748
 8985SOL    HW128962   8.837   5.800   4.955 -1.6003  1.5590 -2.2376
 8985SOL    HW228963   8.879   5.727   4.830  0.2100  0.6721 -1.1513
 8986SOL     OW28964   5.088   2.158   6.738 -0.5215 -0.0713  0.3518
 8986SOL    HW128965   4.998   2.186   6.753 -0.3516  1.2691 -0.8576
 8986SOL    HW228966   5.086   2.114   6.653  0.3528  2.3316 -1.0211
 8987SOL     OW28967   4.025   3.770   2.910  0.3532 -0.1847  0.3418
 8987SOL    HW128968   4.085   3.757   2.837  0.8397 -0.0060  0.7050
 8987SOL    HW228969   4.069   3.835   2.965  0.5736 -1.2361  1.4283
 8988SOL     OW28970   5.639   7.714   0.048  0.2949 -0.1565  0.0772
 8988SOL    HW128971   5.621   7.806   0.031 -2.5466 -0.5940  0.3175
 8988SOL    HW228972   5.720   7.715   0.099 -0.1668  2.2771  0.8901
 8989SOL     OW28973   1.226   1.225   7.656 -0.1988 -0.0047 -0.2500
 8989SOL    HW128974   1.163   1.194   7.721  0.8133  0.7254  1.1341
 8989SOL    HW228975   1.305   1.244   7.706 -0.2915  3.4873 -1.1764
 8990SOL     OW28976   6.281   1.350   9.228  0.3673 -0.4077 -0.1441
 8990SOL    HW128977   6.207   1.293   9.209  0.5423 -1.0997  1.1393
 8990SOL    HW228978   6.329   1.355   9.145 -0.6543 -0.6336 -0.7595
 8991SOL     OW28979   4.935   5.675   0.821  0.1674 -0.4711 -0.3734
 8991SOL    HW128980   4.883   5.597   0.839  1.6126 -0.8067  3.1046
 8991SOL    HW228981   5.025   5.644   0.816  0.6886  0.8445  0.2448
 8992SOL     OW28982   6.441   9.254   2.851 -0.2503  0.0677 -0.1606
 8992SOL    HW128983   6.381   9.195   2.806 -1.1377  0.8283 -0.0007
 8992SOL    HW228984   6.431   9.232   2.944 -0.6314  0.5082 -0.0951
 8993SOL     OW28985  10.876   2.775   4.294 -0.9668  0.0339 -0.1575
 8993SOL    HW128986  10.840   2.689   4.313  0.9911 -0.6492  0.6857
 8993SOL    HW228987  10.952   2.783   4.352 -0.7967  2.1175 -0.5838
 8994SOL     OW28988   9.829   2.342   3.165  0.0553  0.4667  0.0807
 8994SOL    HW128989   9.785   2.411   3.115  0.2147  0.9764  0.6243
 8994SOL    HW228990   9.773   2.329   3.242  0.1888  0.2162  0.1355
 8995SOL     OW28991   7.937   9.582   1.680 -0.1252 -0.7197  0.5396
 8995SOL    HW128992   7.892   9.655   1.723  0.4184 -0.2950  0.3922
 8995SOL    HW228993   7.866   9.528   1.645 -0.5790 -0.9812  1.8053
 8996SOL     OW28994   3.810   7.031   1.457  1.0234 -0.1922  0.0839
 8996SOL    HW128995   3.803   6.998   1.547 -0.8153  0.2832  0.1717
 8996SOL    HW228996   3.900   7.060   1.448  2.5473 -4.2735  0.3005
 8997SOL     OW28997   9.309   2.805   2.244  0.1487 -0.1477 -0.1663
 8997SOL    HW128998   9.230   2.775   2.288 -0.2828 -0.8401 -1.3539
 8997SOL    HW228999   9.296   2.900   2.233 -0.5607 -0.2698 -0.4311
 8998SOL     OW29000   4.976   2.897   0.738 -0.0575 -0.0695  0.0616
 8998SOL    HW129001   4.918   2.956   0.785 -1.5129 -0.7664 -0.8037
 8998SOL    HW229002   4.971   2.926   0.647 -0.1356 -1.0019 -0.2377
 8999SOL     OW29003   4.674   6.912   4.894  0.5381  0.3195  0.4442
 8999SOL    HW129004   4.640   6.938   4.980 -0.6729  1.4843 -0.3425
 8999SOL    HW229005   4.637   6.825   4.879 -0.3768  0.6847  0.5211
 9000SOL     OW29006  10.632   2.168   4.591  0.1350  0.3016 -0.0260
 9000SOL    HW129007  10.700   2.122   4.640  0.3134  0.9818  0.3789
 9000SOL    HW229008  10.594   2.229   4.653 -0.5331  0.2542 -0.3827
 9001SOL     OW29009   6.900   2.705   6.505  0.1064 -0.1712  0.0349
 9001SOL    HW129010   6.808   2.679   6.501  0.1429 -0.7009  1.7300
 9001SOL    HW229011   6.925   2.689   6.596  2.0671 -0.6853 -0.5433
 9002SOL     OW29012   1.548   4.266   2.566 -0.1125  0.4011 -0.4334
 9002SOL    HW129013   1.490   4.318   2.511 -0.7190 -1.3834 -1.5895
 9002SOL    HW229014   1.511   4.177   2.562  1.3369 -0.3017  0.7537
 9003SOL     OW29015   2.781   4.807   3.810 -0.4462 -0.2446 -0.4233
 9003SOL    HW129016   2.686   4.794   3.803 -0.2703 -0.6577 -2.8860
 9003SOL    HW229017   2.817   4.757   3.737  1.6043  0.6865 -0.0980
 9004SOL     OW29018   9.028   6.962   5.412 -0.2270 -0.5992  0.2779
 9004SOL    HW129019   9.039   6.900   5.485 -1.4458 -0.0643  0.9494
 9004SOL    HW229020   8.988   6.911   5.343  0.7670 -1.0693  0.0329
 9005SOL     OW29021   8.683   3.368   3.445 -0.2261  0.3115 -0.1990
 9005SOL    HW129022   8.678   3.464   3.453  0.0328  0.4214 -1.2044
 9005SOL    HW229023   8.638   3.335   3.523 -1.0942  1.2505 -0.2787
 9006SOL     OW29024   0.582   6.457   5.671 -0.2897  0.1938  0.2289
 9006SOL    HW129025   0.673   6.447   5.646 -0.2475  1.9561 -0.4199
 9006SOL    HW229026   0.557   6.544   5.640 -1.4218  0.8606  2.7195
 9007SOL     OW29027   0.831   9.624   6.277 -0.2424 -0.3960 -0.3172
 9007SOL    HW129028   0.892   9.554   6.301 -0.9982 -1.1296 -0.4682
 9007SOL    HW229029   0.884   9.686   6.227  1.1239  0.6402  2.2385
 9008SOL     OW29030   3.634  10.340   2.871 -0.2304 -0.4469 -0.1760
 9008SOL    HW129031   3.580  10.362   2.947 -0.8353  1.0021 -0.9864
 9008SOL    HW229032   3.641  10.421   2.821  0.7431 -1.1840 -1.3180
 9009SOL     OW29033   0.700   1.362   5.063  0.5451 -0.1248  0.0987
 9009SOL    HW129034   0.714   1.270   5.086 -0.2587 -0.6855 -1.4353
 9009SOL    HW229035   0.672   1.404   5.144 -0.7999 -1.6425  0.4724
 9010SOL     OW29036   0.868   2.998   3.987 -0.1639 -0.2062  0.1013
 9010SOL    HW129037   0.881   2.938   3.914 -2.0744 -0.0600 -0.4181
 9010SOL    HW229038   0.866   2.942   4.064  2.0729 -0.3409  0.1293
 9011SOL     OW29039  10.621   6.626   3.895  0.3205 -0.2222  0.3893
 9011SOL    HW129040  10.660   6.540   3.908 -1.4141 -1.4843 -1.9399
 9011SOL    HW229041  10.526   6.611   3.902 -0.0287  1.4048 -0.4065
 9012SOL     OW29042   1.032   3.262   1.370 -0.1614 -0.9405  0.0330
 9012SOL    HW129043   1.126   3.260   1.387 -0.1919  0.9700  0.7609
 9012SOL    HW229044   1.023   3.234   1.279  1.2337 -0.1710 -0.3784
 9013SOL     OW29045  10.788   4.137   6.623 -0.4937 -0.1299  0.3110
 9013SOL    HW129046  10.715   4.078   6.605 -1.3591  0.9846  0.0669
 9013SOL    HW229047  10.856   4.080   6.660 -1.0196 -1.3988 -0.5725
 9014SOL     OW29048   2.296  10.273   9.943  0.3073 -0.2024  0.3785
 9014SOL    HW129049   2.331  10.341  10.000  0.6017 -0.1728  0.1658
 9014SOL    HW229050   2.247  10.321   9.876 -0.7006 -0.2719  1.0379
 9015SOL     OW29051   9.156   3.151   6.134 -0.5223 -0.0518 -0.0729
 9015SOL    HW129052   9.106   3.101   6.199 -1.3118  0.3986 -0.3204
 9015SOL    HW229053   9.095   3.161   6.060  0.4891 -0.9191 -1.0656
 9016SOL     OW29054  10.659   8.538   4.051  0.3735 -0.0407 -0.4983
 9016SOL    HW129055  10.642   8.516   4.143 -0.8826  1.7005 -0.2687
 9016SOL    HW229056  10.604   8.478   4.001  0.5657 -0.5628 -0.0965
 9017SOL     OW29057   0.126   1.446   9.775 -0.1274  0.2752  0.7290
 9017SOL    HW129058   0.196   1.462   9.712 -0.9268 -0.8888 -0.4984
 9017SOL    HW229059   0.091   1.361   9.751  0.4483 -0.9054  3.6371
 9018SOL     OW29060   4.889  10.636   2.789  0.1760  0.1369 -0.4175
 9018SOL    HW129061   4.937  10.657   2.709  0.7912 -1.1629 -0.4173
 9018SOL    HW229062   4.891  10.540   2.793 -0.3908  0.1653  0.8261
 9019SOL     OW29063   2.348  10.374   0.654 -0.2499  0.2967  0.3638
 9019SOL    HW129064   2.287  10.320   0.605 -0.7202  0.1287  1.1248
 9019SOL    HW229065   2.418  10.314   0.680  0.0420  0.4036 -0.1574
 9020SOL     OW29066   8.638   9.692   4.266  0.3968 -0.3064  0.1787
 9020SOL    HW129067   8.610   9.730   4.182 -0.8760 -0.2999  0.5830
 9020SOL    HW229068   8.725   9.729   4.281 -0.5669  2.1165  0.3268
 9021SOL     OW29069   9.379   6.778   3.212 -0.3577 -0.8138 -0.1906
 9021SOL    HW129070   9.417   6.827   3.139 -0.8791 -1.5308 -0.9736
 9021SOL    HW229071   9.317   6.839   3.252  0.1243 -0.3236 -0.1895
 9022SOL     OW29072   1.766   1.899   3.406  0.2736 -0.0941 -0.6902
 9022SOL    HW129073   1.822   1.949   3.347 -1.0146  1.1505 -0.9190
 9022SOL    HW229074   1.723   1.836   3.349  0.2443  0.0228 -0.7996
 9023SOL     OW29075   7.879   7.852   2.829  0.5891  0.1428 -0.0110
 9023SOL    HW129076   7.861   7.763   2.799  0.8487  0.7238 -2.0497
 9023SOL    HW229077   7.810   7.905   2.790  0.7361  0.9198  0.7474
 9024SOL     OW29078   0.997   5.768  10.930 -0.6521 -0.8639  0.7221
 9024SOL    HW129079   0.912   5.806  10.952 -0.6263  0.1102 -0.6985
 9024SOL    HW229080   1.051   5.844  10.906  0.3556 -1.5492  0.7872
 9025SOL     OW29081   2.998   3.000   7.958  0.1318  0.5571 -0.0557
 9025SOL    HW129082   2.940   3.075   7.970 -0.3403  0.1148  0.4566
 9025SOL    HW229083   3.082   3.029   7.994  0.7130  1.7639 -2.2151
 9026SOL     OW29084   6.391   8.118   7.741 -0.0231  0.2635 -0.6370
 9026SOL    HW129085   6.305   8.141   7.705 -0.4791 -1.2124 -0.5836
 9026SOL    HW229086   6.449   8.116   7.664  0.2322  2.2232 -0.5499
 9027SOL     OW29087   4.573   1.041   5.549  0.0908 -0.0747  0.1036
 9027SOL    HW129088   4.627   0.970   5.583 -0.8161  0.6847  3.5364
 9027SOL    HW229089   4.636   1.105   5.516  1.1520 -0.6699  0.8920
 9028SOL     OW29090   3.116  10.720   1.230 -0.2740 -0.2981  0.3317
 9028SOL    HW129091   3.122  10.644   1.172 -0.5988 -0.0886  0.0195
 9028SOL    HW229092   3.035  10.705   1.279 -0.5136  0.0120  0.0317
 9029SOL     OW29093  10.605  10.175   9.704  0.3060 -0.0257  0.5147
 9029SOL    HW129094  10.656  10.256   9.696 -0.3463  0.2667 -1.3784
 9029SOL    HW229095  10.661  10.107   9.666  0.4182 -0.2469  1.0768
 9030SOL     OW29096  10.650  10.225   4.255 -0.1346  0.1757  0.2471
 9030SOL    HW129097  10.660  10.307   4.206  1.8031  0.2780  0.7255
 9030SOL    HW229098  10.594  10.248   4.329  0.7596  1.2133  0.6302
 9031SOL     OW29099   4.153   8.605   4.578  0.2391 -0.2705  0.4659
 9031SOL    HW129100   4.169   8.512   4.564  0.4834 -0.0554 -0.7721
 9031SOL    HW229101   4.064   8.608   4.615  0.2099 -0.9836  0.4709
 9032SOL     OW29102   0.133   7.021   9.526 -0.4541 -0.0960 -0.6812
 9032SOL    HW129103   0.117   6.936   9.567 -0.9285 -0.5030 -1.6748
 9032SOL    HW229104   0.051   7.069   9.539 -0.6287 -0.2493 -1.1839
 9033SOL     OW29105   3.188   1.018   2.704  0.3430 -0.6691 -0.4648
 9033SOL    HW129106   3.132   1.095   2.693  0.1361 -0.6768  0.4775
 9033SOL    HW229107   3.127   0.945   2.713  0.4170 -0.4998  1.9966
 9034SOL     OW29108   0.345   5.547   3.891  0.7251  0.1566  0.2333
 9034SOL    HW129109   0.316   5.639   3.888 -0.2233 -0.0959  1.0078
 9034SOL    HW229110   0.425   5.549   3.943  1.5269  0.7173 -0.9611
 9035SOL     OW29111   0.679   0.949   6.439 -0.2080  0.1861 -0.3611
 9035SOL    HW129112   0.699   0.858   6.463  0.7879  0.2143 -1.0282
 9035SOL    HW229113   0.662   0.945   6.345  1.1263  0.8686 -0.6599
 9036SOL     OW29114   1.092   3.642   3.868 -0.4268 -0.0172  0.4169
 9036SOL    HW129115   1.178   3.607   3.849  0.0873  1.2138  0.3638
 9036SOL    HW229116   1.036   3.608   3.799  0.1331 -0.3794  0.1365
 9037SOL     OW29117   3.772   1.353   3.444 -0.5242  0.6911  0.2510
 9037SOL    HW129118   3.863   1.356   3.472 -0.4556  0.1252  0.1103
 9037SOL    HW229119   3.754   1.260   3.433 -0.5691  0.8792 -1.4966
 9038SOL     OW29120   6.434   1.786  10.496  0.1435  0.0528  0.2318
 9038SOL    HW129121   6.397   1.705  10.461 -2.3153  1.0886  0.2063
 9038SOL    HW229122   6.401   1.791  10.585  1.6737  0.2372  0.8190
 9039SOL     OW29123   7.615   2.902   2.287  0.6452 -0.2933 -0.8870
 9039SOL    HW129124   7.700   2.863   2.307 -0.0527 -2.1270 -1.2559
 9039SOL    HW229125   7.554   2.856   2.344 -0.0116  1.6862  0.0923
 9040SOL     OW29126   0.690   3.093  10.700 -0.0443 -0.0454 -0.2732
 9040SOL    HW129127   0.712   3.143  10.779 -0.8598 -0.7764  0.4319
 9040SOL    HW229128   0.685   3.002  10.730 -3.7788 -0.0057 -0.3847
 9041SOL     OW29129   0.499   4.774   3.922 -0.4401 -0.2258  0.5284
 9041SOL    HW129130   0.508   4.866   3.947  2.6649  0.2183 -1.6755
 9041SOL    HW229131   0.588   4.739   3.923 -1.2065 -2.5201 -1.0595
 9042SOL     OW29132   8.764   6.558   3.887 -0.1006 -0.5390 -0.1841
 9042SOL    HW129133   8.795   6.590   3.971  0.6215  2.0442 -1.3525
 9042SOL    HW229134   8.669   6.572   3.888  0.1987  1.8575 -0.6772
 9043SOL     OW29135   0.389   8.276   8.483 -0.3781  0.0515  0.7078
 9043SOL    HW129136   0.463   8.259   8.424  0.4601 -1.4678  2.1137
 9043SOL    HW229137   0.374   8.193   8.527 -1.5596  0.9152  2.0186
 9044SOL     OW29138   0.768   0.042   2.082  0.5234  0.4005 -0.3811
 9044SOL    HW129139   0.753  -0.052   2.072  1.1979  0.3565 -0.9658
 9044SOL    HW229140   0.826   0.066   2.010  0.7889  1.1660  0.0725
 9045SOL     OW29141   4.270   0.402   8.969 -0.1650 -0.8086  0.3051
 9045SOL    HW129142   4.359   0.384   9.000 -0.3390 -1.2725  0.5543
 9045SOL    HW229143   4.230   0.315   8.961 -1.2493 -0.5393  2.1827
 9046SOL     OW29144   4.669   9.671   1.408  0.3263 -0.9840  0.0087
 9046SOL    HW129145   4.640   9.701   1.322  0.1805 -0.3296  0.2863
 9046SOL    HW229146   4.746   9.725   1.428 -1.1703  0.7464  1.4446
 9047SOL     OW29147   4.315  10.479   6.108  0.2325 -0.1883  0.1966
 9047SOL    HW129148   4.345  10.403   6.058 -1.9774 -1.2567  0.3346
 9047SOL    HW229149   4.236  10.448   6.152 -0.8906  2.2518  0.0858
 9048SOL     OW29150   4.126   9.531   4.347 -0.0767  0.2196 -0.1252
 9048SOL    HW129151   4.190   9.602   4.350  2.3314 -1.8058  2.1878
 9048SOL    HW229152   4.154   9.475   4.275  0.7995 -0.5855  0.7915
 9049SOL     OW29153   9.733  10.612   9.654 -0.3313 -0.0114 -0.6108
 9049SOL    HW129154   9.734  10.576   9.565 -2.8695 -0.9143 -0.3587
 9049SOL    HW229155   9.641  10.631   9.671  0.3209  1.8677  1.1908
 9050SOL     OW29156   0.798   8.784   1.372  0.2815  0.0318 -0.2935
 9050SOL    HW129157   0.717   8.782   1.424 -0.4912  0.4315 -1.4422
 9050SOL    HW229158   0.815   8.877   1.357  0.3283 -0.0815 -0.9844
 9051SOL     OW29159   4.015   0.275  10.089 -0.3070  0.1442 -0.0424
 9051SOL    HW129160   3.931   0.230  10.085 -1.5298  2.3629 -1.9992
 9051SOL    HW229161   4.071   0.228  10.027 -0.2052 -1.0708  0.9401
 9052SOL     OW29162   3.217   3.347   3.717 -0.1889 -0.3814  0.1155
 9052SOL    HW129163   3.198   3.387   3.802 -1.2180 -1.8946  0.6503
 9052SOL    HW229164   3.147   3.380   3.660  0.3935  0.4878 -0.1090
 9053SOL     OW29165   0.898  11.076   8.917 -0.4001  0.0550  0.1396
 9053SOL    HW129166   0.850  11.152   8.949 -0.1162  0.3744 -0.1735
 9053SOL    HW229167   0.988  11.108   8.905 -0.3603 -0.2223 -0.3575
 9054SOL     OW29168   3.508   2.853   7.733  0.5776 -0.1341  0.2928
 9054SOL    HW129169   3.464   2.898   7.805  1.8014  2.2637 -0.3705
 9054SOL    HW229170   3.452   2.777   7.715 -1.6432  1.1295  1.4322
 9055SOL     OW29171   7.765   2.190   3.204 -0.4390  0.0609  0.4473
 9055SOL    HW129172   7.680   2.210   3.166 -0.7688 -1.6541  0.1827
 9055SOL    HW229173   7.786   2.266   3.259 -1.8336  0.7806  0.0279
 9056SOL     OW29174   2.861   6.625  10.970  0.4154 -0.2878  0.1077
 9056SOL    HW129175   2.831   6.553  11.025  0.9850  0.1583  1.0229
 9056SOL    HW229176   2.784   6.649  10.918  0.0687 -1.1776  0.2037
 9057SOL     OW29177   0.359  10.827  10.317 -0.1194  0.5698 -0.1279
 9057SOL    HW129178   0.425  10.852  10.381  0.6131 -0.3367 -0.5055
 9057SOL    HW229179   0.408  10.780  10.249 -1.1378 -0.1125 -0.4208
 9058SOL     OW29180  10.859   9.908   4.025  0.4153  0.4104 -0.0107
 9058SOL    HW129181  10.832   9.862   4.104 -0.2005  0.5729 -0.1173
 9058SOL    HW229182  10.789   9.972   4.010 -0.6977 -1.1426 -1.9572
 9059SOL     OW29183   4.232   3.904   0.596  0.2297  0.1950 -0.8983
 9059SOL    HW129184   4.165   3.967   0.622  1.2771  1.0172 -0.0945
 9059SOL    HW229185   4.238   3.913   0.501 -0.7148  0.1892 -0.9606
 9060SOL     OW29186   4.823   0.100   3.768 -0.2717  0.5719  0.2953
 9060SOL    HW129187   4.878   0.178   3.773  0.6932 -0.1533  1.6309
 9060SOL    HW229188   4.862   0.039   3.830 -2.9943  0.2852  1.8871
 9061SOL     OW29189   2.585   2.737  10.178 -0.1874 -0.0749  0.0468
 9061SOL    HW129190   2.624   2.650  10.168  0.1193 -0.0075  0.6220
 9061SOL    HW229191   2.595   2.757  10.271  2.5688  1.8501 -0.5339
 9062SOL     OW29192   3.884  10.192  10.745  0.2113  0.5840  0.5733
 9062SOL    HW129193   3.928  10.149  10.819 -2.3422  0.0583  1.9381
 9062SOL    HW229194   3.823  10.126  10.712 -0.9876  1.8649  0.1113
 9063SOL     OW29195   7.962   7.804   6.146  0.2867 -0.2420 -0.2739
 9063SOL    HW129196   7.897   7.809   6.216  0.4765 -1.7742  0.0432
 9063SOL    HW229197   8.016   7.729   6.169  1.9613  0.7798 -0.7262
 9064SOL     OW29198  10.091   4.886   4.158  0.0416 -0.0434  0.4536
 9064SOL    HW129199  10.009   4.842   4.179  1.4544 -2.1563  1.9811
 9064SOL    HW229200  10.127   4.836   4.085 -1.0460  2.3703 -1.9253
 9065SOL     OW29201   5.296   2.085   8.446  0.0232 -0.1086 -0.2562
 9065SOL    HW129202   5.271   1.993   8.435 -0.1937  0.0612 -1.2948
 9065SOL    HW229203   5.219   2.134   8.416 -0.8036  0.4496  2.4672
 9066SOL     OW29204   3.511   1.146   7.220  0.2447 -0.3579  0.3879
 9066SOL    HW129205   3.475   1.062   7.249  0.5545  0.2502  2.6683
 9066SOL    HW229206   3.435   1.193   7.185  0.0504 -1.5180 -0.8444
 9067SOL     OW29207   0.736   9.033   8.088  0.0687 -0.1304  0.3574
 9067SOL    HW129208   0.725   9.127   8.077 -0.1591  0.0482  1.9232
 9067SOL    HW229209   0.794   9.008   8.016  0.7367  1.3372  0.3323
 9068SOL     OW29210   9.509   4.355   1.803  0.3675 -0.2277 -0.3732
 9068SOL    HW129211   9.538   4.408   1.877 -1.9043  1.0829 -0.3263
 9068SOL    HW229212   9.475   4.274   1.842  0.4662 -0.1323 -0.0941
 9069SOL     OW29213   7.633   5.013   3.641 -0.4791 -0.1782  0.6164
 9069SOL    HW129214   7.618   5.075   3.570  0.7417 -0.1969  0.3304
 9069SOL    HW229215   7.723   5.029   3.670 -0.7845 -0.5117  1.8309
 9070SOL     OW29216   1.996   8.050   1.377  0.2711 -0.7089 -0.2229
 9070SOL    HW129217   1.985   7.969   1.328  1.1145 -1.1026  0.2162
 9070SOL    HW229218   2.032   8.023   1.462  0.5908  0.1181 -0.0790
 9071SOL     OW29219   4.818   3.813   3.241  0.1208  0.6784  0.4318
 9071SOL    HW129220   4.818   3.881   3.173  0.1579 -0.7235 -1.0166
 9071SOL    HW229221   4.731   3.774   3.236  0.2799  0.2615  0.8747
 9072SOL     OW29222  10.404   0.330   2.080 -0.3331  0.2548  0.1654
 9072SOL    HW129223  10.383   0.363   2.167  0.6334  0.5592  0.2934
 9072SOL    HW229224  10.403   0.408   2.024  1.3022  0.4339  0.3458
 9073SOL     OW29225   0.992   3.559   1.745  0.1809  0.3153 -0.5854
 9073SOL    HW129226   0.899   3.570   1.762  0.3220  1.2979 -0.3799
 9073SOL    HW229227   1.001   3.569   1.650 -0.0089 -0.5017 -0.6941
 9074SOL     OW29228  10.760   2.642   6.958  0.2394  0.6275 -0.3728
 9074SOL    HW129229  10.778   2.710   6.893 -0.1597  1.9276  0.8191
 9074SOL    HW229230  10.698   2.682   7.019  0.0291 -0.7970  0.4106
 9075SOL     OW29231   3.759   2.838   4.633 -0.4684  1.0817  0.2664
 9075SOL    HW129232   3.688   2.783   4.665 -1.8611  0.7317 -2.9950
 9075SOL    HW229233   3.717   2.896   4.569  2.1377  0.7679 -1.9225
 9076SOL     OW29234   4.968   8.302   0.833 -0.3598  0.2151 -0.0825
 9076SOL    HW129235   4.894   8.261   0.877 -0.5962  1.2459  0.5118
 9076SOL    HW229236   4.943   8.394   0.824  0.9878  0.6568  0.4444
 9077SOL     OW29237   9.464   3.234   2.027  0.3039  0.0850 -0.1968
 9077SOL    HW129238   9.415   3.167   1.980 -0.4116  0.1588  0.4461
 9077SOL    HW229239   9.521   3.272   1.960  2.3706 -2.6145 -0.1593
 9078SOL     OW29240   2.864  10.443   7.451  0.0608  0.1791 -0.3943
 9078SOL    HW129241   2.803  10.510   7.421  1.0403  1.4248  0.3139
 9078SOL    HW229242   2.835  10.363   7.406 -1.2088  1.0280 -1.1590
 9079SOL     OW29243   5.209   1.030   2.083  0.1275  0.2899  0.0308
 9079SOL    HW129244   5.117   1.010   2.068 -0.5064  2.2317  1.0014
 9079SOL    HW229245   5.224   1.007   2.174  0.4570  0.5018  0.0315
 9080SOL     OW29246   1.582   0.527   2.798  0.2228 -0.1662 -0.2261
 9080SOL    HW129247   1.525   0.547   2.724  1.2946  0.4614 -0.9183
 9080SOL    HW229248   1.575   0.432   2.809 -0.8733 -0.1059 -0.3439
 9081SOL     OW29249  10.485  10.542   3.043 -0.3246  0.5186  0.3586
 9081SOL    HW129250  10.526  10.588   2.970  1.6607 -1.3039  0.2491
 9081SOL    HW229251  10.499  10.598   3.119  0.2132  1.0585 -0.1389
 9082SOL     OW29252   4.979   2.317   3.579 -0.3663 -0.1530  0.1258
 9082SOL    HW129253   5.065   2.325   3.619 -0.4332  0.2916  0.1852
 9082SOL    HW229254   4.974   2.226   3.551 -0.0811 -0.3145  0.5853
 9083SOL     OW29255   4.409   2.710   1.261 -0.7433  0.3712  0.2179
 9083SOL    HW129256   4.377   2.629   1.221 -1.4958  0.2013  1.1164
 9083SOL    HW229257   4.388   2.779   1.198 -0.1578 -0.1147 -0.5243
 9084SOL     OW29258   6.501   7.202   4.395  0.4338 -0.6021 -0.1928
 9084SOL    HW129259   6.572   7.266   4.395  0.3146 -0.4593  0.4252
 9084SOL    HW229260   6.432   7.243   4.342 -0.0515  0.2721  1.0702
 9085SOL     OW29261   2.372   1.788   5.135  0.3284 -0.5474 -0.2540
 9085SOL    HW129262   2.342   1.798   5.225  2.1560 -0.2230  0.3460
 9085SOL    HW229263   2.336   1.703   5.108 -0.7953 -0.3484  0.5310
 9086SOL     OW29264   1.940  11.095   2.933 -0.3429  0.4820 -0.0523
 9086SOL    HW129265   2.017  11.151   2.918 -0.0174  0.6531  1.9655
 9086SOL    HW229266   1.880  11.151   2.982 -0.5486 -0.5447  0.8878
 9087SOL     OW29267   7.566   0.768   6.181  0.0906  0.1983  0.5052
 9087SOL    HW129268   7.602   0.759   6.093 -1.0886 -0.3184  0.0521
 9087SOL    HW229269   7.541   0.860   6.188 -0.1652  0.1536  0.1596
 9088SOL     OW29270   3.314   9.415   6.378  0.5481  0.1283 -0.0364
 9088SOL    HW129271   3.275   9.446   6.297  0.5732 -0.1884 -0.1697
 9088SOL    HW229272   3.340   9.325   6.360 -2.6858 -1.2478  1.3675
 9089SOL     OW29273   1.702   7.633   1.773 -0.0832  0.5719 -0.1283
 9089SOL    HW129274   1.796   7.639   1.757  0.1334 -0.2143  0.8053
 9089SOL    HW229275   1.677   7.547   1.739  0.3178 -0.9942  3.1997
 9090SOL     OW29276   9.651   5.771   5.226 -0.2953  0.5346 -0.1951
 9090SOL    HW129277   9.636   5.773   5.132 -2.1840 -0.6396  0.0525
 9090SOL    HW229278   9.731   5.824   5.238 -1.5823  3.1345 -2.1202
 9091SOL     OW29279   1.071   9.974   5.168 -0.2012 -0.0514 -0.1300
 9091SOL    HW129280   1.044   9.977   5.259 -0.2342 -0.8870 -0.1030
 9091SOL    HW229281   1.005  10.025   5.121 -1.0034 -0.8208  0.1327
 9092SOL     OW29282   1.836   4.000   9.509 -0.0176 -0.7727  0.1584
 9092SOL    HW129283   1.824   3.907   9.490  1.3723 -1.3648  1.9232
 9092SOL    HW229284   1.868   4.037   9.427 -0.4891 -1.8676 -0.5474
 9093SOL     OW29285  10.548   3.416   4.847 -0.1617  0.4074  0.2469
 9093SOL    HW129286  10.457   3.406   4.820 -0.0248 -0.0418 -0.0486
 9093SOL    HW229287  10.592   3.454   4.771  0.0924 -0.2638  0.0508
 9094SOL     OW29288   1.900   6.197   9.409 -0.2597 -0.1063 -0.2994
 9094SOL    HW129289   1.828   6.260   9.417  1.1099  1.5173 -0.2235
 9094SOL    HW229290   1.871   6.122   9.461 -1.1867  1.1957  1.1777
 9095SOL     OW29291   6.973   2.047   6.583 -0.1548 -0.0873 -0.4667
 9095SOL    HW129292   7.048   2.045   6.643  0.2768 -0.4889 -1.0154
 9095SOL    HW229293   6.916   1.975   6.612  0.1827 -0.4509 -0.7035
 9096SOL     OW29294   0.867   2.303   4.142  0.1683  0.2843 -0.8175
 9096SOL    HW129295   0.780   2.342   4.156  0.3717  0.7843 -0.9419
 9096SOL    HW229296   0.854   2.210   4.162  0.1227  0.7123  1.3936
 9097SOL     OW29297   6.859   8.256  11.056 -0.0982 -0.2785 -0.2253
 9097SOL    HW129298   6.949   8.238  11.028 -0.7665  0.8233 -3.5308
 9097SOL    HW229299   6.861   8.347  11.087  0.3187 -1.0217  2.1867
 9098SOL     OW29300   4.226   5.660   3.394 -0.0651  0.0261 -0.5871
 9098SOL    HW129301   4.268   5.746   3.397 -0.1063  0.0458 -0.5528
 9098SOL    HW229302   4.261   5.614   3.470 -0.4871  0.2235 -0.2638
 9099SOL     OW29303   1.856  10.031   1.629  0.5131  0.0864  0.5104
 9099SOL    HW129304   1.877  10.088   1.555 -1.2939 -0.1037 -0.2083
 9099SOL    HW229305   1.896   9.947   1.606  0.7384  0.2788  0.1858
 9100SOL     OW29306   3.564   3.057   8.438  0.7534 -0.3196 -0.0805
 9100SOL    HW129307   3.517   3.122   8.491 -0.5776 -0.7226 -0.6998
 9100SOL    HW229308   3.656   3.075   8.452  0.5164 -1.0962  3.2381
 9101SOL     OW29309   4.544   4.576   2.899  1.0304  0.1591 -0.1778
 9101SOL    HW129310   4.516   4.521   2.826  0.4992  0.9995 -0.6242
 9101SOL    HW229311   4.599   4.519   2.952 -0.8877 -1.3324  0.3015
 9102SOL     OW29312   2.141   8.096   2.666 -0.0403 -0.7811 -0.4272
 9102SOL    HW129313   2.172   8.186   2.666  1.1032 -1.1448  0.0338
 9102SOL    HW229314   2.083   8.090   2.591 -2.6050  1.1227  1.2318
 9103SOL     OW29315   0.943   5.696   5.002 -0.5088  0.4398  0.4712
 9103SOL    HW129316   1.017   5.677   5.060 -1.1279 -0.1214  1.0942
 9103SOL    HW229317   0.957   5.639   4.926 -0.7201 -0.2523  0.9474
 9104SOL     OW29318   4.050   1.931   8.455  0.2383  0.3036  0.1927
 9104SOL    HW129319   4.120   1.879   8.416 -0.2828 -0.8721  0.7443
 9104SOL    HW229320   4.030   1.998   8.390  0.7308 -0.3873 -0.6876
 9105SOL     OW29321   4.866   6.491   9.124 -0.6234 -0.3689 -0.2793
 9105SOL    HW129322   4.903   6.574   9.095 -0.8992 -0.4537 -0.8995
 9105SOL    HW229323   4.782   6.514   9.163 -0.8982 -0.3974 -0.8479
 9106SOL     OW29324   9.607   1.605   1.752  0.0991  0.1104  0.2156
 9106SOL    HW129325   9.619   1.692   1.790 -0.8054  0.2837  0.1350
 9106SOL    HW229326   9.693   1.582   1.717  0.5887  0.5563  1.0937
 9107SOL     OW29327   3.476   1.186  10.910 -0.6677 -0.2712 -0.2131
 9107SOL    HW129328   3.501   1.098  10.938 -1.4819 -0.2863  0.4986
 9107SOL    HW229329   3.383   1.179  10.889 -0.4129  0.0836 -1.5838
 9108SOL     OW29330   3.128   6.222   3.666 -0.3272 -0.3839 -0.0029
 9108SOL    HW129331   3.098   6.146   3.616  1.1826 -0.5220 -0.7516
 9108SOL    HW229332   3.142   6.290   3.600 -1.0983  0.3793  0.5969
 9109SOL     OW29333   2.557   6.443   9.269 -0.1268 -0.0213 -0.4707
 9109SOL    HW129334   2.514   6.357   9.278 -0.5374  0.2970  0.7850
 9109SOL    HW229335   2.497   6.504   9.311  1.2665  0.5351  0.8090
 9110SOL     OW29336   6.349   9.972   4.413  0.3059  0.3793  0.6135
 9110SOL    HW129337   6.321   9.892   4.369  1.6869  0.1215  0.1753
 9110SOL    HW229338   6.355   9.948   4.506  1.3854 -0.2280  0.3968
 9111SOL     OW29339   6.326   2.576  10.915 -0.0325  0.6278  0.6129
 9111SOL    HW129340   6.411   2.573  10.872  0.4141  0.5009  1.4951
 9111SOL    HW229341   6.328   2.656  10.968 -0.2624  0.3586  1.0352
 9112SOL     OW29342   4.760   5.839   9.432  0.6387  0.1692  0.1629
 9112SOL    HW129343   4.804   5.911   9.387  0.0685 -0.4119 -1.4043
 9112SOL    HW229344   4.698   5.806   9.367 -0.5785 -0.4038  1.5774
 9113SOL     OW29345   8.257   5.501   2.575  0.1416 -0.1345 -0.2147
 9113SOL    HW129346   8.213   5.490   2.491 -1.3748  1.7568  0.2512
 9113SOL    HW229347   8.254   5.595   2.591  1.8808 -0.2743  1.1985
 9114SOL     OW29348   2.268   4.426   1.861 -0.1192 -0.0560  0.3201
 9114SOL    HW129349   2.326   4.503   1.857 -0.9303  0.5381 -0.4233
 9114SOL    HW229350   2.324   4.353   1.833 -0.0675  0.7418 -1.8447
 9115SOL     OW29351   5.142   4.547   9.205 -0.2588  0.3166 -0.0910
 9115SOL    HW129352   5.076   4.616   9.203  0.7988  1.3887  0.3245
 9115SOL    HW229353   5.219   4.589   9.244  0.6609 -0.8950 -0.5372
 9116SOL     OW29354   1.584   7.323   9.192 -0.5480 -0.2201  0.4237
 9116SOL    HW129355   1.668   7.278   9.204 -0.6259 -1.4300 -2.7800
 9116SOL    HW229356   1.604   7.393   9.130 -1.5175  0.9843  1.4140
 9117SOL     OW29357   6.630   9.081   8.068 -0.2765 -0.4658  0.0572
 9117SOL    HW129358   6.636   9.106   7.976  1.7105 -0.6651  0.0868
 9117SOL    HW229359   6.603   9.162   8.113 -0.9915 -0.3001 -0.6534
 9118SOL     OW29360   5.288   4.796  11.081  0.1711  0.0414 -0.2846
 9118SOL    HW129361   5.270   4.738  11.007  0.4975 -1.3208  0.6459
 9118SOL    HW229362   5.201   4.825  11.109 -0.0252 -0.2085 -0.6203
 9119SOL     OW29363   7.245  10.590   7.655  0.2504 -0.6000  0.1818
 9119SOL    HW129364   7.205  10.622   7.574  0.8791 -0.1300  0.0480
 9119SOL    HW229365   7.214  10.650   7.723 -1.4073 -1.8187  0.5534
 9120SOL     OW29366   2.586   3.437   0.951 -0.2641  0.3130  0.1760
 9120SOL    HW129367   2.596   3.465   0.860  2.7835 -0.1815  0.2355
 9120SOL    HW229368   2.498   3.401   0.957 -0.2283 -0.5054 -2.8561
 9121SOL     OW29369   2.524   9.077  10.585 -0.1551  0.2017  0.2476
 9121SOL    HW129370   2.566   9.000  10.545 -1.0024  0.1420 -0.5624
 9121SOL    HW229371   2.595   9.141  10.591  0.3299 -0.2931 -0.0145
 9122SOL     OW29372   1.219   9.603   7.030  0.3057 -0.4746 -0.6189
 9122SOL    HW129373   1.248   9.526   7.079 -1.4244 -0.9654 -0.3034
 9122SOL    HW229374   1.269   9.676   7.067 -0.7258 -0.8672  1.6854
 9123SOL     OW29375   0.549   1.521   9.585 -0.6123  0.0082 -0.4747
 9123SOL    HW129376   0.473   1.541   9.639 -0.3725 -0.8655  0.2041
 9123SOL    HW229377   0.523   1.445   9.533 -0.9224  0.9706 -1.7894
 9124SOL     OW29378   7.892   4.077  10.372 -0.0678 -0.0860  0.2742
 9124SOL    HW129379   7.894   3.982  10.381 -0.3222 -0.0432  0.8073
 9124SOL    HW229380   7.954   4.109  10.438  0.3535  0.1020 -0.2045
 9125SOL     OW29381  10.400   2.527   3.812 -0.4115 -0.0717  0.0628
 9125SOL    HW129382  10.411   2.475   3.891  0.8047 -2.5333 -1.5741
 9125SOL    HW229383  10.453   2.605   3.827 -3.2514  1.4607  3.0890
 9126SOL     OW29384   8.380   1.402   1.869  0.5644 -0.1084  0.2114
 9126SOL    HW129385   8.406   1.337   1.935 -3.7324 -1.9897  0.3397
 9126SOL    HW229386   8.338   1.471   1.920  0.0372 -0.0353 -0.3144
 9127SOL     OW29387   1.292   0.296   9.555  0.2493 -0.0302  1.0239
 9127SOL    HW129388   1.257   0.247   9.481  1.6081  0.3842  0.0721
 9127SOL    HW229389   1.315   0.229   9.619  0.3748 -0.4991  0.4973
 9128SOL     OW29390   7.890   4.405   3.369 -0.4617 -0.3904  0.5823
 9128SOL    HW129391   7.824   4.420   3.302 -0.0380  0.3012  0.3078
 9128SOL    HW229392   7.959   4.469   3.350 -1.9957  2.6576  3.9475
 9129SOL     OW29393   1.347   4.566   8.329 -0.0660 -0.3225 -0.1643
 9129SOL    HW129394   1.359   4.627   8.256 -0.1032  0.5772  0.5552
 9129SOL    HW229395   1.431   4.565   8.374 -0.3003 -0.1637  0.2901
 9130SOL     OW29396   8.514   1.813   0.256  0.2271 -0.1658  0.2498
 9130SOL    HW129397   8.477   1.744   0.201  2.1875 -0.5161 -0.7026
 9130SOL    HW229398   8.592   1.774   0.294  0.0714  0.7839  1.6045
 9131SOL     OW29399  10.545   7.688   3.946  0.4738 -0.5089  0.4833
 9131SOL    HW129400  10.457   7.652   3.934 -0.4339  1.5060  0.7983
 9131SOL    HW229401  10.601   7.631   3.893 -1.1621 -1.1818 -0.6094
 9132SOL     OW29402   4.895   5.232   0.312  0.4645 -0.7452 -0.1586
 9132SOL    HW129403   4.802   5.209   0.305  0.4935 -1.6340  1.7439
 9132SOL    HW229404   4.895   5.323   0.343  0.2768 -0.1374 -1.8700
 9133SOL     OW29405   5.507   7.272   0.181  0.0508 -0.3588  0.4870
 9133SOL    HW129406   5.422   7.285   0.221  0.8093 -0.7401  2.3243
 9133SOL    HW229407   5.488   7.230   0.097 -1.5980  0.3738  0.4570
 9134SOL     OW29408   2.710   1.965   4.920  0.1048  0.1408  0.0468
 9134SOL    HW129409   2.661   1.969   5.002 -1.1344 -0.8727 -0.5939
 9134SOL    HW229410   2.658   2.016   4.858 -0.1965 -0.9927 -0.6641
 9135SOL     OW29411   2.428  10.514   6.836 -0.3657  0.0325 -0.0681
 9135SOL    HW129412   2.442  10.561   6.918  0.7085 -1.3016  0.5548
 9135SOL    HW229413   2.417  10.583   6.770 -0.4446  1.1267  1.0544
 9136SOL     OW29414   9.022   1.342   3.612 -0.1195 -0.0010  0.0506
 9136SOL    HW129415   8.930   1.329   3.590 -0.5532  2.2361  0.3820
 9136SOL    HW229416   9.029   1.434   3.638  1.8710 -0.5408  1.7521
 9137SOL     OW29417   8.805   4.816   1.344 -0.3682 -0.3130 -0.5760
 9137SOL    HW129418   8.788   4.888   1.282  1.3214 -0.1062 -0.8498
 9137SOL    HW229419   8.886   4.842   1.388 -0.4420 -1.4543  0.2558
 9138SOL     OW29420   3.797   4.226   3.568  0.1864 -0.1506  0.0996
 9138SOL    HW129421   3.759   4.205   3.653 -1.1634 -1.0749 -0.6980
 9138SOL    HW229422   3.789   4.145   3.517  0.5344  0.5181 -1.0647
 9139SOL     OW29423   9.778  10.922   7.394 -0.2023 -0.2075 -0.5264
 9139SOL    HW129424   9.867  10.956   7.385 -0.5602  1.2853  1.1074
 9139SOL    HW229425   9.724  10.981   7.340 -0.2151 -1.2597 -1.7206
 9140SOL     OW29426   0.500   0.961  10.937 -0.6162  0.0668 -0.2460
 9140SOL    HW129427   0.561   0.935  10.868  0.2917  0.9140  0.2011
 9140SOL    HW229428   0.540   1.039  10.976 -0.6772 -0.8169  1.7443
 9141SOL     OW29429   6.827   6.548   4.681  0.3515  0.5760 -0.0904
 9141SOL    HW129430   6.872   6.630   4.660 -0.1485  0.3822 -2.1013
 9141SOL    HW229431   6.897   6.488   4.705  0.7391  1.5239  1.2370
 9142SOL     OW29432   4.883   6.613  10.070  0.0479  0.1076 -0.1178
 9142SOL    HW129433   4.819   6.681  10.093 -1.8340 -1.8310  0.7176
 9142SOL    HW229434   4.944   6.612  10.143 -0.5236  0.2147  0.3709
 9143SOL     OW29435   5.613   2.934   2.294  0.4658 -0.1005 -0.2529
 9143SOL    HW129436   5.554   2.862   2.316  0.2932  0.3326  0.7507
 9143SOL    HW229437   5.634   2.974   2.378 -2.1119  3.1653 -0.9685
 9144SOL     OW29438   3.238   0.787   3.513 -0.4154  0.3187 -0.3803
 9144SOL    HW129439   3.261   0.873   3.548  0.1965 -0.4597  1.2054
 9144SOL    HW229440   3.143   0.785   3.514 -0.5929  1.9500 -2.9800
 9145SOL     OW29441   2.991   4.396   1.739  0.0490  0.2698 -0.2680
 9145SOL    HW129442   2.996   4.386   1.834  1.7655 -0.7780 -0.4309
 9145SOL    HW229443   3.072   4.440   1.715  0.5786 -1.2442 -1.4189
 9146SOL     OW29444   5.992   4.330  10.889 -0.1507 -0.1360 -0.0918
 9146SOL    HW129445   6.036   4.399  10.839 -0.7624 -0.1551 -0.6764
 9146SOL    HW229446   5.973   4.262  10.824  0.4909 -0.8811  0.4935
 9147SOL     OW29447   6.836   2.300   9.973 -0.1720 -0.3238  0.6010
 9147SOL    HW129448   6.899   2.256   9.916  1.0719 -0.5287  2.0544
 9147SOL    HW229449   6.882   2.379  10.003 -1.1046  0.2075  0.6750
 9148SOL     OW29450  10.991   3.252   5.644  0.6763 -0.2446 -0.4846
 9148SOL    HW129451  10.979   3.323   5.581 -2.7173  0.3550  0.6600
 9148SOL    HW229452  10.958   3.175   5.600 -0.5461 -0.0558  0.0541
 9149SOL     OW29453   4.239   0.093   5.672 -0.2580 -0.6614 -0.0485
 9149SOL    HW129454   4.199   0.008   5.652 -0.7854 -0.4577  0.1580
 9149SOL    HW229455   4.290   0.113   5.593 -2.0549 -0.0306 -1.1025
 9150SOL     OW29456   3.285   1.906   6.178  0.3609 -0.2298  0.0267
 9150SOL    HW129457   3.377   1.897   6.201  1.0241 -0.1180 -2.3068
 9150SOL    HW229458   3.285   1.924   6.084 -2.0721 -0.6504 -0.1312
 9151SOL     OW29459   1.804   3.457   5.133 -0.2704  0.1169  0.2689
 9151SOL    HW129460   1.778   3.510   5.058  1.2240  0.0951 -0.2992
 9151SOL    HW229461   1.812   3.368   5.099 -1.5330 -0.2608  0.9286
 9152SOL     OW29462   5.794   0.368   5.203  0.5108 -0.3596  0.0964
 9152SOL    HW129463   5.761   0.345   5.116 -0.5324 -0.2591  0.4610
 9152SOL    HW229464   5.725   0.421   5.242  0.9338 -0.4829  1.0341
 9153SOL     OW29465   0.912   1.983   6.043 -0.3228  0.2964 -0.2756
 9153SOL    HW129466   0.859   1.903   6.040  0.6976 -0.3676 -2.7972
 9153SOL    HW229467   0.978   1.965   6.110 -0.4014 -0.7939 -0.4678
 9154SOL     OW29468   1.598   3.409  10.949  0.2538 -0.6130 -0.1325
 9154SOL    HW129469   1.550   3.396  11.031  0.7571  0.9057  0.4560
 9154SOL    HW229470   1.673   3.350  10.955 -1.3284 -2.7864 -0.9297
 9155SOL     OW29471   3.690   6.891   1.247 -0.1613 -0.2798  0.7478
 9155SOL    HW129472   3.666   6.966   1.193 -0.5417  0.4270  1.8665
 9155SOL    HW229473   3.726   6.930   1.327 -0.9284 -1.2760  1.6014
 9156SOL     OW29474   4.297   5.163   3.545  0.0820  0.3543  0.2130
 9156SOL    HW129475   4.324   5.147   3.455  1.0440  0.0934  0.5285
 9156SOL    HW229476   4.203   5.181   3.540  0.0371 -0.0992 -0.7824
 9157SOL     OW29477   6.362  10.614   5.888 -0.0521 -0.5014 -0.1048
 9157SOL    HW129478   6.369  10.555   5.963 -1.2802 -0.7462 -0.1585
 9157SOL    HW229479   6.315  10.563   5.822  1.5657 -0.5220 -1.3100
 9158SOL     OW29480   1.502   7.163   5.539  0.6246 -0.6735 -0.2887
 9158SOL    HW129481   1.503   7.133   5.448  0.0413 -2.4176  0.2442
 9158SOL    HW229482   1.410   7.182   5.557  0.8308  0.3547 -0.2510
 9159SOL     OW29483   8.043   0.721   7.016  0.2319 -0.6528 -0.1335
 9159SOL    HW129484   8.123   0.720   7.069 -0.1463  4.2809  0.9849
 9159SOL    HW229485   7.972   0.727   7.080 -0.4961  1.5005 -1.0623
 9160SOL     OW29486   4.563   5.506   7.164 -0.0732  0.3906 -0.2047
 9160SOL    HW129487   4.531   5.583   7.211 -1.0355 -0.0286 -0.1474
 9160SOL    HW229488   4.609   5.455   7.231 -1.8059 -0.4157  0.4399
 9161SOL     OW29489   1.883   5.691   6.929 -0.1327 -0.1354 -0.0765
 9161SOL    HW129490   1.810   5.720   6.874  1.1267  1.7749 -0.8492
 9161SOL    HW229491   1.857   5.717   7.018  0.2872  2.1998 -0.5574
 9162SOL     OW29492  10.731   1.414   1.224 -0.7640  0.1393 -0.1683
 9162SOL    HW129493  10.794   1.466   1.173 -0.0551 -0.4385  0.1022
 9162SOL    HW229494  10.768   1.412   1.312 -2.2005  1.4914  0.5078
 9163SOL     OW29495   5.383   3.408   8.019  0.6223 -0.0494 -0.2633
 9163SOL    HW129496   5.388   3.362   8.103 -0.4994  0.8399  0.3152
 9163SOL    HW229497   5.434   3.488   8.032 -0.4228  0.6068 -0.0502
 9164SOL     OW29498   6.239   6.562   7.279  0.0945  0.1484 -0.0221
 9164SOL    HW129499   6.262   6.517   7.361  0.1213 -0.9808 -0.6244
 9164SOL    HW229500   6.276   6.649   7.288 -0.5647  0.3072  1.4901
 9165SOL     OW29501   4.457   2.577  10.103 -0.3821 -0.4401  0.0499
 9165SOL    HW129502   4.434   2.644  10.167  0.1380  1.5323 -1.7533
 9165SOL    HW229503   4.379   2.566  10.050  0.0503 -0.0621 -0.6765
 9166SOL     OW29504   1.047   4.767   3.534 -0.6583 -0.4234  0.2366
 9166SOL    HW129505   0.995   4.786   3.612 -1.1025 -1.2054  0.1374
 9166SOL    HW229506   0.988   4.784   3.460 -0.2464  0.2944  0.0653
 9167SOL     OW29507   5.984   4.315   4.001 -0.3768 -0.0226  0.1559
 9167SOL    HW129508   6.077   4.326   4.019 -0.3857 -0.5699  0.5711
 9167SOL    HW229509   5.971   4.221   3.996 -1.0518  0.0168  0.9011
 9168SOL     OW29510   1.756   2.877   5.908  0.2840 -0.2251  0.2596
 9168SOL    HW129511   1.729   2.914   5.992 -3.9051  0.4646 -1.1594
 9168SOL    HW229512   1.805   2.947   5.865 -1.6144  1.2372  0.3457
 9169SOL     OW29513   7.307   2.394   1.611 -0.2724 -0.1870  0.0110
 9169SOL    HW129514   7.346   2.350   1.686 -0.7154 -1.8113 -0.6710
 9169SOL    HW229515   7.313   2.331   1.539 -3.0962 -0.1384 -0.4108
 9170SOL     OW29516   4.584   7.945   0.680  0.9093 -0.0371 -0.3911
 9170SOL    HW129517   4.647   7.885   0.641  1.6301 -0.3890  1.2323
 9170SOL    HW229518   4.526   7.889   0.733 -0.7168  0.2948 -1.7460
 9171SOL     OW29519   6.555   6.351   3.483 -0.1152 -0.2148  0.3505
 9171SOL    HW129520   6.488   6.365   3.417  1.0773  1.8480 -0.4987
 9171SOL    HW229521   6.510   6.303   3.553 -1.9378 -0.5853 -1.0119
 9172SOL     OW29522   9.399   5.402   6.501 -0.2265 -0.3961 -0.2955
 9172SOL    HW129523   9.416   5.497   6.499  0.5801 -0.5414 -0.9051
 9172SOL    HW229524   9.431   5.371   6.416 -0.8568 -1.1586 -0.2579
 9173SOL     OW29525   9.144   0.273   5.088  0.0275 -0.2271 -0.5170
 9173SOL    HW129526   9.096   0.203   5.131  1.4618 -2.0555 -1.7212
 9173SOL    HW229527   9.172   0.330   5.160  1.6574 -2.7133  0.9860
 9174SOL     OW29528   7.404   2.155   3.803 -0.4257 -0.2409 -0.1821
 9174SOL    HW129529   7.385   2.218   3.872 -3.2506 -0.9419 -0.2122
 9174SOL    HW229530   7.494   2.127   3.820 -0.6676  0.3929  2.5727
 9175SOL     OW29531   2.824   6.644   7.744  0.2712  0.8855  0.2565
 9175SOL    HW129532   2.869   6.676   7.665  1.4777 -0.2172  0.4663
 9175SOL    HW229533   2.804   6.553   7.724 -2.2287  1.4077  0.0508
 9176SOL     OW29534   4.635   0.305   2.378  0.3052  0.0975 -0.6634
 9176SOL    HW129535   4.545   0.286   2.401  0.2965 -0.9248 -1.4669
 9176SOL    HW229536   4.684   0.293   2.459 -0.0563 -1.0191 -0.5893
 9177SOL     OW29537   8.030   5.627   8.283 -0.2211 -0.7547 -0.4258
 9177SOL    HW129538   7.937   5.610   8.264 -0.3127  0.3333 -1.0158
 9177SOL    HW229539   8.030   5.659   8.373 -0.4871 -0.2487 -0.6028
 9178SOL     OW29540   0.463  10.642   6.986 -0.0675 -0.5458 -0.5346
 9178SOL    HW129541   0.386  10.667   7.037 -0.2480 -1.6365 -0.2370
 9178SOL    HW229542   0.433  10.647   6.895  0.6812  2.8327 -0.7137
 9179SOL     OW29543   5.542   1.292   9.183 -0.4042  0.6411 -0.2563
 9179SOL    HW129544   5.457   1.261   9.214 -0.1909  0.4514  0.1451
 9179SOL    HW229545   5.521   1.364   9.124 -0.8918 -0.0749 -0.9727
 9180SOL     OW29546   2.728   8.033   9.316 -0.1345 -0.6068 -0.0904
 9180SOL    HW129547   2.731   7.939   9.299 -0.3339 -1.2079  2.7267
 9180SOL    HW229548   2.639   8.059   9.293 -0.2904 -1.2663 -0.2336
 9181SOL     OW29549   0.148   1.122   7.045 -0.2958 -0.2473  0.1864
 9181SOL    HW129550   0.240   1.147   7.048 -0.4188  0.1242  1.1454
 9181SOL    HW229551   0.133   1.095   6.954  1.4269 -2.8915  0.5659
 9182SOL     OW29552   8.093   4.135   6.037 -0.1365 -0.7466 -0.3195
 9182SOL    HW129553   8.152   4.179   5.975 -1.1943  1.5736  0.2007
 9182SOL    HW229554   8.009   4.133   5.991 -0.0986 -2.4025 -0.3564
 9183SOL     OW29555   3.304   4.359   6.125  0.4029 -0.1869  0.7716
 9183SOL    HW129556   3.217   4.396   6.114  0.1777 -1.0207 -0.4697
 9183SOL    HW229557   3.289   4.272   6.162  0.8863  0.6101  3.0115
 9184SOL     OW29558   8.847   7.859   5.652 -0.2782 -0.4161  0.1459
 9184SOL    HW129559   8.875   7.948   5.631 -0.5296 -0.1312  0.9516
 9184SOL    HW229560   8.915   7.802   5.616  1.2929  0.2408  1.9228
 9185SOL     OW29561   4.164   5.506   6.659  0.1518 -0.1356 -0.0820
 9185SOL    HW129562   4.201   5.543   6.579 -0.4684 -1.2811 -0.9193
 9185SOL    HW229563   4.208   5.554   6.729  0.4033  1.1914 -1.0923
 9186SOL     OW29564  10.646   1.071   5.100  0.3351 -0.3858 -0.2032
 9186SOL    HW129565  10.714   1.016   5.138  0.7015 -0.7353 -1.3306
 9186SOL    HW229566  10.691   1.125   5.035 -0.4808 -0.8595 -1.2046
 9187SOL     OW29567   3.332   3.481   0.104 -0.1772 -0.3916 -0.1776
 9187SOL    HW129568   3.283   3.403   0.078 -2.4230  0.8911 -0.0634
 9187SOL    HW229569   3.311   3.546   0.037 -0.4767  0.8804  1.0990
 9188SOL     OW29570   9.525   6.952   6.953 -0.1204 -0.1533 -0.0537
 9188SOL    HW129571   9.550   7.004   7.029 -1.4979 -0.4268  0.6312
 9188SOL    HW229572   9.429   6.959   6.950 -0.1780 -1.0642 -1.0895
 9189SOL     OW29573   3.393   0.705   5.914  0.3952 -0.1698  0.2392
 9189SOL    HW129574   3.316   0.663   5.874  0.3701  0.9341 -0.9499
 9189SOL    HW229575   3.432   0.637   5.969  0.0981 -1.6177 -1.2514
 9190SOL     OW29576   2.527   3.497   9.251  0.1419  0.2981  0.0549
 9190SOL    HW129577   2.600   3.542   9.208  0.2581  0.2115  0.1588
 9190SOL    HW229578   2.461   3.564   9.264 -0.3603  0.0943 -1.2982
 9191SOL     OW29579   0.001   1.306   3.611  1.1628  0.0106  0.8802
 9191SOL    HW129580  -0.033   1.250   3.681  0.7877  0.3486  0.9741
 9191SOL    HW229581   0.022   1.389   3.655 -0.6531  0.8151  0.3234
 9192SOL     OW29582   0.618   3.674   6.656  0.7595  0.0771 -0.2688
 9192SOL    HW129583   0.591   3.716   6.738 -0.9498 -0.9397 -0.2740
 9192SOL    HW229584   0.700   3.630   6.677  1.9139  2.2281  0.0876
 9193SOL     OW29585   5.311   0.054  10.269  0.6305  0.4540 -0.1746
 9193SOL    HW129586   5.342  -0.024  10.315 -0.6985  0.0092  0.0392
 9193SOL    HW229587   5.374   0.069  10.199 -0.2127 -2.1428 -1.6110
 9194SOL     OW29588   5.473   0.611   2.118  0.0841  0.1623 -0.3699
 9194SOL    HW129589   5.523   0.552   2.061  0.8185  2.4899 -2.2878
 9194SOL    HW229590   5.399   0.557   2.148  2.1616 -2.5479  0.2973
 9195SOL     OW29591   1.696   9.568   6.179 -0.1622  0.5936 -0.4289
 9195SOL    HW129592   1.750   9.604   6.249 -1.2028  1.2653  0.0542
 9195SOL    HW229593   1.744   9.589   6.099  0.6215  0.5740  0.0299
 9196SOL     OW29594   3.670   0.131   5.898  0.4809 -0.1586  0.4470
 9196SOL    HW129595   3.680   0.113   5.992  0.1256  0.4004  0.6009
 9196SOL    HW229596   3.603   0.199   5.895  3.0008  2.4405  0.0094
 9197SOL     OW29597   1.238   9.924   6.792 -0.1018 -0.2957  0.5445
 9197SOL    HW129598   1.307   9.860   6.811 -0.5810 -0.4117  2.0304
 9197SOL    HW229599   1.162   9.892   6.842 -0.8206  0.5812  0.0377
 9198SOL     OW29600   8.659   4.821  10.746 -0.0401 -0.4763  0.0783
 9198SOL    HW129601   8.747   4.823  10.709  0.4669 -0.9558  1.2171
 9198SOL    HW229602   8.631   4.913  10.745  0.2525 -0.3830 -0.7625
 9199SOL     OW29603   6.596   5.049   4.325 -0.0847  0.1253  0.8055
 9199SOL    HW129604   6.563   4.960   4.338  0.5029 -0.2111  0.0285
 9199SOL    HW229605   6.649   5.066   4.403 -0.2744 -0.1688  1.0012
 9200SOL     OW29606   6.750   8.263  10.131 -0.3000 -0.3951 -0.0579
 9200SOL    HW129607   6.840   8.233  10.117 -0.7163 -1.0061 -1.6039
 9200SOL    HW229608   6.758   8.357  10.149  0.8486 -0.9311  2.7494
 9201SOL     OW29609   0.521   1.981   0.732  0.3416  0.4273  0.1766
 9201SOL    HW129610   0.491   2.020   0.650  2.2622  1.5968 -0.0384
 9201SOL    HW229611   0.455   2.007   0.796 -0.1469  1.2115 -0.6125
 9202SOL     OW29612  11.039   5.135   8.413  0.1617  0.0227 -0.4117
 9202SOL    HW129613  11.017   5.044   8.436  0.7773 -0.7577 -2.6268
 9202SOL    HW229614  11.012   5.186   8.489 -0.9168 -1.9226  0.5986
 9203SOL     OW29615   0.287   3.753   2.245 -0.5743 -0.3386  0.6475
 9203SOL    HW129616   0.254   3.684   2.303 -1.2149  0.2317  0.9819
 9203SOL    HW229617   0.208   3.796   2.212 -0.1852  0.7706  1.1143
 9204SOL     OW29618   3.603   0.205   5.008 -0.1662  0.2536 -0.4418
 9204SOL    HW129619   3.537   0.267   5.038 -0.7400 -0.3609 -0.4257
 9204SOL    HW229620   3.670   0.260   4.968 -0.7521  0.8768 -0.5855
 9205SOL     OW29621   6.973   8.460   3.663 -0.0482  0.0989 -0.0421
 9205SOL    HW129622   6.907   8.392   3.647  0.0889  0.0430 -0.3820
 9205SOL    HW229623   6.975   8.511   3.582  2.4934 -1.7544 -1.3027
 9206SOL     OW29624   0.428   3.661   3.358  0.3212 -0.0011  0.1397
 9206SOL    HW129625   0.351   3.611   3.332 -1.0864  2.2075 -0.1744
 9206SOL    HW229626   0.499   3.625   3.305 -0.0551 -3.1220  1.5214
 9207SOL     OW29627  10.219   3.569   7.963 -0.5955 -0.0652  0.6759
 9207SOL    HW129628  10.211   3.568   8.058  0.9492  0.4506  0.8302
 9207SOL    HW229629  10.207   3.661   7.939 -1.6923 -0.2952  0.2846
 9208SOL     OW29630   4.438   9.165   1.125  0.2501 -0.5780  0.3240
 9208SOL    HW129631   4.458   9.183   1.217 -1.8714  0.9882  0.5375
 9208SOL    HW229632   4.349   9.131   1.126 -0.9996  2.3192 -1.3379
 9209SOL     OW29633   7.305   6.764   2.165 -0.0312 -0.6942 -0.0558
 9209SOL    HW129634   7.323   6.828   2.234  1.6336 -0.2795 -0.8298
 9209SOL    HW229635   7.374   6.777   2.100  1.1220 -4.0681  0.2907
 9210SOL     OW29636   3.241   7.101   2.128  0.4231 -0.1225  0.1634
 9210SOL    HW129637   3.190   7.027   2.162 -0.1857  0.2850  0.1535
 9210SOL    HW229638   3.180   7.174   2.128  1.7079  1.1064  2.7469
 9211SOL     OW29639   1.784   2.148   6.376  0.2609  0.2292 -0.2413
 9211SOL    HW129640   1.811   2.138   6.468 -0.0687 -0.5639 -0.2283
 9211SOL    HW229641   1.866   2.162   6.329  0.5780 -0.7470 -0.0069
 9212SOL     OW29642   8.148   0.590   5.887  0.4537  0.0394  0.3916
 9212SOL    HW129643   8.234   0.586   5.847  0.3505  1.1454  0.0052
 9212SOL    HW229644   8.087   0.568   5.815  0.2149  2.7945 -0.3824
 9213SOL     OW29645   6.551   9.870   8.490 -0.3137 -0.1550  0.3054
 9213SOL    HW129646   6.593   9.942   8.442 -1.8149  1.3228  1.0870
 9213SOL    HW229647   6.561   9.794   8.433 -0.3027  1.0872 -1.4297
 9214SOL     OW29648   0.697   0.376   4.216  0.0806 -0.2581  0.3610
 9214SOL    HW129649   0.745   0.457   4.233  0.1727 -0.4019  0.7886
 9214SOL    HW229650   0.662   0.387   4.128  0.4981  0.0487  0.2297
 9215SOL     OW29651   4.692   9.655   8.713 -0.6567 -0.3106 -0.0582
 9215SOL    HW129652   4.620   9.713   8.685  0.3449  0.6282 -0.7811
 9215SOL    HW229653   4.652   9.568   8.718 -1.9044  0.2251 -0.2013
 9216SOL     OW29654   7.367   4.300  10.921  0.4010 -0.0987  0.4803
 9216SOL    HW129655   7.364   4.340  11.008 -0.5705  0.2324  0.3049
 9216SOL    HW229656   7.278   4.270  10.905  1.3332 -3.9188  1.2846
 9217SOL     OW29657   6.271   4.197   0.586  0.4574  0.0118  0.4373
 9217SOL    HW129658   6.356   4.240   0.596  0.0056  1.4675 -1.3884
 9217SOL    HW229659   6.291   4.113   0.544  0.9215  1.1112 -1.6883
 9218SOL     OW29660   9.541   4.144   5.601  0.5234 -0.4690  0.1292
 9218SOL    HW129661   9.504   4.111   5.683 -1.0832 -0.3654 -0.5218
 9218SOL    HW229662   9.535   4.239   5.609  0.1409 -0.4627 -0.1900
 9219SOL     OW29663   1.946  10.443   2.177  0.2282 -0.4884 -0.1469
 9219SOL    HW129664   2.006  10.414   2.245 -0.4956  1.7787  1.5726
 9219SOL    HW229665   1.859  10.418   2.209 -0.0968  0.3478 -0.3471
 9220SOL     OW29666   1.024   8.138   4.372 -0.5449  0.1941 -0.6348
 9220SOL    HW129667   0.944   8.090   4.348 -0.8342  0.6157 -0.5184
 9220SOL    HW229668   1.015   8.154   4.466 -0.8521  1.2037 -0.8226
 9221SOL     OW29669   0.508   3.907   0.886  0.9877  0.0905  0.0922
 9221SOL    HW129670   0.450   3.981   0.870  0.7079 -0.2571 -0.5342
 9221SOL    HW229671   0.581   3.920   0.826  0.7259 -0.3566 -0.3405
 9222SOL     OW29672   9.730   3.120   7.683 -0.5143 -0.4423 -0.2847
 9222SOL    HW129673   9.801   3.146   7.741  0.3786  0.3498 -1.6856
 9222SOL    HW229674   9.666   3.079   7.741  0.9121 -0.8588  1.0587
 9223SOL     OW29675   4.590   1.477   0.119  0.3468 -0.1306  0.4116
 9223SOL    HW129676   4.578   1.554   0.174 -1.1924  1.6599 -2.1770
 9223SOL    HW229677   4.519   1.482   0.055  1.5248 -2.4807 -1.2546
 9224SOL     OW29678   1.253   0.804   6.975 -0.1380  0.4957  0.2707
 9224SOL    HW129679   1.186   0.838   7.035  0.2427  1.7742  0.0169
 9224SOL    HW229680   1.262   0.873   6.909  1.4151  0.3478  0.3019
 9225SOL     OW29681   1.003   8.764   8.509  0.2041  0.2034 -0.0460
 9225SOL    HW129682   0.995   8.819   8.431 -1.4321  1.8869  1.2448
 9225SOL    HW229683   1.032   8.679   8.474 -0.7216  0.8027 -2.5335
 9226SOL     OW29684   2.106   4.157   5.787  0.3029 -0.1469  0.1577
 9226SOL    HW129685   2.069   4.091   5.845  0.7517 -1.5877 -1.1243
 9226SOL    HW229686   2.058   4.146   5.704  0.7146  0.8093 -0.2257
 9227SOL     OW29687   5.279  10.421   1.714  0.1354  0.3441 -0.1749
 9227SOL    HW129688   5.193  10.464   1.721 -0.5039 -0.7093 -1.1717
 9227SOL    HW229689   5.316  10.457   1.633  0.7471  0.9483  0.3584
 9228SOL     OW29690   5.827   1.750   6.367 -0.1526 -0.3741 -0.0510
 9228SOL    HW129691   5.791   1.831   6.332 -1.5740 -1.7121 -1.9494
 9228SOL    HW229692   5.751   1.702   6.399  0.3507 -1.8349 -0.9525
 9229SOL     OW29693   2.288   1.403   2.690  0.8550 -0.2006  0.5152
 9229SOL    HW129694   2.261   1.403   2.782  0.8223  0.4613  0.5083
 9229SOL    HW229695   2.350   1.330   2.684  0.7598 -0.3311  1.0300
 9230SOL     OW29696  10.260  10.531   8.099 -0.1764  0.5503  0.4486
 9230SOL    HW129697  10.284  10.469   8.169  2.1239  0.0085 -0.7158
 9230SOL    HW229698  10.165  10.523   8.093 -0.0209 -3.2292  0.1235
 9231SOL     OW29699   0.404   8.557   4.805  0.4322  0.2059 -0.0135
 9231SOL    HW129700   0.318   8.516   4.807  0.7287 -0.4493 -0.2859
 9231SOL    HW229701   0.401   8.617   4.731  0.3417 -0.1217 -0.2753
 9232SOL     OW29702   1.657   4.446   3.069 -0.4040 -0.1218 -0.4352
 9232SOL    HW129703   1.681   4.376   3.009  0.1781 -0.2010 -0.1184
 9232SOL    HW229704   1.740   4.489   3.090 -0.6647  0.2173 -0.0744
 9233SOL     OW29705   6.695   2.238  10.227  0.2468 -0.0201  0.2380
 9233SOL    HW129706   6.708   2.238  10.132  2.1506  0.6507  0.4623
 9233SOL    HW229707   6.687   2.146  10.250  0.1016 -0.2046 -0.5283
 9234SOL     OW29708   3.019   7.204   5.596  0.3872  0.4129 -0.4196
 9234SOL    HW129709   3.102   7.156   5.596 -0.1290 -0.5118 -1.2415
 9234SOL    HW229710   3.022   7.256   5.676  3.2496  3.0800 -2.0540
 9235SOL     OW29711  10.004   3.505   7.176  0.1857  0.2261 -0.1268
 9235SOL    HW129712  10.027   3.435   7.238  1.2681  2.1095  1.7072
 9235SOL    HW229713   9.918   3.534   7.205 -1.1293 -1.4635 -2.0363
 9236SOL     OW29714   3.554   1.120   2.729 -0.4109  0.0584  1.1107
 9236SOL    HW129715   3.496   1.046   2.713 -1.7233  1.0129  1.3198
 9236SOL    HW229716   3.575   1.116   2.822 -1.6242  0.7301  1.4308
 9237SOL     OW29717   6.051   1.659   1.563  0.2261 -0.7478  0.0349
 9237SOL    HW129718   6.035   1.689   1.474  0.3268  1.1944  0.6210
 9237SOL    HW229719   6.101   1.730   1.604  0.3443 -1.6669  1.5874
 9238SOL     OW29720   5.765   7.984  10.462  0.0370 -0.0818  0.1651
 9238SOL    HW129721   5.807   8.018  10.541 -0.4282  0.3176  0.2439
 9238SOL    HW229722   5.772   7.889  10.470 -1.5180 -0.1251  1.5352
 9239SOL     OW29723   7.217   2.851   5.480  0.1652 -0.3249  0.0988
 9239SOL    HW129724   7.173   2.835   5.396  1.6854 -1.8340 -0.4707
 9239SOL    HW229725   7.296   2.900   5.458  0.6619 -0.8738  0.6187
 9240SOL     OW29726   6.479   6.637   4.357 -0.1515  0.5097 -0.4347
 9240SOL    HW129727   6.548   6.578   4.327 -0.4829  0.3270 -0.8538
 9240SOL    HW229728   6.512   6.725   4.340  0.3587  0.4501  0.2186
 9241SOL     OW29729   0.734  10.527   1.711  0.0082 -0.5523  0.4923
 9241SOL    HW129730   0.812  10.485   1.745  0.1432 -1.0588 -0.4247
 9241SOL    HW229731   0.739  10.516   1.616 -0.4915  0.5898  0.3099
 9242SOL     OW29732   8.931   2.447   4.457  0.0074  0.3396  0.3029
 9242SOL    HW129733   8.966   2.367   4.497  1.1058  0.6159 -0.0798
 9242SOL    HW229734   8.878   2.416   4.383  1.1071 -0.0079 -0.3502
 9243SOL     OW29735  10.864   4.067   0.245  0.2694 -0.4861  0.0495
 9243SOL    HW129736  10.811   4.024   0.312  1.1351  0.5949  1.4799
 9243SOL    HW229737  10.879   3.999   0.179 -0.9275 -1.4673  0.7471
 9244SOL     OW29738   4.273   4.543   5.452 -0.4436 -0.0891 -0.0184
 9244SOL    HW129739   4.205   4.502   5.505  0.8812  0.0315  1.8978
 9244SOL    HW229740   4.303   4.617   5.504  0.7622  0.1992 -1.0504
 9245SOL     OW29741   9.063   7.728   0.178 -0.0006  0.2128 -0.2682
 9245SOL    HW129742   9.115   7.733   0.098  0.9046  1.2244  0.3430
 9245SOL    HW229743   9.103   7.657   0.228 -1.1291 -1.0131 -1.0756
 9246SOL     OW29744   6.668   9.849   4.009 -0.1159  0.6888  0.2240
 9246SOL    HW129745   6.614   9.853   3.931 -1.1757 -1.2261  0.7934
 9246SOL    HW229746   6.648   9.764   4.048  2.3640  0.4371  1.1616
 9247SOL     OW29747   2.089   1.492   9.742  0.0254 -0.2041  0.5727
 9247SOL    HW129748   2.146   1.556   9.700 -0.6064  0.2291  0.3508
 9247SOL    HW229749   2.006   1.539   9.755 -1.2316 -1.5959 -1.6683
 9248SOL     OW29750   9.304   6.707  11.062 -0.7740  0.1049 -0.6779
 9248SOL    HW129751   9.266   6.787  11.025  0.9841  0.0707 -2.7448
 9248SOL    HW229752   9.395   6.707  11.033  0.0407 -1.3100  1.5942
 9249SOL     OW29753   8.478  10.988   5.501  0.3184  0.1393 -0.3966
 9249SOL    HW129754   8.392  11.016   5.530  0.3715 -0.6276  0.5790
 9249SOL    HW229755   8.535  11.063   5.518  0.3883 -0.3359  1.7735
 9250SOL     OW29756  11.068   7.318   4.916 -0.0563 -0.2616 -0.0792
 9250SOL    HW129757  11.023   7.238   4.944  1.1378 -1.4646 -1.3699
 9250SOL    HW229758  11.128   7.338   4.987 -0.0920 -0.7340  0.0887
 9251SOL     OW29759   3.803   2.796   5.152  0.2496 -0.2776  0.6752
 9251SOL    HW129760   3.736   2.810   5.220 -0.0891 -0.3828  0.3685
 9251SOL    HW229761   3.879   2.846   5.183  0.7144 -1.7434  2.0107
 9252SOL     OW29762  10.682   6.135   9.632  0.2253  0.3858  0.3761
 9252SOL    HW129763  10.667   6.128   9.537  2.0530  0.6616  0.0335
 9252SOL    HW229764  10.660   6.226   9.653 -1.3956 -0.0006  0.4870
 9253SOL     OW29765   0.970   9.150   3.126  0.0764 -0.3116  0.2708
 9253SOL    HW129766   0.954   9.142   3.032 -1.8784 -1.5541  0.6535
 9253SOL    HW229767   0.967   9.244   3.143  0.5194 -0.0621 -0.8877
 9254SOL     OW29768   2.987  10.357   4.227  0.4761 -0.0888  0.1085
 9254SOL    HW129769   2.971  10.409   4.306  0.9811  0.2774 -0.0217
 9254SOL    HW229770   2.950  10.409   4.156 -0.4541 -0.6665  0.1587
 9255SOL     OW29771   0.611   2.865   2.789 -0.0294  0.0981 -0.2888
 9255SOL    HW129772   0.534   2.829   2.833  0.2292  1.8337  1.7412
 9255SOL    HW229773   0.683   2.852   2.851  0.3971  2.4732 -0.1729
 9256SOL     OW29774   1.445   3.718   2.594 -0.4238  0.9050 -0.1370
 9256SOL    HW129775   1.465   3.676   2.677  0.7724  1.3126 -0.1959
 9256SOL    HW229776   1.391   3.654   2.547  0.8901 -0.3598 -0.0038
 9257SOL     OW29777   0.777   9.770   4.499  0.5491  1.2139  0.8877
 9257SOL    HW129778   0.831   9.710   4.448 -0.3303  0.3877  0.9115
 9257SOL    HW229779   0.816   9.857   4.482  0.3606  0.9626 -1.0952
 9258SOL     OW29780   0.272   9.044   8.267 -0.1847 -0.0434 -0.0263
 9258SOL    HW129781   0.298   8.952   8.262 -0.7917 -0.2265  0.1702
 9258SOL    HW229782   0.188   9.043   8.312 -0.1055  0.6268  0.1436
 9259SOL     OW29783   9.789   4.119  10.501  0.2050 -0.0599  0.5060
 9259SOL    HW129784   9.819   4.064  10.428  0.5124  0.4767  0.2186
 9259SOL    HW229785   9.760   4.199  10.459  2.3126  1.0997  1.1126
 9260SOL     OW29786   8.742   9.396   6.063  0.3418 -0.0046  0.0770
 9260SOL    HW129787   8.691   9.364   5.989 -0.9381 -0.2271  1.0254
 9260SOL    HW229788   8.774   9.482   6.034  1.0668 -0.6899 -1.2509
 9261SOL     OW29789   2.142   3.895   8.162  0.2073  0.4750 -0.0285
 9261SOL    HW129790   2.222   3.845   8.169  0.0402  0.1702 -0.2831
 9261SOL    HW229791   2.076   3.832   8.132 -0.2312  0.6154  0.6275
 9262SOL     OW29792   9.269  10.402   9.371  0.1167  0.0064  0.5252
 9262SOL    HW129793   9.239  10.412   9.280  2.5197 -1.9094 -0.5927
 9262SOL    HW229794   9.189  10.394   9.422 -1.3070 -0.9180 -1.7099
 9263SOL     OW29795   9.100   2.878   3.338  0.2238  0.3311 -0.4308
 9263SOL    HW129796   9.089   2.969   3.310  1.3648  0.3350 -0.9078
 9263SOL    HW229797   9.135   2.884   3.426  0.4199  0.3503 -0.5110
 9264SOL     OW29798   2.464  10.633   4.344 -0.0119 -0.2165 -0.0117
 9264SOL    HW129799   2.407  10.678   4.281 -0.2445 -0.3469  0.1045
 9264SOL    HW229800   2.460  10.541   4.319  0.7316 -0.1376 -0.4576
 9265SOL     OW29801   3.342   4.395   9.744  0.5952  0.0936 -0.5220
 9265SOL    HW129802   3.260   4.362   9.707 -0.9892  0.6292  2.1861
 9265SOL    HW229803   3.393   4.316   9.763 -0.3839 -0.4315  0.0280
 9266SOL     OW29804   0.113   2.595   4.664 -0.0928  0.3879  0.2142
 9266SOL    HW129805   0.168   2.530   4.708  0.4379  0.8729  0.2877
 9266SOL    HW229806   0.023   2.571   4.688  0.0809 -0.4536  0.0409
 9267SOL     OW29807   4.684   3.642   7.562  0.0779 -0.6082 -0.0021
 9267SOL    HW129808   4.691   3.737   7.567  0.9159 -0.7309  1.5919
 9267SOL    HW229809   4.653   3.615   7.648  1.8016 -1.9247  0.2658
 9268SOL     OW29810  10.707   5.425   6.224 -0.1131  0.1267 -0.2610
 9268SOL    HW129811  10.624   5.438   6.270 -1.1338  0.5489 -2.1092
 9268SOL    HW229812  10.695   5.343   6.175  1.0618 -0.4882  0.4254
 9269SOL     OW29813   6.784   7.706   8.772 -0.0098 -0.1484 -0.0769
 9269SOL    HW129814   6.768   7.675   8.682  1.9337 -1.5286  0.0062
 9269SOL    HW229815   6.799   7.627   8.822 -1.0319  0.6155  1.5210
 9270SOL     OW29816   3.205   0.824   6.642  0.1512 -0.2700  0.4106
 9270SOL    HW129817   3.203   0.743   6.694  1.1446 -1.0887 -0.7682
 9270SOL    HW229818   3.253   0.886   6.697  0.6901 -0.9480  0.7166
 9271SOL     OW29819   8.581   4.575   4.135  0.0337  0.2083  0.1450
 9271SOL    HW129820   8.583   4.664   4.101  4.1635  1.2492  2.3645
 9271SOL    HW229821   8.549   4.584   4.225 -1.3720 -0.9271 -0.2006
 9272SOL     OW29822   1.924   5.510   4.178 -0.7039  0.2705 -0.1844
 9272SOL    HW129823   1.949   5.548   4.262 -0.0947  1.1289 -0.7242
 9272SOL    HW229824   1.882   5.582   4.131  1.3213  0.6255 -1.5995
 9273SOL     OW29825   9.365   6.423   4.983  0.7893 -0.1762  0.0514
 9273SOL    HW129826   9.438   6.368   4.952 -0.0538 -1.7877  0.7929
 9273SOL    HW229827   9.287   6.383   4.945  0.2564  1.7594 -1.0522
 9274SOL     OW29828   3.463  10.441   1.588 -0.0958 -0.5013  0.5812
 9274SOL    HW129829   3.419  10.396   1.515 -0.3277  0.2148  0.2637
 9274SOL    HW229830   3.554  10.448   1.560 -0.1871 -0.2151  0.3425
 9275SOL     OW29831   4.178   2.762   8.945  0.1146  0.2176 -0.0923
 9275SOL    HW129832   4.117   2.738   9.015  0.6472  0.6862  0.5441
 9275SOL    HW229833   4.264   2.760   8.986  0.5260 -0.3523 -0.9680
 9276SOL     OW29834  11.063   3.032  10.263  0.1213 -0.1751 -0.3474
 9276SOL    HW129835  11.152   3.031  10.297  0.2493  0.6384 -0.6476
 9276SOL    HW229836  11.071   3.001  10.173  0.3267  1.2625 -0.8568
 9277SOL     OW29837  10.693   0.202   2.237 -0.0907  0.2805  0.0323
 9277SOL    HW129838  10.624   0.137   2.227 -0.2321  0.4371 -0.0169
 9277SOL    HW229839  10.673   0.269   2.173 -0.7797  1.0865  1.0514
 9278SOL     OW29840   9.059   2.144  10.415 -0.4441 -0.6508 -0.3933
 9278SOL    HW129841   9.148   2.111  10.404  0.1491  0.8455 -0.3343
 9278SOL    HW229842   9.012   2.114  10.338  0.2951 -0.8871 -0.7593
 9279SOL     OW29843   1.200   2.758   5.802 -0.1811 -0.0092 -0.2331
 9279SOL    HW129844   1.178   2.738   5.893 -0.1738  0.3847 -0.1446
 9279SOL    HW229845   1.264   2.691   5.778 -0.9338 -0.7290 -0.2671
 9280SOL     OW29846   4.771   3.508   4.956 -0.4164 -0.7704 -0.6346
 9280SOL    HW129847   4.833   3.559   5.007 -1.2017  0.6634 -1.0786
 9280SOL    HW229848   4.782   3.418   4.987  0.4572 -0.2204  0.6889
 9281SOL     OW29849   0.482  11.062   5.331  0.0874  0.5633 -0.0031
 9281SOL    HW129850   0.433  11.137   5.364  1.6806  1.1908  1.0629
 9281SOL    HW229851   0.459  10.990   5.390 -1.0637  0.3091 -0.7309
 9282SOL     OW29852   7.590   5.554   2.688 -0.5102 -0.3036 -0.7300
 9282SOL    HW129853   7.596   5.649   2.696 -2.2795 -0.0498 -1.8500
 9282SOL    HW229854   7.680   5.523   2.698 -0.1123  1.3156  1.3413
 9283SOL     OW29855   2.920   9.451   3.622  0.0409 -0.1820  0.2552
 9283SOL    HW129856   2.872   9.415   3.696 -1.9386  0.9361 -0.4091
 9283SOL    HW229857   2.882   9.409   3.545  0.9553 -0.1392 -0.2357
 9284SOL     OW29858   4.909   4.164   1.548 -0.0661 -0.2985  0.5232
 9284SOL    HW129859   4.852   4.089   1.534  2.0546 -1.9068  0.0000
 9284SOL    HW229860   4.902   4.183   1.641 -0.8385 -0.9834  0.6142
 9285SOL     OW29861   5.368   2.150   1.178  0.4186 -0.3566  0.0556
 9285SOL    HW129862   5.306   2.205   1.130  0.2096 -0.4539  0.2089
 9285SOL    HW229863   5.336   2.060   1.165  0.4935 -0.4028  0.1826
 9286SOL     OW29864   5.927   8.121   1.669  0.4811 -0.3308 -0.1775
 9286SOL    HW129865   5.873   8.120   1.748  0.0970 -0.6540 -0.4424
 9286SOL    HW229866   5.865   8.133   1.597  0.7255 -1.0412 -0.5180
 9287SOL     OW29867   9.193   4.331   9.625  0.0970 -0.2415 -0.0911
 9287SOL    HW129868   9.196   4.313   9.719 -0.4834 -1.0646 -0.2159
 9287SOL    HW229869   9.259   4.399   9.612  2.0101 -1.8531  0.5262
 9288SOL     OW29870   6.914   2.890   3.266  0.3402 -0.9142  0.3300
 9288SOL    HW129871   6.966   2.850   3.196 -0.7777 -2.6466  0.4313
 9288SOL    HW229872   6.945   2.980   3.270  1.4816 -1.1834 -1.3719
 9289SOL     OW29873   0.981   5.404   2.471 -0.3211  0.4152 -0.1678
 9289SOL    HW129874   1.002   5.330   2.527  0.4808 -0.4102 -1.5005
 9289SOL    HW229875   0.947   5.364   2.391  0.9249  1.4407 -1.2390
 9290SOL     OW29876   5.731  10.389   0.555 -0.5496 -0.3340  0.5315
 9290SOL    HW129877   5.671  10.317   0.536 -0.9981  0.0811  0.3411
 9290SOL    HW229878   5.818  10.351   0.547 -0.7865 -0.8958  0.6060
 9291SOL     OW29879   3.475   8.004   8.389 -0.1151 -0.1104 -0.1376
 9291SOL    HW129880   3.544   7.949   8.425  1.6534 -0.7235 -3.9375
 9291SOL    HW229881   3.423   7.945   8.333 -1.9775  0.9452  0.3771
 9292SOL     OW29882   5.215   7.612   1.933  0.1507 -0.7801 -0.2774
 9292SOL    HW129883   5.275   7.637   2.003  2.7782  2.3577 -3.2671
 9292SOL    HW229884   5.153   7.686   1.928 -1.8977 -2.3540  0.5015
 9293SOL     OW29885   0.367   0.653   0.543 -1.3608 -0.5891  0.7584
 9293SOL    HW129886   0.344   0.746   0.534 -2.3474 -0.5294  3.0520
 9293SOL    HW229887   0.413   0.648   0.627  1.6334 -1.7514 -0.7997
 9294SOL     OW29888   5.026   3.175   4.618 -0.0529 -0.5835  0.4491
 9294SOL    HW129889   5.082   3.230   4.674 -1.6534  0.6448  0.8938
 9294SOL    HW229890   4.945   3.166   4.667 -0.6931 -1.3283 -0.7198
 9295SOL     OW29891   3.956   5.322   6.418 -0.2096 -0.1147  0.1050
 9295SOL    HW129892   3.894   5.313   6.346 -0.8676  1.1078  0.5011
 9295SOL    HW229893   4.015   5.247   6.408 -0.6196 -0.2735 -1.3706
 9296SOL     OW29894   4.893   5.039   6.000 -0.2513  0.1881 -0.4177
 9296SOL    HW129895   4.973   5.060   6.048 -0.8143 -0.2737  0.7669
 9296SOL    HW229896   4.824   5.041   6.066 -1.0287 -0.6891 -1.1671
 9297SOL     OW29897   6.226   0.102   4.043 -0.1285  0.2448  0.0790
 9297SOL    HW129898   6.131   0.112   4.049 -0.0229  0.6670  1.3148
 9297SOL    HW229899   6.257   0.186   4.007 -0.3339 -0.5162 -2.0615
 9298SOL     OW29900   3.674  10.019  10.688  0.0786  0.2317 -0.1100
 9298SOL    HW129901   3.679  10.050  10.597  2.7649 -0.6292 -0.3317
 9298SOL    HW229902   3.684   9.924  10.682 -1.9790 -0.1293  1.0024
 9299SOL     OW29903   0.177   1.696   7.451 -0.3115  0.3552  0.3870
 9299SOL    HW129904   0.138   1.625   7.399 -1.6946  1.4798 -0.1747
 9299SOL    HW229905   0.137   1.776   7.416  0.3097  1.3203  1.8047
 9300SOL     OW29906   4.114   0.087   9.928  0.3469 -0.4840 -0.0261
 9300SOL    HW129907   4.201   0.097   9.891 -0.7477  1.9642 -2.2862
 9300SOL    HW229908   4.076   0.013   9.881  1.5588 -2.4806  1.9524
 9301SOL     OW29909   7.136   8.872   1.054  0.2555  0.1581 -0.0822
 9301SOL    HW129910   7.212   8.910   1.099 -0.1224 -0.0632  0.7725
 9301SOL    HW229911   7.079   8.946   1.036 -0.0057  0.1516  0.6502
 9302SOL     OW29912   6.923   0.029   3.834 -0.0767 -0.8270  0.1134
 9302SOL    HW129913   6.993  -0.016   3.787  0.6376  0.0906  0.2732
 9302SOL    HW229914   6.842  -0.012   3.801  0.5411 -2.8576  0.9214
 9303SOL     OW29915   3.348   6.756   8.960  0.2714 -0.0476 -0.1840
 9303SOL    HW129916   3.380   6.815   9.029  3.4599  0.5706 -2.0091
 9303SOL    HW229917   3.291   6.811   8.906  0.2707  0.3281  0.1882
 9304SOL     OW29918   4.322   7.143   4.423 -0.1234 -0.6225 -0.1472
 9304SOL    HW129919   4.266   7.067   4.439 -0.7036 -1.0714 -3.4791
 9304SOL    HW229920   4.411   7.108   4.423 -0.2581 -0.9734 -0.0687
 9305SOL     OW29921   9.811   2.825   8.143 -0.0061 -0.3442  0.4261
 9305SOL    HW129922   9.896   2.786   8.121  0.6669 -0.1584  2.4384
 9305SOL    HW229923   9.756   2.751   8.168 -1.0546 -0.6543 -2.4327
 9306SOL     OW29924  10.954   8.644   1.684  0.3688  1.3522  0.1952
 9306SOL    HW129925  11.048   8.643   1.668  0.0824  3.3823 -2.2086
 9306SOL    HW229926  10.937   8.731   1.720 -0.6621  1.2886 -0.1077
 9307SOL     OW29927   8.178   7.556   2.072  0.5049 -0.2742 -0.2472
 9307SOL    HW129928   8.187   7.476   2.019 -0.3242 -2.3893  2.5743
 9307SOL    HW229929   8.254   7.555   2.130 -0.1184  0.3548  0.6001
 9308SOL     OW29930   5.390   2.029   0.824 -0.1188 -0.0338 -0.3332
 9308SOL    HW129931   5.431   1.946   0.851  0.6571 -0.4618 -2.6159
 9308SOL    HW229932   5.312   2.003   0.776  0.1911  0.5419 -1.1654
 9309SOL     OW29933   9.107   5.212   5.642  0.9837  0.5584 -0.3945
 9309SOL    HW129934   9.081   5.135   5.592 -0.6891  1.8766 -1.6870
 9309SOL    HW229935   9.055   5.207   5.722  0.3445  0.6898 -0.7954
 9310SOL     OW29936   2.764   5.348   3.917  0.2979  0.3807 -0.2081
 9310SOL    HW129937   2.745   5.376   4.007  2.2701  0.0921  0.3372
 9310SOL    HW229938   2.772   5.252   3.924 -2.2261  0.0153 -1.2568
 9311SOL     OW29939   1.640   0.022   8.472 -0.4741  0.0726  0.4309
 9311SOL    HW129940   1.600   0.013   8.386 -0.8527 -0.6919  0.6725
 9311SOL    HW229941   1.725  -0.023   8.464 -0.8249 -0.6536  0.6456
 9312SOL     OW29942   6.834   6.765   7.658 -0.1305  0.1977  0.4654
 9312SOL    HW129943   6.909   6.739   7.712 -0.1905  1.4217  1.1612
 9312SOL    HW229944   6.773   6.804   7.720  0.7701  3.8260 -0.7311
 9313SOL     OW29945  10.095   1.202   3.525 -0.5957  0.4794 -0.0759
 9313SOL    HW129946  10.014   1.227   3.481 -0.4617 -0.6370 -0.9961
 9313SOL    HW229947  10.163   1.218   3.460 -0.0388  1.5726  0.7486
 9314SOL     OW29948   1.638   5.078   5.139  0.1305 -0.1585 -0.0648
 9314SOL    HW129949   1.710   5.106   5.082  0.4520 -0.7015  0.0667
 9314SOL    HW229950   1.651   4.984   5.150  1.3402  0.2145  2.6014
 9315SOL     OW29951   7.219   3.723   6.347 -0.7499 -0.2941  0.6968
 9315SOL    HW129952   7.160   3.650   6.329  0.2114 -1.0348  0.4523
 9315SOL    HW229953   7.271   3.694   6.422  0.9671 -0.6913 -0.6004
 9316SOL     OW29954   3.939   1.001   3.835  0.0558  0.0660 -0.2541
 9316SOL    HW129955   3.907   1.015   3.924  0.0416  0.3657 -0.3048
 9316SOL    HW229956   3.867   1.030   3.779  0.4572  0.8728 -0.3674
 9317SOL     OW29957   2.159   6.070   5.954  0.2162 -0.1101  0.3917
 9317SOL    HW129958   2.092   6.125   5.994  0.4714  0.0750  0.5677
 9317SOL    HW229959   2.240   6.096   5.997  0.5978  0.5463 -0.6953
 9318SOL     OW29960   9.486  10.984   6.113  0.1294 -0.4966 -0.0665
 9318SOL    HW129961   9.411  11.022   6.159 -0.3252  0.5774 -1.5874
 9318SOL    HW229962   9.515  10.912   6.168 -0.4856  0.6006  1.7759
 9319SOL     OW29963   0.872   0.591   5.542  0.3020 -0.7387 -0.1928
 9319SOL    HW129964   0.836   0.539   5.470 -0.2343 -0.4812 -0.1147
 9319SOL    HW229965   0.963   0.562   5.549 -0.1187 -2.0278  0.1924
 9320SOL     OW29966   3.766   7.772   2.614 -0.4834 -0.0885  0.0024
 9320SOL    HW129967   3.728   7.858   2.597  1.6191  1.1552  1.1890
 9320SOL    HW229968   3.760   7.727   2.530 -1.7140  1.1591 -0.6283
 9321SOL     OW29969   1.722   0.553   2.122  0.0947  0.3214 -0.2442
 9321SOL    HW129970   1.684   0.557   2.210  0.2375  0.2749 -0.1796
 9321SOL    HW229971   1.738   0.644   2.099 -1.0694  0.4151 -0.7193
 9322SOL     OW29972   6.402   2.020   2.314 -0.7652 -1.1662  0.4708
 9322SOL    HW129973   6.445   1.951   2.264 -1.0631 -1.4504  0.6028
 9322SOL    HW229974   6.443   2.101   2.284  0.1658 -1.4684  0.9053
 9323SOL     OW29975   9.050   2.695   4.455 -0.4838  0.7496 -0.0452
 9323SOL    HW129976   9.120   2.679   4.391  0.0408  0.5009  0.5792
 9323SOL    HW229977   8.995   2.617   4.451 -0.4013  0.6953 -0.1231
 9324SOL     OW29978   3.405   2.896   7.988  0.2015 -0.2012  0.5365
 9324SOL    HW129979   3.324   2.945   7.999 -0.3694 -0.5806 -1.5172
 9324SOL    HW229980   3.427   2.865   8.076 -1.7956  0.0289  1.1588
 9325SOL     OW29981   4.341  11.050   2.130 -0.3566 -0.1350  0.5338
 9325SOL    HW129982   4.251  11.039   2.161 -0.4970  1.2195  0.6774
 9325SOL    HW229983   4.347  10.993   2.053 -1.3824 -0.1460  0.4455
 9326SOL     OW29984   9.632   4.337  11.045  0.4600 -0.2159  0.2171
 9326SOL    HW129985   9.723   4.330  11.016  1.1828  0.3106  2.1489
 9326SOL    HW229986   9.637   4.389  11.125 -1.3970 -1.2023  1.0446
 9327SOL     OW29987   7.447   0.078   1.989 -0.6679 -0.1770 -0.0675
 9327SOL    HW129988   7.428   0.171   2.002  4.4231  1.0001  1.6079
 9327SOL    HW229989   7.495   0.075   1.906  2.1745 -0.5299  1.4717
 9328SOL     OW29990   0.013   0.700   4.628 -0.4000 -0.5819 -0.5774
 9328SOL    HW129991  -0.074   0.661   4.621 -1.1096  0.7923  0.2251
 9328SOL    HW229992   0.066   0.633   4.670 -0.9441 -1.6038 -1.4769
 9329SOL     OW29993   4.159   9.355   7.131 -0.0597 -0.4527  0.0182
 9329SOL    HW129994   4.166   9.366   7.037  1.1216 -0.9985  0.0229
 9329SOL    HW229995   4.192   9.438   7.167  1.8556 -1.1214 -0.0482
 9330SOL     OW29996   6.434   2.016   4.180  0.0142 -0.3164 -0.1836
 9330SOL    HW129997   6.458   2.017   4.272 -0.3621 -0.0790 -0.0847
 9330SOL    HW229998   6.421   1.924   4.159 -1.9219 -0.2722  0.5467
 9331SOL     OW29999   9.337   3.247   3.353  0.4094 -0.2049  0.5353
 9331SOL    HW130000   9.320   3.194   3.431 -0.7666  1.2324  1.3241
 9331SOL    HW230001   9.276   3.215   3.287 -0.0260 -0.1030  0.8833
 9332SOL     OW30002   5.754   2.816  10.526 -0.0147  0.5858 -0.1400
 9332SOL    HW130003   5.682   2.781  10.475  0.1144  2.0312 -1.3875
 9332SOL    HW230004   5.744   2.777  10.613 -0.4979 -1.5777 -1.1180
 9333SOL     OW30005   8.461   6.819   5.935 -0.0293  0.2069 -0.4685
 9333SOL    HW130006   8.476   6.913   5.935 -0.4447  0.3506  2.2071
 9333SOL    HW230007   8.366   6.809   5.928 -0.0755  0.0607  0.2430
 9334SOL     OW30008   3.963   3.719   4.533  0.2274  0.8004 -0.2276
 9334SOL    HW130009   4.041   3.762   4.568  0.2425 -0.8737  1.9957
 9334SOL    HW230010   3.913   3.790   4.493  0.2798  2.9866  3.1875
 9335SOL     OW30011   4.509  10.914   3.665 -0.2618  0.3912 -0.6594
 9335SOL    HW130012   4.423  10.882   3.639 -0.0470 -0.0642 -0.8278
 9335SOL    HW230013   4.524  10.990   3.609 -0.3522  0.1882 -0.9629
 9336SOL     OW30014   8.498   6.638   4.184  0.4026 -0.0402  0.2553
 9336SOL    HW130015   8.493   6.555   4.232  0.1725 -0.5979 -0.7129
 9336SOL    HW230016   8.456   6.701   4.242 -1.8109 -1.1050 -0.0776
 9337SOL     OW30017   6.935   3.930   9.846  0.0852 -0.4703 -0.2827
 9337SOL    HW130018   6.972   3.983   9.776  0.1878  0.8932  0.7557
 9337SOL    HW230019   6.845   3.961   9.855 -0.4592 -1.7775 -0.8692
 9338SOL     OW30020   2.077   9.141   0.148 -0.0573 -0.0208 -0.5931
 9338SOL    HW130021   2.142   9.126   0.079 -0.8778 -0.2974 -1.3192
 9338SOL    HW230022   2.022   9.063   0.147  1.0122 -0.8622  1.6350
 9339SOL     OW30023   5.815   2.363   9.475 -0.2643  0.2847  0.9870
 9339SOL    HW130024   5.754   2.340   9.404 -0.1708  0.9670  0.6772
 9339SOL    HW230025   5.889   2.403   9.430  0.5809 -0.8429  1.3291
 9340SOL     OW30026   2.915   3.680   2.057 -0.2403 -0.0570 -0.1233
 9340SOL    HW130027   2.905   3.775   2.060 -1.3023 -0.1102 -1.1889
 9340SOL    HW230028   2.973   3.665   1.982  0.0999 -0.2427  0.1741
 9341SOL     OW30029   3.373   5.527   6.745 -0.4039  0.0822  0.0497
 9341SOL    HW130030   3.353   5.534   6.652  1.5888  1.4160 -0.3608
 9341SOL    HW230031   3.457   5.481   6.749 -0.9111 -0.8003  1.2678
 9342SOL     OW30032  10.760   2.322   8.185  0.2697 -0.0157 -0.1286
 9342SOL    HW130033  10.743   2.342   8.277  1.0742 -1.9852  0.4997
 9342SOL    HW230034  10.673   2.321   8.144 -0.3107 -1.1169  1.0680
 9343SOL     OW30035   0.561   8.332   4.819 -0.4112 -0.0404  0.2018
 9343SOL    HW130036   0.634   8.366   4.767 -0.8851 -0.5857 -0.8541
 9343SOL    HW230037   0.514   8.411   4.847  0.6561  0.3274  1.0439
 9344SOL     OW30038  10.055   8.344   5.869 -0.0203 -0.3482 -0.6925
 9344SOL    HW130039  10.042   8.333   5.775  0.5779 -1.5724 -0.6539
 9344SOL    HW230040  10.047   8.255   5.905  0.1578  0.0491  0.3592
 9345SOL     OW30041   4.815   4.208   4.427 -0.0613  0.3083 -0.8660
 9345SOL    HW130042   4.866   4.156   4.490  0.5766  0.6292 -1.1178
 9345SOL    HW230043   4.726   4.205   4.462 -0.0925 -1.1666 -1.0043
 9346SOL     OW30044   4.535   9.835   8.111  0.0313 -0.1974  0.7133
 9346SOL    HW130045   4.485   9.899   8.162 -1.2114 -1.3417  1.0084
 9346SOL    HW230046   4.602   9.803   8.172 -0.0039  0.0758  0.8971
 9347SOL     OW30047   1.365   8.991   7.517  0.0501 -0.2625 -0.2062
 9347SOL    HW130048   1.428   8.956   7.455 -0.1337 -0.5055 -0.2540
 9347SOL    HW230049   1.410   9.066   7.557  1.1095 -1.5319  1.1285
 9348SOL     OW30050   6.795   9.398  10.685  0.8376 -0.7255  0.1764
 9348SOL    HW130051   6.878   9.407  10.733  0.9769  1.0915 -0.3274
 9348SOL    HW230052   6.817   9.419  10.594 -0.3586  1.0738  0.2441
 9349SOL     OW30053   0.953   5.698   4.513  0.3802 -0.0787 -0.4455
 9349SOL    HW130054   1.016   5.641   4.468  0.0808  0.5190 -1.6573
 9349SOL    HW230055   0.902   5.738   4.443 -1.9018 -1.1308  0.5285
 9350SOL     OW30056   7.138   2.960   0.105  0.1594 -0.3293 -0.2686
 9350SOL    HW130057   7.179   2.905   0.171  0.1883  0.2476  0.1991
 9350SOL    HW230058   7.208   3.019   0.077 -0.6878  1.6984  1.6379
 9351SOL     OW30059   5.403   0.260   1.155  0.4353  0.3107 -0.4420
 9351SOL    HW130060   5.490   0.285   1.185  1.2227 -1.7837 -0.7857
 9351SOL    HW230061   5.417   0.230   1.065 -0.7461  0.4240 -0.6758
 9352SOL     OW30062   7.884   6.033   1.345  0.5259 -0.7898  0.6087
 9352SOL    HW130063   7.828   5.956   1.341  2.0342 -1.8988 -0.4466
 9352SOL    HW230064   7.830   6.104   1.310 -0.6427 -1.5193  0.8896
 9353SOL     OW30065   1.086   6.168   5.598 -0.1746  0.2597 -0.5572
 9353SOL    HW130066   1.061   6.152   5.507 -1.0991 -0.1462 -0.2447
 9353SOL    HW230067   1.018   6.124   5.650  0.8387 -0.3160  0.3341
 9354SOL     OW30068   7.155   8.939   2.960  0.1180 -0.4962  0.1657
 9354SOL    HW130069   7.121   8.850   2.960 -0.8757 -0.1270 -0.0788
 9354SOL    HW230070   7.240   8.932   3.003 -0.5981 -1.3185  1.4983
 9355SOL     OW30071   8.621   4.128   8.297  0.3972  0.0823 -0.3701
 9355SOL    HW130072   8.616   4.167   8.384  0.3994 -0.6723 -0.0224
 9355SOL    HW230073   8.536   4.087   8.284  0.8062 -0.8397 -0.2145
 9356SOL     OW30074   9.395   2.031   1.216 -0.0236  0.8278  0.3167
 9356SOL    HW130075   9.356   2.090   1.281  0.9907 -1.4494  3.2157
 9356SOL    HW230076   9.489   2.048   1.223  0.0524  1.3877 -1.5403
 9357SOL     OW30077   8.951   4.763   8.534 -0.2039  0.1787 -0.2335
 9357SOL    HW130078   8.995   4.714   8.603  0.3612 -1.9826 -2.0145
 9357SOL    HW230079   8.860   4.769   8.563  0.2374  0.4271  1.2188
 9358SOL     OW30080   0.872   2.434   7.307 -0.1543 -0.1038 -0.2594
 9358SOL    HW130081   0.808   2.495   7.344  1.3877  1.3788  0.0843
 9358SOL    HW230082   0.957   2.473   7.326  0.8820 -1.9512 -0.8034
 9359SOL     OW30083   4.450   2.408   5.873 -0.1263  0.6360  0.0538
 9359SOL    HW130084   4.436   2.341   5.805 -0.3465 -0.6475  1.3075
 9359SOL    HW230085   4.425   2.490   5.831  0.5725  0.0045 -1.6844
 9360SOL     OW30086   0.736   0.031   4.335 -0.0042  0.1177 -0.2892
 9360SOL    HW130087   0.773  -0.018   4.408 -0.9394 -0.7011 -0.3482
 9360SOL    HW230088   0.786   0.113   4.333  3.2829 -1.7644 -1.7508
 9361SOL     OW30089   9.356   5.346   8.326 -0.0161 -0.2018 -0.1986
 9361SOL    HW130090   9.360   5.285   8.253 -0.7680  0.9502 -1.2326
 9361SOL    HW230091   9.415   5.418   8.301 -0.9216  0.6068 -0.0900
 9362SOL     OW30092   9.202   3.106   9.963  0.1905 -0.1980 -0.4307
 9362SOL    HW130093   9.288   3.065   9.970  0.1548 -0.1400  0.4403
 9362SOL    HW230094   9.142   3.033   9.952  0.3675 -0.2249 -1.2945
 9363SOL     OW30095   6.639   0.512   6.461 -0.0798 -0.0842  0.0041
 9363SOL    HW130096   6.649   0.532   6.555 -1.4537  0.7450 -0.0068
 9363SOL    HW230097   6.669   0.591   6.417  2.0354 -1.0118 -0.3642
 9364SOL     OW30098   4.797   0.442   9.509  0.4125  0.5384  0.3311
 9364SOL    HW130099   4.810   0.536   9.495 -0.4530  0.3985 -1.5873
 9364SOL    HW230100   4.776   0.435   9.602 -0.5940  2.3662  0.2823
 9365SOL     OW30101   6.134   4.487  11.093 -0.4366  0.3445  0.0309
 9365SOL    HW130102   6.210   4.515  11.041  0.9012  0.1901  1.8278
 9365SOL    HW230103   6.091   4.422  11.038  2.7987 -2.2862  0.3462
 9366SOL     OW30104   3.917   2.058   5.254 -0.0797 -1.0487  0.7036
 9366SOL    HW130105   3.859   1.982   5.250  1.0180 -1.9049  0.8625
 9366SOL    HW230106   3.875   2.116   5.317 -1.6409 -0.8872 -0.4164
 9367SOL     OW30107   7.977   3.433   0.856 -0.2221  0.7122  0.3365
 9367SOL    HW130108   7.968   3.526   0.878  2.4260  0.8967  1.0184
 9367SOL    HW230109   8.047   3.432   0.790  2.6480 -0.9792  3.1271
 9368SOL     OW30110  10.751   4.879   4.835 -0.4356  0.1981  0.1788
 9368SOL    HW130111  10.771   4.864   4.743 -0.9943  0.5680 -0.0081
 9368SOL    HW230112  10.733   4.973   4.841  0.8010  0.4216  0.8993
 9369SOL     OW30113   0.200   6.386   3.684  0.3567 -0.3489 -0.0876
 9369SOL    HW130114   0.242   6.328   3.747 -0.4382 -0.2508  0.5521
 9369SOL    HW230115   0.255   6.381   3.606  0.8266 -1.2111  0.2897
 9370SOL     OW30116   0.885   6.409   4.093 -0.4601  0.0034 -0.1557
 9370SOL    HW130117   0.949   6.430   4.025 -1.0088  0.5308 -0.5157
 9370SOL    HW230118   0.844   6.493   4.114  0.2118 -0.0124  1.3732
 9371SOL     OW30119   0.338   3.794   5.797 -0.0917  0.0587 -0.2424
 9371SOL    HW130120   0.334   3.733   5.871  0.5300  0.3542  0.0463
 9371SOL    HW230121   0.412   3.851   5.818 -0.5653  0.8051 -0.5993
 9372SOL     OW30122   3.882  10.205   7.389 -0.2402  0.0359 -0.2800
 9372SOL    HW130123   3.814  10.257   7.347 -0.5627 -0.4519 -0.3796
 9372SOL    HW230124   3.838  10.164   7.463  0.2990  0.8121  0.4896
 9373SOL     OW30125   0.386   0.681   8.251  0.2923  0.4025 -0.3886
 9373SOL    HW130126   0.337   0.613   8.206  0.0129  0.6675 -0.4896
 9373SOL    HW230127   0.390   0.754   8.188  0.5541  0.4955 -0.2691
 9374SOL     OW30128   1.682  10.150   7.676  0.1571  0.2627  0.6753
 9374SOL    HW130129   1.680  10.100   7.594  1.0612  2.1455 -0.5806
 9374SOL    HW230130   1.762  10.121   7.720 -0.0216 -0.3387  0.5994
 9375SOL     OW30131   9.282   3.288   0.046  0.5565 -0.0756  0.5202
 9375SOL    HW130132   9.260   3.208   0.093  1.7762  0.4139  2.0262
 9375SOL    HW230133   9.321   3.259  -0.036 -0.9794 -0.9723  0.0686
 9376SOL     OW30134   4.396   6.669   2.877  0.4894 -0.2811  0.9615
 9376SOL    HW130135   4.481   6.694   2.914  1.1460 -1.5973  0.4088
 9376SOL    HW230136   4.339   6.744   2.894  1.9855  0.9835  0.5672
 9377SOL     OW30137   4.996   7.552   6.073  0.0822  0.0562  0.0799
 9377SOL    HW130138   5.071   7.514   6.027  0.0078 -0.6330  0.5184
 9377SOL    HW230139   4.987   7.639   6.035 -0.6073 -0.8406 -1.9813
 9378SOL     OW30140   4.561   2.543   2.844  0.0355  0.0012  0.4790
 9378SOL    HW130141   4.501   2.535   2.919 -0.4759  1.0458  0.1959
 9378SOL    HW230142   4.640   2.495   2.872 -0.8560 -1.2818  0.9122
 9379SOL     OW30143   9.168   8.663   3.680 -0.0583  0.2620 -0.1472
 9379SOL    HW130144   9.247   8.668   3.627  0.4911  1.4197  0.7358
 9379SOL    HW230145   9.177   8.734   3.744 -1.8993  0.5493 -0.1445
 9380SOL     OW30146   9.288   0.121  10.352  0.5916 -0.2496 -0.3564
 9380SOL    HW130147   9.244   0.104  10.435  0.2630  0.5355 -0.3666
 9380SOL    HW230148   9.356   0.053  10.347  0.3133 -0.5882  0.3279
 9381SOL     OW30149   2.877   2.579   7.694 -0.2902  0.1806  0.3196
 9381SOL    HW130150   2.956   2.547   7.737  0.1717  1.4893  0.5007
 9381SOL    HW230151   2.822   2.502   7.683  0.7765 -0.6545  0.7008
 9382SOL     OW30152   7.352   4.272  10.418  0.7094 -0.1577  0.7179
 9382SOL    HW130153   7.399   4.348  10.453 -0.4489 -0.4084  3.0012
 9382SOL    HW230154   7.291   4.309  10.354 -0.8270  1.1104  2.7999
 9383SOL     OW30155   5.199   4.845   7.759  0.3732 -0.0818 -0.2647
 9383SOL    HW130156   5.217   4.921   7.703  0.3056  0.4995  0.4835
 9383SOL    HW230157   5.197   4.881   7.848  0.9865 -1.0719  0.1639
 9384SOL     OW30158   9.821   3.022   1.390  0.5979  0.3025 -0.0195
 9384SOL    HW130159   9.842   3.105   1.348 -1.8883  0.0131 -2.0725
 9384SOL    HW230160   9.758   3.044   1.458 -1.0501  0.0656 -1.3958
 9385SOL     OW30161   1.862   3.647   7.723  0.2351  0.2820 -0.7629
 9385SOL    HW130162   1.813   3.566   7.710 -0.3551  0.1742  1.5834
 9385SOL    HW230163   1.815   3.713   7.672 -0.5063 -0.4548 -1.0455
 9386SOL     OW30164   7.575   9.981   2.364  0.2859  0.5773  0.1536
 9386SOL    HW130165   7.569  10.064   2.316  0.5773  0.1019 -0.7249
 9386SOL    HW230166   7.484   9.956   2.380  0.2007  1.2777  0.8081
 9387SOL     OW30167   9.126   5.122   8.167  0.0348  0.0465 -0.5088
 9387SOL    HW130168   9.211   5.157   8.141  0.2231  0.4826  0.6147
 9387SOL    HW230169   9.145   5.036   8.204 -0.0590  0.0078 -0.5491
 9388SOL     OW30170   3.598   6.513   7.731  0.2689  0.1392  0.0747
 9388SOL    HW130171   3.660   6.577   7.697  2.4171 -1.7050  0.2556
 9388SOL    HW230172   3.653   6.444   7.768 -1.9508 -0.8216  1.7791
 9389SOL     OW30173   2.430   1.731   4.574  0.1829  0.6232 -0.9039
 9389SOL    HW130174   2.512   1.700   4.535  0.1952  1.4463 -1.5645
 9389SOL    HW230175   2.438   1.826   4.573 -0.2032  0.6861  0.3124
 9390SOL     OW30176   9.967   9.260   3.600 -0.0820 -0.2769 -0.0188
 9390SOL    HW130177   9.939   9.251   3.691  0.7267  0.2857  0.2999
 9390SOL    HW230178   9.899   9.313   3.559  0.4918  1.1243  0.7591
 9391SOL     OW30179   6.490   8.605   8.266 -0.0959 -0.3290  0.0979
 9391SOL    HW130180   6.421   8.636   8.323  0.7171 -0.1327  0.9945
 9391SOL    HW230181   6.460   8.520   8.235 -0.4116 -0.5649  1.0490
 9392SOL     OW30182   4.814  11.039   2.475  0.0774 -0.7882 -0.0150
 9392SOL    HW130183   4.826  10.944   2.471  1.2265 -0.6218 -1.7573
 9392SOL    HW230184   4.895  11.072   2.515  0.4557 -0.4607 -0.9993
 9393SOL     OW30185  10.308   1.139   8.613  0.1449  0.2270  0.6617
 9393SOL    HW130186  10.243   1.175   8.673 -0.5233 -0.6663  0.4869
 9393SOL    HW230187  10.301   1.044   8.624  0.0178  0.0413 -0.8032
 9394SOL     OW30188  10.337   5.700   7.674 -0.8183 -0.9325  0.4004
 9394SOL    HW130189  10.425   5.727   7.700 -1.5724 -0.2491  2.3685
 9394SOL    HW230190  10.304   5.775   7.623 -1.0254 -0.2520  1.4992
 9395SOL     OW30191   8.335   9.741   3.440  0.1592 -0.2632 -0.6962
 9395SOL    HW130192   8.378   9.660   3.468 -0.2135  0.0191  0.7367
 9395SOL    HW230193   8.280   9.713   3.366  1.1287 -1.0240 -1.1690
 9396SOL     OW30194   0.716  10.441   3.700 -0.3411  0.1692  0.4130
 9396SOL    HW130195   0.672  10.481   3.775  1.3730 -0.0025  1.5744
 9396SOL    HW230196   0.737  10.514   3.642  0.6882  0.7014  1.4119
 9397SOL     OW30197   9.026   1.855   4.818  0.2461 -0.5419  0.0185
 9397SOL    HW130198   8.941   1.814   4.804 -0.2411  1.0078 -2.2260
 9397SOL    HW230199   9.090   1.786   4.799 -0.4772 -1.6427  1.4464
 9398SOL     OW30200   7.670   0.645   5.420  0.7431 -0.1614 -0.5295
 9398SOL    HW130201   7.718   0.614   5.343  1.8069  1.6259 -0.6296
 9398SOL    HW230202   7.587   0.596   5.417  0.7742 -0.1931 -2.7647
 9399SOL     OW30203   1.157   5.675   5.165 -0.8345 -0.0471 -0.2286
 9399SOL    HW130204   1.237   5.712   5.128 -0.9653  1.1594  0.6489
 9399SOL    HW230205   1.184   5.592   5.204 -0.2505 -0.2061 -0.9423
 9400SOL     OW30206   4.203   8.996   1.737 -0.0762  0.3130  0.0038
 9400SOL    HW130207   4.124   9.002   1.790 -0.2902 -0.6275 -0.1835
 9400SOL    HW230208   4.186   8.922   1.678  0.3727  0.9900 -0.9925
 9401SOL     OW30209   0.297   9.866   0.454  0.0309 -0.1523 -0.4049
 9401SOL    HW130210   0.343   9.848   0.536 -2.1505  0.2126  0.9616
 9401SOL    HW230211   0.285   9.780   0.414  0.3592 -0.4229  0.0656
 9402SOL     OW30212   6.561   0.223   7.160  0.0731 -0.0922 -0.0099
 9402SOL    HW130213   6.553   0.153   7.224 -1.4372  1.3539  1.4840
 9402SOL    HW230214   6.471   0.242   7.134  0.4878  0.9485 -0.7737
 9403SOL     OW30215   0.266   4.896   3.580  0.5038  0.8257  0.2292
 9403SOL    HW130216   0.176   4.911   3.608  0.3627  0.9740 -0.2876
 9403SOL    HW230217   0.308   4.982   3.584  0.4930  0.8406  0.0219
 9404SOL     OW30218   7.035   1.993   4.903 -0.9030  0.2191  0.5431
 9404SOL    HW130219   7.009   2.046   4.827  0.5438 -1.0647 -0.9344
 9404SOL    HW230220   6.969   1.923   4.906 -0.2301 -0.4891 -0.4142
 9405SOL     OW30221   7.999   7.809   4.529 -0.0084 -0.6082 -0.1042
 9405SOL    HW130222   8.062   7.817   4.600  0.0345  1.0607 -0.2978
 9405SOL    HW230223   7.922   7.768   4.570  0.1039  0.1128  0.8547
 9406SOL     OW30224   0.516   1.981   6.890  0.1440 -0.3345 -0.5719
 9406SOL    HW130225   0.531   2.072   6.916 -2.5146 -0.3445  1.4255
 9406SOL    HW230226   0.540   1.929   6.966  0.7822 -1.2748 -1.3831
 9407SOL     OW30227  10.983   4.817   7.454 -0.0511 -0.3232  0.0790
 9407SOL    HW130228  10.978   4.721   7.447 -1.1375 -0.2043 -1.2548
 9407SOL    HW230229  11.076   4.836   7.456  0.2045 -1.3559 -0.8135
 9408SOL     OW30230   0.634   3.364   9.242  0.3502 -0.4507  0.6591
 9408SOL    HW130231   0.728   3.373   9.224  0.2111 -0.1225  0.0810
 9408SOL    HW230232   0.629   3.356   9.337  1.0635 -1.7576  0.6055
 9409SOL     OW30233   2.017   2.428   6.500 -0.0316 -0.1005  0.2429
 9409SOL    HW130234   2.019   2.354   6.440 -0.7852 -0.7579  0.9952
 9409SOL    HW230235   1.924   2.443   6.517  0.1578  0.2434  1.0339
 9410SOL     OW30236   2.563   0.902   8.663 -0.1071 -0.1382 -0.3548
 9410SOL    HW130237   2.644   0.887   8.615  0.3784  0.3633  0.2838
 9410SOL    HW230238   2.546   0.995   8.653 -2.2915 -0.7100 -3.0442
 9411SOL     OW30239   9.963   2.479   1.159  0.1359 -0.0636 -0.3911
 9411SOL    HW130240  10.023   2.506   1.089  0.7869  0.4037  0.3282
 9411SOL    HW230241   9.997   2.522   1.238 -0.3924 -0.8433  0.2799
 9412SOL     OW30242   7.034   7.688   0.994  0.5206 -0.1471 -0.6700
 9412SOL    HW130243   7.122   7.724   1.006  0.3172  0.9800 -2.1800
 9412SOL    HW230244   7.047   7.594   0.986  1.5285 -0.0440 -0.3702
 9413SOL     OW30245   0.963   8.748   2.500 -0.3060 -0.4415 -0.2830
 9413SOL    HW130246   1.004   8.786   2.423 -1.1059 -1.5293 -1.2847
 9413SOL    HW230247   1.027   8.760   2.570  0.3049  0.8473 -1.0267
 9414SOL     OW30248   3.792  10.686   7.101  0.1697 -0.0336 -0.2654
 9414SOL    HW130249   3.801  10.680   7.197  0.6775  1.1951 -0.2241
 9414SOL    HW230250   3.732  10.614   7.079 -3.6717  2.2644  1.5314
 9415SOL     OW30251   0.299   1.784   4.309 -0.0546 -0.1085 -0.4005
 9415SOL    HW130252   0.328   1.832   4.231  1.0657 -1.5075 -0.9039
 9415SOL    HW230253   0.379   1.773   4.361 -0.3145 -1.2135 -0.2080
 9416SOL     OW30254  10.734   5.884   2.110  0.2967 -0.6983  0.3400
 9416SOL    HW130255  10.646   5.915   2.129  0.5389  0.3065 -0.0965
 9416SOL    HW230256  10.776   5.958   2.066  0.0470 -2.4896 -3.2868
 9417SOL     OW30257   4.110   1.521   4.103  0.2894  0.0415 -0.5722
 9417SOL    HW130258   4.044   1.454   4.118  0.1872 -0.0297 -1.3520
 9417SOL    HW230259   4.178   1.501   4.168 -0.1383 -0.2859 -0.2169
 9418SOL     OW30260   9.441   6.971   6.053 -0.0701  0.1048  0.9344
 9418SOL    HW130261   9.408   7.060   6.040 -1.7499 -0.4865  0.8308
 9418SOL    HW230262   9.407   6.946   6.139  0.5332 -0.3763  1.0349
 9419SOL     OW30263   9.570   3.043   5.677 -0.3256  0.3876 -0.0970
 9419SOL    HW130264   9.538   2.965   5.723 -2.9472  1.4898  0.1500
 9419SOL    HW230265   9.552   3.026   5.584 -1.1658  0.7737 -0.0154
 9420SOL     OW30266   6.810   4.195   9.417 -0.4586  0.2546 -0.0187
 9420SOL    HW130267   6.873   4.166   9.351  2.5315 -1.7411  3.4006
 9420SOL    HW230268   6.734   4.137   9.403  0.6580 -1.0808 -0.8595
 9421SOL     OW30269   0.174   6.577   1.878  0.1062  0.6702 -0.0846
 9421SOL    HW130270   0.257   6.623   1.890  0.5584  0.0357 -0.7510
 9421SOL    HW230271   0.155   6.585   1.784  0.2787 -0.6436 -0.2491
 9422SOL     OW30272   0.194   4.937   7.458 -0.6265 -0.5834 -0.6496
 9422SOL    HW130273   0.178   4.843   7.460 -1.7032 -0.4323 -1.3010
 9422SOL    HW230274   0.250   4.950   7.381  1.6208 -0.9370  0.8081
 9423SOL     OW30275   7.149   7.254   2.776  0.7149 -0.0421 -0.3948
 9423SOL    HW130276   7.083   7.184   2.770  0.1901  0.2600  1.3333
 9423SOL    HW230277   7.120   7.319   2.713 -0.5680  0.0030  0.2106
 9424SOL     OW30278   1.979  10.524   6.711 -0.0990 -0.1316  0.7755
 9424SOL    HW130279   1.981  10.497   6.619  1.7445  1.8462  0.1343
 9424SOL    HW230280   1.891  10.560   6.724  0.2616  1.4984 -0.8920
 9425SOL     OW30281   8.489   1.207   2.037 -0.1407  0.0021 -0.5186
 9425SOL    HW130282   8.538   1.136   1.996  0.6100  0.9596 -1.3306
 9425SOL    HW230283   8.540   1.228   2.115 -1.3876 -1.5910  0.8125
 9426SOL     OW30284   7.267   9.873   9.623 -0.0207  0.1923 -0.0978
 9426SOL    HW130285   7.271   9.937   9.695 -0.7977 -0.5777  0.6533
 9426SOL    HW230286   7.175   9.850   9.617  0.4340 -2.0718  0.7475
 9427SOL     OW30287   0.844   4.583   5.486  0.2321 -0.2754  0.0209
 9427SOL    HW130288   0.782   4.657   5.487 -1.1200 -1.2063 -2.9266
 9427SOL    HW230289   0.913   4.609   5.546 -2.4264  1.3448  2.6726
 9428SOL     OW30290   0.474   9.534   2.722 -0.2496  0.1034 -0.5179
 9428SOL    HW130291   0.411   9.596   2.756 -0.9367 -0.7672 -0.1650
 9428SOL    HW230292   0.424   9.453   2.709  0.9303 -0.8371  0.4762
 9429SOL     OW30293   4.918  10.401   4.745  0.0850 -0.5872  0.0652
 9429SOL    HW130294   4.915  10.496   4.752 -0.9412 -0.6106  0.0330
 9429SOL    HW230295   4.973  10.373   4.818 -0.4686 -0.0275  0.7114
 9430SOL     OW30296   2.970   5.287  10.759 -0.3967 -0.0488 -0.6654
 9430SOL    HW130297   3.015   5.221  10.705  1.3407  0.5005  0.0253
 9430SOL    HW230298   2.939   5.238  10.835 -0.7599 -0.4012 -1.0366
 9431SOL     OW30299   8.680   1.447  10.080 -0.1084 -0.5828 -0.5563
 9431SOL    HW130300   8.713   1.509  10.145 -1.3188 -0.5886  0.0920
 9431SOL    HW230301   8.721   1.364  10.104 -0.9343 -0.6980  0.5514
 9432SOL     OW30302   6.189   1.027   0.462 -0.1670  0.6982  0.1540
 9432SOL    HW130303   6.123   0.976   0.508  0.8358 -1.4472 -0.6118
 9432SOL    HW230304   6.232   0.963   0.404 -0.0476  2.8075 -2.2778
 9433SOL     OW30305   1.823   9.863  10.927 -0.3828 -0.2375  0.7641
 9433SOL    HW130306   1.765   9.794  10.961 -2.4883  2.2792  2.6497
 9433SOL    HW230307   1.809   9.860  10.832 -4.0849  0.4660  1.1154
 9434SOL     OW30308   8.317   2.160   5.745 -0.5147  0.1995 -0.1809
 9434SOL    HW130309   8.393   2.174   5.688  0.1389 -0.2489  0.5713
 9434SOL    HW230310   8.326   2.070   5.776 -1.5472  0.0221 -0.3480
 9435SOL     OW30311   1.739   3.575   5.771 -0.1959 -0.3101  0.1430
 9435SOL    HW130312   1.782   3.490   5.783  0.9098 -0.0012 -1.3103
 9435SOL    HW230313   1.768   3.604   5.684 -1.0412  1.2735  0.3578
 9436SOL     OW30314   7.963   2.726   6.736  0.2370  0.8790  0.0769
 9436SOL    HW130315   8.017   2.798   6.768  1.2203  0.0969  0.2011
 9436SOL    HW230316   7.951   2.745   6.643  1.5941  0.5468 -0.1877
 9437SOL     OW30317   9.925   3.595   1.841 -0.2525  0.2534  0.1732
 9437SOL    HW130318   9.968   3.578   1.757  0.8876  0.8987  0.5971
 9437SOL    HW230319   9.882   3.513   1.864  0.1325 -0.1838 -0.6449
 9438SOL     OW30320   7.186   0.566   1.584  0.1433  0.3076  0.4261
 9438SOL    HW130321   7.199   0.611   1.667  0.1739  1.0886  0.0025
 9438SOL    HW230322   7.129   0.623   1.533  2.2519  1.1792 -1.1127
 9439SOL     OW30323   3.586   7.549   9.528  0.0451  1.0368  0.2511
 9439SOL    HW130324   3.597   7.603   9.449 -2.3436  0.3712 -0.6126
 9439SOL    HW230325   3.545   7.607   9.592  2.6232  1.7897  1.3692
 9440SOL     OW30326   3.359   2.956  10.365  0.1204 -0.3201 -0.3561
 9440SOL    HW130327   3.363   2.881  10.306  0.9860  0.8576 -1.8564
 9440SOL    HW230328   3.277   3.001  10.342 -0.0491 -0.4090  0.0567
 9441SOL     OW30329   2.577   4.684   7.350  0.0141  0.0688 -0.1201
 9441SOL    HW130330   2.633   4.611   7.322  0.8521  1.4331 -2.3128
 9441SOL    HW230331   2.638   4.746   7.390 -0.1376  0.9269 -1.1821
 9442SOL     OW30332   1.155   0.058   4.908 -0.3711 -0.1996  0.2390
 9442SOL    HW130333   1.125   0.121   4.973 -0.4084 -0.4039  0.4216
 9442SOL    HW230334   1.087   0.059   4.840 -1.0917 -1.0672  0.9140
 9443SOL     OW30335   5.614   4.334   6.991 -0.2130  0.6560 -0.6167
 9443SOL    HW130336   5.642   4.358   7.080 -0.3611  1.3671 -0.7581
 9443SOL    HW230337   5.519   4.329   6.996 -0.1983  0.3098 -0.6452
 9444SOL     OW30338   9.634   8.445   7.080  0.1696  0.0248 -0.1982
 9444SOL    HW130339   9.581   8.426   7.002 -0.9449 -1.4394  0.8379
 9444SOL    HW230340   9.643   8.540   7.080 -0.6958  0.1433 -1.5449
 9445SOL     OW30341  10.635   9.705   6.139 -0.1353 -0.3253 -0.1504
 9445SOL    HW130342  10.570   9.757   6.092  1.9776  1.8770 -0.8395
 9445SOL    HW230343  10.681   9.656   6.071  0.5265  0.0279  0.0369
 9446SOL     OW30344   6.285   3.494   7.799 -0.3460  0.3625  0.2734
 9446SOL    HW130345   6.291   3.400   7.784  2.4464  0.5864 -0.6975
 9446SOL    HW230346   6.342   3.510   7.874 -0.0127  1.3574 -0.1682
 9447SOL     OW30347   8.496   5.447   2.315 -0.0063 -0.2472 -0.2207
 9447SOL    HW130348   8.507   5.531   2.271  1.0065 -0.9617 -1.4160
 9447SOL    HW230349   8.477   5.469   2.406  0.1911  1.2625 -0.5252
 9448SOL     OW30350   9.445   6.914   5.404 -0.6968  0.2021 -0.7910
 9448SOL    HW130351   9.392   6.949   5.332  0.4695  0.0486 -1.7468
 9448SOL    HW230352   9.535   6.922   5.374 -0.1876 -0.0172  0.5993
 9449SOL     OW30353  10.560   8.561   6.808  0.4899 -0.0054 -0.7156
 9449SOL    HW130354  10.612   8.553   6.888 -0.4869  0.8862  0.0461
 9449SOL    HW230355  10.551   8.656   6.795 -2.4424 -0.0338  0.2571
 9450SOL     OW30356   1.516   4.136  10.814 -0.1490 -0.1088  0.2736
 9450SOL    HW130357   1.591   4.189  10.785  0.7705 -1.8822 -0.7247
 9450SOL    HW230358   1.555   4.057  10.850 -1.5408 -0.9996 -0.1051
 9451SOL     OW30359   2.617   0.032   6.735  0.0529 -0.4579 -0.0816
 9451SOL    HW130360   2.611   0.105   6.796 -1.4500  0.0708 -0.7844
 9451SOL    HW230361   2.693   0.052   6.681  1.3954 -0.9333  1.5717
 9452SOL     OW30362   1.724   5.680   0.566 -0.4639  0.0343 -0.2971
 9452SOL    HW130363   1.767   5.757   0.604  0.7836  0.1098 -1.7419
 9452SOL    HW230364   1.680   5.714   0.488 -0.7582 -0.5499 -0.3896
 9453SOL     OW30365   0.276   1.155   1.435 -0.3734 -0.6668 -0.0044
 9453SOL    HW130366   0.351   1.192   1.388 -0.5909 -1.2753 -0.8538
 9453SOL    HW230367   0.224   1.231   1.462 -0.1053 -0.2956 -0.5276
 9454SOL     OW30368  10.673   1.970   9.108 -0.0189 -0.2744 -0.3727
 9454SOL    HW130369  10.695   2.062   9.122 -0.2849 -0.4757  1.8174
 9454SOL    HW230370  10.742   1.921   9.153 -1.1617 -1.0522  0.6250
 9455SOL     OW30371   0.276   9.801   2.206  0.1669  0.3992  0.5068
 9455SOL    HW130372   0.329   9.722   2.191 -1.3574 -0.4869 -0.3979
 9455SOL    HW230373   0.238   9.821   2.121 -0.9839  0.9981  1.1451
 9456SOL     OW30374   1.121   0.308   8.178  0.4639  0.3830 -0.4001
 9456SOL    HW130375   1.046   0.368   8.182  1.1089  1.1389  2.4972
 9456SOL    HW230376   1.192   0.360   8.142  0.3505  0.5242 -0.4192
 9457SOL     OW30377   5.445   7.415   1.870  0.2259 -0.0091 -0.4623
 9457SOL    HW130378   5.504   7.379   1.937 -0.1504 -0.2493 -0.2570
 9457SOL    HW230379   5.386   7.472   1.918 -0.1630 -0.3255 -0.5603
 9458SOL     OW30380   3.806   4.305   4.179  0.0588 -0.1597 -0.6017
 9458SOL    HW130381   3.882   4.356   4.207 -0.5039  0.1152  0.4457
 9458SOL    HW230382   3.749   4.368   4.136 -0.2462 -0.0709 -0.0704
 9459SOL     OW30383   4.341   0.980   7.589  0.5450 -0.4245 -0.1230
 9459SOL    HW130384   4.250   1.005   7.574  1.0704  2.5789  0.8834
 9459SOL    HW230385   4.391   1.033   7.526  1.6358 -2.0333 -0.6799
 9460SOL     OW30386   2.563   2.293   4.269  0.0061 -0.0956  0.3976
 9460SOL    HW130387   2.603   2.233   4.206  0.5900 -0.2436  0.8974
 9460SOL    HW230388   2.592   2.380   4.242 -2.4041  0.2435 -1.5141
 9461SOL     OW30389   4.378   0.586   8.782  0.5157  0.4770 -0.7610
 9461SOL    HW130390   4.310   0.652   8.772 -0.0894 -0.3485 -2.5037
 9461SOL    HW230391   4.350   0.533   8.856  0.0664  1.0631 -0.5038
 9462SOL     OW30392   2.749   1.034   2.016  0.7754  0.1040 -0.6507
 9462SOL    HW130393   2.760   1.084   2.097 -0.1909 -0.5046 -0.1234
 9462SOL    HW230394   2.737   0.944   2.044  0.6067 -0.1439 -1.4860
 9463SOL     OW30395   2.880   4.072   6.508 -0.0662 -0.4878  0.1231
 9463SOL    HW130396   2.836   4.156   6.499 -1.5286 -1.1220  0.9887
 9463SOL    HW230397   2.847   4.036   6.590  1.5019 -1.3573  0.4158
 9464SOL     OW30398   2.326   4.557   7.299  0.2952  0.3890  0.1828
 9464SOL    HW130399   2.343   4.489   7.365  0.7724 -0.0289 -0.3568
 9464SOL    HW230400   2.395   4.622   7.314  0.9778 -0.1611 -0.4914
 9465SOL     OW30401  10.623   9.926   1.499  0.4850 -0.4619 -0.0738
 9465SOL    HW130402  10.604   9.990   1.431  1.0141  0.3812  0.5486
 9465SOL    HW230403  10.716   9.940   1.519  0.4032 -0.8809  0.6175
 9466SOL     OW30404   9.559   1.655   5.705 -0.0621  0.5808 -0.6369
 9466SOL    HW130405   9.632   1.692   5.755 -1.4943  1.3481  1.0067
 9466SOL    HW230406   9.497   1.727   5.695 -1.1656 -0.3641 -0.8763
 9467SOL     OW30407   2.078   7.486   6.384  0.2629  0.1773 -0.3031
 9467SOL    HW130408   2.074   7.450   6.296  0.4982 -1.1959  0.2274
 9467SOL    HW230409   2.006   7.445   6.431  0.1453  0.8856  0.1560
 9468SOL     OW30410   7.249   9.723   8.358 -0.1150  0.3146 -0.2142
 9468SOL    HW130411   7.321   9.663   8.344  0.2899  1.2637 -2.7183
 9468SOL    HW230412   7.170   9.670   8.344  0.0520 -0.5254  1.7167
 9469SOL     OW30413   9.486  10.647   5.106  0.0202  0.1687  0.0045
 9469SOL    HW130414   9.411  10.591   5.123  0.7029 -0.9108 -0.4323
 9469SOL    HW230415   9.485  10.711   5.177 -0.3831 -0.8336  0.9336
 9470SOL     OW30416   2.759   0.803   7.868 -0.2442 -0.0510  0.6837
 9470SOL    HW130417   2.799   0.727   7.826 -0.8941 -1.2405  2.1162
 9470SOL    HW230418   2.814   0.877   7.842  0.5100 -1.0244 -0.6087
 9471SOL     OW30419   0.452   1.329   6.560 -0.6172  0.4627 -0.4520
 9471SOL    HW130420   0.374   1.382   6.546 -0.2080  0.5325 -2.9583
 9471SOL    HW230421   0.523   1.379   6.519 -0.2284 -1.9079 -3.0095
 9472SOL     OW30422  10.502   2.926   4.649  0.0898  0.3725  0.1536
 9472SOL    HW130423  10.557   2.928   4.570  1.1059  0.6508  0.8422
 9472SOL    HW230424  10.521   3.009   4.693  0.0710 -0.0768  1.0319
 9473SOL     OW30425  10.313   3.400  10.028 -0.1497  0.1561 -0.1954
 9473SOL    HW130426  10.395   3.442  10.001  0.4314 -1.4739 -1.0832
 9473SOL    HW230427  10.256   3.407   9.951 -1.1624  1.9095  0.6449
 9474SOL     OW30428  10.232   5.332   6.266  0.0606  0.0259 -0.2944
 9474SOL    HW130429  10.173   5.402   6.295 -0.6370 -0.7765  0.2781
 9474SOL    HW230430  10.245   5.349   6.173 -0.6923  0.5009 -0.3247
 9475SOL     OW30431   7.784   1.295   6.157  0.4179  0.0876 -0.4287
 9475SOL    HW130432   7.795   1.201   6.145  1.7869  0.3289 -1.2444
 9475SOL    HW230433   7.747   1.327   6.075  1.5934  0.4837 -0.8336
 9476SOL     OW30434   6.767   4.944   9.118  0.1558 -0.1241  0.0212
 9476SOL    HW130435   6.803   5.017   9.169 -0.2407  1.1447 -1.4506
 9476SOL    HW230436   6.683   4.925   9.159 -0.5670  1.4765 -0.6539
 9477SOL     OW30437  10.483   5.124   1.155 -0.2505 -0.0254  0.2835
 9477SOL    HW130438  10.406   5.109   1.100  1.7391 -2.1331 -2.1641
 9477SOL    HW230439  10.496   5.041   1.201  0.4641  0.3787  0.8277
 9478SOL     OW30440   8.185   5.282  10.464 -0.0751  0.3195  0.1308
 9478SOL    HW130441   8.142   5.363  10.438  0.2159  0.4768  0.1357
 9478SOL    HW230442   8.127   5.213  10.432 -1.2277  0.5243  1.6705
 9479SOL     OW30443   9.546  10.762   7.567 -0.0110 -0.2915  0.1012
 9479SOL    HW130444   9.635  10.794   7.558 -0.0781  0.0999  0.7408
 9479SOL    HW230445   9.493  10.822   7.515  0.0903 -0.4781 -0.2158
 9480SOL     OW30446   4.124   3.116   6.058 -0.0089 -0.5418  0.1379
 9480SOL    HW130447   4.170   3.179   6.002 -1.7921  0.1383 -0.6224
 9480SOL    HW230448   4.182   3.105   6.133  1.8625 -0.4893 -1.2041
 9481SOL     OW30449   3.551  10.955   2.023 -0.2253 -0.1421 -0.5227
 9481SOL    HW130450   3.548  11.036   1.971 -2.3734  0.8080  0.9518
 9481SOL    HW230451   3.469  10.955   2.072  0.5875 -2.2790  0.9645
 9482SOL     OW30452   6.674   8.220   9.686  0.1359 -0.0152 -0.1639
 9482SOL    HW130453   6.592   8.267   9.673 -0.7918 -2.0368 -2.4556
 9482SOL    HW230454   6.652   8.149   9.746  0.6360  0.3670  0.4822
 9483SOL     OW30455   1.036   4.771   1.503 -0.2873  0.4393 -0.1895
 9483SOL    HW130456   1.098   4.749   1.572  1.9124  0.6651 -1.9743
 9483SOL    HW230457   0.998   4.687   1.477 -0.4594  0.2467  0.6556
 9484SOL     OW30458   9.668   5.745   8.189  0.2448  0.1922 -0.4539
 9484SOL    HW130459   9.679   5.814   8.125 -2.0914  0.7551 -0.3127
 9484SOL    HW230460   9.713   5.777   8.267  1.6369  0.2391 -1.2446
 9485SOL     OW30461   7.390   0.824   8.723 -0.0864  0.8728 -0.3549
 9485SOL    HW130462   7.389   0.781   8.809 -0.8105  0.7934 -0.3945
 9485SOL    HW230463   7.298   0.828   8.698  0.2106 -0.3301 -1.7560
 9486SOL     OW30464   9.415   1.933   3.379  0.1713 -0.2743 -0.0309
 9486SOL    HW130465   9.409   1.838   3.366  0.9286 -0.3540  0.1355
 9486SOL    HW230466   9.343   1.969   3.328  0.4509 -0.8786 -0.8828
 9487SOL     OW30467   4.086   1.309   5.695 -0.2074  0.1641  0.4976
 9487SOL    HW130468   4.049   1.364   5.626 -1.0140 -0.9151  0.0521
 9487SOL    HW230469   4.174   1.344   5.708 -1.1018  2.3364  1.0926
 9488SOL     OW30470   0.859   1.140   4.369 -0.5053 -0.4426 -0.8555
 9488SOL    HW130471   0.779   1.135   4.421  0.2671 -2.7651  0.2734
 9488SOL    HW230472   0.830   1.131   4.278 -1.5481 -1.6273 -0.4413
 9489SOL     OW30473   0.511   7.449   3.327 -0.3524  0.1926  0.4202
 9489SOL    HW130474   0.581   7.391   3.358  0.8995  0.2083 -2.1589
 9489SOL    HW230475   0.449   7.390   3.285  0.1466  0.5335 -0.8302
 9490SOL     OW30476   7.650   2.402   2.197  0.0324 -0.4031  0.9116
 9490SOL    HW130477   7.739   2.372   2.177 -0.8679 -1.4722 -1.9176
 9490SOL    HW230478   7.649   2.493   2.169  0.1514 -0.4962  0.5944
 9491SOL     OW30479  10.512   8.257   8.334 -0.6943 -0.0818 -0.5550
 9491SOL    HW130480  10.426   8.285   8.364 -0.7490 -0.4509 -0.3705
 9491SOL    HW230481  10.540   8.191   8.397 -0.6848 -0.6519 -1.1520
 9492SOL     OW30482   7.745   2.334   1.868 -0.2122  0.9455 -0.2420
 9492SOL    HW130483   7.766   2.419   1.831 -0.4501  1.3824  0.5930
 9492SOL    HW230484   7.778   2.271   1.804  1.3623  1.6323 -0.1439
 9493SOL     OW30485   8.629   7.495   7.327 -0.0888 -0.7498 -0.4628
 9493SOL    HW130486   8.670   7.485   7.241  1.1438  0.3619 -0.0573
 9493SOL    HW230487   8.684   7.443   7.386  0.3909  0.2232 -0.0178
 9494SOL     OW30488   0.939   9.289   6.274 -0.1484 -0.3216  0.0505
 9494SOL    HW130489   0.915   9.263   6.363  0.9052 -0.6683  0.2400
 9494SOL    HW230490   0.997   9.364   6.286 -2.9596  2.1353 -0.4752
 9495SOL     OW30491   6.990   6.498   9.094 -0.3996 -0.4541 -0.3946
 9495SOL    HW130492   7.054   6.483   9.164 -0.8278  0.3091  0.1782
 9495SOL    HW230493   6.943   6.415   9.086 -1.8346  0.0576  1.7779
 9496SOL     OW30494   9.300   5.622   4.942  0.4412 -0.0174 -0.0347
 9496SOL    HW130495   9.267   5.608   4.854  0.8971 -1.2151 -0.0305
 9496SOL    HW230496   9.230   5.670   4.986  0.1700  0.5046 -1.0081
 9497SOL     OW30497   3.816   8.081   9.317  0.7477  0.0259 -0.1505
 9497SOL    HW130498   3.891   8.134   9.341  0.8339 -0.3959  0.5332
 9497SOL    HW230499   3.777   8.126   9.242  2.4967 -0.4980 -1.4309
 9498SOL     OW30500   2.569   2.525  11.011  0.2894  0.3146 -0.3037
 9498SOL    HW130501   2.609   2.506  10.926  2.9904  0.8160  0.7359
 9498SOL    HW230502   2.613   2.466  11.072 -1.4644  0.0871  0.8105
 9499SOL     OW30503  10.921   4.662   2.757 -0.3232 -0.1011  0.0417
 9499SOL    HW130504  10.861   4.734   2.776 -1.2732  0.0217 -2.8625
 9499SOL    HW230505  10.965   4.644   2.840 -1.9906  2.0178  1.4886
 9500SOL     OW30506   1.316   2.811   8.828  0.6047 -0.3077 -0.0333
 9500SOL    HW130507   1.403   2.801   8.867  1.0535  1.8051 -0.3498
 9500SOL    HW230508   1.259   2.832   8.902  0.5909 -0.5870  0.0345
 9501SOL     OW30509   2.836   2.748   2.747  0.1885 -0.0185  0.1078
 9501SOL    HW130510   2.929   2.770   2.756  0.4270 -1.1061  0.5065
 9501SOL    HW230511   2.797   2.774   2.830  1.1384 -4.0694  2.0760
 9502SOL     OW30512   4.800   6.135   2.455 -0.4062 -0.2159 -0.6844
 9502SOL    HW130513   4.718   6.146   2.408 -1.9080  1.1429  1.9809
 9502SOL    HW230514   4.865   6.181   2.402 -1.7771  0.3676 -1.8997
 9503SOL     OW30515   2.911   2.113   4.775  0.0158 -0.1087  0.0174
 9503SOL    HW130516   2.875   2.058   4.705 -0.5850 -0.2284  0.4073
 9503SOL    HW230517   2.862   2.086   4.853 -0.4859  1.1726  0.1597
 9504SOL     OW30518  10.786   9.822   7.177  0.2918  0.0729  0.7028
 9504SOL    HW130519  10.751   9.817   7.088  2.3871 -1.3483 -0.1293
 9504SOL    HW230520  10.710   9.837   7.232 -1.2738 -0.4438 -1.2010
 9505SOL     OW30521   3.367   4.318   2.484 -0.0772 -0.3045  0.0132
 9505SOL    HW130522   3.286   4.346   2.528 -1.4505 -2.9992 -0.6205
 9505SOL    HW230523   3.435   4.332   2.549 -1.3028  0.5053  1.1741
 9506SOL     OW30524   8.227   2.999   3.889 -0.0758  0.0342  0.4120
 9506SOL    HW130525   8.296   3.046   3.936 -1.1041  0.7707  1.2428
 9506SOL    HW230526   8.252   2.907   3.895  0.7532  0.2771  0.8268
 9507SOL     OW30527   6.039   3.762   0.463  0.1963 -0.4780 -0.6331
 9507SOL    HW130528   6.008   3.842   0.421  1.5676  0.2557 -0.2680
 9507SOL    HW230529   6.036   3.696   0.393 -2.3691 -0.5378 -0.5746
 9508SOL     OW30530   3.868   3.733   7.397  0.2189  0.0265  0.2945
 9508SOL    HW130531   3.859   3.739   7.492 -0.2505  0.5452  0.2237
 9508SOL    HW230532   3.921   3.655   7.382 -0.0631 -0.2943  0.9633
 9509SOL     OW30533  10.348   0.923   6.245  0.0669 -0.2980  1.2530
 9509SOL    HW130534  10.335   0.913   6.339  2.8313 -1.0413  1.6587
 9509SOL    HW230535  10.428   0.975   6.238  0.9731 -1.8349 -0.6319
 9510SOL     OW30536   3.935   4.728   6.465  0.2405 -0.0644  0.0740
 9510SOL    HW130537   3.893   4.728   6.551 -0.0095  1.1746 -0.0325
 9510SOL    HW230538   4.028   4.720   6.483  0.2795  1.2737  0.5321
 9511SOL     OW30539   4.219   1.758   6.005 -0.4773 -0.1059 -0.1649
 9511SOL    HW130540   4.242   1.794   6.091 -0.2396  2.1990 -1.1233
 9511SOL    HW230541   4.301   1.723   5.971 -0.1983  0.5202 -0.1464
 9512SOL     OW30542   1.355  10.644   7.384 -0.4235  0.8923 -0.0212
 9512SOL    HW130543   1.436  10.610   7.424 -0.1975  1.8560  0.3718
 9512SOL    HW230544   1.306  10.682   7.457 -1.4735 -0.1088 -0.1811
 9513SOL     OW30545   6.721   4.413   2.031  0.5486 -0.0544  0.4791
 9513SOL    HW130546   6.631   4.440   2.053  0.9132 -0.2897  2.4439
 9513SOL    HW230547   6.771   4.431   2.111  2.9248  2.8359 -1.4547
 9514SOL     OW30548   2.922  10.492   9.291  0.5597  0.2761  0.0850
 9514SOL    HW130549   2.937  10.451   9.377  0.5685  0.8738  0.3700
 9514SOL    HW230550   2.896  10.581   9.311 -1.0774 -0.0429 -0.4754
 9515SOL     OW30551   5.633   8.608   8.104  0.2303  0.1173 -0.5558
 9515SOL    HW130552   5.641   8.659   8.023  1.5985  1.5332  0.4053
 9515SOL    HW230553   5.686   8.656   8.168 -0.5131 -1.1542  1.0988
 9516SOL     OW30554   3.406  10.653   4.643 -0.2362 -0.0623 -0.2054
 9516SOL    HW130555   3.470  10.673   4.710 -0.3560  0.4332 -0.2341
 9516SOL    HW230556   3.447  10.584   4.590 -0.4320 -0.9878  0.7906
 9517SOL     OW30557   2.361   0.798   6.504  0.0499  0.0707 -0.3676
 9517SOL    HW130558   2.283   0.765   6.548 -0.0210  2.5158  1.5536
 9517SOL    HW230559   2.332   0.877   6.459  1.4726  1.3270  0.8202
 9518SOL     OW30560   0.692   4.596   6.430 -0.1157 -0.3327  0.0406
 9518SOL    HW130561   0.740   4.596   6.347  1.2241 -2.4134  0.7520
 9518SOL    HW230562   0.625   4.529   6.419 -0.0549 -0.4837  0.5861
 9519SOL     OW30563   3.877  10.178   0.506  0.0173 -0.0177  0.0558
 9519SOL    HW130564   3.822  10.254   0.491  0.5019  0.5413  1.0173
 9519SOL    HW230565   3.912  10.190   0.594  0.1165 -1.3482  0.2234
 9520SOL     OW30566   3.300   4.443  10.421 -0.3359  0.3704  0.6853
 9520SOL    HW130567   3.359   4.516  10.440  0.1380 -0.3571  2.1255
 9520SOL    HW230568   3.264   4.418  10.506 -0.9607 -0.6823  0.1298
 9521SOL     OW30569  10.224   8.947   6.371 -0.3042  0.5178  0.2620
 9521SOL    HW130570  10.229   8.856   6.402 -0.0179  1.0966  1.9563
 9521SOL    HW230571  10.300   8.990   6.409  0.9525  0.9708 -2.4591
 9522SOL     OW30572  10.752   6.025   9.917  0.0488 -0.6038  0.5444
 9522SOL    HW130573  10.663   6.059   9.929  0.0398 -0.2310 -0.4776
 9522SOL    HW230574  10.792   6.085   9.854  0.9129 -0.9833  0.7176
 9523SOL     OW30575   5.726   2.475   6.192 -0.0026  0.2305 -0.1222
 9523SOL    HW130576   5.737   2.394   6.143  1.4207  0.8776 -0.9310
 9523SOL    HW230577   5.716   2.446   6.283 -0.4501 -0.8846 -0.5057
 9524SOL     OW30578   7.588  10.536   8.646 -0.0708  0.0050 -0.1659
 9524SOL    HW130579   7.655  10.573   8.589 -1.1035 -1.1626 -2.2594
 9524SOL    HW230580   7.625  10.454   8.677  0.4195  0.5522  0.7272
 9525SOL     OW30581   5.925   7.710   5.130  0.4036 -0.0487  0.4240
 9525SOL    HW130582   5.938   7.628   5.177  0.8543 -0.6369 -0.7009
 9525SOL    HW230583   5.993   7.711   5.063  0.1362  1.0480  0.1457
 9526SOL     OW30584   2.668   7.059   7.335 -0.0464  0.1131 -0.3543
 9526SOL    HW130585   2.678   7.015   7.419  0.2278 -0.0475 -0.4674
 9526SOL    HW230586   2.754   7.049   7.293  0.3348  1.5704  0.0125
 9527SOL     OW30587   5.349   7.108   3.474  0.1290  0.1801  0.5493
 9527SOL    HW130588   5.418   7.128   3.537  0.1656 -0.8683  0.8562
 9527SOL    HW230589   5.273   7.088   3.528 -0.0111 -0.1031  0.2481
 9528SOL     OW30590   4.470   1.283   9.241 -0.0987  0.0729 -0.1753
 9528SOL    HW130591   4.409   1.355   9.255  1.5731  1.1225  2.5747
 9528SOL    HW230592   4.453   1.223   9.315  0.2554 -1.0865 -1.0009
 9529SOL     OW30593  10.612   3.845  10.929  0.6951  0.1717  0.8581
 9529SOL    HW130594  10.622   3.911  10.861 -0.3345 -0.6525 -0.1200
 9529SOL    HW230595  10.697   3.800  10.931  1.2082  1.1324  1.1407
 9530SOL     OW30596   4.001   4.137   0.392  0.3427 -0.3466  0.9840
 9530SOL    HW130597   3.989   4.084   0.471  1.1876 -0.4962  1.0193
 9530SOL    HW230598   4.091   4.120   0.366  0.5375  0.8781  0.8421
 9531SOL     OW30599   4.397   8.816   5.195  0.2303  0.0177  0.3522
 9531SOL    HW130600   4.461   8.754   5.231 -0.0021  0.0264  0.7785
 9531SOL    HW230601   4.448   8.867   5.131  0.9960  0.9027  1.6174
 9532SOL     OW30602  10.241   6.682   6.289 -0.3021 -0.3590 -0.0898
 9532SOL    HW130603  10.258   6.689   6.383  0.2352 -2.4517  0.0373
 9532SOL    HW230604  10.328   6.678   6.250 -0.5211 -0.4481 -0.5661
 9533SOL     OW30605   8.391   9.205   2.532  0.0276 -0.2870 -0.1963
 9533SOL    HW130606   8.320   9.149   2.564 -0.8638  0.8654 -0.0625
 9533SOL    HW230607   8.417   9.167   2.449  1.1251 -2.2903  0.9961
 9534SOL     OW30608   2.789   6.129   6.267 -0.2825  0.0686 -0.3075
 9534SOL    HW130609   2.878   6.105   6.291 -0.2049  0.1192 -0.5393
 9534SOL    HW230610   2.749   6.047   6.237 -1.2132 -0.5762  2.4252
 9535SOL     OW30611   5.129   5.282   1.151 -0.1958  0.2081  0.3646
 9535SOL    HW130612   5.086   5.359   1.112  0.1367 -0.3287 -1.1460
 9535SOL    HW230613   5.059   5.237   1.199 -1.0730 -0.0083 -1.0564
 9536SOL     OW30614   0.594   8.254   3.079  0.6573 -0.1107  0.1532
 9536SOL    HW130615   0.563   8.301   3.157  0.9460  1.5304 -0.6773
 9536SOL    HW230616   0.689   8.248   3.092  0.9260  1.5807 -0.7569
 9537SOL     OW30617   6.325   5.562   1.548  0.1744 -0.0035 -0.3607
 9537SOL    HW130618   6.287   5.493   1.602  1.2767 -0.1458  0.2555
 9537SOL    HW230619   6.326   5.639   1.604 -2.9328  1.1604 -1.6656
 9538SOL     OW30620   4.024   1.202   7.499 -0.0460  0.3146 -0.2367
 9538SOL    HW130621   4.051   1.137   7.564  0.1046  0.7197  0.1150
 9538SOL    HW230622   3.994   1.151   7.424  0.7601 -0.1633 -0.2479
 9539SOL     OW30623   4.129   5.653  10.347 -0.3264  0.0063  0.1370
 9539SOL    HW130624   4.120   5.600  10.267 -0.9084  1.5526 -0.8553
 9539SOL    HW230625   4.063   5.617  10.406 -0.7409 -0.3592 -0.5282
 9540SOL     OW30626  10.600  10.356   8.572 -0.1109 -0.1173 -0.5646
 9540SOL    HW130627  10.641  10.270   8.578  0.2066  0.0789  0.2200
 9540SOL    HW230628  10.655  10.405   8.511  0.3772 -0.1051 -0.1180
 9541SOL     OW30629   1.015   2.735   1.037 -0.7702  0.4752 -0.0453
 9541SOL    HW130630   1.068   2.666   0.998  0.0211 -0.1222  1.9579
 9541SOL    HW230631   0.925   2.704   1.028 -0.5122 -0.2082 -0.3350
 9542SOL     OW30632   0.049   0.157   9.131  0.4172 -0.0011 -0.9429
 9542SOL    HW130633  -0.012   0.202   9.072  0.2739 -0.9907 -1.5859
 9542SOL    HW230634   0.110   0.112   9.072  0.3968 -0.8554 -0.3286
 9543SOL     OW30635   0.047   3.623   0.749  0.5562  0.3778 -0.3027
 9543SOL    HW130636   0.041   3.678   0.670  1.0999 -0.2574 -0.7933
 9543SOL    HW230637   0.085   3.680   0.815  1.2983  0.5366 -0.8621
 9544SOL     OW30638   2.883   9.678   6.534  0.6510  0.1209 -0.2732
 9544SOL    HW130639   2.826   9.633   6.597  0.4692 -2.5022 -2.1390
 9544SOL    HW230640   2.965   9.690   6.581  0.3385 -1.2177  0.6857
 9545SOL     OW30641   2.849   6.087   2.349 -0.1552  0.1814 -0.6259
 9545SOL    HW130642   2.940   6.089   2.375  0.1030  0.7213 -1.5028
 9545SOL    HW230643   2.824   5.995   2.351  0.1912  0.1030  0.3168
 9546SOL     OW30644   9.052   8.773   5.386  0.0955  0.4993  0.1188
 9546SOL    HW130645   9.105   8.707   5.430 -1.0293 -0.3040  0.3038
 9546SOL    HW230646   9.006   8.819   5.456 -1.2186 -0.3643 -0.1478
 9547SOL     OW30647   7.920   0.100   6.776 -0.1932 -0.1956 -0.3167
 9547SOL    HW130648   7.997   0.044   6.772 -2.1200 -2.9951 -0.9836
 9547SOL    HW230649   7.914   0.126   6.868  0.3792 -1.6940  0.1731
 9548SOL     OW30650   1.649   6.484   7.471  0.0239 -0.1904 -0.0527
 9548SOL    HW130651   1.642   6.513   7.381 -1.1244 -0.8459 -0.1955
 9548SOL    HW230652   1.566   6.510   7.511 -0.0084 -1.0429  0.4610
 9549SOL     OW30653   1.138   5.621   6.669  0.2729 -0.1163  0.1222
 9549SOL    HW130654   1.153   5.646   6.578  0.7302  0.1815  0.2725
 9549SOL    HW230655   1.225   5.620   6.708  0.0956 -0.4093  0.5151
 9550SOL     OW30656   2.437   5.101   0.933  0.0272  0.1412 -0.6920
 9550SOL    HW130657   2.470   5.018   0.966  0.8315 -0.4969 -2.9573
 9550SOL    HW230658   2.357   5.117   0.984 -0.2884 -2.1272 -0.3828
 9551SOL     OW30659   0.721  10.650   9.075 -0.0764  0.1439  0.2209
 9551SOL    HW130660   0.816  10.638   9.082  0.0166 -0.5943 -1.6920
 9551SOL    HW230661   0.709  10.699   8.994 -1.4207 -2.3246 -1.2014
 9552SOL     OW30662   7.366   7.472   1.485  0.4249  0.4959  0.2798
 9552SOL    HW130663   7.377   7.518   1.569 -0.6236  1.1825  0.0500
 9552SOL    HW230664   7.346   7.541   1.422 -1.0517 -0.2429 -0.0992
 9553SOL     OW30665   4.566  10.300   5.311  0.0430 -0.3727  0.2273
 9553SOL    HW130666   4.609  10.283   5.395  1.1668  0.2707 -0.1885
 9553SOL    HW230667   4.512  10.223   5.295 -3.0884  0.9822  3.2330
 9554SOL     OW30668   3.336   6.968   2.602  0.2648  0.2361 -0.1928
 9554SOL    HW130669   3.321   6.935   2.691 -0.9750  0.5349 -0.2751
 9554SOL    HW230670   3.402   6.910   2.565  1.1217  0.3656  1.0663
 9555SOL     OW30671   3.984   0.635   5.253 -0.2051 -0.1389 -0.3588
 9555SOL    HW130672   3.982   0.608   5.345  1.2345 -0.9100 -0.5125
 9555SOL    HW230673   3.893   0.656   5.232 -0.3999  1.1558  1.5413
 9556SOL     OW30674   3.800   7.500   5.331  0.5359 -0.1367  0.0488
 9556SOL    HW130675   3.862   7.480   5.261 -0.8351 -1.2963 -0.8843
 9556SOL    HW230676   3.779   7.593   5.318  1.4333  0.0434 -0.1391
 9557SOL     OW30677   5.477   0.875   4.692  0.3153  0.0621  0.8833
 9557SOL    HW130678   5.388   0.840   4.679  0.4766 -1.0996  2.5623
 9557SOL    HW230679   5.534   0.810   4.653  0.4593  1.2440 -1.0164
 9558SOL     OW30680   2.740  10.131   7.921 -0.1123  0.0814 -0.2450
 9558SOL    HW130681   2.716  10.200   7.982  0.1849 -0.6537  0.7353
 9558SOL    HW230682   2.661  10.114   7.870 -0.8435 -0.3674  1.0084
 9559SOL     OW30683   9.327   0.685   6.683 -0.2504  0.5284 -0.1104
 9559SOL    HW130684   9.390   0.652   6.747  0.8788 -0.2750 -1.5788
 9559SOL    HW230685   9.379   0.741   6.625 -1.6302  2.8826  0.7764
 9560SOL     OW30686   3.677   0.774   5.946  0.0510 -0.0299  0.4132
 9560SOL    HW130687   3.669   0.703   6.010 -0.1111  1.3671  2.0120
 9560SOL    HW230688   3.602   0.761   5.887  0.1457 -1.2895  0.5422
 9561SOL     OW30689   5.876   2.926  10.296 -0.1279  0.5547  0.5243
 9561SOL    HW130690   5.886   3.011  10.340  2.8158  0.6031 -0.0634
 9561SOL    HW230691   5.878   2.862  10.367  0.4312  0.8352  0.7647
 9562SOL     OW30692   2.048   3.361   1.441  0.2476 -0.2885 -0.4207
 9562SOL    HW130693   2.092   3.351   1.525  2.7864 -0.5398 -1.6779
 9562SOL    HW230694   2.069   3.281   1.393 -0.3385  0.2605 -1.6336
 9563SOL     OW30695   6.381   6.180   8.354 -0.3778  0.2779  0.4317
 9563SOL    HW130696   6.429   6.102   8.324 -0.5238  1.1554 -2.3279
 9563SOL    HW230697   6.449   6.237   8.391  0.1736  0.0463 -0.2050
 9564SOL     OW30698   3.369   1.980   3.536 -0.6138  0.1131 -0.1716
 9564SOL    HW130699   3.348   2.040   3.464 -1.5875 -1.1633 -0.9980
 9564SOL    HW230700   3.397   2.037   3.607  1.6669  1.3708 -1.9472
 9565SOL     OW30701   2.884   4.694   4.516  0.4587  0.6026  0.3629
 9565SOL    HW130702   2.801   4.671   4.557 -0.3326  0.8675 -1.0231
 9565SOL    HW230703   2.884   4.790   4.512  0.4246  0.5805 -0.4140
 9566SOL     OW30704   6.003  10.657   3.703 -0.0186 -0.1271  0.4958
 9566SOL    HW130705   6.015  10.579   3.650  0.2598 -2.0381  3.1651
 9566SOL    HW230706   5.919  10.643   3.748 -1.1691  2.2782 -0.6888
 9567SOL     OW30707   9.675   8.216   8.945 -0.0155 -0.2981  0.2127
 9567SOL    HW130708   9.637   8.286   8.998  0.1156  1.9734 -2.4768
 9567SOL    HW230709   9.765   8.208   8.978  0.0671  1.0454  0.3508
 9568SOL     OW30710   1.000   7.686   9.255  0.1211  0.0642 -0.2424
 9568SOL    HW130711   1.067   7.617   9.257 -1.1933 -1.2246  1.3545
 9568SOL    HW230712   1.045   7.764   9.288  0.8968 -0.7209  0.5967
 9569SOL     OW30713   5.671   5.377   9.812  0.2185 -0.0718 -0.3235
 9569SOL    HW130714   5.636   5.452   9.762  0.3695  0.6998  0.6894
 9569SOL    HW230715   5.766   5.387   9.806  0.2394 -0.2086 -0.2168
 9570SOL     OW30716   4.008   4.496   4.849  0.4719  0.4340  0.3478
 9570SOL    HW130717   3.993   4.589   4.863 -2.0533 -0.2969  3.5993
 9570SOL    HW230718   3.975   4.480   4.760 -0.1012  2.4188  0.1545
 9571SOL     OW30719   7.377   1.083   1.096  0.0716  0.1938 -0.1934
 9571SOL    HW130720   7.402   1.029   1.021 -2.2271  0.0163 -0.9218
 9571SOL    HW230721   7.451   1.077   1.156  0.2112 -3.2728 -0.5194
 9572SOL     OW30722   4.780   5.216  10.134 -0.7268  0.1749  0.2359
 9572SOL    HW130723   4.710   5.280  10.148 -0.7260  0.2114  0.0715
 9572SOL    HW230724   4.811   5.195  10.222 -1.7024 -0.6774  0.3940
 9573SOL     OW30725  11.059   9.693   7.020 -0.6697  0.5859 -0.2250
 9573SOL    HW130726  11.122   9.749   6.974  0.4226 -1.2351 -1.0504
 9573SOL    HW230727  11.002   9.660   6.951 -1.5080  0.8910  0.3018
 9574SOL     OW30728   8.826   3.582   0.923  0.3393  0.4261 -0.0907
 9574SOL    HW130729   8.745   3.623   0.954 -0.6806 -1.3507 -0.2933
 9574SOL    HW230730   8.846   3.628   0.842 -0.8384  0.4655 -0.3770
 9575SOL     OW30731   2.813   1.840   0.732  0.6869 -0.5214  0.0714
 9575SOL    HW130732   2.757   1.762   0.737  0.8496 -0.5693  1.6833
 9575SOL    HW230733   2.807   1.868   0.641  0.6271 -2.4189 -0.5617
 9576SOL     OW30734   0.781  10.700   5.910  0.0157 -0.2148 -0.6971
 9576SOL    HW130735   0.803  10.610   5.886  1.6322 -0.3731  1.0940
 9576SOL    HW230736   0.855  10.752   5.877 -0.5362  0.3519 -1.0516
 9577SOL     OW30737   2.621   3.378   9.730  0.1862  0.0543  0.6767
 9577SOL    HW130738   2.668   3.454   9.762 -1.8722  0.9690  1.7407
 9577SOL    HW230739   2.566   3.411   9.659 -0.0397 -0.6171  0.5302
 9578SOL     OW30740   2.067   0.037   8.502 -0.0653  0.2319 -0.6189
 9578SOL    HW130741   2.042   0.110   8.559 -0.5390 -0.7392  0.4749
 9578SOL    HW230742   1.984   0.000   8.473  0.1757  0.4967 -1.6792
 9579SOL     OW30743   6.585   4.051   9.349  0.2805 -0.1825 -0.1127
 9579SOL    HW130744   6.547   4.063   9.436  0.0219  0.2808 -0.2846
 9579SOL    HW230745   6.531   3.983   9.308 -0.1052  0.1632 -0.1961
 9580SOL     OW30746   9.583   2.993   7.875 -0.1312 -0.1856  0.1287
 9580SOL    HW130747   9.610   3.036   7.956 -3.0899  1.7512  0.2282
 9580SOL    HW230748   9.496   2.959   7.894 -0.5772 -0.3619 -2.0108
 9581SOL     OW30749   0.846   3.094  10.327  0.0035  0.6704  0.1041
 9581SOL    HW130750   0.855   3.045  10.245  0.1097  0.7495  0.0681
 9581SOL    HW230751   0.757   3.074  10.357  0.6745 -1.0781  1.0793
 9582SOL     OW30752   5.884   3.323   8.995 -0.0149  0.3663  0.6025
 9582SOL    HW130753   5.826   3.284   9.060  2.3231 -2.5522  1.1690
 9582SOL    HW230754   5.959   3.354   9.045  1.3274 -0.9195 -0.5141
 9583SOL     OW30755   3.595   1.596   8.815  0.0228  0.2836 -0.2102
 9583SOL    HW130756   3.659   1.666   8.830  0.6522  0.2807 -2.4692
 9583SOL    HW230757   3.635   1.518   8.851  0.3656  0.6485  0.2164
 9584SOL     OW30758  10.638   1.419   6.530  0.3669  0.1192 -0.0189
 9584SOL    HW130759  10.566   1.478   6.505  0.3401 -0.2098 -0.7075
 9584SOL    HW230760  10.603   1.369   6.603 -0.0442  0.0822 -0.2405
 9585SOL     OW30761   9.522   5.214  10.799  0.0237 -0.6131  0.0703
 9585SOL    HW130762   9.439   5.241  10.837 -0.0978  0.7207 -1.0630
 9585SOL    HW230763   9.498   5.148  10.734 -0.1080 -0.4891 -0.0061
 9586SOL     OW30764  11.081   4.365   9.474 -0.1016 -0.6201  0.3911
 9586SOL    HW130765  11.107   4.417   9.399 -0.8250  0.3887  0.8236
 9586SOL    HW230766  11.031   4.292   9.437 -1.5762  0.5669 -0.0383
 9587SOL     OW30767   9.959  10.425   8.812  0.3277 -0.2377 -0.1374
 9587SOL    HW130768   9.925  10.353   8.758  0.0469 -0.4344  0.3012
 9587SOL    HW230769  10.043  10.391   8.845  1.3454  0.5180 -1.8006
 9588SOL     OW30770   9.239   2.081   8.060 -0.2509  0.2345 -0.0190
 9588SOL    HW130771   9.229   2.176   8.070  0.8172  0.4731 -1.1164
 9588SOL    HW230772   9.171   2.056   7.997  0.2989  0.4781 -0.7149
 9589SOL     OW30773   5.865   3.523   0.585 -0.1246 -0.2964 -0.0179
 9589SOL    HW130774   5.806   3.467   0.533 -0.2289  0.3999 -0.6712
 9589SOL    HW230775   5.920   3.566   0.519  0.2841 -0.0096  0.5116
 9590SOL     OW30776   2.883   8.598   9.892  0.0710 -0.6545  0.6137
 9590SOL    HW130777   2.934   8.552   9.825 -0.0762 -2.6965  1.7942
 9590SOL    HW230778   2.864   8.530   9.957 -1.8476  0.6776  1.5328
 9591SOL     OW30779   5.959   5.515  10.533 -0.2700 -0.4319  0.1325
 9591SOL    HW130780   6.009   5.596  10.523  0.0985 -0.2583  2.6058
 9591SOL    HW230781   5.898   5.515  10.460  0.3253  1.6226 -0.4339
 9592SOL     OW30782   3.156   4.391   5.842  0.3140 -0.2159  0.0020
 9592SOL    HW130783   3.112   4.447   5.906 -0.9757 -0.3626 -0.7383
 9592SOL    HW230784   3.128   4.302   5.865  0.3937 -0.3305 -0.3429
 9593SOL     OW30785   1.962  10.027   6.873 -0.0809  0.1559  0.4317
 9593SOL    HW130786   1.987  10.102   6.819 -0.3275  0.9571  1.4051
 9593SOL    HW230787   2.012  10.038   6.954  0.8910 -1.4611  0.0750
 9594SOL     OW30788   3.928   3.502  10.378  0.1370  0.3093  0.4809
 9594SOL    HW130789   4.011   3.544  10.356 -0.2075  1.2298  0.8628
 9594SOL    HW230790   3.934   3.484  10.472  0.3848 -0.7473  0.2659
 9595SOL     OW30791   6.738   6.499   1.975 -0.3368 -0.0012  0.7791
 9595SOL    HW130792   6.746   6.593   1.992 -0.1658 -0.3195  2.7467
 9595SOL    HW230793   6.821   6.462   2.004 -1.0707 -0.9404  1.7861
 9596SOL     OW30794   7.011   4.578   0.967  0.2556  0.6050 -0.1641
 9596SOL    HW130795   6.986   4.562   0.876  1.3072  0.0990 -0.3800
 9596SOL    HW230796   7.077   4.647   0.962  0.2779  0.6109  0.2124
 9597SOL     OW30797   5.322  10.633   9.521 -0.3348  0.3211 -0.3412
 9597SOL    HW130798   5.354  10.552   9.562 -1.5672 -0.8664 -1.6528
 9597SOL    HW230799   5.390  10.656   9.458 -0.5718 -0.4622 -0.9075
 9598SOL     OW30800   4.349   3.246   3.904  0.2128 -0.2758 -0.1585
 9598SOL    HW130801   4.296   3.326   3.904 -0.0856 -0.4729 -0.3149
 9598SOL    HW230802   4.331   3.205   3.988 -1.4166 -1.3438 -0.9706
 9599SOL     OW30803   3.879   1.212  10.700 -0.0778  0.4599  0.7299
 9599SOL    HW130804   3.805   1.157  10.674 -0.3314  0.6281  1.0811
 9599SOL    HW230805   3.871   1.220  10.795  2.1472 -2.0480  1.2511
 9600SOL     OW30806   1.758   2.711   1.128 -0.1075  0.6552 -0.3749
 9600SOL    HW130807   1.853   2.708   1.125 -0.0391  1.9350  0.0031
 9600SOL    HW230808   1.733   2.632   1.176  0.7726  0.4729 -0.1952
 9601SOL     OW30809   5.824   4.941   1.460 -0.0617 -0.5791  0.1853
 9601SOL    HW130810   5.854   5.030   1.478 -2.2641  0.1509  0.6067
 9601SOL    HW230811   5.729   4.949   1.450 -0.2392 -2.7755 -0.5449
 9602SOL     OW30812   9.651   1.475   0.300 -0.3252  0.2076  0.3527
 9602SOL    HW130813   9.629   1.568   0.306  0.9161  0.7758 -2.3818
 9602SOL    HW230814   9.742   1.470   0.326 -0.4811 -0.3166  0.8163
 9603SOL     OW30815   1.954  10.793   8.620 -0.2432 -0.2598 -0.5328
 9603SOL    HW130816   2.048  10.782   8.632 -0.4692 -1.6125  0.1891
 9603SOL    HW230817   1.919  10.704   8.621 -1.6155  0.2553 -0.1373
 9604SOL     OW30818   5.451   3.626   4.746 -0.2350 -0.4231 -0.0408
 9604SOL    HW130819   5.533   3.636   4.697 -0.2207  1.0869  0.2271
 9604SOL    HW230820   5.449   3.534   4.772  1.3052 -0.5172 -0.1732
 9605SOL     OW30821   9.152   5.711   8.328 -0.8485 -0.1487 -0.3047
 9605SOL    HW130822   9.131   5.792   8.375 -3.1340  0.9370 -2.8892
 9605SOL    HW230823   9.221   5.737   8.267 -0.8522 -0.4138 -0.4211
 9606SOL     OW30824   0.666   7.888   6.399 -0.0506  0.7660  0.2405
 9606SOL    HW130825   0.751   7.849   6.381 -0.0355  1.0469 -0.3092
 9606SOL    HW230826   0.612   7.815   6.429  0.4679  0.6424  0.9064
 9607SOL     OW30827   9.028   0.415   2.539 -0.4538  0.1378  0.1827
 9607SOL    HW130828   9.043   0.380   2.451  0.8875 -0.0856  0.4830
 9607SOL    HW230829   8.946   0.373   2.567 -2.5166  2.3553 -1.9964
 9608SOL     OW30830   2.026   8.542  10.914 -0.4340  0.5922 -0.0971
 9608SOL    HW130831   2.032   8.596  10.993 -2.2096  1.5448 -0.5423
 9608SOL    HW230832   1.961   8.476  10.935 -0.0644  0.1341 -0.3757
 9609SOL     OW30833   3.029   6.879   9.041  0.2631  0.4980  0.1885
 9609SOL    HW130834   3.088   6.907   8.971 -0.8978  0.9953 -0.6156
 9609SOL    HW230835   2.945   6.865   8.998 -0.2064 -0.2688  1.3002
 9610SOL     OW30836   3.200   0.961   1.710  0.0681 -0.4565  0.3551
 9610SOL    HW130837   3.144   0.893   1.748  0.4789  0.3846  2.5820
 9610SOL    HW230838   3.186   1.037   1.765  1.3657  0.5997 -0.7142
 9611SOL     OW30839   2.766   3.433   9.427 -0.4578  0.0682 -0.2471
 9611SOL    HW130840   2.831   3.368   9.453  0.4983  1.1945  0.2742
 9611SOL    HW230841   2.809   3.518   9.440 -2.2653  0.9057  0.8773
 9612SOL     OW30842   6.255   2.272   1.913 -0.3396 -0.2746  0.2704
 9612SOL    HW130843   6.194   2.216   1.865 -0.5592  1.0171 -1.0526
 9612SOL    HW230844   6.205   2.301   1.989 -0.9782 -0.1756 -0.1701
 9613SOL     OW30845   2.691   1.980   7.091  1.2951 -0.4670 -0.3793
 9613SOL    HW130846   2.636   1.952   7.164  2.1517  0.1757  0.5311
 9613SOL    HW230847   2.630   1.991   7.018  0.4219 -1.0768  0.2393
 9614SOL     OW30848   7.894   2.313   5.038 -0.1154 -0.5455 -0.5052
 9614SOL    HW130849   7.963   2.323   4.972  0.0741  0.2627 -0.1918
 9614SOL    HW230850   7.931   2.251   5.101  0.5812  0.3617 -0.0084
 9615SOL     OW30851   0.531   5.844   3.933 -0.0217  0.3849  0.0772
 9615SOL    HW130852   0.556   5.768   3.986 -0.0093  0.3410  0.0074
 9615SOL    HW230853   0.608   5.900   3.935 -0.3141  0.7838  0.8237
 9616SOL     OW30854   8.902  10.236  10.991  0.0823 -0.0794 -0.0170
 9616SOL    HW130855   8.856  10.170  10.940  1.1757 -0.1297 -0.9795
 9616SOL    HW230856   8.902  10.201  11.080 -1.8809  0.0306  0.0611
 9617SOL     OW30857   0.237   9.978   6.667 -0.1466  0.6755  0.3043
 9617SOL    HW130858   0.260  10.066   6.635  0.8668 -0.3602 -2.1049
 9617SOL    HW230859   0.174   9.945   6.603 -0.5305 -0.3633  1.1829
 9618SOL     OW30860   7.864  10.119   5.551 -0.0340  0.3633  0.5545
 9618SOL    HW130861   7.808  10.051   5.514  0.2653  0.8619 -0.9110
 9618SOL    HW230862   7.902  10.163   5.474  0.7755  1.3455  1.4776
 9619SOL     OW30863  10.785   0.004   4.771 -0.3416  1.1643  0.4219
 9619SOL    HW130864  10.853  -0.003   4.839 -0.2198  2.3488  0.4457
 9619SOL    HW230865  10.720  -0.061   4.796 -0.6707  2.0916  2.1463
 9620SOL     OW30866   5.334   8.597  10.893 -0.0270 -0.2030  0.2404
 9620SOL    HW130867   5.409   8.547  10.925 -0.7052 -0.8272  0.9167
 9620SOL    HW230868   5.353   8.613  10.801  1.7564  1.2134  0.8063
 9621SOL     OW30869   6.398   1.389   7.919 -0.1650 -0.2515  0.1302
 9621SOL    HW130870   6.304   1.375   7.913 -0.4659  0.7028  1.8655
 9621SOL    HW230871   6.430   1.316   7.972 -0.0322 -0.2504  0.0511
 9622SOL     OW30872   6.027   6.213   5.903 -0.1820 -0.1775 -0.5474
 9622SOL    HW130873   5.952   6.272   5.914 -1.1610 -1.4378 -0.1876
 9622SOL    HW230874   5.998   6.131   5.943  1.1316 -0.9173 -1.0727
 9623SOL     OW30875   4.247   9.776   8.991  0.0374 -0.4504 -0.0737
 9623SOL    HW130876   4.267   9.686   9.014 -2.7329 -0.6126  2.4031
 9623SOL    HW230877   4.244   9.822   9.075 -0.5075  1.5144 -1.0968
 9624SOL     OW30878   6.339   4.577  10.945 -0.3334 -0.4758 -0.3709
 9624SOL    HW130879   6.351   4.660  10.991  0.7177 -0.6018 -0.4108
 9624SOL    HW230880   6.421   4.562  10.900 -0.4193 -1.6763 -0.1611
 9625SOL     OW30881   8.611   0.377   0.127 -0.3598 -0.1717  0.2519
 9625SOL    HW130882   8.613   0.394   0.221  0.0643  0.2928  0.1637
 9625SOL    HW230883   8.521   0.398   0.102 -0.7574 -1.2653  0.7195
 9626SOL     OW30884   4.517   3.400   8.206 -0.1969 -0.1821  0.1448
 9626SOL    HW130885   4.441   3.369   8.156  0.7047 -0.5073 -1.0648
 9626SOL    HW230886   4.505   3.363   8.293 -1.0242 -0.8714 -0.2504
 9627SOL     OW30887   9.790   9.983   1.763  0.1257  0.2196  0.4222
 9627SOL    HW130888   9.885   9.993   1.762  0.0264  1.1863  0.0138
 9627SOL    HW230889   9.772   9.915   1.698  0.4296  1.0841 -0.5801
 9628SOL     OW30890   9.696   5.288   5.395 -0.3101  0.3350 -0.0723
 9628SOL    HW130891   9.651   5.373   5.396 -2.4424 -0.7122  0.9340
 9628SOL    HW230892   9.733   5.282   5.307  0.2089  2.4347 -0.0508
 9629SOL     OW30893   9.789   8.779   7.959  0.1562  0.4458 -0.5610
 9629SOL    HW130894   9.837   8.810   7.882 -0.8869  1.2394 -0.9312
 9629SOL    HW230895   9.697   8.785   7.933 -0.3875  2.8460  1.4377
 9630SOL     OW30896   5.196   1.197   0.703 -0.5930 -0.1518  0.0390
 9630SOL    HW130897   5.214   1.262   0.635 -0.7575  0.0834  0.2177
 9630SOL    HW230898   5.101   1.192   0.707 -0.6403  1.1335  1.4531
 9631SOL     OW30899  10.921   3.612   3.585  0.2586 -0.1768 -0.3945
 9631SOL    HW130900  10.837   3.649   3.559 -1.6336 -3.1290  0.9548
 9631SOL    HW230901  10.949   3.667   3.659 -1.5896 -0.3320  0.4882
 9632SOL     OW30902   2.860   9.339   4.751  0.3217  0.2845  0.2832
 9632SOL    HW130903   2.913   9.361   4.674  0.8052  0.3585  0.6338
 9632SOL    HW230904   2.775   9.313   4.715  0.0446  1.7854 -0.1989
 9633SOL     OW30905   2.781   0.704   0.840  0.0893  0.1710 -0.1353
 9633SOL    HW130906   2.844   0.708   0.912  0.2112 -0.0927 -0.2257
 9633SOL    HW230907   2.752   0.613   0.838  0.4261  0.0689 -0.7056
 9634SOL     OW30908   4.549   2.472   4.149  0.4751 -0.2619  0.4482
 9634SOL    HW130909   4.626   2.526   4.169 -1.7978  3.7524 -0.4871
 9634SOL    HW230910   4.554   2.457   4.054  0.3517 -0.4133  0.4649
 9635SOL     OW30911   6.237   0.332   4.859 -0.5289  0.4350  0.5131
 9635SOL    HW130912   6.229   0.419   4.820  1.0083  0.6655  0.6372
 9635SOL    HW230913   6.175   0.332   4.932 -0.4086  1.5086  0.6314
 9636SOL     OW30914   3.178   2.771   2.901  0.2508  0.0404 -0.2568
 9636SOL    HW130915   3.175   2.867   2.904  0.4945  0.0478 -0.2663
 9636SOL    HW230916   3.175   2.750   2.807  1.3225  0.0767 -0.3131
 9637SOL     OW30917   1.134   1.699   0.219 -0.4301 -0.2869  0.2213
 9637SOL    HW130918   1.149   1.605   0.207  1.3575  0.1456 -1.4513
 9637SOL    HW230919   1.043   1.705   0.246 -0.8829 -2.4398 -0.5806
 9638SOL     OW30920  10.651  10.365   3.719 -0.1740 -0.7405 -0.2555
 9638SOL    HW130921  10.712  10.421   3.767  0.3760  0.3120 -2.0972
 9638SOL    HW230922  10.672  10.276   3.747 -0.4828 -0.1472  2.0910
 9639SOL     OW30923  10.630   0.077   1.347 -0.0716 -0.6192 -0.0960
 9639SOL    HW130924  10.563   0.028   1.394  0.7533 -0.8025  0.9222
 9639SOL    HW230925  10.647   0.153   1.402  0.5678 -0.5796 -0.3406
 9640SOL     OW30926   7.210   4.391   0.271 -0.4273  0.4155 -0.5487
 9640SOL    HW130927   7.284   4.341   0.238 -0.2734  0.5379 -0.3911
 9640SOL    HW230928   7.241   4.429   0.354 -1.5577 -1.8394  1.0039
 9641SOL     OW30929   2.855   4.999   7.233  0.1965 -0.3477  0.2336
 9641SOL    HW130930   2.778   4.981   7.179  0.6903  1.0463 -1.0006
 9641SOL    HW230931   2.928   4.961   7.185  0.1957 -3.0207  2.1312
 9642SOL     OW30932   5.187   4.236   4.214 -0.1755  0.3291  0.2742
 9642SOL    HW130933   5.115   4.298   4.228 -1.5670 -1.3367  0.8697
 9642SOL    HW230934   5.171   4.202   4.125  0.5992  0.8269 -0.0621
 9643SOL     OW30935   0.999   2.814   9.485  0.6986  0.1501 -0.0846
 9643SOL    HW130936   1.050   2.771   9.554  1.3841 -0.1024 -0.7407
 9643SOL    HW230937   0.971   2.742   9.428  2.3982  0.5805 -1.5587
 9644SOL     OW30938  10.072   4.476   2.076 -0.0786  0.4151 -0.0430
 9644SOL    HW130939  10.059   4.413   2.147  0.9703  0.6675  0.4053
 9644SOL    HW230940  10.155   4.450   2.036 -1.0570 -0.2216 -1.7436
 9645SOL     OW30941   4.908   5.956   2.621 -0.2084 -0.7004 -0.0472
 9645SOL    HW130942   4.992   5.944   2.575  0.6057  0.6957  1.0153
 9645SOL    HW230943   4.856   6.008   2.561  1.1866  1.9273  0.8703
 9646SOL     OW30944   6.555   2.391   5.764 -0.5970  0.1717  0.2148
 9646SOL    HW130945   6.545   2.392   5.859 -2.1407 -1.3262  0.1198
 9646SOL    HW230946   6.493   2.456   5.733 -1.5157 -0.7008  0.1721
 9647SOL     OW30947   9.022   0.929   3.647  0.4944 -0.0323 -0.1711
 9647SOL    HW130948   8.945   0.939   3.591 -0.0273  1.1510  0.7159
 9647SOL    HW230949   8.992   0.881   3.723  0.6633  0.2792  0.0979
 9648SOL     OW30950   4.803   0.987   3.909 -0.2749  0.6005  0.3560
 9648SOL    HW130951   4.889   0.951   3.891  0.0046  0.6036  1.6037
 9648SOL    HW230952   4.745   0.943   3.846  0.8434  1.8122 -1.6359
 9649SOL     OW30953   1.010   8.067   6.148  0.3828  0.4947  0.1016
 9649SOL    HW130954   0.977   8.142   6.197 -0.2145  0.6611 -0.5439
 9649SOL    HW230955   0.937   8.006   6.143 -0.1901  1.2442 -2.1061
 9650SOL     OW30956   6.335   6.569   1.268  0.4051  0.3351 -1.4159
 9650SOL    HW130957   6.384   6.559   1.350  0.1680 -0.6912 -1.3859
 9650SOL    HW230958   6.373   6.504   1.210 -0.6741 -0.2303 -1.5127
 9651SOL     OW30959   0.555   5.236   0.466 -0.0000  0.2846  0.0961
 9651SOL    HW130960   0.575   5.289   0.390  0.6690  1.2372  0.9054
 9651SOL    HW230961   0.627   5.173   0.471  0.1494  0.4598  0.1494
 9652SOL     OW30962   7.339  11.019   7.819 -0.1326  0.3253 -0.3532
 9652SOL    HW130963   7.414  11.049   7.768 -0.9116  0.2802 -1.5542
 9652SOL    HW230964   7.363  11.036   7.910  1.3753  0.2054 -0.7084
 9653SOL     OW30965   8.785   7.633   7.594  0.2740 -0.2058  0.5730
 9653SOL    HW130966   8.837   7.556   7.574 -0.5744 -0.5706 -0.3189
 9653SOL    HW230967   8.813   7.699   7.531 -0.1622 -0.3300  0.2413
 9654SOL     OW30968   2.472   3.221   7.660  0.2853  0.1072  0.3006
 9654SOL    HW130969   2.453   3.200   7.751 -0.6588 -1.3008 -0.1820
 9654SOL    HW230970   2.447   3.313   7.651  0.9287  0.4292  1.5841
 9655SOL     OW30971   1.452   1.742   5.742 -0.5072 -0.1941 -0.4400
 9655SOL    HW130972   1.471   1.836   5.739  2.7404 -0.6668  1.3298
 9655SOL    HW230973   1.357   1.737   5.728 -1.2015  3.5359  1.5006
 9656SOL     OW30974   0.211   1.102   9.040  0.1029  0.2664  0.1081
 9656SOL    HW130975   0.117   1.098   9.059  0.0592 -0.5354 -0.2303
 9656SOL    HW230976   0.244   1.016   9.066  0.5542  0.1744 -0.7387
 9657SOL     OW30977  10.881   3.806   3.782  0.2353 -0.3025  0.0446
 9657SOL    HW130978  10.853   3.897   3.790  0.9923 -0.0965  0.4634
 9657SOL    HW230979  10.801   3.757   3.763 -0.8449 -0.0466  3.2870
 9658SOL     OW30980   3.203  10.688   7.381 -0.4590  0.4332 -0.3223
 9658SOL    HW130981   3.288  10.674   7.422 -0.2726 -0.6274 -1.0402
 9658SOL    HW230982   3.142  10.691   7.455  0.1144  0.6415  0.1570
 9659SOL     OW30983   1.949   2.828   0.386  0.3667 -0.0946 -0.0615
 9659SOL    HW130984   1.858   2.798   0.397  0.5379 -0.5365  0.1817
 9659SOL    HW230985   1.990   2.759   0.334  0.7299 -0.2118  0.3789
 9660SOL     OW30986   9.211   6.077   7.796 -0.0892  0.8179  0.3078
 9660SOL    HW130987   9.290   6.116   7.759  0.9641 -2.0723 -0.7498
 9660SOL    HW230988   9.212   6.104   7.888  2.7142  0.1051  0.5751
 9661SOL     OW30989   0.041   3.878   1.882  0.1528 -0.2602  0.0227
 9661SOL    HW130990   0.030   3.966   1.845 -1.2100 -0.0916  0.7672
 9661SOL    HW230991   0.077   3.826   1.810 -1.5900  0.2743 -1.3136
 9662SOL     OW30992   2.947   6.006   1.390  0.0202 -0.5184  0.0783
 9662SOL    HW130993   2.978   6.092   1.363 -0.8837  0.4680  1.9806
 9662SOL    HW230994   2.928   6.016   1.484 -1.1882 -2.4694  0.0861
 9663SOL     OW30995   1.720   8.122  10.262  0.1797  0.2174  0.8060
 9663SOL    HW130996   1.686   8.087  10.344  1.2598  0.8444  1.5494
 9663SOL    HW230997   1.717   8.217  10.273 -0.5619  0.3450 -0.2770
 9664SOL     OW30998   0.827   0.409  10.877  0.1510 -0.2317  0.2570
 9664SOL    HW130999   0.776   0.459  10.814 -1.7502 -1.4964  0.6907
 9664SOL    HW231000   0.917   0.417  10.847 -0.5748 -0.0535 -2.1091
 9665SOL     OW31001   1.676   3.796   7.029  0.1821 -0.1316 -0.0516
 9665SOL    HW131002   1.759   3.810   7.075 -1.0053 -0.9958  2.5377
 9665SOL    HW231003   1.656   3.703   7.043 -1.8506  0.3413  0.5355
 9666SOL     OW31004   1.682   9.145   8.344 -0.3416  0.2285 -0.2807
 9666SOL    HW131005   1.595   9.165   8.309 -1.0576  0.4392  1.5216
 9666SOL    HW231006   1.678   9.052   8.366  0.3882 -0.1106 -1.4664
 9667SOL     OW31007   0.272   9.488   0.781 -0.2490  0.0294 -0.3673
 9667SOL    HW131008   0.217   9.417   0.813  0.4938  0.0006  0.8968
 9667SOL    HW231009   0.340   9.498   0.848  1.0915  0.2853 -1.7250
 9668SOL     OW31010   1.944   0.868   6.655 -0.6504  0.2345  0.2324
 9668SOL    HW131011   1.957   0.876   6.749 -1.9428 -0.7431  0.5249
 9668SOL    HW231012   1.960   0.776   6.636 -0.2743  0.4448 -0.5443
 9669SOL     OW31013   3.455  10.130   8.138  0.1410  0.2183 -0.0175
 9669SOL    HW131014   3.379  10.077   8.114 -0.3156  0.1723  1.4142
 9669SOL    HW231015   3.437  10.216   8.101 -1.3338  0.6091  1.4962
 9670SOL     OW31016   6.969   2.138   8.224  0.3074 -0.2657 -0.2603
 9670SOL    HW131017   6.962   2.075   8.152 -1.4456  1.1386 -1.4032
 9670SOL    HW231018   6.978   2.083   8.302 -0.6299 -1.9479 -1.2569
 9671SOL     OW31019   3.449   7.728   1.413 -0.0767  0.0761 -0.0199
 9671SOL    HW131020   3.484   7.688   1.333 -0.0694  0.3211 -0.1406
 9671SOL    HW231021   3.526   7.749   1.465 -0.0628  0.2534 -0.1112
 9672SOL     OW31022   5.139   6.349   8.471 -0.1943 -0.0548  0.3283
 9672SOL    HW131023   5.088   6.340   8.390  2.1852  0.3645 -1.3067
 9672SOL    HW231024   5.168   6.260   8.491  0.1630  0.0044  0.0720
 9673SOL     OW31025   5.233   2.667   0.991  0.3855  0.2349  0.1915
 9673SOL    HW131026   5.179   2.723   1.047  2.4610  1.7348  0.8454
 9673SOL    HW231027   5.322   2.698   1.007  1.3657 -1.5671 -1.4513
 9674SOL     OW31028   0.537   3.467   8.608 -0.3263  0.1918 -0.1443
 9674SOL    HW131029   0.564   3.481   8.518 -2.0943  2.9906 -0.3531
 9674SOL    HW231030   0.595   3.522   8.660 -0.8219  0.4242  0.1702
 9675SOL     OW31031   3.668   4.793  10.631 -0.2380  0.5235  0.0020
 9675SOL    HW131032   3.762   4.796  10.613 -0.3551 -0.5040 -0.8255
 9675SOL    HW231033   3.651   4.874  10.680  0.8537  1.3049 -0.8625
 9676SOL     OW31034   6.497   1.864   8.863 -0.1330 -0.1603 -0.3430
 9676SOL    HW131035   6.426   1.846   8.925  1.7605 -2.5499  1.2850
 9676SOL    HW231036   6.553   1.927   8.908 -1.1260  1.7565 -1.6454
 9677SOL     OW31037  11.023   0.460   7.721 -0.0514  0.3794 -0.5299
 9677SOL    HW131038  11.035   0.549   7.753  2.0061  0.5040 -1.4785
 9677SOL    HW231039  11.111   0.421   7.726 -0.2086 -0.4981 -3.2661
 9678SOL     OW31040   3.882   0.741   4.581 -0.2890  0.1880 -0.0825
 9678SOL    HW131041   3.881   0.749   4.677  0.3649  0.2944 -0.0783
 9678SOL    HW231042   3.914   0.827   4.551  0.4863 -0.1803 -0.3434
 9679SOL     OW31043   8.568   7.156  10.699  0.1312  0.2647  0.3271
 9679SOL    HW131044   8.481   7.178  10.666 -0.1240  1.2111  1.5395
 9679SOL    HW231045   8.593   7.232  10.752  1.7370  0.0478 -0.0615
 9680SOL     OW31046   4.517   1.828   7.401 -0.2602 -0.1993 -0.3412
 9680SOL    HW131047   4.573   1.799   7.473  1.6864 -1.1940 -2.1496
 9680SOL    HW231048   4.448   1.879   7.443  0.9533 -0.5106  2.1837
 9681SOL     OW31049   9.765   3.319   1.404  0.0842  0.0859  0.2859
 9681SOL    HW131050   9.798   3.268   1.479  0.5851 -0.7842 -0.4983
 9681SOL    HW231051   9.841   3.327   1.346 -0.6189 -0.3520 -0.7075
 9682SOL     OW31052   5.732   9.349   2.578  0.6574  0.6340  0.0452
 9682SOL    HW131053   5.717   9.323   2.669  0.0146 -1.4299 -0.5972
 9682SOL    HW231054   5.825   9.372   2.575  0.9608 -0.3570  1.0013
 9683SOL     OW31055   7.987  10.652  10.997 -0.5222 -0.4299  0.3844
 9683SOL    HW131056   8.078  10.635  10.971 -0.9521 -2.3195 -0.0512
 9683SOL    HW231057   7.988  10.643  11.093  0.0959  1.5374  0.6007
 9684SOL     OW31058   9.597   2.598  10.965  0.2400  0.6371  0.1406
 9684SOL    HW131059   9.662   2.538  10.928 -2.2482 -1.0659 -1.8304
 9684SOL    HW231060   9.585   2.568  11.055 -0.9677 -2.0014 -0.8056
 9685SOL     OW31061  10.755   3.337   5.802 -0.1070  0.0931 -0.0898
 9685SOL    HW131062  10.837   3.303   5.767  2.4399  1.5648  3.7542
 9685SOL    HW231063  10.734   3.278   5.875 -2.0564  0.2616 -0.4540
 9686SOL     OW31064   0.413   3.094   2.028 -0.4243 -0.3310 -0.4524
 9686SOL    HW131065   0.328   3.069   2.065  0.5019 -0.5080  1.7244
 9686SOL    HW231066   0.401   3.186   2.001 -0.7539  0.3730  1.8641
 9687SOL     OW31067   4.612   3.668   8.697  0.1612 -0.1296 -0.5740
 9687SOL    HW131068   4.563   3.727   8.641 -1.2920 -2.8463 -2.3960
 9687SOL    HW231069   4.686   3.640   8.643  1.3028  0.5856  0.5619
 9688SOL     OW31070   7.313  10.310   9.972  0.3834  0.3646  0.0093
 9688SOL    HW131071   7.386  10.349   9.923  0.4289  1.5448  0.9603
 9688SOL    HW231072   7.348  10.297  10.060  0.1190 -1.1683 -0.0912
 9689SOL     OW31073   3.075   0.734   1.805 -0.1321  0.3942  0.7136
 9689SOL    HW131074   3.076   0.655   1.859  1.9663 -0.2603 -0.1912
 9689SOL    HW231075   3.024   0.709   1.728  0.1979  0.0299  0.6076
 9690SOL     OW31076   0.773   1.832   4.487  0.2369 -0.3196  0.7358
 9690SOL    HW131077   0.777   1.740   4.514  0.2426 -0.5619 -0.0468
 9690SOL    HW231078   0.700   1.835   4.425  0.4991  0.1109  0.4418
 9691SOL     OW31079   0.067   0.087   7.058 -0.0185 -0.1037 -0.0776
 9691SOL    HW131080   0.058   0.051   7.146  1.2615 -0.9034 -0.2562
 9691SOL    HW231081   0.038   0.017   7.001  1.4732 -0.4929 -0.3853
 9692SOL     OW31082   1.366   3.017   5.270 -0.3221  0.2998  0.3986
 9692SOL    HW131083   1.364   2.986   5.361 -4.8807  2.0324  1.1529
 9692SOL    HW231084   1.388   3.110   5.278 -2.0638  0.7798 -0.0392
 9693SOL     OW31085  10.530  10.790   3.205 -0.6296 -0.3576 -0.2924
 9693SOL    HW131086  10.447  10.806   3.250 -0.7230  1.8976 -1.1424
 9693SOL    HW231087  10.561  10.877   3.180  1.4081 -1.2423 -1.0452
 9694SOL     OW31088   6.166   4.411   7.647 -0.1765  0.0355  0.6122
 9694SOL    HW131089   6.137   4.398   7.738 -0.9585 -1.6571  0.1654
 9694SOL    HW231090   6.084   4.417   7.597  0.1881 -1.7488 -0.2871
 9695SOL     OW31091   4.682   0.269   6.483 -0.1729 -0.5756  0.7732
 9695SOL    HW131092   4.672   0.245   6.391  1.2414  0.5297  0.2996
 9695SOL    HW231093   4.767   0.233   6.508 -0.0260  0.1196  1.2999
 9696SOL     OW31094   5.070  10.165   9.710  0.2152  0.0993 -0.0794
 9696SOL    HW131095   5.068  10.123   9.624  0.0218 -0.4519  0.1935
 9696SOL    HW231096   5.150  10.131   9.751 -0.0391 -0.1407  0.2136
 9697SOL     OW31097   0.524  10.638   2.189 -0.0238 -0.6816  0.8190
 9697SOL    HW131098   0.551  10.568   2.248  0.1499  0.3300  1.9712
 9697SOL    HW231099   0.432  10.653   2.210  0.1134 -0.1286  1.0256
 9698SOL     OW31100   8.471   5.163  10.195 -0.1983  0.1606 -0.2488
 9698SOL    HW131101   8.459   5.070  10.175 -0.0278  0.1501 -0.3036
 9698SOL    HW231102   8.475   5.166  10.290  2.2478 -0.2057 -0.2714
 9699SOL     OW31103   0.681   0.098  10.618 -0.7463 -0.3536 -0.0438
 9699SOL    HW131104   0.775   0.087  10.608 -0.8654 -0.6937 -0.8727
 9699SOL    HW231105   0.668   0.111  10.712  0.2538  1.0366 -0.0815
 9700SOL     OW31106   3.558   4.426  10.209  0.1183 -0.0929  0.7076
 9700SOL    HW131107   3.477   4.446  10.163  0.4893  2.5515  1.0174
 9700SOL    HW231108   3.627   4.444  10.145  0.5061 -0.0562  1.1268
 9701SOL     OW31109   0.922   4.283   9.670 -0.3767 -0.0934  0.1338
 9701SOL    HW131110   0.906   4.228   9.746 -0.7289  1.1673  1.0131
 9701SOL    HW231111   0.835   4.308   9.640 -0.2217  1.3357  0.7977
 9702SOL     OW31112   3.364   9.402   4.582  0.2257 -0.7880 -0.4359
 9702SOL    HW131113   3.457   9.423   4.566  0.5660 -1.1579  0.9778
 9702SOL    HW231114   3.319   9.486   4.574  0.8973 -0.3447  0.2947
 9703SOL     OW31115   9.436   5.344   8.905 -0.0243 -0.3844  0.1058
 9703SOL    HW131116   9.470   5.359   8.993  0.5976 -0.9947 -0.0175
 9703SOL    HW231117   9.341   5.340   8.916  0.0928 -1.5506  0.9421
 9704SOL     OW31118   3.047   0.703   8.822  0.3258  0.2454  0.1820
 9704SOL    HW131119   2.966   0.753   8.817  1.1036  1.4001 -2.2281
 9704SOL    HW231120   3.046   0.665   8.910 -2.4771  0.7593  0.4653
 9705SOL     OW31121   9.442   0.816   8.860  0.1908 -0.2643 -0.9337
 9705SOL    HW131122   9.476   0.863   8.784  0.3571  0.7403 -0.2671
 9705SOL    HW231123   9.509   0.752   8.882 -0.3584 -1.3558 -2.3011
 9706SOL     OW31124   1.133   2.404   4.710  0.2353 -0.1877 -0.3762
 9706SOL    HW131125   1.062   2.350   4.676 -1.0641  0.4685  1.1506
 9706SOL    HW231126   1.160   2.360   4.791  1.3374 -0.2266 -0.7478
 9707SOL     OW31127   1.994  10.321   4.037  0.4640 -0.0710  0.1511
 9707SOL    HW131128   1.989  10.247   3.977 -0.7852 -0.6146  0.8767
 9707SOL    HW231129   1.940  10.389   3.996 -0.5578 -0.5134  0.7186
 9708SOL     OW31130   4.339   0.427   2.806 -0.1429 -0.1057 -0.3805
 9708SOL    HW131131   4.327   0.439   2.900 -0.4236  2.0238 -0.6389
 9708SOL    HW231132   4.432   0.445   2.792  0.5908 -3.1887 -0.2051
 9709SOL     OW31133   2.733   1.414   6.146  0.3459 -0.2417  0.5933
 9709SOL    HW131134   2.719   1.347   6.213  0.1688  1.8995  2.8363
 9709SOL    HW231135   2.710   1.496   6.189 -1.1305  1.1569 -2.5787
 9710SOL     OW31136   1.600   2.365   5.404 -0.0228 -0.2487 -0.2505
 9710SOL    HW131137   1.572   2.456   5.414 -2.7113 -0.8898 -1.1150
 9710SOL    HW231138   1.650   2.364   5.322  1.0444  0.6130  0.3595
 9711SOL     OW31139   2.284  10.204   9.365 -0.4928 -0.4127  0.5618
 9711SOL    HW131140   2.309  10.290   9.333  0.7233 -1.2264 -0.7870
 9711SOL    HW231141   2.366  10.164   9.395 -0.4251 -2.2860 -1.8419
 9712SOL     OW31142   0.646   3.140   9.778  0.0354 -0.5141 -0.0795
 9712SOL    HW131143   0.563   3.160   9.820 -0.2261  0.5840 -1.0767
 9712SOL    HW231144   0.636   3.051   9.744 -0.1653 -0.9634  1.1285
 9713SOL     OW31145   9.443   8.429   9.557  0.0429 -0.0935 -0.2531
 9713SOL    HW131146   9.480   8.358   9.609 -0.3000  0.3382  0.6102
 9713SOL    HW231147   9.513   8.454   9.497 -0.0005 -1.4811 -0.9182
 9714SOL     OW31148   8.475   5.032   2.064  0.3604  0.2332 -0.3179
 9714SOL    HW131149   8.519   5.102   2.016  3.1109 -1.0220  0.1352
 9714SOL    HW231150   8.477   5.060   2.155 -0.5194  0.4952 -0.3692
 9715SOL     OW31151  10.842   5.514   0.703  0.2336  0.6231  0.1031
 9715SOL    HW131152  10.761   5.553   0.735 -0.7817 -1.4293  0.1390
 9715SOL    HW231153  10.825   5.494   0.611  1.3693  1.8144 -0.4052
 9716SOL     OW31154   3.796   2.007  10.043 -0.1382  0.3869 -0.3928
 9716SOL    HW131155   3.724   2.044   9.992  0.9792  1.3947 -1.3294
 9716SOL    HW231156   3.840   2.083  10.081  1.0915 -0.0848 -0.7868
 9717SOL     OW31157   6.487   2.852   3.444 -0.3533 -0.2606  0.1873
 9717SOL    HW131158   6.556   2.798   3.406 -2.0405 -2.2464 -0.1899
 9717SOL    HW231159   6.510   2.942   3.419  0.7981 -1.1033 -1.9507
 9718SOL     OW31160   2.007   4.870   1.688 -0.1739  0.4700  0.0962
 9718SOL    HW131161   2.100   4.848   1.681 -0.1751  0.5080 -0.0475
 9718SOL    HW231162   1.962   4.791   1.658 -0.1641  1.1591 -1.8931
 9719SOL     OW31163   4.455   6.264   8.578  0.5637 -0.6017  0.1913
 9719SOL    HW131164   4.494   6.274   8.665  0.7213  0.5855  0.0047
 9719SOL    HW231165   4.437   6.171   8.570 -4.8193 -0.2650  3.8194
 9720SOL     OW31166   2.249   7.874   0.357 -0.2373  0.1045  0.4732
 9720SOL    HW131167   2.342   7.884   0.337 -0.4594 -1.1771 -1.5205
 9720SOL    HW231168   2.246   7.861   0.452  1.6094  0.1099  0.5688
 9721SOL     OW31169   2.195   3.405   5.635 -0.3971  0.1327 -0.7671
 9721SOL    HW131170   2.225   3.465   5.703 -1.0548  1.3275 -1.4729
 9721SOL    HW231171   2.275   3.373   5.594 -0.0211  0.5074 -0.3399
 9722SOL     OW31172   6.519   4.347   1.830  0.2652  0.2488  0.2552
 9722SOL    HW131173   6.524   4.419   1.767 -0.5741  1.1504  1.1850
 9722SOL    HW231174   6.593   4.361   1.889  1.7070 -1.2130 -1.0983
 9723SOL     OW31175  10.374   1.979   2.642 -0.0417  0.1389 -0.4768
 9723SOL    HW131176  10.329   2.043   2.696  0.0800 -1.6170  1.8769
 9723SOL    HW231177  10.466   1.984   2.669 -0.0569 -1.0848 -0.1290
 9724SOL     OW31178   3.122   8.283   9.116  0.3482 -0.3467 -0.3492
 9724SOL    HW131179   3.199   8.227   9.123  0.5095 -0.1344 -0.4157
 9724SOL    HW231180   3.086   8.266   9.029  1.4320  0.9714 -1.0988
 9725SOL     OW31181   7.890   1.728   4.368 -0.3842 -0.1127 -0.5901
 9725SOL    HW131182   7.869   1.735   4.461 -0.9888  0.4353 -0.7570
 9725SOL    HW231183   7.808   1.701   4.327 -0.7248  1.7277 -1.2150
 9726SOL     OW31184   1.872   7.804   7.756 -0.1051 -0.0164 -0.0135
 9726SOL    HW131185   1.797   7.787   7.699  0.8644 -1.6129 -0.8981
 9726SOL    HW231186   1.916   7.879   7.716 -0.2784 -0.1729 -0.5123
 9727SOL     OW31187   7.056   4.779   7.777 -0.3010 -0.4911  0.5760
 9727SOL    HW131188   7.064   4.746   7.867 -1.5502 -1.0906  0.4898
 9727SOL    HW231189   7.004   4.712   7.732  1.4221 -0.8452 -0.9622
 9728SOL     OW31190   7.561   3.071   6.671 -0.1682  0.5551 -0.4954
 9728SOL    HW131191   7.605   3.045   6.590  2.1935 -1.3076  1.2342
 9728SOL    HW231192   7.622   3.133   6.712 -1.1236  1.1292  0.1064
 9729SOL     OW31193   0.277   1.108   1.985  0.0697  0.0281  0.0178
 9729SOL    HW131194   0.299   1.112   1.892 -1.8420 -0.7670 -0.5126
 9729SOL    HW231195   0.250   1.018   2.000  0.0280  0.2222  1.2982
 9730SOL     OW31196   5.717   5.040   0.947  0.2911 -0.4122  0.3969
 9730SOL    HW131197   5.746   5.085   1.026  1.1020 -1.9616  1.0203
 9730SOL    HW231198   5.785   4.975   0.929 -0.5757 -1.0633 -0.7531
 9731SOL     OW31199  11.090   1.892   8.545  0.4286 -0.8067  0.2010
 9731SOL    HW131200  11.129   1.851   8.622  0.0071 -1.6939 -0.0456
 9731SOL    HW231201  11.018   1.944   8.578  0.2047 -1.2425  0.4016
 9732SOL     OW31202   9.970   4.395   0.119  0.2433 -0.0987 -0.0063
 9732SOL    HW131203   9.889   4.363   0.159  0.1859 -1.4155 -1.0841
 9732SOL    HW231204  10.015   4.316   0.090  0.3434  0.7393 -2.3394
 9733SOL     OW31205  10.809   0.340   1.128  0.3134 -0.2190  0.3537
 9733SOL    HW131206  10.799   0.333   1.033 -0.1102 -1.5343  0.4772
 9733SOL    HW231207  10.742   0.402   1.155 -0.4645 -0.8587 -0.0660
 9734SOL     OW31208   7.473   7.092   2.773 -0.5361 -0.0062 -0.6283
 9734SOL    HW131209   7.568   7.104   2.770 -0.4325  0.5486  2.1924
 9734SOL    HW231210   7.438   7.164   2.721  0.5539 -0.2129 -1.6991
 9735SOL     OW31211   2.706   4.006   8.095  0.7344 -0.1023 -0.0467
 9735SOL    HW131212   2.795   4.013   8.063  1.0954 -0.6245  0.8053
 9735SOL    HW231213   2.655   3.978   8.019  1.3020  0.1262 -0.5154
 9736SOL     OW31214   7.135   5.636  10.214 -0.1286  1.0473 -0.0887
 9736SOL    HW131215   7.091   5.601  10.137  1.3187  0.7802 -0.8481
 9736SOL    HW231216   7.206   5.573  10.232  0.3004  1.7285  0.7205
 9737SOL     OW31217   1.023   2.984   8.862  0.1407  0.1238  0.0115
 9737SOL    HW131218   0.949   3.045   8.854  0.0238 -0.0505 -0.2704
 9737SOL    HW231219   1.072   3.016   8.937 -0.0778  0.3988  0.0418
 9738SOL     OW31220   1.803   1.969   1.265 -0.3167 -0.2329  0.0850
 9738SOL    HW131221   1.845   2.053   1.282  1.1584 -0.7236 -0.9759
 9738SOL    HW231222   1.710   1.990   1.253 -0.2567  0.9955  1.5440
 9739SOL     OW31223   6.357   3.164   9.581  0.4617  0.0021  0.3023
 9739SOL    HW131224   6.407   3.241   9.607 -0.2336  1.2598 -1.8317
 9739SOL    HW231225   6.275   3.171   9.631  0.1354  1.0434 -0.3393
 9740SOL     OW31226   7.560   4.631   0.950  0.4179  0.5856 -0.1395
 9740SOL    HW131227   7.621   4.619   0.877 -1.3602 -1.7697 -1.3946
 9740SOL    HW231228   7.476   4.599   0.916 -1.2017  2.2716  1.9908
 9741SOL     OW31229   9.910   2.075   8.504  0.2717  0.5893  0.3921
 9741SOL    HW131230   9.875   2.158   8.536  0.8789  0.6682  0.8712
 9741SOL    HW231231  10.003   2.079   8.525  0.2663 -0.3073  0.6002
 9742SOL     OW31232   9.298   1.473   3.660 -0.0313  0.5117 -0.0084
 9742SOL    HW131233   9.233   1.403   3.658 -1.3103  1.6310  0.7676
 9742SOL    HW231234   9.251   1.549   3.625  1.4736  0.8805 -1.3047
 9743SOL     OW31235   2.643   3.136   7.368  0.1158 -0.4553 -0.0713
 9743SOL    HW131236   2.704   3.066   7.347 -1.0165 -1.6082  0.3837
 9743SOL    HW231237   2.690   3.190   7.432  1.4255 -0.1056 -1.2605
 9744SOL     OW31238   1.601   4.693   7.571 -0.4843 -0.5481 -0.0557
 9744SOL    HW131239   1.665   4.685   7.501  0.9956 -0.1050  1.1923
 9744SOL    HW231240   1.603   4.607   7.614  0.4893 -0.0495  0.9529
 9745SOL     OW31241   2.390   4.941   7.442  0.3562  0.2688  0.5482
 9745SOL    HW131242   2.421   4.915   7.355  0.1338  0.1930  0.4903
 9745SOL    HW231243   2.421   5.031   7.452 -0.5523  0.6764 -0.0705
 9746SOL     OW31244   8.009   4.135   6.684  0.2422  0.2161 -0.7907
 9746SOL    HW131245   8.035   4.043   6.674  0.3994  0.3948 -2.2901
 9746SOL    HW231246   8.061   4.182   6.618 -0.1379  1.3254 -0.3245
 9747SOL     OW31247   7.006   5.617   9.987 -0.1366  0.0447  0.0796
 9747SOL    HW131248   6.964   5.688   9.938  0.2862  0.4548  0.3042
 9747SOL    HW231249   6.947   5.542   9.975 -0.6396  0.4565 -0.0787
 9748SOL     OW31250   3.574   7.956   9.398 -0.5661  0.2241  0.3991
 9748SOL    HW131251   3.656   7.998   9.372  0.7035 -1.3283  1.6489
 9748SOL    HW231252   3.574   7.960   9.494 -2.6845  1.4423  0.4204
 9749SOL     OW31253   3.886   0.617   7.682  0.3119  0.0844  0.0067
 9749SOL    HW131254   3.820   0.684   7.701 -0.5714 -0.0577 -2.2237
 9749SOL    HW231255   3.960   0.640   7.738 -0.0395  2.8584 -0.5063
 9750SOL     OW31256   1.507   3.711   4.576  0.8140 -0.0656 -0.1758
 9750SOL    HW131257   1.425   3.666   4.595 -0.4251  1.4891 -1.5386
 9750SOL    HW231258   1.522   3.766   4.653  0.2351  0.0929 -0.1689
 9751SOL     OW31259   8.970   3.817   0.408 -0.1443  0.1062  0.1062
 9751SOL    HW131260   8.880   3.785   0.402  0.0194 -0.3504  0.0517
 9751SOL    HW231261   9.016   3.748   0.456  0.2301  0.2322 -0.0726
 9752SOL     OW31262   8.825  10.693   9.941  0.0350 -0.3969 -0.3843
 9752SOL    HW131263   8.767  10.619   9.961  0.3053 -0.1799  1.3457
 9752SOL    HW231264   8.786  10.767   9.988  1.2349 -0.0592  0.1079
 9753SOL     OW31265   8.188   0.265   0.903  0.3070  0.6494 -0.0562
 9753SOL    HW131266   8.117   0.205   0.928  0.1012 -0.2153 -2.4644
 9753SOL    HW231267   8.254   0.208   0.862  1.6586  1.6620  0.6573
 9754SOL     OW31268  10.530   7.697   7.491 -0.3259 -0.7620 -0.0997
 9754SOL    HW131269  10.499   7.705   7.581 -1.1477 -2.0166 -0.2400
 9754SOL    HW231270  10.454   7.663   7.443  0.2531 -0.5867 -1.1690
 9755SOL     OW31271   1.644   7.817   9.926  0.4571 -0.2734  0.1335
 9755SOL    HW131272   1.595   7.834  10.007 -0.5587 -1.2882 -0.2502
 9755SOL    HW231273   1.669   7.905   9.895 -1.0517  0.2823  0.3959
 9756SOL     OW31274  10.655   1.099   9.963  0.2066  0.1343  0.1594
 9756SOL    HW131275  10.697   1.171  10.010  0.8572 -0.1455  0.0063
 9756SOL    HW231276  10.682   1.111   9.872 -2.9117  2.0860 -0.6911
 9757SOL     OW31277   9.371   1.017   4.323 -0.6071 -0.4221 -0.4407
 9757SOL    HW131278   9.332   1.083   4.380  0.4122  1.0087 -1.3357
 9757SOL    HW231279   9.300   0.991   4.264 -0.2382  2.4941 -2.3695
 9758SOL     OW31280  10.122   5.556   7.663  0.4299 -0.2780  0.7480
 9758SOL    HW131281  10.097   5.556   7.755  0.0520  2.9847  0.7711
 9758SOL    HW231282  10.193   5.621   7.658  1.6375 -1.6299 -1.0277
 9759SOL     OW31283   0.703   0.258   3.598  0.2179  0.2976  0.2596
 9759SOL    HW131284   0.681   0.210   3.519  2.1889  0.0659 -0.1876
 9759SOL    HW231285   0.657   0.212   3.668 -0.3869 -0.3574 -0.5561
 9760SOL     OW31286   9.250   5.610   6.768  0.5038  0.1089 -0.2034
 9760SOL    HW131287   9.241   5.696   6.728 -1.6411 -1.0685 -2.5738
 9760SOL    HW231288   9.344   5.590   6.761  0.8588  1.7972 -0.6286
 9761SOL     OW31289   8.354   0.771   7.083 -0.5002  0.1105 -0.1808
 9761SOL    HW131290   8.438   0.726   7.068  0.8940  2.1968  0.8847
 9761SOL    HW231291   8.312   0.721   7.153 -1.6151 -2.6785 -2.5897
 9762SOL     OW31292   4.431   4.531   9.888 -0.4229 -0.4872 -0.0016
 9762SOL    HW131293   4.504   4.591   9.892 -0.8612  0.0728 -0.3044
 9762SOL    HW231294   4.469   4.445   9.909  0.4956 -0.3667 -1.0842
 9763SOL     OW31295   5.833  10.500   8.371  0.1581 -0.0283  0.6089
 9763SOL    HW131296   5.922  10.465   8.375  0.8010  1.2828 -1.1570
 9763SOL    HW231297   5.790  10.447   8.304  1.1924  2.4684 -2.2173
 9764SOL     OW31298   5.185   5.506   2.926 -0.0176  0.1961 -0.0522
 9764SOL    HW131299   5.162   5.580   2.870 -0.0009  0.9751  0.9255
 9764SOL    HW231300   5.185   5.543   3.015  0.4458 -0.8739  0.4113
 9765SOL     OW31301  10.427   8.830   9.627 -0.7701  0.0511  0.1238
 9765SOL    HW131302  10.470   8.776   9.561 -2.2595  0.5022 -1.2803
 9765SOL    HW231303  10.341   8.789   9.640  0.2220 -1.3582  3.5092
 9766SOL     OW31304   4.492   6.353   3.745 -0.1901  0.6745 -0.1790
 9766SOL    HW131305   4.531   6.325   3.828  1.5255 -2.0914 -1.7706
 9766SOL    HW231306   4.404   6.317   3.747  0.6229 -1.4475 -0.4488
 9767SOL     OW31307   3.587   0.143   1.823  0.0002 -0.3635  0.5683
 9767SOL    HW131308   3.659   0.197   1.857 -0.1642  0.8020 -0.8120
 9767SOL    HW231309   3.517   0.206   1.804 -0.8507 -1.2960  0.5228
 9768SOL     OW31310   4.496   4.444   1.596 -0.3272  0.5062 -0.0419
 9768SOL    HW131311   4.493   4.509   1.526 -1.4385  0.3042 -0.2112
 9768SOL    HW231312   4.588   4.437   1.620 -0.1297  1.7229 -0.4078
 9769SOL     OW31313  11.033   4.912   4.625 -0.2393 -0.3188 -0.0644
 9769SOL    HW131314  11.006   4.995   4.663 -0.6164 -0.0713 -0.8475
 9769SOL    HW231315  10.956   4.883   4.575  0.3724 -0.4199 -0.9708
 9770SOL     OW31316  10.944   3.352   7.412  0.2380 -0.2359  0.8547
 9770SOL    HW131317  10.970   3.438   7.445 -0.7142  0.2150  0.4515
 9770SOL    HW231318  10.874   3.324   7.471 -1.8378  0.8001 -0.9782
 9771SOL     OW31319   9.748   9.818   5.691 -0.0128 -0.1531 -0.1393
 9771SOL    HW131320   9.826   9.806   5.637  1.2665  2.0026  1.0553
 9771SOL    HW231321   9.683   9.857   5.632  0.0085 -1.3849 -1.0008
 9772SOL     OW31322   1.137   0.833   6.507 -0.1143  0.0930 -0.0441
 9772SOL    HW131323   1.109   0.904   6.565 -1.3837  0.3863 -0.9676
 9772SOL    HW231324   1.095   0.755   6.543  0.1579  0.0490  0.1784
 9773SOL     OW31325   9.768   4.329   7.636 -0.0856 -0.4591  0.0874
 9773SOL    HW131326   9.819   4.298   7.710 -0.7627  0.8255  1.1426
 9773SOL    HW231327   9.679   4.299   7.654 -0.4488  0.7306  0.3292
 9774SOL     OW31328   7.555   0.831   8.305  0.2097  0.2535 -0.2315
 9774SOL    HW131329   7.564   0.803   8.396 -0.5730  0.3390 -0.1171
 9774SOL    HW231330   7.476   0.885   8.305 -0.7774 -1.1117 -1.2792
 9775SOL     OW31331   7.098   9.251   9.926 -0.7462 -0.5391  0.2714
 9775SOL    HW131332   7.059   9.284   9.845  1.7039  0.0233 -0.7839
 9775SOL    HW231333   7.178   9.207   9.897  1.1065  1.1496  2.4598
 9776SOL     OW31334   3.926   1.515   7.234 -0.5976 -0.4405  0.1582
 9776SOL    HW131335   4.000   1.575   7.230  0.2936 -1.3463  1.8331
 9776SOL    HW231336   3.852   1.566   7.202  0.2709  1.2964  0.7831
 9777SOL     OW31337   9.957   9.165   8.363 -0.6913 -0.4380 -0.4763
 9777SOL    HW131338   9.927   9.255   8.351  0.7116  0.0155 -0.8602
 9777SOL    HW231339   9.946   9.124   8.277  1.8245  0.4245 -1.3176
 9778SOL     OW31340   1.463  10.320   6.219  0.2883  0.4144  0.0773
 9778SOL    HW131341   1.429  10.278   6.140 -1.2375  1.1274  0.3204
 9778SOL    HW231342   1.488  10.247   6.276  0.0553 -0.1161 -0.4942
 9779SOL     OW31343   2.819   1.714   2.100 -0.3100 -0.6858 -0.6018
 9779SOL    HW131344   2.902   1.729   2.054  0.0544 -0.5505  0.0910
 9779SOL    HW231345   2.836   1.638   2.155 -0.0975  0.3696  0.8398
 9780SOL     OW31346   1.082  10.346   6.655  0.2290  0.7246  0.9020
 9780SOL    HW131347   1.089  10.436   6.688 -0.1056  1.2111 -0.2851
 9780SOL    HW231348   1.016  10.352   6.585  0.1318 -0.4694  0.8806
 9781SOL     OW31349  11.063   0.207   9.745  0.6303  0.3357 -0.6127
 9781SOL    HW131350  10.979   0.249   9.763  1.2122  1.8294 -1.2306
 9781SOL    HW231351  11.041   0.137   9.682 -0.2788  0.0409  0.0074
 9782SOL     OW31352  10.790   2.806   6.741 -0.5034  0.2352  0.1967
 9782SOL    HW131353  10.793   2.902   6.740  0.0502  0.2207 -0.0235
 9782SOL    HW231354  10.710   2.784   6.693  1.2786  0.5289 -3.1917
 9783SOL     OW31355   3.429   9.597   1.235  0.1409 -0.5582 -0.2765
 9783SOL    HW131356   3.409   9.659   1.305 -1.9940  0.8433 -1.9875
 9783SOL    HW231357   3.402   9.512   1.270 -0.2482  0.0007  0.8348
 9784SOL     OW31358  10.348   6.854   5.085  0.4512 -0.6178  0.1305
 9784SOL    HW131359  10.289   6.928   5.069 -0.6334 -1.6092 -0.6430
 9784SOL    HW231360  10.290   6.777   5.086  1.8617 -1.8233 -2.3196
 9785SOL     OW31361   2.730   3.335   3.547  1.0663  0.1383 -0.2996
 9785SOL    HW131362   2.660   3.321   3.610 -2.2123 -0.9354 -3.7814
 9785SOL    HW231363   2.780   3.254   3.547 -1.5134 -1.5854 -1.8209
 9786SOL     OW31364   1.290   2.302   2.819 -0.0851  0.6163 -0.3811
 9786SOL    HW131365   1.353   2.251   2.871  0.0026  1.8618  0.7774
 9786SOL    HW231366   1.213   2.246   2.814 -0.0212  0.3796  0.9447
 9787SOL     OW31367   5.370   3.241   2.493 -0.3135 -0.9425  0.3296
 9787SOL    HW131368   5.445   3.194   2.530  0.5402 -0.0620 -0.2438
 9787SOL    HW231369   5.366   3.323   2.542 -0.7691 -0.8980  0.2169
 9788SOL     OW31370   7.731   3.747   1.389 -0.1474 -0.2197 -0.1185
 9788SOL    HW131371   7.743   3.807   1.462  1.7535  0.3391 -0.8291
 9788SOL    HW231372   7.723   3.804   1.312 -0.1478 -0.8385 -0.5871
 9789SOL     OW31373   1.602   5.356   4.924 -0.4399 -0.4004  0.1539
 9789SOL    HW131374   1.636   5.422   4.984  0.4255 -0.2867 -0.4498
 9789SOL    HW231375   1.656   5.279   4.940 -1.4662 -0.9900  0.8771
 9790SOL     OW31376   1.481   2.522   5.134 -0.1856  0.0467  0.2238
 9790SOL    HW131377   1.471   2.589   5.202  1.8637  0.9511 -0.2861
 9790SOL    HW231378   1.565   2.542   5.094 -0.6798 -1.3624 -1.6166
 9791SOL     OW31379   8.950   4.281   3.040 -0.5766  0.0680 -0.8051
 9791SOL    HW131380   8.929   4.322   3.124 -2.7658  2.1884 -2.2623
 9791SOL    HW231381   8.991   4.350   2.989 -1.3246 -0.4928 -2.2269
 9792SOL     OW31382   5.017   6.528   9.830 -0.5046  0.2950 -0.5792
 9792SOL    HW131383   4.992   6.566   9.914  1.4721  1.8450 -0.6015
 9792SOL    HW231384   5.005   6.434   9.841  0.7226  0.3502  1.8535
 9793SOL     OW31385   9.099  10.139  10.433 -0.1114 -0.0597 -0.2355
 9793SOL    HW131386   9.151  10.064  10.463  1.0938  0.8000 -0.0994
 9793SOL    HW231387   9.061  10.175  10.514 -1.1580 -0.8305 -0.3605
 9794SOL     OW31388   0.719   0.072   7.438  0.0302  0.2125  0.9940
 9794SOL    HW131389   0.718   0.167   7.445 -0.0658  0.1155  2.5487
 9794SOL    HW231390   0.632   0.050   7.405  0.3690  0.7003 -0.2833
 9795SOL     OW31391   1.978   1.967   8.216 -0.5438 -0.2605  0.7417
 9795SOL    HW131392   2.049   1.929   8.267 -2.3786 -0.8440  2.9970
 9795SOL    HW231393   2.017   2.044   8.174  1.4923 -0.7663  1.6087
 9796SOL     OW31394   3.277   7.903   1.276 -0.5458  0.2275 -1.1136
 9796SOL    HW131395   3.338   7.853   1.330 -0.9851  0.5370 -0.3167
 9796SOL    HW231396   3.237   7.965   1.337 -1.9233 -0.2164 -1.5396
 9797SOL     OW31397   1.475   2.923   6.361 -0.2565 -0.1622  0.4646
 9797SOL    HW131398   1.486   3.018   6.359  3.3548 -0.4031  2.1938
 9797SOL    HW231399   1.484   2.899   6.453  0.1103 -2.3074 -0.0735
 9798SOL     OW31400   4.194  10.014  10.564 -0.6990 -0.0091 -0.5161
 9798SOL    HW131401   4.275  10.060  10.540 -0.1050 -0.8028 -0.0828
 9798SOL    HW231402   4.145  10.007  10.482  1.2644 -2.6168 -1.6404
 9799SOL     OW31403   7.488   2.694   3.116  0.3394 -0.8798  0.1138
 9799SOL    HW131404   7.462   2.607   3.146 -0.3152 -0.7756 -0.1259
 9799SOL    HW231405   7.520   2.680   3.027  0.0716 -0.8584  0.0112
 9800SOL     OW31406   3.621   0.361   2.690 -0.5957 -0.3216 -0.2375
 9800SOL    HW131407   3.702   0.397   2.653 -0.2547 -0.4252  0.3896
 9800SOL    HW231408   3.603   0.415   2.766 -0.5230 -0.9547  0.2456
 9801SOL     OW31409   2.322   4.422   3.607 -0.8672  0.1609 -0.3928
 9801SOL    HW131410   2.266   4.488   3.567 -0.4023  2.1222  1.9711
 9801SOL    HW231411   2.278   4.401   3.690  1.5183  1.3352  1.2580
 9802SOL     OW31412   9.613   6.176   5.275 -0.2541  0.0667 -0.5469
 9802SOL    HW131413   9.534   6.124   5.289 -0.7789  0.8190 -0.6506
 9802SOL    HW231414   9.610   6.198   5.181  0.0242  0.1890 -0.5280
 9803SOL     OW31415   0.422   0.833  10.119  0.1497  0.0758  0.5228
 9803SOL    HW131416   0.462   0.764  10.172  0.0927  0.3779  0.9653
 9803SOL    HW231417   0.491   0.861  10.059 -0.3111 -1.5258 -0.8408
 9804SOL     OW31418   5.339   8.789   6.946  0.3157 -0.1239 -0.3173
 9804SOL    HW131419   5.347   8.834   7.030 -0.8117  1.8393 -1.1807
 9804SOL    HW231420   5.264   8.730   6.958 -0.6074  1.0205 -0.2704
 9805SOL     OW31421   9.297   5.429   5.757 -0.3472  0.2419  0.0327
 9805SOL    HW131422   9.298   5.448   5.663 -1.8428  2.6281  0.4266
 9805SOL    HW231423   9.221   5.372   5.770  0.1856 -0.5521 -0.2448
 9806SOL     OW31424   6.543   0.657   8.510 -0.1283  0.0339  0.0596
 9806SOL    HW131425   6.624   0.609   8.490  0.6200  0.2139  2.3769
 9806SOL    HW231426   6.508   0.614   8.588 -0.8722  1.5883  0.6299
 9807SOL     OW31427   1.845   4.582   4.597 -0.4684 -0.0857  0.2457
 9807SOL    HW131428   1.839   4.488   4.616  0.2563 -0.2060 -0.0802
 9807SOL    HW231429   1.938   4.603   4.606 -0.5419  0.4819 -0.2219
 9808SOL     OW31430   4.461   1.611   1.164  0.7207 -0.5012 -0.1801
 9808SOL    HW131431   4.518   1.641   1.094  2.8946 -2.3067  0.6944
 9808SOL    HW231432   4.442   1.690   1.215 -0.6418  0.7864 -2.4962
 9809SOL     OW31433   3.741   4.169   1.443 -0.6754 -0.4601  0.1083
 9809SOL    HW131434   3.708   4.149   1.355  1.3931  0.6611 -1.0118
 9809SOL    HW231435   3.808   4.102   1.458  0.4748  0.6007 -0.1289
 9810SOL     OW31436   2.483   3.241   3.115  0.0345 -0.7250  0.4308
 9810SOL    HW131437   2.449   3.233   3.026  1.2385 -1.6842  0.0316
 9810SOL    HW231438   2.405   3.239   3.171 -0.6317 -1.7777 -0.4941
 9811SOL     OW31439   8.984   9.109   5.916 -0.2524 -0.1066  0.2735
 9811SOL    HW131440   9.011   9.186   5.966  1.2732  0.3656 -1.1569
 9811SOL    HW231441   8.946   9.145   5.836 -1.3952 -0.8505  0.4596
 9812SOL     OW31442   4.541   2.695   7.652  0.2576  0.6979  0.1465
 9812SOL    HW131443   4.624   2.656   7.680 -1.5170 -3.1505  0.7147
 9812SOL    HW231444   4.506   2.737   7.731  0.5606  0.1439  0.5794
 9813SOL     OW31445   5.023   0.408   3.182  0.3436  0.4515  0.3832
 9813SOL    HW131446   4.985   0.496   3.181  0.4200  0.4922  0.8948
 9813SOL    HW231447   5.028   0.385   3.274  0.4071 -0.0572  0.2551
 9814SOL     OW31448   4.926   1.382   1.972  0.3878 -0.5918  0.3968
 9814SOL    HW131449   4.882   1.449   2.024  0.0660  0.5079 -1.2045
 9814SOL    HW231450   4.876   1.303   1.987  0.9739 -0.5992  2.5944
 9815SOL     OW31451   8.370   4.250   8.810 -0.4798  0.0957 -0.2286
 9815SOL    HW131452   8.392   4.160   8.786  1.5607  1.3514 -4.0617
 9815SOL    HW231453   8.425   4.269   8.886 -1.2594 -1.9362  0.9098
 9816SOL     OW31454   4.316   5.407   1.220 -0.6283  0.1225  0.1004
 9816SOL    HW131455   4.236   5.400   1.166  1.8736  1.2855 -4.3004
 9816SOL    HW231456   4.339   5.500   1.216  1.9837 -0.4674 -0.6799
 9817SOL     OW31457   4.040   7.623   2.372 -0.4243 -0.1331 -0.2730
 9817SOL    HW131458   4.115   7.680   2.386  0.6305 -1.3146 -0.8953
 9817SOL    HW231459   3.985   7.636   2.449  1.6933 -1.1662  1.5360
 9818SOL     OW31460   3.136   0.474   3.093  0.0921 -0.1654 -0.5894
 9818SOL    HW131461   3.083   0.487   3.014 -0.6885 -0.6721 -0.1522
 9818SOL    HW231462   3.114   0.386   3.123 -0.4358  0.4206  0.8020
 9819SOL     OW31463   5.854   6.805  10.931  0.1886  0.7545 -0.4062
 9819SOL    HW131464   5.928   6.835  10.879  1.0685  1.2523  1.0693
 9819SOL    HW231465   5.824   6.884  10.977  0.2046  0.1083  0.7397
 9820SOL     OW31466   3.148   9.510   9.332 -0.0997 -0.1587  0.2859
 9820SOL    HW131467   3.220   9.508   9.395  0.3483  1.2048 -0.1653
 9820SOL    HW231468   3.183   9.556   9.256 -1.4819  0.6426  0.1095
 9821SOL     OW31469   3.995   8.297   9.997  0.3206 -0.1650 -0.0460
 9821SOL    HW131470   4.047   8.262   9.924 -0.5851 -2.5175  0.3579
 9821SOL    HW231471   4.043   8.271  10.075  1.0636  1.9834  0.2776
 9822SOL     OW31472   1.325   7.567   4.134  0.0611  0.1557 -0.0901
 9822SOL    HW131473   1.410   7.593   4.170  0.5415  0.7574 -1.5881
 9822SOL    HW231474   1.338   7.476   4.107  0.4114  0.3930 -0.7661
 9823SOL     OW31475   1.259   8.143   7.222  0.5012 -0.2750 -0.1556
 9823SOL    HW131476   1.304   8.133   7.138  0.8471  1.3959 -0.2032
 9823SOL    HW231477   1.293   8.071   7.275  1.8176 -0.1741 -0.8026
 9824SOL     OW31478   0.737   8.149   8.630  0.3525  0.5025  0.2402
 9824SOL    HW131479   0.713   8.148   8.537  1.9779 -0.6775 -0.2122
 9824SOL    HW231480   0.658   8.181   8.674 -0.3433  1.4231 -1.5598
 9825SOL     OW31481   9.960  10.474  10.918  0.6356  0.0015 -0.0118
 9825SOL    HW131482  10.002  10.390  10.902 -0.0378 -0.3884  0.1883
 9825SOL    HW231483   9.996  10.532  10.852  0.6518 -0.6041 -0.5506
 9826SOL     OW31484   1.892  10.158   2.180 -0.1205 -0.3227 -0.1123
 9826SOL    HW131485   1.886  10.168   2.085  0.4465 -0.1805 -0.1379
 9826SOL    HW231486   1.975  10.200   2.203  0.5558 -1.7888  0.2453
 9827SOL     OW31487   3.181   0.514   4.141  0.6893  0.0306 -0.0147
 9827SOL    HW131488   3.112   0.556   4.192  0.2748 -0.4273 -0.1881
 9827SOL    HW231489   3.207   0.439   4.193  0.8866  0.0676 -0.0605
 9828SOL     OW31490   3.695   8.772   5.052 -0.2481  0.2017  0.0893
 9828SOL    HW131491   3.683   8.787   5.146  0.8783 -0.1438  0.3032
 9828SOL    HW231492   3.625   8.711   5.028  0.1130 -0.5814  0.9543
 9829SOL     OW31493  10.711   4.920   1.652  0.2452 -0.3201 -0.2884
 9829SOL    HW131494  10.714   5.014   1.666 -2.8289  0.5166 -3.6351
 9829SOL    HW231495  10.790   4.901   1.600  0.1983  0.6589 -0.7292
 9830SOL     OW31496   3.888   3.044  10.943 -0.5641 -0.1110 -0.1028
 9830SOL    HW131497   3.882   3.033  11.038  1.0580 -0.6686 -0.0347
 9830SOL    HW231498   3.917   3.134  10.931  0.0167 -0.2853 -0.0260
 9831SOL     OW31499   2.263   0.654   2.246 -0.3757 -0.0607 -0.2426
 9831SOL    HW131500   2.338   0.709   2.267 -0.7846  0.0146  1.0851
 9831SOL    HW231501   2.247   0.671   2.153  0.1509  1.2504 -0.1203
 9832SOL     OW31502   1.902   2.171   6.621  0.2494  0.6645  0.1462
 9832SOL    HW131503   1.997   2.185   6.611  0.4429 -0.7907 -0.1995
 9832SOL    HW231504   1.881   2.210   6.706  1.4377 -0.2860  0.9013
 9833SOL     OW31505   4.261   4.287   2.806  0.3260 -0.4743 -0.0759
 9833SOL    HW131506   4.249   4.302   2.900 -0.4156 -0.4225 -0.1778
 9833SOL    HW231507   4.173   4.271   2.772  0.2910  1.7395 -1.1677
 9834SOL     OW31508   4.260   7.912   8.232 -0.0912  0.2167 -0.2397
 9834SOL    HW131509   4.347   7.879   8.255  1.2992  3.6865  0.0164
 9834SOL    HW231510   4.266   7.930   8.138 -0.0303  1.6445  0.0123
 9835SOL     OW31511   3.756   5.615   3.326 -0.1789  0.2883  0.5430
 9835SOL    HW131512   3.735   5.548   3.391  0.8531 -0.4184  0.1743
 9835SOL    HW231513   3.722   5.697   3.363  1.4436  0.1224  2.5383
 9836SOL     OW31514   6.674   5.734   1.916 -0.3646 -0.2557 -0.7352
 9836SOL    HW131515   6.645   5.820   1.886  0.4653  0.2343 -0.1877
 9836SOL    HW231516   6.770   5.742   1.924 -0.5334  0.0087  2.9192
 9837SOL     OW31517   2.722   1.200   6.377 -0.3144 -0.8132  0.2887
 9837SOL    HW131518   2.677   1.180   6.459  0.3171 -0.7599  0.6536
 9837SOL    HW231519   2.812   1.219   6.403  0.2055 -2.0438 -0.5520
 9838SOL     OW31520   4.627   4.964   0.620  0.4556  0.0692  0.0815
 9838SOL    HW131521   4.611   4.876   0.652 -0.6632  0.4259  0.5661
 9838SOL    HW231522   4.714   4.960   0.580  0.5644 -1.1542  0.4020
 9839SOL     OW31523   2.492   5.002   9.477  0.7638  0.0471  0.2536
 9839SOL    HW131524   2.528   5.067   9.537 -0.4925  1.3284 -0.3361
 9839SOL    HW231525   2.432   4.950   9.531  1.8459 -0.7429  0.7459
 9840SOL     OW31526   5.062   0.678  10.042 -0.0359  0.1693  0.4180
 9840SOL    HW131527   5.106   0.738  10.102  1.0860 -1.2642  1.0812
 9840SOL    HW231528   4.976   0.664  10.082  0.1296  0.4111  0.8735
 9841SOL     OW31529   8.980   1.964   9.383  0.2702  0.4898 -0.7401
 9841SOL    HW131530   9.033   1.892   9.417  2.2442  0.9090 -2.6921
 9841SOL    HW231531   8.935   1.928   9.307 -1.0384  0.5791 -0.0310
 9842SOL     OW31532   2.552   0.583   1.716 -0.3499 -0.1409 -0.3525
 9842SOL    HW131533   2.481   0.620   1.663  0.2019 -2.8792 -3.3726
 9842SOL    HW231534   2.508   0.541   1.790 -1.5187  1.1142 -0.3092
 9843SOL     OW31535  10.212  10.122   4.478  0.3120  0.3042  0.4884
 9843SOL    HW131536  10.230  10.138   4.571 -0.4126  2.0356  0.3760
 9843SOL    HW231537  10.150  10.049   4.477  0.5346  0.0961  1.3509
 9844SOL     OW31538   3.991   4.810   9.193 -0.0925  0.0094 -0.2234
 9844SOL    HW131539   3.906   4.844   9.221 -1.0241 -1.0514 -1.6078
 9844SOL    HW231540   4.040   4.887   9.164  0.2663  0.9193  2.5153
 9845SOL     OW31541   1.595   7.787   3.986  0.1143  0.2863 -0.4618
 9845SOL    HW131542   1.558   7.833   4.061  0.8784 -1.4809  1.1005
 9845SOL    HW231543   1.680   7.755   4.017  0.4977 -0.4454 -2.1143
 9846SOL     OW31544   6.651   2.085   6.689  0.9527 -0.9950 -0.4347
 9846SOL    HW131545   6.647   1.997   6.652  2.5566 -1.8328  1.2249
 9846SOL    HW231546   6.625   2.074   6.781 -2.1125  0.8639 -0.9073
 9847SOL     OW31547   1.286   2.540   8.828 -0.0439  0.5784 -0.3438
 9847SOL    HW131548   1.270   2.624   8.787  0.1114  1.3399  1.0916
 9847SOL    HW231549   1.213   2.528   8.889 -1.0798 -1.2186 -1.8169
 9848SOL     OW31550   5.084   8.177   8.754 -0.5452  0.3994  0.4507
 9848SOL    HW131551   5.176   8.149   8.762 -0.3479  0.5103 -1.0641
 9848SOL    HW231552   5.035   8.095   8.745 -0.6757  0.3136  1.8420
 9849SOL     OW31553   9.026   8.554   2.497  0.3429  0.7233 -0.1654
 9849SOL    HW131554   9.054   8.480   2.551  0.6447  0.5406 -0.5758
 9849SOL    HW231555   8.993   8.618   2.561  0.5631  0.4494  0.2291
 9850SOL     OW31556   2.909   3.009   1.677  0.1074 -0.1691  0.4423
 9850SOL    HW131557   2.820   3.027   1.646  0.9918  1.9674 -1.1522
 9850SOL    HW231558   2.904   3.021   1.772 -1.5172 -1.1843  0.5161
 9851SOL     OW31559   2.950   3.398   6.440  0.1198 -0.4620  0.2178
 9851SOL    HW131560   2.985   3.368   6.524  1.7897  0.7132 -0.0136
 9851SOL    HW231561   3.002   3.350   6.375  1.4252  1.3218 -0.1303
 9852SOL     OW31562   2.765   6.438   8.365 -0.4173 -0.1242 -0.0297
 9852SOL    HW131563   2.701   6.494   8.321 -0.5246  0.4943  0.9095
 9852SOL    HW231564   2.713   6.381   8.421 -0.1072  1.7673  2.3543
 9853SOL     OW31565   4.229   3.835  10.762  0.2759 -0.3241  0.7637
 9853SOL    HW131566   4.276   3.756  10.736 -0.5491 -0.7724  0.5785
 9853SOL    HW231567   4.182   3.862  10.683  0.2169  0.1037  0.9442
 9854SOL     OW31568   2.202   3.194   8.427  0.1790  0.4566 -0.1680
 9854SOL    HW131569   2.136   3.125   8.425 -1.6082  2.0898 -0.7809
 9854SOL    HW231570   2.272   3.162   8.370  1.1060 -2.3393  2.2736
 9855SOL     OW31571   6.216   3.049   3.654 -0.7311 -0.1568 -0.5228
 9855SOL    HW131572   6.199   3.123   3.712  2.3436 -0.4294  0.9742
 9855SOL    HW231573   6.264   3.087   3.580  0.2024 -0.4999 -0.1127
 9856SOL     OW31574   3.790   3.584   2.583  0.5099  0.2011 -0.4691
 9856SOL    HW131575   3.872   3.544   2.554 -0.2331 -0.7268 -1.3756
 9856SOL    HW231576   3.723   3.519   2.562 -0.4266  0.7948  0.5806
 9857SOL     OW31577   4.841   9.044   8.161  0.1130  0.1918 -0.4535
 9857SOL    HW131578   4.913   8.983   8.179 -0.4536 -0.1488  0.7860
 9857SOL    HW231579   4.765   8.987   8.146 -0.4352  0.5675  0.7766
 9858SOL     OW31580   4.070   8.284   0.718 -0.5843  0.2393  0.1759
 9858SOL    HW131581   4.125   8.252   0.647 -2.0645 -1.3892 -0.2885
 9858SOL    HW231582   4.120   8.357   0.755  1.3024 -0.3825 -0.9903
 9859SOL     OW31583   3.758   3.283   8.696 -0.3739  0.4245  0.3968
 9859SOL    HW131584   3.819   3.351   8.726 -1.3701  1.0952  0.9799
 9859SOL    HW231585   3.672   3.326   8.700 -0.7851 -0.1413 -1.4207
 9860SOL     OW31586   0.962   1.582   2.790 -0.0491  0.4760 -0.4333
 9860SOL    HW131587   0.914   1.525   2.729  0.8366 -0.5804 -0.1794
 9860SOL    HW231588   1.023   1.523   2.834 -0.7338  1.1876  1.5629
 9861SOL     OW31589   2.137   1.460   1.235 -0.1054  0.1001 -0.2320
 9861SOL    HW131590   2.053   1.469   1.190  0.6872  0.3957 -1.7298
 9861SOL    HW231591   2.179   1.384   1.194  0.0188 -0.5991  1.1111
 9862SOL     OW31592   4.293   3.992   9.395 -0.1743  0.2425 -0.3770
 9862SOL    HW131593   4.383   3.978   9.365 -0.3230  0.0983 -0.7622
 9862SOL    HW231594   4.299   4.067   9.455  0.1925  0.2600 -0.4322
 9863SOL     OW31595   2.939  10.738   8.645  0.1654 -0.3742 -0.6010
 9863SOL    HW131596   2.920  10.648   8.671  0.5062 -0.6146 -1.1541
 9863SOL    HW231597   2.871  10.759   8.581 -0.2367 -0.0464 -0.0657
 9864SOL     OW31598   6.743   0.195   3.146 -1.1437 -0.6116  0.2958
 9864SOL    HW131599   6.749   0.100   3.147  0.1882 -0.5487  0.4670
 9864SOL    HW231600   6.734   0.220   3.238  2.0251 -0.4476  0.6625
 9865SOL     OW31601   2.079   4.016   1.457  0.0431  0.0519  0.0257
 9865SOL    HW131602   2.050   4.099   1.420  0.5557  1.0223  1.7262
 9865SOL    HW231603   2.003   3.984   1.506 -0.5166 -1.0650 -1.4656
 9866SOL     OW31604   0.735   9.760   6.524  0.3738 -0.6249 -0.1183
 9866SOL    HW131605   0.733   9.724   6.435  1.8258 -0.9853 -0.0269
 9866SOL    HW231606   0.654   9.810   6.531 -0.5735 -1.9307 -1.0740
 9867SOL     OW31607   8.054   1.424  10.851  0.1181 -0.8274  0.4514
 9867SOL    HW131608   7.971   1.376  10.845 -0.2223 -0.3788  1.4387
 9867SOL    HW231609   8.071   1.454  10.761 -0.3718 -1.6075  0.0934
 9868SOL     OW31610   5.963   1.181   0.757  0.4340 -0.0834  0.4274
 9868SOL    HW131611   6.036   1.226   0.714 -0.7072  0.9443 -0.5001
 9868SOL    HW231612   5.981   1.088   0.742  1.7650  0.1179  0.6069
 9869SOL     OW31613   6.621  10.366   7.515 -0.2487  0.2922 -0.5921
 9869SOL    HW131614   6.607  10.435   7.579 -0.7075  1.5095 -1.9438
 9869SOL    HW231615   6.537  10.322   7.508 -0.5148  0.8556 -1.1032
 9870SOL     OW31616   3.552  10.602   1.787 -0.4043 -0.0373 -0.0124
 9870SOL    HW131617   3.528  10.694   1.776 -1.9394 -0.5920 -1.8177
 9870SOL    HW231618   3.498  10.556   1.724  0.2627 -2.2135  0.9292
 9871SOL     OW31619   2.687   3.534   7.715 -0.0445 -0.2000  0.1847
 9871SOL    HW131620   2.645   3.449   7.723 -0.7590  0.2055  0.9491
 9871SOL    HW231621   2.737   3.529   7.634  0.0933 -1.4117  0.3304
 9872SOL     OW31622   9.916   4.781  10.064 -0.7110 -0.3316  0.4221
 9872SOL    HW131623   9.925   4.789   9.969  0.8554 -0.4906  0.5313
 9872SOL    HW231624   9.861   4.855  10.089 -1.1947 -0.3249 -0.6142
 9873SOL     OW31625   4.643   4.156   9.137  0.2416 -0.4663 -0.3826
 9873SOL    HW131626   4.671   4.244   9.161 -0.6021  0.0181 -1.1134
 9873SOL    HW231627   4.547   4.161   9.134  0.2031 -1.2831 -0.8938
 9874SOL     OW31628   7.515   0.144   4.386 -0.3184  0.0266 -0.5329
 9874SOL    HW131629   7.478   0.056   4.393  0.8264 -0.6583 -2.3047
 9874SOL    HW231630   7.483   0.177   4.302  0.1857  0.8566 -0.4161
 9875SOL     OW31631   2.192   4.231   2.610  0.0556 -0.6585  1.0694
 9875SOL    HW131632   2.282   4.255   2.629  0.5687  0.7680 -2.4978
 9875SOL    HW231633   2.188   4.137   2.628  2.6000 -0.9928  0.2337
 9876SOL     OW31634   2.708  10.159   0.455 -0.2301  0.1307 -0.1840
 9876SOL    HW131635   2.755  10.205   0.525 -0.6128  0.7128 -0.3006
 9876SOL    HW231636   2.758  10.079   0.441  1.0331  0.9528 -0.6263
 9877SOL     OW31637   6.397   1.535   4.610 -0.6086  0.4121 -0.2004
 9877SOL    HW131638   6.340   1.608   4.635  0.3938  0.5615  1.8923
 9877SOL    HW231639   6.400   1.479   4.688  1.3820 -0.0472 -0.5437
 9878SOL     OW31640   2.242   2.804   5.217  0.2465 -0.2796 -0.2031
 9878SOL    HW131641   2.213   2.893   5.197  0.8997 -0.3155 -1.4074
 9878SOL    HW231642   2.161   2.756   5.232 -0.0854  0.8096  1.9705
 9879SOL     OW31643   9.531   6.145   1.157  0.1954  0.0434 -0.9031
 9879SOL    HW131644   9.620   6.146   1.124  0.9085 -0.3477  0.8723
 9879SOL    HW231645   9.490   6.223   1.121  1.0510 -0.1114 -2.2466
 9880SOL     OW31646   3.605   4.333   4.473  1.1258 -0.3655 -0.3754
 9880SOL    HW131647   3.595   4.388   4.395  0.6375  0.4745  0.2679
 9880SOL    HW231648   3.680   4.276   4.453  0.9390 -0.2296 -1.4933
 9881SOL     OW31649   4.989   0.164   8.768  0.3176  0.0303 -0.3308
 9881SOL    HW131650   4.951   0.090   8.816  0.6181 -0.4485 -0.8139
 9881SOL    HW231651   4.978   0.239   8.826  0.0492 -0.4056  0.1886
 9882SOL     OW31652   0.960   5.479   7.454  0.6844  0.3826  0.2904
 9882SOL    HW131653   1.033   5.417   7.458  1.1824  0.9766  0.6689
 9882SOL    HW231654   0.986   5.541   7.386  0.7397  0.8403  0.7207
 9883SOL     OW31655   1.567   0.073   7.347 -0.8489 -0.0803  0.0476
 9883SOL    HW131656   1.628   0.100   7.278 -0.0763  0.7031  1.0100
 9883SOL    HW231657   1.601   0.114   7.427 -1.7594 -0.9165  0.8905
 9884SOL     OW31658   7.805   3.014   7.062  0.3765 -0.0413  0.1665
 9884SOL    HW131659   7.869   3.054   7.003  0.8201  0.3861  0.9076
 9884SOL    HW231660   7.811   2.920   7.044  0.6750  0.0640 -0.3010
 9885SOL     OW31661   0.834   5.202   9.442  0.7151 -1.3764  0.0022
 9885SOL    HW131662   0.748   5.178   9.408 -0.6816 -0.1664  2.5005
 9885SOL    HW231663   0.829   5.187   9.536  3.6084 -2.2143  0.1407
 9886SOL     OW31664   2.595   8.800   8.964  0.2141  0.0393 -0.1760
 9886SOL    HW131665   2.572   8.886   8.998  1.2895  0.1756  0.2425
 9886SOL    HW231666   2.689   8.805   8.948 -0.0261 -0.4740 -1.8911
 9887SOL     OW31667   5.021   4.792   3.083 -0.5909  0.4394  0.1255
 9887SOL    HW131668   5.009   4.866   3.142 -1.1726  0.6568 -0.2598
 9887SOL    HW231669   5.090   4.739   3.124  0.0990  1.3802  0.2070
 9888SOL     OW31670   6.470   3.493   9.584  0.1631 -0.3800  0.1748
 9888SOL    HW131671   6.561   3.469   9.570 -0.2261 -0.1396 -3.9936
 9888SOL    HW231672   6.474   3.576   9.632  2.1835 -0.0204 -0.5269
 9889SOL     OW31673   0.127   5.486   0.363  0.5005 -0.4199  0.0287
 9889SOL    HW131674   0.079   5.434   0.298  0.2662 -2.5788  1.8387
 9889SOL    HW231675   0.080   5.471   0.445  2.3689  0.0730  1.2299
 9890SOL     OW31676   9.941   8.410   0.162  0.0357  0.3081 -0.6766
 9890SOL    HW131677  10.015   8.456   0.200  0.6945  0.9017 -2.6010
 9890SOL    HW231678   9.975   8.372   0.081 -1.3085 -0.9299 -0.6981
 9891SOL     OW31679   5.006   8.028   5.704 -0.4404 -0.3595  0.1420
 9891SOL    HW131680   5.062   8.101   5.678 -0.4524 -0.3619  0.1084
 9891SOL    HW231681   4.975   8.051   5.791 -0.8768 -0.0734 -0.0892
 9892SOL     OW31682   1.122  10.033   9.528  0.9255  0.4036  0.0979
 9892SOL    HW131683   1.151  10.112   9.573 -0.5968  1.2642 -0.3948
 9892SOL    HW231684   1.156  10.041   9.439  2.1198 -0.2841  0.4694
 9893SOL     OW31685   2.738   5.289   0.022  0.2452  0.5570 -0.0750
 9893SOL    HW131686   2.713   5.324   0.108 -1.4104  0.9930 -0.6929
 9893SOL    HW231687   2.747   5.367  -0.033 -1.8586  0.1616 -1.0641
 9894SOL     OW31688   4.201   8.490   7.220  0.2977 -0.0786 -0.6311
 9894SOL    HW131689   4.268   8.423   7.231  0.2470 -0.0966 -0.4200
 9894SOL    HW231690   4.120   8.441   7.207  0.4580 -0.0649 -1.8042
 9895SOL     OW31691   6.267   5.188  10.092  0.1975 -0.0286 -0.7374
 9895SOL    HW131692   6.299   5.247  10.160  0.0632 -0.0950 -0.6150
 9895SOL    HW231693   6.186   5.229  10.061 -0.3182 -0.5372 -0.1075
 9896SOL     OW31694   1.362   6.912   4.774 -0.3782 -0.1947 -0.0884
 9896SOL    HW131695   1.455   6.928   4.758 -0.3810 -0.3558 -0.2625
 9896SOL    HW231696   1.359   6.869   4.859 -0.2797 -0.3505 -0.1640
 9897SOL     OW31697   8.254   1.195   5.714 -0.1328  0.4280  0.0659
 9897SOL    HW131698   8.324   1.172   5.776  0.6984  2.4993 -0.0345
 9897SOL    HW231699   8.254   1.124   5.650 -0.2897 -1.2176  1.8187
 9898SOL     OW31700  10.204   4.788  11.071 -0.4514  0.1192  0.1513
 9898SOL    HW131701  10.277   4.819  11.124  0.2999 -0.6849 -0.3979
 9898SOL    HW231702  10.168   4.867  11.031 -0.9125  0.7236  1.6717
 9899SOL     OW31703   2.354   1.480   0.590 -0.5040 -0.0416 -0.7045
 9899SOL    HW131704   2.372   1.418   0.660 -1.2831  1.2117  0.6745
 9899SOL    HW231705   2.298   1.547   0.631  0.3342  1.5939 -2.0941
 9900SOL     OW31706   3.495   3.639   5.100  0.2178 -0.0663 -0.2310
 9900SOL    HW131707   3.587   3.654   5.121  0.7083 -1.0516 -1.5100
 9900SOL    HW231708   3.497   3.588   5.018 -1.4973  1.3854 -1.2616
 9901SOL     OW31709  10.265   3.839   5.968 -0.3244 -0.0941  0.0974
 9901SOL    HW131710  10.224   3.920   5.997  1.2783  0.7520  0.1300
 9901SOL    HW231711  10.254   3.839   5.873  0.4446  0.6243  0.0008
 9902SOL     OW31712   7.232  10.852   5.567  0.0816  0.0292 -0.7285
 9902SOL    HW131713   7.153  10.855   5.513 -0.5426 -1.2580  0.0498
 9902SOL    HW231714   7.275  10.770   5.542  1.0951  0.6354 -1.0172
 9903SOL     OW31715   5.388   3.378   3.802 -0.0173  0.2938  0.1578
 9903SOL    HW131716   5.441   3.308   3.767 -0.0998  0.9878 -1.4362
 9903SOL    HW231717   5.397   3.450   3.739 -0.7463  1.3551  1.2009
 9904SOL     OW31718  10.736   5.767   1.802 -0.1522  0.3199 -0.2361
 9904SOL    HW131719  10.695   5.837   1.853  1.3719  1.8710 -1.0709
 9904SOL    HW231720  10.669   5.743   1.737 -0.7059  0.9588  0.0835
 9905SOL     OW31721  10.169  10.353   5.310 -0.5406 -0.3713  0.1922
 9905SOL    HW131722  10.110  10.317   5.244  0.9260 -2.5744 -0.0210
 9905SOL    HW231723  10.211  10.428   5.267 -1.9200  0.2076 -0.2119
 9906SOL     OW31724   1.506   4.565   5.473 -0.5717 -0.0653  0.8927
 9906SOL    HW131725   1.459   4.645   5.450  0.3712  0.4783  0.8127
 9906SOL    HW231726   1.443   4.495   5.457 -0.8051  0.4968 -0.8789
 9907SOL     OW31727   9.237   2.566   1.497  0.0809 -0.3956 -0.0235
 9907SOL    HW131728   9.271   2.580   1.586  0.4132  0.0760 -0.2205
 9907SOL    HW231729   9.314   2.538   1.446  0.3694  1.3873 -0.6419
 9908SOL     OW31730   1.698  10.179   0.359 -0.1634 -0.1405  0.4850
 9908SOL    HW131731   1.719  10.105   0.415 -1.5750 -1.2589 -0.3762
 9908SOL    HW231732   1.673  10.249   0.419  0.4211 -0.6052  1.2842
 9909SOL     OW31733   2.101   2.627   0.270 -0.0098  0.1068 -0.3162
 9909SOL    HW131734   2.158   2.614   0.346  0.2251  1.1645 -0.2984
 9909SOL    HW231735   2.134   2.565   0.205  0.9566  0.4670 -0.1822
 9910SOL     OW31736   2.446   2.722   6.787 -0.5550 -0.2773  0.0132
 9910SOL    HW131737   2.526   2.746   6.738 -0.2285  0.4542  0.8709
 9910SOL    HW231738   2.395   2.670   6.725  0.6726 -0.9198 -0.4952
 9911SOL     OW31739   2.391   3.847   7.886 -0.5473  0.0549  0.3676
 9911SOL    HW131740   2.406   3.823   7.795 -3.2750  0.2938 -0.2438
 9911SOL    HW231741   2.439   3.782   7.937  0.2273 -0.6754 -1.2455
 9912SOL     OW31742   8.717   7.930  10.305 -0.3564  0.3735  0.6070
 9912SOL    HW131743   8.719   7.853  10.248  1.5686  0.6097  0.3023
 9912SOL    HW231744   8.735   7.895  10.392 -0.3571  0.3713  0.6058
 9913SOL     OW31745   7.346  10.466   9.393  0.1390 -0.1899 -0.0888
 9913SOL    HW131746   7.363  10.449   9.486 -2.0948  2.4888  0.9506
 9913SOL    HW231747   7.261  10.509   9.391  0.5061  0.6968 -3.3134
 9914SOL     OW31748   4.437   7.499   2.064  0.3710  0.0766  0.3696
 9914SOL    HW131749   4.512   7.559   2.054 -0.2891  0.8995  0.2745
 9914SOL    HW231750   4.360   7.555   2.054 -0.2628 -0.9159 -0.4486
 9915SOL     OW31751   4.628   8.279   2.390 -0.2083 -0.2366 -0.2858
 9915SOL    HW131752   4.576   8.336   2.334 -0.8641 -0.1013  0.4514
 9915SOL    HW231753   4.580   8.275   2.473  1.3268  0.5025  0.6848
 9916SOL     OW31754   8.523   0.699   2.251  0.0469 -0.7837 -0.1398
 9916SOL    HW131755   8.466   0.729   2.181  0.4361  1.2027  0.3090
 9916SOL    HW231756   8.545   0.609   2.228  0.3047 -0.1550 -2.6637
 9917SOL     OW31757   1.791  10.020   1.258 -0.1593  0.4676  0.5569
 9917SOL    HW131758   1.863  10.032   1.319 -0.4691 -0.5754  1.1529
 9917SOL    HW231759   1.772   9.927   1.261 -0.5326  0.4802 -0.7451
 9918SOL     OW31760   3.770   9.414  10.543 -0.2595 -0.3124 -0.0044
 9918SOL    HW131761   3.694   9.405  10.600 -0.9019  0.2800 -0.7460
 9918SOL    HW231762   3.773   9.330  10.496 -0.8980 -0.0730 -0.4910
 9919SOL     OW31763   6.231   8.212   4.386 -0.0543  0.3388 -0.3319
 9919SOL    HW131764   6.208   8.299   4.419 -0.3875 -0.2177  0.9729
 9919SOL    HW231765   6.321   8.221   4.355  1.3116  0.3195  3.2106
 9920SOL     OW31766   0.449   1.651   7.588 -0.3478 -0.3544 -0.1297
 9920SOL    HW131767   0.359   1.680   7.602 -0.3994 -0.2043 -0.7561
 9920SOL    HW231768   0.453   1.627   7.495 -0.5729 -3.2213  0.4860
 9921SOL     OW31769   2.867   1.310   2.900 -0.4934  0.2864 -0.2008
 9921SOL    HW131770   2.923   1.372   2.947  0.2240  1.4765 -2.4578
 9921SOL    HW231771   2.928   1.259   2.846 -1.2601 -1.0860  0.1988
 9922SOL     OW31772   6.545   0.077   1.330 -0.0038  0.0608  0.5215
 9922SOL    HW131773   6.518   0.102   1.418  0.2861  0.7861  0.4142
 9922SOL    HW231774   6.484   0.007   1.305 -0.4258  0.2158  1.0895
 9923SOL     OW31775   3.419   9.803  10.902 -0.2692 -0.2713  0.7353
 9923SOL    HW131776   3.460   9.717  10.891 -0.8980 -0.7888  2.3037
 9923SOL    HW231777   3.409   9.814  10.996 -1.7126  0.8143  0.4963
 9924SOL     OW31778   4.942   3.393   8.562 -0.1045 -0.4701  0.2016
 9924SOL    HW131779   4.966   3.360   8.476  1.7056  1.8634 -0.2847
 9924SOL    HW231780   4.893   3.474   8.545 -1.4836 -1.0047  1.3689
 9925SOL     OW31781   0.730   6.604   4.193  0.3304  0.7911  0.7289
 9925SOL    HW131782   0.654   6.590   4.250  0.3993  1.6368  1.0574
 9925SOL    HW231783   0.711   6.688   4.150  0.9058  0.8217  0.5374
 9926SOL     OW31784   7.598   4.372   7.839 -0.9243  0.3625 -0.1033
 9926SOL    HW131785   7.649   4.353   7.918 -1.0256 -0.5364 -0.2483
 9926SOL    HW231786   7.614   4.297   7.781 -0.6297  1.1391 -1.0600
 9927SOL     OW31787   0.453  10.152   7.524  0.2877  0.5877 -0.5587
 9927SOL    HW131788   0.418  10.211   7.458 -0.1613 -2.3464 -3.2212
 9927SOL    HW231789   0.547  10.173   7.528  0.5874  0.1107 -3.1623
 9928SOL     OW31790   2.991   2.801   7.038  0.3529  0.1008  0.1849
 9928SOL    HW131791   3.002   2.730   7.101  0.9410  0.0096 -0.0143
 9928SOL    HW231792   2.909   2.779   6.993 -0.6945  0.7909  1.6877
 9929SOL     OW31793   8.842  10.432  10.744  0.0348 -0.0692 -0.3197
 9929SOL    HW131794   8.876  10.493  10.678 -0.5009 -0.6882 -1.1935
 9929SOL    HW231795   8.810  10.488  10.815 -0.4031  0.6636 -1.0845
 9930SOL     OW31796   3.589   1.998  10.952  0.2926  0.1264 -0.3788
 9930SOL    HW131797   3.601   2.082  10.998 -0.8863  0.1776 -0.1321
 9930SOL    HW231798   3.660   1.995  10.889  1.2690  0.6013  0.6583
 9931SOL     OW31799   6.940   3.753  10.148 -0.2302 -0.4419  0.0595
 9931SOL    HW131800   6.908   3.669  10.181 -0.4811  0.4291  2.2407
 9931SOL    HW231801   6.954   3.805  10.227  1.6801  0.9678 -1.1249
 9932SOL     OW31802   7.306   5.641   0.505 -0.7931 -0.4092  0.2299
 9932SOL    HW131803   7.347   5.725   0.482 -2.7773  0.0959 -1.8268
 9932SOL    HW231804   7.312   5.637   0.601  1.2506  1.0330  0.2256
 9933SOL     OW31805   6.243   8.176   2.085 -0.0939  0.1215  0.9870
 9933SOL    HW131806   6.280   8.103   2.134  0.6865  1.2660  2.1510
 9933SOL    HW231807   6.273   8.254   2.131 -0.8811  1.1926 -0.2457
 9934SOL     OW31808   7.047   3.751   1.058  0.1937 -0.3748  0.0247
 9934SOL    HW131809   7.100   3.754   0.979 -2.1391  1.5453 -1.6033
 9934SOL    HW231810   7.075   3.826   1.110 -1.6988  1.5038 -1.4947
 9935SOL     OW31811   3.042   8.037   7.937  0.2050 -0.2807 -0.2082
 9935SOL    HW131812   3.082   8.055   8.022 -0.2357 -1.1110  0.1858
 9935SOL    HW231813   3.106   7.984   7.890 -0.7132 -2.4044  0.7696
 9936SOL     OW31814   0.265  10.861   3.666 -0.8677 -0.4852 -0.2679
 9936SOL    HW131815   0.195  10.921   3.640 -0.3682  0.1699 -0.1378
 9936SOL    HW231816   0.292  10.820   3.584 -2.2750 -1.7239 -0.1363
 9937SOL     OW31817  10.350   7.846   8.775 -0.3401  0.5577  0.0826
 9937SOL    HW131818  10.441   7.874   8.764  0.4493 -1.8708 -0.1855
 9937SOL    HW231819  10.325   7.880   8.861  0.6905  1.5582  0.0149
 9938SOL     OW31820   2.708  10.988   9.408 -0.0693  0.4166  0.4196
 9938SOL    HW131821   2.726  11.082   9.403 -1.1736  0.7088  1.4420
 9938SOL    HW231822   2.644  10.973   9.338 -1.2523  0.8117  1.3700
 9939SOL     OW31823   2.547   7.652   9.118  0.0114  0.5365 -1.0329
 9939SOL    HW131824   2.506   7.708   9.185  0.9595  0.8892 -0.7335
 9939SOL    HW231825   2.487   7.657   9.043  0.0306  1.8869 -0.9832
 9940SOL     OW31826   4.023  10.794  10.448  0.2094 -0.2272 -0.5860
 9940SOL    HW131827   4.053  10.885  10.458 -2.5604  0.7578 -0.5690
 9940SOL    HW231828   4.086  10.755  10.387  1.2822  1.7829 -0.8516
 9941SOL     OW31829   4.731   2.487   4.979  0.1914 -0.4215  0.0731
 9941SOL    HW131830   4.779   2.435   5.044  0.0336 -0.4688  0.1533
 9941SOL    HW231831   4.669   2.539   5.032  0.9844  0.5436  0.0858
 9942SOL     OW31832   1.411   3.826   0.010 -0.3951 -0.3856 -0.0082
 9942SOL    HW131833   1.403   3.787  -0.077 -1.3563  1.7878 -0.9689
 9942SOL    HW231834   1.321   3.826   0.044 -0.0451 -1.1190  0.9650
 9943SOL     OW31835   0.362   2.051   8.695 -0.1365 -0.1125  0.4866
 9943SOL    HW131836   0.284   2.054   8.751 -1.2776 -1.8384 -0.8851
 9943SOL    HW231837   0.428   2.101   8.742 -2.4138  2.4972  1.1785
 9944SOL     OW31838   4.774   0.702   5.374  0.0112 -0.0846  0.4555
 9944SOL    HW131839   4.699   0.662   5.330 -0.4328  0.0771  1.0482
 9944SOL    HW231840   4.844   0.636   5.367 -0.2332 -0.3046  0.0452
 9945SOL     OW31841   3.143   2.570   4.508 -0.1736  0.3058 -0.6012
 9945SOL    HW131842   3.096   2.582   4.591 -0.1441 -0.3341 -0.4918
 9945SOL    HW231843   3.087   2.514   4.455  0.4288 -0.4131 -0.4930
 9946SOL     OW31844   9.692   6.841   4.137 -0.0699  0.2267  0.1101
 9946SOL    HW131845   9.661   6.766   4.188  2.1203 -0.5383  0.4571
 9946SOL    HW231846   9.654   6.917   4.180 -0.0693 -0.5427  1.5389
 9947SOL     OW31847   5.409   6.421   2.825 -0.7218 -0.3332 -0.6604
 9947SOL    HW131848   5.415   6.336   2.782 -1.6948 -0.5401 -0.4077
 9947SOL    HW231849   5.403   6.402   2.918 -1.2298 -0.0141 -0.6192
 9948SOL     OW31850   5.730   2.595   1.698 -0.2350  0.1720 -0.1071
 9948SOL    HW131851   5.763   2.562   1.614 -1.1658 -1.9424  0.2737
 9948SOL    HW231852   5.635   2.586   1.692 -0.4631  1.8661  0.4688
 9949SOL     OW31853   7.181   8.358   6.162  0.6065  0.4328  0.4138
 9949SOL    HW131854   7.182   8.414   6.240 -2.6149 -0.8287  1.5586
 9949SOL    HW231855   7.214   8.274   6.193  2.2840  0.7407 -0.4478
 9950SOL     OW31856   3.013   5.265   9.628  0.5554 -0.4095 -0.3965
 9950SOL    HW131857   2.962   5.324   9.683 -0.1330  0.0524 -1.4854
 9950SOL    HW231858   3.069   5.217   9.689  0.9675  1.1994  0.5418
 9951SOL     OW31859   6.223   5.732  10.605  0.0689 -0.0989 -0.2938
 9951SOL    HW131860   6.290   5.706  10.542  0.7930  0.6675  0.1464
 9951SOL    HW231861   6.210   5.654  10.659  1.5905  0.1153  0.4607
 9952SOL     OW31862   1.162   8.926   1.711 -0.7701 -0.0077 -0.3400
 9952SOL    HW131863   1.186   8.986   1.641  0.0594 -0.3395 -0.3469
 9952SOL    HW231864   1.070   8.904   1.693 -0.8878  0.7416 -0.7005
 9953SOL     OW31865   2.301  10.959   2.034  0.7396  0.4961 -0.0041
 9953SOL    HW131866   2.331  10.991   1.949 -0.5589 -1.0564 -1.0836
 9953SOL    HW231867   2.320  11.032   2.094  0.8476  1.9899 -1.7561
 9954SOL     OW31868   1.571   4.450   3.553 -0.1843 -0.0215 -0.5107
 9954SOL    HW131869   1.580   4.486   3.465  0.9198  0.6094 -0.1528
 9954SOL    HW231870   1.632   4.376   3.555  1.0525  0.9759  0.2272
 9955SOL     OW31871   2.951   4.944   0.957  0.0298 -0.4008  0.0784
 9955SOL    HW131872   2.970   4.891   1.034  0.1992 -0.2692  0.1270
 9955SOL    HW231873   3.020   5.010   0.955 -0.4438  0.1092  0.2826
 9956SOL     OW31874   0.642   3.803  10.663 -0.5037  0.4118 -0.2620
 9956SOL    HW131875   0.638   3.795  10.759 -1.3945 -0.1797 -0.3356
 9956SOL    HW231876   0.643   3.898  10.647 -1.4055  0.5377  0.3116
 9957SOL     OW31877   3.191   0.204   9.198 -0.4379 -0.1654 -0.6453
 9957SOL    HW131878   3.250   0.274   9.171 -0.8298 -0.1880 -1.5851
 9957SOL    HW231879   3.237   0.124   9.177  0.7968 -0.2797  2.0761
 9958SOL     OW31880   5.495   0.094   8.651  0.2641 -0.0782  0.7085
 9958SOL    HW131881   5.403   0.101   8.625  0.0099  1.1283  1.8667
 9958SOL    HW231882   5.505   0.003   8.679 -0.3516 -0.4350 -0.1667
 9959SOL     OW31883   3.025   6.526   6.518  0.0164 -0.3165  0.1688
 9959SOL    HW131884   3.029   6.476   6.599  1.2747  0.0055  0.3296
 9959SOL    HW231885   3.106   6.502   6.472  0.2483  0.9426 -0.1139
 9960SOL     OW31886   3.117   6.362   2.732 -0.5732 -0.4382 -0.0412
 9960SOL    HW131887   3.197   6.414   2.733  0.7714 -2.1130  4.1184
 9960SOL    HW231888   3.048   6.423   2.706  1.6548  1.8384 -0.8939
 9961SOL     OW31889   5.239   2.601   6.222 -0.4297 -0.0207 -0.2536
 9961SOL    HW131890   5.219   2.542   6.149 -1.2466 -0.9461  0.7035
 9961SOL    HW231891   5.335   2.608   6.221 -0.4869  1.7882 -2.7933
 9962SOL     OW31892   7.701  10.439   4.719 -0.2555 -0.7391  0.3565
 9962SOL    HW131893   7.797  10.439   4.710 -0.0942  0.6107  1.6491
 9962SOL    HW231894   7.669  10.474   4.636  0.2180 -2.8849 -0.8166
 9963SOL     OW31895   9.371   7.909   6.829  0.2445  0.1168  0.4496
 9963SOL    HW131896   9.407   7.820   6.827  0.6621  0.3026 -0.6361
 9963SOL    HW231897   9.276   7.896   6.831  0.3142 -0.3528  1.0471
 9964SOL     OW31898  10.481   1.879  10.072 -0.0798 -0.0584 -0.3313
 9964SOL    HW131899  10.415   1.947  10.067 -0.3325 -0.3232 -0.6538
 9964SOL    HW231900  10.563   1.923  10.050 -0.3554 -0.0207 -1.3140
 9965SOL     OW31901   9.482   3.033   4.246 -0.2500 -0.4112  0.4137
 9965SOL    HW131902   9.393   3.061   4.224  0.3120  0.1489 -1.3976
 9965SOL    HW231903   9.509   2.977   4.173  0.6847 -1.0384  1.2089
 9966SOL     OW31904   8.813   5.905  10.327  0.1910 -0.4363  0.0345
 9966SOL    HW131905   8.770   5.863  10.253 -0.0739  0.4019 -0.3023
 9966SOL    HW231906   8.901   5.869  10.328 -0.3310 -1.7762  0.4060
 9967SOL     OW31907  10.345   0.458   1.219  0.0575  0.8616  0.0103
 9967SOL    HW131908  10.310   0.432   1.304  0.6735  2.1388  0.6798
 9967SOL    HW231909  10.296   0.537   1.196 -0.3882  0.3039 -1.0337
 9968SOL     OW31910   0.665   7.034   6.972 -0.0638 -0.1169  0.7089
 9968SOL    HW131911   0.760   7.041   6.970 -0.1816  1.5992 -1.5587
 9968SOL    HW231912   0.647   6.943   6.947  0.9692  0.2716 -1.6939
 9969SOL     OW31913   0.700   8.063   1.445 -0.6547  0.4734 -0.5804
 9969SOL    HW131914   0.607   8.043   1.433 -0.0320 -2.6485 -1.0142
 9969SOL    HW231915   0.717   8.040   1.537 -0.4440  1.8653 -0.2462
 9970SOL     OW31916  10.961   2.064   0.218  0.4850 -0.0803  0.4543
 9970SOL    HW131917  10.990   2.139   0.166 -0.2063 -0.6412 -0.7807
 9970SOL    HW231918  10.878   2.093   0.257 -0.9968 -0.9049 -1.8624
 9971SOL     OW31919   1.249   4.318   8.833  0.0511 -0.3006 -0.3235
 9971SOL    HW131920   1.183   4.287   8.771  0.4468 -2.3020  0.1718
 9971SOL    HW231921   1.332   4.296   8.792  0.4905  2.3491 -1.0150
 9972SOL     OW31922   2.117   9.226   4.083  0.0816 -0.4320  0.1146
 9972SOL    HW131923   2.187   9.168   4.054 -0.2451 -0.2758 -1.0380
 9972SOL    HW231924   2.109   9.292   4.014  0.1080  0.7169  1.1590
 9973SOL     OW31925   2.974   0.941   6.190 -0.2691 -0.2218  0.0464
 9973SOL    HW131926   2.951   0.956   6.282  1.0531 -0.5430  0.4501
 9973SOL    HW231927   3.038   0.870   6.193 -0.4358 -0.4468 -1.1593
 9974SOL     OW31928   0.942   2.434   2.305 -0.1087 -0.1865  0.7143
 9974SOL    HW131929   0.861   2.383   2.302 -0.5274  0.4409 -3.0483
 9974SOL    HW231930   1.011   2.370   2.291 -0.1626 -0.3602  1.2088
 9975SOL     OW31931  10.092  11.096   8.442 -0.1483 -0.1706  0.2311
 9975SOL    HW131932  10.058  11.051   8.364 -1.8995  0.0547  0.8292
 9975SOL    HW231933  10.090  11.028   8.510  0.3968 -0.0857  0.3323
 9976SOL     OW31934   6.852   3.112  10.369  0.4831  0.3800  0.4773
 9976SOL    HW131935   6.808   3.033  10.400  1.4293  0.4052  1.9926
 9976SOL    HW231936   6.922   3.079  10.312  0.6934  0.1460  0.8723
 9977SOL     OW31937   5.081   3.730   1.038 -0.2089 -0.1488 -0.5075
 9977SOL    HW131938   5.147   3.684   0.987  2.5732  1.8599  0.9641
 9977SOL    HW231939   5.055   3.667   1.106  1.9015 -0.3536  0.1913
 9978SOL     OW31940   0.333   5.675   5.041 -0.4399 -0.2270  1.0371
 9978SOL    HW131941   0.263   5.740   5.035 -0.8299 -0.6535  0.9190
 9978SOL    HW231942   0.411   5.726   5.062 -0.9613  0.1513  2.1545
 9979SOL     OW31943  10.574   5.122   3.741 -0.0122 -0.2418 -0.0714
 9979SOL    HW131944  10.667   5.144   3.732 -0.2679  0.4561 -1.2098
 9979SOL    HW231945  10.552   5.147   3.831  0.8201 -0.1022  0.0993
 9980SOL     OW31946   9.110   5.035  10.916  0.0098  0.3513 -0.3731
 9980SOL    HW131947   9.067   5.090  10.981  1.8478  1.5240 -0.0797
 9980SOL    HW231948   9.188   5.084  10.889  1.7159 -2.0180 -0.1656
 9981SOL     OW31949   1.715  10.383   9.786  0.4815  0.1267  0.7379
 9981SOL    HW131950   1.651  10.455   9.791  0.7463  0.3888  0.3881
 9981SOL    HW231951   1.791  10.415   9.835  0.8027  0.3003  0.1289
 9982SOL     OW31952   1.621   3.929   5.185  0.5953  0.1946  0.2906
 9982SOL    HW131953   1.639   3.970   5.101  1.6666 -1.0040 -0.0913
 9982SOL    HW231954   1.584   3.999   5.239 -0.5123  0.8806 -1.2901
 9983SOL     OW31955   4.619   2.129   7.416  0.4865 -0.4467 -0.4513
 9983SOL    HW131956   4.578   2.213   7.398 -1.1542 -1.0469  0.2610
 9983SOL    HW231957   4.633   2.090   7.330 -0.0145 -0.0112 -0.7350
 9984SOL     OW31958   2.448   8.683  10.038  0.1631 -0.3059  0.4201
 9984SOL    HW131959   2.459   8.751   9.971  2.1213 -1.9413 -1.0544
 9984SOL    HW231960   2.354   8.667  10.041 -0.3894  2.4795  0.8996
 9985SOL     OW31961   1.530  10.491   0.189  0.4046  0.4637 -0.1557
 9985SOL    HW131962   1.467  10.522   0.123 -0.7608  0.3387  0.8643
 9985SOL    HW231963   1.556  10.405   0.158 -0.1839  0.3793 -0.4336
 9986SOL     OW31964   2.087   6.428   1.104  0.1207 -0.3668 -0.2731
 9986SOL    HW131965   2.105   6.522   1.108 -0.7069 -0.1916 -0.4258
 9986SOL    HW231966   2.138   6.391   1.175  3.1725 -0.2767 -2.2470
 9987SOL     OW31967   0.156   4.224   3.171 -0.4454  0.2079  0.5846
 9987SOL    HW131968   0.204   4.261   3.246  1.0263 -0.0437 -0.1936
 9987SOL    HW231969   0.099   4.157   3.209 -0.5392  0.8452  1.5990
 9988SOL     OW31970   8.984   5.596   3.913  0.5582 -0.0695  0.5393
 9988SOL    HW131971   8.924   5.617   3.985  0.2893 -1.4530  0.7480
 9988SOL    HW231972   8.942   5.634   3.836  0.1262  0.1970  0.8943
 9989SOL     OW31973   1.888   1.028   0.447  0.0516 -0.0354  0.2996
 9989SOL    HW131974   1.837   0.984   0.516 -1.3063  1.0097  0.0151
 9989SOL    HW231975   1.940   1.093   0.493  0.3908 -0.4413  0.4953
 9990SOL     OW31976   1.453   3.653   4.308 -0.0449 -0.1485  0.3578
 9990SOL    HW131977   1.429   3.560   4.312  0.6875 -0.5602 -2.4939
 9990SOL    HW231978   1.481   3.674   4.397  0.5909 -2.8964  0.9093
 9991SOL     OW31979   0.987   3.848   6.199  0.1664  0.1229 -0.2040
 9991SOL    HW131980   0.966   3.906   6.126  0.6562 -1.1636 -1.4067
 9991SOL    HW231981   0.926   3.874   6.268 -0.5872  1.1097 -1.2008
 9992SOL     OW31982   1.089   4.911   0.306  0.3868 -0.3982  0.4471
 9992SOL    HW131983   1.010   4.934   0.258  0.4765 -1.9186 -0.4979
 9992SOL    HW231984   1.157   4.967   0.269  0.3123 -1.0708 -0.7485
 9993SOL     OW31985   6.603   2.858   5.656 -0.0602 -0.0636 -0.1865
 9993SOL    HW131986   6.520   2.889   5.693  0.5062 -1.0892  2.1435
 9993SOL    HW231987   6.638   2.798   5.722  1.9159 -0.6933 -1.6943
 9994SOL     OW31988   2.704   6.296   2.232 -0.1136 -0.1117 -0.2026
 9994SOL    HW131989   2.749   6.217   2.262  1.8309  0.0921 -2.2508
 9994SOL    HW231990   2.664   6.333   2.311  1.6810 -1.4030  1.4109
 9995SOL     OW31991   4.107   9.657   0.499  0.0968  0.6237  0.4717
 9995SOL    HW131992   4.030   9.714   0.499  1.0817  2.0470  1.3468
 9995SOL    HW231993   4.153   9.679   0.581  0.8828 -0.9602  0.5016
 9996SOL     OW31994  10.383   8.923   6.103 -0.2282  0.4861  0.2359
 9996SOL    HW131995  10.347   8.918   6.192  2.2278 -1.3339  1.2531
 9996SOL    HW231996  10.359   8.839   6.063  0.3447  0.4738 -0.0893
 9997SOL     OW31997   4.752   2.463   1.573  0.3369 -0.2268 -0.0723
 9997SOL    HW131998   4.717   2.541   1.529  0.5915  0.3188  0.6790
 9997SOL    HW231999   4.846   2.467   1.557  0.2415 -0.9515 -0.9113
 9998SOL     OW32000   8.684  10.922   9.995 -0.1157  0.6460 -0.2789
 9998SOL    HW132001   8.667  11.006  10.038  0.9965 -0.1986  1.9848
 9998SOL    HW232002   8.599  10.895   9.959 -1.0918  1.5076  1.2743
 9999SOL     OW32003   6.170   6.236   7.998 -0.3756  0.1391 -0.5691
 9999SOL    HW132004   6.220   6.159   7.972 -0.7746 -0.6954  1.0281
 9999SOL    HW232005   6.085   6.225   7.956 -0.0110  0.3639 -1.3736
10000SOL     OW32006   6.017   3.730   2.971 -0.1969 -0.2890 -0.0419
10000SOL    HW132007   6.083   3.682   2.921  0.2811 -0.4484  0.7229
10000SOL    HW232008   6.042   3.716   3.063 -1.8414 -1.1588  0.3148
10001SOL     OW32009   4.214   4.040   0.222 -0.2766 -0.0751  0.4656
10001SOL    HW132010   4.286   4.069   0.166 -0.9514  1.2730  0.2616
10001SOL    HW232011   4.248   3.962   0.265  1.1410  0.2688  0.0435
10002SOL     OW32012   0.929   7.067   2.963 -0.1423 -0.0535  0.1098
10002SOL    HW132013   0.955   6.998   2.902  1.7722  1.4497 -0.8697
10002SOL    HW232014   0.964   7.038   3.048  3.2388  0.9353 -0.8012
10003SOL     OW32015   2.461   4.644   1.223 -0.2580  0.3217  0.1567
10003SOL    HW132016   2.436   4.674   1.310 -1.3859  0.1403 -0.0871
10003SOL    HW232017   2.379   4.642   1.174 -0.5341 -3.9546  0.3881
10004SOL     OW32018   1.351   6.952   5.872 -0.2531 -0.3384  0.2972
10004SOL    HW132019   1.409   6.915   5.938 -0.1149  0.1946  0.4797
10004SOL    HW232020   1.367   6.899   5.794 -1.1568 -1.6059  0.9579
10005SOL     OW32021   6.924   5.361   7.868 -0.0495  0.6386  0.1650
10005SOL    HW132022   6.872   5.441   7.863 -0.1305  0.5427 -0.5391
10005SOL    HW232023   6.998   5.376   7.810 -0.5507 -0.1543 -0.7031
10006SOL     OW32024   6.578   3.443   1.514 -0.1894 -0.4075  0.0438
10006SOL    HW132025   6.564   3.534   1.538  2.6767 -0.2328  1.4679
10006SOL    HW232026   6.550   3.393   1.591  1.0823 -0.4666  0.4890
10007SOL     OW32027   8.584   9.565  10.721 -1.0696 -0.7946  0.5184
10007SOL    HW132028   8.589   9.532  10.631 -2.6060  1.9455 -0.6877
10007SOL    HW232029   8.492   9.586  10.734 -0.6674  0.0692  2.2771
10008SOL     OW32030   9.765   4.848  10.444 -0.3827  0.6838  0.6420
10008SOL    HW132031   9.805   4.815  10.524 -0.0940 -1.8784 -0.4775
10008SOL    HW232032   9.780   4.780  10.379 -1.0742  2.4363 -1.4925
10009SOL     OW32033   2.490   6.776   1.922  0.4814 -0.1794 -0.2064
10009SOL    HW132034   2.456   6.865   1.930  1.1883 -0.0195  1.3748
10009SOL    HW232035   2.555   6.781   1.851 -0.0945  0.3457 -0.7052
10010SOL     OW32036   6.705   2.871  10.339  0.5001 -0.3514  0.0048
10010SOL    HW132037   6.740   2.825  10.262  0.1792 -0.3891 -0.1212
10010SOL    HW232038   6.628   2.820  10.364  1.2924 -1.0409  1.1031
10011SOL     OW32039   6.940   8.117   1.539 -0.2703 -0.4529  0.5613
10011SOL    HW132040   6.933   8.063   1.618 -0.6202 -0.4500  0.5340
10011SOL    HW232041   7.030   8.149   1.540 -0.6946  0.8174  1.7939
10012SOL     OW32042   4.642   2.239   0.889 -0.5094  0.2047 -0.3955
10012SOL    HW132043   4.594   2.176   0.835 -0.9347  0.0647  0.1347
10012SOL    HW232044   4.725   2.251   0.844 -0.6243 -0.3569 -0.7688
10013SOL     OW32045   3.636   9.023   0.911 -0.0478  0.0833 -0.2911
10013SOL    HW132046   3.625   9.037   0.817 -1.7889  1.0497  0.0142
10013SOL    HW232047   3.547   9.011   0.944  0.1642  2.8003  1.6491
10014SOL     OW32048   5.625   6.917   6.411  0.7874  0.1523 -0.1771
10014SOL    HW132049   5.704   6.907   6.357 -0.1393 -1.7667 -1.2918
10014SOL    HW232050   5.574   6.984   6.366 -0.3527 -1.9860 -2.3232
10015SOL     OW32051   0.909   5.290   1.488 -0.5067 -0.3010 -0.3710
10015SOL    HW132052   0.951   5.229   1.428  1.1959  0.7138 -0.2692
10015SOL    HW232053   0.981   5.340   1.527 -1.7756  1.2475  0.1293
10016SOL     OW32054   4.149   4.847   3.226 -0.3310 -0.9419 -0.8848
10016SOL    HW132055   4.131   4.784   3.296 -0.4890 -0.5703 -0.5898
10016SOL    HW232056   4.198   4.797   3.161  0.6317 -1.0596 -0.0880
10017SOL     OW32057   5.966   9.876  10.729 -0.2237  0.0307  0.3847
10017SOL    HW132058   6.030   9.843  10.666  0.2283  0.4045  0.6399
10017SOL    HW232059   6.015   9.884  10.811 -0.6906 -0.0236  0.6772
10018SOL     OW32060   0.939   8.441   7.336 -0.2935  0.0626 -0.5128
10018SOL    HW132061   1.021   8.392   7.327 -1.9656 -2.7856 -2.0167
10018SOL    HW232062   0.954   8.522   7.288  2.2141  0.5414  0.9246
10019SOL     OW32063   8.202   1.189  10.903  0.1352 -0.3137 -0.7354
10019SOL    HW132064   8.151   1.271  10.906  0.2668 -0.2515  1.4302
10019SOL    HW232065   8.289   1.217  10.876 -0.1717  0.0161 -1.4514
10020SOL     OW32066   6.032   1.067   7.812  0.0636 -0.6024 -0.3520
10020SOL    HW132067   6.101   1.107   7.864  0.0194  0.3005 -0.9654
10020SOL    HW232068   5.975   1.025   7.876  0.4806 -0.2533  0.2600
10021SOL     OW32069   2.705   5.976   5.634  0.3767  0.5167 -0.5792
10021SOL    HW132070   2.684   5.935   5.718  0.1998 -0.3595 -1.0359
10021SOL    HW232071   2.650   6.054   5.631  1.0541  1.0537  0.5087
10022SOL     OW32072   3.349   8.030   2.881  0.2164  0.4184 -0.1999
10022SOL    HW132073   3.290   8.089   2.834  0.3178  0.4058 -0.3436
10022SOL    HW232074   3.332   7.944   2.843  0.4451  0.4423 -0.3548
10023SOL     OW32075   0.805  10.305   4.738  0.1916 -0.2118 -0.0685
10023SOL    HW132076   0.753  10.324   4.817  0.9737  0.6207  0.2599
10023SOL    HW232077   0.808  10.388   4.691 -1.3339 -0.9856 -1.6560
10024SOL     OW32078   1.674   4.947   4.040 -0.0215  0.0587 -0.0850
10024SOL    HW132079   1.750   4.954   4.097 -0.3291 -1.4188  0.5664
10024SOL    HW232080   1.664   5.034   4.001  1.2948  0.5831  0.7009
10025SOL     OW32081  10.509   5.928   1.265  0.4681  0.0144  0.3327
10025SOL    HW132082  10.493   6.023   1.269 -1.9749 -0.2679 -0.6992
10025SOL    HW232083  10.487   5.896   1.353  3.0114  0.5423  1.2395
10026SOL     OW32084   0.957   0.883   1.741  0.7217  0.3531 -0.5952
10026SOL    HW132085   1.003   0.934   1.808 -1.5592  1.6434  0.1123
10026SOL    HW232086   0.974   0.931   1.660  1.6919  0.0465 -0.5837
10027SOL     OW32087   5.281   1.767   6.296 -0.4028  0.7473 -0.1770
10027SOL    HW132088   5.293   1.856   6.329 -0.3686  1.0786 -1.0468
10027SOL    HW232089   5.299   1.775   6.202  0.3988 -0.3327 -0.1249
10028SOL     OW32090   2.343   1.259  10.680  0.1855 -0.2408 -0.7554
10028SOL    HW132091   2.427   1.294  10.650  1.3172  0.5661  2.8684
10028SOL    HW232092   2.331   1.180  10.628  1.5354  1.2950 -3.6328
10029SOL     OW32093   7.329   3.929   4.445 -0.3500 -0.0265  0.4552
10029SOL    HW132094   7.332   3.962   4.355 -0.6160 -0.1170  0.4131
10029SOL    HW232095   7.400   3.976   4.490  0.3680 -0.6211 -0.0173
10030SOL     OW32096   4.250   7.888  10.407  0.2034 -0.5210  0.0846
10030SOL    HW132097   4.302   7.967  10.390  1.4534 -1.4231 -0.4641
10030SOL    HW232098   4.243   7.885  10.502  0.9912 -0.2633  0.1634
10031SOL     OW32099   5.811   6.410  10.619  0.4866  0.3100  0.1373
10031SOL    HW132100   5.889   6.358  10.600  0.6198  0.4529  0.2919
10031SOL    HW232101   5.821   6.436  10.711 -0.9970 -1.8624  1.0063
10032SOL     OW32102   3.886   2.490  10.234 -0.3013 -0.1988 -0.2528
10032SOL    HW132103   3.898   2.534  10.318  0.8091  0.3706 -0.6773
10032SOL    HW232104   3.967   2.509  10.186 -0.5789 -1.1948 -1.1416
10033SOL     OW32105   9.335   8.734   2.667  0.5149  0.4178 -0.2770
10033SOL    HW132106   9.261   8.710   2.722  0.2483  0.5975 -0.5589
10033SOL    HW232107   9.407   8.680   2.700 -0.1486 -1.0605 -1.1370
10034SOL     OW32108   1.209   7.189   1.533 -0.0296  0.1614 -0.1310
10034SOL    HW132109   1.207   7.115   1.594 -1.6936  0.1647 -0.1262
10034SOL    HW232110   1.296   7.186   1.494  0.3963 -0.9914  0.8489
10035SOL     OW32111  10.580   3.471  10.746  0.5844  0.4495  0.4134
10035SOL    HW132112  10.588   3.472  10.842 -3.3557  1.5132  0.9169
10035SOL    HW232113  10.494   3.433  10.731  0.5969  1.4387 -2.6942
10036SOL     OW32114   1.662   4.487   6.099  0.0781  0.1025  0.1883
10036SOL    HW132115   1.728   4.477   6.031 -0.5288 -0.6752 -0.3067
10036SOL    HW232116   1.681   4.417   6.161  0.1955  0.3679  0.4538
10037SOL     OW32117   3.497   2.548   6.711 -0.0166 -0.3857  0.4185
10037SOL    HW132118   3.487   2.573   6.803  1.2970  1.2395  0.1801
10037SOL    HW232119   3.448   2.615   6.662 -0.9623 -1.4076 -0.0806
10038SOL     OW32120   5.897  10.987   0.015  0.0954  0.2123  0.3677
10038SOL    HW132121   5.819  10.937  -0.008 -0.0597  0.5909  0.0611
10038SOL    HW232122   5.970  10.933  -0.014 -0.0261 -0.5062  1.3646
10039SOL     OW32123   5.260   8.507   2.090  0.4031  0.1246  0.2696
10039SOL    HW132124   5.276   8.573   2.022  2.2755  0.2396  0.7575
10039SOL    HW232125   5.167   8.515   2.109  0.1158  1.0440 -1.3004
10040SOL     OW32126   7.637   5.289   0.130 -0.5609 -0.2577 -0.1716
10040SOL    HW132127   7.558   5.291   0.185 -0.3490  0.5427  0.1144
10040SOL    HW232128   7.658   5.381   0.115 -0.5831 -0.4475 -1.5683
10041SOL     OW32129   5.128   1.243   1.696  0.3066  0.0893 -0.2518
10041SOL    HW132130   5.200   1.246   1.759  1.1446  1.7656 -1.2164
10041SOL    HW232131   5.050   1.264   1.748  0.7811  0.1073  0.4682
10042SOL     OW32132   9.376   3.038   6.015  0.2508 -0.2446  0.2672
10042SOL    HW132133   9.314   3.072   6.079 -1.4995 -0.2405 -1.3486
10042SOL    HW232134   9.330   3.044   5.931  1.7443 -1.9789 -0.7572
10043SOL     OW32135   8.824   4.253   4.987  0.8189 -0.2047 -0.1389
10043SOL    HW132136   8.855   4.342   5.001 -1.4496  0.5755  0.3257
10043SOL    HW232137   8.835   4.239   4.892  2.1119  0.1608 -0.0634
10044SOL     OW32138   1.856   3.264   2.423 -0.3499 -0.1002  0.2220
10044SOL    HW132139   1.777   3.318   2.423  0.5588  1.4198 -2.0216
10044SOL    HW232140   1.928   3.327   2.432  0.6567 -1.2735  0.6121
10045SOL     OW32141   2.919   1.276   4.717  0.7806 -0.3832 -0.2403
10045SOL    HW132142   2.876   1.206   4.767  1.0836 -0.9489 -0.7576
10045SOL    HW232143   2.855   1.300   4.650  1.4717 -1.6768 -1.4237
10046SOL     OW32144   5.317   5.754  10.961 -0.0221 -0.0412 -0.5764
10046SOL    HW132145   5.253   5.730  11.028  2.0944  0.7606  1.9349
10046SOL    HW232146   5.375   5.678  10.955 -0.5185 -0.3233 -1.9581
10047SOL     OW32147   1.461   5.901  10.609  0.3832 -0.4411  0.5960
10047SOL    HW132148   1.377   5.930  10.574  0.7290 -0.3131 -0.1310
10047SOL    HW232149   1.525   5.923  10.542  0.9497 -0.9086  0.9655
10048SOL     OW32150   2.833   2.101   3.869  0.0577  0.3364  0.0221
10048SOL    HW132151   2.849   2.136   3.782 -0.3688  1.6110  0.4285
10048SOL    HW232152   2.824   2.006   3.856  0.5988  0.4379 -1.2143
10049SOL     OW32153   3.342   3.531   7.083 -0.3304  0.0334 -0.0880
10049SOL    HW132154   3.438   3.523   7.082 -0.3343 -0.9012 -2.6513
10049SOL    HW232155   3.311   3.444   7.106 -0.6639  0.8135  2.7757
10050SOL     OW32156   4.001   3.583   3.820 -0.1871 -0.1449  0.2192
10050SOL    HW132157   4.017   3.559   3.729  0.6938 -1.4480  0.6834
10050SOL    HW232158   3.911   3.557   3.837  0.0750 -1.2037  0.0837
10051SOL     OW32159   5.796   9.520  11.048  0.1453 -0.7638 -0.4114
10051SOL    HW132160   5.817   9.497  10.957  1.3441  1.8502 -0.8810
10051SOL    HW232161   5.864   9.479  11.100  0.7626 -0.4416 -0.9498
10052SOL     OW32162   6.415  11.018   4.035  0.1846 -0.0422 -0.7768
10052SOL    HW132163   6.373  10.963   4.101  0.1331  0.4023 -0.4347
10052SOL    HW232164   6.359  11.095   4.028  1.5319  1.1360  0.5671
10053SOL     OW32165   0.054   8.215   0.020  0.1287  0.0049 -0.1615
10053SOL    HW132166  -0.024   8.167   0.051  0.4422 -1.2839 -1.2649
10053SOL    HW232167   0.030   8.245  -0.067  0.8612 -0.4238 -0.5181
10054SOL     OW32168  10.287   1.936   2.403  0.0441 -0.0260  0.1198
10054SOL    HW132169  10.323   1.947   2.491  2.1369  0.4861 -0.7455
10054SOL    HW232170  10.327   2.006   2.352  1.0798 -1.9442 -1.8751
10055SOL     OW32171   2.401   4.445   5.980  0.7385  0.7309 -0.4388
10055SOL    HW132172   2.479   4.414   5.935 -0.1089  0.9294 -2.1197
10055SOL    HW232173   2.330   4.430   5.918 -0.5177  0.8836  0.9058
10056SOL     OW32174   4.051   9.308   2.547  0.2027  0.4040  0.6418
10056SOL    HW132175   4.118   9.368   2.514  0.8534 -0.7934 -0.3302
10056SOL    HW232176   4.088   9.273   2.628 -1.1104  2.8506  2.4280
10057SOL     OW32177   2.383   9.367   1.261 -0.4358  0.3084  0.2724
10057SOL    HW132178   2.365   9.273   1.257 -0.6924  0.2849  1.5828
10057SOL    HW232179   2.449   9.376   1.330 -0.6835  1.1345  0.4101
10058SOL     OW32180   5.181  10.235   1.343 -0.0928 -0.5287  0.1866
10058SOL    HW132181   5.195  10.330   1.346 -1.8245 -0.1509 -1.6148
10058SOL    HW232182   5.166  10.210   1.435  0.1922  0.9546  0.6639
10059SOL     OW32183   2.609   2.880   7.728  0.0462  0.0450 -0.0658
10059SOL    HW132184   2.551   2.826   7.782  0.7518 -1.0012 -0.3212
10059SOL    HW232185   2.550   2.932   7.674 -0.6617  0.2985  0.9191
10060SOL     OW32186   0.887   0.417   1.231 -0.0462 -0.2552 -0.0771
10060SOL    HW132187   0.863   0.365   1.308  0.5621  2.1619  1.8782
10060SOL    HW232188   0.804   0.431   1.185 -0.8901  0.3544  1.5497
10061SOL     OW32189   1.550   9.023  10.831 -0.1925  0.0918 -0.4119
10061SOL    HW132190   1.496   9.096  10.801 -2.1264 -0.8567  0.5853
10061SOL    HW232191   1.518   8.948  10.780  0.3206 -0.4549  0.0668
10062SOL     OW32192   7.619   4.011   1.035  0.4114  0.2958 -0.2148
10062SOL    HW132193   7.528   4.030   1.057  0.3757  1.1563 -1.0534
10062SOL    HW232194   7.670   4.082   1.074  0.8532 -0.7216  1.1244
10063SOL     OW32195   5.320   3.037   6.641 -0.0447 -0.4008  0.1837
10063SOL    HW132196   5.315   3.065   6.732  0.3603 -0.2026  0.1435
10063SOL    HW232197   5.375   3.102   6.598 -0.2458 -0.4834 -0.2064
10064SOL     OW32198   9.510   1.829   7.230  0.3552 -0.1962  0.2628
10064SOL    HW132199   9.571   1.851   7.301  0.8304  0.0555 -0.2132
10064SOL    HW232200   9.563   1.779   7.168  0.7209  1.8805 -1.2290
10065SOL     OW32201   6.105   0.332   1.838 -0.2488  0.8545 -0.1423
10065SOL    HW132202   6.187   0.285   1.851 -1.7063 -1.4915  1.3986
10065SOL    HW232203   6.090   0.328   1.743  0.0306 -1.3064 -0.1362
10066SOL     OW32204   4.268   1.150   7.222  0.1768  0.6201  0.2701
10066SOL    HW132205   4.271   1.228   7.166  2.5090 -0.0390 -0.6309
10066SOL    HW232206   4.175   1.129   7.229 -0.3463  2.1699 -1.3057
10067SOL     OW32207   1.247   5.087   4.957  0.2600  0.0194 -0.3167
10067SOL    HW132208   1.305   5.091   4.881 -0.9474 -0.6440 -1.3110
10067SOL    HW232209   1.167   5.131   4.929 -1.0628 -2.2283 -0.2597
10068SOL     OW32210   7.225   6.611   1.742 -0.0070 -0.0876 -0.4718
10068SOL    HW132211   7.249   6.654   1.660 -1.9848  0.4157 -0.8343
10068SOL    HW232212   7.227   6.518   1.721  0.6842 -0.0211 -0.7365
10069SOL     OW32213   2.553   5.285   9.249  0.4417  0.0631 -0.1141
10069SOL    HW132214   2.587   5.297   9.161 -0.0925 -0.6335 -0.4319
10069SOL    HW232215   2.587   5.199   9.276 -0.4695 -0.3276 -0.1722
10070SOL     OW32216   6.052   6.111   7.005  0.8322 -0.4759 -0.3805
10070SOL    HW132217   6.044   6.101   6.910  1.5773 -1.3491 -0.3667
10070SOL    HW232218   5.963   6.127   7.036  0.7025  0.7409 -1.3159
10071SOL     OW32219   4.154   3.453   4.260  0.0444  0.3385  0.0633
10071SOL    HW132220   4.061   3.467   4.273  0.0409  0.0558  0.3789
10071SOL    HW232221   4.185   3.418   4.344  0.4808  0.6719  0.0446
10072SOL     OW32222   0.485   3.861  10.205 -0.4567  0.3367 -0.1527
10072SOL    HW132223   0.418   3.912  10.160 -2.4827 -2.4272 -0.5917
10072SOL    HW232224   0.517   3.799  10.139  1.1772  0.3456  0.5814
10073SOL     OW32225   6.521   1.872   8.384  0.0644  0.2324  0.1890
10073SOL    HW132226   6.444   1.929   8.384  0.2710  0.5271 -0.6734
10073SOL    HW232227   6.591   1.927   8.420 -0.1013  0.0022  0.8643
10074SOL     OW32228   9.215   3.658   0.190 -0.2222  0.1646  0.5716
10074SOL    HW132229   9.231   3.590   0.255  4.0824 -1.6322 -1.9660
10074SOL    HW232230   9.178   3.612   0.115  0.8682  0.9225 -0.4698
10075SOL     OW32231   4.454  10.017   2.405  0.0381 -0.0371  0.2634
10075SOL    HW132232   4.514  10.024   2.331 -0.7933 -0.1860 -0.4312
10075SOL    HW232233   4.448  10.106   2.440  1.0586 -0.1103  0.6690
10076SOL     OW32234   7.800   4.085   9.155 -0.4061  0.6929  0.0607
10076SOL    HW132235   7.769   4.086   9.064 -0.4078  1.4281  0.0676
10076SOL    HW232236   7.805   4.177   9.180  0.0955  0.5142  0.6409
10077SOL     OW32237   4.161   6.780   7.409 -0.1954  0.0551 -0.2099
10077SOL    HW132238   4.125   6.809   7.325 -0.0171  0.1549 -0.2519
10077SOL    HW232239   4.243   6.828   7.418 -0.9326  1.2080  0.7281
10078SOL     OW32240   2.328   4.244   4.895 -0.3720 -0.0381 -0.2146
10078SOL    HW132241   2.385   4.171   4.873 -0.2978  0.1330 -0.6167
10078SOL    HW232242   2.265   4.248   4.823 -0.9930 -0.3208  0.3028
10079SOL     OW32243  10.010   4.609  10.282  0.6495  0.7277  0.0592
10079SOL    HW132244  10.042   4.682  10.228  2.9936 -0.3448 -0.1728
10079SOL    HW232245  10.032   4.531  10.230  1.6952 -0.2768  1.8997
10080SOL     OW32246   2.041   4.761   0.549  0.3457 -0.2085 -0.3709
10080SOL    HW132247   2.064   4.849   0.518  1.3373 -0.0634  0.7126
10080SOL    HW232248   2.117   4.707   0.525  0.9728 -0.1712  1.4262
10081SOL     OW32249   3.205   3.286   0.888 -0.3151  0.2667 -0.5717
10081SOL    HW132250   3.220   3.267   0.795  1.7598 -1.0724 -0.0291
10081SOL    HW232251   3.116   3.254   0.906 -0.5540  0.0945 -1.9758
10082SOL     OW32252   9.789   3.906   2.022 -0.6609  0.4536  0.2319
10082SOL    HW132253   9.752   3.833   2.072  0.9845 -0.5200  0.1108
10082SOL    HW232254   9.844   3.863   1.956 -1.5131  1.7473 -1.4078
10083SOL     OW32255   9.305   3.957   5.702 -0.2268  0.1616 -0.0903
10083SOL    HW132256   9.374   3.891   5.698 -1.8612 -1.6275 -0.4326
10083SOL    HW232257   9.255   3.944   5.621 -2.3205 -0.2460  1.1724
10084SOL     OW32258  10.320   4.355   3.892  0.2978 -0.4020 -0.3467
10084SOL    HW132259  10.387   4.390   3.833  0.2036 -0.4504 -0.4818
10084SOL    HW232260  10.321   4.416   3.966  0.7273 -0.5923 -0.1890
10085SOL     OW32261   4.019   5.475   4.049  0.7812 -0.9173 -0.1112
10085SOL    HW132262   4.098   5.476   4.104  1.2591  0.4672 -0.7699
10085SOL    HW232263   4.052   5.486   3.960 -0.0500 -2.2201 -0.6046
10086SOL     OW32264   6.338   6.249   6.108 -0.1301 -0.1597  0.0438
10086SOL    HW132265   6.288   6.313   6.159  0.6197 -0.4222  1.1667
10086SOL    HW232266   6.346   6.174   6.167 -0.2087 -0.9294 -0.9101
10087SOL     OW32267   2.834   3.459   1.593 -0.4594  0.2812 -0.0506
10087SOL    HW132268   2.918   3.439   1.636 -1.9222 -1.8657  2.1033
10087SOL    HW232269   2.842   3.418   1.507  1.6878  2.6141 -1.0851
10088SOL     OW32270   7.351   5.133   1.750 -0.0052 -0.3802 -0.2671
10088SOL    HW132271   7.278   5.187   1.780  0.3789 -0.4375  0.8057
10088SOL    HW232272   7.334   5.046   1.787  0.1825 -0.6079 -0.7011
10089SOL     OW32273   4.870   6.115   8.113  0.5380 -0.1975 -0.3332
10089SOL    HW132274   4.786   6.153   8.087  0.9351  1.6808  0.9047
10089SOL    HW232275   4.911   6.090   8.030 -1.8557 -2.7304 -0.8991
10090SOL     OW32276   1.336   4.386   1.934 -0.2452 -0.2137  0.1938
10090SOL    HW132277   1.395   4.335   1.990  0.4660 -0.5504 -0.8420
10090SOL    HW232278   1.393   4.426   1.868 -1.1257 -0.2433 -0.6094
10091SOL     OW32279   5.251   3.032   9.067  0.4031 -0.0760  0.2776
10091SOL    HW132280   5.183   2.973   9.036 -1.0116  1.6521 -0.0250
10091SOL    HW232281   5.293   3.065   8.987  0.7868 -0.1853  0.4275
10092SOL     OW32282   2.345   3.326   6.966  0.1771 -0.5221 -0.1960
10092SOL    HW132283   2.269   3.269   6.962 -0.4355 -0.1309  3.2441
10092SOL    HW232284   2.313   3.408   7.004  2.4706 -0.9300  3.0252
10093SOL     OW32285   5.435   6.685   0.003  0.0825  0.3858  0.0795
10093SOL    HW132286   5.491   6.704  -0.073  0.3569  1.0175  0.4353
10093SOL    HW232287   5.413   6.771   0.038 -0.7162  0.1210  0.2371
10094SOL     OW32288   9.282   4.491   9.072 -0.1479 -0.2396 -0.4116
10094SOL    HW132289   9.362   4.462   9.027  1.4292  2.1490  0.6513
10094SOL    HW232290   9.295   4.463   9.163 -0.7300 -0.2306 -0.3233
10095SOL     OW32291   0.955   4.886   7.627 -0.0114  0.0693  0.0170
10095SOL    HW132292   1.021   4.922   7.567 -0.7979 -0.1789 -1.0048
10095SOL    HW232293   0.976   4.928   7.711  1.4392  0.0117 -0.2795
10096SOL     OW32294   7.338  10.632   2.413  0.4008 -0.2308 -0.3229
10096SOL    HW132295   7.404  10.586   2.463 -0.5899  0.0546  1.3089
10096SOL    HW232296   7.293  10.564   2.362  1.6711 -0.4690 -1.1559
10097SOL     OW32297   4.918  10.515   9.280  0.0240 -0.6106  0.6226
10097SOL    HW132298   4.947  10.580   9.343  1.1841  0.8874 -1.3403
10097SOL    HW232299   4.993  10.456   9.271 -0.1654 -0.8632  0.7033
10098SOL     OW32300   2.270   3.680   8.833  0.3042 -0.2639  0.8194
10098SOL    HW132301   2.226   3.689   8.748 -0.2131  1.2692  1.2104
10098SOL    HW232302   2.341   3.744   8.829 -0.8438  1.1646  2.1946
10099SOL     OW32303   8.240   3.884   1.078 -0.0382  0.0426 -0.3487
10099SOL    HW132304   8.190   3.935   1.142  0.0911  0.9322 -0.9351
10099SOL    HW232305   8.233   3.794   1.108 -1.9905  0.1415 -0.3785
10100SOL     OW32306   9.006   3.033   5.885 -0.0452 -0.0198  1.0173
10100SOL    HW132307   8.960   3.116   5.877 -1.2588 -0.5701  1.9721
10100SOL    HW232308   9.094   3.051   5.851 -1.7239  0.3010 -3.9519
10101SOL     OW32309   3.719  10.367   4.807 -0.5391  0.5166 -0.6701
10101SOL    HW132310   3.749  10.281   4.777 -0.9167 -0.8088  2.3029
10101SOL    HW232311   3.796  10.423   4.802  0.0699 -0.3608 -1.4162
10102SOL     OW32312   2.400   7.546   9.549 -0.4229 -0.0346  0.1771
10102SOL    HW132313   2.479   7.518   9.596 -0.9827 -1.4293  0.3470
10102SOL    HW232314   2.372   7.626   9.594  0.1246 -0.2903  0.9988
10103SOL     OW32315   5.007   9.446   2.621 -0.3183  0.0170 -0.6071
10103SOL    HW132316   5.003   9.541   2.610 -0.9639  0.0079 -0.4826
10103SOL    HW232317   5.007   9.412   2.532  1.2165  0.1680 -0.6901
10104SOL     OW32318   5.576   4.164   1.447  0.3725  0.7802  0.4685
10104SOL    HW132319   5.488   4.129   1.460  0.0728  0.4309 -2.1355
10104SOL    HW232320   5.601   4.138   1.359  3.2282  0.6367  1.1980
10105SOL     OW32321  10.152  10.445   9.838  0.3387 -0.1653  0.1311
10105SOL    HW132322  10.091  10.372   9.828  2.1444 -1.7069 -0.2566
10105SOL    HW232323  10.214  10.415   9.905  1.1099  1.0265 -0.0204
10106SOL     OW32324   0.821   6.149   4.142 -0.2891  0.1810  0.3253
10106SOL    HW132325   0.905   6.115   4.172  0.6420  0.1662 -2.0613
10106SOL    HW232326   0.834   6.244   4.135 -0.9810  0.3710  1.3395
10107SOL     OW32327   1.146  10.743  10.482  0.0117  0.1319 -0.4978
10107SOL    HW132328   1.108  10.712  10.564  0.5770 -0.2226 -0.3674
10107SOL    HW232329   1.115  10.682  10.415  0.8996 -0.5584 -0.2852
10108SOL     OW32330   4.297  10.802   0.786  0.1838  0.2728 -0.5183
10108SOL    HW132331   4.276  10.713   0.757 -1.2770  0.7361 -0.9425
10108SOL    HW232332   4.241  10.818   0.862  1.4677  0.3443  0.4585
10109SOL     OW32333  11.001   8.496   9.736 -0.4624  0.4424  0.0053
10109SOL    HW132334  11.042   8.549   9.667  0.4918  1.4066  1.2628
10109SOL    HW232335  10.952   8.559   9.789  0.8469  0.1535  1.6380
10110SOL     OW32336   2.147   1.897   2.413  0.4468  0.2148 -0.1601
10110SOL    HW132337   2.200   1.846   2.474  0.9355 -0.6102 -1.2331
10110SOL    HW232338   2.182   1.986   2.418 -0.1579  0.3830  1.4517
10111SOL     OW32339   1.740   8.722   0.602 -0.3904 -0.0280  0.7143
10111SOL    HW132340   1.656   8.765   0.609 -0.8401 -0.7682  0.1133
10111SOL    HW232341   1.719   8.630   0.586  0.4610  0.1374 -1.9118
10112SOL     OW32342   8.639   6.738   5.022 -0.6774  0.5987  0.0040
10112SOL    HW132343   8.658   6.750   5.115 -1.6718  0.5318  0.2301
10112SOL    HW232344   8.633   6.643   5.011  1.8925  0.4295 -0.6747
10113SOL     OW32345   2.271   4.052   9.004  0.1820 -0.1268  0.3087
10113SOL    HW132346   2.325   4.018   8.932 -0.6396 -0.4730 -0.1600
10113SOL    HW232347   2.333   4.098   9.060  0.9959 -0.6811 -0.1098
10114SOL     OW32348   8.259   5.644   7.612 -0.9323  0.6001 -0.3359
10114SOL    HW132349   8.284   5.576   7.550 -0.4977  1.3471 -0.9922
10114SOL    HW232350   8.163   5.646   7.608 -1.2408 -2.2311  2.1465
10115SOL     OW32351   2.346   7.198   5.995 -0.1044  0.2265  0.0339
10115SOL    HW132352   2.264   7.152   5.976  0.2738  0.1364 -1.5375
10115SOL    HW232353   2.393   7.198   5.912  1.6014  0.0890  0.9615
10116SOL     OW32354   8.385  10.620   6.878  0.0085  0.1896  0.0560
10116SOL    HW132355   8.433  10.586   6.953  0.3027  1.3237  0.3967
10116SOL    HW232356   8.438  10.594   6.802  0.0614 -0.3700  0.2815
10117SOL     OW32357   6.790  10.217   0.782  0.2486  0.2514 -0.2498
10117SOL    HW132358   6.800  10.249   0.692  1.0504 -1.3471 -0.7596
10117SOL    HW232359   6.878  10.224   0.820  0.4532 -1.2739 -0.3779
10118SOL     OW32360   2.437   7.196   7.483 -0.0870  0.1306 -0.5773
10118SOL    HW132361   2.445   7.277   7.534 -3.8579  0.9046 -0.9411
10118SOL    HW232362   2.456   7.126   7.545 -1.0908  1.1734  0.9703
10119SOL     OW32363   1.452   6.791  10.076  0.1223 -0.3794  0.4097
10119SOL    HW132364   1.429   6.728  10.144 -1.4905 -1.8559 -1.4102
10119SOL    HW232365   1.412   6.757   9.996  0.1515  2.3671 -0.9002
10120SOL     OW32366   6.844   6.164   1.731 -0.3406 -0.0600 -0.1347
10120SOL    HW132367   6.868   6.126   1.647 -0.6496 -0.6396  0.0360
10120SOL    HW232368   6.890   6.248   1.733 -0.5889  0.1123 -1.0187
10121SOL     OW32369   1.474   6.978   4.425 -0.4294 -0.7924 -0.4133
10121SOL    HW132370   1.512   6.916   4.363 -0.7506 -0.4916 -0.9149
10121SOL    HW232371   1.395   6.934   4.457 -0.2590 -0.9512 -0.2057
10122SOL     OW32372   8.120   2.093  10.762  0.2068  0.0041 -0.4456
10122SOL    HW132373   8.201   2.100  10.711  0.1549  1.0825 -0.4096
10122SOL    HW232374   8.057   2.146  10.713  0.1782  1.1311  0.7529
10123SOL     OW32375   3.588   0.723  10.121 -0.2051  0.6937 -0.7134
10123SOL    HW132376   3.634   0.646  10.155 -0.3898  0.3292 -1.2846
10123SOL    HW232377   3.495   0.701  10.130 -0.2537  0.5507 -1.5590
10124SOL     OW32378  10.222   2.847   4.209  0.6630 -0.5836  0.0950
10124SOL    HW132379  10.145   2.806   4.169 -0.1580  0.8623  0.1094
10124SOL    HW232380  10.216   2.825   4.302  0.3448 -0.6000  0.0719
10125SOL     OW32381   9.427   2.777   1.524 -0.4477 -0.0930 -0.1883
10125SOL    HW132382   9.458   2.689   1.544 -2.9350 -1.2954 -1.2168
10125SOL    HW232383   9.339   2.781   1.561 -0.7831  1.5745 -1.0621
10126SOL     OW32384   0.067   1.551   1.299 -0.0778  0.3504 -0.5237
10126SOL    HW132385   0.011   1.476   1.320  0.0551  0.0913 -1.0698
10126SOL    HW232386   0.082   1.595   1.383 -0.4811 -0.0108 -0.2628
10127SOL     OW32387   5.787   8.415   7.327 -0.4368 -0.1943  0.3010
10127SOL    HW132388   5.747   8.502   7.328 -1.2872 -0.5453 -0.9904
10127SOL    HW232389   5.881   8.431   7.327 -0.5828  0.7590 -1.0137
10128SOL     OW32390   4.836   2.757   8.172 -0.1070  0.4968  0.5335
10128SOL    HW132391   4.869   2.668   8.186  0.8905  0.7531 -0.0830
10128SOL    HW232392   4.802   2.783   8.257 -0.9383 -0.6740  0.5904
10129SOL     OW32393   8.822   7.762   7.866 -0.2081  0.0013  0.6387
10129SOL    HW132394   8.839   7.710   7.788  1.2447  1.5054 -0.1197
10129SOL    HW232395   8.886   7.730   7.931 -0.5130 -0.3478  0.7673
10130SOL     OW32396   3.432   4.355   5.830  0.5638  0.1696 -0.0044
10130SOL    HW132397   3.346   4.387   5.859 -0.1158  0.3846 -2.0811
10130SOL    HW232398   3.416   4.264   5.804  1.1534 -0.0418  0.3632
10131SOL     OW32399   4.527   3.281  10.674 -0.4293  0.0696  0.6707
10131SOL    HW132400   4.489   3.232  10.747 -2.2791  0.5339  0.0896
10131SOL    HW232401   4.518   3.373  10.700  0.9093  0.1811  0.7772
10132SOL     OW32402   7.389   6.663   0.901  0.4193 -0.5158  0.1938
10132SOL    HW132403   7.414   6.711   0.980 -1.2297 -0.1615  0.5429
10132SOL    HW232404   7.361   6.577   0.933  0.3688 -0.6008 -0.0784
10133SOL     OW32405   6.455   9.263   2.203 -0.2349 -0.0195 -0.2943
10133SOL    HW132406   6.379   9.210   2.183 -0.1424 -0.1721 -0.2445
10133SOL    HW232407   6.520   9.238   2.137  0.2081 -0.8172  0.4152
10134SOL     OW32408   9.873  10.002   0.959  0.1546  0.2031 -0.5432
10134SOL    HW132409   9.951   9.999   0.905  0.9305  0.0781  0.5502
10134SOL    HW232410   9.805  10.038   0.902  1.2138  1.1328 -1.2636
10135SOL     OW32411   0.174   9.352   9.325  0.3867  0.1157  0.3722
10135SOL    HW132412   0.122   9.281   9.364 -0.5471  0.7393  0.3030
10135SOL    HW232413   0.262   9.315   9.317 -0.0282 -0.9638  0.5328
10136SOL     OW32414   2.628   4.014   0.257  0.1438  0.3253  0.6347
10136SOL    HW132415   2.686   3.992   0.185 -2.0355 -3.0781 -0.3470
10136SOL    HW232416   2.564   4.075   0.219  0.3136  0.3104  0.3236
10137SOL     OW32417   8.938   5.162   8.354  0.3770 -0.3770 -0.0449
10137SOL    HW132418   9.010   5.159   8.292  1.6937 -1.1724  1.4393
10137SOL    HW232419   8.959   5.235   8.412 -0.1810 -0.4112  0.2111
10138SOL     OW32420   3.652   1.403   1.893 -0.5593 -0.1479 -0.1965
10138SOL    HW132421   3.737   1.369   1.863 -0.4838  2.0435 -2.7859
10138SOL    HW232422   3.669   1.432   1.983  1.3827  0.0560 -0.5806
10139SOL     OW32423   9.573   1.091   4.125 -0.4127 -0.4484  0.1959
10139SOL    HW132424   9.597   0.998   4.126  1.7270  0.0449  0.4329
10139SOL    HW232425   9.494   1.095   4.178 -0.0208 -2.0305  0.9906
10140SOL     OW32426   2.182   6.959   9.984  0.2247  0.8825 -0.3140
10140SOL    HW132427   2.101   6.907   9.987 -0.4559  1.8928 -0.7685
10140SOL    HW232428   2.225   6.940  10.068  0.1257 -0.5997 -0.5706
10141SOL     OW32429   2.904   1.904   8.817 -0.0898 -0.0252 -0.0480
10141SOL    HW132430   2.976   1.877   8.873 -0.3150 -0.1287  0.1891
10141SOL    HW232431   2.945   1.961   8.751  0.3284 -0.6707 -0.3551
10142SOL     OW32432   8.209   7.761   0.082 -0.5956  0.2398  0.5197
10142SOL    HW132433   8.193   7.715   0.164  0.1200  0.9305  1.0601
10142SOL    HW232434   8.175   7.849   0.096  0.9131  0.8353  0.6569
10143SOL     OW32435   8.385   7.849   1.643  0.4721 -0.3178 -0.0812
10143SOL    HW132436   8.465   7.882   1.683  0.8250  1.2375 -1.9182
10143SOL    HW232437   8.315   7.899   1.684  0.4145 -1.5293  1.3724
10144SOL     OW32438   4.320   1.741   8.362  0.1358 -0.0182 -0.3296
10144SOL    HW132439   4.322   1.665   8.304 -1.1266 -0.6629  0.4296
10144SOL    HW232440   4.395   1.729   8.420  1.2896  0.5264 -1.6301
10145SOL     OW32441   0.933   4.048  10.356  0.5439 -0.4103  0.0694
10145SOL    HW132442   0.908   3.970  10.405  1.7947 -1.5715 -1.0716
10145SOL    HW232443   0.872   4.051  10.282  1.1280 -0.8762 -0.4327
10146SOL     OW32444   1.043   4.306   8.247  0.0674 -0.6541 -0.3317
10146SOL    HW132445   1.023   4.399   8.238 -0.6347 -0.8229 -0.5394
10146SOL    HW232446   1.131   4.304   8.285 -0.5354  0.1057  1.1954
10147SOL     OW32447   2.166   0.515   7.147  0.3053 -0.9258  0.1450
10147SOL    HW132448   2.167   0.446   7.081  2.0072  0.0571 -0.9380
10147SOL    HW232449   2.245   0.566   7.129  0.0104  0.2763  2.0066
10148SOL     OW32450   9.844   7.712  10.129  0.2275  0.0897 -0.2211
10148SOL    HW132451   9.899   7.634  10.132  1.1589  0.7031 -0.7455
10148SOL    HW232452   9.831   7.736  10.221 -0.6464 -1.0524 -0.0178
10149SOL     OW32453   4.967   3.836   1.725 -0.5526 -0.2283  0.2260
10149SOL    HW132454   5.049   3.842   1.676 -1.2383 -0.6507 -1.0221
10149SOL    HW232455   4.952   3.742   1.735 -0.7956 -0.1523  0.6008
10150SOL     OW32456   1.428   6.114   6.719 -0.0887 -0.2495 -0.0538
10150SOL    HW132457   1.387   6.059   6.653 -0.0236 -0.4870  0.1044
10150SOL    HW232458   1.493   6.165   6.671 -0.1136 -0.3464 -0.1900
10151SOL     OW32459   8.613   2.309   3.363 -0.6540  0.2454  0.2145
10151SOL    HW132460   8.588   2.391   3.406  1.8704  0.2999  1.7713
10151SOL    HW232461   8.673   2.335   3.294  0.0486 -0.2658  0.6238
10152SOL     OW32462   4.423   9.995   4.978  0.2112  0.2343 -0.0415
10152SOL    HW132463   4.350   9.970   5.034  0.6723  0.7700  0.8211
10152SOL    HW232464   4.382  10.036   4.902 -0.3736  1.7491  1.0455
10153SOL     OW32465   4.383  10.088   4.250  0.1895 -0.1958 -0.8052
10153SOL    HW132466   4.472  10.108   4.278 -0.1115  1.6052 -0.9956
10153SOL    HW232467   4.352  10.021   4.311  1.2658  0.0126 -0.0157
10154SOL     OW32468   2.906   0.222   5.801  0.0300 -0.6374 -0.1759
10154SOL    HW132469   2.927   0.133   5.829  1.0047 -0.4879 -0.3745
10154SOL    HW232470   2.954   0.278   5.862 -1.6666 -0.1893  0.8173
10155SOL     OW32471   8.662   8.840   1.276 -0.1281 -0.3658  0.4308
10155SOL    HW132472   8.716   8.802   1.345  0.0706  2.1556  1.7696
10155SOL    HW232473   8.708   8.919   1.250  0.1096 -1.4786 -3.1091
10156SOL     OW32474   7.020   5.694   5.939  0.1273  0.6312  0.7380
10156SOL    HW132475   7.018   5.764   5.873  0.4795  0.2610  0.3324
10156SOL    HW232476   6.935   5.652   5.932 -0.0769  0.9938  0.9643
10157SOL     OW32477   4.880   3.429   0.652 -0.0837  0.0379 -0.1974
10157SOL    HW132478   4.882   3.498   0.718 -0.8427  0.8357 -0.9950
10157SOL    HW232479   4.858   3.473   0.571 -1.2895 -1.2293 -0.6090
10158SOL     OW32480   0.425   2.799   1.188 -0.2606  0.2357  0.0390
10158SOL    HW132481   0.444   2.883   1.145 -1.6520  0.5309 -0.0557
10158SOL    HW232482   0.464   2.733   1.131 -1.4514  0.6676 -1.3370
10159SOL     OW32483   5.026   2.196   7.511 -0.1811 -0.1465 -0.7700
10159SOL    HW132484   5.049   2.138   7.584 -2.1092  0.5911  0.5020
10159SOL    HW232485   5.103   2.251   7.499  0.9304 -1.5926 -0.6656
10160SOL     OW32486   8.700   6.763  10.145  0.6280 -0.6265 -0.0294
10160SOL    HW132487   8.679   6.695  10.081 -0.1521 -0.0501 -0.4142
10160SOL    HW232488   8.745   6.830  10.094 -1.5697  0.6576 -0.4212
10161SOL     OW32489  10.816   2.503   7.957  0.0363 -0.2314 -0.2841
10161SOL    HW132490  10.862   2.455   8.026  0.8374  0.9459  0.0359
10161SOL    HW232491  10.750   2.442   7.925  0.7538 -1.3878  0.3794
10162SOL     OW32492   6.860   8.440   9.714 -0.4167  0.1703 -0.0175
10162SOL    HW132493   6.816   8.485   9.642 -0.6709  0.7569  0.4918
10162SOL    HW232494   6.805   8.363   9.731  0.0621 -0.3907 -0.9419
10163SOL     OW32495   3.807   3.438   0.577  0.4546 -0.2800  0.7625
10163SOL    HW132496   3.863   3.361   0.568  1.2301  0.5179 -2.9851
10163SOL    HW232497   3.850   3.492   0.643  0.8293 -2.2107  2.1842
10164SOL     OW32498   3.549   3.778   6.056  0.2933 -0.3412  0.8200
10164SOL    HW132499   3.505   3.699   6.089  0.1488 -0.6395 -0.0652
10164SOL    HW232500   3.638   3.772   6.092  0.3010 -0.9342  0.7222
10165SOL     OW32501   2.572   2.242   5.068 -0.4739 -0.0455  0.2976
10165SOL    HW132502   2.592   2.247   4.974 -1.1967 -0.9676  0.0733
10165SOL    HW232503   2.542   2.152   5.081  0.9841 -0.3770  1.7047
10166SOL     OW32504   5.571   6.098   0.910  0.1152  0.3607 -0.3863
10166SOL    HW132505   5.584   6.045   0.832  1.7970  0.8976 -0.5163
10166SOL    HW232506   5.656   6.139   0.926 -0.7061  1.7814  0.6081
10167SOL     OW32507   0.876   3.188   5.338 -0.6264 -0.4559 -0.5598
10167SOL    HW132508   0.843   3.248   5.271 -0.1725  0.1347 -0.2601
10167SOL    HW232509   0.833   3.217   5.419 -3.5356 -2.9793 -1.0040
10168SOL     OW32510   5.752   0.043   6.366 -0.1461  0.2199 -0.7949
10168SOL    HW132511   5.794  -0.041   6.345 -0.9954  0.2251 -2.7343
10168SOL    HW232512   5.777   0.060   6.457  1.0827 -1.5083 -0.7525
10169SOL     OW32513  11.053   4.368   3.412  0.0071  0.0270 -0.3964
10169SOL    HW132514  10.966   4.363   3.452 -0.7096  0.4775 -1.8340
10169SOL    HW232515  11.073   4.278   3.386  0.3038 -0.1995  0.5977
10170SOL     OW32516   4.768   2.808   7.902  0.4817 -0.0200  0.0124
10170SOL    HW132517   4.793   2.781   7.991  0.7221  0.0950 -0.0184
10170SOL    HW232518   4.805   2.742   7.845  1.6273  0.7000 -0.1108
10171SOL     OW32519   0.618   0.547   1.169  0.0257  0.4728  0.0270
10171SOL    HW132520   0.542   0.546   1.228  0.7377  1.0514  0.9733
10171SOL    HW232521   0.581   0.526   1.083 -1.0365 -0.4170  0.6653
10172SOL     OW32522   9.273   3.421   3.097  0.4001  0.3557 -0.1435
10172SOL    HW132523   9.221   3.456   3.170 -1.1714 -1.7594 -0.1665
10172SOL    HW232524   9.211   3.417   3.024  1.1610 -0.2907 -0.7705
10173SOL     OW32525   4.539   6.253   4.983 -0.2679 -0.7308  0.1031
10173SOL    HW132526   4.624   6.267   4.943 -0.4064  0.4909  0.1857
10173SOL    HW232527   4.559   6.227   5.073  0.0308 -0.6092  0.0735
10174SOL     OW32528   2.520   7.959   1.432  0.2377 -0.1312  0.2566
10174SOL    HW132529   2.574   7.961   1.353 -1.1546 -1.3331 -0.7875
10174SOL    HW232530   2.548   8.035   1.482  1.4313  0.4466 -1.2039
10175SOL     OW32531   6.925   4.789   2.597  0.0401 -0.4125  0.0325
10175SOL    HW132532   6.930   4.701   2.636 -0.5937 -0.3126  0.3556
10175SOL    HW232533   6.848   4.785   2.540  0.0444 -0.0843  0.0026
10176SOL     OW32534   7.451   0.363   8.767  0.2114 -0.1209 -0.1818
10176SOL    HW132535   7.454   0.402   8.680 -0.5009 -0.4006 -0.3400
10176SOL    HW232536   7.404   0.427   8.821 -0.1078 -0.3342 -0.2081
10177SOL     OW32537   5.377   5.714   1.114  0.1140 -0.6693 -0.2237
10177SOL    HW132538   5.371   5.810   1.117 -0.2886 -0.6104 -1.7823
10177SOL    HW232539   5.435   5.697   1.039 -0.5924 -1.6468 -0.5641
10178SOL     OW32540   7.484   0.472   9.226 -0.7750 -0.0023  0.2587
10178SOL    HW132541   7.408   0.429   9.189  0.1922 -1.4862 -0.0854
10178SOL    HW232542   7.449   0.529   9.295 -2.0911 -1.4151  0.8066
10179SOL     OW32543   0.000   7.841   0.071 -0.2061  0.3973 -0.4338
10179SOL    HW132544   0.081   7.876   0.034 -0.5440  1.0880 -0.5410
10179SOL    HW232545   0.027   7.761   0.117  1.0672  2.1653  2.1585
10180SOL     OW32546   0.823   2.649   6.899 -0.4085  0.1266  0.0393
10180SOL    HW132547   0.745   2.639   6.845  0.0687 -1.6640 -0.3740
10180SOL    HW232548   0.867   2.726   6.862 -0.5544 -0.5289 -1.5661
10181SOL     OW32549   1.506   5.410   0.017  0.4617 -0.1885 -0.1050
10181SOL    HW132550   1.433   5.406  -0.045 -0.5961 -3.1922  1.1154
10181SOL    HW232551   1.583   5.385  -0.035  0.2561  0.7753 -0.9074
10182SOL     OW32552   6.042  10.163   0.093  0.5007  0.4606  0.3511
10182SOL    HW132553   5.960  10.133   0.134 -0.2881  1.0427 -0.7510
10182SOL    HW232554   6.079  10.084   0.054  0.1434  0.2963  0.3334
10183SOL     OW32555   9.036   3.122  10.249  0.4531  0.1312  0.0977
10183SOL    HW132556   9.054   3.097  10.340 -0.5307  0.0697  0.2880
10183SOL    HW232557   9.059   3.044  10.198  1.8140  0.4474  0.1835
10184SOL     OW32558   7.145   2.325   5.689 -0.1196 -0.1113 -0.0508
10184SOL    HW132559   7.149   2.244   5.740 -0.6198  0.4206  0.8857
10184SOL    HW232560   7.083   2.380   5.738  1.2780  1.3707  0.1440
10185SOL     OW32561   3.536   4.143   0.560  0.0904  0.4897 -0.8594
10185SOL    HW132562   3.449   4.145   0.601 -0.0669  2.7598 -1.2225
10185SOL    HW232563   3.527   4.195   0.481  2.1644  2.1900 -0.0574
10186SOL     OW32564   5.162  10.457   6.615 -0.3049  0.0882  0.2687
10186SOL    HW132565   5.237  10.436   6.671  0.7383  0.0256 -1.1186
10186SOL    HW232566   5.086  10.422   6.663  0.5374  0.1290  1.6789
10187SOL     OW32567   2.067   3.273   7.267  0.3867  0.3726  0.4524
10187SOL    HW132568   2.101   3.274   7.357 -0.5837  0.3220  0.8359
10187SOL    HW232569   2.044   3.365   7.250  0.7182  0.4087  0.1921
10188SOL     OW32570   3.787   4.131  10.548  0.2241  0.3690 -0.1707
10188SOL    HW132571   3.717   4.183  10.509 -0.7240 -0.1091  0.8328
10188SOL    HW232572   3.865   4.186  10.541 -0.7075  1.8554  0.6799
10189SOL     OW32573   6.610   4.617  10.789  0.9216  0.1364 -0.0951
10189SOL    HW132574   6.557   4.619  10.709  2.3255 -0.4599 -1.0913
10189SOL    HW232575   6.688   4.667  10.767  1.2665  0.0845  0.9657
10190SOL     OW32576   4.332   5.137   7.638  0.4535  0.1158 -0.1542
10190SOL    HW132577   4.318   5.079   7.563 -0.0657 -0.9715  0.7471
10190SOL    HW232578   4.427   5.145   7.644  0.4820  1.2876 -1.6986
10191SOL     OW32579   2.106   4.778   6.629 -0.0069  0.2247  0.3131
10191SOL    HW132580   2.164   4.708   6.599 -0.9535  0.4780 -2.3751
10191SOL    HW232581   2.160   4.830   6.688  1.4038 -1.4834  0.6136
10192SOL     OW32582   9.456   1.227   2.843  0.3543  0.6437  0.2292
10192SOL    HW132583   9.531   1.208   2.788 -0.0662  0.9111 -0.4442
10192SOL    HW232584   9.492   1.281   2.914  0.9443  0.0656  0.3743
10193SOL     OW32585   2.058   2.534   2.461 -0.2221  0.2217 -0.1134
10193SOL    HW132586   2.040   2.453   2.509  0.7660 -0.0465 -0.1760
10193SOL    HW232587   2.100   2.592   2.524  0.6615  0.0364 -0.5201
10194SOL     OW32588   2.854   2.513   9.193  0.0259 -0.3728  0.3895
10194SOL    HW132589   2.936   2.542   9.153 -0.5334 -1.1844 -1.4590
10194SOL    HW232590   2.881   2.454   9.263  1.0413 -0.9951 -0.4863
10195SOL     OW32591   1.343   7.733   9.328  0.0770  0.3676 -0.0221
10195SOL    HW132592   1.438   7.738   9.320  0.5579 -1.6767  2.9285
10195SOL    HW232593   1.323   7.640   9.329 -1.6928  0.7035  1.5292
10196SOL     OW32594   3.422   4.224   7.579 -0.3677  0.2287 -0.3242
10196SOL    HW132595   3.367   4.172   7.519 -0.4928  0.5536 -0.4949
10196SOL    HW232596   3.508   4.224   7.538 -0.0001 -1.0428  0.3995
10197SOL     OW32597   3.710  10.045   4.991 -0.2547  0.1191  0.5484
10197SOL    HW132598   3.738  10.099   5.065 -0.9486 -0.2208  1.0754
10197SOL    HW232599   3.773  10.064   4.921  0.6861  0.1077  1.3663
10198SOL     OW32600   1.563   8.352   1.901  0.0855 -0.3902  0.0174
10198SOL    HW132601   1.656   8.333   1.911  0.1483 -0.4166 -0.6102
10198SOL    HW232602   1.560   8.429   1.844 -0.2249  0.5024  1.1775
10199SOL     OW32603   2.966   5.549   5.081  0.2430 -0.2119 -0.6891
10199SOL    HW132604   2.985   5.567   5.174 -0.6154 -0.1495 -0.5188
10199SOL    HW232605   3.000   5.626   5.035 -0.2055  0.2151 -0.3235
10200SOL     OW32606   2.084   3.701   7.586  0.1248  0.3739  0.2045
10200SOL    HW132607   2.025   3.699   7.661  0.7919 -0.1797  0.7326
10200SOL    HW232608   2.140   3.624   7.597  0.6775  0.6559 -0.4993
10201SOL     OW32609   1.053   3.948   1.068  0.0307 -0.5837  0.0868
10201SOL    HW132610   1.020   3.972   1.155 -1.3639 -0.5357 -0.4200
10201SOL    HW232611   0.982   3.974   1.009  1.1855 -0.0946 -1.1282
10202SOL     OW32612   2.908   4.187   3.924 -0.1722 -0.0485  0.4737
10202SOL    HW132613   2.842   4.134   3.879  0.7165  0.4161 -1.4437
10202SOL    HW232614   2.960   4.123   3.973 -0.5497 -0.6902  0.0541
10203SOL     OW32615   3.520   4.000   5.050  0.4491 -0.5615  0.2126
10203SOL    HW132616   3.589   4.056   5.013  1.3879 -2.1101 -0.5016
10203SOL    HW232617   3.564   3.952   5.120 -0.2030 -0.7881  0.4722
10204SOL     OW32618  10.995   1.173   0.733 -0.2239  0.2256  0.0782
10204SOL    HW132619  10.901   1.192   0.742 -0.3962  0.5975 -1.9385
10204SOL    HW232620  11.001   1.078   0.733 -0.2956  0.1583  2.3642
10205SOL     OW32621   4.325   9.372   4.595 -0.5244  0.4388 -0.0067
10205SOL    HW132622   4.310   9.467   4.596  0.2988  0.5836 -0.1783
10205SOL    HW232623   4.300   9.345   4.507 -0.7266  0.5003  0.0307
10206SOL     OW32624   4.249   3.621   0.333  0.7526 -0.2713 -0.2417
10206SOL    HW132625   4.164   3.663   0.321  1.0765  0.3994 -0.2424
10206SOL    HW232626   4.312   3.692   0.319  1.2741 -0.3718  1.4594
10207SOL     OW32627   4.600   2.952   5.548 -0.4983  0.7000 -0.0679
10207SOL    HW132628   4.616   3.025   5.489  0.0450  1.8039  1.3702
10207SOL    HW232629   4.541   2.987   5.615  0.6837  0.2138  1.2886
10208SOL     OW32630   2.332   1.727   5.625 -0.0894 -0.0966 -0.1106
10208SOL    HW132631   2.327   1.640   5.586 -0.6233  0.6579 -1.8188
10208SOL    HW232632   2.278   1.782   5.568  0.8031  1.4913  0.5133
10209SOL     OW32633   1.597   5.096   4.728 -0.2292  0.2917 -0.3072
10209SOL    HW132634   1.658   5.137   4.667  1.0788 -0.3122  0.5773
10209SOL    HW232635   1.522   5.156   4.729  1.3485  2.3612  0.4661
10210SOL     OW32636   2.350   1.527   5.077  0.4475  0.2177 -0.0074
10210SOL    HW132637   2.325   1.436   5.063  1.6468  0.1539 -2.1537
10210SOL    HW232638   2.438   1.533   5.042  0.7211  2.0388  0.8758
10211SOL     OW32639   3.314   1.612   8.790  0.1561  0.2838 -0.2351
10211SOL    HW132640   3.406   1.589   8.796  0.3047 -0.1929 -2.9902
10211SOL    HW232641   3.313   1.708   8.796  0.8660  0.3110 -0.4661
10212SOL     OW32642   2.144   5.268   5.691 -0.3081 -0.2415  0.2333
10212SOL    HW132643   2.057   5.291   5.658  0.1181 -2.1726 -2.6093
10212SOL    HW232644   2.204   5.302   5.625  1.1987  1.3362  2.3132
10213SOL     OW32645   9.472   4.626   0.575 -0.3261 -0.1430 -0.0085
10213SOL    HW132646   9.456   4.645   0.667 -0.6285 -2.0850  0.3927
10213SOL    HW232647   9.542   4.686   0.549  0.1657  0.0415  1.6480
10214SOL     OW32648   0.287   4.930   6.750 -0.7554 -0.2095 -0.3731
10214SOL    HW132649   0.271   4.843   6.787  0.5009 -0.7014 -0.9407
10214SOL    HW232650   0.325   4.912   6.664 -0.9890  0.9116 -0.7180
10215SOL     OW32651   2.889   7.259   2.538 -0.1061 -0.1722 -0.4995
10215SOL    HW132652   2.847   7.179   2.508  1.0619 -0.2854 -1.9458
10215SOL    HW232653   2.980   7.234   2.555  0.2486  0.8120 -0.8408
10216SOL     OW32654   5.030   5.296   3.809 -0.0152  0.1844  0.1339
10216SOL    HW132655   5.121   5.320   3.826 -0.2200  0.4156  0.9158
10216SOL    HW232656   5.007   5.234   3.878  0.2817 -1.8013 -1.4375
10217SOL     OW32657   9.550   0.363  10.549 -0.4799  0.0624  0.4932
10217SOL    HW132658   9.581   0.273  10.546  0.3508  0.3145  1.1371
10217SOL    HW232659   9.466   0.358  10.595 -0.4215 -0.3727  0.5549
10218SOL     OW32660   5.254   5.154   5.593 -0.1267  0.1581 -0.2506
10218SOL    HW132661   5.182   5.204   5.632 -0.8264 -0.2704 -0.9605
10218SOL    HW232662   5.333   5.195   5.628 -0.6969 -0.6853  2.2136
10219SOL     OW32663   1.032   0.832   3.046 -0.0429  0.4665  0.0059
10219SOL    HW132664   0.999   0.807   3.133  0.6941  0.4064  0.2709
10219SOL    HW232665   0.957   0.874   3.004 -0.2915  0.8877  0.8335
10220SOL     OW32666  10.533  10.114   2.154 -0.6115 -0.0314  0.0855
10220SOL    HW132667  10.628  10.108   2.162 -0.1638  1.2240 -2.8568
10220SOL    HW232668  10.512  10.202   2.186 -0.5212  0.3261 -0.8136
10221SOL     OW32669   3.899  10.314   8.045  0.7951  0.5247  0.8012
10221SOL    HW132670   3.934  10.279   8.127  1.2045 -0.0872  0.3758
10221SOL    HW232671   3.934  10.403   8.039 -0.0542  0.9480  1.7736
10222SOL     OW32672   3.160  10.125   8.529  0.3881 -0.2141 -0.3690
10222SOL    HW132673   3.167  10.030   8.535 -1.6948 -0.3100  1.8744
10222SOL    HW232674   3.248  10.157   8.549  1.2327 -1.6292 -1.6558
10223SOL     OW32675   7.802   0.729   4.025  0.1916  0.9375  0.3668
10223SOL    HW132676   7.751   0.691   3.954 -0.9185 -1.7405  2.4277
10223SOL    HW232677   7.791   0.824   4.015 -0.9659  0.6074 -2.2159
10224SOL     OW32678   6.482   2.241   4.001 -0.2761 -0.0306 -0.1495
10224SOL    HW132679   6.456   2.174   4.065  0.1751 -0.5384 -0.4917
10224SOL    HW232680   6.545   2.197   3.944  1.4392  1.1961  0.7095
10225SOL     OW32681   6.781   1.099   5.613  0.1777  0.4147  0.2919
10225SOL    HW132682   6.865   1.058   5.633  1.3476  2.2631 -0.6081
10225SOL    HW232683   6.802   1.169   5.552 -1.9821  1.2096  0.3641
10226SOL     OW32684   2.327   7.271   6.458  0.0894  0.3333  0.2270
10226SOL    HW132685   2.352   7.347   6.405 -0.5167 -0.9298 -2.0409
10226SOL    HW232686   2.404   7.253   6.512  1.5079  0.6093 -1.5969
10227SOL     OW32687   1.654   6.860   2.566  0.7450 -0.1685 -0.3888
10227SOL    HW132688   1.613   6.774   2.574 -0.2328  0.2914 -0.3527
10227SOL    HW232689   1.637   6.886   2.475  1.1643 -0.0656 -0.4422
10228SOL     OW32690   1.176   3.821   0.157 -0.3537  0.3359 -0.8375
10228SOL    HW132691   1.141   3.798   0.243  0.8014  1.8546  0.0859
10228SOL    HW232692   1.108   3.794   0.095 -2.9787  2.6879  0.8000
10229SOL     OW32693   0.270   2.406   3.862 -0.8050 -0.3365  0.9803
10229SOL    HW132694   0.320   2.354   3.926 -0.1873 -1.5513 -0.4211
10229SOL    HW232695   0.315   2.491   3.861  0.3461 -0.9192  0.8313
10230SOL     OW32696   1.941   2.234   1.182  0.7951  0.0401 -0.7753
10230SOL    HW132697   1.952   2.322   1.219  0.1497  0.9932 -2.7292
10230SOL    HW232698   1.851   2.234   1.149  0.7528 -1.4166 -0.7111
10231SOL     OW32699   5.762   9.127   8.939  0.2849 -0.4012  0.4132
10231SOL    HW132700   5.775   9.059   8.873 -2.6518 -0.5988 -0.0650
10231SOL    HW232701   5.709   9.085   9.007 -0.0188  0.9124  1.0182
10232SOL     OW32702   9.287   4.341   5.302  0.3087  0.2476 -0.1932
10232SOL    HW132703   9.302   4.247   5.289  0.6702  0.4627 -1.4595
10232SOL    HW232704   9.362   4.383   5.261  1.1137  1.0628  2.0060
10233SOL     OW32705   8.785   3.473   7.172 -0.0309  0.0059 -0.1843
10233SOL    HW132706   8.817   3.463   7.261 -1.3851  1.0097  0.4575
10233SOL    HW232707   8.699   3.431   7.173  0.2110 -0.5356 -1.1970
10234SOL     OW32708  10.150   4.116   1.468 -0.0765  0.7898 -0.5128
10234SOL    HW132709  10.120   4.118   1.377 -1.0670  0.3421 -0.2136
10234SOL    HW232710  10.230   4.063   1.465  0.6315  1.8603 -1.3081
10235SOL     OW32711   1.493   3.172   3.759 -0.6853  0.7294  0.3471
10235SOL    HW132712   1.559   3.113   3.794  0.5833  1.2009 -1.1515
10235SOL    HW232713   1.445   3.202   3.837  0.8621  0.3912  1.4982
10236SOL     OW32714   1.729   6.467   3.875  0.0195  0.8581 -0.4703
10236SOL    HW132715   1.760   6.377   3.872  0.5012  1.0525 -2.1438
10236SOL    HW232716   1.689   6.476   3.962 -0.6672 -1.1565 -0.5372
10237SOL     OW32717   4.491   1.413   2.049  0.4038 -0.0091 -0.3497
10237SOL    HW132718   4.491   1.360   1.969 -2.0511 -0.9747  0.1915
10237SOL    HW232719   4.399   1.417   2.075  0.9502  1.5765  1.6092
10238SOL     OW32720   2.765   4.674   0.572  0.1524  0.1790  0.0135
10238SOL    HW132721   2.771   4.697   0.665 -2.4701 -1.4323  0.6761
10238SOL    HW232722   2.716   4.746   0.533 -1.3737 -0.5493  0.5288
10239SOL     OW32723   6.855   3.004   8.555  0.4108  0.1838  0.3701
10239SOL    HW132724   6.830   3.073   8.617  0.4258 -1.1842  1.9810
10239SOL    HW232725   6.945   3.026   8.531  0.5069  0.5956  1.0680
10240SOL     OW32726  10.362   7.527   7.904  0.3910  0.7279  0.5613
10240SOL    HW132727  10.313   7.450   7.931  2.1136 -0.6322 -0.0152
10240SOL    HW232728  10.384   7.511   7.812  0.5400  2.0601  0.3373
10241SOL     OW32729   6.946   2.920   5.188 -0.2059 -0.6853 -0.1394
10241SOL    HW132730   6.867   2.897   5.138 -0.2954 -0.8358  0.0705
10241SOL    HW232731   7.004   2.845   5.175 -0.7541 -1.3501  1.0883
10242SOL     OW32732   4.628   2.780   8.386  0.2102 -0.2510 -0.0500
10242SOL    HW132733   4.708   2.780   8.439 -0.6911  1.2096  1.3879
10242SOL    HW232734   4.577   2.706   8.420  1.1560 -1.5808 -1.3922
10243SOL     OW32735   9.480   3.230   1.448 -0.0267 -0.6996 -0.4085
10243SOL    HW132736   9.530   3.150   1.464  0.1144 -0.6384 -0.5444
10243SOL    HW232737   9.544   3.301   1.460  0.1244 -0.6519 -1.3701
10244SOL     OW32738   8.433   6.385   2.758 -0.9064  0.2970  0.2900
10244SOL    HW132739   8.407   6.456   2.817  0.6610  0.7569  0.4487
10244SOL    HW232740   8.433   6.307   2.815  0.0852  0.6494  0.7908
10245SOL     OW32741   0.847   4.510   0.137  0.8499 -0.5571  0.0954
10245SOL    HW132742   0.763   4.555   0.139  0.4762 -1.1347 -1.3152
10245SOL    HW232743   0.827   4.425   0.098  2.2504 -0.3427 -1.1512
10246SOL     OW32744   0.656  10.438   9.641 -0.4182 -0.0214 -0.2391
10246SOL    HW132745   0.594  10.509   9.656  0.3817  0.5392  0.5218
10246SOL    HW232746   0.741  10.482   9.634  0.0402 -0.8684 -0.1394
10247SOL     OW32747   8.425   4.448   9.389  0.2695 -0.1603 -0.0063
10247SOL    HW132748   8.517   4.423   9.383  0.5526  0.8843 -0.2811
10247SOL    HW232749   8.388   4.426   9.304  1.0065  2.1320 -0.9950
10248SOL     OW32750   6.564   8.779   0.922  0.1754 -0.1374  0.2664
10248SOL    HW132751   6.500   8.834   0.967 -1.8871 -1.7188 -0.6084
10248SOL    HW232752   6.605   8.837   0.858 -0.8533  0.7679  0.4046
10249SOL     OW32753   9.581   1.620   8.794 -0.0756 -0.0166  0.1487
10249SOL    HW132754   9.651   1.593   8.734  1.3792 -0.1554  1.8394
10249SOL    HW232755   9.544   1.538   8.827  1.2927 -0.0122  1.8259
10250SOL     OW32756   6.920   5.914  11.086 -0.6861 -0.4225  0.0238
10250SOL    HW132757   7.000   5.917  11.138 -0.7129 -3.3664  0.3786
10250SOL    HW232758   6.852   5.948  11.144 -0.6285 -3.1492  1.8607
10251SOL     OW32759   9.157   0.024   1.136 -0.0154  0.1842  0.4739
10251SOL    HW132760   9.236  -0.014   1.175  0.6915  0.8297 -0.2950
10251SOL    HW232761   9.162   0.001   1.043 -1.8669 -1.6470  0.7415
10252SOL     OW32762   2.971  10.300  10.350 -0.4976  0.3226  0.1324
10252SOL    HW132763   2.956  10.389  10.384 -1.3350 -0.0061  0.6522
10252SOL    HW232764   2.944  10.306  10.258 -1.6437  0.3434  0.4494
10253SOL     OW32765   8.281   5.245   4.323 -0.0236 -0.2367 -0.3676
10253SOL    HW132766   8.223   5.292   4.383  0.0614  0.4078 -0.7782
10253SOL    HW232767   8.243   5.158   4.316 -1.2983  0.3665 -1.1153
10254SOL     OW32768   3.001   8.551   0.738 -0.0763  0.2292 -0.0506
10254SOL    HW132769   3.013   8.463   0.774  0.3699  0.7338  1.0960
10254SOL    HW232770   2.906   8.560   0.730 -0.1961  0.0866  1.0348
10255SOL     OW32771   7.798   1.842   7.546  0.2638 -0.2047  0.6224
10255SOL    HW132772   7.725   1.856   7.606 -0.6051 -2.5866  0.2524
10255SOL    HW232773   7.867   1.806   7.602 -0.0494 -1.0903  0.4568
10256SOL     OW32774   2.317   0.219   4.662 -0.7532  0.1015  0.1228
10256SOL    HW132775   2.401   0.255   4.690 -0.1875 -0.7762 -0.3832
10256SOL    HW232776   2.266   0.212   4.742 -1.0861  2.4703  0.1865
10257SOL     OW32777   7.595   2.952   5.229  0.6418 -0.3613 -0.4036
10257SOL    HW132778   7.542   2.992   5.160 -1.2955 -1.7725  0.1687
10257SOL    HW232779   7.620   2.867   5.192 -1.4648 -1.6704  0.9954
10258SOL     OW32780   2.245   6.067   8.816 -0.4701  0.1004 -0.8025
10258SOL    HW132781   2.297   6.045   8.738 -0.4486  1.1031 -1.0889
10258SOL    HW232782   2.157   6.039   8.794 -0.5517  0.7778 -1.3825
10259SOL     OW32783   5.596   1.444   1.052  0.5045  0.4497  0.1347
10259SOL    HW132784   5.664   1.459   1.118 -0.1059  0.8441  0.6871
10259SOL    HW232785   5.514   1.466   1.097 -0.1088 -1.1469 -0.1504
10260SOL     OW32786  10.703   4.752   8.503  0.1879  0.1105  0.2946
10260SOL    HW132787  10.674   4.709   8.422 -2.4832  0.2011  1.1242
10260SOL    HW232788  10.706   4.681   8.567  0.9772  0.2824  0.4608
10261SOL     OW32789   6.350  10.501   7.222  0.1115 -0.0557  0.4134
10261SOL    HW132790   6.377  10.439   7.154 -1.5011  2.0625 -2.3626
10261SOL    HW232791   6.271  10.461   7.261 -1.7247  0.7033 -2.2812
10262SOL     OW32792   5.878  10.306   5.309  0.1536  0.5262  0.7113
10262SOL    HW132793   5.859  10.221   5.348  2.3517 -0.5176 -0.3255
10262SOL    HW232794   5.912  10.359   5.381  2.3218 -0.7527  0.7217
10263SOL     OW32795   2.515   1.909   4.200 -0.1137  0.6080  0.0918
10263SOL    HW132796   2.567   1.879   4.274  0.6130  1.7971  0.0935
10263SOL    HW232797   2.541   2.000   4.189 -0.7256  0.6387 -1.1952
10264SOL     OW32798   8.729   9.779   7.526  0.7568  0.0683  0.0670
10264SOL    HW132799   8.806   9.796   7.472  1.0868  2.5165  1.1653
10264SOL    HW232800   8.657   9.821   7.480  0.6050  0.1523  0.3765
10265SOL     OW32801   4.156   4.640   3.420 -0.6667  0.2118  0.2120
10265SOL    HW132802   4.078   4.606   3.463  0.0883 -0.0966  1.3794
10265SOL    HW232803   4.229   4.598   3.466  0.2180  1.4637 -0.0094
10266SOL     OW32804   5.539   1.051   0.201  0.4389 -0.9777 -0.6126
10266SOL    HW132805   5.593   1.128   0.216 -0.8188 -0.0625 -0.5832
10266SOL    HW232806   5.499   1.065   0.115 -0.0054 -1.4616 -0.4952
10267SOL     OW32807  10.252   7.071   6.041 -0.4389  0.2820  0.6086
10267SOL    HW132808  10.169   7.061   6.087 -0.3330  1.1055  0.9887
10267SOL    HW232809  10.228   7.075   5.948 -0.7666 -0.0294  0.6780
10268SOL     OW32810   0.113   7.347   5.625  0.2619 -0.7228 -0.1699
10268SOL    HW132811   0.048   7.317   5.688 -0.3030 -0.4588 -0.6208
10268SOL    HW232812   0.109   7.442   5.630  0.1029 -0.6972 -0.7138
10269SOL     OW32813   1.948   2.067   3.271 -0.1415 -0.0130  0.0980
10269SOL    HW132814   2.020   2.085   3.330  1.2645 -0.1985 -1.4890
10269SOL    HW232815   1.937   2.148   3.221 -1.0077 -0.0077  0.2717
10270SOL     OW32816   9.383   0.594   8.572 -0.1052 -0.6117  0.1764
10270SOL    HW132817   9.333   0.675   8.563 -0.8234 -1.2248 -2.0130
10270SOL    HW232818   9.474   0.623   8.577 -0.5089  0.4715  3.3726
10271SOL     OW32819   3.771   8.429   5.058  0.2581  0.3249  0.2835
10271SOL    HW132820   3.689   8.383   5.076  0.1546  0.3670 -0.0843
10271SOL    HW232821   3.809   8.444   5.145  0.2568 -0.3936  0.4174
10272SOL     OW32822   1.938   7.972  10.183 -0.3504 -0.0864  0.1416
10272SOL    HW132823   1.871   8.029  10.221 -0.3685 -0.3053  0.4432
10272SOL    HW232824   2.011   8.030  10.162 -0.9124  0.2787 -0.8836
10273SOL     OW32825   5.223   7.888   0.446 -0.1109 -0.1820 -0.0998
10273SOL    HW132826   5.262   7.909   0.362 -1.1896 -1.5342 -0.9720
10273SOL    HW232827   5.128   7.896   0.432 -0.2884  1.3428  1.4927
10274SOL     OW32828   4.049   4.079   1.112 -0.1218  0.4489 -0.4435
10274SOL    HW132829   4.076   4.113   1.198  1.1016 -0.8191 -0.2849
10274SOL    HW232830   4.115   4.113   1.051  0.7123 -0.9690 -0.3909
10275SOL     OW32831   8.112   2.504   7.968  0.2082  0.2173  0.4796
10275SOL    HW132832   8.158   2.588   7.966 -0.0122  0.3687  1.3949
10275SOL    HW232833   8.019   2.527   7.966  0.1395 -0.0754 -0.9254
10276SOL     OW32834   2.419   4.233   7.260  0.0638 -0.6210 -0.0706
10276SOL    HW132835   2.499   4.184   7.279  0.5295 -0.1019 -0.6308
10276SOL    HW232836   2.404   4.285   7.338 -0.3977 -1.5892  0.5045
10277SOL     OW32837   8.320   2.224   7.796 -0.2879  0.4673  0.3680
10277SOL    HW132838   8.254   2.247   7.730 -1.2184 -1.4811  0.5146
10277SOL    HW232839   8.278   2.245   7.879 -0.3732  0.0806  0.4261
10278SOL     OW32840   4.193  10.169   6.978  0.4510 -0.1490 -0.6306
10278SOL    HW132841   4.214  10.198   6.890  0.7263 -3.1426 -1.6768
10278SOL    HW232842   4.258  10.102   6.997 -0.7991 -0.9576  1.0443
10279SOL     OW32843   5.249   6.105   8.501  0.1560  0.7378  0.0790
10279SOL    HW132844   5.292   6.028   8.465 -0.0746  0.5518  0.1983
10279SOL    HW232845   5.222   6.078   8.589  1.4378  1.4360  0.7138
10280SOL     OW32846   3.504   4.419   8.585 -0.3160 -0.1156  0.2533
10280SOL    HW132847   3.446   4.489   8.614 -0.3872  0.4011 -1.0406
10280SOL    HW232848   3.447   4.342   8.577 -0.8778  0.4007 -1.0621
10281SOL     OW32849   8.743   7.679   3.604 -0.6935 -0.0459 -0.4036
10281SOL    HW132850   8.835   7.674   3.630 -0.8136 -0.6064 -0.0665
10281SOL    HW232851   8.698   7.712   3.682 -0.8428 -0.2327 -0.4110
10282SOL     OW32852   7.230   6.332   1.704  0.0542 -0.2849  0.1196
10282SOL    HW132853   7.312   6.353   1.747  0.9050 -0.7321 -1.2300
10282SOL    HW232854   7.227   6.236   1.701  1.3435 -0.3553 -3.0832
10283SOL     OW32855  10.490   1.319   3.389 -0.7299  0.3047  0.1695
10283SOL    HW132856  10.435   1.388   3.429 -1.1046  0.5524 -0.7474
10283SOL    HW232857  10.564   1.310   3.449 -1.2283  0.7396  0.8699
10284SOL     OW32858   3.761   9.236   4.603 -0.2425  0.3988  0.1913
10284SOL    HW132859   3.815   9.175   4.654 -1.5595 -0.3261  0.7531
10284SOL    HW232860   3.811   9.251   4.523  0.4235 -0.8849  0.3485
10285SOL     OW32861  10.467   3.064   1.869 -0.3819 -0.2846 -0.0668
10285SOL    HW132862  10.524   3.107   1.932  0.3651  1.2527 -1.7254
10285SOL    HW232863  10.378   3.080   1.902  0.0067  0.0799  0.8275
10286SOL     OW32864   9.947   3.996   9.182 -0.3431  0.3506 -0.3581
10286SOL    HW132865  10.010   4.067   9.171 -1.4467  1.2253 -1.2184
10286SOL    HW232866   9.965   3.962   9.270  2.4500 -0.5748 -1.1675
10287SOL     OW32867   2.639   6.891   9.121  0.0585 -0.1204 -0.0560
10287SOL    HW132868   2.613   6.972   9.077  0.5254  0.1200  0.0996
10287SOL    HW232869   2.575   6.880   9.191 -0.1353 -0.0025 -0.2140
10288SOL     OW32870   3.911   4.478   3.531  0.0991 -0.5521 -0.5385
10288SOL    HW132871   3.897   4.503   3.622 -0.1105  0.5928 -0.8685
10288SOL    HW232872   3.922   4.383   3.533 -0.0459 -0.5512  0.6568
10289SOL     OW32873   1.258   2.918   7.323  0.0894  0.0678  0.3699
10289SOL    HW132874   1.260   2.838   7.375  0.7443 -0.1955 -0.0517
10289SOL    HW232875   1.340   2.917   7.273  0.2879  1.1916  0.6443
10290SOL     OW32876   2.858   6.384   9.720  0.7152 -0.0749  0.0872
10290SOL    HW132877   2.845   6.411   9.629 -1.1974  0.6858  0.5336
10290SOL    HW232878   2.901   6.459   9.761  0.6261 -0.0001  0.0434
10291SOL     OW32879  10.780   6.032   6.641  0.0110 -0.1415  0.3251
10291SOL    HW132880  10.722   6.078   6.580  0.5448 -0.8100 -0.6951
10291SOL    HW232881  10.866   6.072   6.629  0.0752 -0.1149  0.8208
10292SOL     OW32882   3.737   2.684  11.064 -0.2582  0.3472 -0.2903
10292SOL    HW132883   3.715   2.612  11.004  0.3043  0.3568 -0.5155
10292SOL    HW232884   3.704   2.762  11.020  0.0496  0.3404 -0.5424
10293SOL     OW32885   8.032   3.691   2.406 -0.4069  0.6741  0.3529
10293SOL    HW132886   8.091   3.687   2.481  0.8157  0.0211 -0.6099
10293SOL    HW232887   7.946   3.708   2.445  0.1370  0.0723  1.9224
10294SOL     OW32888   4.210  11.059   0.036 -0.1140  0.3238 -0.6062
10294SOL    HW132889   4.291  11.020   0.068  1.1595  3.3178  0.1452
10294SOL    HW232890   4.150  11.056   0.111 -1.3960 -3.1882 -1.5550
10295SOL     OW32891   3.224   5.261   6.843  0.0662  0.2499  0.5999
10295SOL    HW132892   3.270   5.179   6.827  1.5337  1.2403 -0.5304
10295SOL    HW232893   3.292   5.328   6.841 -1.2754  1.6720 -0.1810
10296SOL     OW32894   5.389   7.333   6.162 -0.4943  0.2566 -0.1249
10296SOL    HW132895   5.321   7.288   6.112  0.5271 -0.6452 -0.7402
10296SOL    HW232896   5.435   7.386   6.097  0.9725 -1.0752 -0.2240
10297SOL     OW32897   3.432   1.599   2.705 -0.1707 -0.0177 -0.8313
10297SOL    HW132898   3.423   1.514   2.662 -0.5514 -2.0011  2.7540
10297SOL    HW232899   3.518   1.597   2.746 -0.7757  0.6326  0.5478
10298SOL     OW32900   1.971   2.329   0.475 -0.1364 -0.0412 -0.2463
10298SOL    HW132901   1.893   2.357   0.524 -0.4250  2.6221 -1.9977
10298SOL    HW232902   2.011   2.262   0.531 -2.5031  0.0080  1.7226
10299SOL     OW32903   4.016   4.991   6.433  0.3193  0.0623  0.1659
10299SOL    HW132904   4.053   4.972   6.347  1.5426 -1.0100  0.8786
10299SOL    HW232905   3.985   4.906   6.464  2.0367 -0.0732  1.7059
10300SOL     OW32906   2.359   5.529   2.535  0.1835  0.2098  0.1238
10300SOL    HW132907   2.359   5.512   2.629  0.3131  0.0094  0.0873
10300SOL    HW232908   2.374   5.443   2.495 -3.3733 -0.4201 -0.2005
10301SOL     OW32909   0.611   2.185   6.182 -0.0917  0.1726 -0.2637
10301SOL    HW132910   0.618   2.167   6.088 -0.1432 -0.7889 -0.0871
10301SOL    HW232911   0.526   2.149   6.207 -0.1790  0.6349  0.1116
10302SOL     OW32912   3.119   8.045   1.937  0.7026 -0.3050 -0.1837
10302SOL    HW132913   3.131   8.032   2.031  1.0510 -1.7686 -0.3988
10302SOL    HW232914   3.028   8.020   1.920  1.1835 -1.9880 -0.4980
10303SOL     OW32915  10.147   4.584   7.605  0.4473  0.4362 -0.2876
10303SOL    HW132916  10.087   4.651   7.638 -0.5585 -0.4261 -0.3187
10303SOL    HW232917  10.092   4.523   7.556  1.3576 -0.3364 -0.4022
10304SOL     OW32918   8.133   3.890   6.175 -0.1948 -0.2623 -0.6472
10304SOL    HW132919   8.111   3.875   6.083 -1.2773  0.2560 -0.4946
10304SOL    HW232920   8.157   3.982   6.179  1.9979 -0.7733 -0.7753
10305SOL     OW32921   9.488   6.420   3.188  0.1746  0.4950 -0.4417
10305SOL    HW132922   9.554   6.477   3.148  0.0074  0.5282 -0.6760
10305SOL    HW232923   9.482   6.450   3.279  1.5599 -0.4975  0.0003
10306SOL     OW32924   9.884   2.631   6.292  0.0803 -0.3996  0.3091
10306SOL    HW132925   9.946   2.704   6.298  1.5737 -1.6239  0.6016
10306SOL    HW232926   9.802   2.670   6.262  1.5695  0.9814 -2.3098
10307SOL     OW32927   5.620   5.038   4.151 -0.0809  0.0946 -0.2172
10307SOL    HW132928   5.531   5.005   4.144 -0.3981  0.0739  2.7025
10307SOL    HW232929   5.620   5.118   4.097 -1.6793 -0.2055 -0.7187
10308SOL     OW32930   2.956   6.861   3.640 -0.2948  0.2915  0.0854
10308SOL    HW132931   2.939   6.902   3.725 -0.0626  1.3396 -0.3657
10308SOL    HW232932   2.884   6.800   3.628 -0.1087 -0.1933  1.2304
10309SOL     OW32933   5.838   2.867   5.013 -0.0635  0.1788 -0.0867
10309SOL    HW132934   5.755   2.875   5.060  0.4781 -2.4150  1.5188
10309SOL    HW232935   5.898   2.926   5.060 -0.8214  1.7503 -1.0044
10310SOL     OW32936   0.596   5.075   5.911 -0.2635  0.5784 -0.5923
10310SOL    HW132937   0.545   5.134   5.966 -1.9543 -1.8924  0.6776
10310SOL    HW232938   0.536   5.049   5.841 -0.1429 -0.8654 -0.1931
10311SOL     OW32939   6.165   3.115  10.212 -0.7700  0.1979  0.0115
10311SOL    HW132940   6.085   3.121  10.159 -0.8277  0.7416  0.1502
10311SOL    HW232941   6.134   3.110  10.302 -0.6487  0.4346  0.0674
10312SOL     OW32942  10.137   0.469   3.340 -0.0656 -1.0067  0.2119
10312SOL    HW132943  10.109   0.514   3.260  2.8773  2.9585  1.0681
10312SOL    HW232944  10.062   0.478   3.399 -0.0045  2.2007 -0.0233
10313SOL     OW32945   6.326   5.378   1.961 -0.6103 -0.2112  0.0660
10313SOL    HW132946   6.397   5.363   2.025  1.4697  1.4008 -1.7058
10313SOL    HW232947   6.247   5.348   2.006  0.9849 -0.8512  2.6913
10314SOL     OW32948   2.820   8.663  10.699  0.1667 -0.3307  0.0744
10314SOL    HW132949   2.834   8.751  10.733 -0.9201 -0.5857  1.2886
10314SOL    HW232950   2.818   8.674  10.604  1.2676  0.7435  0.1556
10315SOL     OW32951   5.143   1.011   2.998 -0.1749  0.1648 -0.5127
10315SOL    HW132952   5.226   0.973   3.027 -0.3737  0.8321  1.0274
10315SOL    HW232953   5.169   1.085   2.943  0.2486  0.0039 -0.5313
10316SOL     OW32954   7.836   3.491   7.837  0.0951  0.4780 -0.4298
10316SOL    HW132955   7.781   3.560   7.799  0.7567  2.5053  2.0303
10316SOL    HW232956   7.920   3.534   7.855  1.0912 -1.4256 -0.2535
10317SOL     OW32957   8.469   1.747   4.093 -0.1252  0.2035 -0.0221
10317SOL    HW132958   8.431   1.737   4.005  1.2161 -0.3846 -0.5632
10317SOL    HW232959   8.560   1.771   4.077  0.4354 -0.9819  1.1908
10318SOL     OW32960   2.062   0.011   6.190 -0.5361  0.2615  0.2080
10318SOL    HW132961   2.125   0.016   6.118 -0.6153 -0.1257  0.1065
10318SOL    HW232962   1.978   0.031   6.150 -0.3742  1.6258  0.5112
10319SOL     OW32963   3.489   0.491   6.017  0.5654  0.6308 -0.7515
10319SOL    HW132964   3.528   0.446   6.092 -2.4920  0.4301  0.8800
10319SOL    HW232965   3.508   0.434   5.943  2.4197  0.0832  0.0726
10320SOL     OW32966   5.100   3.696   6.310  0.6852 -0.3243  0.0664
10320SOL    HW132967   5.025   3.745   6.276 -0.4482 -2.0093  0.0444
10320SOL    HW232968   5.137   3.653   6.233  1.6718  0.4275  0.0880
10321SOL     OW32969   0.161  10.793   4.484  0.1992  0.4914  0.6643
10321SOL    HW132970   0.071  10.810   4.456  0.1031  2.0099  1.7706
10321SOL    HW232971   0.214  10.813   4.407 -0.2874  1.3367  0.5403
10322SOL     OW32972  10.913   4.324   3.659  1.0998 -0.0040 -0.2613
10322SOL    HW132973  11.006   4.322   3.680  0.9687 -1.0830  0.3238
10322SOL    HW232974  10.874   4.378   3.727  1.2570  0.2242 -0.3500
10323SOL     OW32975   3.625   1.810   3.216  1.0852 -0.5979  0.4355
10323SOL    HW132976   3.670   1.894   3.227  0.7897 -0.3457 -0.2099
10323SOL    HW232977   3.695   1.748   3.194  0.9515  0.1742 -2.5139
10324SOL     OW32978  10.855  10.640   1.086  0.4909 -0.2698 -0.3990
10324SOL    HW132979  10.775  10.666   1.133 -0.5782 -1.7776 -1.3168
10324SOL    HW232980  10.897  10.724   1.063 -0.9618  0.5701 -0.1264
10325SOL     OW32981   5.079   4.945   5.194 -0.2674  0.2960  0.2242
10325SOL    HW132982   5.024   4.993   5.133 -0.3442 -0.0299  0.0361
10325SOL    HW232983   5.054   4.853   5.182  0.4713  0.1214 -0.0268
10326SOL     OW32984   5.356   1.822   7.753 -0.4481 -0.4842  0.1964
10326SOL    HW132985   5.392   1.778   7.676 -0.5659  0.1428 -0.2254
10326SOL    HW232986   5.330   1.909   7.721 -0.4368 -0.1929  0.9544
10327SOL     OW32987   9.890   0.031   6.656  0.0576  0.7643  0.0768
10327SOL    HW132988   9.873  -0.027   6.582  0.3775 -1.1319  1.4185
10327SOL    HW232989   9.959   0.090   6.625  1.8905 -1.5055 -0.4332
10328SOL     OW32990   7.715   8.658   5.316  0.3061  0.3505 -0.2024
10328SOL    HW132991   7.785   8.622   5.370  0.0588 -1.0990 -0.7921
10328SOL    HW232992   7.726   8.615   5.231 -1.7010 -0.4547 -0.1032
10329SOL     OW32993   8.880   6.540   7.640  0.2889  0.7848  0.3576
10329SOL    HW132994   8.894   6.535   7.734 -0.9775 -0.3872  0.5186
10329SOL    HW232995   8.797   6.494   7.625 -0.2411  2.1180 -1.1677
10330SOL     OW32996   4.627   2.710   5.435  0.2307  0.3115  0.0279
10330SOL    HW132997   4.568   2.722   5.361  0.4904 -1.2671 -0.4759
10330SOL    HW232998   4.630   2.796   5.478 -1.3397  0.7764 -0.7223
10331SOL     OW32999   3.814   4.801   2.220  0.0216  0.1836  0.4444
10331SOL    HW133000   3.757   4.870   2.256  2.7112  1.9132  1.7651
10331SOL    HW233001   3.774   4.778   2.136 -2.2440  1.7177  1.0048
10332SOL     OW33002   8.537   7.257   3.098 -0.0217 -0.4106  0.2222
10332SOL    HW133003   8.449   7.245   3.135  0.1155  1.2536  1.1735
10332SOL    HW233004   8.557   7.350   3.113  2.8375 -1.2115  2.1446
10333SOL     OW33005   4.684   7.592   9.280  0.0985  0.2848 -0.0670
10333SOL    HW133006   4.777   7.593   9.256  0.1034 -0.2772 -0.0811
10333SOL    HW233007   4.682   7.545   9.364 -0.2127 -0.0100 -0.2394
10334SOL     OW33008   2.999   7.732   1.898  0.4800 -0.1280 -0.0363
10334SOL    HW133009   2.949   7.682   1.962  1.0446  0.1082  0.5988
10334SOL    HW233010   2.939   7.798   1.865 -0.0989 -0.8424 -0.4544
10335SOL     OW33011   5.792   6.526   7.074  0.6256  0.5527  0.4524
10335SOL    HW133012   5.713   6.530   7.128  0.0380 -0.2430 -0.3259
10335SOL    HW233013   5.763   6.553   6.987  1.4860  1.4612  0.4294
10336SOL     OW33014   0.484   6.505   3.518  0.0570  0.6932  0.4255
10336SOL    HW133015   0.450   6.422   3.485 -0.1569  0.8772  0.1833
10336SOL    HW233016   0.544   6.535   3.451 -0.2795  1.0020  0.2576
10337SOL     OW33017   7.556   0.612   6.922  0.3562 -0.0235  0.0726
10337SOL    HW133018   7.493   0.680   6.946  0.6721  0.0464  0.6985
10337SOL    HW233019   7.527   0.583   6.835 -1.4674 -1.0725  0.9598
10338SOL     OW33020   0.404   7.878   1.678  0.4916 -0.0963 -0.6778
10338SOL    HW133021   0.492   7.871   1.639  0.2977 -0.1470 -1.1134
10338SOL    HW233022   0.347   7.831   1.617 -0.0408  1.0121 -1.0526
10339SOL     OW33023   6.106   7.283  11.072  0.1072 -0.3948  0.1355
10339SOL    HW133024   6.159   7.354  11.107 -0.5003 -0.2738  0.8644
10339SOL    HW233025   6.040   7.268  11.141 -2.0294  0.7903 -1.5167
10340SOL     OW33026   3.719   3.013   1.077 -0.1501 -0.0166  0.6201
10340SOL    HW133027   3.723   2.964   1.159 -0.3770  0.9066  1.2012
10340SOL    HW233028   3.637   3.063   1.083  0.3616  0.8872  0.3284
10341SOL     OW33029   2.591   2.189  11.051 -0.4138  0.2558 -0.7527
10341SOL    HW133030   2.550   2.121  11.105 -0.7865  0.1743 -1.1272
10341SOL    HW233031   2.629   2.250  11.114  0.1162 -0.4107 -0.4165
10342SOL     OW33032   7.892  10.096   1.012 -0.4884 -0.4102 -0.3435
10342SOL    HW133033   7.897  10.085   1.107 -0.2804 -0.8421 -0.4027
10342SOL    HW233034   7.930  10.182   0.996 -1.8369  0.3029  0.0995
10343SOL     OW33035   7.566   3.161   8.902 -0.6589 -0.0959 -0.2399
10343SOL    HW133036   7.611   3.244   8.916 -1.0698  0.1342 -0.2614
10343SOL    HW233037   7.508   3.152   8.977 -2.2333  0.7271 -1.2996
10344SOL     OW33038   9.304   5.786   2.748  0.0048  0.1351 -0.0234
10344SOL    HW133039   9.209   5.776   2.739 -0.0719 -0.3787  1.1650
10344SOL    HW233040   9.321   5.770   2.841  1.3201 -0.3182 -0.3237
10345SOL     OW33041   6.835   6.106   2.036  0.2658 -0.2815  0.3044
10345SOL    HW133042   6.839   6.134   1.945  0.5129 -1.1794  0.0283
10345SOL    HW233043   6.744   6.121   2.062  0.4712  1.1020  0.2923
10346SOL     OW33044   2.956   4.942   9.373 -0.0077  0.2515  0.1680
10346SOL    HW133045   2.873   4.965   9.414 -0.3360  0.4611 -0.6017
10346SOL    HW233046   2.963   5.000   9.297  0.4112 -0.3823 -0.2923
10347SOL     OW33047   1.301   3.591   2.186  0.1949 -0.2689 -0.1714
10347SOL    HW133048   1.207   3.605   2.197  0.3580  0.2153  0.6735
10347SOL    HW233049   1.307   3.527   2.115 -0.6845  1.6140 -2.0755
10348SOL     OW33050   3.667  10.316   7.270 -0.0505  0.3429  0.7687
10348SOL    HW133051   3.633  10.404   7.283 -0.3071  0.7908 -2.2685
10348SOL    HW233052   3.597  10.269   7.225  0.2885 -1.2908  1.8479
10349SOL     OW33053   2.944   6.758   7.507  0.3128  0.1053  0.2111
10349SOL    HW133054   2.994   6.707   7.443  0.5269  1.3491 -0.6499
10349SOL    HW233055   3.003   6.828   7.534  0.0432 -0.1096  1.4143
10350SOL     OW33056   9.517   4.446   2.052 -0.1795 -0.0837 -0.6490
10350SOL    HW133057   9.610   4.453   2.073 -0.5829  0.5574  1.0706
10350SOL    HW233058   9.484   4.535   2.058 -1.3948 -0.6125  1.3622
10351SOL     OW33059   7.484   7.316   3.432  0.0578  0.0662 -0.2202
10351SOL    HW133060   7.447   7.404   3.428 -0.3521 -0.1086 -0.3595
10351SOL    HW233061   7.431   7.265   3.371 -0.2798 -0.4736  0.4963
10352SOL     OW33062   2.781   2.773   2.274  0.4079  0.4727  0.5130
10352SOL    HW133063   2.871   2.801   2.260 -0.1032  1.1739 -1.8706
10352SOL    HW233064   2.769   2.699   2.214 -0.7356  0.7408  0.3750
10353SOL     OW33065   2.989   9.085   0.119  0.6101 -0.2667  0.2462
10353SOL    HW133066   3.056   9.045   0.065  1.7018  0.4946  0.9948
10353SOL    HW233067   3.034   9.109   0.200 -0.3803  0.9311  0.4790
10354SOL     OW33068   7.627   7.838   4.321  0.3034 -0.4697  0.5490
10354SOL    HW133069   7.623   7.819   4.227  1.3081 -1.2318  0.6553
10354SOL    HW233070   7.538   7.823   4.352 -0.2682  0.6824 -0.4357
10355SOL     OW33071   3.310   8.814   7.273 -0.4882 -0.0058 -0.5715
10355SOL    HW133072   3.333   8.762   7.350 -0.5829  0.2326 -0.3797
10355SOL    HW233073   3.215   8.806   7.267 -0.3940 -0.7232 -1.1690
10356SOL     OW33074  10.665   8.172  10.246  0.1401 -0.0596 -0.2025
10356SOL    HW133075  10.604   8.172  10.320 -1.7017 -1.3672 -1.6192
10356SOL    HW233076  10.735   8.113  10.272  0.8674  1.4820  1.4739
10357SOL     OW33077   4.116   2.351   7.251  0.3604  0.1418  0.0680
10357SOL    HW133078   4.089   2.420   7.190  0.0290 -0.6176 -0.6652
10357SOL    HW233079   4.034   2.320   7.289  0.5225  0.2651  0.5184
10358SOL     OW33080   7.519   3.111   4.459  0.4767  0.1666  0.1231
10358SOL    HW133081   7.604   3.150   4.476  0.2056  0.6550  0.3834
10358SOL    HW233082   7.499   3.132   4.368 -1.0545  3.4067  1.0663
10359SOL     OW33083   1.310   6.812   1.208 -0.2464 -0.1974 -0.7659
10359SOL    HW133084   1.297   6.726   1.167 -0.5608  0.0936 -1.2783
10359SOL    HW233085   1.404   6.814   1.229 -0.6482 -1.6957  1.5739
10360SOL     OW33086   4.001   2.088   9.458 -0.0402 -0.5190  0.1974
10360SOL    HW133087   4.017   2.004   9.414 -1.7736 -0.8179  0.0716
10360SOL    HW233088   3.922   2.122   9.417 -0.9036 -0.1074  2.1072
10361SOL     OW33089   6.835   2.921   7.498  0.1730  0.1037 -0.0405
10361SOL    HW133090   6.895   2.851   7.522 -0.0457  0.0378  0.3324
10361SOL    HW233091   6.796   2.893   7.415 -0.4414 -0.5642  0.4620
10362SOL     OW33092   4.176   3.659   4.879 -0.1388 -0.9149  0.6487
10362SOL    HW133093   4.197   3.721   4.809 -1.2863 -1.0761  0.1477
10362SOL    HW233094   4.136   3.712   4.948 -0.2726 -0.9690  0.6115
10363SOL     OW33095   8.001   2.444   5.399  0.5396  0.1717 -0.2422
10363SOL    HW133096   8.017   2.358   5.359 -0.2620 -0.0977 -0.0087
10363SOL    HW233097   7.907   2.458   5.389  0.6028  0.8551  0.0618
10364SOL     OW33098   2.458   1.210   1.488 -0.0996 -0.1592 -0.3467
10364SOL    HW133099   2.460   1.291   1.539 -0.7759 -0.9772  1.0426
10364SOL    HW233100   2.369   1.177   1.500  0.5886 -1.8582  0.3768
10365SOL     OW33101   7.671   7.002   9.044  0.2319 -0.5266  0.6850
10365SOL    HW133102   7.738   6.936   9.031  2.0226  1.0296  1.5755
10365SOL    HW233103   7.694   7.045   9.126 -1.4604  0.5446  0.6562
10366SOL     OW33104   5.919   8.180   7.030  0.7572  0.4341  0.5118
10366SOL    HW133105   5.997   8.212   7.076  0.3146  0.3185  1.3534
10366SOL    HW233106   5.914   8.087   7.053 -0.1899  0.6670  1.2710
10367SOL     OW33107   0.225   4.121   9.207 -0.3613  0.1426 -0.2086
10367SOL    HW133108   0.266   4.194   9.254 -1.1038 -0.9687  2.2994
10367SOL    HW233109   0.239   4.045   9.263 -0.7170 -1.4503 -2.1521
10368SOL     OW33110   8.703   0.170   3.525  0.2252 -0.1607  0.3691
10368SOL    HW133111   8.687   0.077   3.535  0.5703 -0.0261  2.7476
10368SOL    HW233112   8.674   0.190   3.436 -2.0179 -2.0614  0.5835
10369SOL     OW33113   2.587   9.467   2.588  0.6184  0.1870  0.4878
10369SOL    HW133114   2.670   9.515   2.583  0.9035 -0.4227 -2.8256
10369SOL    HW233115   2.612   9.375   2.583 -0.1757 -0.1253  1.8998
10370SOL     OW33116   0.454   8.633   4.274 -0.4357 -0.0187 -0.1253
10370SOL    HW133117   0.505   8.555   4.250  0.9888  1.1097 -0.9228
10370SOL    HW233118   0.473   8.647   4.367 -0.5516 -0.5014 -0.0260
10371SOL     OW33119   1.396   4.012  10.068 -0.6497 -0.6384  0.1412
10371SOL    HW133120   1.326   3.959  10.108 -1.3261 -0.0354 -0.2231
10371SOL    HW233121   1.470   3.952  10.063 -0.8182 -1.0051  1.4576
10372SOL     OW33122   2.528   3.040   5.213 -0.5564 -0.5557 -0.6762
10372SOL    HW133123   2.562   3.074   5.130  0.8809  0.7195  0.4023
10372SOL    HW233124   2.436   3.067   5.214  0.3187  2.8311 -0.1914
10373SOL     OW33125   3.437   1.615   3.712 -0.2446 -0.2946  0.5761
10373SOL    HW133126   3.359   1.613   3.657  0.7745  0.7794 -0.9885
10373SOL    HW233127   3.511   1.610   3.651  0.9362  0.6374  1.8346
10374SOL     OW33128   0.825   4.122   1.426 -0.1775 -0.2237  0.6178
10374SOL    HW133129   0.766   4.181   1.378  0.9620 -0.2254 -0.8487
10374SOL    HW233130   0.840   4.166   1.510 -0.2898  0.9830  0.0232
10375SOL     OW33131   7.271   6.712   8.131 -0.4017 -0.2735  0.0574
10375SOL    HW133132   7.222   6.630   8.141 -1.2392 -0.2172 -2.6547
10375SOL    HW233133   7.213   6.779   8.167  0.0955 -0.7723  1.8768
10376SOL     OW33134   2.889   4.977   9.883 -0.7277  0.0998  0.5355
10376SOL    HW133135   2.968   4.924   9.880 -0.6311  0.3079 -1.4853
10376SOL    HW233136   2.920   5.066   9.903 -0.6926 -0.1818  1.8305
10377SOL     OW33137   7.034   3.233   5.585  0.3625  0.1486  0.2389
10377SOL    HW133138   7.045   3.143   5.616  0.7014  0.0780 -0.0820
10377SOL    HW233139   7.023   3.224   5.490  0.4313  0.4455  0.2025
10378SOL     OW33140  10.522   5.797   7.400  0.3930  0.0027  0.1452
10378SOL    HW133141  10.495   5.867   7.460  0.2062 -1.5571  1.9903
10378SOL    HW233142  10.617   5.795   7.406  0.5751  1.4535 -1.5808
10379SOL     OW33143   5.727   7.611   2.589 -0.7102 -0.4846  0.1231
10379SOL    HW133144   5.703   7.609   2.682  0.8021 -0.2997  0.5410
10379SOL    HW233145   5.710   7.701   2.562 -1.1373 -0.5321  0.2263
10380SOL     OW33146   7.397  10.607   5.515 -0.3503  0.4355 -0.4613
10380SOL    HW133147   7.369  10.517   5.500  0.7359  0.1659 -0.9955
10380SOL    HW233148   7.431  10.607   5.604  1.1229 -0.1127 -0.9826
10381SOL     OW33149   1.314   5.615   0.091  0.6286  0.0464  0.3430
10381SOL    HW133150   1.380   5.545   0.086  0.5093 -0.0668  0.3321
10381SOL    HW233151   1.290   5.631  -0.001  0.6985  0.1434  0.3410
10382SOL     OW33152   6.706  10.356   2.596  0.5943 -0.1564 -0.6465
10382SOL    HW133153   6.766  10.294   2.553 -3.7731 -4.0390 -1.9402
10382SOL    HW233154   6.647  10.384   2.526 -1.0820  0.8519  1.0880
10383SOL     OW33155   5.768   3.522   5.080 -0.4978  0.1823 -0.6256
10383SOL    HW133156   5.683   3.484   5.101 -0.9497 -0.2438 -2.9754
10383SOL    HW233157   5.761   3.613   5.107 -1.0606 -0.2412  0.7577
10384SOL     OW33158   1.145   1.903  10.837 -0.0010 -0.2572 -0.0118
10384SOL    HW133159   1.158   1.882  10.929 -0.3771 -0.7977 -0.0752
10384SOL    HW233160   1.052   1.924  10.830  0.0885  0.0821 -0.2150
10385SOL     OW33161   0.215   2.659   2.750  0.2538  0.3108  0.0236
10385SOL    HW133162   0.153   2.732   2.749 -0.9083 -0.6513 -0.8625
10385SOL    HW233163   0.170   2.588   2.703  1.6304 -0.7485  0.2343
10386SOL     OW33164   4.626   0.711   1.394 -0.1938 -0.1051  0.3862
10386SOL    HW133165   4.554   0.768   1.421  1.5783  2.2902  0.3805
10386SOL    HW233166   4.650   0.742   1.307  2.0825  0.5208  1.1783
10387SOL     OW33167   4.014   5.308   6.901 -0.6208  0.1997 -0.1840
10387SOL    HW133168   3.927   5.349   6.900 -0.4075  0.7771  1.2426
10387SOL    HW233169   4.022   5.273   6.990  0.4665 -0.1585 -0.4122
10388SOL     OW33170   2.315   6.552   4.302 -0.3049  0.0507 -0.1632
10388SOL    HW133171   2.367   6.610   4.358  0.0626 -0.8632  0.4665
10388SOL    HW233172   2.352   6.465   4.316 -2.0221 -0.6451  0.3443
10389SOL     OW33173   0.322   8.743   2.194 -0.5308 -0.2894 -0.0342
10389SOL    HW133174   0.387   8.673   2.185 -1.3103 -1.0533  0.1414
10389SOL    HW233175   0.238   8.697   2.196 -1.0050  0.5804  1.0214
10390SOL     OW33176   1.406   8.847   5.805 -0.1231 -0.4128 -0.2732
10390SOL    HW133177   1.415   8.826   5.712  0.4077  0.7589 -0.5065
10390SOL    HW233178   1.377   8.765   5.845 -1.6103 -0.6026 -1.6416
10391SOL     OW33179  10.940   1.352   2.128 -0.3253  0.4038 -0.4729
10391SOL    HW133180  10.985   1.268   2.129 -0.6327  0.2412 -0.2282
10391SOL    HW233181  11.004   1.413   2.091  0.2741  0.2696  0.3221
10392SOL     OW33182   2.782   0.480   1.608  0.7081 -0.5723  0.4669
10392SOL    HW133183   2.702   0.507   1.652  0.9570 -0.7083  1.0238
10392SOL    HW233184   2.837   0.558   1.608 -0.2962  0.2237 -2.0467
10393SOL     OW33185   3.962   8.837   9.710  0.0927 -0.7175 -0.5921
10393SOL    HW133186   3.906   8.869   9.781 -1.0761  0.4159 -1.9749
10393SOL    HW233187   3.910   8.769   9.667 -0.0405 -0.0285 -1.5600
10394SOL     OW33188   1.822   7.609   5.538  0.4802  0.4223 -0.6186
10394SOL    HW133189   1.869   7.617   5.455 -0.5344 -1.7067 -1.4478
10394SOL    HW233190   1.743   7.560   5.517 -1.1640  2.1219  1.1316
10395SOL     OW33191  10.010  10.540   8.492  0.0923 -0.1507  0.3214
10395SOL    HW133192   9.973  10.453   8.506 -0.7639  0.1070 -0.2120
10395SOL    HW233193  10.105  10.527   8.494 -0.0161 -1.1972 -0.3235
10396SOL     OW33194   5.630   9.035   3.451  0.0912  0.0223  0.3184
10396SOL    HW133195   5.556   9.050   3.392  0.3006  0.0570  0.0641
10396SOL    HW233196   5.684   9.113   3.442  0.8849 -0.6072 -0.5682
10397SOL     OW33197   3.871   3.623   3.442 -0.2865 -0.2649 -0.3191
10397SOL    HW133198   3.943   3.575   3.484  1.2713  1.0556 -1.3620
10397SOL    HW233199   3.890   3.617   3.349 -1.3718  0.4068 -0.5971
10398SOL     OW33200   7.550   5.978  10.040 -0.6898 -0.6326 -0.4944
10398SOL    HW133201   7.553   6.027   9.958 -0.1915 -0.5787 -0.4479
10398SOL    HW233202   7.494   6.031  10.098  1.1992  0.8004  0.1338
10399SOL     OW33203   0.987   9.581  10.377  0.0806 -0.2023  0.2772
10399SOL    HW133204   0.916   9.517  10.372 -0.2431  0.2105 -0.5346
10399SOL    HW233205   1.038   9.553  10.453 -0.7078 -0.7452  0.6246
10400SOL     OW33206   9.946   0.941   5.535 -0.1917 -0.0481 -0.3740
10400SOL    HW133207   9.936   0.847   5.519 -0.6971  0.1459 -1.2624
10400SOL    HW233208  10.038   0.959   5.518 -0.6105  0.0832 -2.9081
10401SOL     OW33209  10.679   1.379   3.668  0.5382  0.1171 -0.0780
10401SOL    HW133210  10.719   1.460   3.697  0.6587 -0.2522  0.8233
10401SOL    HW233211  10.586   1.388   3.690 -0.3418  1.6450 -3.6120
10402SOL     OW33212   2.855   3.486   7.098 -0.2442 -0.8201 -0.4136
10402SOL    HW133213   2.767   3.471   7.130 -1.2475 -1.0666 -3.0214
10402SOL    HW233214   2.858   3.580   7.076  0.1665 -0.7970 -0.2793
10403SOL     OW33215   0.764  10.699   7.915 -0.5487  0.6595  0.1759
10403SOL    HW133216   0.794  10.790   7.923 -1.3856  1.0522 -1.0435
10403SOL    HW233217   0.811  10.653   7.985  2.5415  1.3321 -1.2574
10404SOL     OW33218   3.525   5.706   4.692  0.6537  0.4049  0.0700
10404SOL    HW133219   3.466   5.632   4.707  2.0911 -0.6159  0.9718
10404SOL    HW233220   3.472   5.770   4.646 -0.8068 -0.9605 -0.2372
10405SOL     OW33221   3.895   3.227   3.440 -0.0667  0.1689 -0.0001
10405SOL    HW133222   3.926   3.201   3.527 -1.5707  1.3845  0.9635
10405SOL    HW233223   3.975   3.240   3.389  0.8361 -1.3685  0.9288
10406SOL     OW33224   4.062   4.166   1.700 -0.0055  0.1267  0.0931
10406SOL    HW133225   4.078   4.211   1.784  0.9855 -0.6845  0.3710
10406SOL    HW233226   4.124   4.206   1.640 -0.7659  0.7553 -0.2744
10407SOL     OW33227   7.183  10.319   9.093  0.0421  1.0339 -0.1228
10407SOL    HW133228   7.109  10.380   9.094  1.8033  3.5077 -3.1729
10407SOL    HW233229   7.258  10.371   9.122  1.1093 -0.6149  0.2300
10408SOL     OW33230   2.871   2.378   7.059 -0.1249 -0.4350  0.3019
10408SOL    HW133231   2.929   2.425   7.118 -0.9488  0.5199  0.3805
10408SOL    HW233232   2.843   2.444   6.995  0.1477 -1.2620 -0.7101
10409SOL     OW33233   4.075   5.752   8.357  0.3919  0.2246 -0.1672
10409SOL    HW133234   4.088   5.842   8.387  0.0612  0.3101 -0.2764
10409SOL    HW233235   4.089   5.699   8.435 -1.5894  0.5182  0.4349
10410SOL     OW33236   1.182   9.805   2.337 -0.1690  0.0611 -0.2975
10410SOL    HW133237   1.250   9.854   2.292  0.2817  0.5870  0.9202
10410SOL    HW233238   1.100   9.841   2.305  0.0929 -0.6817 -1.8932
10411SOL     OW33239   1.010   4.762   9.006  0.1307  0.1359  0.2873
10411SOL    HW133240   1.025   4.847   9.046  4.3943 -0.5016  0.5337
10411SOL    HW233241   1.002   4.702   9.080  0.4543 -0.0930  0.1370
10412SOL     OW33242   4.159   0.612   0.456  0.3928  0.3559  0.3198
10412SOL    HW133243   4.237   0.559   0.472  1.1565  1.8134  1.7667
10412SOL    HW233244   4.102   0.595   0.531  0.0078  0.4784  0.0568
10413SOL     OW33245   8.382   0.115   2.752  0.2528  0.0810 -0.0801
10413SOL    HW133246   8.450   0.143   2.691 -1.4360 -0.1205 -2.1707
10413SOL    HW233247   8.300   0.147   2.714 -0.9389 -0.4359  1.8836
10414SOL     OW33248   4.064   0.427   2.001  0.0507 -0.4456 -0.0745
10414SOL    HW133249   3.977   0.393   1.982  0.7274 -2.2211 -0.1436
10414SOL    HW233250   4.109   0.429   1.916  0.3478 -0.3208  0.0803
10415SOL     OW33251   2.022   4.146   0.292 -0.1036 -0.6278  0.2133
10415SOL    HW133252   1.979   4.164   0.376  1.3335  0.5932  0.7429
10415SOL    HW233253   1.965   4.188   0.227 -0.4063 -0.1843  0.7481
10416SOL     OW33254   0.933   1.959   0.207 -0.0528  0.1947 -0.3267
10416SOL    HW133255   1.020   1.998   0.201 -0.9646  2.4786  0.4031
10416SOL    HW233256   0.921   1.940   0.300 -0.3639 -0.0658 -0.4161
10417SOL     OW33257   8.521  10.619   4.791 -1.0207  0.3501 -0.4906
10417SOL    HW133258   8.476  10.683   4.846 -0.7678 -0.5133  0.7692
10417SOL    HW233259   8.515  10.655   4.702  0.0834  2.6452  0.3025
10418SOL     OW33260   7.957  10.814   7.980 -0.2210 -0.0417 -0.1918
10418SOL    HW133261   8.014  10.754   7.933 -0.7067  0.1226 -1.0139
10418SOL    HW233262   7.919  10.762   8.051  0.2253 -0.3913 -0.2064
10419SOL     OW33263   1.924   6.371   5.651  0.0107  0.2896  0.6248
10419SOL    HW133264   2.005   6.402   5.691  1.0226 -0.2234 -0.9296
10419SOL    HW233265   1.870   6.343   5.725  1.2215  0.6795  1.6954
10420SOL     OW33266   6.927  10.164   8.818 -0.4119 -0.0761 -0.3566
10420SOL    HW133267   6.898  10.113   8.742 -1.9602  0.0610  0.1074
10420SOL    HW233268   6.974  10.101   8.873 -0.4991 -0.5043 -0.7711
10421SOL     OW33269   7.270   6.745   4.696 -0.0817 -0.0845  0.2384
10421SOL    HW133270   7.353   6.745   4.745  0.1866 -0.4427 -0.2120
10421SOL    HW233271   7.241   6.836   4.700  0.4736  0.1038  0.1716
10422SOL     OW33272   9.327   4.840   1.422  0.9814 -0.5633  0.3399
10422SOL    HW133273   9.358   4.752   1.405 -1.7569 -1.5803  0.0616
10422SOL    HW233274   9.259   4.855   1.356  1.6851  1.9783  0.0618
10423SOL     OW33275   7.872   6.719   6.885 -0.5327  0.0257  0.1120
10423SOL    HW133276   7.799   6.752   6.938 -1.3528 -2.3726  0.6103
10423SOL    HW233277   7.838   6.718   6.796 -0.3086  0.9621  0.0045
10424SOL     OW33278   3.859   3.259   9.862  0.6921  0.5026 -0.5187
10424SOL    HW133279   3.814   3.231   9.783  0.2986  1.4383 -0.6431
10424SOL    HW233280   3.931   3.197   9.872  0.8340  0.4517 -1.6944
10425SOL     OW33281   4.059   1.923   3.824  0.1416  0.4749  0.2559
10425SOL    HW133282   3.992   1.990   3.836 -0.4377 -0.3024  1.6648
10425SOL    HW233283   4.017   1.842   3.853  1.8479  0.0466  1.6862
10426SOL     OW33284   5.626   2.156   5.657  0.2514 -0.1895  0.0682
10426SOL    HW133285   5.684   2.212   5.605 -1.1685  0.5287 -0.8219
10426SOL    HW233286   5.576   2.217   5.711  0.6445 -0.8324  1.1951
10427SOL     OW33287   5.366   9.421   6.650  0.0742 -0.2840  0.1186
10427SOL    HW133288   5.380   9.401   6.557  1.5627 -0.3392  0.3407
10427SOL    HW233289   5.365   9.517   6.653 -0.7354 -0.2799 -0.0488
10428SOL     OW33290   0.221  10.449   6.357  0.3643  0.0983 -0.0032
10428SOL    HW133291   0.315  10.435   6.358  0.2851 -0.9493 -2.1169
10428SOL    HW233292   0.183  10.363   6.377 -0.2024  0.7281  1.9073
10429SOL     OW33293   7.751  10.997   5.521 -0.1330  0.0129  0.2764
10429SOL    HW133294   7.817  10.972   5.586 -0.8758 -0.9772  0.6705
10429SOL    HW233295   7.672  10.952   5.549 -0.8542  0.7731 -0.4903
10430SOL     OW33296   7.819   6.114   2.662 -0.2707 -0.1206 -0.1831
10430SOL    HW133297   7.799   6.108   2.756 -0.4406 -0.2829 -0.2281
10430SOL    HW233298   7.846   6.025   2.638 -1.2939 -0.3473 -0.5242
10431SOL     OW33299   4.219   4.476   7.243  0.3958 -0.0034 -0.2202
10431SOL    HW133300   4.310   4.449   7.251  0.7497  0.8169 -1.3013
10431SOL    HW233301   4.188   4.432   7.164 -0.5886 -1.3940  0.8756
10432SOL     OW33302   6.847   6.907   4.752  0.1241  0.1316 -0.1018
10432SOL    HW133303   6.916   6.893   4.686  1.1552  2.4739  0.3919
10432SOL    HW233304   6.772   6.857   4.718  1.2618 -0.4346 -1.9691
10433SOL     OW33305   2.182   5.809   3.218  0.1156  0.6249  0.0809
10433SOL    HW133306   2.113   5.856   3.264  1.4373  1.0784  1.7062
10433SOL    HW233307   2.223   5.755   3.285  0.6624 -0.4620 -1.0873
10434SOL     OW33308   1.451   2.859   4.986 -0.1889  0.4070  0.4159
10434SOL    HW133309   1.402   2.866   5.069 -1.2003 -0.2596 -0.1019
10434SOL    HW233310   1.509   2.784   4.999  0.9771  1.4010  1.1542
10435SOL     OW33311   1.940   7.549   6.083  0.9131 -0.4167  0.4566
10435SOL    HW133312   1.929   7.533   5.989  1.8064 -0.7683  0.3998
10435SOL    HW233313   2.013   7.491   6.108  2.7306  1.8539  0.7469
10436SOL     OW33314   1.679   5.641   4.350 -0.1356  0.2728 -0.0078
10436SOL    HW133315   1.740   5.675   4.416  0.6939 -0.2069 -0.5162
10436SOL    HW233316   1.633   5.570   4.394 -1.7800  1.8855  1.0218
10437SOL     OW33317   0.625   7.093   1.023  0.2963 -0.0540 -0.1695
10437SOL    HW133318   0.541   7.053   1.045 -0.4135  1.2776 -0.3334
10437SOL    HW233319   0.688   7.048   1.079 -0.7547 -0.0343  1.0864
10438SOL     OW33320   3.053   4.510   6.077  0.5876 -0.0775  0.1046
10438SOL    HW133321   2.968   4.538   6.044  0.5280  0.2963  0.5713
10438SOL    HW233322   3.033   4.460   6.156  0.7756 -0.3821 -0.0373
10439SOL     OW33323   0.556   6.382   1.712 -0.0489  0.4727  0.1620
10439SOL    HW133324   0.466   6.380   1.744  0.1188 -1.4509  0.6520
10439SOL    HW233325   0.609   6.398   1.790  0.0815  0.6802  0.0305
10440SOL     OW33326   1.075   7.053   4.142  0.0465 -0.0269 -0.1288
10440SOL    HW133327   0.995   7.105   4.145  1.5256  2.4195 -0.9871
10440SOL    HW233328   1.107   7.061   4.052  1.6858 -0.2648  0.3930
10441SOL     OW33329   6.289   6.147   3.305  0.0760 -0.2711 -0.6218
10441SOL    HW133330   6.312   6.238   3.282 -1.5116  0.3541  0.1447
10441SOL    HW233331   6.240   6.155   3.386  0.3791 -1.8955 -0.2548
10442SOL     OW33332   2.862   0.637   8.233 -0.4250 -0.4094  0.3649
10442SOL    HW133333   2.807   0.670   8.303 -1.0095  0.9045 -0.6760
10442SOL    HW233334   2.930   0.703   8.222 -1.6069  0.5496 -1.7430
10443SOL     OW33335   7.563   3.701   4.302  0.1339 -0.2003  0.0358
10443SOL    HW133336   7.513   3.781   4.288 -0.3701 -0.7259 -1.4402
10443SOL    HW233337   7.651   3.731   4.326  0.7396  0.9270 -3.1185
10444SOL     OW33338   4.250   2.904   4.812  0.4672 -0.0409  0.5773
10444SOL    HW133339   4.198   2.976   4.847  3.2099  1.9001  1.0011
10444SOL    HW233340   4.188   2.852   4.761 -1.6013  2.8163 -0.0683
10445SOL     OW33341   3.615   4.707   9.601 -0.2214  0.5191 -0.0584
10445SOL    HW133342   3.534   4.723   9.553  0.2329  0.9406 -0.7050
10445SOL    HW233343   3.606   4.759   9.681 -0.9126 -0.0540  0.2491
10446SOL     OW33344   6.867   3.964   1.412 -0.0037  0.1484  0.6404
10446SOL    HW133345   6.850   3.927   1.499  1.9357 -3.1817 -0.2150
10446SOL    HW233346   6.946   4.016   1.424  0.4397 -0.5543  0.8486
10447SOL     OW33347   3.518   4.111   3.501  0.0986 -0.0026  0.0314
10447SOL    HW133348   3.486   4.056   3.573  2.1544 -1.4898 -0.1124
10447SOL    HW233349   3.516   4.053   3.424  1.8970  0.2246 -0.2210
10448SOL     OW33350   2.658   2.334   2.169 -0.2308 -0.1624  0.1181
10448SOL    HW133351   2.688   2.320   2.259 -0.2525  3.1928  0.7678
10448SOL    HW233352   2.641   2.246   2.136  1.0627 -1.6043  2.9238
10449SOL     OW33353   2.021  10.511   5.642 -0.4841  0.1171 -0.0687
10449SOL    HW133354   2.117  10.507   5.646 -0.5359  0.1210  2.1322
10449SOL    HW233355   2.001  10.603   5.659 -0.9187 -0.2191  1.3264
10450SOL     OW33356   3.302   5.062   3.916 -0.4377  0.2715 -0.8206
10450SOL    HW133357   3.295   4.974   3.952 -0.5519  0.8238  0.5893
10450SOL    HW233358   3.395   5.082   3.918 -0.4908  0.4899 -0.3257
10451SOL     OW33359   3.033   6.737   2.866  0.0537 -0.1925 -0.2515
10451SOL    HW133360   3.022   6.831   2.852 -0.5140 -0.2199  0.0019
10451SOL    HW233361   2.954   6.697   2.828  0.3794 -0.5867 -0.5320
10452SOL     OW33362   0.748  10.097   5.039 -0.1740  0.5805 -0.0170
10452SOL    HW133363   0.775  10.157   5.108 -0.3684  0.7197 -0.0610
10452SOL    HW233364   0.696  10.151   4.979  0.0248  0.4714 -0.2920
10453SOL     OW33365   1.693   3.750   5.371 -0.0668  0.0744 -0.0878
10453SOL    HW133366   1.676   3.828   5.318 -1.0520  0.0042  0.0990
10453SOL    HW233367   1.653   3.678   5.321  1.0460 -0.3617 -0.3792
10454SOL     OW33368   3.936   6.713   0.999 -0.1370 -0.4714  0.0539
10454SOL    HW133369   3.979   6.631   0.972  0.8162  0.3161 -0.9369
10454SOL    HW233370   3.964   6.725   1.090 -1.3301 -1.8733  0.6522
10455SOL     OW33371   9.698   8.934   7.653  0.1692  0.2794  0.0196
10455SOL    HW133372   9.725   8.991   7.581  0.7844  0.2329  0.2065
10455SOL    HW233373   9.779   8.891   7.681  0.4724  2.1282  2.3881
10456SOL     OW33374   7.340   9.419   4.684  0.0933 -0.2398  0.0889
10456SOL    HW133375   7.406   9.362   4.644  0.3558  0.3633 -0.3483
10456SOL    HW233376   7.256   9.379   4.659  0.2703 -1.5631  1.4523
10457SOL     OW33377   5.986   5.717   9.820 -0.1233 -0.3487 -0.2091
10457SOL    HW133378   6.078   5.709   9.846 -0.6614  1.1507  2.5448
10457SOL    HW233379   5.981   5.801   9.776 -0.3940  0.3058  1.0220
10458SOL     OW33380   2.940   4.602   2.772  0.2941 -0.2753  0.5587
10458SOL    HW133381   2.949   4.518   2.727  1.8131 -0.3627  0.9763
10458SOL    HW233382   2.897   4.659   2.708 -0.6640 -1.3208  0.2374
10459SOL     OW33383   8.622   4.836   4.047  0.5504 -0.1161  0.5669
10459SOL    HW133384   8.700   4.815   4.098  1.7290  1.9948 -0.2556
10459SOL    HW233385   8.587   4.915   4.089 -1.4368 -1.2451  1.1661
10460SOL     OW33386   5.867   8.907   2.533  0.4415 -0.5542  0.2161
10460SOL    HW133387   5.843   8.994   2.500  2.7021 -0.1053 -0.4345
10460SOL    HW233388   5.788   8.854   2.521 -0.3085  0.8399 -1.4482
10461SOL     OW33389   4.318   3.599   8.050  0.6345 -0.1765  0.2766
10461SOL    HW133390   4.346   3.618   8.140 -0.0277 -1.1279  0.6906
10461SOL    HW233391   4.367   3.662   7.997 -1.1875  2.4983  1.5448
10462SOL     OW33392   6.067   0.106   6.705  0.1327 -0.1959  0.5212
10462SOL    HW133393   6.116   0.031   6.737  3.0252  1.0372 -0.6146
10462SOL    HW233394   6.092   0.178   6.763  0.6785  0.7385 -0.8229
10463SOL     OW33395   5.475   4.039   0.283  0.6208  0.0357  0.5040
10463SOL    HW133396   5.503   4.075   0.367  2.8454  1.5698 -0.7938
10463SOL    HW233397   5.413   3.970   0.306 -0.9535  2.1533  3.3114
10464SOL     OW33398   7.055   7.574   7.107  0.6130  0.1121  0.3676
10464SOL    HW133399   7.065   7.481   7.127 -1.6216 -0.1664  0.4847
10464SOL    HW233400   7.105   7.619   7.174  0.7776 -0.9894  1.0067
10465SOL     OW33401   0.788   4.428   7.295  0.4488  0.1506 -0.2201
10465SOL    HW133402   0.802   4.346   7.342 -0.4302  1.2206  2.0159
10465SOL    HW233403   0.876   4.453   7.265  0.6643 -1.8094 -1.4440
10466SOL     OW33404   8.586   9.900   3.602  0.1812 -0.1945 -0.1439
10466SOL    HW133405   8.574   9.808   3.626 -1.0748  0.1012  0.4631
10466SOL    HW233406   8.551   9.906   3.513 -0.0215 -0.2375 -0.0665
10467SOL     OW33407   4.591   5.893   1.505  0.1375 -0.0944 -0.4649
10467SOL    HW133408   4.516   5.888   1.445 -0.7653 -0.4439  0.6612
10467SOL    HW233409   4.666   5.872   1.450 -0.7962 -1.5454 -1.2652
10468SOL     OW33410   9.041   5.912  10.752 -0.1418 -0.1885  0.0087
10468SOL    HW133411   9.036   6.004  10.776  0.8786 -0.1708  0.2047
10468SOL    HW233412   9.044   5.865  10.835 -1.1293 -0.4433 -0.0857
10469SOL     OW33413   4.068   9.169  10.062  0.5145  0.0807 -0.6104
10469SOL    HW133414   4.095   9.228  10.133 -1.3381 -0.1226  0.3483
10469SOL    HW233415   4.014   9.224  10.006 -0.2854 -0.4074 -0.3327
10470SOL     OW33416  10.803   3.967   9.066 -0.5551  0.2127 -0.2916
10470SOL    HW133417  10.745   4.017   9.009  0.2810  0.2689 -1.1268
10470SOL    HW233418  10.884   4.018   9.068 -0.3762 -0.0839  0.4992
10471SOL     OW33419   0.532   4.029   2.517 -0.0017  0.5490 -0.1593
10471SOL    HW133420   0.443   4.039   2.485  0.1968  0.0220 -0.9106
10471SOL    HW233421   0.528   4.054   2.610 -1.0242  0.0489 -0.0573
10472SOL     OW33422   2.487   8.550   5.325  0.3385 -0.7353 -0.2279
10472SOL    HW133423   2.541   8.541   5.403 -0.7565  0.4512  0.6985
10472SOL    HW233424   2.530   8.619   5.274  2.2172 -2.8723 -1.7507
10473SOL     OW33425   5.548   0.880   7.340 -0.3945 -0.5167 -0.5503
10473SOL    HW133426   5.503   0.807   7.383 -1.9755  1.8803  2.2662
10473SOL    HW233427   5.481   0.948   7.334  0.6887  0.4562 -4.0996
10474SOL     OW33428  10.434   3.159   2.802 -0.3561 -0.6551 -0.3874
10474SOL    HW133429  10.434   3.250   2.771  0.1323 -0.1984  0.8691
10474SOL    HW233430  10.353   3.122   2.768  0.9162 -0.7836 -3.6933
10475SOL     OW33431  10.507  10.103   5.494  0.2190  0.1699 -0.0059
10475SOL    HW133432  10.523  10.196   5.476  0.0767  0.0653 -0.7194
10475SOL    HW233433  10.497  10.098   5.589  0.9529  0.7717  0.1149
10476SOL     OW33434   2.768   4.055   1.717  0.1257 -0.2180 -0.2505
10476SOL    HW133435   2.721   4.119   1.662 -1.0571 -0.8706 -0.0378
10476SOL    HW233436   2.860   4.078   1.707 -0.1068  0.0980 -1.9788
10477SOL     OW33437   2.359   1.353   6.680  0.5474 -0.1929 -0.3282
10477SOL    HW133438   2.431   1.291   6.669  1.1615  0.4111  0.2072
10477SOL    HW233439   2.284   1.298   6.704  0.0631 -1.1766 -3.5875
10478SOL     OW33440   6.018   6.411   4.454 -0.3753 -0.1035 -0.1452
10478SOL    HW133441   6.093   6.470   4.442  0.3732 -0.8715  0.5444
10478SOL    HW233442   6.022   6.386   4.546 -2.0500  0.5532  0.1310
10479SOL     OW33443   0.256   0.402   2.745 -0.1911  0.3271  0.0139
10479SOL    HW133444   0.321   0.431   2.681 -1.5214  0.7544 -1.1965
10479SOL    HW233445   0.305   0.393   2.827  1.8142 -1.3903 -1.2806
10480SOL     OW33446   8.379   3.668   8.092 -0.5070  0.0017  0.2806
10480SOL    HW133447   8.363   3.624   8.009  0.5074  0.3955 -0.1363
10480SOL    HW233448   8.292   3.677   8.131 -0.9303 -0.7052 -0.4632
10481SOL     OW33449   2.857   0.200   3.188 -0.4916 -0.2264  0.6391
10481SOL    HW133450   2.772   0.164   3.165 -0.9102 -1.1186  3.2385
10481SOL    HW233451   2.839   0.291   3.212 -0.8458 -0.5796  1.7578
10482SOL     OW33452   9.087   3.846   3.119  0.0799 -0.1342 -0.1844
10482SOL    HW133453   9.076   3.935   3.152  0.0703 -0.5905  1.1182
10482SOL    HW233454   9.170   3.849   3.071 -1.4046  1.3003 -2.8853
10483SOL     OW33455  10.563   5.136   4.227  0.2154  0.1922  0.4883
10483SOL    HW133456  10.515   5.129   4.145 -0.9319  2.1338  0.9111
10483SOL    HW233457  10.537   5.059   4.277  0.6794 -0.8429 -0.8149
10484SOL     OW33458   5.679  10.293  10.921  0.1076 -0.5995  0.0936
10484SOL    HW133459   5.684  10.268  11.013 -2.0483  0.7110  0.6292
10484SOL    HW233460   5.643  10.216  10.876  0.4573 -0.9768  0.4533
10485SOL     OW33461   5.394   6.410   9.443 -0.6597 -0.3127  0.0424
10485SOL    HW133462   5.372   6.465   9.518 -1.4708 -2.0106  1.1170
10485SOL    HW233463   5.325   6.426   9.380 -1.4164 -0.7582  0.7339
10486SOL     OW33464   2.467   5.426   6.853 -0.4548  0.1027 -0.0051
10486SOL    HW133465   2.548   5.473   6.873  0.8031 -1.5471 -0.9433
10486SOL    HW233466   2.436   5.465   6.771  1.0501 -1.1732 -1.2497
10487SOL     OW33467   6.422   6.764   2.485 -0.7454  0.3771 -0.1985
10487SOL    HW133468   6.338   6.792   2.448  0.2588  2.3066 -1.1848
10487SOL    HW233469   6.425   6.806   2.571 -0.5112  0.9435 -0.4706
10488SOL     OW33470   5.709   0.018   5.159  0.0723 -0.4473 -1.0450
10488SOL    HW133471   5.711   0.003   5.064 -1.6044 -0.3101 -1.1313
10488SOL    HW233472   5.642   0.085   5.171  0.7935  0.0837  0.1861
10489SOL     OW33473   3.038   2.058   3.522 -0.2817 -0.2400 -0.1021
10489SOL    HW133474   3.061   1.986   3.581 -1.7471  0.3141  1.2378
10489SOL    HW233475   3.107   2.059   3.456  0.7726 -1.6696  0.9246
10490SOL     OW33476   0.024   1.940   1.521 -0.4452  0.6799 -0.1821
10490SOL    HW133477   0.046   1.900   1.437 -0.8284 -2.0053  0.9074
10490SOL    HW233478  -0.071   1.954   1.517 -0.5272  0.1670 -0.0436
10491SOL     OW33479   2.556   7.354   4.445 -0.2424  0.1001 -0.5267
10491SOL    HW133480   2.598   7.302   4.513 -2.3409 -0.3686  0.5122
10491SOL    HW233481   2.582   7.312   4.363  0.5117 -0.7350  0.1207
10492SOL     OW33482   5.270   3.911   2.474 -0.0743  0.0892 -0.5086
10492SOL    HW133483   5.212   3.841   2.503 -1.2224  0.7973 -1.0355
10492SOL    HW233484   5.267   3.975   2.545  0.9633 -0.3626 -0.0328
10493SOL     OW33485   4.390   4.539   3.826 -0.5165 -0.6180 -0.0716
10493SOL    HW133486   4.473   4.565   3.786 -0.1473 -1.5639  0.0561
10493SOL    HW233487   4.367   4.613   3.882  0.3505 -0.4191  0.0479
10494SOL     OW33488   1.968   2.342   9.693 -0.3499 -0.1401 -0.2547
10494SOL    HW133489   1.892   2.310   9.645 -0.6955 -0.3133  0.4028
10494SOL    HW233490   1.932   2.381   9.772  0.1639  0.7447 -0.4459
10495SOL     OW33491  10.509   3.135   0.115 -0.0108  0.1397 -0.0912
10495SOL    HW133492  10.486   3.044   0.137 -1.2286  0.1540 -1.2223
10495SOL    HW233493  10.436   3.187   0.150  0.9807  0.7837  1.1079
10496SOL     OW33494   9.824   2.382   4.382  0.3551 -0.4169 -0.3149
10496SOL    HW133495   9.774   2.300   4.381  1.4558 -1.1052 -1.2728
10496SOL    HW233496   9.856   2.389   4.472 -1.7367  0.2369  0.4188
10497SOL     OW33497   0.450   0.757   9.676  0.2074 -0.3571 -0.0355
10497SOL    HW133498   0.529   0.770   9.728  1.3386 -0.0918 -1.7274
10497SOL    HW233499   0.481   0.720   9.593 -1.1725  1.5964 -1.5417
10498SOL     OW33500   2.229   5.611   8.724  0.0900  0.5625 -0.1705
10498SOL    HW133501   2.323   5.613   8.743  0.0461 -0.2480  0.1597
10498SOL    HW233502   2.223   5.580   8.634  0.1382  0.7441 -0.2374
10499SOL     OW33503   1.613   2.285   6.215  0.1108 -0.2721  0.0614
10499SOL    HW133504   1.640   2.273   6.124  3.1141  2.4399  0.4163
10499SOL    HW233505   1.673   2.231   6.266  1.8776  2.0429  0.6016
10500SOL     OW33506  10.971   3.512   8.560 -0.0175 -0.2445  0.2362
10500SOL    HW133507  11.030   3.521   8.635 -0.9142  0.0303  0.9301
10500SOL    HW233508  10.950   3.602   8.535 -1.4911 -0.3212  1.1051
10501SOL     OW33509   0.224   5.141   8.978  0.3977 -0.0769 -0.0441
10501SOL    HW133510   0.245   5.105   8.892  1.2161  2.1579 -0.8768
10501SOL    HW233511   0.269   5.226   8.980 -0.0468  0.1841  2.3869
10502SOL     OW33512   2.681  10.170   1.921 -0.1378 -0.6853  0.6384
10502SOL    HW133513   2.768  10.131   1.921  0.1847  0.0361  0.8054
10502SOL    HW233514   2.623  10.097   1.899  0.7153 -0.7117 -1.8178
10503SOL     OW33515   6.854   4.191   9.048 -0.4072 -0.4994  0.3661
10503SOL    HW133516   6.900   4.150   9.122 -0.3716 -0.5240  0.3298
10503SOL    HW233517   6.878   4.137   8.973  0.4254  0.1629  0.1418
10504SOL     OW33518   9.285   3.067   8.587 -0.1592  0.5468 -0.8731
10504SOL    HW133519   9.291   3.056   8.682 -1.9034 -1.4186 -0.9178
10504SOL    HW233520   9.223   3.138   8.575 -0.1988  0.5713 -0.5380
10505SOL     OW33521   8.588   3.731   0.978  0.0143 -0.1090  0.0835
10505SOL    HW133522   8.566   3.769   1.063 -0.3272 -2.8054  1.2984
10505SOL    HW233523   8.503   3.707   0.940  0.2741 -0.7952 -0.0702
10506SOL     OW33524   0.097   3.840   0.297 -0.0038 -0.0715 -0.3378
10506SOL    HW133525   0.052   3.814   0.217  0.4108 -1.9488 -0.0024
10506SOL    HW233526   0.130   3.928   0.278 -2.0576  0.5684 -1.2921
10507SOL     OW33527   1.047   2.738   8.722 -0.3118  0.5942  0.1524
10507SOL    HW133528   1.057   2.682   8.799 -1.3152 -1.0120 -0.8358
10507SOL    HW233529   1.022   2.823   8.757  2.7342  0.9720  1.8183
10508SOL     OW33530   5.307   4.524   4.841 -0.0794 -0.5986  0.2948
10508SOL    HW133531   5.302   4.598   4.902 -1.1158 -0.3657 -0.0466
10508SOL    HW233532   5.384   4.542   4.788 -0.0293 -0.0196  0.5533
10509SOL     OW33533   4.571   1.669   3.810 -0.4259 -0.3947 -0.0767
10509SOL    HW133534   4.494   1.641   3.859  0.5649 -3.4706 -0.0338
10509SOL    HW233535   4.627   1.711   3.875 -0.9950 -0.4363  0.4549
10510SOL     OW33536  10.945   1.318   6.652  0.4491 -0.4079 -0.0660
10510SOL    HW133537  10.968   1.382   6.585 -1.5385 -0.1853 -0.6160
10510SOL    HW233538  10.890   1.367   6.713 -2.5919 -1.8651 -1.4182
10511SOL     OW33539   4.733   5.156   5.300  0.3088  0.7089 -0.1102
10511SOL    HW133540   4.790   5.110   5.238 -0.5048 -0.6650  0.1016
10511SOL    HW233541   4.793   5.201   5.359  1.5872 -3.8476  2.6162
10512SOL     OW33542   7.702   6.107   8.290 -0.1141  0.1988 -0.0802
10512SOL    HW133543   7.797   6.112   8.304  0.0416 -1.9994  0.0677
10512SOL    HW233544   7.691   6.124   8.197  0.5707 -0.6268 -0.3293
10513SOL     OW33545   8.242   4.179   1.079  0.1320 -0.4426  0.1274
10513SOL    HW133546   8.290   4.171   1.162  1.0780 -2.2092 -0.5308
10513SOL    HW233547   8.266   4.266   1.047  1.0209 -0.3518  0.9616
10514SOL     OW33548   7.935   0.643   0.957  0.1458  0.2488 -0.4220
10514SOL    HW133549   7.848   0.663   0.992  0.8907  1.9460  0.6156
10514SOL    HW233550   7.991   0.712   0.992  1.8508 -0.5793 -1.3815
10515SOL     OW33551   0.765   5.890   9.318 -0.0477  0.3434 -0.1073
10515SOL    HW133552   0.812   5.890   9.401  0.5959  0.5494 -0.4705
10515SOL    HW233553   0.726   5.977   9.311 -0.5234  0.1592  0.2120
10516SOL     OW33554   4.863   1.985   0.042  0.5779  0.2679  0.0868
10516SOL    HW133555   4.880   1.970  -0.050 -0.1350  1.2897 -0.2321
10516SOL    HW233556   4.872   2.080   0.053 -3.1410  0.7611  0.2166
10517SOL     OW33557   6.978   7.835   0.589  0.6041  0.9850 -0.1934
10517SOL    HW133558   6.951   7.882   0.668 -1.5799  0.8538 -0.8183
10517SOL    HW233559   6.929   7.875   0.518 -1.1741 -1.9272 -0.7970
10518SOL     OW33560   4.177   8.620   0.463 -0.2267 -0.3749 -0.0343
10518SOL    HW133561   4.254   8.628   0.407 -1.4832  0.7110 -1.7285
10518SOL    HW233562   4.184   8.694   0.524 -1.0324  1.2030 -1.7272
10519SOL     OW33563  10.776   8.034   7.418 -0.1819 -0.5886 -0.3359
10519SOL    HW133564  10.796   8.099   7.350 -2.0897  0.3074 -0.0835
10519SOL    HW233565  10.857   8.027   7.468 -0.1594  2.3251  0.2073
10520SOL     OW33566   0.430   2.639   3.767  0.0031  0.3992 -0.4720
10520SOL    HW133567   0.484   2.713   3.739 -0.1525  1.1659  1.0923
10520SOL    HW233568   0.340   2.672   3.764  0.0454  0.8816  1.7605
10521SOL     OW33569   1.359  10.456   3.459  0.1271 -0.4854  0.1714
10521SOL    HW133570   1.344  10.363   3.475  1.4913 -0.9240 -0.9671
10521SOL    HW233571   1.272  10.495   3.464 -0.8079 -2.1839 -1.6099
10522SOL     OW33572  10.416   8.580   0.143 -0.1003  0.4304  0.1347
10522SOL    HW133573  10.344   8.599   0.203  0.3081  0.2073  0.7133
10522SOL    HW233574  10.386   8.504   0.093  0.1088 -0.2854  1.0577
10523SOL     OW33575   1.527   6.403   4.327  0.8088 -0.0947 -0.2155
10523SOL    HW133576   1.553   6.357   4.406 -2.3979 -0.8962  0.5345
10523SOL    HW233577   1.529   6.337   4.258 -0.0282 -0.3958  0.0360
10524SOL     OW33578   5.975   8.314   1.244  0.1925  0.3434 -0.0758
10524SOL    HW133579   5.954   8.223   1.264 -0.6923  0.4179 -0.6031
10524SOL    HW233580   6.032   8.309   1.167  0.2358  0.2271 -0.0361
10525SOL     OW33581   9.763   4.597   3.291  0.0322  0.2714 -0.0990
10525SOL    HW133582   9.719   4.535   3.350 -1.6549  1.5477  0.0362
10525SOL    HW233583   9.780   4.674   3.346  0.1951  0.7451 -0.8051
10526SOL     OW33584   4.186   2.122   5.307 -0.2537  0.6837  0.8381
10526SOL    HW133585   4.093   2.101   5.301  0.3664 -2.0281 -1.6167
10526SOL    HW233586   4.220   2.058   5.371  0.6810 -2.3534 -2.3798
10527SOL     OW33587   0.817   5.553   9.945  0.1587 -0.3460  0.5125
10527SOL    HW133588   0.846   5.642   9.964  0.2742 -0.0590 -0.8966
10527SOL    HW233589   0.879   5.520   9.880  0.2790 -1.5667  1.2152
10528SOL     OW33590   2.025   6.392   6.598  0.4758 -0.2305 -0.2208
10528SOL    HW133591   1.951   6.332   6.591  0.8471 -0.8138  0.6873
10528SOL    HW233592   2.090   6.344   6.649  0.7058  1.0215  0.7093
10529SOL     OW33593   2.301   2.776   3.391  0.3537 -0.0351 -0.3897
10529SOL    HW133594   2.251   2.764   3.310 -0.3583 -2.5285  0.3146
10529SOL    HW233595   2.392   2.756   3.366  0.9251  3.1791 -1.3683
10530SOL     OW33596   8.609   4.297   4.704 -0.0681  0.8022  0.1283
10530SOL    HW133597   8.699   4.269   4.715 -0.7207 -2.2381 -1.3313
10530SOL    HW233598   8.561   4.251   4.773 -0.7532  0.9905 -0.2149
10531SOL     OW33599   0.132   3.387   1.887 -0.5275  0.1733 -0.0724
10531SOL    HW133600   0.112   3.343   1.804  0.5509  0.9976 -0.8020
10531SOL    HW233601   0.062   3.451   1.898 -1.3584 -0.7783  0.3090
10532SOL     OW33602   7.452   4.866   3.424  0.1468 -0.2285  0.5612
10532SOL    HW133603   7.527   4.917   3.394 -0.7637  0.0058 -1.4620
10532SOL    HW233604   7.436   4.802   3.355 -1.8750  0.1311  0.6094
10533SOL     OW33605   5.867   6.982   9.649 -0.2891 -0.0142 -0.4349
10533SOL    HW133606   5.800   6.948   9.709 -0.0302 -0.1242 -0.2040
10533SOL    HW233607   5.850   7.076   9.645 -0.4281 -0.0351 -0.3404
10534SOL     OW33608   1.595  10.861   3.962  0.1465 -0.1160  0.3862
10534SOL    HW133609   1.691  10.860   3.961  0.1682  1.0895 -0.3493
10534SOL    HW233610   1.570  10.832   3.874 -0.1252  0.9900  0.0883
10535SOL     OW33611   1.691   1.086   5.881 -0.3718  0.1318  0.5458
10535SOL    HW133612   1.676   1.152   5.948 -0.3351 -0.8283  1.5361
10535SOL    HW233613   1.700   1.135   5.800 -2.1506  1.2290  0.9550
10536SOL     OW33614   0.976   2.505   8.598  0.1617  0.9155  0.3979
10536SOL    HW133615   0.992   2.583   8.652  0.3838 -0.2974  2.1754
10536SOL    HW233616   0.947   2.439   8.660  1.2111 -0.8019 -0.8611
10537SOL     OW33617   2.526   9.636  10.759  0.0459  0.1438 -0.6348
10537SOL    HW133618   2.485   9.660  10.676  1.2070  1.4921 -0.8563
10537SOL    HW233619   2.620   9.645  10.743  0.3351 -0.4983  0.5656
10538SOL     OW33620   1.368   4.854   8.503 -0.1431  0.0441  0.1933
10538SOL    HW133621   1.397   4.763   8.509  0.3181  0.1841  0.1716
10538SOL    HW233622   1.436   4.897   8.451  0.0443  0.5562  0.8396
10539SOL     OW33623   6.941   3.317   1.645  0.0660 -0.6259 -0.4463
10539SOL    HW133624   6.852   3.335   1.677  0.4186  1.3506 -0.4690
10539SOL    HW233625   6.988   3.287   1.723 -0.3314 -0.5866 -0.1850
10540SOL     OW33626   9.955   6.007   3.763  0.0124  0.0072 -0.0984
10540SOL    HW133627   9.970   6.008   3.668  0.7582 -1.5898 -0.0234
10540SOL    HW233628  10.034   6.044   3.800 -0.8033  1.8605 -0.1167
10541SOL     OW33629   4.163   2.636   6.958 -0.0061  0.7613 -0.9078
10541SOL    HW133630   4.249   2.599   6.937 -0.5886 -0.5055 -1.1730
10541SOL    HW233631   4.174   2.731   6.948  1.8352  0.7943  0.8365
10542SOL     OW33632   0.757   3.216   8.129  0.5782 -0.7713  0.0868
10542SOL    HW133633   0.852   3.226   8.135  0.4116  2.4424 -0.8340
10542SOL    HW233634   0.729   3.209   8.220  1.5711  0.3902  0.5181
10543SOL     OW33635   0.010   2.967  10.699  0.5641  0.3285 -0.4701
10543SOL    HW133636   0.005   3.054  10.659 -0.4263  0.8565  0.7407
10543SOL    HW233637   0.048   2.982  10.786 -0.2399 -0.3425  0.0149
10544SOL     OW33638   8.707   5.289   5.735 -0.1817 -0.2304 -0.3137
10544SOL    HW133639   8.742   5.377   5.750 -1.2822  0.3802 -1.1199
10544SOL    HW233640   8.622   5.289   5.780 -0.8075 -0.3913 -1.4409
10545SOL     OW33641   3.382   8.061   9.260 -0.2971  0.3056 -0.4869
10545SOL    HW133642   3.386   8.153   9.287 -0.3143 -0.0689  0.8830
10545SOL    HW233643   3.440   8.015   9.322 -1.4000 -0.7892 -0.2206
10546SOL     OW33644   6.716   5.337   5.577 -0.0949 -0.3112  0.3286
10546SOL    HW133645   6.665   5.416   5.592 -0.7125 -0.4465 -0.8719
10546SOL    HW233646   6.796   5.349   5.628 -0.7875  0.4524  1.2667
10547SOL     OW33647  10.724   8.963   7.020 -0.0768 -0.6058 -0.8323
10547SOL    HW133648  10.776   9.030   6.975 -1.8395  0.5413 -1.2854
10547SOL    HW233649  10.683   9.010   7.093 -0.5267 -1.4418 -0.5295
10548SOL     OW33650   3.431   5.195   6.106  0.6994  0.0244  0.5381
10548SOL    HW133651   3.456   5.104   6.119 -0.1058 -0.5694 -1.6888
10548SOL    HW233652   3.502   5.233   6.055 -0.6306 -0.4321 -1.7976
10549SOL     OW33653   0.008   3.052   7.167  0.3157 -0.6300 -0.1195
10549SOL    HW133654   0.098   3.026   7.183  0.2344 -0.4733  0.6364
10549SOL    HW233655  -0.033   2.974   7.128  0.4600 -1.1254  0.7077
10550SOL     OW33656   6.059   6.736   7.118  0.1968 -0.2366 -0.0265
10550SOL    HW133657   6.138   6.790   7.112  0.6667 -1.0949 -2.9421
10550SOL    HW233658   6.002   6.769   7.049 -2.0726  0.2983  1.9434
10551SOL     OW33659   4.729   5.234   7.138  0.0710 -0.7037 -0.9100
10551SOL    HW133660   4.708   5.281   7.219  3.5378 -0.2857 -0.0708
10551SOL    HW233661   4.730   5.142   7.164  3.5117 -0.4550  0.3397
10552SOL     OW33662   7.333   9.141   2.475 -0.1860  0.6149  0.0033
10552SOL    HW133663   7.252   9.100   2.445 -1.6673  3.5451 -0.4065
10552SOL    HW233664   7.317   9.161   2.568  0.6117  0.0770  0.2698
10553SOL     OW33665   0.625   9.540  10.532 -0.0841 -0.1855  0.4310
10553SOL    HW133666   0.576   9.611  10.489  0.8019  1.2575  1.6999
10553SOL    HW233667   0.643   9.478  10.461  1.1994  2.0077 -1.3085
10554SOL     OW33668   1.000  11.080   4.467  0.5106 -0.1096 -0.3537
10554SOL    HW133669   1.027  11.018   4.399 -1.1354 -0.1084 -1.0537
10554SOL    HW233670   0.973  11.158   4.419 -0.9547 -0.2106  0.2572
10555SOL     OW33671   2.476   0.684   6.930 -0.2099 -0.3386  0.2464
10555SOL    HW133672   2.421   0.762   6.928 -1.2922 -1.0731  0.9358
10555SOL    HW233673   2.454   0.640   7.012 -1.7175 -2.8349 -1.3558
10556SOL     OW33674   8.596   8.395   4.539  0.3000 -0.5213 -1.2572
10556SOL    HW133675   8.503   8.401   4.517  0.2974  0.1314 -1.0986
10556SOL    HW233676   8.635   8.472   4.498 -0.0186  1.9084  2.4687
10557SOL     OW33677   4.349   0.633   8.012 -0.1201 -0.2683  0.1630
10557SOL    HW133678   4.340   0.539   8.025 -2.2400 -0.0416  0.7326
10557SOL    HW233679   4.443   0.650   8.019  0.1374 -2.0881  1.7990
10558SOL     OW33680   7.669   8.695  10.732  0.2011  0.8460  0.1758
10558SOL    HW133681   7.663   8.611  10.687 -0.8963 -1.8394  4.7319
10558SOL    HW233682   7.585   8.737  10.714 -0.3663 -0.2975  0.0366
10559SOL     OW33683   6.368   1.601   1.336  0.2084 -0.3901  0.4913
10559SOL    HW133684   6.352   1.695   1.338 -2.0525 -0.7309  0.8605
10559SOL    HW233685   6.310   1.568   1.268  0.2704 -1.6300  1.0151
10560SOL     OW33686   8.987   7.091   1.196 -0.4545  0.1046 -0.0126
10560SOL    HW133687   9.075   7.077   1.229 -0.6453 -1.6595 -0.1774
10560SOL    HW233688   8.933   7.104   1.274  0.0134  1.8112  0.0659
10561SOL     OW33689   7.371   1.941   4.646  0.5503 -0.1216  0.2855
10561SOL    HW133690   7.340   2.026   4.616 -0.1664 -1.0426 -1.7209
10561SOL    HW233691   7.340   1.878   4.581  2.1827 -1.7786  0.9803
10562SOL     OW33692   0.743   1.676   5.332 -0.3274  0.3285  0.2009
10562SOL    HW133693   0.754   1.768   5.356  0.7955  0.8405 -1.9783
10562SOL    HW233694   0.802   1.629   5.391  0.3019  1.1915  0.2842
10563SOL     OW33695   3.117   5.608   3.148  0.6771 -0.5488  0.0258
10563SOL    HW133696   3.155   5.521   3.135 -1.4518 -1.4472 -0.6346
10563SOL    HW233697   3.077   5.604   3.235  0.9226 -0.0848  0.1615
10564SOL     OW33698   1.957   5.432   2.766 -0.7500  0.3190 -0.0102
10564SOL    HW133699   1.940   5.484   2.688 -0.5193  0.1230 -0.1914
10564SOL    HW233700   1.952   5.495   2.838  0.6316  0.8188 -0.3261
10565SOL     OW33701  10.890   1.484   5.188  0.1925  0.1086  0.2497
10565SOL    HW133702  10.939   1.566   5.177  1.0533 -0.3358  0.6942
10565SOL    HW233703  10.800   1.512   5.207  0.5806  0.9515  0.8889
10566SOL     OW33704   3.329   1.281   2.345  0.2228  0.7466 -0.3960
10566SOL    HW133705   3.236   1.298   2.361  0.4053  1.4340 -0.0446
10566SOL    HW233706   3.373   1.316   2.422  0.6720 -0.8375  0.1039
10567SOL     OW33707   0.796   1.149   7.294  0.3269  0.1030  0.2271
10567SOL    HW133708   0.792   1.194   7.209  1.2794 -0.0190  0.1075
10567SOL    HW233709   0.808   1.219   7.358  1.2226  0.0849  0.0962
10568SOL     OW33710   1.346   0.136   6.028 -0.0142  0.3346 -0.0636
10568SOL    HW133711   1.336   0.049   6.067 -0.9813  0.1358 -0.7044
10568SOL    HW233712   1.380   0.191   6.098  0.7773 -0.5995  0.2985
10569SOL     OW33713   2.183   6.393   0.230 -0.5375 -0.3594 -0.0282
10569SOL    HW133714   2.134   6.449   0.171 -1.2979 -0.5515  0.4040
10569SOL    HW233715   2.180   6.438   0.315  1.9450  0.7453 -0.4485
10570SOL     OW33716   8.840   3.989   6.996  0.1757 -0.5080 -0.1681
10570SOL    HW133717   8.747   3.969   7.005  0.3802 -0.5224  2.9561
10570SOL    HW233718   8.879   3.909   6.962 -0.8046 -0.9091 -0.3753
10571SOL     OW33719   3.382   2.963   1.515 -0.6528 -0.1666 -0.5055
10571SOL    HW133720   3.409   2.952   1.607 -1.0810  2.2424 -0.0109
10571SOL    HW233721   3.332   2.885   1.495  0.8314 -1.5288  0.7711
10572SOL     OW33722   2.592   6.322   1.280 -0.1727 -0.1906  0.7213
10572SOL    HW133723   2.600   6.380   1.356 -0.9823 -2.7306  2.9130
10572SOL    HW233724   2.498   6.322   1.260  0.2575  2.1429 -1.8285
10573SOL     OW33725   4.424  10.344   8.187  0.1296 -0.5066 -0.3142
10573SOL    HW133726   4.488  10.393   8.239 -0.9939  0.7139 -0.0333
10573SOL    HW233727   4.456  10.350   8.097 -0.2031  1.1572 -0.3474
10574SOL     OW33728  10.295   0.749   6.755  0.5070 -0.2307 -0.2850
10574SOL    HW133729  10.211   0.703   6.749  0.9066 -0.8719 -1.0666
10574SOL    HW233730  10.306   0.791   6.669  1.0443 -0.2476 -0.2261
10575SOL     OW33731   4.850   2.209   0.685  0.1381 -0.0021  1.1550
10575SOL    HW133732   4.925   2.205   0.625 -0.7659  1.5921 -0.1491
10575SOL    HW233733   4.862   2.132   0.742  1.7847 -0.7958 -0.1472
10576SOL     OW33734   7.571   8.962   4.630 -0.1541 -0.6404 -0.0471
10576SOL    HW133735   7.596   8.870   4.638 -1.9290 -1.4081 -2.1322
10576SOL    HW233736   7.632   8.997   4.565 -0.0899 -0.5989  0.0356
10577SOL     OW33737   6.337   3.345   1.403 -0.9525 -0.2187  0.3506
10577SOL    HW133738   6.370   3.259   1.429  1.2339  0.9082  1.6249
10577SOL    HW233739   6.415   3.399   1.397 -2.3347  1.8918  0.4008
10578SOL     OW33740   1.802   3.252   1.495  0.4073 -0.3096 -0.6978
10578SOL    HW133741   1.897   3.266   1.494  0.3144  0.5186  0.4497
10578SOL    HW233742   1.765   3.339   1.477 -0.1383 -0.5003 -0.5021
10579SOL     OW33743   3.015   7.012   2.783  0.8676 -0.1921 -0.1029
10579SOL    HW133744   2.976   7.091   2.821 -0.2235  0.7408 -2.8741
10579SOL    HW233745   3.088   7.044   2.730  1.5404 -1.2706  0.1472
10580SOL     OW33746   0.090   5.888   2.442 -0.0270 -0.0844 -0.2695
10580SOL    HW133747   0.146   5.964   2.430  0.6345 -0.1454  1.9177
10580SOL    HW233748   0.135   5.816   2.398  0.6133  0.2804 -0.2133
10581SOL     OW33749   6.167   5.108   4.555 -0.6167  0.0222  0.6274
10581SOL    HW133750   6.100   5.171   4.581 -2.2893 -1.7855  0.9253
10581SOL    HW233751   6.137   5.074   4.471  0.3093 -0.3421  0.4276
10582SOL     OW33752   1.970   4.199   4.797  0.1971 -0.4721 -0.0814
10582SOL    HW133753   1.971   4.130   4.863 -1.2161  0.4485  0.9833
10582SOL    HW233754   1.961   4.280   4.848  0.6459  0.4077 -1.3424
10583SOL     OW33755   5.697   5.893  10.711 -0.2094  0.3987  0.4160
10583SOL    HW133756   5.676   5.938  10.629 -2.1873 -0.4891  0.3709
10583SOL    HW233757   5.625   5.916  10.770  0.2061 -0.4651  1.2843
10584SOL     OW33758   0.427   7.661   1.042 -0.1573  0.2156  0.3842
10584SOL    HW133759   0.444   7.684   1.134 -0.2971 -0.7752  0.6736
10584SOL    HW233760   0.477   7.725   0.992 -3.6172  3.7715  0.9974
10585SOL     OW33761   2.962   7.399   5.220 -0.3133  0.1074 -0.3664
10585SOL    HW133762   2.869   7.395   5.242  0.3069  0.2505  2.7979
10585SOL    HW233763   2.987   7.490   5.237  0.6882 -0.2910  0.4779
10586SOL     OW33764   0.648   5.300   6.662  0.5834  1.0252  0.2479
10586SOL    HW133765   0.717   5.302   6.728  0.4568 -0.0493  0.4342
10586SOL    HW233766   0.641   5.208   6.637 -2.2839  0.6455  1.8901
10587SOL     OW33767   3.191   3.464   4.252 -0.3151  0.1934 -0.6056
10587SOL    HW133768   3.159   3.482   4.340 -2.3463 -0.6673 -1.0831
10587SOL    HW233769   3.210   3.370   4.252  1.8064  0.5807 -0.5121
10588SOL     OW33770  10.743   9.069   4.197  1.0450 -0.3487 -0.2331
10588SOL    HW133771  10.745   8.975   4.178 -1.5305 -0.3794 -0.7213
10588SOL    HW233772  10.813   9.106   4.143  1.2291 -1.8411 -1.0602
10589SOL     OW33773   1.202   2.116   6.874 -0.3586  0.0967 -0.7895
10589SOL    HW133774   1.267   2.065   6.826 -0.9861 -2.3126  0.7571
10589SOL    HW233775   1.133   2.133   6.809  0.0763 -0.6624 -1.4753
10590SOL     OW33776   4.989  10.572   4.100  0.5254 -0.1698 -0.2353
10590SOL    HW133777   5.067  10.530   4.064  1.4783 -0.1091  1.6861
10590SOL    HW233778   4.928  10.499   4.115  0.1341 -0.2076 -1.8037
10591SOL     OW33779   7.910   3.353   6.492 -0.9034 -0.0868 -0.0553
10591SOL    HW133780   7.889   3.442   6.463  0.4169 -0.1027 -1.1887
10591SOL    HW233781   7.831   3.302   6.476 -3.0159  1.4881  3.8797
10592SOL     OW33782   0.355   6.213   1.516  0.0202  0.5540  0.2945
10592SOL    HW133783   0.422   6.205   1.583 -0.2261  2.4722  0.8455
10592SOL    HW233784   0.378   6.149   1.450  0.3703 -1.2923  2.1130
10593SOL     OW33785  10.694   2.900   2.330  0.7923 -0.0696 -0.5199
10593SOL    HW133786  10.656   2.980   2.293 -1.7834 -0.8908  0.1394
10593SOL    HW233787  10.692   2.914   2.425  1.0656 -0.6090 -0.4290
10594SOL     OW33788   1.970   4.868   9.040 -0.2789 -0.4244 -0.3714
10594SOL    HW133789   1.978   4.875   9.135  0.3515 -0.2078 -0.4391
10594SOL    HW233790   1.913   4.793   9.026  0.1339 -0.8391  0.1620
10595SOL     OW33791  10.715   4.958   5.246  0.3728 -1.0239  0.1328
10595SOL    HW133792  10.644   4.914   5.293  0.6652  0.4892  2.1130
10595SOL    HW233793  10.789   4.897   5.253 -0.2664 -1.8987 -0.5445
10596SOL     OW33794   1.713   5.772   6.618 -0.4799 -0.3121 -0.0041
10596SOL    HW133795   1.692   5.681   6.642 -0.9356 -0.2133 -0.0238
10596SOL    HW233796   1.706   5.821   6.700 -2.0288  0.0243 -0.3078
10597SOL     OW33797   5.357  10.965   8.198  0.3337 -0.5828  0.1890
10597SOL    HW133798   5.350  10.928   8.110 -0.4891  0.2957 -0.1327
10597SOL    HW233799   5.451  10.961   8.218  0.5768 -0.4787 -0.8637
10598SOL     OW33800   2.089   6.516   6.197  0.1455  0.5164 -0.1817
10598SOL    HW133801   2.162   6.543   6.252  0.6410  0.3910 -0.7705
10598SOL    HW233802   2.012   6.521   6.255  0.7539 -0.3839  0.7447
10599SOL     OW33803   0.461   1.434   4.301 -0.0343  0.2221  0.3413
10599SOL    HW133804   0.548   1.415   4.264 -0.1788  0.3261 -0.0574
10599SOL    HW233805   0.478   1.504   4.364  0.4949 -1.1528  1.8096
10600SOL     OW33806   6.531   1.472   3.790 -0.0155  0.1823  0.4131
10600SOL    HW133807   6.560   1.486   3.880  1.1314  1.2980 -0.0945
10600SOL    HW233808   6.536   1.559   3.750 -1.2824 -0.1501 -0.5235
10601SOL     OW33809   8.416   3.139   6.853  0.2940  0.2806  0.2358
10601SOL    HW133810   8.397   3.114   6.944  1.2851  0.1869  0.4292
10601SOL    HW233811   8.432   3.234   6.857 -1.5175  0.6521 -0.1746
10602SOL     OW33812  10.090   0.617   8.424  0.8031 -0.5530 -0.1277
10602SOL    HW133813  10.043   0.615   8.507  0.5035  1.4885 -0.1935
10602SOL    HW233814  10.115   0.526   8.408 -1.4439 -1.4128  0.8761
10603SOL     OW33815   9.443   3.181   0.553  0.4479 -0.1362  0.0775
10603SOL    HW133816   9.464   3.090   0.532 -1.8911 -0.0124 -3.7434
10603SOL    HW233817   9.366   3.175   0.609  1.8240 -0.4232  2.0413
10604SOL     OW33818   9.235   0.733   6.416 -0.3453  0.0796 -0.1130
10604SOL    HW133819   9.240   0.691   6.502  0.5293  1.1893  0.4010
10604SOL    HW233820   9.157   0.788   6.422 -0.7565 -0.4668 -0.3345
10605SOL     OW33821   4.793   3.631   8.509  0.7771 -0.3511 -0.1328
10605SOL    HW133822   4.717   3.639   8.452  0.8956 -1.7076 -0.5244
10605SOL    HW233823   4.834   3.718   8.507 -0.1930  0.1080 -0.7223
10606SOL     OW33824   2.061   6.122   0.821  0.3301  0.4396  0.2055
10606SOL    HW133825   2.108   6.055   0.772 -0.3625  1.8964 -2.7183
10606SOL    HW233826   2.105   6.126   0.906  4.2924  0.3766 -1.6020
10607SOL     OW33827   9.990   4.685   8.666  0.7725 -0.0235  0.2922
10607SOL    HW133828   9.991   4.762   8.723  0.7438 -0.0927  0.3858
10607SOL    HW233829   9.964   4.719   8.580 -1.7927 -0.3113  0.8821
10608SOL     OW33830   2.262   4.864   3.453 -0.1590 -0.3327  0.4394
10608SOL    HW133831   2.295   4.937   3.505  1.0161 -0.3697 -0.2161
10608SOL    HW233832   2.282   4.888   3.363 -3.6770  0.5314 -0.2559
10609SOL     OW33833   3.911   7.966   2.948  0.4079 -0.0800  0.1770
10609SOL    HW133834   3.902   7.874   2.924  0.0245  0.2574 -1.0484
10609SOL    HW233835   3.911   7.966   3.044 -0.7206 -1.2515  0.2056
10610SOL     OW33836   7.342   4.667   0.109 -0.3635 -0.4293  0.1490
10610SOL    HW133837   7.266   4.630   0.065 -0.0988  0.9174 -1.5623
10610SOL    HW233838   7.390   4.712   0.040  0.3604  1.3883  1.7444
10611SOL     OW33839   1.375   3.228   5.562  0.1072  0.4807 -0.0170
10611SOL    HW133840   1.409   3.139   5.569  1.6018  0.9017 -1.2843
10611SOL    HW233841   1.288   3.217   5.525 -0.1167 -0.5006  0.7595
10612SOL     OW33842   6.785   5.816   9.120 -0.3088 -0.4259 -0.4721
10612SOL    HW133843   6.732   5.795   9.043  0.3313  1.0430 -1.3417
10612SOL    HW233844   6.804   5.731   9.159 -2.7134 -1.0616 -0.5044
10613SOL     OW33845   9.810   3.853   2.939  0.0547  0.0813  0.6687
10613SOL    HW133846   9.820   3.851   3.035  0.6267  1.1630  0.6593
10613SOL    HW233847   9.899   3.870   2.907 -0.4044  1.4695  0.0555
10614SOL     OW33848   2.957   4.139   8.415  0.0335 -0.2284 -0.2438
10614SOL    HW133849   2.969   4.159   8.507  1.2903  0.0249 -0.4330
10614SOL    HW233850   3.007   4.058   8.401 -0.0304 -0.1914 -0.7293
10615SOL     OW33851   6.063   9.007  10.321 -0.0357  0.4955  0.2631
10615SOL    HW133852   6.035   9.008  10.412 -0.1432  0.3551  0.2314
10615SOL    HW233853   6.091   8.917  10.304  0.9562  0.7565  0.4470
10616SOL     OW33854  10.741   1.095   8.915  0.2102 -0.5062 -0.1161
10616SOL    HW133855  10.735   1.182   8.954 -0.8903 -0.9316  0.7330
10616SOL    HW233856  10.814   1.101   8.853 -0.2648  1.2113 -0.5745
10617SOL     OW33857   2.070   6.583   4.167  0.8869 -0.1155  0.0058
10617SOL    HW133858   2.086   6.670   4.129 -1.4817  2.2907  3.8130
10617SOL    HW233859   2.148   6.565   4.219  1.8242 -0.8882 -1.5750
10618SOL     OW33860   4.362   2.854   7.928  0.2766  0.1482 -0.2088
10618SOL    HW133861   4.311   2.930   7.957  0.2849  0.0550  0.0556
10618SOL    HW233862   4.429   2.843   7.995  0.2335 -0.1344 -0.2087
10619SOL     OW33863   0.701   8.728   9.147  0.1187 -0.0420 -0.0842
10619SOL    HW133864   0.779   8.774   9.115 -0.4358 -0.1311 -1.6121
10619SOL    HW233865   0.650   8.796   9.191  0.8498  0.0933  0.5957
10620SOL     OW33866   4.977   0.685   5.750 -0.7212  0.2647  0.2791
10620SOL    HW133867   5.040   0.643   5.691 -0.9500 -0.6109  0.6452
10620SOL    HW233868   4.896   0.636   5.738 -1.0095  0.6294  0.6832
10621SOL     OW33869   1.793   3.376   3.743  0.1456 -0.2486  0.0899
10621SOL    HW133870   1.787   3.441   3.813  1.7664 -0.1109  0.1526
10621SOL    HW233871   1.707   3.336   3.739 -0.0382 -0.1269  2.0525
10622SOL     OW33872   7.501   4.811  11.046  0.0097 -0.5699  0.1086
10622SOL    HW133873   7.474   4.893  11.088  1.5944  1.0718 -1.8591
10622SOL    HW233874   7.584   4.789  11.088 -0.2182 -0.9686  0.3576
10623SOL     OW33875   0.310  10.324   0.640 -0.2135 -0.1439  0.4148
10623SOL    HW133876   0.346  10.356   0.557 -1.5640  1.7580  0.5053
10623SOL    HW233877   0.216  10.318   0.625 -0.2346 -2.4988  0.9989
10624SOL     OW33878   2.789   9.363   3.316  0.5279 -0.1791 -0.0616
10624SOL    HW133879   2.698   9.390   3.331  0.7240  1.2099 -1.1701
10624SOL    HW233880   2.803   9.377   3.223  0.9429 -3.4621 -0.6401
10625SOL     OW33881   8.201   1.514   0.887 -0.3448 -0.0682  0.2776
10625SOL    HW133882   8.207   1.476   0.975 -0.7522 -0.4634  0.1443
10625SOL    HW233883   8.176   1.440   0.832  1.0201 -0.0666 -0.3601
10626SOL     OW33884   3.637   0.510   3.982  0.1299 -0.2064 -0.1268
10626SOL    HW133885   3.569   0.566   4.022  0.8448  0.5146  0.1093
10626SOL    HW233886   3.701   0.497   4.052 -0.6136 -2.3682  0.2028
10627SOL     OW33887   1.851   8.256   5.625 -0.1154  0.3646 -0.0987
10627SOL    HW133888   1.844   8.169   5.664 -0.3968  0.7791  0.7907
10627SOL    HW233889   1.942   8.261   5.595  0.6678  0.6917  2.1422
10628SOL     OW33890   4.024   1.934   7.217  0.2436 -0.0473 -0.7970
10628SOL    HW133891   4.117   1.918   7.232 -0.2000 -3.4441 -0.7213
10628SOL    HW233892   4.002   1.879   7.141 -1.7045  0.5480 -0.7329
10629SOL     OW33893   5.721   3.282   8.781 -0.1354  0.4353 -0.6864
10629SOL    HW133894   5.783   3.315   8.847  1.0665  1.1136 -2.0706
10629SOL    HW233895   5.769   3.291   8.698 -2.0613  0.8584 -1.8044
10630SOL     OW33896  10.256   6.662   6.655  0.6573 -0.3080  0.6280
10630SOL    HW133897  10.263   6.571   6.684 -0.5796 -0.8287 -0.6078
10630SOL    HW233898  10.185   6.699   6.708 -0.6949 -0.8728 -0.7512
10631SOL     OW33899   7.510   6.476   3.722  0.3447  0.4587  0.1112
10631SOL    HW133900   7.434   6.432   3.761 -0.2553 -0.6567 -2.1719
10631SOL    HW233901   7.475   6.556   3.684  0.1766 -0.3099 -1.3991
10632SOL     OW33902   7.868   7.076   3.108  0.4489 -0.2271  0.0298
10632SOL    HW133903   7.849   7.049   3.018 -2.2490  0.7892  0.2050
10632SOL    HW233904   7.936   7.143   3.099  0.4508 -0.3722 -1.2228
10633SOL     OW33905   9.355   3.158   2.504 -0.9116 -0.4218 -0.2788
10633SOL    HW133906   9.327   3.249   2.516 -0.7068 -0.3628 -0.2499
10633SOL    HW233907   9.449   3.160   2.519 -0.9886 -0.7405  0.2884
10634SOL     OW33908   5.344  10.340  10.369  0.4700  0.1738 -0.1602
10634SOL    HW133909   5.251  10.337  10.388  0.4618  0.1238 -0.2077
10634SOL    HW233910   5.381  10.266  10.417  0.4208 -0.0664 -0.4936
10635SOL     OW33911   8.781   3.382   4.043 -0.2772 -0.2968 -0.1629
10635SOL    HW133912   8.788   3.460   4.098 -1.2755  0.5106 -1.1448
10635SOL    HW233913   8.687   3.367   4.033 -0.1314 -2.0998  0.6190
10636SOL     OW33914   3.374   5.258   0.818 -0.2054 -0.0821 -0.2539
10636SOL    HW133915   3.346   5.169   0.839  0.1807  0.1988  1.5694
10636SOL    HW233916   3.449   5.246   0.759  0.3832 -1.0013  0.6475
10637SOL     OW33917   4.089   9.012   5.774 -0.1776 -0.1147 -0.7405
10637SOL    HW133918   4.103   8.925   5.812  0.2282  0.1095 -0.3655
10637SOL    HW233919   4.034   9.057   5.838  1.4200  0.6467  0.1704
10638SOL     OW33920   9.152   0.937   1.643 -0.1805 -0.6304 -1.1754
10638SOL    HW133921   9.094   0.986   1.701 -0.2783 -1.7198 -0.3319
10638SOL    HW233922   9.239   0.975   1.660 -0.4427  0.1582 -1.5342
10639SOL     OW33923   1.853   7.140   2.513  0.0586 -0.6856  0.4931
10639SOL    HW133924   1.831   7.047   2.507  0.6686 -0.8634  0.8108
10639SOL    HW233925   1.770   7.186   2.500 -0.3557 -1.2922  0.9134
10640SOL     OW33926   5.307   7.185   3.202  0.0483 -0.3998  0.2420
10640SOL    HW133927   5.324   7.177   3.296  0.0084 -0.7367  0.2241
10640SOL    HW233928   5.214   7.207   3.196  0.7299  2.9908  0.3978
10641SOL     OW33929   6.561   7.027   0.804 -0.2133 -0.5704  0.6195
10641SOL    HW133930   6.489   7.039   0.742 -0.4251 -0.4459  0.8894
10641SOL    HW233931   6.570   7.112   0.848  0.1845 -0.5470  0.4934
10642SOL     OW33932   1.067   3.145   4.647  0.1412 -0.0064  0.2174
10642SOL    HW133933   0.989   3.193   4.620  1.2314  2.5885  1.4252
10642SOL    HW233934   1.042   3.102   4.729 -0.4543 -0.4282 -0.1823
10643SOL     OW33935   2.403   1.328   3.781 -0.0834 -0.0692 -0.3427
10643SOL    HW133936   2.433   1.271   3.710  1.8747  1.0403 -0.4559
10643SOL    HW233937   2.432   1.416   3.756 -1.4025  0.7177  0.7330
10644SOL     OW33938   3.441   0.162   4.590  0.3198  0.0492  0.1458
10644SOL    HW133939   3.524   0.143   4.547  0.6519 -1.4647  1.3731
10644SOL    HW233940   3.447   0.119   4.675 -1.7938 -0.2507  0.2072
10645SOL     OW33941  10.248   4.710   9.811 -0.5860 -0.3997  0.0510
10645SOL    HW133942  10.215   4.636   9.863  1.4484 -1.0144  0.5768
10645SOL    HW233943  10.288   4.669   9.735  1.1001  0.0579  0.6425
10646SOL     OW33944   9.784   7.114   9.388  0.1176  0.4758  0.0136
10646SOL    HW133945   9.871   7.102   9.424 -0.1299 -2.4330 -0.1287
10646SOL    HW233946   9.796   7.111   9.293  0.2065  3.6692 -0.1952
10647SOL     OW33947   8.454   5.744   9.752  0.3027  0.4871 -0.4865
10647SOL    HW133948   8.468   5.799   9.829 -0.2434  0.0935 -0.1020
10647SOL    HW233949   8.537   5.747   9.705  0.5653  0.9130  0.0021
10648SOL     OW33950   1.667   3.454   9.347 -0.1308 -0.3601 -0.6273
10648SOL    HW133951   1.669   3.375   9.401 -0.4511 -0.4842 -0.7949
10648SOL    HW233952   1.756   3.462   9.313 -0.6116 -1.8768 -2.3692
10649SOL     OW33953   8.551   2.415   4.404 -0.8471  0.0605 -0.2407
10649SOL    HW133954   8.457   2.397   4.404 -1.2307  1.8623 -1.1407
10649SOL    HW233955   8.576   2.407   4.496 -1.8412 -0.5936 -0.0069
10650SOL     OW33956   2.633   7.063   6.864  0.5534  0.2376  0.0825
10650SOL    HW133957   2.562   7.073   6.800  1.1856  0.8094 -0.5626
10650SOL    HW233958   2.712   7.085   6.814  1.1008  0.3147  0.9699
10651SOL     OW33959   6.775   8.474   8.024 -0.2087  0.1975 -0.1885
10651SOL    HW133960   6.844   8.448   7.962  0.5619  0.7277  0.4192
10651SOL    HW233961   6.803   8.436   8.107 -1.4723 -0.8977 -0.2441
10652SOL     OW33962   7.666   5.668   8.660 -0.5223  0.6147  0.1495
10652SOL    HW133963   7.698   5.578   8.663 -2.1948 -0.0328 -0.2672
10652SOL    HW233964   7.743   5.720   8.637  0.3596 -0.7694 -0.1485
10653SOL     OW33965   5.141  10.930   5.205  0.4950  0.3600 -0.1025
10653SOL    HW133966   5.089  11.010   5.199 -1.1613 -0.5954  0.9125
10653SOL    HW233967   5.224  10.959   5.242 -0.1854  1.5683  0.5488
10654SOL     OW33968   8.796   5.467   1.447 -0.1730  0.8792  0.1495
10654SOL    HW133969   8.779   5.561   1.456  1.8502  1.1402  2.2694
10654SOL    HW233970   8.728   5.436   1.387 -2.4509  3.2253  1.3049
10655SOL     OW33971   3.569   6.703   9.205  0.0171  0.4130 -0.3227
10655SOL    HW133972   3.621   6.782   9.194  0.6626 -0.1553 -1.4745
10655SOL    HW233973   3.546   6.676   9.116 -0.7836 -0.3127  0.0835
10656SOL     OW33974   6.699   6.022  10.020 -0.3781  0.1842  0.1454
10656SOL    HW133975   6.635   6.083  10.055 -1.0357  0.0106 -0.7192
10656SOL    HW233976   6.752   6.073   9.959 -0.6734 -0.0195 -0.2823
10657SOL     OW33977   5.479   5.688   9.414  0.1034  0.2375  0.1377
10657SOL    HW133978   5.506   5.661   9.502  0.5074  1.2625  0.3421
10657SOL    HW233979   5.387   5.662   9.409  0.7907 -2.4065 -0.2105
10658SOL     OW33980   2.370   3.984   1.446  0.3653 -0.7854 -0.2480
10658SOL    HW133981   2.283   4.024   1.440  1.3403  1.4708 -0.3824
10658SOL    HW233982   2.395   3.969   1.355  0.0960 -1.5328 -0.2053
10659SOL     OW33983   1.026   6.104   6.847 -1.1799  0.9108 -0.8001
10659SOL    HW133984   1.004   6.024   6.799 -1.4059  0.3763  0.1647
10659SOL    HW233985   0.943   6.148   6.861 -1.4883 -0.1858  1.2311
10660SOL     OW33986   7.509   1.935   6.149 -0.2612 -0.0384 -0.0656
10660SOL    HW133987   7.597   1.961   6.176  0.8734 -2.9403 -0.5546
10660SOL    HW233988   7.452   2.005   6.180  2.1547  1.7715  0.5881
10661SOL     OW33989   5.164   6.498   2.691 -0.4980 -0.5664 -0.3529
10661SOL    HW133990   5.129   6.532   2.773 -1.8914 -0.6482 -0.8792
10661SOL    HW233991   5.247   6.457   2.715  0.0771  1.0953  0.6854
10662SOL     OW33992   4.849   3.758   7.858 -0.3119  0.6755  0.1359
10662SOL    HW133993   4.917   3.726   7.917 -1.2996  0.4277  1.1653
10662SOL    HW233994   4.830   3.847   7.889 -2.3504 -0.2089  1.6131
10663SOL     OW33995   3.342   4.520   5.439 -0.0097  0.4080 -0.4826
10663SOL    HW133996   3.293   4.448   5.478 -0.1900  0.4188 -0.6883
10663SOL    HW233997   3.348   4.498   5.346  1.8207 -0.4348 -0.2227
10664SOL     OW33998   2.858   7.464   5.566 -0.0940 -0.0369  0.1835
10664SOL    HW133999   2.951   7.484   5.551 -0.5642  0.8553 -1.9097
10664SOL    HW234000   2.839   7.394   5.503 -0.3568 -1.7922  2.1244
10665SOL     OW34001   3.110   5.929   5.347 -0.0069 -0.2739  0.4153
10665SOL    HW134002   3.027   5.963   5.382 -0.6023 -0.1695 -1.0493
10665SOL    HW234003   3.156   5.896   5.424 -1.3003 -0.1125  1.2932
10666SOL     OW34004   2.222   9.581   6.582 -0.1756 -0.3933 -0.3653
10666SOL    HW134005   2.175   9.510   6.538 -1.3982 -0.3237  0.7717
10666SOL    HW234006   2.234   9.647   6.514 -0.0583 -1.1907 -1.1478
10667SOL     OW34007   5.736   7.068   1.507  0.2818  0.1187  0.0525
10667SOL    HW134008   5.790   7.146   1.497  1.0022 -0.3131  0.5253
10667SOL    HW234009   5.783   6.999   1.461 -1.2460  0.3364 -1.9644
10668SOL     OW34010   7.296   1.777   5.717 -0.0643  0.3001 -0.3808
10668SOL    HW134011   7.305   1.859   5.766 -0.2340 -0.0832  0.3184
10668SOL    HW234012   7.201   1.765   5.708 -0.1886 -1.0736  1.7824
10669SOL     OW34013   3.132  10.896   7.770  0.5151  0.1087 -0.2513
10669SOL    HW134014   3.141  10.803   7.749  1.8328  0.3722 -0.9451
10669SOL    HW234015   3.082  10.932   7.696  0.5284  0.0636 -0.2824
10670SOL     OW34016   4.668   3.862   7.261 -0.1429  0.2049  0.1430
10670SOL    HW134017   4.699   3.916   7.188  1.5011 -0.7042  0.1209
10670SOL    HW234018   4.598   3.809   7.222  0.9230 -0.4922 -0.8876
10671SOL     OW34019   5.325   8.814   5.535  0.4433  0.2399 -0.2768
10671SOL    HW134020   5.275   8.892   5.557 -0.5502 -0.0106 -1.5592
10671SOL    HW234021   5.290   8.786   5.450  0.3802 -1.9220  0.4112
10672SOL     OW34022   5.316   0.534   6.807 -0.0383 -0.1552 -0.3842
10672SOL    HW134023   5.290   0.553   6.897 -0.3644  1.0686 -0.7181
10672SOL    HW234024   5.257   0.586   6.753  0.8804  0.0027 -1.2670
10673SOL     OW34025  11.052   8.345   3.400 -0.8714  0.0797  0.1830
10673SOL    HW134026  11.100   8.334   3.482 -0.8175  2.1319  0.4794
10673SOL    HW234027  11.084   8.275   3.344  0.2313 -0.4292  1.3977
10674SOL     OW34028   0.392   5.233  10.032  0.1094 -0.4212  0.0900
10674SOL    HW134029   0.442   5.194  10.104 -0.5023 -1.5195 -0.0537
10674SOL    HW234030   0.431   5.196   9.953 -0.3030 -0.5447 -0.0598
10675SOL     OW34031   2.187   0.868   2.882  0.3348 -0.4842  0.4809
10675SOL    HW134032   2.216   0.942   2.936  0.7784 -0.6734  0.5054
10675SOL    HW234033   2.227   0.792   2.923  1.3585 -0.5428 -0.5822
10676SOL     OW34034   0.282   6.446   3.033 -0.0301 -0.1942 -0.0747
10676SOL    HW134035   0.218   6.413   2.971  0.8654 -1.4599 -0.3683
10676SOL    HW234036   0.313   6.368   3.080  1.4456  0.3321 -0.1091
10677SOL     OW34037   7.901   6.477   9.924 -0.5036 -0.2465 -0.3009
10677SOL    HW134038   7.926   6.528  10.000 -0.6318 -1.2089  0.4043
10677SOL    HW234039   7.812   6.507   9.903 -1.2334 -1.3029  1.1184
10678SOL     OW34040   2.892   6.305   1.980 -0.0690  0.2596  0.0050
10678SOL    HW134041   2.816   6.330   2.032  0.7493  0.1567  1.2996
10678SOL    HW234042   2.879   6.213   1.960 -0.6775  0.4493 -0.4910
10679SOL     OW34043   4.161   1.901   5.774 -0.0419 -0.5133  0.0755
10679SOL    HW134044   4.200   1.980   5.811 -1.2058  0.1846 -0.1134
10679SOL    HW234045   4.166   1.837   5.844  0.2696 -0.0435  0.4890
10680SOL     OW34046   1.635  10.313   8.802  0.6891 -0.1228 -0.8721
10680SOL    HW134047   1.678  10.292   8.885  0.6809 -0.9665 -1.0789
10680SOL    HW234048   1.555  10.359   8.828  0.3829 -0.9142 -0.3891
10681SOL     OW34049   0.544   6.697   4.951 -0.4794 -0.2946  0.2733
10681SOL    HW134050   0.479   6.706   5.020 -0.0780  0.6092  0.5426
10681SOL    HW234051   0.564   6.603   4.948  0.2293 -0.2351  2.0560
10682SOL     OW34052   3.680   9.504  10.051 -0.2255  0.4765  0.5104
10682SOL    HW134053   3.736   9.567  10.097 -0.5421  0.4723  0.9078
10682SOL    HW234054   3.629   9.557   9.990 -0.9571  0.7067  1.2963
10683SOL     OW34055   7.758   5.620   8.256  0.0415  0.1065 -0.0099
10683SOL    HW134056   7.684   5.612   8.316 -0.7867 -0.5781 -1.0846
10683SOL    HW234057   7.734   5.692   8.198  0.3940  0.1420 -0.1121
10684SOL     OW34058   3.499   3.075   1.786 -0.1979  0.2864 -0.3697
10684SOL    HW134059   3.485   3.163   1.750 -1.2173 -0.2543 -1.3509
10684SOL    HW234060   3.591   3.055   1.766 -0.0822  0.9551 -0.5277
10685SOL     OW34061   1.933   3.291   0.692 -0.0842  0.0976  0.0033
10685SOL    HW134062   1.851   3.320   0.731  0.6032 -0.2368  1.7582
10685SOL    HW234063   1.914   3.202   0.661 -0.4130  0.0764  0.2608
10686SOL     OW34064   0.200   5.442   7.549  0.1343 -0.0366 -0.2772
10686SOL    HW134065   0.194   5.443   7.644 -0.6970 -0.7066 -0.3061
10686SOL    HW234066   0.177   5.352   7.525 -2.3118  0.7574 -1.2373
10687SOL     OW34067   7.250   7.137   4.012  0.2760  0.7866 -0.8150
10687SOL    HW134068   7.252   7.228   3.981 -1.7413  1.4042  0.6513
10687SOL    HW234069   7.164   7.105   3.986  0.3773 -0.2026  0.0124
10688SOL     OW34070   4.999   4.351   4.625 -1.0114  0.1286 -0.2724
10688SOL    HW134071   4.952   4.283   4.675 -2.4585  0.3878 -1.2061
10688SOL    HW234072   5.089   4.319   4.620 -0.8747 -0.0336  2.2305
10689SOL     OW34073   3.882   6.827   3.852  0.3870 -0.2275  0.6659
10689SOL    HW134074   3.819   6.896   3.832 -1.8899 -1.6281  2.4786
10689SOL    HW234075   3.934   6.818   3.772 -1.4875  1.2527 -0.8208
10690SOL     OW34076   4.092   0.849   2.986  0.1157  0.4196 -0.3648
10690SOL    HW134077   4.022   0.885   2.932  0.4350  2.1333  0.3080
10690SOL    HW234078   4.165   0.910   2.974  0.7209 -0.0627  0.7344
10691SOL     OW34079   6.086   4.819   8.482  0.7602  0.7148  0.2895
10691SOL    HW134080   6.001   4.814   8.439  0.5346  1.7181  0.5802
10691SOL    HW234081   6.068   4.862   8.566  1.3941 -0.0194  0.8079
10692SOL     OW34082   4.689  10.836   8.888 -0.2184 -0.0732  0.2512
10692SOL    HW134083   4.663  10.835   8.980 -0.2308  1.2470  0.2812
10692SOL    HW234084   4.729  10.750   8.873  0.6258  0.0308  1.7276
10693SOL     OW34085   2.662   4.997   8.570  0.2340  1.1975 -0.0643
10693SOL    HW134086   2.603   5.062   8.531 -2.5419 -0.3785  1.2381
10693SOL    HW234087   2.679   4.935   8.499 -1.8192  0.2978  0.1812
10694SOL     OW34088  11.010   4.702   4.368 -0.1597  0.0603 -0.0684
10694SOL    HW134089  10.966   4.777   4.330  2.0312  0.6573 -1.6367
10694SOL    HW234090  11.019   4.640   4.296 -0.3033 -0.9283  0.7380
10695SOL     OW34091   2.506   9.764   4.891 -0.1558 -0.3576 -0.0660
10695SOL    HW134092   2.598   9.777   4.866  0.5731 -2.2913  1.3804
10695SOL    HW234093   2.461   9.839   4.852  2.1808  1.2558  0.0458
10696SOL     OW34094  10.044   5.834   8.529  0.4792 -0.3102  0.3896
10696SOL    HW134095   9.985   5.763   8.554 -0.7895  0.4680 -0.2913
10696SOL    HW234096  10.123   5.790   8.498  0.6589 -1.3602  2.1770
10697SOL     OW34097   8.968   0.762   7.574  0.5228  0.5214 -0.4117
10697SOL    HW134098   9.042   0.715   7.612  1.9213  2.8308 -0.0483
10697SOL    HW234099   8.992   0.772   7.481  0.0163  0.1051 -0.5876
10698SOL     OW34100   8.287   3.010   8.449 -0.0065  0.5525 -0.5858
10698SOL    HW134101   8.254   3.081   8.503 -1.0593  2.3488 -3.3666
10698SOL    HW234102   8.220   2.941   8.457 -0.7227  1.2415 -0.4923
10699SOL     OW34103   5.627   2.689   4.292 -0.1116  0.1012  0.0130
10699SOL    HW134104   5.599   2.599   4.275  0.0552  0.2084 -0.8458
10699SOL    HW234105   5.631   2.695   4.388  1.9652 -1.4613  0.0850
10700SOL     OW34106   3.670   7.297   6.020 -0.4530  0.4901  0.1999
10700SOL    HW134107   3.683   7.203   6.007  0.2640  0.5610  0.3452
10700SOL    HW234108   3.639   7.329   5.936  3.1095  0.7713 -1.1895
10701SOL     OW34109   1.795   3.881   4.247 -0.2291 -0.1776 -0.1857
10701SOL    HW134110   1.863   3.890   4.180 -1.3783  0.7171 -1.2883
10701SOL    HW234111   1.838   3.907   4.328  0.9318 -0.2999 -0.7384
10702SOL     OW34112   3.344   1.066   5.055  0.2897  0.1990  0.1957
10702SOL    HW134113   3.269   1.045   5.000  1.2379  0.6029 -1.3363
10702SOL    HW234114   3.308   1.117   5.127 -1.1942 -1.5210  0.7557
10703SOL     OW34115   7.981   6.648   5.337 -0.7113 -0.1140  0.1281
10703SOL    HW134116   8.055   6.617   5.389 -2.0043 -1.2383  1.3947
10703SOL    HW234117   7.939   6.715   5.392 -0.8997  0.1912 -0.3777
10704SOL     OW34118   2.648   5.346   0.315 -0.3158 -0.1647 -0.2173
10704SOL    HW134119   2.611   5.259   0.304  1.7990 -1.1497 -0.0529
10704SOL    HW234120   2.677   5.349   0.407 -1.6148  1.2644  0.1906
10705SOL     OW34121   1.716   2.941   0.775 -0.2003 -0.8082 -0.4724
10705SOL    HW134122   1.805   2.932   0.740 -0.3472 -2.5172 -0.4850
10705SOL    HW234123   1.661   2.959   0.698  0.0117 -0.5326 -0.5628
10706SOL     OW34124   6.971   0.873   3.957 -0.1656 -0.0711 -0.4899
10706SOL    HW134125   6.925   0.886   4.040  0.5572 -1.2437  0.1202
10706SOL    HW234126   7.061   0.902   3.974  0.6475 -2.6618 -0.0526
10707SOL     OW34127   2.278   3.321   9.635  0.1764 -0.1892  0.3704
10707SOL    HW134128   2.276   3.416   9.632  3.0825 -0.0685  0.2318
10707SOL    HW234129   2.344   3.295   9.572  0.1805 -2.2534  1.1247
10708SOL     OW34130   3.154   4.486   7.695  0.2782  0.0024  0.2651
10708SOL    HW134131   3.139   4.578   7.715 -0.8459 -0.5094  2.0013
10708SOL    HW234132   3.241   4.468   7.730  1.3698  0.8298 -1.8512
10709SOL     OW34133   2.668   2.705   3.473 -0.0867 -0.2608  0.4019
10709SOL    HW134134   2.735   2.638   3.482  0.4428  0.3498  1.1414
10709SOL    HW234135   2.626   2.686   3.389  1.4029 -0.3050 -0.3712
10710SOL     OW34136   4.124   7.479   7.621  0.3233  0.9042 -0.4201
10710SOL    HW134137   4.114   7.554   7.562  1.4343 -0.1251 -2.0066
10710SOL    HW234138   4.090   7.405   7.571 -0.5010  0.2775  1.0142
10711SOL     OW34139   6.355   1.298   3.637  0.3551 -0.5608  0.0969
10711SOL    HW134140   6.437   1.327   3.677 -0.1586  1.9911 -0.5175
10711SOL    HW234141   6.356   1.336   3.549 -0.9654 -1.4973 -0.3585
10712SOL     OW34142   5.584   8.655  10.028  0.2439  0.0285 -0.0515
10712SOL    HW134143   5.549   8.729  10.076 -1.6489 -0.5647 -0.4478
10712SOL    HW234144   5.632   8.694   9.955  4.3081  1.0267  2.7577
10713SOL     OW34145   2.716   3.729   8.172 -0.1527 -0.3046 -0.7207
10713SOL    HW134146   2.699   3.810   8.124  1.5392  1.5915  1.6091
10713SOL    HW234147   2.796   3.694   8.132  1.3153  1.3211  0.6106
10714SOL     OW34148   3.014   0.785  10.130 -0.4351 -0.0709 -0.2887
10714SOL    HW134149   3.014   0.699  10.087  0.9479  0.7723 -2.1131
10714SOL    HW234150   3.029   0.847  10.059  1.3054  1.4965  1.3366
10715SOL     OW34151   5.696   2.131   6.618  0.2002 -0.5452  0.4746
10715SOL    HW134152   5.697   2.175   6.702 -0.2525 -1.4721  0.9760
10715SOL    HW234153   5.723   2.041   6.637  2.9526 -0.1042 -0.7708
10716SOL     OW34154   7.167  10.975   3.355  0.2745 -0.4670  0.2525
10716SOL    HW134155   7.226  10.918   3.403  0.6106 -0.3206  0.0162
10716SOL    HW234156   7.165  10.940   3.266 -0.5905 -0.9266  0.4391
10717SOL     OW34157   0.808   3.643   4.698  0.1194  0.1595 -0.3890
10717SOL    HW134158   0.722   3.602   4.709 -0.0292  0.4334 -0.5345
10717SOL    HW234159   0.818   3.653   4.603 -0.9956  2.8789 -0.3152
10718SOL     OW34160   2.244   7.461   9.959 -0.9137 -0.2773  0.6612
10718SOL    HW134161   2.197   7.384   9.991  0.3619 -1.8081 -0.9739
10718SOL    HW234162   2.328   7.428   9.929 -0.3728  1.7389 -0.2372
10719SOL     OW34163   2.125   1.646   7.196  0.0373  0.0952 -0.0124
10719SOL    HW134164   2.145   1.697   7.117 -1.6028  0.4197 -0.2441
10719SOL    HW234165   2.074   1.571   7.164  0.9490 -0.7911  0.5359
10720SOL     OW34166   2.224   9.169   3.669  0.2196 -0.0048  0.2025
10720SOL    HW134167   2.158   9.233   3.697 -0.8598 -1.1005  0.2196
10720SOL    HW234168   2.262   9.208   3.590 -1.9001 -0.2502 -1.0269
10721SOL     OW34169   5.111   0.688   6.000  0.1731 -0.4025  0.5720
10721SOL    HW134170   5.080   0.709   5.912  0.2849  2.4398  1.1133
10721SOL    HW234171   5.170   0.614   5.988 -2.6724 -2.6225 -1.1747
10722SOL     OW34172   0.804   9.802   7.829 -0.1446 -1.0588  0.0565
10722SOL    HW134173   0.895   9.778   7.848  0.0583 -0.1205  0.3145
10722SOL    HW234174   0.775   9.736   7.766  1.3439 -0.2768 -1.5417
10723SOL     OW34175   4.633   9.871   9.387  0.0833  0.1749 -0.3123
10723SOL    HW134176   4.615   9.863   9.481 -2.8776  0.2962 -0.7698
10723SOL    HW234177   4.609   9.785   9.351  1.2365  0.1135 -0.9745
10724SOL     OW34178   8.220   6.888   5.537 -0.7021  0.1277 -0.1507
10724SOL    HW134179   8.221   6.949   5.463  2.1984 -0.0192 -0.3439
10724SOL    HW234180   8.155   6.822   5.512 -1.1667  1.1108 -1.6804
10725SOL     OW34181   7.833   9.135  10.110  0.1481 -0.4826  0.3601
10725SOL    HW134182   7.906   9.191  10.084  0.2502 -0.5484  0.5051
10725SOL    HW234183   7.784   9.121  10.029 -2.6701  3.7703  1.0259
10726SOL     OW34184   1.531   5.283   3.534 -0.5357  0.0277 -0.2190
10726SOL    HW134185   1.601   5.292   3.599 -1.4608  0.3454  0.7715
10726SOL    HW234186   1.535   5.192   3.505 -1.2407 -0.6578  1.6620
10727SOL     OW34187   8.585   3.070  10.596  0.4729  0.0686 -0.2108
10727SOL    HW134188   8.622   3.111  10.674  0.3846  0.4050 -0.3479
10727SOL    HW234189   8.592   2.976  10.614 -0.9236  0.1423  0.8530
10728SOL     OW34190   9.226   0.500   3.692 -0.4217 -0.7803 -0.1101
10728SOL    HW134191   9.225   0.458   3.606 -1.8132 -1.3655  0.1624
10728SOL    HW234192   9.222   0.593   3.673 -4.2805 -0.9053 -0.7636
10729SOL     OW34193   4.677   4.325   6.102  0.7425 -0.2915 -0.3380
10729SOL    HW134194   4.734   4.334   6.179  0.8885  0.0719 -0.4837
10729SOL    HW234195   4.735   4.295   6.033  1.1770  1.7930 -0.9620
10730SOL     OW34196   1.083   1.001   5.539  0.1464  0.5439 -0.0407
10730SOL    HW134197   1.088   1.031   5.448 -0.4822  0.5489 -0.0796
10730SOL    HW234198   1.046   1.075   5.586 -2.2195 -0.3956 -0.2757
10731SOL     OW34199   6.486   3.585   1.090 -0.4783  0.0585  0.3543
10731SOL    HW134200   6.409   3.580   1.034 -0.3148  1.8391 -0.0985
10731SOL    HW234201   6.465   3.654   1.154 -0.8838 -2.2459  2.9180
10732SOL     OW34202   0.642   6.297   7.266 -0.5537  0.0288  0.2932
10732SOL    HW134203   0.616   6.287   7.174 -0.2784 -1.2020  0.3331
10732SOL    HW234204   0.680   6.385   7.270 -0.3676  0.0186 -0.8207
10733SOL     OW34205   1.626   6.970   9.926  0.2163  0.4098  0.1699
10733SOL    HW134206   1.564   6.909   9.966  0.7434 -0.7489 -0.7200
10733SOL    HW234207   1.649   7.031   9.997  0.2872 -0.9240  1.3358
10734SOL     OW34208   4.358  10.529   6.586  0.3243  0.1150  0.3539
10734SOL    HW134209   4.264  10.539   6.604  0.7019  0.7994  2.2055
10734SOL    HW234210   4.398  10.606   6.627  1.8297 -0.8532  0.7858
10735SOL     OW34211   7.751   5.353   1.213  0.3129  0.2151 -0.0793
10735SOL    HW134212   7.742   5.301   1.133  1.6683  0.9448 -0.7455
10735SOL    HW234213   7.775   5.290   1.281  0.3312 -0.2454 -0.5140
10736SOL     OW34214  10.278  11.016   5.095 -0.3793 -0.2232  0.0946
10736SOL    HW134215  10.243  11.065   5.021 -1.5713  1.0820  1.4560
10736SOL    HW234216  10.365  10.988   5.067  0.1694  2.2708 -0.9385
10737SOL     OW34217   0.090   6.256   6.027 -0.2835  0.4288 -1.0581
10737SOL    HW134218   0.134   6.341   6.036  0.4097  0.0421 -0.6885
10737SOL    HW234219   0.098   6.216   6.114  0.6388 -0.5930 -1.5857
10738SOL     OW34220   3.786   4.774   6.718  0.7396 -0.5353 -0.2395
10738SOL    HW134221   3.744   4.811   6.796  0.8973  1.7499 -1.1413
10738SOL    HW234222   3.782   4.680   6.731  0.4159 -0.2517  2.3438
10739SOL     OW34223   1.048   1.729   3.370  0.6485  0.4265 -0.2295
10739SOL    HW134224   1.099   1.802   3.407  1.6286 -0.2409 -0.2074
10739SOL    HW234225   1.107   1.689   3.306 -0.4609  0.6015 -1.3964
10740SOL     OW34226   5.119   4.646  10.427  0.5957 -0.5856 -0.3544
10740SOL    HW134227   5.029   4.655  10.395 -0.3062 -2.7066  1.2976
10740SOL    HW234228   5.165   4.602  10.356  0.4083  0.6453 -1.2727
10741SOL     OW34229   9.017   4.351   7.065 -0.1816  0.0120 -0.9431
10741SOL    HW134230   9.111   4.367   7.052  0.8266 -2.9726  1.2737
10741SOL    HW234231   8.992   4.294   6.992 -0.0318  0.1327 -1.0881
10742SOL     OW34232   8.012   6.548   9.496 -0.1208  0.2944 -0.3955
10742SOL    HW134233   7.999   6.462   9.455 -1.0181 -0.1875  0.8449
10742SOL    HW234234   8.071   6.530   9.570  1.8579  1.2299 -1.6606
10743SOL     OW34235   5.043  10.057   3.349 -0.2488 -0.1796 -0.2284
10743SOL    HW134236   5.020   9.989   3.412 -1.1361 -0.1856 -0.5524
10743SOL    HW234237   4.960  10.084   3.310  0.1025  0.9546 -0.2538
10744SOL     OW34238   8.677   7.590   0.245  0.3634  0.1914  0.6214
10744SOL    HW134239   8.662   7.514   0.302  0.8171 -0.3076  0.0767
10744SOL    HW234240   8.627   7.660   0.287 -0.8227 -0.6224  0.6409
10745SOL     OW34241   4.861   5.166  11.097 -0.2155  0.2014  0.3338
10745SOL    HW134242   4.879   5.208  11.013  0.6712  0.0370  0.4376
10745SOL    HW234243   4.790   5.105  11.079  0.1725 -0.0488 -0.3578
10746SOL     OW34244   7.422   8.832   6.956 -0.2423  0.5795  0.5863
10746SOL    HW134245   7.395   8.855   7.045  0.9640  1.0223  0.8685
10746SOL    HW234246   7.463   8.746   6.965 -0.4878  0.4400  0.3801
10747SOL     OW34247   2.985   7.395   5.822 -1.2300  0.1914 -0.3259
10747SOL    HW134248   2.945   7.447   5.752 -2.4349  0.4928  0.5401
10747SOL    HW234249   2.947   7.431   5.903 -1.2432 -1.3167  0.3740
10748SOL     OW34250   0.389   0.833   6.178  0.1425  0.0408 -0.1586
10748SOL    HW134251   0.376   0.827   6.083  0.0647 -0.1549 -0.1365
10748SOL    HW234252   0.404   0.926   6.194  0.0231  0.0943 -0.3455
10749SOL     OW34253   2.721   4.449   7.321  0.3615  0.0669  0.3939
10749SOL    HW134254   2.807   4.413   7.342  1.0403  2.0848  1.3085
10749SOL    HW234255   2.671   4.441   7.402  0.2024  0.2970  0.3204
10750SOL     OW34256   0.043   8.994   8.408  0.1589  0.0150 -0.5000
10750SOL    HW134257   0.013   8.936   8.339 -1.6843  1.1431 -0.7367
10750SOL    HW234258  -0.037   9.017   8.456  1.3331 -0.6029  1.9470
10751SOL     OW34259   8.750   4.647   2.755  0.1342  0.5606  0.6651
10751SOL    HW134260   8.657   4.634   2.738  0.5739  0.0869 -1.8387
10751SOL    HW234261   8.763   4.741   2.745 -0.0957  0.6559  1.2274
10752SOL     OW34262   0.014   6.071   4.060  0.0571 -0.4776  0.1926
10752SOL    HW134263   0.109   6.062   4.052  0.1690  0.0604  0.8424
10752SOL    HW234264  -0.019   5.982   4.050  0.7607 -0.9326  1.6491
10753SOL     OW34265   5.259   9.903   8.488  0.5023  0.3358  0.2642
10753SOL    HW134266   5.262   9.903   8.583 -0.2351 -2.7224  0.3865
10753SOL    HW234267   5.343   9.865   8.461 -0.1593 -0.9254 -0.1369
10754SOL     OW34268   6.590  10.512   4.405 -0.1641  0.1405  0.6939
10754SOL    HW134269   6.655  10.519   4.335  1.4895  0.1898  2.1565
10754SOL    HW234270   6.532  10.441   4.377  1.4893 -1.0168  0.0424
10755SOL     OW34271   2.102   7.450   1.990 -0.8220  0.2217  0.3914
10755SOL    HW134272   2.046   7.399   2.048 -0.9080 -1.8436 -1.3856
10755SOL    HW234273   2.175   7.391   1.969 -1.7692  0.0466 -3.0518
10756SOL     OW34274   4.205   0.967   9.709  0.1890 -0.4121 -0.3266
10756SOL    HW134275   4.298   0.967   9.731  0.8907 -1.2556 -2.9918
10756SOL    HW234276   4.168   0.897   9.763  1.4095 -1.1103 -0.3600
10757SOL     OW34277   1.571   6.177   6.485 -0.1400  0.5415 -0.9638
10757SOL    HW134278   1.663   6.186   6.510 -0.3099 -1.8134  0.9939
10757SOL    HW234279   1.570   6.103   6.424 -0.8891 -1.0722  0.8934
10758SOL     OW34280   1.369   6.135   5.567 -0.6303  0.8411 -0.0933
10758SOL    HW134281   1.275   6.119   5.556 -0.6996  0.8559  0.4675
10758SOL    HW234282   1.410   6.073   5.508 -0.9496 -0.2540  0.8113
10759SOL     OW34283   4.139   5.293   6.169  0.5802  0.2207  0.0755
10759SOL    HW134284   4.176   5.366   6.219 -0.5353  0.7361  0.1694
10759SOL    HW234285   4.103   5.234   6.235  0.9317 -0.1272 -0.0337
10760SOL     OW34286   2.932   4.265   4.893  0.6397  0.2454 -0.2575
10760SOL    HW134287   3.009   4.321   4.894  0.1943  0.8991 -1.1527
10760SOL    HW234288   2.869   4.312   4.838  0.7297 -1.7505 -2.1836
10761SOL     OW34289   9.884   8.010   7.642  0.2517  0.5745  0.0268
10761SOL    HW134290   9.887   8.081   7.577  2.3539 -1.1072 -1.8920
10761SOL    HW234291   9.791   7.992   7.654 -0.2531  2.2213 -1.0550
10762SOL     OW34292   1.615   2.244   0.012 -0.2179 -0.4075  0.4303
10762SOL    HW134293   1.525   2.216  -0.007 -0.1571 -0.7480  0.6332
10762SOL    HW234294   1.660   2.238  -0.073 -1.1715  2.9113 -0.4255
10763SOL     OW34295   4.348   8.587   4.885  0.4635  0.1510 -0.0973
10763SOL    HW134296   4.273   8.640   4.913  0.3359  0.0293 -0.2120
10763SOL    HW234297   4.323   8.497   4.905  0.0535 -0.0231 -1.3003
10764SOL     OW34298   3.708   0.306   0.522 -0.4737 -0.2891 -0.1576
10764SOL    HW134299   3.648   0.361   0.472  0.9501  1.1018 -0.4278
10764SOL    HW234300   3.656   0.274   0.595 -1.3761  1.4424  0.0157
10765SOL     OW34301   5.043   5.679   3.490 -0.3568  0.0467  0.0809
10765SOL    HW134302   5.119   5.622   3.503  0.3361  0.7379 -0.8360
10765SOL    HW234303   4.974   5.620   3.460  0.4983 -0.2683 -1.3566
10766SOL     OW34304   5.356   9.671   3.048  0.4548 -0.0851  0.2789
10766SOL    HW134305   5.340   9.684   3.141 -3.3011 -2.0681  0.0863
10766SOL    HW234306   5.428   9.731   3.027  0.6733  1.2547  4.1532
10767SOL     OW34307  10.305   5.604   8.147 -0.2560  0.2271 -0.1020
10767SOL    HW134308  10.284   5.648   8.230 -0.1522 -0.9987  0.5978
10767SOL    HW234309  10.361   5.530   8.173 -0.0939 -0.0835 -1.2888
10768SOL     OW34310   2.992   2.275   5.733  0.4361 -0.2765 -0.6166
10768SOL    HW134311   2.902   2.241   5.730 -0.0774  0.5674  2.1194
10768SOL    HW234312   3.047   2.197   5.722 -0.6440 -1.0494 -0.7335
10769SOL     OW34313   9.724  10.193   7.841  0.3659  0.2489  0.0831
10769SOL    HW134314   9.754  10.190   7.932  0.4653 -3.4706  0.0594
10769SOL    HW234315   9.798  10.158   7.790 -0.4026  0.4050 -1.1841
10770SOL     OW34316   7.721   9.464   7.617 -0.6222  0.3253 -0.0346
10770SOL    HW134317   7.744   9.549   7.654  0.2478  1.0096 -2.0239
10770SOL    HW234318   7.803   9.414   7.619 -0.7316  0.1297 -0.3908
10771SOL     OW34319   8.299   0.501   2.391 -0.3778  0.5643 -0.3004
10771SOL    HW134320   8.340   0.416   2.406 -0.3689  0.5215 -0.5757
10771SOL    HW234321   8.364   0.565   2.419  0.0991  0.5132 -1.2900
10772SOL     OW34322   4.580   3.545   7.118  0.0273  0.2465  0.1732
10772SOL    HW134323   4.571   3.636   7.091 -1.8198  0.1212  0.2404
10772SOL    HW234324   4.495   3.505   7.096  0.8140 -1.4672  0.0973
10773SOL     OW34325   3.899   9.533  10.243 -0.1502 -0.2313 -0.4146
10773SOL    HW134326   3.842   9.458  10.259  0.1864 -0.5271 -0.5612
10773SOL    HW234327   3.971   9.522  10.305  0.6340 -0.8209 -1.4027
10774SOL     OW34328   6.526   1.949   3.099 -0.4352 -0.4560 -0.0912
10774SOL    HW134329   6.478   1.867   3.110  1.2953 -1.3123  1.5626
10774SOL    HW234330   6.605   1.938   3.151  0.4865  1.7773 -0.9034
10775SOL     OW34331   3.512   8.576   0.329  0.3071  0.1397 -0.5474
10775SOL    HW134332   3.544   8.506   0.385  1.4297  0.9660 -0.1345
10775SOL    HW234333   3.546   8.555   0.242 -1.5483 -1.2185 -1.0127
10776SOL     OW34334   6.943   3.415   8.614  0.5526  0.0451  0.4307
10776SOL    HW134335   6.882   3.343   8.597  0.0259 -0.0484  2.4261
10776SOL    HW234336   7.028   3.381   8.586  0.3686 -1.5185  1.6343
10777SOL     OW34337   8.615   0.929   7.641 -0.0859 -0.1786  0.3627
10777SOL    HW134338   8.522   0.933   7.664  0.1944 -0.7662  1.6938
10777SOL    HW234339   8.638   0.836   7.644  0.4134 -0.1023 -0.5746
10778SOL     OW34340   1.471   3.807   2.188  0.1105  0.1333  0.1126
10778SOL    HW134341   1.431   3.720   2.189 -0.4176  0.3080  3.0566
10778SOL    HW234342   1.407   3.864   2.231  1.0635  1.6966 -0.4391
10779SOL     OW34343   0.380   5.013   9.153 -0.3387 -0.0927 -0.1126
10779SOL    HW134344   0.329   5.042   9.077 -1.4690  2.3746  1.4631
10779SOL    HW234345   0.394   4.920   9.137 -0.9575  0.1985 -3.0757
10780SOL     OW34346   7.385   7.211  10.310 -0.1082 -0.3477 -1.0283
10780SOL    HW134347   7.297   7.232  10.341  0.2493  1.6861 -1.2677
10780SOL    HW234348   7.438   7.288  10.333  1.2233 -0.8134 -2.3860
10781SOL     OW34349   5.046   5.872  11.064 -0.0519 -0.2816 -0.6539
10781SOL    HW134350   5.014   5.838  10.981 -0.2185  1.3437 -1.2856
10781SOL    HW234351   5.099   5.948  11.040  0.1158  0.0630  0.7160
10782SOL     OW34352   7.718   2.721   5.447 -0.3916 -0.3169  0.0971
10782SOL    HW134353   7.695   2.718   5.354  1.7588 -0.8906 -0.4793
10782SOL    HW234354   7.679   2.642   5.483 -2.5611  0.6814  0.0686
10783SOL     OW34355   6.503  10.250   9.339  0.0909  0.0834  0.2231
10783SOL    HW134356   6.512  10.209   9.425 -0.1308 -0.7721 -0.1473
10783SOL    HW234357   6.409  10.269   9.332  0.1254  0.2497  0.2117
10784SOL     OW34358   4.499   2.599   7.237  0.3904 -0.0335 -0.3438
10784SOL    HW134359   4.434   2.593   7.167  0.3564  0.3760 -0.3466
10784SOL    HW234360   4.449   2.624   7.314  0.2581 -1.5047  0.0794
10785SOL     OW34361   1.868   1.699  10.645  0.1019  0.0767 -0.0244
10785SOL    HW134362   1.836   1.788  10.630 -0.6437 -0.0718  0.6503
10785SOL    HW234363   1.856   1.654  10.561 -0.2853  0.3814 -0.1327
10786SOL     OW34364   8.482   9.030   5.555 -0.5488  0.4251 -0.1148
10786SOL    HW134365   8.396   9.046   5.515 -0.5640  0.0569 -0.2348
10786SOL    HW234366   8.525   9.116   5.554 -0.6863  0.4943 -0.5954
10787SOL     OW34367   9.118   4.346   7.968  0.8683  0.1809 -0.1532
10787SOL    HW134368   9.192   4.335   7.909  0.7986 -2.0362  0.0757
10787SOL    HW234369   9.056   4.277   7.943 -1.5437  2.4492 -0.8640
10788SOL     OW34370   3.957   3.324   5.074 -0.7229 -0.2879  0.4576
10788SOL    HW134371   4.041   3.289   5.044 -1.0986  0.4688 -1.6406
10788SOL    HW234372   3.898   3.249   5.074 -0.4341 -0.5166  0.3739
10789SOL     OW34373   0.659   2.595   7.369  0.1580  0.0548  0.3542
10789SOL    HW134374   0.694   2.641   7.445 -0.7755  1.1360  0.1446
10789SOL    HW234375   0.564   2.589   7.386 -0.0185  0.0580 -0.6000
10790SOL     OW34376   1.111   4.447   4.224  0.4751  0.2105  0.2306
10790SOL    HW134377   1.102   4.516   4.158  0.8629  2.9197  2.8222
10790SOL    HW234378   1.206   4.435   4.232  0.4984  1.0794  1.3986
10791SOL     OW34379   2.454   1.143  10.915 -0.0092  0.3571 -0.0098
10791SOL    HW134380   2.404   1.199  10.856  2.5812  1.3358 -1.4358
10791SOL    HW234381   2.526   1.197  10.945  0.8376 -1.2975  1.1062
10792SOL     OW34382   1.185   1.128   4.779  0.0238 -0.0573  0.5481
10792SOL    HW134383   1.224   1.190   4.716 -1.0086 -0.7517 -0.8385
10792SOL    HW234384   1.128   1.073   4.725 -2.2823  0.4270  2.3361
10793SOL     OW34385   5.175   4.860  10.651  0.2960  0.5595  0.7026
10793SOL    HW134386   5.214   4.798  10.713  0.0214  0.6131  0.9314
10793SOL    HW234387   5.163   4.809  10.571 -1.3194 -0.1271  1.3368
10794SOL     OW34388   0.551   2.653   0.176  0.0401 -0.5430 -0.2119
10794SOL    HW134389   0.520   2.726   0.121  0.6021 -0.8597 -0.9689
10794SOL    HW234390   0.486   2.647   0.246  0.0620  0.7880 -0.0408
10795SOL     OW34391   3.305   7.751   7.306 -0.1468  0.0010  0.9733
10795SOL    HW134392   3.252   7.672   7.314  3.1098 -2.3192  1.3456
10795SOL    HW234393   3.392   7.726   7.338  1.7742  2.9576 -1.3347
10796SOL     OW34394   6.014   2.406   7.786  0.6737 -0.2157 -0.8620
10796SOL    HW134395   6.016   2.501   7.775 -0.3909 -0.1979 -0.9485
10796SOL    HW234396   6.036   2.371   7.699  1.6123 -0.0656 -0.7013
10797SOL     OW34397   2.647   5.122   5.240 -0.0889  0.0267 -0.2864
10797SOL    HW134398   2.679   5.147   5.153  0.1414 -0.3857 -0.3245
10797SOL    HW234399   2.652   5.026   5.241 -0.4269  0.0106  0.0538
10798SOL     OW34400  10.968   2.245   2.877  0.2370  0.5430 -0.2515
10798SOL    HW134401  11.059   2.273   2.888  0.1913  0.2762  0.9422
10798SOL    HW234402  10.925   2.271   2.959 -0.0506 -2.0523  0.4845
10799SOL     OW34403   3.816   0.759   5.477  0.2799  0.2935 -0.8056
10799SOL    HW134404   3.881   0.688   5.486  1.0979  1.0851 -0.3105
10799SOL    HW234405   3.853   0.831   5.528 -0.4791  1.1281 -1.4241
10800SOL     OW34406   3.601   7.697   5.595  0.4533 -0.4119 -0.3905
10800SOL    HW134407   3.576   7.762   5.530 -0.2242  1.2790  1.4579
10800SOL    HW234408   3.674   7.737   5.642 -1.4161  0.1480  2.2719
10801SOL     OW34409   0.961   0.787   0.480 -0.5247 -0.1192  0.4511
10801SOL    HW134410   0.927   0.698   0.473  2.6811 -1.4763  0.3957
10801SOL    HW234411   0.996   0.793   0.568 -0.7014  1.1265  0.4624
10802SOL     OW34412   1.536   7.839   6.879 -0.5325  0.3448  0.1056
10802SOL    HW134413   1.517   7.884   6.797 -1.3262 -0.6076 -0.2437
10802SOL    HW234414   1.482   7.885   6.944 -1.8935 -0.5002 -0.3738
10803SOL     OW34415  10.241   0.330   9.060  0.2313  0.1084  0.5119
10803SOL    HW134416  10.265   0.260   9.000  1.3870  1.3486 -0.5525
10803SOL    HW234417  10.284   0.307   9.142  1.3003 -0.0339 -0.0648
10804SOL     OW34418   1.175   0.442   2.484  0.4952  0.2846 -0.3166
10804SOL    HW134419   1.136   0.513   2.536 -0.1092  0.2722 -0.7548
10804SOL    HW234420   1.137   0.452   2.397 -0.7552 -1.4704 -0.0252
10805SOL     OW34421   7.863   5.436   8.837  0.0139 -0.3283 -0.6674
10805SOL    HW134422   7.878   5.493   8.912  1.5512 -0.4962 -0.8033
10805SOL    HW234423   7.935   5.457   8.777 -1.2496 -0.0872 -2.1689
10806SOL     OW34424   2.123   5.031  10.647  0.2571  0.4720 -0.0093
10806SOL    HW134425   2.094   5.085  10.722  0.0172  1.4433 -0.7769
10806SOL    HW234426   2.050   5.035  10.586  1.5061  1.9772 -1.4786
10807SOL     OW34427   9.218   2.038   3.205  0.1281  0.2085  0.0463
10807SOL    HW134428   9.160   1.964   3.222  0.3428  0.2134  0.8028
10807SOL    HW234429   9.250   2.023   3.116  1.3537 -1.4374  0.7130
10808SOL     OW34430   2.152   2.881   6.576  0.5788  0.0979 -0.1466
10808SOL    HW134431   2.168   2.847   6.488  3.3558  3.3980 -1.1326
10808SOL    HW234432   2.223   2.943   6.591 -0.2208  0.2660  4.1857
10809SOL     OW34433   5.988   6.724   9.884 -0.1385 -0.2744  0.0666
10809SOL    HW134434   6.049   6.795   9.863 -0.5600 -0.4284 -1.9558
10809SOL    HW234435   5.913   6.740   9.826 -0.3265 -2.2552 -0.2940
10810SOL     OW34436   2.218   8.190   9.639  0.2811  0.1507  0.7790
10810SOL    HW134437   2.165   8.184   9.718 -0.9847 -0.5200 -0.0760
10810SOL    HW234438   2.307   8.207   9.670 -0.4895  1.8191  2.2490
10811SOL     OW34439   3.105   5.735   0.625 -0.4124 -0.0066  0.0951
10811SOL    HW134440   3.027   5.776   0.588 -0.2714 -0.3232 -0.5657
10811SOL    HW234441   3.177   5.764   0.569 -0.2665 -0.8932 -0.1934
10812SOL     OW34442   9.408   5.370   7.029  0.1453  0.0128  0.6907
10812SOL    HW134443   9.474   5.316   7.073  1.2638  0.9708  0.2061
10812SOL    HW234444   9.385   5.320   6.951  2.0854  0.7420 -0.4165
10813SOL     OW34445   4.177   9.596   4.042  0.0203  0.0271  0.7631
10813SOL    HW134446   4.205   9.635   4.125  1.9402 -1.0391  0.6996
10813SOL    HW234447   4.115   9.528   4.067  1.3760 -1.0043  1.5008
10814SOL     OW34448   3.416  10.496   6.118  0.7273  0.5846 -0.3173
10814SOL    HW134449   3.399  10.539   6.202 -1.5762  0.5601 -0.6945
10814SOL    HW234450   3.423  10.568   6.055  0.9160  0.5513 -0.3339
10815SOL     OW34451   0.279   4.588  11.040  0.3982  0.0097 -0.0856
10815SOL    HW134452   0.358   4.547  11.005  1.1312  1.9764 -0.8847
10815SOL    HW234453   0.212   4.573  10.974  0.1108 -1.5175  0.5175
10816SOL     OW34454   9.263   6.426   8.798 -0.3441  0.2224 -0.8476
10816SOL    HW134455   9.297   6.364   8.734 -1.1464 -0.9424 -0.1756
10816SOL    HW234456   9.226   6.372   8.867  0.3614  1.4543  0.5411
10817SOL     OW34457   3.061   7.250   3.321 -0.4854  0.7319  0.6196
10817SOL    HW134458   2.987   7.189   3.324 -0.1998  0.3879  0.7297
10817SOL    HW234459   3.094   7.252   3.411  0.2359  0.1365  0.3810
10818SOL     OW34460   4.953   6.097   7.455 -0.2390  0.4818  0.0426
10818SOL    HW134461   5.002   6.163   7.405 -0.4537  1.4382  1.0542
10818SOL    HW234462   4.862   6.109   7.428 -0.1367 -0.2259 -0.6567
10819SOL     OW34463   1.629   1.270   6.073  0.0100 -0.1050  0.2532
10819SOL    HW134464   1.550   1.305   6.115 -0.7402 -0.0476 -1.1270
10819SOL    HW234465   1.701   1.313   6.118 -0.7875  0.7052  0.8083
10820SOL     OW34466   8.310   7.272   7.753  0.1947  0.0463 -0.2634
10820SOL    HW134467   8.326   7.353   7.801  2.8262  0.8981 -2.3260
10820SOL    HW234468   8.329   7.203   7.816 -1.2909  0.9776  1.2978
10821SOL     OW34469   1.998   2.935   5.108  0.2796 -0.4968  0.0854
10821SOL    HW134470   1.930   2.926   5.042  0.6210  1.3876 -0.5932
10821SOL    HW234471   1.970   2.878   5.179 -2.5923  0.9874  0.2839
10822SOL     OW34472   0.235   6.758   0.218 -0.0679  0.2336  0.4878
10822SOL    HW134473   0.153   6.754   0.170  0.4682 -0.8377 -0.3890
10822SOL    HW234474   0.226   6.834   0.276 -2.3834 -0.9194  1.7524
10823SOL     OW34475   1.347   3.242   2.612  0.4183  0.3635 -0.5926
10823SOL    HW134476   1.264   3.237   2.564  0.7076 -0.9869 -1.0180
10823SOL    HW234477   1.396   3.165   2.582  1.5774  0.7993  0.1127
10824SOL     OW34478   5.148   4.678   8.916  0.3517 -0.1229  0.2807
10824SOL    HW134479   5.180   4.768   8.925 -0.8203  0.3022  0.3825
10824SOL    HW234480   5.068   4.676   8.969  0.4567 -1.2668  0.3987
10825SOL     OW34481   1.021   5.857  10.239 -0.3284  0.3915  0.0134
10825SOL    HW134482   1.080   5.932  10.252 -0.6250  1.0974 -2.2846
10825SOL    HW234483   0.944   5.878  10.292 -0.1348  1.4038 -0.0883
10826SOL     OW34484   1.997   7.643   9.554  0.3134 -0.1965 -0.2724
10826SOL    HW134485   1.926   7.706   9.563  2.2400  2.0607 -0.0954
10826SOL    HW234486   2.021   7.620   9.644  0.5865 -0.0209 -0.2993
10827SOL     OW34487   3.288   5.830   6.316  0.2128  0.2307 -0.4934
10827SOL    HW134488   3.354   5.869   6.373 -1.0111 -0.0304  1.1621
10827SOL    HW234489   3.294   5.736   6.333  0.8861 -0.0352 -2.0058
10828SOL     OW34490   5.288   8.829   7.554  0.3381 -0.2681 -0.4941
10828SOL    HW134491   5.200   8.830   7.593  0.0615 -1.8624 -0.9846
10828SOL    HW234492   5.273   8.810   7.462  1.1868 -0.5336 -0.5875
10829SOL     OW34493   2.731   7.747   7.954  0.4964 -0.4399 -0.7088
10829SOL    HW134494   2.781   7.773   8.031 -2.3514 -0.9557  1.5115
10829SOL    HW234495   2.771   7.664   7.926  0.8224 -0.9259  1.0741
10830SOL     OW34496   4.727   2.693  10.967 -0.4061  0.4572  0.1061
10830SOL    HW134497   4.802   2.634  10.982  0.3062  1.4299  0.4521
10830SOL    HW234498   4.756   2.752  10.898 -1.7515 -0.6438 -1.4795
10831SOL     OW34499   2.600   5.359   8.194 -0.1475  0.0958  0.1712
10831SOL    HW134500   2.568   5.371   8.105  0.7963 -0.0427 -0.1973
10831SOL    HW234501   2.522   5.369   8.249 -0.2785  3.3410 -0.3958
10832SOL     OW34502   1.709   5.012   8.159  0.0546  0.5646 -0.0230
10832SOL    HW134503   1.794   4.968   8.155  0.0160  0.5824 -2.0650
10832SOL    HW234504   1.725   5.089   8.213  1.1672  0.2200  0.1802
10833SOL     OW34505   7.710   2.672   5.916 -0.4643  0.4363  0.9880
10833SOL    HW134506   7.719   2.619   5.996 -1.1143 -0.1436  0.6853
10833SOL    HW234507   7.796   2.713   5.906  0.7369 -2.0495  0.2081
10834SOL     OW34508   4.851   1.513   1.560 -0.2999 -0.2256 -0.7675
10834SOL    HW134509   4.797   1.525   1.639 -0.0578  0.3656 -0.6845
10834SOL    HW234510   4.821   1.431   1.522  0.9544 -1.6235  1.0522
10835SOL     OW34511   0.443   6.609   5.235 -0.1030  0.1689 -0.9652
10835SOL    HW134512   0.423   6.516   5.244 -1.1120  0.4032 -0.7238
10835SOL    HW234513   0.471   6.636   5.323 -2.5991  0.7192 -0.2498
10836SOL     OW34514   1.513   3.607   0.642 -0.7668  0.2624 -0.0423
10836SOL    HW134515   1.460   3.536   0.678 -0.9401 -0.2369 -1.2233
10836SOL    HW234516   1.463   3.687   0.662 -0.0382  0.2248  2.2713
10837SOL     OW34517   4.053   3.373   8.205  0.0683 -0.0807 -0.7075
10837SOL    HW134518   4.075   3.283   8.231  1.6548  0.7009  0.8633
10837SOL    HW234519   3.961   3.383   8.228 -0.6692 -1.8627 -2.6516
10838SOL     OW34520   2.483   8.887   7.466  0.2360  0.3590  0.2833
10838SOL    HW134521   2.576   8.890   7.486  0.2534  0.5112  0.1837
10838SOL    HW234522   2.440   8.892   7.552  0.3219  0.0734  0.3424
10839SOL     OW34523   7.006   9.020   6.960 -0.6602 -0.1701 -0.4033
10839SOL    HW134524   6.942   8.974   6.906  0.2216 -0.9920 -0.7921
10839SOL    HW234525   7.041   8.951   7.018 -0.3231  0.3213 -0.0148
10840SOL     OW34526   7.072   9.428  10.798  0.3789  0.0532  0.3774
10840SOL    HW134527   7.121   9.467  10.726  0.2698  0.3922  0.4848
10840SOL    HW234528   7.124   9.352  10.824 -0.5500 -1.2341 -1.3390
10841SOL     OW34529   8.566   7.994   4.373  0.5296 -0.4405 -0.0078
10841SOL    HW134530   8.562   7.943   4.292  1.9850  1.4878 -1.4140
10841SOL    HW234531   8.657   7.985   4.402  0.6543  0.8219  0.0324
10842SOL     OW34532   2.631   7.788   4.773  0.0886  0.5621  0.1106
10842SOL    HW134533   2.683   7.720   4.816 -1.2412 -0.5089  0.0943
10842SOL    HW234534   2.615   7.852   4.843 -0.5699 -0.2974  0.7818
10843SOL     OW34535   3.798  10.769   1.957 -0.2998  0.1090  0.4628
10843SOL    HW134536   3.884  10.774   1.915 -1.0326 -0.6457 -1.2135
10843SOL    HW234537   3.738  10.808   1.893 -1.3218 -0.0650  1.2889
10844SOL     OW34538   1.498   1.076   3.336 -0.1721  0.0235 -0.2474
10844SOL    HW134539   1.584   1.032   3.341  0.3799  0.8176 -1.9457
10844SOL    HW234540   1.449   1.025   3.271 -0.3965  0.4865 -0.4486
10845SOL     OW34541   2.928   9.045  10.467 -0.0916  0.2765 -0.7625
10845SOL    HW134542   3.022   9.043  10.453  0.2290 -1.2706  1.2178
10845SOL    HW234543   2.897   8.959  10.439 -0.5547 -0.0602  0.7233
10846SOL     OW34544   0.329   1.116   4.972  0.3119 -0.4690 -0.6226
10846SOL    HW134545   0.410   1.119   5.023  0.9651  2.5355 -1.6138
10846SOL    HW234546   0.319   1.024   4.949  1.8582 -1.3924  1.9248
10847SOL     OW34547   1.443   7.818  10.092  0.4560  0.0005  0.2652
10847SOL    HW134548   1.379   7.829  10.022  0.6450 -0.7733 -0.0387
10847SOL    HW234549   1.413   7.877  10.161 -1.4364 -1.4010  0.7173
10848SOL     OW34550   9.298  10.814   8.820  0.1114  0.2823  0.5860
10848SOL    HW134551   9.294  10.788   8.912  1.0485 -1.5577  0.1522
10848SOL    HW234552   9.357  10.750   8.780 -1.8304 -0.2124 -1.7039
10849SOL     OW34553   3.962   5.288   2.444  0.0275  0.3991  0.2206
10849SOL    HW134554   3.872   5.255   2.441  0.5418 -1.1624  0.9318
10849SOL    HW234555   4.006   5.233   2.509  2.2147 -0.7191 -2.0358
10850SOL     OW34556   3.096   2.376   3.241  0.0794  0.1473  0.1038
10850SOL    HW134557   3.150   2.397   3.165  1.1326 -0.2065  0.7290
10850SOL    HW234558   3.102   2.281   3.250  0.9253  0.2881  1.2994
10851SOL     OW34559   5.346  11.025   0.350 -0.2153 -0.4777  0.1191
10851SOL    HW134560   5.410  10.962   0.317  0.4141  0.7913 -1.1503
10851SOL    HW234561   5.390  11.067   0.424 -0.1925 -0.6800  0.2235
10852SOL     OW34562   4.043   3.648  10.824 -0.6588 -0.1521  0.7105
10852SOL    HW134563   4.100   3.724  10.815  0.5344 -1.0710  0.1266
10852SOL    HW234564   4.000   3.660  10.909 -0.0731  0.8805  0.8800
10853SOL     OW34565   3.665   3.364   5.388 -0.3978  0.1484  0.2826
10853SOL    HW134566   3.616   3.439   5.422 -1.6424  0.0295 -1.1170
10853SOL    HW234567   3.728   3.402   5.327  0.1622  0.1642  0.8538
10854SOL     OW34568   0.444   3.529   7.129 -0.0928  0.2138  0.2916
10854SOL    HW134569   0.451   3.622   7.106 -0.5798  0.1068 -0.3189
10854SOL    HW234570   0.355   3.505   7.101  0.1136 -0.4880  0.2387
10855SOL     OW34571   1.959   5.962   0.189  0.4731  0.4365  0.1643
10855SOL    HW134572   2.010   5.887   0.158 -0.6035 -0.2314 -0.0421
10855SOL    HW234573   1.928   5.935   0.276 -1.5423 -0.1916 -0.6976
10856SOL     OW34574   4.760   4.133   3.321  0.1138 -0.2136 -0.3621
10856SOL    HW134575   4.834   4.125   3.381  0.5896  3.2758 -0.2699
10856SOL    HW234576   4.691   4.078   3.359  0.6746  1.1481  2.9574
10857SOL     OW34577   0.402  10.283   2.598  0.3613 -0.0827  0.4047
10857SOL    HW134578   0.346  10.207   2.615  1.4833 -0.9236  0.4582
10857SOL    HW234579   0.431  10.272   2.507  4.2811 -2.3589  1.6849
10858SOL     OW34580   4.137   9.006  10.412  0.5625  0.3050  0.6059
10858SOL    HW134581   4.202   8.938  10.427 -1.6677 -2.1644 -0.1971
10858SOL    HW234582   4.088   8.976  10.336 -0.4280  2.9441  0.0934
10859SOL     OW34583   0.264   2.516   8.872 -0.1564  0.7583 -0.6059
10859SOL    HW134584   0.179   2.473   8.886  0.5868 -0.9682 -1.1043
10859SOL    HW234585   0.285   2.497   8.780  0.9083  0.9014 -0.4001
10860SOL     OW34586   2.001   1.162   2.986  0.1892 -0.2372  0.2188
10860SOL    HW134587   2.093   1.143   3.009 -0.1167 -0.8377  1.0084
10860SOL    HW234588   1.950   1.106   3.045 -0.7012  0.5416  0.2074
10861SOL     OW34589   7.651   6.966   7.404 -0.0291  0.0993  0.5491
10861SOL    HW134590   7.602   7.013   7.471 -1.4848  0.0607 -0.4471
10861SOL    HW234591   7.598   6.975   7.325  1.4065 -0.2607 -0.4874
10862SOL     OW34592   3.881   8.587   0.000  0.0965 -0.1805  0.2594
10862SOL    HW134593   3.955   8.640   0.029 -0.3412  0.1026  0.8936
10862SOL    HW234594   3.865   8.613  -0.090  0.5372  0.0122  0.2341
10863SOL     OW34595   3.718  10.214   3.858 -0.3055 -0.3575  0.2138
10863SOL    HW134596   3.804  10.179   3.882  1.0343 -0.3925 -3.8228
10863SOL    HW234597   3.657  10.145   3.884  1.5650 -2.8758 -1.4619
10864SOL     OW34598   0.483   9.659   8.508  0.6333 -0.4425  0.5258
10864SOL    HW134599   0.507   9.633   8.597 -0.0717 -0.7526  0.6369
10864SOL    HW234600   0.515   9.588   8.453 -0.4506 -1.1219  0.7290
10865SOL     OW34601   2.789   7.193   6.694  0.1808  0.0705  0.1888
10865SOL    HW134602   2.810   7.271   6.746 -0.0096  1.0507 -1.1375
10865SOL    HW234603   2.866   7.180   6.639  0.0139 -0.3912  0.0635
10866SOL     OW34604   9.379   3.705   0.556  0.2596  0.8100 -0.0919
10866SOL    HW134605   9.370   3.714   0.650 -0.5743 -0.0186 -0.0816
10866SOL    HW234606   9.352   3.615   0.537 -1.1297  1.4307 -1.2924
10867SOL     OW34607   1.037   1.054  10.837 -0.5194 -0.7003  0.2103
10867SOL    HW134608   0.954   1.092  10.808 -0.4908 -1.1438 -0.4693
10867SOL    HW234609   1.054   0.984  10.774 -0.6447 -1.9290  1.4951
10868SOL     OW34610   9.481   9.968   3.344 -0.7520  0.0668 -0.3873
10868SOL    HW134611   9.394   9.955   3.382 -0.5512 -1.1617 -0.3047
10868SOL    HW234612   9.530  10.013   3.413 -1.2726  0.6351 -0.3776
10869SOL     OW34613   6.177   1.272   4.960 -0.2693  0.9022 -0.2755
10869SOL    HW134614   6.086   1.241   4.960  0.2791 -1.0434 -2.6763
10869SOL    HW234615   6.223   1.209   5.016  0.0527  0.1560 -1.3607
10870SOL     OW34616   9.080   5.385   6.750  0.4422  0.2726 -0.5261
10870SOL    HW134617   9.058   5.399   6.658  2.0783  1.0238 -0.8532
10870SOL    HW234618   9.144   5.454   6.770  0.1118  0.1308  1.1825
10871SOL     OW34619   0.834   9.359  10.405  0.3665 -0.4295 -0.7566
10871SOL    HW134620   0.822   9.329  10.496 -2.3270 -2.3664 -1.6058
10871SOL    HW234621   0.893   9.295  10.366 -2.0221 -2.3796 -1.4367
10872SOL     OW34622   6.149   8.610   6.320  0.1002  0.1965  0.1346
10872SOL    HW134623   6.229   8.557   6.320 -1.1234 -1.7946  0.9329
10872SOL    HW234624   6.132   8.628   6.228  1.2542  0.3146 -0.0708
10873SOL     OW34625   7.684   4.405   9.821 -0.1183 -0.2332  0.0947
10873SOL    HW134626   7.772   4.367   9.831  0.7709  1.7047  0.0816
10873SOL    HW234627   7.634   4.368   9.894  0.6720 -1.4345  0.0599
10874SOL     OW34628   6.139   4.903  10.523  0.1177  0.3393  0.2318
10874SOL    HW134629   6.220   4.865  10.557 -1.0442 -0.5819  2.1208
10874SOL    HW234630   6.169   4.974  10.466  2.2571 -0.3536  0.3895
10875SOL     OW34631  10.267  10.552   1.849  0.0111  0.2502 -0.3821
10875SOL    HW134632  10.197  10.544   1.784 -0.4012 -0.8171  0.1586
10875SOL    HW234633  10.230  10.515   1.929  0.9696  0.2914  0.1025
10876SOL     OW34634   9.354  10.917   7.410 -0.3413  0.0714 -0.1384
10876SOL    HW134635   9.295  10.972   7.462 -1.4693  0.7907 -2.0555
10876SOL    HW234636   9.296  10.869   7.351  0.9507  0.9488 -2.2338
10877SOL     OW34637   5.118   5.893   2.398  0.0283 -0.1141 -0.2173
10877SOL    HW134638   5.192   5.919   2.343 -0.4507  0.5733 -0.5500
10877SOL    HW234639   5.129   5.799   2.411 -0.1493 -0.4037 -1.9609
10878SOL     OW34640   2.892   6.273  10.607 -0.6170 -0.1922  0.2780
10878SOL    HW134641   2.823   6.294  10.670  0.0978  1.0566  0.6645
10878SOL    HW234642   2.892   6.347  10.546  2.0444  1.1679  1.7445
10879SOL     OW34643   4.714   3.517   7.815  0.3674  0.2302  0.6437
10879SOL    HW134644   4.772   3.591   7.829 -0.4158  0.7238  1.3652
10879SOL    HW234645   4.725   3.462   7.892  0.8019 -0.3078  0.2006
10880SOL     OW34646   9.896   7.500   8.111 -0.3441 -0.7237  0.2680
10880SOL    HW134647   9.801   7.509   8.101 -0.4722 -1.9982  0.1971
10880SOL    HW234648   9.926   7.463   8.029  0.5417  1.5078 -0.5115
10881SOL     OW34649   6.067   8.825   0.662  0.4637  0.1209 -0.8499
10881SOL    HW134650   6.031   8.759   0.720  2.5781 -0.6535 -0.3184
10881SOL    HW234651   6.045   8.795   0.574 -0.1585 -0.3059 -0.5505
10882SOL     OW34652   9.043   3.134   3.490 -0.1291 -0.4622 -0.1659
10882SOL    HW134653   9.055   3.226   3.512 -3.0094  0.1474 -0.7474
10882SOL    HW234654   8.981   3.102   3.556 -0.3458 -1.5546 -0.8755
10883SOL     OW34655   7.447   3.883   8.762  0.2851 -0.4467  0.2997
10883SOL    HW134656   7.357   3.916   8.761  0.4669  0.1591  1.5777
10883SOL    HW234657   7.492   3.933   8.695  0.3439  1.3272  1.6078
10884SOL     OW34658   4.156   3.332  10.878  0.5262 -0.2501  0.1371
10884SOL    HW134659   4.077   3.339  10.931 -0.1814 -1.8213 -0.6572
10884SOL    HW234660   4.199   3.417  10.889 -0.0993 -0.1482  2.3702
10885SOL     OW34661  10.666   5.368   2.635  0.1909  0.1735 -0.4589
10885SOL    HW134662  10.644   5.408   2.550  0.1629  1.1803  0.0071
10885SOL    HW234663  10.597   5.399   2.694  0.3390 -0.3332 -0.0189
10886SOL     OW34664   4.145   2.489   9.682 -0.1464  0.8567  0.4737
10886SOL    HW134665   4.054   2.462   9.685  0.4137 -1.3343  3.8415
10886SOL    HW234666   4.147   2.563   9.621 -3.2977 -1.6722 -3.2012
10887SOL     OW34667   6.747   3.379   9.994 -0.2536  0.4176 -0.2742
10887SOL    HW134668   6.702   3.390  10.079 -1.7311  1.7798 -1.1736
10887SOL    HW234669   6.676   3.379   9.930  0.9404  0.7954 -1.6344
10888SOL     OW34670   0.576   3.128   7.315 -0.0417  1.1635  0.0765
10888SOL    HW134671   0.613   3.108   7.229  1.7848  0.5476  0.9520
10888SOL    HW234672   0.487   3.092   7.312  0.5211 -0.2101 -1.0392
10889SOL     OW34673   9.965   4.982   6.184  0.5324 -0.7670 -0.2559
10889SOL    HW134674  10.016   5.063   6.193  0.1600 -0.6693  1.0995
10889SOL    HW234675   9.912   4.997   6.105  0.3888  0.3666  0.0303
10890SOL     OW34676   0.599   8.729  10.128  0.0143 -0.3283  0.2230
10890SOL    HW134677   0.589   8.746  10.222 -0.2260  1.1189 -0.0365
10890SOL    HW234678   0.511   8.706  10.098 -1.0708  3.7877 -0.4370
10891SOL     OW34679   3.096   4.413   0.433  0.3064  0.1728 -0.3709
10891SOL    HW134680   3.154   4.486   0.455  0.3058 -0.5160  2.3382
10891SOL    HW234681   3.155   4.340   0.415  0.3116  0.7926 -3.2656
10892SOL     OW34682   0.341   2.517   2.381 -0.0500  0.2460  0.8212
10892SOL    HW134683   0.334   2.586   2.315  0.0815 -0.4183  0.1078
10892SOL    HW234684   0.393   2.557   2.451  0.6361  0.6384  0.1017
10893SOL     OW34685  10.358   6.227  11.020  0.6585  0.2467  0.5330
10893SOL    HW134686  10.276   6.275  11.030 -0.7245 -1.4942 -1.3496
10893SOL    HW234687  10.426   6.288  11.046 -1.1537  2.2440  0.8187
10894SOL     OW34688   9.375   5.103   2.271 -0.7594 -0.2026 -0.0931
10894SOL    HW134689   9.320   5.116   2.193  0.1561  1.4896 -0.5211
10894SOL    HW234690   9.452   5.057   2.239 -0.8757 -0.4838  0.0321
10895SOL     OW34691   1.582   9.439   5.450  0.3645  0.2019  0.5085
10895SOL    HW134692   1.633   9.427   5.530  1.3513  0.8245 -0.0043
10895SOL    HW234693   1.564   9.533   5.447  1.1852  0.3396 -0.4918
10896SOL     OW34694   5.347   8.677   6.191 -0.1112 -0.1856 -0.1519
10896SOL    HW134695   5.372   8.760   6.150  1.9240 -1.7671 -2.3627
10896SOL    HW234696   5.397   8.675   6.273  1.2178  0.0120 -0.9365
10897SOL     OW34697   1.370   8.929   6.787  0.2077  0.1008 -0.5829
10897SOL    HW134698   1.458   8.893   6.783  0.2846  0.3701 -1.4608
10897SOL    HW234699   1.369   9.000   6.724 -0.5561  0.2917 -0.3756
10898SOL     OW34700   1.462  10.259  10.681 -0.5744 -0.4247 -0.6553
10898SOL    HW134701   1.431  10.227  10.596 -1.6886 -1.2388  0.0455
10898SOL    HW234702   1.383  10.272  10.733  0.0452  0.7222  0.0562
10899SOL     OW34703   8.404   4.514   7.291 -0.2185  0.3982  0.0702
10899SOL    HW134704   8.347   4.438   7.278 -0.1769  0.4690 -0.5778
10899SOL    HW234705   8.362   4.564   7.360  0.6626 -1.0902  1.7793
10900SOL     OW34706   0.000  10.056   2.909  0.8049 -0.1209 -0.4177
10900SOL    HW134707  -0.050   9.977   2.929  1.2011 -0.8007 -1.9327
10900SOL    HW234708  -0.033  10.122   2.969  0.9750 -1.6224  1.4109
10901SOL     OW34709   6.394   6.520   7.053  0.4809 -0.4061  0.0907
10901SOL    HW134710   6.324   6.550   6.994  1.3600  0.2923 -0.6170
10901SOL    HW234711   6.362   6.541   7.141  0.3147  1.0402 -0.2905
10902SOL     OW34712  10.386   7.023   8.205  0.1758  0.1397 -0.9958
10902SOL    HW134713  10.387   7.024   8.301  0.3454  1.4091 -0.9961
10902SOL    HW234714  10.356   6.935   8.182 -0.7395  0.1068  0.2324
10903SOL     OW34715   1.343   4.546   6.959 -0.3418  0.2405 -0.0961
10903SOL    HW134716   1.437   4.540   6.977 -0.3017 -0.9431 -0.5788
10903SOL    HW234717   1.339   4.570   6.866 -0.5210  0.4234 -0.0410
10904SOL     OW34718   4.668   5.060   0.974  0.0973  0.1970 -0.1695
10904SOL    HW134719   4.596   5.048   0.912  1.1531  0.1158 -1.4261
10904SOL    HW234720   4.721   5.129   0.935  2.0601 -1.4572 -0.6105
10905SOL     OW34721   2.750   4.858   7.474  0.3605 -0.2464 -0.0501
10905SOL    HW134722   2.808   4.872   7.400 -2.0994  1.7075 -1.7746
10905SOL    HW234723   2.753   4.941   7.523 -1.5825  0.2890 -0.7306
10906SOL     OW34724   0.252   3.224  10.005  0.1016  0.2119  0.3649
10906SOL    HW134725   0.299   3.141   9.990 -0.1500  0.1612 -0.1364
10906SOL    HW234726   0.305   3.269  10.071  0.8712  0.1605 -0.1995
10907SOL     OW34727   4.427   1.073  10.084  0.5341 -0.5827 -0.6417
10907SOL    HW134728   4.456   1.121  10.007  1.7710 -0.4428 -0.1175
10907SOL    HW234729   4.431   1.137  10.155 -3.9555  0.3694 -0.9242
10908SOL     OW34730  10.501   8.073   7.501  0.5054 -0.0959  0.0494
10908SOL    HW134731  10.592   8.042   7.493  0.2824 -0.9975  0.7810
10908SOL    HW234732  10.467   8.026   7.577 -0.0739  1.5043  0.8153
10909SOL     OW34733   2.167   4.075   1.078  0.1953 -0.7129 -0.3592
10909SOL    HW134734   2.135   3.986   1.061  1.7450 -1.3941  0.1432
10909SOL    HW234735   2.168   4.116   0.991 -1.0914 -0.9599 -0.5189
10910SOL     OW34736   6.206   2.183   6.842  0.1715 -0.4918 -0.4627
10910SOL    HW134737   6.246   2.105   6.882 -0.0627 -1.8149 -2.6448
10910SOL    HW234738   6.141   2.212   6.906  2.6108  0.0728  1.9672
10911SOL     OW34739   3.656   9.873   6.839 -0.4313 -0.2114 -0.2230
10911SOL    HW134740   3.628   9.799   6.892  0.8458 -0.3985  0.2317
10911SOL    HW234741   3.704   9.929   6.900 -0.8118  0.6554 -0.7085
10912SOL     OW34742   7.752  10.399   2.685  0.3452  0.0563 -0.4398
10912SOL    HW134743   7.820  10.355   2.736 -1.1492 -0.0564  1.6021
10912SOL    HW234744   7.729  10.336   2.616  1.8337 -0.1515 -0.7735
10913SOL     OW34745   3.588   6.247  10.776 -0.3180  0.3053  0.1724
10913SOL    HW134746   3.587   6.280  10.866  0.9384 -0.1864  0.4030
10913SOL    HW234747   3.643   6.309  10.728 -2.0694  1.3268 -0.6160
10914SOL     OW34748   1.912   5.231   7.493 -0.0615 -0.8273 -0.2918
10914SOL    HW134749   1.888   5.254   7.404 -0.1640  0.5130  0.0549
10914SOL    HW234750   1.873   5.145   7.508  0.7900 -1.5172 -1.8422
10915SOL     OW34751   3.504   4.932   5.755  0.1343  0.2874  0.1202
10915SOL    HW134752   3.540   5.021   5.750 -1.6869  1.0494 -0.2495
10915SOL    HW234753   3.562   4.879   5.699  2.9377  0.5647  2.5104
10916SOL     OW34754   4.283   3.231   6.846  0.2861 -0.3785 -0.3253
10916SOL    HW134755   4.302   3.323   6.826 -1.5249 -0.0451 -0.7482
10916SOL    HW234756   4.366   3.186   6.832  0.7012  0.8499 -2.3944
10917SOL     OW34757  10.595   2.864   5.863  0.0090 -0.2354  0.5782
10917SOL    HW134758  10.549   2.832   5.785 -1.6290  0.0668  1.3828
10917SOL    HW234759  10.559   2.813   5.935  0.2755  0.6652  1.3645
10918SOL     OW34760   1.609   2.697   0.866 -0.8481 -0.6011  0.6880
10918SOL    HW134761   1.646   2.675   0.951 -2.5728 -1.3010  1.3081
10918SOL    HW234762   1.637   2.788   0.851 -0.0460 -0.6553  1.7284
10919SOL     OW34763   8.805   4.259   1.342 -0.8273 -0.5923 -0.3787
10919SOL    HW134764   8.797   4.333   1.401 -0.7292 -0.3859 -0.6224
10919SOL    HW234765   8.727   4.264   1.286 -0.9794 -0.8545 -0.1918
10920SOL     OW34766   0.630   5.902   4.815  0.2668  0.2762 -0.4336
10920SOL    HW134767   0.593   5.921   4.901  2.0794 -0.7993  0.6459
10920SOL    HW234768   0.706   5.847   4.833  1.7697  1.4907 -2.5874
10921SOL     OW34769   3.013   4.151   2.039 -0.1961 -0.5270  0.7668
10921SOL    HW134770   3.028   4.244   2.053 -2.3014 -0.2890  1.8651
10921SOL    HW234771   3.082   4.124   1.979  0.2437  1.8145  0.1288
10922SOL     OW34772   4.581   1.535   3.020  0.5802  0.2192 -0.8133
10922SOL    HW134773   4.671   1.557   2.996  0.8209  0.7021  0.4898
10922SOL    HW234774   4.530   1.613   2.997  1.1159  1.4874  1.8914
10923SOL     OW34775   3.034   5.007   2.342  0.0136  0.1082 -0.1298
10923SOL    HW134776   3.060   5.076   2.281 -2.0997  1.2017  0.1180
10923SOL    HW234777   2.939   5.008   2.340 -0.1203 -2.7404  0.0085
10924SOL     OW34778   0.966   9.240   8.350 -0.5049 -0.3161 -0.2744
10924SOL    HW134779   0.931   9.327   8.368 -2.0359 -0.8922 -0.3071
10924SOL    HW234780   0.897   9.180   8.379 -0.3543 -1.4555 -2.1236
10925SOL     OW34781   4.552  10.335   6.598 -0.5648  0.0356 -0.1310
10925SOL    HW134782   4.503  10.417   6.601  0.4239  0.6418 -0.1272
10925SOL    HW234783   4.603  10.335   6.679 -0.8822 -0.8101  0.0879
10926SOL     OW34784  10.090  10.793   7.839  0.3844 -0.5641 -0.6631
10926SOL    HW134785  10.059  10.709   7.874  1.3566 -1.1869 -1.2418
10926SOL    HW234786  10.054  10.797   7.751 -1.6694  0.7832  0.1794
10927SOL     OW34787   0.190   4.509   3.038 -0.2183  0.1372 -0.5276
10927SOL    HW134788   0.168   4.426   3.080  0.3268  0.9100  1.4322
10927SOL    HW234789   0.275   4.534   3.076 -0.7418  1.9594 -0.4277
10928SOL     OW34790   1.655   1.842   7.992 -0.0407  0.1020  0.2536
10928SOL    HW134791   1.610   1.772   8.039  1.2235 -0.9791 -0.0814
10928SOL    HW234792   1.622   1.836   7.902  1.3368 -1.2782 -0.2141
10929SOL     OW34793   5.290   8.829   0.111 -0.2165  0.0676  0.3277
10929SOL    HW134794   5.302   8.870   0.025 -1.7988 -0.7779 -0.3484
10929SOL    HW234795   5.245   8.895   0.163 -0.7011  0.0204 -0.0228
10930SOL     OW34796   0.423   1.934  10.569 -0.5509  0.8000 -0.5630
10930SOL    HW134797   0.513   1.966  10.572  0.5072 -1.9984  1.0347
10930SOL    HW234798   0.376   2.000  10.517  1.4953  4.4619  1.7878
10931SOL     OW34799   2.982   8.723   7.686  0.1336  0.2871  0.1492
10931SOL    HW134800   2.927   8.736   7.763 -0.7724 -0.6819 -0.2994
10931SOL    HW234801   3.025   8.639   7.701  2.5812  1.6340  1.0995
10932SOL     OW34802   1.030   1.343   8.204  0.6118 -0.1019  0.1262
10932SOL    HW134803   1.077   1.422   8.229 -0.8728  0.8972 -0.0964
10932SOL    HW234804   1.017   1.296   8.286 -1.1041  1.4030  0.7910
10933SOL     OW34805   2.259   6.347   6.748 -0.0878 -0.1334 -0.0302
10933SOL    HW134806   2.290   6.432   6.716  1.1087 -0.5562 -0.0204
10933SOL    HW234807   2.335   6.289   6.741 -0.2269 -0.6508  2.0470
10934SOL     OW34808   3.222   5.912   1.860 -0.1028 -0.1087  0.2202
10934SOL    HW134809   3.248   6.000   1.835 -0.4875 -0.1094 -0.2013
10934SOL    HW234810   3.174   5.923   1.942 -0.1433  0.0776  0.1712
10935SOL     OW34811   0.488   7.967   7.386 -0.3122 -0.2297  0.3668
10935SOL    HW134812   0.428   8.030   7.427 -0.7002  0.1219 -0.7129
10935SOL    HW234813   0.545   7.939   7.458 -1.9214 -0.7705  1.4950
10936SOL     OW34814   4.961   4.949  10.334  0.2588  0.5280 -0.3304
10936SOL    HW134815   5.044   4.993  10.312  0.4943  0.7556  0.9222
10936SOL    HW234816   4.951   4.882  10.267  2.2842 -0.5469  0.3514
10937SOL     OW34817  10.143   6.617   7.301  0.3570  0.2601 -1.0850
10937SOL    HW134818  10.144   6.704   7.340  2.0187  0.4791 -1.5499
10937SOL    HW234819  10.205   6.622   7.229  1.5581 -1.6881 -0.2686
10938SOL     OW34820   6.954   3.543   9.854 -0.5826 -0.9781  0.9574
10938SOL    HW134821   6.904   3.602   9.797  1.7195 -0.6890 -0.8814
10938SOL    HW234822   6.886   3.496   9.904 -2.6429 -0.0084 -0.7545
10939SOL     OW34823   2.785   4.039   4.326 -0.5102  0.0549  0.1799
10939SOL    HW134824   2.729   4.058   4.250 -1.0307  0.9488  0.7629
10939SOL    HW234825   2.797   4.125   4.367  2.7565  0.2440 -0.8961
10940SOL     OW34826   8.934   0.353   8.792  0.2328  0.1854  0.2576
10940SOL    HW134827   8.964   0.265   8.816 -0.4593 -0.1696 -0.1372
10940SOL    HW234828   8.839   0.344   8.784  0.3829  0.2876 -2.4595
10941SOL     OW34829   2.794   0.871  10.264  0.2455 -0.6341 -0.0046
10941SOL    HW134830   2.768   0.812  10.335 -0.4573 -1.1712 -0.6903
10941SOL    HW234831   2.880   0.839  10.238  0.5350 -0.3963  0.6390
10942SOL     OW34832   0.814   5.373   6.380  0.1818  0.1083 -0.1399
10942SOL    HW134833   0.747   5.436   6.352  0.9482  1.7368  1.4967
10942SOL    HW234834   0.785   5.344   6.467  1.6807  1.0246  0.6984
10943SOL     OW34835   2.759   3.866   0.030 -0.2093  0.2160  0.0835
10943SOL    HW134836   2.792   3.808  -0.038  1.4364  1.6491 -0.3969
10943SOL    HW234837   2.707   3.932  -0.017  1.3994  1.5466  0.0678
10944SOL     OW34838   5.821   6.307   1.837  0.1971  0.1313 -0.1038
10944SOL    HW134839   5.898   6.331   1.787 -0.4435  1.3467 -0.5632
10944SOL    HW234840   5.749   6.353   1.793 -0.7170 -0.6035  0.5805
10945SOL     OW34841   0.542   0.881   3.937 -0.3101 -0.9231  0.1857
10945SOL    HW134842   0.614   0.856   3.879 -0.9166 -0.8373 -0.6184
10945SOL    HW234843   0.578   0.870   4.026  1.6858  1.9170 -0.1423
10946SOL     OW34844   4.705   3.911   0.671 -0.6534 -0.1831  0.6154
10946SOL    HW134845   4.791   3.907   0.713 -0.4438  0.0535  0.2215
10946SOL    HW234846   4.724   3.897   0.578 -1.1437 -1.0119  0.6377
10947SOL     OW34847   3.847   3.538   8.620 -0.0753  0.3695 -0.6340
10947SOL    HW134848   3.764   3.506   8.583  1.6066 -3.6238 -1.5251
10947SOL    HW234849   3.873   3.610   8.562 -0.7456 -1.3783 -3.3076
10948SOL     OW34850  10.632   5.664   6.145 -0.1583  0.1714  0.0019
10948SOL    HW134851  10.667   5.664   6.056 -0.9456  1.8538 -0.3520
10948SOL    HW234852  10.670   5.587   6.186  0.0156 -0.7966 -1.8689
10949SOL     OW34853   4.910   2.734   6.008  0.0032 -0.4780 -0.6070
10949SOL    HW134854   4.925   2.806   5.946  0.7726  0.0470  0.1743
10949SOL    HW234855   4.963   2.756   6.085  0.4572 -2.0009 -0.4387
10950SOL     OW34856   9.959   2.819   2.396  0.2355 -0.5121 -0.6286
10950SOL    HW134857   9.915   2.735   2.409  0.6998 -0.5881  0.6356
10950SOL    HW234858  10.040   2.812   2.447 -0.3696  1.1936  0.6626
10951SOL     OW34859  10.512   2.191  11.053 -0.7782  0.0409 -0.2971
10951SOL    HW134860  10.419   2.187  11.078 -1.0503  3.3064 -0.3530
10951SOL    HW234861  10.538   2.281  11.072  1.7450 -0.0881 -2.5430
10952SOL     OW34862   3.786   3.740   6.198  0.1802  0.1796 -0.6043
10952SOL    HW134863   3.783   3.825   6.241  0.0757  0.2409 -0.7338
10952SOL    HW234864   3.834   3.684   6.260 -2.3319 -0.4697  0.9105
10953SOL     OW34865   7.132   5.857   2.912  0.7592 -0.1005 -0.1143
10953SOL    HW134866   7.114   5.797   2.984  2.4183 -2.7937 -1.7592
10953SOL    HW234867   7.078   5.824   2.840  2.7509 -0.5676 -1.4594
10954SOL     OW34868   6.800   4.997   8.272 -0.2428  0.0158 -0.2391
10954SOL    HW134869   6.774   5.088   8.261  1.2157  0.3838 -0.9999
10954SOL    HW234870   6.816   4.966   8.183  0.1158 -0.7174  0.0704
10955SOL     OW34871   5.654   5.259   3.997  0.3278 -0.3373 -0.3778
10955SOL    HW134872   5.575   5.299   3.961  1.1659  0.4488 -1.4163
10955SOL    HW234873   5.690   5.326   4.056 -0.1060 -0.9362  0.5775
10956SOL     OW34874  10.473   7.184  10.043  0.5483 -0.0651  0.1060
10956SOL    HW134875  10.397   7.136  10.010  0.8065  1.1523 -2.4469
10956SOL    HW234876  10.479   7.157  10.135 -3.1685  0.0298  0.5574
10957SOL     OW34877   7.502   1.545   2.589  0.4065 -0.4147  0.4946
10957SOL    HW134878   7.578   1.486   2.585  0.2108 -0.6107 -0.8061
10957SOL    HW234879   7.513   1.603   2.514  0.6744  1.3434  1.8310
10958SOL     OW34880   0.226   0.994   5.275  0.1567 -0.0556  0.0990
10958SOL    HW134881   0.186   0.992   5.188  0.7735  0.1162 -0.1936
10958SOL    HW234882   0.215   0.905   5.308 -1.1692  0.1722  0.3581
10959SOL     OW34883  10.107  10.101   9.037 -0.5942  0.3469  0.1947
10959SOL    HW134884  10.125  10.186   8.996  2.1550 -0.1578  0.1479
10959SOL    HW234885  10.144  10.037   8.975 -1.7549 -0.8194  0.6866
10960SOL     OW34886   4.936   7.321   0.211  0.4058 -0.6132  0.2611
10960SOL    HW134887   4.953   7.402   0.260 -2.1059  0.4587 -0.4731
10960SOL    HW234888   4.861   7.281   0.256  1.0127 -2.0704  0.0324
10961SOL     OW34889   1.214  10.663   3.199  0.2288  0.5614  0.0666
10961SOL    HW134890   1.126  10.647   3.233 -0.1390  1.8120 -0.2374
10961SOL    HW234891   1.230  10.755   3.219  1.4935  0.3353  0.1570
10962SOL     OW34892   9.939  10.843   6.026  0.1834  0.3874  0.3623
10962SOL    HW134893  10.000  10.911   5.997 -0.1295  1.4492  2.0246
10962SOL    HW234894   9.860  10.892   6.050 -0.5790 -0.7438  0.1907
10963SOL     OW34895  10.249   6.541   9.193 -0.3641 -0.0909 -0.1574
10963SOL    HW134896  10.327   6.490   9.210 -1.0349 -0.8735  0.6806
10963SOL    HW234897  10.216   6.508   9.110 -0.0712 -0.0817 -0.2789
10964SOL     OW34898   8.046   3.824   0.518  0.4931 -0.5863 -0.3596
10964SOL    HW134899   8.041   3.855   0.427 -0.6719 -0.9993 -0.4506
10964SOL    HW234900   7.955   3.824   0.548  0.8438 -0.6958  0.7341
10965SOL     OW34901   9.733   9.433   7.098 -0.7711  1.5007 -0.2552
10965SOL    HW134902   9.681   9.463   7.024 -3.1893 -0.4430  0.5151
10965SOL    HW234903   9.718   9.338   7.101  2.0830  0.9919  0.6534
10966SOL     OW34904   4.456   4.672   1.797 -0.6218  0.0495  0.1493
10966SOL    HW134905   4.464   4.730   1.721 -1.3172 -0.6385 -0.4745
10966SOL    HW234906   4.442   4.585   1.759 -0.9896 -0.3066  1.0678
10967SOL     OW34907   3.490   6.768   3.016 -0.2254 -0.2017 -0.1967
10967SOL    HW134908   3.455   6.679   3.022  0.4919 -0.6241 -1.6521
10967SOL    HW234909   3.584   6.755   3.001  0.1545  0.8545  1.1148
10968SOL     OW34910   4.554   6.855   9.493  0.2297 -0.3278  0.2639
10968SOL    HW134911   4.587   6.865   9.583  0.2553  1.6447  0.0694
10968SOL    HW234912   4.497   6.930   9.480 -2.5450 -2.3728 -0.2489
10969SOL     OW34913   1.704   5.291   1.569  0.1716  0.3987  0.0060
10969SOL    HW134914   1.658   5.211   1.542  0.7302  0.3068 -0.7017
10969SOL    HW234915   1.677   5.357   1.506  1.0946  0.3127 -0.4931
10970SOL     OW34916   0.049   1.907   3.223  0.1679  0.0644  0.0562
10970SOL    HW134917   0.076   1.816   3.209  1.4052 -0.2036  3.3613
10970SOL    HW234918  -0.043   1.909   3.197  0.2912 -1.9470 -0.7078
10971SOL     OW34919   4.794   7.876   8.514 -0.0143  0.0201  0.2650
10971SOL    HW134920   4.764   7.786   8.527  0.0521  0.0706  0.7972
10971SOL    HW234921   4.836   7.875   8.428 -1.6735 -0.0082 -0.5894
10972SOL     OW34922   3.225   5.677   6.896 -0.1037 -0.1379 -0.5394
10972SOL    HW134923   3.286   5.618   6.851  0.4760  0.7197 -0.9024
10972SOL    HW234924   3.234   5.654   6.988  2.8631  1.7682 -0.2254
10973SOL     OW34925   8.789   4.888   0.331 -0.2608  0.5286 -0.2828
10973SOL    HW134926   8.862   4.918   0.278 -0.1134  1.2821  0.3227
10973SOL    HW234927   8.730   4.845   0.269  0.6948 -0.1158 -0.7757
10974SOL     OW34928   3.449   4.703  10.485  0.0963 -0.7445 -0.4062
10974SOL    HW134929   3.532   4.725  10.526 -0.8371  1.6584  0.3896
10974SOL    HW234930   3.450   4.749  10.401 -1.1682  1.0117  0.4770
10975SOL     OW34931   5.627   1.854   6.972 -0.0576  0.4164  0.5592
10975SOL    HW134932   5.653   1.838   6.881 -0.4503 -0.4406  0.5856
10975SOL    HW234933   5.595   1.944   6.974 -0.6806  0.2183 -0.2965
10976SOL     OW34934   2.695   2.019   9.708  0.3813 -0.3266  0.5174
10976SOL    HW134935   2.749   1.974   9.643 -0.5808 -1.1762  0.2870
10976SOL    HW234936   2.609   1.978   9.701  0.2248 -0.3793  2.2601
10977SOL     OW34937   1.733   0.738   4.375 -0.1086  0.7934  0.5564
10977SOL    HW134938   1.683   0.712   4.297  0.4444 -0.7879  0.7084
10977SOL    HW234939   1.770   0.823   4.351  0.4819  0.0957 -1.1262
10978SOL     OW34940  10.925   4.680   6.773  0.4429 -0.1359  0.1300
10978SOL    HW134941  10.963   4.675   6.685  1.6075 -1.1837  0.6494
10978SOL    HW234942  10.840   4.637   6.765  0.4795 -0.0978 -0.5140
10979SOL     OW34943   2.138   6.846   0.928 -0.1551  0.3275  0.4661
10979SOL    HW134944   2.082   6.853   0.850 -0.6522 -1.8135  0.5535
10979SOL    HW234945   2.206   6.913   0.915 -2.0732  2.2762 -0.1738
10980SOL     OW34946   9.343   6.665   4.256  0.4039 -0.5814  0.1260
10980SOL    HW134947   9.299   6.586   4.225  0.4075 -1.0728  1.3256
10980SOL    HW234948   9.431   6.636   4.280  0.3356 -0.2542  0.7824
10981SOL     OW34949  10.151   6.369   7.465  0.2720 -0.2640  0.1464
10981SOL    HW134950  10.122   6.387   7.554 -2.9138 -1.3639 -0.5488
10981SOL    HW234951  10.141   6.453   7.419  1.0613  0.0801  0.5829
10982SOL     OW34952   2.547   3.329   1.991  0.2064 -0.1576 -0.4517
10982SOL    HW134953   2.625   3.287   1.955  0.0905  0.2443 -1.1982
10982SOL    HW234954   2.581   3.399   2.047  0.4024 -1.3083  0.9265
10983SOL     OW34955   5.342   4.975   9.221  0.2020 -0.1449  0.4789
10983SOL    HW134956   5.386   5.057   9.200  0.4022  0.4369  2.8762
10983SOL    HW234957   5.270   5.000   9.278 -1.5688 -1.3829 -1.0850
10984SOL     OW34958   1.893   3.089   8.609  0.3812 -0.2540 -0.2494
10984SOL    HW134959   1.841   3.024   8.656 -0.1075  0.2082 -0.1373
10984SOL    HW234960   1.971   3.102   8.664 -0.6276  0.9805  0.9640
10985SOL     OW34961   0.741   0.815   1.136 -0.1874 -0.3076 -0.2340
10985SOL    HW134962   0.822   0.801   1.087 -1.3994  1.4263 -2.9763
10985SOL    HW234963   0.721   0.729   1.173  1.5317 -1.4206 -1.6782
10986SOL     OW34964   0.396   9.359   6.647  0.1594  0.1522 -0.5100
10986SOL    HW134965   0.405   9.317   6.562 -1.3688  0.2090 -0.7241
10986SOL    HW234966   0.320   9.417   6.638  1.5930  2.2560  0.0759
10987SOL     OW34967   9.330   1.276   4.457 -0.8278 -0.0939 -0.3064
10987SOL    HW134968   9.374   1.291   4.541 -0.8083 -4.1155  0.6001
10987SOL    HW234969   9.238   1.261   4.481 -0.8331 -1.2088 -0.9631
10988SOL     OW34970   9.821   5.416   0.709  0.1712 -0.1337 -0.4192
10988SOL    HW134971   9.765   5.494   0.705 -0.3176 -0.4712 -0.2319
10988SOL    HW234972   9.840   5.396   0.617 -1.7399 -1.2254 -0.6308
10989SOL     OW34973   0.200   8.620   4.164 -0.9293  0.0035  0.7991
10989SOL    HW134974   0.274   8.668   4.202 -0.8628  1.1954 -0.7023
10989SOL    HW234975   0.236   8.534   4.142  0.9024  1.3536 -2.2608
10990SOL     OW34976   3.329   7.878   0.097 -0.0267  0.0210  0.1682
10990SOL    HW134977   3.246   7.903   0.136 -0.6688  1.2644 -1.8983
10990SOL    HW234978   3.345   7.789   0.129 -3.0666 -0.9774 -0.8365
10991SOL     OW34979  10.361   7.576   4.638 -0.0963 -0.5006 -0.0848
10991SOL    HW134980  10.441   7.575   4.691 -0.6468 -3.4969  0.8599
10991SOL    HW234981  10.292   7.605   4.698 -0.3723 -1.8995  0.2995
10992SOL     OW34982   2.113   8.365   8.652 -0.0064 -0.5779 -0.8546
10992SOL    HW134983   2.083   8.299   8.589  1.4850 -2.6928  0.4990
10992SOL    HW234984   2.056   8.352   8.729 -2.1856  2.3560 -1.8125
10993SOL     OW34985   4.756   3.388   8.051  0.5729  0.6673  0.1580
10993SOL    HW134986   4.682   3.418   8.105  0.1363 -1.2595  0.7275
10993SOL    HW234987   4.735   3.296   8.031  1.5565  0.8319 -1.9018
10994SOL     OW34988   6.825  10.917   0.961  0.4887  0.5836  0.0572
10994SOL    HW134989   6.773  10.846   0.925  1.9135 -0.2780 -0.4207
10994SOL    HW234990   6.766  10.963   1.021 -0.6288 -0.6661 -0.0352
10995SOL     OW34991   4.353   8.596  11.010 -0.0576 -0.1537 -0.2756
10995SOL    HW134992   4.339   8.552  10.927 -0.5337 -1.5682  0.5167
10995SOL    HW234993   4.337   8.529  11.076 -0.7565  1.1969  1.0039
10996SOL     OW34994   4.581   8.702   4.847 -0.2517 -0.4937 -0.0281
10996SOL    HW134995   4.641   8.648   4.797 -1.7134 -1.0856 -1.2328
10996SOL    HW234996   4.506   8.645   4.864 -0.9220  0.5150  0.5225
10997SOL     OW34997   4.414   3.371   7.738  0.1389  0.6573  0.5545
10997SOL    HW134998   4.435   3.278   7.728 -2.2176  0.0795  0.4233
10997SOL    HW234999   4.486   3.417   7.695  1.2420 -1.1083  0.4324
10998SOL     OW35000  10.112   3.044   8.435  0.5376  0.0044 -0.2815
10998SOL    HW135001  10.178   3.014   8.498  2.3515 -0.2599 -2.1818
10998SOL    HW235002  10.081   2.963   8.394  0.8948  0.2772 -1.1168
10999SOL     OW35003   9.549   1.175  10.955  0.1227 -1.0332  0.2156
10999SOL    HW135004   9.542   1.247  11.017 -2.2460 -0.7721 -0.2524
10999SOL    HW235005   9.463   1.133  10.958  0.2428 -1.5791 -2.1822
11000SOL     OW35006   2.509   5.067  10.747 -0.1890 -1.1138  0.4733
11000SOL    HW135007   2.594   5.023  10.745  0.6376  0.4137 -0.1575
11000SOL    HW235008   2.454   5.017  10.687  1.2132 -0.4121 -1.4888
11001SOL     OW35009   9.015   1.731   9.036  0.4627  0.2269 -0.3497
11001SOL    HW135010   9.007   1.721   8.941 -0.8967 -2.9879 -0.0025
11001SOL    HW235011   9.109   1.726   9.052  0.6441 -0.2303 -1.4410
11002SOL     OW35012   2.869   8.135   9.594 -0.0161  0.0420  0.1194
11002SOL    HW135013   2.824   8.097   9.519  1.4663  2.0870 -1.9295
11002SOL    HW235014   2.959   8.103   9.586  0.2877  0.7319  0.6807
11003SOL     OW35015   0.260   8.996  10.832  0.4184 -0.5001 -0.0017
11003SOL    HW135016   0.347   8.963  10.853  1.0731  1.6200  0.8834
11003SOL    HW235017   0.263   9.014  10.738  0.7447 -0.9452 -0.0796
11004SOL     OW35018   2.876   0.530   7.803 -0.1808  0.2464  0.3922
11004SOL    HW135019   2.967   0.528   7.773 -0.2867 -0.7873  0.1079
11004SOL    HW235020   2.845   0.440   7.793 -1.3899  0.6822  0.0209
11005SOL     OW35021   3.538   0.034   6.778  0.0697  0.1408 -0.4725
11005SOL    HW135022   3.468  -0.031   6.790  0.9128 -0.6758  0.1840
11005SOL    HW235023   3.619  -0.015   6.794  0.6799  1.5561  1.0308
11006SOL     OW35024   3.115   6.712  10.338  0.0298 -0.7049  0.1821
11006SOL    HW135025   3.085   6.803  10.343 -0.2560 -0.8655  3.0762
11006SOL    HW235026   3.210   6.719  10.331 -0.1415 -0.2479 -4.3556
11007SOL     OW35027   0.821   7.378  11.039  0.6105 -0.0388 -0.1169
11007SOL    HW135028   0.804   7.447  11.102  3.2871  0.1312  0.5027
11007SOL    HW235029   0.821   7.297  11.091 -0.9408 -0.3706 -0.5798
11008SOL     OW35030   4.655   6.875   0.794 -0.5509  0.1063 -0.5222
11008SOL    HW135031   4.663   6.967   0.818 -0.4311  0.3313 -1.3923
11008SOL    HW235032   4.728   6.832   0.838 -2.1187 -0.0712  2.1283
11009SOL     OW35033   7.989   1.387   6.925 -0.0563  0.3914  0.5490
11009SOL    HW135034   7.901   1.390   6.962  0.2783  0.1058  1.3982
11009SOL    HW235035   8.009   1.294   6.917  0.7418  0.4328  1.8049
11010SOL     OW35036   0.609   5.384   5.334  0.4196  0.3028 -0.1508
11010SOL    HW135037   0.631   5.291   5.344  0.4877  0.4039  0.7021
11010SOL    HW235038   0.652   5.410   5.252  1.7166 -0.0429  0.3891
11011SOL     OW35039   4.963   2.285  10.457  0.1319 -0.1140  0.1554
11011SOL    HW135040   5.056   2.288  10.433  0.3630  0.8366  1.0787
11011SOL    HW235041   4.920   2.342  10.393  0.5781  1.4826  1.2100
11012SOL     OW35042   1.806   3.762  10.032 -0.0957 -0.1290 -0.2536
11012SOL    HW135043   1.767   3.829   9.976 -0.6490  0.8635  1.2597
11012SOL    HW235044   1.742   3.691  10.033  0.8198 -1.0835 -2.4599
11013SOL     OW35045   2.657   5.187   2.028  0.4326 -0.6340  0.3480
11013SOL    HW135046   2.733   5.226   1.986  1.2539 -1.5111  0.9763
11013SOL    HW235047   2.621   5.256   2.083 -1.1272  0.8091 -2.2507
11014SOL     OW35048   0.321  10.692   0.656 -0.3529 -0.2079 -0.0084
11014SOL    HW135049   0.285  10.660   0.739 -0.8144 -0.7850 -0.4277
11014SOL    HW235050   0.251  10.746   0.619  0.3014  1.0461  0.5425
11015SOL     OW35051  10.394   2.328   3.614  0.3981  0.1042 -0.0755
11015SOL    HW135052  10.425   2.389   3.681  0.6262  0.3379 -0.3900
11015SOL    HW235053  10.299   2.324   3.628  0.5329 -0.4437  0.7526
11016SOL     OW35054   9.869   3.488   8.738 -0.2239  0.4994  0.2897
11016SOL    HW135055   9.806   3.479   8.810 -0.9374  1.5948 -0.1897
11016SOL    HW235056   9.863   3.405   8.690 -1.1793  0.5343  0.3415
11017SOL     OW35057  11.028   3.572  10.538 -0.4253  0.3376 -0.3868
11017SOL    HW135058  10.943   3.553  10.577 -0.0137 -1.4537 -0.2799
11017SOL    HW235059  11.008   3.629  10.463 -1.7984 -0.5885 -0.7495
11018SOL     OW35060   0.269   3.133   8.067  0.4600  0.0162 -0.0672
11018SOL    HW135061   0.237   3.210   8.018 -1.5511 -1.3239 -1.0014
11018SOL    HW235062   0.364   3.138   8.059  0.2929  1.0999 -2.2089
11019SOL     OW35063   2.638   1.051   8.027  0.3723  0.0533  0.4261
11019SOL    HW135064   2.701   1.030   8.097  1.1595 -0.5113 -0.4229
11019SOL    HW235065   2.644   0.976   7.967  1.4539  1.5632 -1.4565
11020SOL     OW35066   4.005   5.285   8.587 -0.9192 -0.3301 -1.0304
11020SOL    HW135067   3.981   5.204   8.543 -0.4247 -0.3089 -1.3508
11020SOL    HW235068   4.078   5.320   8.535  1.2303 -1.4424  1.0523
11021SOL     OW35069  10.056   9.617   0.175  0.1686 -0.1021  0.4699
11021SOL    HW135070   9.992   9.609   0.104 -1.0559  0.3814  1.4943
11021SOL    HW235071  10.047   9.535   0.224 -0.3710  0.3890  1.1911
11022SOL     OW35072   4.091   5.725   8.095 -0.0536 -0.7209  0.0136
11022SOL    HW135073   4.073   5.758   8.183  1.0331  0.5994 -0.2123
11022SOL    HW235074   4.030   5.773   8.039  2.2105  1.9229 -0.4487
11023SOL     OW35075   8.878   1.130   4.698 -0.2597  0.1868 -0.1810
11023SOL    HW135076   8.910   1.058   4.752  0.0711  2.5941  3.1480
11023SOL    HW235077   8.783   1.128   4.709 -0.9280 -2.5182 -4.1623
11024SOL     OW35078   1.734   5.662   2.336 -0.2071 -0.5103 -0.0416
11024SOL    HW135079   1.704   5.651   2.426 -1.2712 -1.0492 -0.4395
11024SOL    HW235080   1.705   5.582   2.291 -0.5478  0.1709 -1.0805
11025SOL     OW35081   1.105   3.184   9.553  0.3559 -0.5619 -0.2130
11025SOL    HW135082   1.021   3.139   9.560  0.1902 -0.1135  0.9659
11025SOL    HW235083   1.165   3.117   9.519 -0.4427 -0.9164 -0.9617
11026SOL     OW35084   0.324   3.626   7.934 -0.3444  0.0927 -0.2129
11026SOL    HW135085   0.248   3.661   7.888 -0.4031 -0.2386 -0.3759
11026SOL    HW235086   0.287   3.563   7.996 -0.2178  0.0817 -0.1483
11027SOL     OW35087   0.957   0.752   7.507 -0.3281  0.2362  0.3131
11027SOL    HW135088   0.921   0.729   7.421  1.7486  0.4065 -0.6754
11027SOL    HW235089   1.009   0.830   7.490  0.3422  0.1158  1.6947
11028SOL     OW35090   7.022   2.694   4.494 -0.3905  0.1977 -0.3564
11028SOL    HW135091   7.059   2.782   4.488 -3.4252  1.6127 -0.1169
11028SOL    HW235092   7.019   2.676   4.588 -0.8000  0.3239 -0.3445
11029SOL     OW35093   0.479   4.346   6.048  0.1181 -0.8962 -0.4132
11029SOL    HW135094   0.499   4.373   5.959 -0.3593 -0.5564 -0.4210
11029SOL    HW235095   0.563   4.316   6.084  0.4880 -0.1951 -0.6796
11030SOL     OW35096   4.450   0.280   3.512 -0.4050 -0.0459 -0.3327
11030SOL    HW135097   4.521   0.305   3.572 -0.6558 -0.9127  0.3445
11030SOL    HW235098   4.496   0.248   3.434 -0.0530  3.3671 -1.6908
11031SOL     OW35099   5.626   2.280   0.046  0.2098 -0.2865  0.4519
11031SOL    HW135100   5.554   2.247  -0.009 -0.9413  0.3886  1.5119
11031SOL    HW235101   5.687   2.319  -0.016 -0.0686 -1.3241 -0.5203
11032SOL     OW35102   2.089   5.301   2.453 -0.3635  0.2538 -0.0245
11032SOL    HW135103   2.173   5.293   2.407 -0.4105  0.4249 -0.1411
11032SOL    HW235104   2.042   5.368   2.404 -0.5244  0.2378  0.1096
11033SOL     OW35105   4.617   0.844   8.409  0.3930  0.0142 -0.7954
11033SOL    HW135106   4.708   0.815   8.402  0.0941 -1.0218 -0.6224
11033SOL    HW235107   4.607   0.909   8.340  0.8363 -1.0325 -1.8852
11034SOL     OW35108   2.741  10.331   2.984  0.2816  0.6153 -0.0419
11034SOL    HW135109   2.766  10.411   3.030  1.7491  1.0042 -1.4257
11034SOL    HW235110   2.770  10.260   3.041  2.5699  1.0764 -0.5319
11035SOL     OW35111   3.430   4.056   3.030 -0.5574 -0.2216  0.8502
11035SOL    HW135112   3.439   4.126   3.095 -1.8369 -0.2431  1.0736
11035SOL    HW235113   3.353   4.080   2.979  1.2579  0.6425 -1.7699
11036SOL     OW35114   2.436   1.146   7.819 -0.2699 -0.4609  0.3040
11036SOL    HW135115   2.372   1.187   7.878  1.2129 -0.0277  1.6948
11036SOL    HW235116   2.510   1.124   7.876  0.5692 -1.5163 -1.1369
11037SOL     OW35117  10.868   4.722   5.267 -0.6106 -0.0028  0.8606
11037SOL    HW135118  10.800   4.698   5.205  0.1819 -1.0975  0.3764
11037SOL    HW235119  10.922   4.643   5.275  1.1010  1.0903  0.5689
11038SOL     OW35120   4.472   1.758   2.615  0.0680  0.0247  0.3354
11038SOL    HW135121   4.460   1.833   2.555 -0.0798 -0.0667  0.2496
11038SOL    HW235122   4.427   1.686   2.571  0.2722 -0.1318  0.3859
11039SOL     OW35123   5.527   4.551   1.376  0.1549 -0.0418 -0.0904
11039SOL    HW135124   5.504   4.511   1.293 -0.6197  2.8854 -1.4395
11039SOL    HW235125   5.447   4.544   1.429 -0.1799  0.2447 -0.5484
11040SOL     OW35126   5.979   9.736   0.231 -0.0245  0.0103  0.1098
11040SOL    HW135127   6.003   9.652   0.192 -1.9498  0.1585 -1.5290
11040SOL    HW235128   5.905   9.716   0.288  0.3529  0.4017  0.7457
11041SOL     OW35129   1.751   5.111  10.674  0.0122  0.2611 -0.2433
11041SOL    HW135130   1.829   5.111  10.619 -0.1229 -0.6559 -0.4406
11041SOL    HW235131   1.677   5.107  10.613 -0.2619  2.0383 -0.1076
11042SOL     OW35132   4.142   0.983  10.766 -0.3844  0.3596 -0.1007
11042SOL    HW135133   4.147   1.069  10.808 -0.0388  0.0091  0.5891
11042SOL    HW235134   4.117   1.002  10.676 -2.4349  1.0639  0.5477
11043SOL     OW35135   8.991   2.577   2.108 -0.2328  0.3575 -0.3405
11043SOL    HW135136   9.025   2.519   2.175  3.4302 -2.1977 -3.9732
11043SOL    HW235137   8.904   2.542   2.087 -0.2914 -0.4352  1.1342
11044SOL     OW35138   6.461   9.393   9.176  0.8022 -0.3826 -0.0846
11044SOL    HW135139   6.451   9.376   9.082  0.5539 -1.6448  0.1558
11044SOL    HW235140   6.507   9.316   9.209  0.9609  0.0952  0.8236
11045SOL     OW35141   2.055   4.471   0.801 -0.5671 -0.4836 -0.1114
11045SOL    HW135142   2.041   4.483   0.708 -1.6934  1.4735  0.2640
11045SOL    HW235143   1.972   4.496   0.841 -0.4260 -2.1721  1.3880
11046SOL     OW35144   6.169   8.398   8.667 -0.2922  0.8282 -0.1958
11046SOL    HW135145   6.091   8.341   8.667 -0.4497  1.0431  0.0273
11046SOL    HW235146   6.223   8.364   8.739 -0.3992  0.9799 -0.0452
11047SOL     OW35147   6.766   2.905   3.640 -0.3348  0.3649  0.3178
11047SOL    HW135148   6.828   2.927   3.570  0.2998 -0.3365  0.6409
11047SOL    HW235149   6.795   2.819   3.671 -1.6461 -0.1230  0.2801
11048SOL     OW35150   2.020   2.482   1.296  0.4183 -0.0740  0.2421
11048SOL    HW135151   1.936   2.480   1.343 -0.0108  1.6467 -0.3671
11048SOL    HW235152   2.022   2.568   1.255  1.8991 -0.5979 -0.8682
11049SOL     OW35153   2.503   0.773   2.276 -0.4945  0.1313 -0.0033
11049SOL    HW135154   2.521   0.827   2.353 -2.3437  0.5988  0.1595
11049SOL    HW235155   2.551   0.816   2.205  0.5478  0.1801  0.7083
11050SOL     OW35156   5.060   7.883  10.040 -0.2630  0.0549  0.4793
11050SOL    HW135157   4.997   7.955  10.049 -1.7806 -1.0093 -1.0960
11050SOL    HW235158   5.028   7.816  10.100 -1.7913 -1.1891 -1.5656
11051SOL     OW35159   1.856   3.403   6.920 -0.5123 -0.0350 -0.3790
11051SOL    HW135160   1.769   3.435   6.896 -1.1917 -1.4917  0.0790
11051SOL    HW235161   1.874   3.333   6.857 -0.4461 -0.9362  0.6236
11052SOL     OW35162   5.016   6.692   8.978 -0.0142 -0.2378 -0.0754
11052SOL    HW135163   4.956   6.756   9.018  0.7726 -0.5389  1.7020
11052SOL    HW235164   5.101   6.735   8.980  0.4017 -1.0670  0.5209
11053SOL     OW35165   2.853   4.506   1.012 -0.2473 -0.3464 -0.0745
11053SOL    HW135166   2.808   4.514   1.097 -0.1076 -1.1755  0.0796
11053SOL    HW235167   2.847   4.414   0.990 -0.0720 -0.1731 -0.8624
11054SOL     OW35168   1.559   2.860   3.199  0.1613  0.1212  0.1774
11054SOL    HW135169   1.537   2.917   3.272 -2.5191 -0.7948  0.2015
11054SOL    HW235170   1.579   2.776   3.239  0.8495  0.1709 -0.0470
11055SOL     OW35171   0.562   9.881   1.355 -0.2463 -0.4980 -0.6157
11055SOL    HW135172   0.521   9.967   1.355  0.0700 -0.2918 -2.3980
11055SOL    HW235173   0.492   9.820   1.376 -0.3237  0.2226  1.3722
11056SOL     OW35174   6.601   3.605   1.873 -0.2877 -0.1840  0.0770
11056SOL    HW135175   6.509   3.579   1.874 -0.0672 -1.0246 -0.1528
11056SOL    HW235176   6.600   3.698   1.851 -0.9749 -0.7453 -2.6452
11057SOL     OW35177   4.944   3.240   7.174 -0.5153 -0.0233  0.4919
11057SOL    HW135178   4.879   3.298   7.134 -0.4971 -0.6043 -0.4238
11057SOL    HW235179   4.968   3.180   7.104  2.2685  1.1913  0.2963
11058SOL     OW35180   5.190   3.407   9.900 -0.1353 -0.0123 -0.2377
11058SOL    HW135181   5.136   3.472   9.855  0.8384 -0.0261 -1.4695
11058SOL    HW235182   5.196   3.334   9.840  3.1926  0.9230 -1.2961
11059SOL     OW35183   1.210   9.133   8.587 -0.0545  0.1342  1.2514
11059SOL    HW135184   1.140   9.199   8.593 -0.7406 -0.2741 -1.1414
11059SOL    HW235185   1.210   9.107   8.495  1.8174 -1.4862  1.6505
11060SOL     OW35186   1.057   5.475   1.244 -0.2396  0.6704  0.1845
11060SOL    HW135187   0.994   5.403   1.234  0.3061  0.1261  0.5803
11060SOL    HW235188   1.138   5.432   1.271 -0.6516  1.6684  3.4643
11061SOL     OW35189   6.497   3.842   1.218  0.1955 -0.4308  0.0292
11061SOL    HW135190   6.407   3.870   1.232  0.1575 -0.9883  0.9983
11061SOL    HW235191   6.547   3.924   1.216 -0.2244 -0.1623  0.3510
11062SOL     OW35192   6.204   4.877  10.152 -0.0626 -0.6197  0.0956
11062SOL    HW135193   6.209   4.965  10.116 -0.6829 -0.5843  0.0890
11062SOL    HW235194   6.195   4.820  10.076 -1.5313 -0.5327  0.1865
11063SOL     OW35195   1.562   0.681   4.940 -0.2938 -0.2053 -0.0116
11063SOL    HW135196   1.538   0.598   4.900  0.3642 -0.7061  0.6241
11063SOL    HW235197   1.513   0.746   4.890  0.9013 -0.7465 -2.0309
11064SOL     OW35198   7.655   3.382   4.674  0.7137  0.7853 -0.1866
11064SOL    HW135199   7.561   3.398   4.678  0.2360 -1.6086  0.0928
11064SOL    HW235200   7.684   3.426   4.595 -0.8705  0.6493 -0.8802
11065SOL     OW35201   1.492   4.710   2.983 -0.1209 -0.2045 -0.0158
11065SOL    HW135202   1.476   4.772   3.054 -0.7279  0.8685 -1.0451
11065SOL    HW235203   1.504   4.626   3.026 -0.8217  0.3582  1.3320
11066SOL     OW35204   4.347   1.783  11.039 -0.4001  0.7498 -0.2043
11066SOL    HW135205   4.348   1.693  11.071 -1.3625  0.6346 -0.4695
11066SOL    HW235206   4.331   1.837  11.117  0.5949  0.7388  0.0228
11067SOL     OW35207   6.055   1.688   9.264 -0.6715  0.3174  0.1412
11067SOL    HW135208   5.960   1.693   9.265 -0.6061  2.2487  0.7395
11067SOL    HW235209   6.076   1.641   9.183 -2.1534 -3.2513  1.6133
11068SOL     OW35210  10.105   1.020   4.755 -0.3030 -0.1116  0.0291
11068SOL    HW135211  10.032   1.004   4.815 -0.6169 -1.2633 -0.6142
11068SOL    HW235212  10.128   0.933   4.723  1.2377  0.2540  0.0658
11069SOL     OW35213   6.802   1.005   6.221 -0.6258 -0.4293  0.0874
11069SOL    HW135214   6.830   0.960   6.141  1.4473 -0.9231  1.0470
11069SOL    HW235215   6.812   0.939   6.290  0.1695  0.7664  1.1487
11070SOL     OW35216   5.233   7.901   7.901 -0.2515  0.2853 -0.3317
11070SOL    HW135217   5.302   7.957   7.868 -0.6001  0.2085 -1.2320
11070SOL    HW235218   5.152   7.942   7.871 -0.4841 -1.7591 -2.9404
11071SOL     OW35219   3.741   9.127   1.289  0.2244 -0.3171  0.3426
11071SOL    HW135220   3.650   9.129   1.259  0.4216  3.3757 -0.4781
11071SOL    HW235221   3.738   9.164   1.377  0.9771  0.3700  0.0862
11072SOL     OW35222   4.037   4.497   6.662  0.3520 -0.0082 -0.3809
11072SOL    HW135223   3.952   4.471   6.698  0.6742 -0.8192 -0.1699
11072SOL    HW235224   4.053   4.433   6.592  0.8917  0.0016 -0.2663
11073SOL     OW35225   4.171   3.218   9.518 -0.2526  0.1221  0.0039
11073SOL    HW135226   4.218   3.203   9.436 -2.1423  0.8697 -1.2756
11073SOL    HW235227   4.212   3.296   9.556  2.8755 -2.0732  1.5818
11074SOL     OW35228   7.989   6.188   3.138  0.6102  0.0973  0.0585
11074SOL    HW135229   8.041   6.267   3.153 -1.3900  1.5679 -0.3183
11074SOL    HW235230   7.937   6.177   3.218 -0.2232  0.0569 -0.4744
11075SOL     OW35231   1.991   0.430   8.861  0.3039  0.7736 -0.1214
11075SOL    HW135232   2.007   0.340   8.833  1.0217  1.5785 -2.5854
11075SOL    HW235233   1.896   0.441   8.854  0.1635  0.1028  0.6280
11076SOL     OW35234   7.664   5.267   8.756  0.0618 -0.2998 -0.3391
11076SOL    HW135235   7.732   5.325   8.791  1.0110  0.0959 -2.6357
11076SOL    HW235236   7.647   5.204   8.826 -0.1167  1.9687  1.7965
11077SOL     OW35237   3.848   9.767  10.139 -0.1889  0.0081 -0.0089
11077SOL    HW135238   3.844   9.700  10.208 -0.1034 -1.3970 -1.3274
11077SOL    HW235239   3.869   9.847  10.186  0.2086 -0.9726  1.5799
11078SOL     OW35240   1.604   9.509   0.610 -0.1392 -0.6792 -0.1350
11078SOL    HW135241   1.597   9.590   0.560 -1.9421 -1.4277 -1.1979
11078SOL    HW235242   1.584   9.534   0.700 -0.6111  0.0833 -0.4437
11079SOL     OW35243   1.736   9.773   1.348  0.4936 -0.0478  0.1860
11079SOL    HW135244   1.741   9.695   1.293 -1.6706 -1.0206  1.2679
11079SOL    HW235245   1.794   9.755   1.422  0.7347 -0.1966 -0.0367
11080SOL     OW35246   0.676   8.218   0.323  0.5519  0.1058 -0.2057
11080SOL    HW135247   0.659   8.312   0.318  1.1728  0.1667 -1.9939
11080SOL    HW235248   0.639   8.183   0.241  1.3995 -1.0194 -0.1370
11081SOL     OW35249   2.357   5.968   4.529  0.3870  0.0138  0.1295
11081SOL    HW135250   2.383   5.958   4.438  0.4270  0.1420  0.1271
11081SOL    HW235251   2.404   6.046   4.559 -0.2431  0.4390  0.0331
11082SOL     OW35252   5.838   8.009   9.861 -0.7797  0.0361 -0.0502
11082SOL    HW135253   5.842   8.006   9.957  0.5233  2.2613  0.0357
11082SOL    HW235254   5.762   8.064   9.842 -0.8620 -0.1627 -0.2969
11083SOL     OW35255   3.696   3.642   9.051  0.2810  0.6176 -0.4186
11083SOL    HW135256   3.701   3.683   8.965 -0.1366 -0.1254 -0.8054
11083SOL    HW235257   3.614   3.593   9.050  0.2964  0.5566  0.3872
11084SOL     OW35258   9.812   1.955   8.069  0.0127 -0.1686  0.3012
11084SOL    HW135259   9.900   1.981   8.044 -0.2004  0.3578  0.0881
11084SOL    HW235260   9.786   1.892   8.003  1.1536 -2.2539  1.7272
11085SOL     OW35261   0.704   7.810   0.638  0.1176 -0.3014 -0.0191
11085SOL    HW135262   0.673   7.864   0.566 -2.2495 -0.4001  0.8434
11085SOL    HW235263   0.779   7.764   0.602  0.7164  1.7097 -1.5259
11086SOL     OW35264   7.298   2.268   7.623  0.2095  0.2146  0.2251
11086SOL    HW135265   7.316   2.174   7.627 -0.5115  0.0156 -0.9194
11086SOL    HW235266   7.269   2.290   7.712 -0.4078 -0.8151  0.2893
11087SOL     OW35267  10.291   6.542  10.169 -0.0051 -0.3012  0.1479
11087SOL    HW135268  10.312   6.635  10.179 -2.4336  0.2633  0.7006
11087SOL    HW235269  10.339   6.516  10.090 -0.5181  1.8817 -0.9925
11088SOL     OW35270   6.242   4.643   0.794 -0.6688 -0.2139  0.8853
11088SOL    HW135271   6.317   4.658   0.738 -0.5412 -2.8402  0.2439
11088SOL    HW235272   6.269   4.676   0.880  0.7511 -0.0483  0.3930
11089SOL     OW35273   3.927   9.642   5.022  0.0054 -0.3903 -0.4825
11089SOL    HW135274   3.909   9.635   5.116  1.2703  0.7524 -0.1280
11089SOL    HW235275   3.910   9.554   4.989 -0.5538 -0.7943  0.7956
11090SOL     OW35276   3.592   7.756   7.501  0.0520  0.1757  0.1232
11090SOL    HW135277   3.663   7.798   7.452  1.1711 -0.2676  1.2948
11090SOL    HW235278   3.562   7.685   7.445  0.9161  0.0319 -0.1713
11091SOL     OW35279   5.782   0.469   5.698  0.4160  0.6373 -0.5169
11091SOL    HW135280   5.701   0.519   5.689 -0.7521 -0.5775  2.0110
11091SOL    HW235281   5.846   0.533   5.729 -0.3218  1.1178  0.0617
11092SOL     OW35282   4.186   3.172   4.159  0.2158  0.3625  0.6212
11092SOL    HW135283   4.101   3.213   4.141  0.1430 -0.1159 -0.1337
11092SOL    HW235284   4.230   3.234   4.218  0.0665  1.4761 -0.3990
11093SOL     OW35285  10.080   9.481   9.192 -0.1918  0.1282 -0.3870
11093SOL    HW135286  10.032   9.526   9.262  1.5334  0.4770  0.6057
11093SOL    HW235287  10.021   9.410   9.166  0.6881 -2.7590  4.3487
11094SOL     OW35288   3.635   5.064  10.351  0.3437 -0.2157 -0.4980
11094SOL    HW135289   3.720   5.048  10.312  0.2837  1.3415 -1.3604
11094SOL    HW235290   3.583   4.986  10.330  0.8241 -0.1267 -2.1252
11095SOL     OW35291   1.097  10.194   5.571  0.0249 -0.0871 -0.4647
11095SOL    HW135292   1.133  10.271   5.526  0.0578 -0.0418 -0.3620
11095SOL    HW235293   1.032  10.230   5.631 -1.2825 -0.2807 -1.6987
11096SOL     OW35294   7.096   0.673   7.705 -0.3688  0.1261  0.2944
11096SOL    HW135295   7.050   0.621   7.639  2.6149  1.0457 -2.7922
11096SOL    HW235296   7.147   0.609   7.755 -1.6625 -0.4551  0.9081
11097SOL     OW35297   9.730   1.293   9.463  0.3693  0.0035 -0.5891
11097SOL    HW135298   9.765   1.381   9.474 -0.2714  0.0606  1.3692
11097SOL    HW235299   9.780   1.239   9.525 -1.3622 -0.3541  0.5702
11098SOL     OW35300   4.634   3.637   6.734 -0.1896 -0.1808 -0.1904
11098SOL    HW135301   4.564   3.578   6.706 -0.2289 -0.7704  1.0780
11098SOL    HW235302   4.712   3.582   6.739  0.3246  0.4158 -1.3259
11099SOL     OW35303   2.332  11.014   3.950 -0.0624 -0.4185 -0.1629
11099SOL    HW135304   2.250  10.991   3.906 -0.3357  0.6625 -0.2456
11099SOL    HW235305   2.313  11.096   3.995  0.7835 -0.5097  0.3846
11100SOL     OW35306   4.939   6.999   4.238  0.2101 -0.2241  0.1668
11100SOL    HW135307   4.959   6.935   4.306  0.2031  0.2131  0.5885
11100SOL    HW235308   5.022   7.042   4.219 -0.1133  0.9716  1.2788
11101SOL     OW35309   3.759   3.182   9.127 -0.1680  0.3824 -0.4307
11101SOL    HW135310   3.664   3.182   9.120 -0.2116 -0.8012 -0.0038
11101SOL    HW235311   3.790   3.166   9.038 -0.4865 -3.2984 -0.0066
11102SOL     OW35312   6.741   7.138   2.550 -0.7112  0.1876 -0.3338
11102SOL    HW135313   6.797   7.193   2.495  0.5404 -2.0679 -1.4551
11102SOL    HW235314   6.801   7.092   2.608 -1.7867  0.4875  1.0840
11103SOL     OW35315   1.899   4.162   2.633 -0.3624 -0.2554 -0.0054
11103SOL    HW135316   1.985   4.181   2.596 -0.7462  2.3260  0.1693
11103SOL    HW235317   1.898   4.211   2.716 -2.1282  0.1804 -0.2403
11104SOL     OW35318   2.687   6.736   4.492 -0.3773 -0.5927  0.3082
11104SOL    HW135319   2.726   6.650   4.501  0.7095 -0.0013  1.5764
11104SOL    HW235320   2.627   6.745   4.567 -0.9649 -0.4723 -0.1606
11105SOL     OW35321   5.181   2.733   0.733 -0.0373  0.7989 -0.2184
11105SOL    HW135322   5.096   2.774   0.722 -0.9090 -0.6988  0.6440
11105SOL    HW235323   5.184   2.708   0.825  1.3834  0.9352 -0.2080
11106SOL     OW35324  10.656   5.164   8.535  0.1245 -0.5885  0.4031
11106SOL    HW135325  10.626   5.139   8.447  1.7394 -2.7152  0.3639
11106SOL    HW235326  10.617   5.100   8.593  0.4535 -0.2494  1.0113
11107SOL     OW35327   2.557   0.393   7.371  0.7056  0.4275  0.2991
11107SOL    HW135328   2.473   0.367   7.409  0.3850  1.5850  0.4135
11107SOL    HW235329   2.589   0.462   7.428  0.7213  1.4707 -0.9151
11108SOL     OW35330   0.512   8.372   9.499  0.1152 -0.6969  0.7205
11108SOL    HW135331   0.559   8.309   9.445 -1.2991 -1.3014  0.1292
11108SOL    HW235332   0.538   8.352   9.588  2.6459  0.4482  0.3110
11109SOL     OW35333   3.188   4.622   9.357 -0.3826 -0.1360 -0.2325
11109SOL    HW135334   3.236   4.554   9.310  1.3485 -0.9620  2.4649
11109SOL    HW235335   3.256   4.672   9.402 -1.7834  2.0481 -0.4034
11110SOL     OW35336   0.570   8.643   9.727 -0.2944 -0.4203 -0.5372
11110SOL    HW135337   0.664   8.640   9.745 -0.6494  0.0470  1.6576
11110SOL    HW235338   0.535   8.565   9.771 -1.1445  0.3453  0.1721
11111SOL     OW35339   0.896   8.895  10.748  0.3464  0.3571  0.1243
11111SOL    HW135340   0.878   8.965  10.810  1.5977  1.3312 -0.5876
11111SOL    HW235341   0.967   8.845  10.788  0.8665  0.7350 -0.3189
11112SOL     OW35342   2.909   8.444   2.918 -0.3156 -0.1071 -0.3555
11112SOL    HW135343   2.837   8.432   2.980 -0.4956 -0.1210 -0.5696
11112SOL    HW235344   2.988   8.426   2.970 -0.2706  2.4519  0.5974
11113SOL     OW35345  10.642   2.020   1.730  0.0378 -0.2933  0.4175
11113SOL    HW135346  10.691   2.071   1.794  1.1055 -0.7745 -0.0006
11113SOL    HW235347  10.697   2.020   1.651 -0.7313 -0.6602 -0.1362
11114SOL     OW35348   5.742   3.086   6.978  0.1629  0.5763 -0.3494
11114SOL    HW135349   5.739   3.055   6.887 -0.6634  0.8117 -0.4133
11114SOL    HW235350   5.706   3.175   6.974 -2.7559 -0.4353  0.5898
11115SOL     OW35351   5.041   3.354   9.341 -0.1418 -0.4215  0.2679
11115SOL    HW135352   4.963   3.321   9.298  0.7321  0.9834 -2.6550
11115SOL    HW235353   5.109   3.290   9.322  0.7310  1.1533 -2.4239
11116SOL     OW35354  10.972   1.962  10.167 -0.5547 -0.1392  0.0905
11116SOL    HW135355  11.006   1.873  10.157  0.1698  0.2352 -1.0534
11116SOL    HW235356  11.020   1.997  10.242  0.5113 -0.1323 -0.5652
11117SOL     OW35357   4.182   7.318   2.477  0.0170 -0.6202 -0.0476
11117SOL    HW135358   4.121   7.245   2.470 -0.6578 -0.1858  1.0221
11117SOL    HW235359   4.181   7.359   2.391  0.6619 -2.0346 -0.7756
11118SOL     OW35360  10.866   0.634   6.230  0.1290  0.2864 -0.5095
11118SOL    HW135361  10.908   0.581   6.298 -3.3100  0.5611  2.0903
11118SOL    HW235362  10.822   0.571   6.174 -0.3688  0.1986 -0.0271
11119SOL     OW35363   2.966   4.295  10.545  0.0353  0.3257 -0.2984
11119SOL    HW135364   3.044   4.344  10.572 -0.1712  0.6799 -0.3436
11119SOL    HW235365   3.000   4.220  10.496  0.3475  0.4846 -0.3234
11120SOL     OW35366   2.069   6.352  10.559  0.0947 -0.1586 -0.1070
11120SOL    HW135367   2.119   6.337  10.478 -0.2055 -0.5779 -0.2224
11120SOL    HW235368   2.135   6.360  10.627  0.4032  1.1874 -0.5291
11121SOL     OW35369   7.019  10.158   7.980  0.2506  0.2466  0.2148
11121SOL    HW135370   7.061  10.084   7.937 -0.6517  0.3752 -0.9463
11121SOL    HW235371   7.033  10.143   8.074  3.9218  0.9457 -0.0756
11122SOL     OW35372   4.423   5.671   1.224 -0.5030 -0.4575  0.0234
11122SOL    HW135373   4.445   5.705   1.137 -0.2717 -1.5941 -0.3931
11122SOL    HW235374   4.505   5.679   1.274  0.2628 -2.4770 -0.7902
11123SOL     OW35375   1.707   8.998   7.615  0.3056 -0.2669 -0.1759
11123SOL    HW135376   1.775   9.059   7.585  0.9791 -0.7276  0.3834
11123SOL    HW235377   1.755   8.917   7.634 -0.3755 -0.5311  0.4317
11124SOL     OW35378   0.904   8.041   7.583 -0.2291 -0.0896 -0.1751
11124SOL    HW135379   0.948   8.106   7.638  0.9910 -0.9646 -0.0723
11124SOL    HW235380   0.897   8.083   7.497 -1.1781  0.8783  0.3549
11125SOL     OW35381  10.269   2.483   0.640 -0.2810 -0.2503  0.2588
11125SOL    HW135382  10.251   2.548   0.707  0.7986 -2.1590  2.5803
11125SOL    HW235383  10.208   2.411   0.659 -0.1836 -0.7086 -1.0344
11126SOL     OW35384   1.634   3.167   0.150  0.8746  0.0744  0.2807
11126SOL    HW135385   1.643   3.130   0.063 -0.3635 -1.0529  0.6067
11126SOL    HW235386   1.579   3.244   0.137  1.7843  0.6781 -0.1043
11127SOL     OW35387   1.034   8.037   5.219  0.0218  0.2775 -0.5965
11127SOL    HW135388   0.963   7.989   5.263  1.4629 -0.7838  0.6893
11127SOL    HW235389   0.989   8.097   5.160 -1.9070 -2.0932 -1.6967
11128SOL     OW35390   5.574   5.827   9.949  0.2102  0.6807  0.4647
11128SOL    HW135391   5.554   5.813  10.041 -1.2340 -1.9136 -0.1528
11128SOL    HW235392   5.624   5.909   9.947  0.8078  0.4858  3.5768
11129SOL     OW35393   1.365   1.713   9.457  0.4013  0.2474  0.1564
11129SOL    HW135394   1.426   1.639   9.455  0.2697  0.1064  0.9400
11129SOL    HW235395   1.314   1.699   9.537 -0.3738  0.5881 -0.2660
11130SOL     OW35396   9.082  10.722   1.286  0.2956  0.1631 -0.0712
11130SOL    HW135397   9.038  10.802   1.255  0.5921 -0.1854 -1.4350
11130SOL    HW235398   9.075  10.727   1.381  0.6415  2.0191 -0.0966
11131SOL     OW35399   8.483   3.303   3.151 -0.1199 -0.6484 -0.3494
11131SOL    HW135400   8.471   3.398   3.144  0.8622 -0.5665 -1.1952
11131SOL    HW235401   8.499   3.287   3.244  0.9090  0.1743 -0.3762
11132SOL     OW35402   4.638   4.770  10.249  0.0497 -0.2358 -0.2399
11132SOL    HW135403   4.607   4.840  10.193 -0.7564  0.4839  1.0547
11132SOL    HW235404   4.592   4.692  10.218 -0.8904  0.2786 -0.1931
11133SOL     OW35405   3.579   4.992   3.064  0.0737  0.3007  0.5921
11133SOL    HW135406   3.613   4.942   3.138  1.9934  0.3812 -0.1990
11133SOL    HW235407   3.628   5.074   3.066 -1.3449  1.1870  0.4436
11134SOL     OW35408   3.390   0.776   0.288 -0.1573  1.0617 -0.1071
11134SOL    HW135409   3.471   0.771   0.239 -0.5715  0.1950 -0.7400
11134SOL    HW235410   3.417   0.792   0.379  0.7803 -0.2692 -0.1244
11135SOL     OW35411   2.343   4.805   9.029 -0.3995 -0.0126 -0.0669
11135SOL    HW135412   2.279   4.853   8.976 -0.6745  0.5101  0.7071
11135SOL    HW235413   2.426   4.816   8.983 -0.6493  0.3443 -0.4445
11136SOL     OW35414  10.869   2.086   8.623  0.3822  0.3951  0.1109
11136SOL    HW135415  10.786   2.131   8.607  0.2453  0.0155 -0.2478
11136SOL    HW235416  10.853   2.032   8.700  0.1949  0.0718 -0.1514
11137SOL     OW35417   3.068   3.263   2.653  0.0115  0.1915  0.4119
11137SOL    HW135418   3.080   3.338   2.711  0.8991 -0.7825  1.5315
11137SOL    HW235419   3.121   3.283   2.576  0.6091  0.5065  0.9047
11138SOL     OW35420   2.990   9.983   6.585  0.0669  0.5307  0.2008
11138SOL    HW135421   3.084   9.964   6.586  0.1769 -0.6368 -5.1710
11138SOL    HW235422   2.984  10.073   6.554 -0.5733  0.2840 -0.4089
11139SOL     OW35423   8.755   9.900   6.373  0.1467  0.0674 -0.0167
11139SOL    HW135424   8.701   9.825   6.349 -1.5472  1.3767 -0.4906
11139SOL    HW235425   8.705   9.976   6.343  1.2743  1.4569  1.4619
11140SOL     OW35426   2.628   1.680   8.875 -1.1874 -0.3288 -0.0764
11140SOL    HW135427   2.626   1.749   8.809  0.0535  0.9684  1.1818
11140SOL    HW235428   2.585   1.719   8.952  0.0229 -0.7251  0.8310
11141SOL     OW35429   3.471   2.400   2.086 -0.2327  0.2365  0.0320
11141SOL    HW135430   3.500   2.385   1.995 -2.8634 -1.8809 -0.5694
11141SOL    HW235431   3.468   2.313   2.125  2.7845  1.2118  2.9712
11142SOL     OW35432   5.057  10.375   7.769 -0.1605 -0.0368  0.4112
11142SOL    HW135433   5.138  10.415   7.802 -0.9710  1.0277  1.1994
11142SOL    HW235434   5.081  10.338   7.684  0.4690  3.0046 -0.8795
11143SOL     OW35435   2.666   1.104  10.617 -0.2394  0.1492  0.3791
11143SOL    HW135436   2.755   1.106  10.581 -0.6733 -1.3430 -0.9214
11143SOL    HW235437   2.624   1.182  10.582  0.2399  0.2728  0.0620
11144SOL     OW35438   5.386   2.958  10.977  0.3016  0.6350 -0.3196
11144SOL    HW135439   5.398   3.001  11.062  1.4346  0.8846 -0.5995
11144SOL    HW235440   5.360   3.028  10.918  1.8728  0.9206 -0.7106
11145SOL     OW35441   9.349   1.583   6.152 -0.0966  0.0137  0.3836
11145SOL    HW135442   9.381   1.492   6.158  3.8341  0.7678 -3.4137
11145SOL    HW235443   9.375   1.623   6.234 -0.4111 -1.8611  1.4682
11146SOL     OW35444   3.901   6.468   9.509  0.3474  0.4377  0.1588
11146SOL    HW135445   3.967   6.515   9.458  0.3246 -0.0636 -0.3374
11146SOL    HW235446   3.824   6.526   9.506  0.2124  0.2348 -0.7335
11147SOL     OW35447   1.361   6.419   0.904 -0.3782  0.8609  0.2271
11147SOL    HW135448   1.427   6.426   0.974  0.5031 -1.0802 -0.3477
11147SOL    HW235449   1.313   6.339   0.924  0.5477 -0.3119 -1.8699
11148SOL     OW35450   7.412   3.842   5.263 -0.5830 -0.1910 -0.2427
11148SOL    HW135451   7.402   3.831   5.358 -1.0801 -2.1517 -0.4792
11148SOL    HW235452   7.343   3.903   5.238 -1.2690 -0.6613  0.4749
11149SOL     OW35453   3.208   6.275   2.392 -0.1748  0.5523 -0.0042
11149SOL    HW135454   3.180   6.183   2.401 -1.9618  1.0679  0.0520
11149SOL    HW235455   3.271   6.273   2.321  2.5835 -1.2469  2.2709
11150SOL     OW35456   1.456   1.409   1.710  0.0541  0.5073 -0.0989
11150SOL    HW135457   1.402   1.438   1.783 -1.9092  0.8885 -1.5992
11150SOL    HW235458   1.456   1.484   1.649  1.1608  0.0076 -0.7518
11151SOL     OW35459   3.518   5.799   8.305 -0.0545  0.1871 -0.1494
11151SOL    HW135460   3.540   5.760   8.220  0.6500 -0.3288  0.2595
11151SOL    HW235461   3.505   5.892   8.286 -1.5151 -0.1719 -1.1006
11152SOL     OW35462   0.678   2.232   2.536  0.4217  0.4983  0.2495
11152SOL    HW135463   0.684   2.137   2.540 -0.2833  0.4522  0.5976
11152SOL    HW235464   0.609   2.254   2.600 -1.7254  0.9749 -2.0443
11153SOL     OW35465   4.859   0.908  10.889  0.1859 -0.2263 -0.5827
11153SOL    HW135466   4.915   0.959  10.948  0.5717  0.7182 -1.7251
11153SOL    HW235467   4.856   0.960  10.808 -4.1641  0.9393  0.0830
11154SOL     OW35468   6.460   8.370   5.336  0.2779 -0.0804  0.1814
11154SOL    HW135469   6.441   8.276   5.337 -0.2099 -0.1067  4.1827
11154SOL    HW235470   6.555   8.375   5.330  0.2840 -0.7771 -0.5412
11155SOL     OW35471   0.376   2.260   6.921 -0.2150 -0.6566 -0.0101
11155SOL    HW135472   0.467   2.257   6.893  0.0483  0.8776  0.5678
11155SOL    HW235473   0.380   2.254   7.016 -0.5481  1.1412  0.1574
11156SOL     OW35474   5.427   4.208   9.445 -0.0958  0.4219  0.3879
11156SOL    HW135475   5.412   4.291   9.399 -0.5180 -0.3057 -0.8383
11156SOL    HW235476   5.455   4.148   9.376 -0.8486 -0.7415  1.0642
11157SOL     OW35477   2.710   0.196   1.617  0.2351  0.4752  0.3156
11157SOL    HW135478   2.737   0.284   1.644 -0.7002  1.1356 -0.8310
11157SOL    HW235479   2.629   0.209   1.568 -0.1066 -1.0690  0.4000
11158SOL     OW35480   7.677   2.728   0.888  0.2592  0.0058 -0.2853
11158SOL    HW135481   7.698   2.726   0.795  2.8939  1.7467  0.1715
11158SOL    HW235482   7.745   2.674   0.929 -0.5009 -0.2314  0.7018
11159SOL     OW35483   6.309   4.009   3.700  0.3566  0.5732 -0.2811
11159SOL    HW135484   6.384   4.057   3.663  0.8362 -1.3967 -2.0843
11159SOL    HW235485   6.339   3.981   3.786  1.3234  0.6876 -0.5656
11160SOL     OW35486  10.795   2.443   2.374 -0.4429 -0.0648  0.3809
11160SOL    HW135487  10.766   2.381   2.440 -1.0677 -1.1164 -0.8315
11160SOL    HW235488  10.869   2.489   2.414 -3.1928  2.2205  3.3414
11161SOL     OW35489  10.024   7.988  10.584 -0.5072 -0.1205  0.8136
11161SOL    HW135490   9.959   8.056  10.568 -0.2354  0.0300  0.3441
11161SOL    HW235491  10.037   7.988  10.679 -0.8891  0.1266  0.8645
11162SOL     OW35492   3.949   2.765   8.278  0.0269 -0.5600 -0.3209
11162SOL    HW135493   4.009   2.721   8.339  0.8088  0.6511 -0.1703
11162SOL    HW235494   3.944   2.705   8.203  0.1605 -1.4217  0.3333
11163SOL     OW35495   7.429   6.572   7.941  0.2190  0.4077  0.5077
11163SOL    HW135496   7.453   6.484   7.970  1.1150  0.8955  1.3165
11163SOL    HW235497   7.389   6.613   8.018  1.4538  1.2932  0.7165
11164SOL     OW35498   9.134   7.069   9.934  0.4481 -0.2675 -0.1908
11164SOL    HW135499   9.104   6.984   9.902 -0.8330  0.9424 -2.5039
11164SOL    HW235500   9.171   7.051  10.020 -2.5711 -2.7256  0.7983
11165SOL     OW35501  10.918   5.356   9.697  0.0154 -0.9275  0.2447
11165SOL    HW135502  10.987   5.390   9.640 -1.0899 -0.5293 -0.9099
11165SOL    HW235503  10.874   5.435   9.731 -0.9970 -1.1691 -0.4697
11166SOL     OW35504   2.443  10.735   5.281 -0.0190 -0.4474 -0.0239
11166SOL    HW135505   2.360  10.783   5.272  0.2492 -0.1548 -0.9698
11166SOL    HW235506   2.510  10.799   5.260  0.4662 -0.6684  0.8092
11167SOL     OW35507   7.347   0.320   0.271  0.2366  0.1158  0.1955
11167SOL    HW135508   7.313   0.231   0.261  0.5322  0.0158  0.0616
11167SOL    HW235509   7.300   0.356   0.346 -1.2591  0.5038 -0.8802
11168SOL     OW35510   2.480   5.035   3.563 -0.6684 -0.2055  0.8523
11168SOL    HW135511   2.512   4.948   3.538  0.6776  0.0261  1.6866
11168SOL    HW235512   2.551   5.095   3.540 -1.1523  0.5358  1.2520
11169SOL     OW35513   1.341   5.391   4.951 -0.1425  0.2936  0.2083
11169SOL    HW135514   1.332   5.408   5.045 -1.4529  0.4195  0.0776
11169SOL    HW235515   1.434   5.375   4.939  0.5812  3.1973  1.0562
11170SOL     OW35516   3.971   1.601   1.295 -0.2228 -0.0031  0.4547
11170SOL    HW135517   3.879   1.589   1.318 -0.6606 -0.4038 -1.3213
11170SOL    HW235518   3.994   1.524   1.243  1.0821  0.1610  0.7351
11171SOL     OW35519   3.974   6.540   1.834  0.0497 -0.2800  0.1817
11171SOL    HW135520   4.013   6.455   1.851 -0.3849 -0.3998  0.5808
11171SOL    HW235521   4.034   6.602   1.876  0.0475 -0.4317  0.4107
11172SOL     OW35522   4.327   5.024   1.586  0.2845 -0.1611 -0.3893
11172SOL    HW135523   4.374   4.943   1.608 -0.0245 -0.8540 -2.0802
11172SOL    HW235524   4.395   5.091   1.583  0.5395 -0.3238  1.0867
11173SOL     OW35525   9.820   1.422   1.235  0.0080  0.7889 -0.0691
11173SOL    HW135526   9.868   1.396   1.313  1.9701  1.5309 -0.9665
11173SOL    HW235527   9.809   1.341   1.186 -0.3706  0.4826  0.5057
11174SOL     OW35528   4.476   9.836   4.060  0.0118  0.0768  0.9053
11174SOL    HW135529   4.395   9.883   4.040  0.0552 -0.6337 -1.2094
11174SOL    HW235530   4.544   9.903   4.059  0.0139  0.1511 -1.6773
11175SOL     OW35531   3.320   2.769   6.593  0.0354  0.1609 -0.1871
11175SOL    HW135532   3.332   2.720   6.512  2.4191 -3.0004  1.8367
11175SOL    HW235533   3.374   2.847   6.582 -1.6384  1.1053 -2.4512
11176SOL     OW35534   1.217   9.229   2.832 -0.2695  0.6474 -0.3298
11176SOL    HW135535   1.226   9.154   2.891  1.4788  0.9393 -0.1646
11176SOL    HW235536   1.256   9.302   2.879  0.8604  0.9689 -1.6809
11177SOL     OW35537   7.820   2.134   2.859  0.2432 -0.0703 -0.8131
11177SOL    HW135538   7.834   2.138   2.954  1.1067  0.0037 -0.9316
11177SOL    HW235539   7.728   2.110   2.849  0.3045 -0.7320  0.0472
11178SOL     OW35540  10.672   6.195   7.275 -0.0856  0.2845  0.0023
11178SOL    HW135541  10.583   6.168   7.249 -0.3514  0.3392  0.7976
11178SOL    HW235542  10.663   6.215   7.368  0.8329  0.0075  0.1557
11179SOL     OW35543   2.682   8.569   1.650  0.1203 -0.1892  0.0523
11179SOL    HW135544   2.594   8.571   1.613 -0.5427 -2.3015  1.3838
11179SOL    HW235545   2.735   8.528   1.582  0.2341  1.4803 -0.9319
11180SOL     OW35546   0.118   3.384   7.953 -0.1165 -0.4528  0.1929
11180SOL    HW135547   0.149   3.409   8.040 -0.9719 -1.5631  0.8431
11180SOL    HW235548   0.024   3.401   7.956 -0.0379  0.2573 -0.8111
11181SOL     OW35549   2.898   4.326   2.416  0.5737 -0.7468  0.2899
11181SOL    HW135550   2.860   4.364   2.495 -0.8505 -1.1581 -0.1566
11181SOL    HW235551   2.948   4.398   2.377 -0.1756 -0.0055  0.6533
11182SOL     OW35552   6.563   3.874   1.877  0.5664  0.1686 -0.3003
11182SOL    HW135553   6.509   3.890   1.955 -0.4523  0.2796 -1.0076
11182SOL    HW235554   6.571   3.960   1.836 -1.5529 -0.3405 -1.9709
11183SOL     OW35555  10.597   0.309   1.529  0.0061 -0.4540  0.0120
11183SOL    HW135556  10.523   0.342   1.478  1.1394  0.1599 -1.3190
11183SOL    HW235557  10.613   0.376   1.595 -0.8168 -0.7543  0.5363
11184SOL     OW35558   2.291  10.764   0.808 -0.8312 -0.7339  0.0754
11184SOL    HW135559   2.269  10.847   0.848  2.4241  0.5761 -0.5246
11184SOL    HW235560   2.208  10.731   0.773 -2.0070  3.1250 -1.2567
11185SOL     OW35561   5.072   3.537   4.543 -0.3542  0.1066  0.5446
11185SOL    HW135562   5.147   3.478   4.540 -0.1730  0.3340  0.5124
11185SOL    HW235563   5.036   3.526   4.631 -1.7872 -1.8350 -0.2355
11186SOL     OW35564   3.834   9.648   3.875 -0.2742 -0.6327  0.2548
11186SOL    HW135565   3.815   9.716   3.811  0.2420  0.1682  0.9313
11186SOL    HW235566   3.754   9.596   3.880 -0.1333 -1.0620 -1.4395
11187SOL     OW35567   6.151   8.046   0.310 -0.2628  0.0658  0.0453
11187SOL    HW135568   6.116   8.131   0.334 -1.6180 -0.2086 -0.8237
11187SOL    HW235569   6.107   8.025   0.227 -0.2614 -1.6461  0.4468
11188SOL     OW35570   2.144   3.212   1.070  0.2004  0.3545 -0.5618
11188SOL    HW135571   2.053   3.205   1.097  0.6014  0.4917  0.8809
11188SOL    HW235572   2.193   3.161   1.134  1.2131  0.8498 -0.9128
11189SOL     OW35573   1.860   1.521   1.854  0.5113  0.1273  0.5173
11189SOL    HW135574   1.856   1.439   1.903 -0.3035 -0.7746 -0.9971
11189SOL    HW235575   1.777   1.565   1.874  0.2796 -0.1357  0.1523
11190SOL     OW35576   8.622   4.506   2.488 -0.4115 -0.8531 -0.3421
11190SOL    HW135577   8.634   4.484   2.580 -0.6373 -0.7118 -0.2776
11190SOL    HW235578   8.527   4.501   2.474 -0.5593  0.7275 -0.1541
11191SOL     OW35579  11.036   8.741   0.408 -0.3059 -0.1190  0.0340
11191SOL    HW135580  11.043   8.706   0.497  0.1256 -1.1151 -0.3836
11191SOL    HW235581  11.115   8.710   0.364 -0.1196  1.0355 -0.4858
11192SOL     OW35582   4.247   1.230   8.856  0.0862  0.2658  0.1943
11192SOL    HW135583   4.254   1.169   8.930 -1.1165 -2.2160 -1.5938
11192SOL    HW235584   4.335   1.234   8.820  0.1419 -0.6787  0.1850
11193SOL     OW35585   0.124   2.674   4.082  0.6051  0.3011 -0.5804
11193SOL    HW135586   0.090   2.587   4.063  1.4366 -0.3140  0.6767
11193SOL    HW235587   0.106   2.688   4.175  0.1244  1.6549 -0.8410
11194SOL     OW35588   2.897   2.719   4.353  0.0929  0.5505 -0.1676
11194SOL    HW135589   2.906   2.625   4.366 -0.5209  0.7216  1.8909
11194SOL    HW235590   2.802   2.734   4.356  0.2406  1.3783  1.0564
11195SOL     OW35591   0.297   8.403   7.793 -0.5962  0.5330 -0.4475
11195SOL    HW135592   0.339   8.489   7.793  0.3138  0.1109 -1.0641
11195SOL    HW235593   0.334   8.358   7.716 -1.2485 -0.3109 -0.2855
11196SOL     OW35594   3.232   4.020   9.435 -0.1301  0.2705  0.8889
11196SOL    HW135595   3.160   4.039   9.495 -1.2444  2.2034 -0.9073
11196SOL    HW235596   3.311   4.030   9.488 -1.0830  1.5523  2.1268
11197SOL     OW35597   0.724   8.175  10.539  0.0144  0.3749  0.1309
11197SOL    HW135598   0.703   8.131  10.621  0.7157  0.0133  0.1270
11197SOL    HW235599   0.723   8.268  10.560  0.1334  0.2835  0.5378
11198SOL     OW35600   3.582   3.244   9.920  0.2937  0.2029 -0.2775
11198SOL    HW135601   3.549   3.276   9.836  0.9992  0.4861 -0.4579
11198SOL    HW235602   3.677   3.255   9.913  0.2645  1.8294  1.2086
11199SOL     OW35603   8.709   2.075   7.274 -0.5780  0.4408 -0.1034
11199SOL    HW135604   8.649   2.035   7.337 -0.5010 -0.7039 -0.7306
11199SOL    HW235605   8.687   2.033   7.190  0.5914  0.5400 -0.4784
11200SOL     OW35606   2.016   8.480   7.909  0.0978 -0.2912  0.1429
11200SOL    HW135607   2.090   8.528   7.947 -0.7220  0.5758  0.6983
11200SOL    HW235608   1.975   8.438   7.984 -1.2642  1.0545  0.2015
11201SOL     OW35609   2.227   8.660   6.591  0.4769  0.4320 -0.5537
11201SOL    HW135610   2.149   8.626   6.547 -0.9032  1.1212  1.2575
11201SOL    HW235611   2.283   8.583   6.603 -0.4180 -0.2884 -0.8474
11202SOL     OW35612   3.819   1.370   1.606 -0.0247  0.4012  0.1307
11202SOL    HW135613   3.898   1.316   1.611  0.5673  0.8170 -2.9250
11202SOL    HW235614   3.750   1.309   1.580  0.0596  0.6281 -0.6384
11203SOL     OW35615   7.755   1.499   3.257  0.1319  0.1068 -0.2578
11203SOL    HW135616   7.838   1.501   3.306  0.7780  0.3714 -1.3310
11203SOL    HW235617   7.713   1.418   3.286  0.1941  0.5617  1.1954
11204SOL     OW35618   2.243   0.824  10.073  0.1348  0.0992 -0.0724
11204SOL    HW135619   2.264   0.914  10.099 -0.3666 -0.3946  2.2737
11204SOL    HW235620   2.312   0.801  10.010 -0.8296  2.7210 -2.2932
11205SOL     OW35621   3.458  10.972   4.036 -0.0057  0.3262  0.7728
11205SOL    HW135622   3.466  10.972   3.941 -1.0233  1.4517  0.6629
11205SOL    HW235623   3.435  10.881   4.057  1.0462 -0.1274  0.0403
11206SOL     OW35624   1.512   0.018   1.490  0.0613 -0.1441 -0.5101
11206SOL    HW135625   1.460  -0.057   1.462 -0.0545  0.5059 -2.1512
11206SOL    HW235626   1.496   0.025   1.584 -2.8325  0.0285 -0.9325
11207SOL     OW35627   4.117   2.762   0.503  0.5304  0.0675  0.2231
11207SOL    HW135628   4.146   2.818   0.575 -0.4626  1.2050 -0.2300
11207SOL    HW235629   4.069   2.821   0.445 -1.8393 -1.5046  0.4492
11208SOL     OW35630   1.053   3.535   2.263 -0.6141  0.5122  0.1740
11208SOL    HW135631   1.025   3.600   2.328 -1.8291 -0.2516  0.4449
11208SOL    HW235632   1.036   3.451   2.304  1.2589 -0.0087 -0.0505
11209SOL     OW35633  11.076   2.301   2.247  0.2466  0.5800  0.2434
11209SOL    HW135634  11.161   2.341   2.229 -0.3621  1.8292 -0.0334
11209SOL    HW235635  11.019   2.375   2.270 -1.7351  0.3851 -3.2758
11210SOL     OW35636   2.707   9.636   9.476 -0.0337  0.7331 -0.6019
11210SOL    HW135637   2.751   9.588   9.405 -0.8105 -0.2034 -0.4801
11210SOL    HW235638   2.768   9.706   9.499  0.4434  0.7736 -1.8734
11211SOL     OW35639  10.112   6.056  10.925  0.1708 -0.4783 -0.6116
11211SOL    HW135640  10.202   6.087  10.935  0.2519 -0.9889  0.4421
11211SOL    HW235641  10.120   5.961  10.920 -0.3974 -0.6544  1.1311
11212SOL     OW35642   4.485   7.384   8.262 -0.0303 -0.2986  0.1562
11212SOL    HW135643   4.462   7.295   8.236  1.3603 -0.0969 -2.0675
11212SOL    HW235644   4.424   7.439   8.212 -0.2716  0.0309  0.8034
11213SOL     OW35645   3.272   1.787   7.278 -0.2421  0.3990 -0.4692
11213SOL    HW135646   3.346   1.755   7.228 -0.7079  1.0508 -1.6139
11213SOL    HW235647   3.311   1.844   7.345  0.2937  0.8651 -1.1648
11214SOL     OW35648   4.043   6.517   6.877 -0.0401  0.1367  0.2393
11214SOL    HW135649   4.083   6.448   6.825  2.0565  0.9885  0.6141
11214SOL    HW235650   4.049   6.486   6.968  1.2977  0.9421  0.4523
11215SOL     OW35651  10.564   8.546  10.021 -0.1976  0.0956 -0.3117
11215SOL    HW135652  10.483   8.549   9.971 -0.4123 -0.4445 -0.0107
11215SOL    HW235653  10.611   8.471   9.986  0.5062  0.8208 -0.9695
11216SOL     OW35654   0.606   6.702   0.568 -0.6205 -0.1172  0.5982
11216SOL    HW135655   0.518   6.727   0.541 -0.6359  0.0235  0.7806
11216SOL    HW235656   0.611   6.608   0.549 -0.2184  0.1988 -1.0602
11217SOL     OW35657   8.600   6.009   9.445 -0.3109 -0.1954 -0.2042
11217SOL    HW135658   8.678   6.062   9.430 -2.1609  2.2089 -2.2308
11217SOL    HW235659   8.565   6.042   9.528  0.8159 -1.3740  0.7802
11218SOL     OW35660   5.787   6.262   0.954 -0.1794 -0.3287  0.8787
11218SOL    HW135661   5.838   6.226   0.881 -1.1686  0.5556 -0.2931
11218SOL    HW235662   5.823   6.349   0.969 -0.6375 -0.1144  0.7578
11219SOL     OW35663   3.481   4.189   9.861  0.1532 -0.6706 -0.0052
11219SOL    HW135664   3.571   4.192   9.827  0.4367 -0.0370  0.7815
11219SOL    HW235665   3.491   4.162   9.952 -0.4744 -0.7896  0.0301
11220SOL     OW35666   5.514   7.807   7.388 -0.1402 -0.4117 -0.8179
11220SOL    HW135667   5.563   7.848   7.459  1.2116  0.1186 -2.0041
11220SOL    HW235668   5.425   7.841   7.397  0.5728  1.5537 -0.8089
11221SOL     OW35669  10.217   6.088   3.025 -0.3706  0.6949 -0.0764
11221SOL    HW135670  10.207   6.004   2.979  2.6600 -0.5537  1.2521
11221SOL    HW235671  10.253   6.147   2.959 -0.0647  0.1731 -0.3901
11222SOL     OW35672   4.341   3.975   2.439  0.0297 -0.2801  0.0549
11222SOL    HW135673   4.375   4.060   2.414  0.3019 -0.6022 -0.7031
11222SOL    HW235674   4.246   3.982   2.427  0.1615 -0.4657 -1.2325
11223SOL     OW35675   1.416   4.325   0.894  0.5257 -0.5883  0.0078
11223SOL    HW135676   1.341   4.267   0.907  1.0084 -1.1905  0.1919
11223SOL    HW235677   1.384   4.412   0.918 -0.6572 -0.4909 -1.7389
11224SOL     OW35678  10.496   4.122   3.400  0.0989  0.0105 -0.4276
11224SOL    HW135679  10.569   4.140   3.341 -1.3087 -0.9165 -2.5679
11224SOL    HW235680  10.451   4.206   3.408  0.1070  0.0746 -0.9851
11225SOL     OW35681   2.721   3.364  11.072  0.2216 -0.4264  0.1267
11225SOL    HW135682   2.676   3.430  11.125  0.4166 -0.1292 -0.0730
11225SOL    HW235683   2.666   3.355  10.994 -0.0098 -0.7863  0.3294
11226SOL     OW35684  10.268   3.339   0.386  0.1483 -0.3448  0.0716
11226SOL    HW135685  10.201   3.404   0.364  0.1501 -0.3818 -0.0400
11226SOL    HW235686  10.256   3.269   0.323  0.0228 -0.5400  0.3140
11227SOL     OW35687   0.318   5.634   4.765 -0.0557  0.2324  0.2454
11227SOL    HW135688   0.315   5.655   4.859 -1.0018 -0.4324  0.3729
11227SOL    HW235689   0.343   5.542   4.763 -1.0904 -0.0514 -0.1112
11228SOL     OW35690   5.135   7.164   9.453  0.0539 -0.1588 -0.4064
11228SOL    HW135691   5.085   7.083   9.459 -0.5636  0.2225 -0.1997
11228SOL    HW235692   5.141   7.182   9.359 -0.8356  0.1571 -0.4170
11229SOL     OW35693   9.498   4.315   4.710 -0.2533 -0.6110 -0.1137
11229SOL    HW135694   9.461   4.278   4.630  1.4597  1.5111 -2.0422
11229SOL    HW235695   9.422   4.343   4.761 -1.4917 -4.2289  0.2886
11230SOL     OW35696   6.276   5.239   0.052  0.4223 -0.0315 -0.1808
11230SOL    HW135697   6.344   5.302   0.075 -0.3686  0.7006  0.2016
11230SOL    HW235698   6.292   5.219  -0.040  1.7285 -0.6137  0.1447
11231SOL     OW35699   0.918   2.830   3.759 -0.4476 -0.6693 -0.0443
11231SOL    HW135700   1.006   2.793   3.751  0.6857  2.1741 -2.4216
11231SOL    HW235701   0.862   2.767   3.712  1.5240  0.6417 -4.6973
11232SOL     OW35702   5.784   0.948   0.675 -0.1255  0.0539 -0.0985
11232SOL    HW135703   5.691   0.970   0.672 -0.9805 -2.7985  1.5352
11232SOL    HW235704   5.803   0.936   0.768  1.2643 -1.5460 -0.5315
11233SOL     OW35705  10.541   7.617   5.369  0.2979 -0.1913 -0.6746
11233SOL    HW135706  10.574   7.603   5.458  0.9653 -0.2122 -0.9214
11233SOL    HW235707  10.446   7.607   5.377 -0.1052  3.3161  0.7546
11234SOL     OW35708   0.364   3.513  10.378 -0.5156  0.2388  0.1778
11234SOL    HW135709   0.327   3.487  10.294  1.8641  0.0640 -0.9009
11234SOL    HW235710   0.367   3.609  10.374 -0.8115  0.2530  0.2644
11235SOL     OW35711   4.558   4.549   0.211  0.8480 -0.4174 -0.5395
11235SOL    HW135712   4.503   4.625   0.191  2.6707  1.1621  0.1620
11235SOL    HW235713   4.496   4.482   0.241 -0.7709  0.9727 -0.6286
11236SOL     OW35714   1.005   3.078   1.714  0.0682 -0.2523 -0.5522
11236SOL    HW135715   1.014   3.065   1.619  1.0869  0.5923 -0.5885
11236SOL    HW235716   1.086   3.122   1.740 -1.0936  1.4488  0.3640
11237SOL     OW35717   7.922   2.196   6.405  0.1429  0.1840 -0.6489
11237SOL    HW135718   7.948   2.286   6.387 -0.2321  0.0675 -1.8733
11237SOL    HW235719   7.951   2.147   6.328 -1.3171 -0.4058 -0.8576
11238SOL     OW35720   3.113   7.190   1.234  0.4387 -0.0203 -0.6691
11238SOL    HW135721   3.123   7.095   1.239  0.0391  0.0075  1.0181
11238SOL    HW235722   3.068   7.204   1.150  1.7195 -1.1781 -1.6140
11239SOL     OW35723   2.495   7.790   6.713 -0.0785  0.3988  0.5234
11239SOL    HW135724   2.488   7.885   6.722 -0.3700  0.5817 -1.3047
11239SOL    HW235725   2.445   7.756   6.787 -2.7456  1.7057 -0.5176
11240SOL     OW35726   2.669  10.417   3.949 -0.0191 -0.2023 -0.1938
11240SOL    HW135727   2.731  10.413   3.876  1.0446  0.7725  0.6144
11240SOL    HW235728   2.650  10.511   3.958 -0.0328 -0.2986  0.8562
11241SOL     OW35729   1.590   7.863   2.590 -0.4345 -0.6686 -0.0371
11241SOL    HW135730   1.591   7.914   2.670 -2.0125 -3.4175  1.9035
11241SOL    HW235731   1.668   7.892   2.542 -0.2310  2.1024  1.7325
11242SOL     OW35732   5.186   0.004   1.937 -0.1793 -0.2180 -0.1987
11242SOL    HW135733   5.143  -0.070   1.980 -1.8906  0.8173 -0.0435
11242SOL    HW235734   5.230   0.051   2.008 -0.2128 -0.3463 -0.0942
11243SOL     OW35735   8.199   3.363   4.056 -0.2854  0.0673  1.0832
11243SOL    HW135736   8.191   3.296   4.123  0.6913 -2.6143 -1.2986
11243SOL    HW235737   8.291   3.359   4.028 -1.1819 -0.9984 -2.2558
11244SOL     OW35738   7.254   9.257   8.987 -0.2823  0.4546 -0.0331
11244SOL    HW135739   7.227   9.348   8.995 -1.4829  0.0924  0.2006
11244SOL    HW235740   7.328   9.260   8.926  0.5816  1.7276  1.0227
11245SOL     OW35741   4.965  11.097   6.777  0.2344  0.3358  0.6733
11245SOL    HW135742   4.912  11.154   6.721  0.4696  1.0331  1.1352
11245SOL    HW235743   5.030  11.058   6.718  0.5351  1.1249  0.4617
11246SOL     OW35744   7.346   6.972   8.424 -0.7679 -0.1529 -0.1313
11246SOL    HW135745   7.293   6.927   8.489 -0.7598  2.0838  1.5443
11246SOL    HW235746   7.424   7.001   8.473  0.1167  0.0471 -1.5875
11247SOL     OW35747   4.913   4.366   2.345  0.3628  0.5827 -1.0714
11247SOL    HW135748   4.969   4.309   2.397  0.8710  1.7951 -0.2343
11247SOL    HW235749   4.943   4.455   2.366 -2.7192  1.3932  0.4436
11248SOL     OW35750   1.375   4.956   0.443 -0.0863  0.7544 -0.2013
11248SOL    HW135751   1.380   4.870   0.402  1.5087  1.0661 -0.7141
11248SOL    HW235752   1.347   5.016   0.373 -0.5596  0.7721 -0.0046
11249SOL     OW35753   1.068   3.191  10.465  0.0961 -0.1245  0.4780
11249SOL    HW135754   1.013   3.268  10.480  0.1521  0.1572 -0.7213
11249SOL    HW235755   1.015   3.132  10.412  1.0835  0.3582 -1.1109
11250SOL     OW35756   3.406   7.500   2.011 -0.6376  0.3952 -0.1132
11250SOL    HW135757   3.372   7.587   2.031 -2.0199  0.2270 -1.4711
11250SOL    HW235758   3.328   7.450   1.986  0.2382 -0.9983 -0.1552
11251SOL     OW35759   6.545   4.905   2.669 -0.0047  0.0691  0.3446
11251SOL    HW135760   6.478   4.919   2.736 -1.7134  1.3481 -1.4959
11251SOL    HW235761   6.496   4.892   2.588  1.9816 -0.1191 -0.9108
11252SOL     OW35762   0.941   6.256   0.676  0.3821 -0.0562 -0.0910
11252SOL    HW135763   0.846   6.267   0.669  0.2511 -1.7369 -1.7897
11252SOL    HW235764   0.960   6.271   0.769 -1.7187 -0.8481  0.5334
11253SOL     OW35765  10.236  10.279   1.101  0.1382 -0.0909 -0.2004
11253SOL    HW135766  10.185  10.277   1.182 -0.4037 -0.7087 -0.5445
11253SOL    HW235767  10.280  10.364   1.103 -1.8384  0.9992 -0.4688
11254SOL     OW35768   3.033   6.128   5.135  0.1358 -0.7497 -0.3667
11254SOL    HW135769   3.111   6.183   5.144 -0.7818  0.3267  1.8064
11254SOL    HW235770   3.067   6.038   5.129  1.5738 -0.1850 -0.9955
11255SOL     OW35771   7.738   5.132   9.808  0.6042 -0.1373  0.0736
11255SOL    HW135772   7.738   5.063   9.875  1.9141 -1.3528 -1.1054
11255SOL    HW235773   7.702   5.209   9.852  0.0089 -1.3081  1.7202
11256SOL     OW35774   4.808   5.842   1.348 -0.4537  0.2363 -0.2483
11256SOL    HW135775   4.891   5.824   1.392  0.7025  2.1233 -1.4837
11256SOL    HW235776   4.834   5.872   1.261 -2.4008  1.3536 -0.4963
11257SOL     OW35777   7.880   7.167  10.325  0.0819  0.3606  0.3526
11257SOL    HW135778   7.975   7.166  10.339  0.2647  1.1720 -0.6685
11257SOL    HW235779   7.867   7.237  10.261 -0.7126 -2.4072 -2.7998
11258SOL     OW35780   1.858   2.122  10.084 -0.1089  0.3182  0.0368
11258SOL    HW135781   1.832   2.091   9.998 -0.0395  0.0284  0.1195
11258SOL    HW235782   1.940   2.076  10.103 -0.5181 -0.1959  0.5837
11259SOL     OW35783   1.264  10.267   8.546  0.4435  0.0365  0.0812
11259SOL    HW135784   1.320  10.214   8.489 -0.6947 -1.0688 -0.0246
11259SOL    HW235785   1.227  10.206   8.609  0.5737  1.0189  1.1567
11260SOL     OW35786  10.087   6.273   4.530 -0.3120 -0.2543  0.5421
11260SOL    HW135787  10.120   6.352   4.487  1.0134 -0.7369  0.6349
11260SOL    HW235788  10.015   6.243   4.474 -0.6595  0.8517  0.3661
11261SOL     OW35789   3.489   6.802  11.035 -0.4081  0.3196 -0.1156
11261SOL    HW135790   3.560   6.837  11.089  0.5653  0.2884 -1.3343
11261SOL    HW235791   3.468   6.873  10.974 -1.1803  0.1906 -0.0127
11262SOL     OW35792   3.615   5.414   1.632  0.2268 -0.4891 -0.1097
11262SOL    HW135793   3.539   5.424   1.575  1.1471  2.4148 -1.0219
11262SOL    HW235794   3.595   5.469   1.708  1.1234 -0.2385 -0.0479
11263SOL     OW35795   6.832   5.875   8.156  0.7757 -0.6324 -0.2371
11263SOL    HW135796   6.839   5.822   8.235  1.1148  0.2502  0.3496
11263SOL    HW235797   6.890   5.949   8.172  0.1142  0.0526 -0.9127
11264SOL     OW35798   1.800   6.294   0.458 -0.0868  0.1796 -0.1645
11264SOL    HW135799   1.822   6.306   0.551  0.0968 -1.7255  0.0804
11264SOL    HW235800   1.812   6.200   0.443 -2.6747 -0.0267 -1.4525
11265SOL     OW35801   5.963   3.630   3.922 -0.3081  0.2453  0.0352
11265SOL    HW135802   5.870   3.607   3.918 -0.8425  2.0334  1.1465
11265SOL    HW235803   5.990   3.606   4.010  0.3151 -0.2751 -0.2865
11266SOL     OW35804   1.277   0.826   0.951  0.5651 -0.3719  0.4797
11266SOL    HW135805   1.322   0.903   0.917  0.3502 -0.6847 -0.5432
11266SOL    HW235806   1.206   0.810   0.889  1.9239 -2.6906 -0.6357
11267SOL     OW35807   0.112   9.946  10.785 -0.3189 -0.6815 -0.1344
11267SOL    HW135808   0.047  10.007  10.819 -0.1189 -0.3882 -0.2760
11267SOL    HW235809   0.061   9.868  10.761 -0.3910 -1.1087  1.3322
11268SOL     OW35810   8.812   8.926   3.497  0.3330  0.1188 -0.1326
11268SOL    HW135811   8.904   8.944   3.518  0.1216 -0.5498  1.4930
11268SOL    HW235812   8.815   8.844   3.448  0.7025  0.8157 -1.3046
11269SOL     OW35813   4.693   9.229   9.739  0.2932  0.1821 -0.2909
11269SOL    HW135814   4.753   9.292   9.779 -0.2766  0.2678  0.4637
11269SOL    HW235815   4.654   9.277   9.665  2.0412 -0.2842 -1.5778
11270SOL     OW35816   8.358   9.083   6.609 -0.0548 -0.0270 -0.6034
11270SOL    HW135817   8.276   9.044   6.637 -0.6487  1.3561 -0.2991
11270SOL    HW235818   8.363   9.166   6.657 -0.1029  1.4780 -2.9958
11271SOL     OW35819  10.230  10.529   2.649 -0.0379 -0.8252 -0.0612
11271SOL    HW135820  10.139  10.556   2.640  0.3332  0.1510 -1.1163
11271SOL    HW235821  10.230  10.436   2.626 -0.8354 -0.9614  0.4565
11272SOL     OW35822   0.787   0.628   3.857  0.3790 -0.2367  0.1150
11272SOL    HW135823   0.853   0.580   3.807  0.3326 -0.8169  0.6050
11272SOL    HW235824   0.832   0.707   3.886  0.3325  0.2472 -1.0626
11273SOL     OW35825   7.896   3.255   0.059  0.7295 -0.2295 -0.2063
11273SOL    HW135826   7.973   3.313   0.059  0.3723  0.2710  0.7758
11273SOL    HW235827   7.913   3.194   0.131 -0.2649  0.5505  0.7203
11274SOL     OW35828   7.415   2.804   4.290 -0.3162  0.4510 -0.2146
11274SOL    HW135829   7.495   2.792   4.238 -1.8313 -2.6312 -2.1155
11274SOL    HW235830   7.389   2.894   4.273  3.4699  2.1643  1.7844
11275SOL     OW35831   2.368   9.142   8.944 -0.2429 -0.2242 -0.3435
11275SOL    HW135832   2.287   9.135   8.894 -0.3471 -0.6675 -0.1144
11275SOL    HW235833   2.355   9.220   8.998 -0.3343 -0.0339 -0.6381
11276SOL     OW35834   1.809   3.082   7.480 -0.0018  0.1774 -0.2635
11276SOL    HW135835   1.798   3.101   7.386  0.5659 -2.5325 -0.9812
11276SOL    HW235836   1.760   3.001   7.493 -0.2439  0.6268  1.8824
11277SOL     OW35837  10.596   5.454   0.020  0.3657 -0.1203  0.1236
11277SOL    HW135838  10.537   5.392  -0.022  1.3625 -0.8876 -0.2016
11277SOL    HW235839  10.580   5.537  -0.026  1.2241 -0.8751 -1.6315
11278SOL     OW35840   7.145   9.254   5.617  0.3691  0.2406 -0.1206
11278SOL    HW135841   7.218   9.241   5.557  1.7411  3.4604  0.6444
11278SOL    HW235842   7.111   9.340   5.595 -1.1000  0.1738  1.6813
11279SOL     OW35843   5.609   7.970   2.022 -0.1366  0.1944 -0.4634
11279SOL    HW135844   5.550   7.941   1.953  0.0066  0.9513 -0.9165
11279SOL    HW235845   5.626   7.891   2.074 -1.8248  0.0439 -0.0947
11280SOL     OW35846   5.786   5.100   6.097  0.5725 -0.8363 -0.4512
11280SOL    HW135847   5.854   5.035   6.084  1.2776 -0.0353 -0.8635
11280SOL    HW235848   5.821   5.180   6.057  0.6467  0.3855  1.8816
11281SOL     OW35849   2.269   8.711   6.099  0.7942 -0.4608  0.1284
11281SOL    HW135850   2.299   8.789   6.051 -0.1596  0.2012  0.5914
11281SOL    HW235851   2.282   8.733   6.191  1.2753 -1.1766  0.2374
11282SOL     OW35852   0.049   0.913   9.838  0.3768  0.2952  0.7241
11282SOL    HW135853   0.005   0.945   9.760  0.3353  0.3552  0.7711
11282SOL    HW235854   0.064   0.992   9.891 -0.1888  0.1733  1.0777
11283SOL     OW35855   9.662   9.359   4.364 -0.6442  0.1733  0.2570
11283SOL    HW135856   9.628   9.272   4.384 -2.5654  1.0814  1.1762
11283SOL    HW235857   9.585   9.410   4.338  0.6531  1.2252 -1.7222
11284SOL     OW35858   2.669   3.225   8.181 -0.0248  0.2091 -0.2523
11284SOL    HW135859   2.759   3.238   8.211  0.5545  0.1781 -1.8734
11284SOL    HW235860   2.677   3.203   8.089 -1.7680  1.8820 -0.8912
11285SOL     OW35861   5.568   2.113   5.303  0.0486 -0.3890 -0.0991
11285SOL    HW135862   5.577   2.205   5.327 -0.0435 -1.2080  3.6951
11285SOL    HW235863   5.655   2.076   5.318 -0.3630 -1.2636  0.1481
11286SOL     OW35864   3.642   8.183   9.097  0.2246  0.2872  0.2005
11286SOL    HW135865   3.553   8.161   9.124  0.2888 -0.8992 -0.5091
11286SOL    HW235866   3.643   8.278   9.090 -1.2064  0.2593 -0.5512
11287SOL     OW35867   0.953   3.292  10.158  0.1863 -0.7523  0.6746
11287SOL    HW135868   0.930   3.296  10.065 -1.4393  1.4353  1.1031
11287SOL    HW235869   0.930   3.202  10.183  1.4574 -1.6711 -1.1785
11288SOL     OW35870   6.523   5.529   8.662 -0.1729  0.0138  0.1656
11288SOL    HW135871   6.471   5.511   8.583  0.4446 -0.2066 -0.1949
11288SOL    HW235872   6.462   5.574   8.720 -0.0936  2.1255 -1.2648
11289SOL     OW35873   5.093   3.913   5.787  0.0488  0.3189  0.4173
11289SOL    HW135874   5.021   3.868   5.831  0.9918 -0.9354  0.7421
11289SOL    HW235875   5.059   3.931   5.699 -1.2382  1.2811  1.0758
11290SOL     OW35876   7.971   0.808  10.964 -0.1730  0.0889 -0.0053
11290SOL    HW135877   7.902   0.789  11.027  1.5222 -0.4428  1.7529
11290SOL    HW235878   8.009   0.723  10.943 -0.2936  0.3278 -1.2900
11291SOL     OW35879   0.346   2.556   0.397 -0.1297 -0.7309  0.3100
11291SOL    HW135880   0.312   2.581   0.482 -0.1806  0.9766 -0.1737
11291SOL    HW235881   0.418   2.496   0.416  3.3053  3.4206  1.9559
11292SOL     OW35882   9.913   1.289   0.110 -0.3515  0.0219 -0.3149
11292SOL    HW135883   9.960   1.269   0.191 -1.0506  1.6151  0.5486
11292SOL    HW235884   9.964   1.359   0.069  0.1876 -1.0161 -1.4526
11293SOL     OW35885   9.823   6.084  10.426 -0.0019 -0.0051  0.5832
11293SOL    HW135886   9.787   6.093  10.337 -2.0164 -1.5913  1.1564
11293SOL    HW235887   9.854   6.171  10.448  1.2836  0.2698 -1.9545
11294SOL     OW35888   4.467   9.597   9.915  0.0353 -0.3547  0.8033
11294SOL    HW135889   4.399   9.661   9.895  0.4108 -0.7465 -2.1579
11294SOL    HW235890   4.428   9.539   9.980 -1.6584  0.6589  0.7388
11295SOL     OW35891  10.946   0.149   1.715  0.2989 -0.9554  0.1463
11295SOL    HW135892  10.897   0.129   1.635  0.6558  0.1377 -0.3739
11295SOL    HW235893  10.921   0.239   1.736  0.6036 -1.0558  0.9869
11296SOL     OW35894   5.052   3.860   2.231 -0.0686  0.7574 -0.5893
11296SOL    HW135895   5.057   3.956   2.238  0.9446  0.7987 -1.6761
11296SOL    HW235896   5.097   3.839   2.149  3.3927 -0.9445  1.5016
11297SOL     OW35897   2.383   3.868  11.049 -0.4152  0.7842 -0.3675
11297SOL    HW135898   2.415   3.947  11.006  1.3868  1.3640  1.8263
11297SOL    HW235899   2.321   3.900  11.115  0.6861  0.4940  0.8640
11298SOL     OW35900  10.927   3.648   5.455 -0.1020  0.3214 -0.0133
11298SOL    HW135901  10.838   3.619   5.435  0.1130 -0.9613  0.8139
11298SOL    HW235902  10.975   3.567   5.473  0.2440  1.1726  3.5606
11299SOL     OW35903   8.351   8.894   9.342  0.6492 -0.2913 -0.2688
11299SOL    HW135904   8.278   8.893   9.404  0.9592 -1.0345  0.1003
11299SOL    HW235905   8.333   8.968   9.284  1.1842  1.4696  1.6956
11300SOL     OW35906   6.275   5.957   0.459  0.2115  0.2918 -0.1284
11300SOL    HW135907   6.273   5.982   0.552  1.9081 -0.5132  0.1527
11300SOL    HW235908   6.183   5.955   0.433 -0.3537 -0.2809  1.7588
11301SOL     OW35909   2.025   6.636   8.481 -0.3168  0.1445  0.5141
11301SOL    HW135910   1.935   6.664   8.499  0.2500  0.8549  2.5047
11301SOL    HW235911   2.025   6.542   8.499 -0.7038  0.0943  0.2685
11302SOL     OW35912   3.404   5.221   9.538 -0.1148 -0.0253 -0.0690
11302SOL    HW135913   3.352   5.141   9.533  0.3706 -0.3065 -0.7272
11302SOL    HW235914   3.347   5.289   9.503 -0.5200 -0.0811  0.4718
11303SOL     OW35915   7.434   4.879   8.599  0.0497  0.4294 -0.1102
11303SOL    HW135916   7.371   4.857   8.669  1.8790 -0.7962  1.2708
11303SOL    HW235917   7.385   4.867   8.518 -2.2437  2.1393  0.9154
11304SOL     OW35918   0.196   1.894  10.805  0.5657  0.0587  0.5297
11304SOL    HW135919   0.266   1.901  10.740 -0.7509  0.5866 -0.9213
11304SOL    HW235920   0.188   1.982  10.843 -0.8698  0.7039 -1.1041
11305SOL     OW35921   9.287   9.642   8.277 -0.0659 -0.5855 -0.2631
11305SOL    HW135922   9.378   9.617   8.291  0.5260 -0.3424 -3.0366
11305SOL    HW235923   9.241   9.609   8.354  2.1830 -1.6188  0.7432
11306SOL     OW35924   6.323   7.717   4.157  0.2978  0.2012 -0.4667
11306SOL    HW135925   6.326   7.761   4.072  0.1402 -1.5827 -1.4462
11306SOL    HW235926   6.240   7.670   4.157 -0.5112  1.4866  1.4264
11307SOL     OW35927   2.653   2.203   1.133 -0.3352  0.4547 -0.3484
11307SOL    HW135928   2.709   2.179   1.059  1.0832  1.5811  0.3360
11307SOL    HW235929   2.613   2.120   1.160  0.4731 -0.2613 -1.2652
11308SOL     OW35930   4.748   5.058   6.464 -0.3886 -0.3999 -0.3501
11308SOL    HW135931   4.765   5.098   6.549 -2.5588 -0.0871 -0.0061
11308SOL    HW235932   4.713   4.971   6.484  1.6067 -1.4074 -1.0286
11309SOL     OW35933   0.639   6.159  10.876 -0.1513 -0.3586 -0.1595
11309SOL    HW135934   0.615   6.241  10.920 -1.0071 -0.9529  0.4994
11309SOL    HW235935   0.561   6.135  10.826  0.6320  0.0394 -1.6369
11310SOL     OW35936  10.136   9.888   6.322  0.4831  0.3040  0.3051
11310SOL    HW135937  10.108   9.797   6.313 -1.0769  0.8005 -0.2662
11310SOL    HW235938  10.105   9.914   6.410  0.8255  0.3110  0.4238
11311SOL     OW35939   0.796   7.259   5.010 -0.0286 -0.2264 -0.1632
11311SOL    HW135940   0.768   7.245   5.100  0.2313 -0.0039 -0.0462
11311SOL    HW235941   0.843   7.178   4.987  2.5419  0.8422  0.9208
11312SOL     OW35942  10.403   9.121   6.814 -0.0462 -0.1645  0.5818
11312SOL    HW135943  10.451   9.174   6.878 -0.7407  1.8192 -0.4420
11312SOL    HW235944  10.358   9.055   6.867  1.4695 -0.2750  1.8401
11313SOL     OW35945   3.047   1.691   5.496  0.2248  0.2317  0.9682
11313SOL    HW135946   3.095   1.716   5.575  0.0203  0.4465  1.0287
11313SOL    HW235947   3.068   1.599   5.482  0.8069  0.3753  0.8835
11314SOL     OW35948  10.892   8.448   5.683  0.5638  0.4971  0.0052
11314SOL    HW135949  10.922   8.434   5.593  1.3272 -1.1027  0.4755
11314SOL    HW235950  10.926   8.373   5.731  0.7079  1.6471  1.7697
11315SOL     OW35951   2.145   6.683   1.154  0.3222 -0.4801 -0.0975
11315SOL    HW135952   2.131   6.740   1.078  0.0989 -0.1724  0.1719
11315SOL    HW235953   2.234   6.702   1.182  0.6964 -1.1817 -0.7659
11316SOL     OW35954  10.722   4.249   8.701 -0.3037 -0.0713 -0.1228
11316SOL    HW135955  10.730   4.343   8.685  0.1792 -0.3627 -1.8306
11316SOL    HW235956  10.657   4.219   8.638  0.1596 -1.0064 -0.1757
11317SOL     OW35957   2.085   6.043   4.246  0.2702 -0.1409 -0.0523
11317SOL    HW135958   2.112   6.129   4.213  0.2877 -0.7267 -1.6633
11317SOL    HW235959   2.167   6.000   4.271  0.2889  0.1875  0.4597
11318SOL     OW35960   2.317   2.643  10.527 -0.5968 -0.5097  0.1107
11318SOL    HW135961   2.278   2.617  10.443  1.3270 -1.9620 -0.4070
11318SOL    HW235962   2.293   2.572  10.587 -1.0249 -0.0413  0.4911
11319SOL     OW35963   7.333   0.496  10.073 -0.0848 -0.2496  0.2400
11319SOL    HW135964   7.353   0.574  10.125  0.2539 -0.4171  0.3651
11319SOL    HW235965   7.396   0.498  10.001 -1.1267  0.4657 -0.6921
11320SOL     OW35966   8.831   0.825   4.465  0.5085  0.5428  0.2389
11320SOL    HW135967   8.889   0.754   4.494 -1.0547 -0.7597  0.3532
11320SOL    HW235968   8.890   0.891   4.430  2.0681 -0.6381  0.4992
11321SOL     OW35969   6.331   6.218  10.625  0.1791  0.3632  0.1734
11321SOL    HW135970   6.275   6.286  10.661 -0.2593  0.8813 -1.3938
11321SOL    HW235971   6.415   6.229  10.669 -0.2452  1.1356  0.7976
11322SOL     OW35972   1.240   5.593   3.091 -0.4357 -0.3685 -0.4163
11322SOL    HW135973   1.199   5.645   3.161 -0.2243 -0.1988 -0.4178
11322SOL    HW235974   1.258   5.509   3.132 -0.8437 -0.4695 -0.4332
11323SOL     OW35975   4.843   6.092   3.382 -0.3071 -0.2532  0.1694
11323SOL    HW135976   4.777   6.109   3.449  0.3552 -0.6448  0.9544
11323SOL    HW235977   4.910   6.041   3.428  0.9567  0.8670 -0.3682
11324SOL     OW35978   2.600   7.667   0.017 -0.0120 -0.2815  0.0881
11324SOL    HW135979   2.584   7.758  -0.007  1.6516 -0.4653 -2.1106
11324SOL    HW235980   2.650   7.671   0.099 -0.3782  0.7560  0.2651
11325SOL     OW35981   3.879   0.465   1.133 -0.0505  0.2713  0.0645
11325SOL    HW135982   3.937   0.442   1.206 -1.2543 -1.0472  0.6693
11325SOL    HW235983   3.879   0.561   1.132  1.3796  0.3010  0.6447
11326SOL     OW35984   1.037   4.005  10.945  0.2978 -0.5809 -0.0999
11326SOL    HW135985   1.055   3.945  10.873 -0.1162 -1.6132  0.6255
11326SOL    HW235986   1.120   4.048  10.962  1.2265 -2.5421  0.7452
11327SOL     OW35987   1.094   3.596   6.121  0.1633  0.2564  0.0569
11327SOL    HW135988   1.038   3.672   6.138  0.6057  0.2811  1.5575
11327SOL    HW235989   1.132   3.613   6.034 -0.7180  1.1193 -0.1805
11328SOL     OW35990   2.668   8.098   2.078  0.6585  0.4886  0.1346
11328SOL    HW135991   2.573   8.096   2.061  0.4099 -0.1394  1.4608
11328SOL    HW235992   2.698   8.177   2.033 -0.2142 -0.0901 -1.5918
11329SOL     OW35993   6.041   4.025   4.009 -0.5329  0.6039 -0.4544
11329SOL    HW135994   6.130   4.038   4.042  0.5544 -2.4994 -1.7835
11329SOL    HW235995   5.993   3.990   4.084 -1.1175  3.4890  0.6436
11330SOL     OW35996   5.676   6.721   3.545  0.3190 -0.2329 -0.1547
11330SOL    HW135997   5.703   6.794   3.601 -1.2063  0.5878 -0.4424
11330SOL    HW235998   5.650   6.652   3.606 -1.9996  0.8971  0.2303
11331SOL     OW35999   1.995   7.302   0.366 -0.2223 -0.7252 -0.1687
11331SOL    HW136000   1.944   7.344   0.297 -3.2958 -2.7166  0.6808
11331SOL    HW236001   2.043   7.232   0.322 -1.2522 -1.2492 -0.4818
11332SOL     OW36002   6.894   9.248   1.584  0.5520  0.1664  0.7688
11332SOL    HW136003   6.856   9.282   1.503  0.2290  0.6508  1.1194
11332SOL    HW236004   6.961   9.186   1.555 -0.8929 -1.1615  0.1442
11333SOL     OW36005   5.334   2.917   4.681 -0.5044 -0.4021  0.1366
11333SOL    HW136006   5.301   2.872   4.758 -0.5444 -0.8711 -0.1482
11333SOL    HW236007   5.261   2.917   4.619  0.4445 -2.9741 -1.1622
11334SOL     OW36008   1.140  11.039   6.842 -0.6217  0.3734 -0.0995
11334SOL    HW136009   1.098  11.116   6.880 -0.0788 -0.2056  1.7688
11334SOL    HW236010   1.124  10.969   6.905  2.5470 -0.0411  0.4150
11335SOL     OW36011  10.677   3.577   5.371  0.0082 -0.5905 -0.6486
11335SOL    HW136012  10.654   3.656   5.322  1.8948  1.6211  1.7869
11335SOL    HW236013  10.645   3.505   5.316 -2.0100  1.8074 -2.8803
11336SOL     OW36014  10.969   5.616   2.542 -0.4170 -1.1624 -0.2708
11336SOL    HW136015  10.916   5.675   2.595  2.0329  2.1626 -1.1982
11336SOL    HW236016  10.912   5.592   2.468 -1.0908  1.3191 -0.6455
11337SOL     OW36017   0.789   1.873   0.655  0.0319 -0.5571 -0.4079
11337SOL    HW136018   0.701   1.903   0.679  1.2431  3.8139 -0.7175
11337SOL    HW236019   0.840   1.879   0.735  0.6184 -0.6693 -0.7644
11338SOL     OW36020   8.885   3.263   5.898 -0.2790 -0.2342  0.2754
11338SOL    HW136021   8.899   3.308   5.981 -0.6163 -1.1235  0.8385
11338SOL    HW236022   8.868   3.332   5.835  0.1906  0.4686  0.9075
11339SOL     OW36023   3.403   1.342   2.604 -0.4357  0.1634 -0.2906
11339SOL    HW136024   3.459   1.271   2.633  0.2444  0.6195 -0.4579
11339SOL    HW236025   3.322   1.332   2.654 -1.2638 -2.0710 -1.9131
11340SOL     OW36026   1.143   2.960  10.115 -0.6078  0.0518  0.4603
11340SOL    HW136027   1.176   2.876  10.149 -0.5220 -0.2282 -0.2994
11340SOL    HW236028   1.048   2.947  10.108 -0.5446 -0.1368 -0.0724
11341SOL     OW36029   1.385   5.647   6.015  0.7307 -0.4895  0.0229
11341SOL    HW136030   1.410   5.722   5.961  1.8340 -1.1782 -0.4722
11341SOL    HW236031   1.445   5.652   6.091  1.0206 -1.0279 -0.1658
11342SOL     OW36032  10.268   5.105   0.275  0.3674  0.2293 -0.1663
11342SOL    HW136033  10.328   5.103   0.350  0.5088  0.2669 -0.2777
11342SOL    HW236034  10.314   5.056   0.207  0.5455  0.7871 -0.4536
11343SOL     OW36035   1.665   6.263   8.202  0.8124 -0.3285 -0.0377
11343SOL    HW136036   1.594   6.255   8.137  0.5800  0.3496  0.1271
11343SOL    HW236037   1.634   6.214   8.278  0.8411 -0.6466 -0.2269
11344SOL     OW36038   4.616   7.128   1.772  0.1748 -0.4807 -0.0500
11344SOL    HW136039   4.542   7.116   1.832 -0.2651 -1.4178 -0.7549
11344SOL    HW236040   4.658   7.042   1.768  1.5027  0.1060  0.5583
11345SOL     OW36041   6.011   5.806   3.206 -0.7485  0.5953 -0.3928
11345SOL    HW136042   6.104   5.805   3.229 -0.9402 -0.0809  0.3944
11345SOL    HW236043   5.969   5.752   3.273 -1.9008  2.0164  0.0807
11346SOL     OW36044   4.796   3.581   0.417 -0.7196 -0.1381 -1.1688
11346SOL    HW136045   4.826   3.559   0.329 -1.8831  1.4448 -2.0179
11346SOL    HW236046   4.704   3.554   0.418 -0.2678 -1.7802  0.2065
11347SOL     OW36047   5.582   4.024   5.110  0.6957  0.6313  0.1088
11347SOL    HW136048   5.515   4.043   5.045  0.6045 -0.5265 -0.1651
11347SOL    HW236049   5.664   4.050   5.068  0.4677  1.6978  0.2981
11348SOL     OW36050   4.093   6.535   3.783  0.0402 -0.2201  0.0097
11348SOL    HW136051   4.105   6.593   3.708 -0.9714 -1.7712 -1.3977
11348SOL    HW236052   4.176   6.540   3.831  0.6994  0.7832 -1.1963
11349SOL     OW36053   2.545  10.455   1.481 -0.0188 -0.4153  0.0811
11349SOL    HW136054   2.632  10.425   1.455  0.2713  1.6705 -1.7302
11349SOL    HW236055   2.560  10.505   1.561  0.6190  0.5695 -0.6300
11350SOL     OW36056   9.349   9.891   5.371  0.6075  0.0175 -0.2180
11350SOL    HW136057   9.359   9.832   5.297  1.6610 -0.6246  0.4071
11350SOL    HW236058   9.257   9.920   5.367  0.3098 -0.9866 -1.0321
11351SOL     OW36059  10.056   6.462   0.254 -0.0873 -0.0792  0.5888
11351SOL    HW136060  10.017   6.413   0.182 -0.0184 -1.0550  1.2018
11351SOL    HW236061   9.983   6.488   0.309  0.0104 -0.9151  1.1269
11352SOL     OW36062   9.188   3.716   1.486 -0.0352 -0.1974 -0.3920
11352SOL    HW136063   9.195   3.787   1.422  0.5420 -0.2705 -0.4116
11352SOL    HW236064   9.215   3.638   1.438 -1.6719 -0.6186 -0.6747
11353SOL     OW36065   5.918   3.035   5.908 -0.7472 -0.1067  0.3909
11353SOL    HW136066   6.000   3.072   5.875 -2.3646  0.8093 -3.0823
11353SOL    HW236067   5.899   3.086   5.987  0.7355  1.4374 -0.1795
11354SOL     OW36068   5.501   3.908  10.403 -0.4324 -0.1287  0.4279
11354SOL    HW136069   5.595   3.917  10.417 -0.5806  0.9322  0.8017
11354SOL    HW236070   5.481   3.967  10.331 -0.8174 -0.3693  0.3303
11355SOL     OW36071   6.995   9.854   9.558 -0.3480 -0.2764 -0.2185
11355SOL    HW136072   6.945   9.839   9.638  0.3479  0.3031  0.3436
11355SOL    HW236073   6.996   9.949   9.548  1.1331 -0.2332  0.1188
11356SOL     OW36074   3.703   3.052   2.992 -0.1819 -0.6068 -0.6675
11356SOL    HW136075   3.749   3.078   2.912 -0.1148 -1.3724 -0.8883
11356SOL    HW236076   3.623   3.104   2.992  0.2841  0.1148 -0.7209
11357SOL     OW36077   0.382  10.106   1.395 -0.3487  0.1794 -0.4085
11357SOL    HW136078   0.319  10.144   1.455  0.9959  2.0161 -0.0893
11357SOL    HW236079   0.396  10.173   1.328  0.6248 -0.5177 -0.9392
11358SOL     OW36080   7.024   5.831   7.937 -0.2796  0.0454  0.2635
11358SOL    HW136081   6.948   5.866   7.983 -0.6983 -2.3897  1.6285
11358SOL    HW236082   7.088   5.813   8.007  0.2971 -0.8529 -0.4688
11359SOL     OW36083   0.071   0.195   4.969 -0.4743 -0.1948  0.4652
11359SOL    HW136084   0.160   0.231   4.976 -0.2834 -0.6759  0.5221
11359SOL    HW236085   0.022   0.239   5.039 -0.1809 -0.2277  0.6935
11360SOL     OW36086   1.018   9.248   7.928  0.5460  0.4034  0.1114
11360SOL    HW136087   1.101   9.221   7.967  0.0636 -1.6023 -0.1565
11360SOL    HW236088   0.961   9.172   7.937 -1.0917  1.5317 -0.2442
11361SOL     OW36089   9.336   9.369   7.994  0.2274  0.3698 -0.0275
11361SOL    HW136090   9.242   9.384   8.001 -0.0050 -0.1266 -1.7764
11361SOL    HW236091   9.352   9.289   8.044 -0.0335  1.1311  1.3465
11362SOL     OW36092   4.926   8.141  10.090  0.4554 -0.0192  0.0720
11362SOL    HW136093   4.911   8.202  10.162 -0.0071  0.0393 -0.0697
11362SOL    HW236094   4.991   8.184  10.034  0.4562  0.1469  0.2036
11363SOL     OW36095  10.641   6.157   6.449  0.0257  0.0364 -0.1352
11363SOL    HW136096  10.631   6.252   6.438 -1.3823 -0.0517  0.1699
11363SOL    HW236097  10.565   6.120   6.404 -0.3882 -0.8437  1.2239
11364SOL     OW36098   9.916   3.848   3.191  0.5941 -0.3999  0.2617
11364SOL    HW136099   9.841   3.805   3.232  0.3675  0.1660  0.4542
11364SOL    HW236100   9.922   3.932   3.236  1.0817 -0.2653 -0.0512
11365SOL     OW36101   4.650   9.625   0.726  0.1333 -0.1544 -0.0568
11365SOL    HW136102   4.687   9.596   0.643  1.1481  0.9042 -0.0093
11365SOL    HW236103   4.639   9.719   0.716 -0.1191 -0.0757  0.8683
11366SOL     OW36104   5.909   2.474   6.824 -0.3092  0.2587  0.2450
11366SOL    HW136105   5.988   2.483   6.771 -0.7961 -0.7998 -0.6865
11366SOL    HW236106   5.901   2.558   6.869  1.2366  0.4429  0.2157
11367SOL     OW36107   5.061   3.046   1.375  0.1853 -0.0599  0.2704
11367SOL    HW136108   5.123   3.053   1.448  0.6385 -0.4435 -0.0726
11367SOL    HW236109   4.992   2.988   1.408 -0.0142  0.3869  0.6609
11368SOL     OW36110   9.883   0.196   7.524 -0.0431  0.0638 -0.0256
11368SOL    HW136111   9.920   0.279   7.494  0.6661  0.1572  1.0592
11368SOL    HW236112   9.927   0.129   7.473  0.4158  0.2784  0.0888
11369SOL     OW36113   1.025   7.027  10.446 -0.1520  0.0238 -0.3064
11369SOL    HW136114   1.083   7.087  10.491 -0.3260  0.4312 -0.6199
11369SOL    HW236115   1.082   6.980  10.385  0.1275 -0.6981  0.4859
11370SOL     OW36116   2.976   2.098   2.906 -0.1701 -0.1546  0.0200
11370SOL    HW136117   2.902   2.115   2.965 -1.1184  1.6858 -1.5802
11370SOL    HW236118   2.996   2.183   2.869  1.3768 -1.0105 -1.1994
11371SOL     OW36119   0.810   7.376   2.396  0.2650  0.4518  0.5581
11371SOL    HW136120   0.862   7.428   2.458  0.6297  0.7982 -0.0323
11371SOL    HW236121   0.787   7.437   2.326  0.0674  0.0016  0.2262
11372SOL     OW36122   2.726  10.504   9.999  0.3763 -0.0587  0.0538
11372SOL    HW136123   2.741  10.422  10.047  2.0380 -0.7368 -1.4970
11372SOL    HW236124   2.747  10.482   9.908  3.0986  2.6173 -0.1076
11373SOL     OW36125   3.086   8.030   0.161  0.4349  0.1882 -0.2181
11373SOL    HW136126   3.074   8.125   0.166 -0.1355  0.1097  0.1037
11373SOL    HW236127   3.046   8.005   0.077  0.3751  0.2063 -0.1952
11374SOL     OW36128   2.250   3.601   5.413  0.5019 -0.3506 -0.1336
11374SOL    HW136129   2.318   3.571   5.353 -0.4412 -1.2079 -0.8121
11374SOL    HW236130   2.206   3.521   5.440  0.5241  0.0800  1.2565
11375SOL     OW36131   7.003   8.778  11.013  0.1467 -0.2950  0.3891
11375SOL    HW136132   7.031   8.717  10.944 -1.0301  0.8953 -1.2229
11375SOL    HW236133   7.081   8.831  11.032  0.4616 -0.5830 -0.0872
11376SOL     OW36134   9.966   6.821   4.520 -0.1501 -0.3617  0.7431
11376SOL    HW136135   9.879   6.795   4.549 -0.1515  0.4868  1.5693
11376SOL    HW236136   9.974   6.788   4.431 -1.1681 -0.7775  0.8050
11377SOL     OW36137   1.207  10.548   3.804 -0.0420 -0.0652 -0.3220
11377SOL    HW136138   1.257  10.471   3.828  1.3343  0.1114 -2.3690
11377SOL    HW236139   1.245  10.619   3.856  0.5911 -0.2748 -0.4943
11378SOL     OW36140   1.891   5.346   5.542  0.0064 -0.0214 -0.1090
11378SOL    HW136141   1.860   5.435   5.531  0.4725  0.4508  1.8982
11378SOL    HW236142   1.824   5.291   5.502 -1.6476  1.1311  0.9513
11379SOL     OW36143  10.408   5.273   1.643  0.5232 -0.1212  0.1404
11379SOL    HW136144  10.382   5.299   1.554  1.7972  0.4790 -0.0797
11379SOL    HW236145  10.329   5.234   1.680  0.6451 -3.0339 -2.2046
11380SOL     OW36146   2.818   2.013   3.347 -0.7819 -0.2747 -0.1268
11380SOL    HW136147   2.851   1.968   3.269 -1.4894 -0.7364 -0.1787
11380SOL    HW236148   2.895   2.029   3.401 -0.4261 -0.9874 -0.4081
11381SOL     OW36149   6.195   8.259   1.654  0.1252 -0.2990  0.3056
11381SOL    HW136150   6.116   8.211   1.679 -0.0157 -1.2766 -1.8174
11381SOL    HW236151   6.268   8.200   1.678  0.0473 -0.7017 -0.4147
11382SOL     OW36152   1.444   5.957   2.265 -0.0054 -0.0695  0.5791
11382SOL    HW136153   1.465   6.044   2.232  1.8870 -1.0523 -1.0055
11382SOL    HW236154   1.387   5.920   2.198  0.2779 -0.5143  0.5815
11383SOL     OW36155   6.714   9.199   3.252 -0.4575 -0.4795  0.3801
11383SOL    HW136156   6.796   9.242   3.275 -1.1707  0.8925  0.4380
11383SOL    HW236157   6.736   9.145   3.176  0.2661  0.6860 -0.2650
11384SOL     OW36158  10.245   6.899   1.062  0.0801 -0.5372 -0.4327
11384SOL    HW136159  10.317   6.937   1.112  0.7263 -1.8641 -0.2864
11384SOL    HW236160  10.167   6.917   1.115  0.1229  1.7173 -1.0411
11385SOL     OW36161  10.809   4.480   3.141 -0.2201 -0.6005  0.0252
11385SOL    HW136162  10.727   4.507   3.101 -0.7249 -2.1124  0.0102
11385SOL    HW236163  10.876   4.506   3.078 -0.9216 -1.9735 -1.3484
11386SOL     OW36164   0.981   1.993   4.413  0.1595  0.0358 -0.1919
11386SOL    HW136165   0.923   1.929   4.453 -0.9674 -0.6061 -2.6696
11386SOL    HW236166   1.066   1.949   4.406 -0.3221 -0.8012 -0.8702
11387SOL     OW36167  10.367   1.133   8.356  0.6047  0.2918 -0.4578
11387SOL    HW136168  10.327   1.151   8.441 -2.2950  1.1623 -1.8993
11387SOL    HW236169  10.347   1.042   8.338  1.6051 -0.0247 -0.0889
11388SOL     OW36170   1.826   3.471   6.464 -1.3371 -0.0868  0.1241
11388SOL    HW136171   1.821   3.542   6.528 -3.3051 -1.1406  1.2476
11388SOL    HW236172   1.816   3.392   6.516  2.7942 -1.4667 -0.8136
11389SOL     OW36173  11.001   6.378   2.021 -0.3683 -0.6975  0.6313
11389SOL    HW136174  10.964   6.365   1.934 -2.2035 -0.3754  1.3329
11389SOL    HW236175  10.957   6.313   2.076  0.7551 -0.8905  1.3502
11390SOL     OW36176   0.984   1.176   9.598 -0.0778 -0.2573 -0.2023
11390SOL    HW136177   0.930   1.100   9.619 -0.1155 -0.2179 -0.1575
11390SOL    HW236178   0.964   1.240   9.666  1.7209 -1.0857  1.1969
11391SOL     OW36179   9.524   5.613   2.480  0.1549  0.5047 -0.2306
11391SOL    HW136180   9.460   5.565   2.533  1.2211 -0.6451  0.0626
11391SOL    HW236181   9.471   5.652   2.410 -0.9310 -0.0295  0.2549
11392SOL     OW36182   4.762   9.348   3.065  0.5823 -0.0841  0.2459
11392SOL    HW136183   4.837   9.359   3.006 -0.0326 -3.0794 -1.2275
11392SOL    HW236184   4.793   9.288   3.133 -0.1634 -0.4363  0.2807
11393SOL     OW36185   2.144   3.012   3.025 -0.0672  0.1237 -0.3466
11393SOL    HW136186   2.201   3.052   2.960 -1.0065  1.0177 -0.6426
11393SOL    HW236187   2.085   3.082   3.051  1.7039  0.4933  3.2066
11394SOL     OW36188   4.255   1.478   8.654 -0.2513  0.2330  0.2458
11394SOL    HW136189   4.282   1.546   8.716 -0.1920 -0.3966  0.9123
11394SOL    HW236190   4.323   1.411   8.659  0.0202  0.4043 -0.8828
11395SOL     OW36191   5.614   7.547   8.315 -0.1636 -0.4390  0.6513
11395SOL    HW136192   5.536   7.567   8.263  0.0550  0.0817  0.5225
11395SOL    HW236193   5.648   7.632   8.341  1.1716 -0.6008 -0.4516
11396SOL     OW36194   5.403  10.409   3.086  0.2301  0.4632 -0.0736
11396SOL    HW136195   5.366  10.480   3.137 -3.5152  0.3633 -2.2851
11396SOL    HW236196   5.345  10.400   3.011  2.4178 -2.7987 -1.6450
11397SOL     OW36197   1.503   5.772   8.359  0.4390 -0.0933 -0.3255
11397SOL    HW136198   1.559   5.789   8.283  0.2525  3.4795  0.1879
11397SOL    HW236199   1.565   5.750   8.429  0.9084  0.1220 -0.6614
11398SOL     OW36200   7.453   4.956   2.124  0.0490 -0.0806  0.0696
11398SOL    HW136201   7.517   5.023   2.148 -0.5193  0.0945  1.1715
11398SOL    HW236202   7.368   4.997   2.138 -0.3401 -0.0136 -2.2538
11399SOL     OW36203   6.370   2.686   8.510  0.0923  0.4994 -0.1047
11399SOL    HW136204   6.296   2.717   8.562  1.2089  2.0573  0.6427
11399SOL    HW236205   6.427   2.644   8.574  0.4655  0.4993 -0.4383
11400SOL     OW36206   3.911   8.818   5.482  0.2305  0.4428 -0.2661
11400SOL    HW136207   3.912   8.746   5.546  0.0090 -1.1485 -1.9658
11400SOL    HW236208   3.972   8.882   5.518  1.4979 -1.1964  0.6963
11401SOL     OW36209   8.602   7.754   5.495 -0.3006 -0.7315  0.3126
11401SOL    HW136210   8.671   7.728   5.556 -0.7362  1.6342  1.9537
11401SOL    HW236211   8.553   7.822   5.542 -0.5892  1.3291 -2.6917
11402SOL     OW36212   3.020   2.998   1.341  0.2592 -0.1076 -0.2845
11402SOL    HW136213   3.013   3.072   1.402 -1.0381  0.0763 -0.6348
11402SOL    HW236214   2.932   2.962   1.337 -0.1499  0.9889 -3.3917
11403SOL     OW36215  10.112  11.061   5.967  0.2735  0.3395  0.5975
11403SOL    HW136216  10.204  11.076   5.943  0.0386 -1.4115 -1.8279
11403SOL    HW236217  10.064  11.131   5.922  0.3148  0.3628  0.5888
11404SOL     OW36218   5.631   3.038   9.502  0.3681 -0.1077 -0.1914
11404SOL    HW136219   5.721   3.019   9.530  0.6538 -0.0503 -1.0391
11404SOL    HW236220   5.633   3.131   9.479 -0.2598  0.2352  1.0518
11405SOL     OW36221   4.531   4.849   5.504  0.2426 -0.0943  0.2084
11405SOL    HW136222   4.603   4.852   5.441 -0.1906 -0.2110 -0.3002
11405SOL    HW236223   4.553   4.775   5.561  1.2449  0.7508  0.9577
11406SOL     OW36224   3.657   2.111   1.285 -0.1073  0.2412  0.0528
11406SOL    HW136225   3.655   2.132   1.379 -3.2414  0.9646 -0.0653
11406SOL    HW236226   3.595   2.039   1.276 -0.2769  0.5646 -1.5363
11407SOL     OW36227   8.889   8.114   1.729 -0.4781  0.2923  0.0766
11407SOL    HW136228   8.928   8.030   1.752 -0.9699  0.1902  0.5593
11407SOL    HW236229   8.823   8.093   1.663 -0.7989  0.2570  0.4048
11408SOL     OW36230   7.198   7.164   7.429  0.3876  0.3044  0.0162
11408SOL    HW136231   7.293   7.164   7.439  0.3894  0.7489  0.0216
11408SOL    HW236232   7.184   7.136   7.338  0.5004 -0.3091  0.1863
11409SOL     OW36233   3.783   7.319   3.474  0.4666  0.4003 -0.1098
11409SOL    HW136234   3.705   7.375   3.475  0.4444  0.3589  0.8716
11409SOL    HW236235   3.811   7.314   3.565  0.8393 -0.6843 -0.2652
11410SOL     OW36236   7.688   2.509  10.043  0.6373 -0.2473  0.5445
11410SOL    HW136237   7.721   2.499  10.132  2.2300  0.2157  0.0366
11410SOL    HW236238   7.698   2.422  10.004  2.5455  0.1520  0.0169
11411SOL     OW36239  11.085   5.805   7.401  0.5180  0.7316 -0.1993
11411SOL    HW136240  11.143   5.820   7.476 -0.6472  2.4492  0.4183
11411SOL    HW236241  11.134   5.837   7.326  0.7362  1.3282  0.1895
11412SOL     OW36242   9.991   7.267   3.922  0.0536  1.1534 -0.2587
11412SOL    HW136243   9.952   7.314   3.996 -0.5187 -0.7728  0.7379
11412SOL    HW236244  10.084   7.263   3.943 -0.1241  0.4930  0.4784
11413SOL     OW36245   8.082   5.057   7.475 -0.2107  0.2331  0.4863
11413SOL    HW136246   8.165   5.018   7.446 -0.3922 -0.2163  0.5611
11413SOL    HW236247   8.087   5.054   7.570 -0.6429 -0.5270  0.4962
11414SOL     OW36248   1.081   7.132   2.226  0.2837 -0.0114  0.7982
11414SOL    HW136249   1.118   7.068   2.165  2.2577  1.3257  0.5008
11414SOL    HW236250   1.120   7.110   2.311  0.5544  0.4740  0.8013
11415SOL     OW36251   2.192   3.640   9.599 -0.2568  0.4203  0.2241
11415SOL    HW136252   2.133   3.565   9.596  0.3617 -0.1980  1.9459
11415SOL    HW236253   2.222   3.651   9.509 -2.8005  0.6587 -0.6762
11416SOL     OW36254   2.127   5.905   6.364 -0.5524  0.1669  0.4957
11416SOL    HW136255   2.078   5.977   6.323  0.3684  0.4392 -0.1669
11416SOL    HW236256   2.126   5.835   6.298  1.8973  1.0029 -0.5667
11417SOL     OW36257   0.460   6.801   2.315  0.3787 -0.0931  0.2546
11417SOL    HW136258   0.457   6.708   2.339  1.4393 -0.1599  0.1867
11417SOL    HW236259   0.502   6.844   2.390  0.1899  0.2901  0.1455
11418SOL     OW36260   4.970  10.889  10.652  0.1527 -0.3728  0.3858
11418SOL    HW136261   4.966  10.896  10.747 -1.8139  0.0882  0.3139
11418SOL    HW236262   5.061  10.864  10.633  1.1630  1.5566  2.2443
11419SOL     OW36263   3.787   0.636   1.782  0.1861 -0.3188 -0.1319
11419SOL    HW136264   3.796   0.565   1.845  1.0904 -0.6761 -0.6550
11419SOL    HW236265   3.698   0.628   1.749 -0.3080 -0.1324  1.0740
11420SOL     OW36266   1.399   1.888   4.917 -0.3678 -0.1201 -0.4181
11420SOL    HW136267   1.444   1.817   4.962 -0.3322 -0.7999 -1.4855
11420SOL    HW236268   1.455   1.908   4.842 -0.9507  0.2386 -0.7666
11421SOL     OW36269   5.205   6.532   3.800  0.6397 -0.0480  0.4223
11421SOL    HW136270   5.266   6.482   3.745  0.3349 -1.1009  1.0081
11421SOL    HW236271   5.249   6.616   3.814  1.5760 -0.4673  0.1252
11422SOL     OW36272   2.020   7.251   3.111  0.0455  0.1895 -0.0880
11422SOL    HW136273   1.990   7.242   3.201  1.0956  0.3047  0.2943
11422SOL    HW236274   1.954   7.207   3.058 -0.1135 -0.6756  0.8225
11423SOL     OW36275   4.625   7.913  10.658  0.5333  0.0544  0.3137
11423SOL    HW136276   4.572   7.905  10.738  0.1435  0.5077  0.1093
11423SOL    HW236277   4.657   7.825  10.642  0.1141 -0.1641  0.6343
11424SOL     OW36278   6.487   5.574   4.655 -0.1471 -0.4525  0.0696
11424SOL    HW136279   6.442   5.496   4.686 -1.2385  0.8178  1.9099
11424SOL    HW236280   6.451   5.645   4.708  1.5716  1.1518 -0.7798
11425SOL     OW36281   4.154   3.795   1.093  1.0515  0.0909 -0.1944
11425SOL    HW136282   4.079   3.749   1.131  1.2617 -0.0786  0.0238
11425SOL    HW236283   4.133   3.888   1.102  1.6230  0.0898  1.4366
11426SOL     OW36284   8.808   7.360   4.958  0.5907  0.2685 -0.5939
11426SOL    HW136285   8.867   7.433   4.937  0.2536  0.1438 -2.0800
11426SOL    HW236286   8.860   7.282   4.940  1.0524  0.0994  1.2865
11427SOL     OW36287   3.697   5.226   7.219  0.0495 -0.0336  0.1975
11427SOL    HW136288   3.667   5.163   7.284  1.8933 -0.6341  0.5186
11427SOL    HW236289   3.624   5.288   7.210 -1.0867 -1.1795  1.1926
11428SOL     OW36290  10.436   7.290   6.055 -0.5612  0.2869 -0.3785
11428SOL    HW136291  10.377   7.219   6.029  1.4818 -1.8633  0.4832
11428SOL    HW236292  10.383   7.369   6.048 -3.0309 -1.3264 -1.1778
11429SOL     OW36293   5.793   1.175   5.499 -0.3062  0.2906  0.5260
11429SOL    HW136294   5.771   1.265   5.475 -2.1379 -0.1196  0.4911
11429SOL    HW236295   5.784   1.126   5.418  1.3328  0.1366  0.3962
11430SOL     OW36296   1.932   4.566   6.694  0.6788  0.5974 -0.2190
11430SOL    HW136297   1.867   4.624   6.733  0.6147  0.7207 -0.5067
11430SOL    HW236298   1.975   4.619   6.627 -0.5527 -0.1790 -1.7054
11431SOL     OW36299   3.592  10.432   3.979  0.1464  0.1666  0.4808
11431SOL    HW136300   3.586  10.499   3.910  0.0400 -0.8889 -0.5591
11431SOL    HW236301   3.647  10.364   3.941 -0.2259 -0.6043  1.3112
11432SOL     OW36302   9.954   1.233   7.163  0.2372  0.6243  0.0487
11432SOL    HW136303   9.950   1.142   7.132  0.5597  0.7506 -0.3697
11432SOL    HW236304  10.048   1.253   7.165  0.1334  1.2855 -0.8641
11433SOL     OW36305   1.067   3.757   0.407  0.3546 -0.0333  0.0566
11433SOL    HW136306   1.084   3.803   0.489  0.7537 -1.2468  0.6808
11433SOL    HW236307   0.973   3.736   0.410  0.5473 -0.8884  0.6667
11434SOL     OW36308   7.173  10.235   2.998  0.1116 -0.3682  0.0766
11434SOL    HW136309   7.167  10.169   3.068 -0.3242 -0.3670  0.0428
11434SOL    HW236310   7.149  10.317   3.040  1.0904 -0.1519  0.2235
11435SOL     OW36311   5.041   6.375   3.966 -0.7289 -0.2517  0.2708
11435SOL    HW136312   5.105   6.389   3.896  0.0485  2.7668  1.4514
11435SOL    HW236313   4.972   6.324   3.925  0.7708 -0.6063 -2.0252
11436SOL     OW36314   5.270   5.563   3.512  0.8880 -0.2756 -0.4761
11436SOL    HW136315   5.305   5.583   3.425  1.0615 -0.3392 -0.4218
11436SOL    HW236316   5.335   5.504   3.551  0.9966  0.0563 -0.1574
11437SOL     OW36317   2.131   0.355   2.867  0.2697 -0.2435  0.7050
11437SOL    HW136318   2.048   0.374   2.909 -0.4077 -0.4228 -0.5196
11437SOL    HW236319   2.155   0.436   2.823 -0.6642 -0.9585 -1.2384
11438SOL     OW36320   5.254   6.546   5.038 -0.2747  0.2800  0.0006
11438SOL    HW136321   5.343   6.513   5.052 -0.2172  0.2640 -0.3927
11438SOL    HW236322   5.229   6.584   5.122 -0.2117 -0.4591  0.3695
11439SOL     OW36323  10.688   0.150  10.183  0.5639 -0.4706 -0.0964
11439SOL    HW136324  10.653   0.228  10.139  0.7098 -0.2585  0.1606
11439SOL    HW236325  10.709   0.180  10.272 -0.7674 -1.1534  0.4804
11440SOL     OW36326   4.413   9.896   4.481 -0.8118 -0.1963  0.0442
11440SOL    HW136327   4.485   9.890   4.543  0.0987 -0.4639 -1.0102
11440SOL    HW236328   4.341   9.934   4.532 -0.0401 -0.2197  1.1998
11441SOL     OW36329   4.364   6.458   4.278 -0.6897  0.0975 -0.2152
11441SOL    HW136330   4.272   6.445   4.256 -1.2348  0.2088  1.7831
11441SOL    HW236331   4.368   6.447   4.373  1.2892  0.5397 -0.1938
11442SOL     OW36332  10.569   4.452   5.411 -0.4036 -0.4658 -0.1907
11442SOL    HW136333  10.647   4.439   5.464  1.0477 -0.6666 -2.2471
11442SOL    HW236334  10.498   4.413   5.462  0.9570 -0.9734  1.3845
11443SOL     OW36335  10.431   9.465   0.021  0.1622  0.0808  0.1115
11443SOL    HW136336  10.419   9.555   0.053  0.0783 -0.4959  1.8068
11443SOL    HW236337  10.525   9.448   0.032  0.3876  0.3474 -1.3171
11444SOL     OW36338   8.906   8.204   4.819 -0.7603 -0.2941 -0.3285
11444SOL    HW136339   8.828   8.246   4.782 -0.4217  0.1788 -0.5154
11444SOL    HW236340   8.917   8.244   4.905  0.8252  1.6732 -1.3555
11445SOL     OW36341   4.379   9.136   1.599 -0.4252  0.3292 -0.3072
11445SOL    HW136342   4.324   9.138   1.521 -2.2971  0.5736  0.9631
11445SOL    HW236343   4.330   9.083   1.662  1.3694 -0.4764  0.5083
11446SOL     OW36344   1.922   9.206   7.562 -0.2703  0.6244 -0.0768
11446SOL    HW136345   1.986   9.186   7.494  0.3665 -0.9543  0.9223
11446SOL    HW236346   1.975   9.222   7.640 -1.0576 -0.6122  0.7417
11447SOL     OW36347   4.620   5.069   9.232  0.0771 -0.0982  0.1448
11447SOL    HW136348   4.592   4.983   9.263  0.1902 -0.5280 -0.9055
11447SOL    HW236349   4.548   5.100   9.177  0.5791 -0.1263 -0.5541
11448SOL     OW36350   4.575   7.616   4.742 -0.0838  0.4980 -0.3370
11448SOL    HW136351   4.642   7.615   4.811  0.1355  0.6051 -0.5436
11448SOL    HW236352   4.559   7.523   4.724 -1.4563  0.4132  1.0959
11449SOL     OW36353   3.592   5.867   3.174  0.0089  0.6836 -0.3670
11449SOL    HW136354   3.524   5.858   3.107  1.5622 -2.9056 -1.7501
11449SOL    HW236355   3.562   5.813   3.247  1.5802 -1.7156 -1.3600
11450SOL     OW36356   1.244   9.450   4.966  0.4404  0.7133 -0.3213
11450SOL    HW136357   1.272   9.528   5.013 -1.4466  0.8982  0.5816
11450SOL    HW236358   1.206   9.483   4.885 -1.0218  0.8195  0.3870
11451SOL     OW36359   5.925   7.506   4.608 -0.0824  0.5949 -0.4703
11451SOL    HW136360   5.840   7.497   4.565  0.2854 -1.6860 -0.8687
11451SOL    HW236361   5.908   7.488   4.700 -0.0809  0.2539 -0.5325
11452SOL     OW36362   9.091   1.673  10.271  0.1920 -0.2452  0.2542
11452SOL    HW136363   9.032   1.745  10.296 -0.4347 -0.5160 -0.4213
11452SOL    HW236364   9.047   1.594  10.301  1.5359 -0.2926  2.2651
11453SOL     OW36365   7.629   6.363   8.884  0.0965  0.5962 -0.7262
11453SOL    HW136366   7.606   6.369   8.976 -2.7617  1.0097 -1.3945
11453SOL    HW236367   7.643   6.269   8.869  1.2803  0.5960  0.2265
11454SOL     OW36368   8.503   9.152   5.094  0.8143  0.0795 -0.2034
11454SOL    HW136369   8.572   9.088   5.079 -0.2719 -0.8431 -1.4934
11454SOL    HW236370   8.422   9.101   5.093  0.1470  0.9037  2.7624
11455SOL     OW36371   1.512   8.578   1.507 -0.2729  0.6662 -0.6158
11455SOL    HW136372   1.469   8.520   1.445  0.0806  0.0614 -0.3008
11455SOL    HW236373   1.594   8.534   1.528  0.1759  1.4615 -0.6601
11456SOL     OW36374   2.557   2.022   5.419 -0.1722  0.2433 -0.0063
11456SOL    HW136375   2.626   2.090   5.419  0.1275 -0.0584  0.1950
11456SOL    HW236376   2.527   2.019   5.510  0.1142 -0.1925  0.0774
11457SOL     OW36377   0.064   5.152   4.170  0.2300  0.6189 -0.0330
11457SOL    HW136378   0.118   5.173   4.094  1.7325 -0.2105  0.7637
11457SOL    HW236379  -0.023   5.133   4.134  0.7824  0.7695 -1.4808
11458SOL     OW36380   1.093   0.797   4.857 -0.1898 -0.3811 -0.2569
11458SOL    HW136381   1.027   0.834   4.798  0.6777 -0.4198 -1.2873
11458SOL    HW236382   1.132   0.726   4.807  0.6703 -0.3169  0.3125
11459SOL     OW36383   8.533   7.727   7.603  0.1503 -0.1941  0.3700
11459SOL    HW136384   8.612   7.677   7.586  0.9720  0.8813  0.8823
11459SOL    HW236385   8.564   7.810   7.640 -1.1781  0.5218 -0.0371
11460SOL     OW36386   3.692   4.978   6.894  0.2648 -0.3872  0.4996
11460SOL    HW136387   3.775   5.013   6.926  0.2724 -0.2042  0.2832
11460SOL    HW236388   3.638   5.056   6.878  0.8294 -0.3679 -1.5106
11461SOL     OW36389   7.996   6.549   4.925  0.2916 -0.5336 -0.1629
11461SOL    HW136390   7.985   6.632   4.971  0.4897 -0.5598 -0.0665
11461SOL    HW236391   7.956   6.564   4.839  0.4436 -0.2965 -0.1926
11462SOL     OW36392   9.949   8.054   8.569 -0.2216 -0.2339  0.2314
11462SOL    HW136393   9.878   8.039   8.630 -1.2331 -0.1964 -0.8956
11462SOL    HW236394   9.955   8.149   8.561  0.9289 -0.1791  1.3905
11463SOL     OW36395   9.283   4.185   1.660 -0.0625 -0.0476 -0.2577
11463SOL    HW136396   9.309   4.213   1.747  1.6216 -3.1597  0.3612
11463SOL    HW236397   9.191   4.162   1.668  0.4921 -1.9979  1.2661
11464SOL     OW36398   3.342   4.173   4.497 -0.0563 -0.4537 -0.6519
11464SOL    HW136399   3.425   4.202   4.459 -0.4950  2.2520  0.1836
11464SOL    HW236400   3.289   4.146   4.422  0.7996  0.0003 -1.4413
11465SOL     OW36401   3.572   1.916   6.479  0.0225 -0.3761  0.9233
11465SOL    HW136402   3.541   1.843   6.532 -0.4948 -1.5234 -0.8887
11465SOL    HW236403   3.519   1.991   6.508 -4.2815 -2.0715 -1.5720
11466SOL     OW36404   6.841   7.891   0.212 -0.2013 -0.2638 -0.2869
11466SOL    HW136405   6.785   7.840   0.154 -0.9283  0.0808  0.1021
11466SOL    HW236406   6.913   7.832   0.233  1.2100  0.2713 -3.1616
11467SOL     OW36407   1.544   3.847   3.871  1.3293  0.4768  0.7890
11467SOL    HW136408   1.516   3.938   3.881  0.7816  0.5442 -1.0138
11467SOL    HW236409   1.556   3.816   3.961 -2.1879  1.1763  1.6589
11468SOL     OW36410   5.571   1.491   3.652 -0.4212 -0.1467 -0.4987
11468SOL    HW136411   5.511   1.551   3.697  0.0130 -0.5103  0.5986
11468SOL    HW236412   5.618   1.447   3.723  2.2002  1.1474 -1.3329
11469SOL     OW36413  10.794   4.467   1.252  0.5162 -0.5188 -0.3590
11469SOL    HW136414  10.775   4.449   1.160 -0.2354  0.4185 -0.4145
11469SOL    HW236415  10.726   4.419   1.300 -0.1431  0.3327 -0.4002
11470SOL     OW36416   6.178   3.889   4.767  0.4572 -0.5385 -0.2034
11470SOL    HW136417   6.144   3.800   4.761 -3.6686  0.7754  0.3509
11470SOL    HW236418   6.165   3.913   4.859 -1.0429  1.4239 -0.8605
11471SOL     OW36419   5.191   6.941   4.474  0.2579  0.1548 -0.3323
11471SOL    HW136420   5.279   6.978   4.472  0.0771  0.6861  0.8349
11471SOL    HW236421   5.204   6.847   4.460  1.0318  0.2005  0.0538
11472SOL     OW36422   7.884   2.255   2.112  0.0471 -0.4361  0.4878
11472SOL    HW136423   7.961   2.292   2.069  0.5265 -1.0379  0.8301
11472SOL    HW236424   7.812   2.274   2.051  0.2728  1.0475  0.6431
11473SOL     OW36425   2.559   7.170   8.263 -0.0053 -0.4623  0.1418
11473SOL    HW136426   2.521   7.255   8.287  0.7509  0.8373 -2.7996
11473SOL    HW236427   2.523   7.151   8.176  0.7677 -2.5952  0.2242
11474SOL     OW36428   4.629   6.568   1.433 -0.4467 -0.3577 -0.2121
11474SOL    HW136429   4.556   6.611   1.390 -0.2668 -0.7058 -0.8786
11474SOL    HW236430   4.628   6.478   1.400 -0.7639 -0.8564  1.0944
11475SOL     OW36431   0.029   6.767   6.143 -0.2580  0.7127  0.5458
11475SOL    HW136432  -0.060   6.798   6.163 -1.1221 -1.3163  0.1622
11475SOL    HW236433   0.087   6.827   6.188 -1.8622  1.7148  1.3497
11476SOL     OW36434   4.088   6.213   8.374 -0.3092  0.2646  0.5204
11476SOL    HW136435   4.118   6.272   8.443  0.5306 -1.4276  1.6759
11476SOL    HW236436   4.162   6.207   8.313  0.3339 -0.9816  1.3828
11477SOL     OW36437   9.752   8.063   5.309  0.1728  0.4406  0.6957
11477SOL    HW136438   9.764   8.093   5.399 -0.7392  0.1466  0.9270
11477SOL    HW236439   9.735   8.142   5.259 -1.2821  0.4465  1.1411
11478SOL     OW36440   2.478   2.530   8.787 -0.3938 -0.1640  0.1353
11478SOL    HW136441   2.455   2.440   8.766 -1.1635 -0.1597  0.9128
11478SOL    HW236442   2.571   2.526   8.812 -1.0381 -1.1935  2.6008
11479SOL     OW36443   0.285   5.296   4.469  0.2434  0.5610  0.6116
11479SOL    HW136444   0.194   5.309   4.445  0.2060 -0.9845 -0.1772
11479SOL    HW236445   0.335   5.318   4.391  0.6239  1.9659  1.2124
11480SOL     OW36446   8.277   6.340  10.329  0.2211  0.1300  0.0261
11480SOL    HW136447   8.245   6.421  10.369  2.4720  0.2120  1.8565
11480SOL    HW236448   8.220   6.272  10.363  0.2238  0.5951  1.0071
11481SOL     OW36449   9.643   3.308   5.615 -0.3195  0.3251 -0.5622
11481SOL    HW136450   9.636   3.213   5.627  0.5990  0.0933 -1.7450
11481SOL    HW236451   9.563   3.332   5.566 -0.8233  0.2637  0.2123
11482SOL     OW36452   7.071   2.721   0.829  0.1849 -0.2858 -0.4338
11482SOL    HW136453   7.089   2.815   0.829 -0.8597 -0.0762 -0.7969
11482SOL    HW236454   7.148   2.682   0.787  0.3909  0.4617 -0.7714
11483SOL     OW36455   9.837   2.128   9.999 -0.5435  0.1531  0.1096
11483SOL    HW136456   9.770   2.166  10.056 -0.5786 -0.7087  0.6538
11483SOL    HW236457   9.793   2.056   9.954 -1.0729  1.9278 -2.4801
11484SOL     OW36458   1.272   7.087  10.216  0.0266  0.1127 -0.0103
11484SOL    HW136459   1.294   7.179  10.232 -1.0709  0.5392 -0.7882
11484SOL    HW236460   1.309   7.069  10.129  0.7184 -0.3546  0.3754
11485SOL     OW36461   9.607   2.480   8.650  0.3002  0.0224 -0.4404
11485SOL    HW136462   9.581   2.567   8.620  0.5666 -0.0023 -0.7499
11485SOL    HW236463   9.546   2.420   8.607 -1.6440  0.2172  1.8484
11486SOL     OW36464   2.399   3.362   2.853 -0.0035 -0.3275 -0.1400
11486SOL    HW136465   2.470   3.304   2.824  0.0044 -0.0390 -0.7093
11486SOL    HW236466   2.430   3.450   2.833 -1.5792 -0.3028 -2.8917
11487SOL     OW36467   1.283   8.386   2.620 -0.0125  0.1683 -0.2827
11487SOL    HW136468   1.267   8.297   2.652  2.3752 -0.6768 -1.1950
11487SOL    HW236469   1.319   8.432   2.696 -2.5407  0.8799  0.6021
11488SOL     OW36470  10.041   7.362   0.406 -0.2291  0.1544 -0.3602
11488SOL    HW136471  10.107   7.400   0.463 -0.3253 -0.2714  0.0348
11488SOL    HW236472  10.074   7.274   0.386 -0.5370  0.0441 -0.3884
11489SOL     OW36473   7.288   9.264   2.768 -0.0444 -0.0313  0.5403
11489SOL    HW136474   7.201   9.255   2.730  0.3553  0.4824 -0.5068
11489SOL    HW236475   7.305   9.358   2.770  1.1179 -0.1846 -0.7405
11490SOL     OW36476   3.503   2.740   1.745 -0.1455  0.3858 -0.6348
11490SOL    HW136477   3.581   2.777   1.787 -0.2221 -0.1065 -0.0483
11490SOL    HW236478   3.530   2.723   1.655  1.1779 -1.9622  0.1180
11491SOL     OW36479   4.723   2.460   6.158  0.2950 -0.1037  0.2885
11491SOL    HW136480   4.813   2.431   6.163  0.2434 -0.1574  1.0401
11491SOL    HW236481   4.713   2.495   6.070  0.8853 -0.6249  0.0174
11492SOL     OW36482  10.767   3.452   5.034  0.1384 -0.2677  0.1904
11492SOL    HW136483  10.686   3.469   4.986  1.6362 -0.1089 -2.4914
11492SOL    HW236484  10.792   3.537   5.070  0.1398  0.1201 -0.7160
11493SOL     OW36485   4.183   3.631   9.713 -0.8293 -0.2768 -0.4081
11493SOL    HW136486   4.242   3.557   9.702  2.3328  2.1795 -1.5149
11493SOL    HW236487   4.156   3.654   9.624 -2.5053 -0.5405 -0.0116
11494SOL     OW36488   5.242   4.463   1.756  0.3043 -0.3151 -0.1536
11494SOL    HW136489   5.324   4.511   1.761  0.7017 -1.1204  2.1605
11494SOL    HW236490   5.240   4.410   1.836 -2.5644 -0.1738 -0.0327
11495SOL     OW36491   5.544   9.814   8.420  0.3635  0.0716  0.4214
11495SOL    HW136492   5.509   9.725   8.413  0.8796 -0.1473  0.6272
11495SOL    HW236493   5.567   9.824   8.512  2.3464 -0.3652  0.0109
11496SOL     OW36494   8.419   9.327   7.769 -0.2168 -0.6547  0.0545
11496SOL    HW136495   8.416   9.386   7.694 -2.2309 -2.0239 -1.0209
11496SOL    HW236496   8.511   9.302   7.777 -0.0202 -0.8613 -2.2780
11497SOL     OW36497   5.069   7.284   5.035  0.0530 -0.0824  0.1277
11497SOL    HW136498   4.998   7.285   5.099 -1.0273 -0.8793 -1.0174
11497SOL    HW236499   5.141   7.240   5.079  0.4614  2.1929  1.9001
11498SOL     OW36500   5.613   6.118   9.911  0.2745 -0.1754 -0.1507
11498SOL    HW136501   5.593   6.087   9.823  0.5582 -1.7667  0.3265
11498SOL    HW236502   5.633   6.211   9.899  2.4063 -0.7865 -2.1168
11499SOL     OW36503   9.925   4.757   6.916  0.2196 -0.0738 -0.1480
11499SOL    HW136504   9.960   4.670   6.895  3.8000  1.1147  0.1345
11499SOL    HW236505   9.910   4.755   7.010 -0.4891 -0.6149 -0.2690
11500SOL     OW36506   5.397   0.978   2.307 -0.0900  0.1034  0.0622
11500SOL    HW136507   5.397   1.047   2.374 -0.7274 -1.0976  1.3454
11500SOL    HW236508   5.323   0.922   2.330  1.0645 -1.6486 -0.2702
11501SOL     OW36509   0.891   5.014   0.169  0.1647  0.4381 -0.0692
11501SOL    HW136510   0.870   5.103   0.139 -0.2046 -0.0953 -1.4867
11501SOL    HW236511   0.817   4.961   0.140  1.6139 -0.8117 -1.7184
11502SOL     OW36512   3.094   4.316   5.172  0.0810  0.1585  0.1610
11502SOL    HW136513   3.152   4.245   5.146 -0.4242  0.5140 -2.2503
11502SOL    HW236514   3.089   4.372   5.094  1.2522  3.4381  2.2060
11503SOL     OW36515   3.548   8.237   2.164 -0.1502  0.5190 -0.2884
11503SOL    HW136516   3.597   8.305   2.211  0.5792  0.5265 -1.0532
11503SOL    HW236517   3.578   8.155   2.202 -1.1471  0.6011  0.7483
11504SOL     OW36518   5.223   6.059   5.007 -0.4486  0.2772 -0.2384
11504SOL    HW136519   5.285   6.041   5.078  0.3260 -0.6747 -1.1171
11504SOL    HW236520   5.143   6.013   5.032 -0.9147  1.6871  1.0088
11505SOL     OW36521   3.695   4.401   5.973 -0.1833  0.2581 -0.5133
11505SOL    HW136522   3.752   4.476   5.985 -0.5182  0.0572  3.8571
11505SOL    HW236523   3.608   4.439   5.959 -0.0828  0.6620 -0.0499
11506SOL     OW36524   7.776   4.373   2.793 -0.2428 -0.1658  0.6959
11506SOL    HW136525   7.847   4.425   2.755 -0.5787  0.1610  0.5062
11506SOL    HW236526   7.712   4.365   2.722 -1.2117  1.0712  1.3935
11507SOL     OW36527   5.337   7.690   2.197  0.5388 -0.7414  0.6378
11507SOL    HW136528   5.350   7.606   2.240  1.3763 -1.1897 -0.4262
11507SOL    HW236529   5.425   7.726   2.188  0.6819 -1.5294 -2.2852
11508SOL     OW36530   9.285   4.808   5.272  0.0522 -0.3539  0.0189
11508SOL    HW136531   9.299   4.863   5.195 -1.9700  0.2041  0.0075
11508SOL    HW236532   9.211   4.752   5.248  0.1304 -0.9631  1.1582
11509SOL     OW36533   8.157   2.701   4.387 -0.6171  0.5498 -0.3793
11509SOL    HW136534   8.160   2.796   4.378 -0.7188  0.5471 -0.4507
11509SOL    HW236535   8.089   2.673   4.325 -0.7909  0.4583 -0.1458
11510SOL     OW36536   3.386   5.928   6.045 -0.4566 -0.6463 -0.2686
11510SOL    HW136537   3.358   5.838   6.064 -1.4265 -0.1388  0.9088
11510SOL    HW236538   3.417   5.961   6.129 -0.9144  0.3848 -0.4923
11511SOL     OW36539   7.872   3.191   3.086  0.1423  0.1992  0.5181
11511SOL    HW136540   7.949   3.173   3.141 -0.7205 -0.4186  1.5699
11511SOL    HW236541   7.798   3.161   3.139 -0.8128  0.6357 -0.5435
11512SOL     OW36542   8.483   0.223  10.604  0.0873 -0.7380 -0.2506
11512SOL    HW136543   8.542   0.151  10.628  1.5406  0.2690 -0.7127
11512SOL    HW236544   8.521   0.300  10.646 -0.5267  0.0485 -1.1135
11513SOL     OW36545   1.783   8.651   4.293 -0.0812 -0.4396 -0.3394
11513SOL    HW136546   1.762   8.696   4.211  2.1784  0.4334 -0.5065
11513SOL    HW236547   1.796   8.560   4.268  0.3863 -0.2181 -0.9288
11514SOL     OW36548   3.549   0.845   4.624  0.3345  0.2726 -0.3298
11514SOL    HW136549   3.620   0.862   4.562 -0.9777 -0.1674 -2.0344
11514SOL    HW236550   3.505   0.768   4.589 -0.6078  0.1670  1.0412
11515SOL     OW36551   8.147   5.995   1.283 -0.2929  0.2365 -0.2141
11515SOL    HW136552   8.141   5.902   1.260 -0.2935  0.3970 -0.8879
11515SOL    HW236553   8.057   6.022   1.301 -0.2801  0.0857  0.0836
11516SOL     OW36554   3.396  10.917   8.769 -0.0668  0.0869  0.3999
11516SOL    HW136555   3.485  10.883   8.780  0.1646  0.2318 -0.8461
11516SOL    HW236556   3.407  11.011   8.757 -0.0739 -0.2135 -2.6068
11517SOL     OW36557   1.717   7.697   2.379 -0.4981 -0.0919 -0.4585
11517SOL    HW136558   1.629   7.680   2.412 -0.3689 -1.3254 -0.7049
11517SOL    HW236559   1.705   7.767   2.315 -1.6006 -1.4683 -1.8227
11518SOL     OW36560   4.598   2.048   1.103  1.0360  0.3546 -0.3077
11518SOL    HW136561   4.588   2.128   1.052  0.6811  0.4659 -0.0683
11518SOL    HW236562   4.689   2.050   1.135  0.6428  1.3508  0.8281
11519SOL     OW36563   5.829   5.488   9.508 -0.0341 -0.0350 -0.0623
11519SOL    HW136564   5.776   5.459   9.433  3.5241 -1.6860 -2.1571
11519SOL    HW236565   5.878   5.563   9.474  0.6436  0.0468  1.0720
11520SOL     OW36566  10.502   8.065   4.159 -0.0322 -0.1657  0.1695
11520SOL    HW136567  10.464   8.019   4.085 -0.6523  0.6913 -0.0526
11520SOL    HW236568  10.595   8.075   4.136  0.1670 -1.4759  0.3225
11521SOL     OW36569   4.880   9.559  10.238 -0.4021 -0.0337  0.3124
11521SOL    HW136570   4.800   9.605  10.212 -1.0874 -0.7121  1.1599
11521SOL    HW236571   4.918   9.528  10.155 -0.0997  1.7143 -0.2485
11522SOL     OW36572   2.990   3.620   5.566  0.1520 -0.4580 -0.7321
11522SOL    HW136573   2.983   3.581   5.479 -2.0217 -0.8709 -0.4364
11522SOL    HW236574   2.905   3.604   5.607  0.3078  1.7122  0.6317
11523SOL     OW36575   5.488   9.377   1.408 -0.3731 -0.5533 -0.6638
11523SOL    HW136576   5.551   9.380   1.480 -1.5634 -0.0596  0.3984
11523SOL    HW236577   5.443   9.293   1.419  0.4227 -1.1598 -1.7505
11524SOL     OW36578   5.659   8.368   6.222  0.0434  0.2743  0.0261
11524SOL    HW136579   5.663   8.352   6.316 -0.3042 -1.0739 -0.1577
11524SOL    HW236580   5.567   8.352   6.199  0.1483  0.4685 -0.5542
11525SOL     OW36581   4.797   0.878   5.590 -0.4059 -0.2808 -0.5506
11525SOL    HW136582   4.750   0.826   5.525 -0.4832 -1.0253  0.0786
11525SOL    HW236583   4.843   0.813   5.644 -2.3917  0.0789  1.7458
11526SOL     OW36584   4.594   9.098   9.407 -0.0741 -0.4347 -0.5421
11526SOL    HW136585   4.666   9.047   9.371 -1.0153 -1.5380 -0.9193
11526SOL    HW236586   4.533   9.033   9.441  0.0730  0.5217  1.7196
11527SOL     OW36587   1.056  10.121  10.595  0.0626 -0.1079  0.1154
11527SOL    HW136588   1.151  10.128  10.610  0.4410 -1.4289 -1.3242
11527SOL    HW236589   1.034  10.032  10.623 -0.5152 -0.1983 -0.5944
11528SOL     OW36590  10.370   8.324   2.671 -0.1486 -0.1597  0.3536
11528SOL    HW136591  10.289   8.293   2.712 -0.7588  0.0376 -0.6682
11528SOL    HW236592  10.429   8.340   2.744 -0.0809 -2.9147  0.9928
11529SOL     OW36593   7.968   1.539   3.427 -0.6703 -0.2502  0.5434
11529SOL    HW136594   8.009   1.617   3.390  0.0666 -0.5172  0.7712
11529SOL    HW236595   8.020   1.519   3.505 -1.1433 -0.6923  0.7555
11530SOL     OW36596   4.183   7.349   3.645 -0.2723  0.5263 -0.2809
11530SOL    HW136597   4.108   7.402   3.671  1.5812  1.4268  3.9338
11530SOL    HW236598   4.257   7.409   3.646  1.0603 -1.0121 -0.9608
11531SOL     OW36599   3.208   4.763   3.684  0.1763  0.4273  0.9858
11531SOL    HW136600   3.234   4.792   3.772  1.2348 -0.5344  1.0201
11531SOL    HW236601   3.291   4.758   3.636  0.1765 -2.8256  1.1027
11532SOL     OW36602   4.017   8.696   1.902  0.5116 -0.2271  0.4649
11532SOL    HW136603   3.987   8.633   1.969  1.0060 -0.2641  0.6584
11532SOL    HW236604   3.937   8.737   1.870  0.1024 -1.4880 -0.1996
11533SOL     OW36605   4.340   5.835   4.540  0.0998 -0.0617  0.1061
11533SOL    HW136606   4.433   5.848   4.523  0.6362  0.0183  2.6929
11533SOL    HW236607   4.306   5.924   4.552 -0.0977 -0.1460  0.1586
11534SOL     OW36608   3.121   9.859   4.321 -0.0822 -0.3493 -0.1499
11534SOL    HW136609   3.066   9.832   4.248 -0.4793  1.0825 -0.4143
11534SOL    HW236610   3.062   9.859   4.397  0.4216 -2.2224  0.2924
11535SOL     OW36611   9.019   3.085   1.362  0.0861  0.3143 -0.0876
11535SOL    HW136612   8.935   3.071   1.407  1.0800  1.0097  2.1199
11535SOL    HW236613   9.059   2.999   1.359 -0.5328  0.0403 -0.8330
11536SOL     OW36614   0.319   6.481   2.647 -0.7888  0.0156 -0.5772
11536SOL    HW136615   0.331   6.400   2.598  1.0633  0.4089 -0.8572
11536SOL    HW236616   0.347   6.459   2.736 -1.6624 -0.0108 -0.2978
11537SOL     OW36617   1.510   7.597   2.612 -0.0648 -0.6436 -0.0328
11537SOL    HW136618   1.528   7.683   2.573  0.1737 -0.7510 -0.1645
11537SOL    HW236619   1.561   7.597   2.693 -0.3303 -0.5319  0.1337
11538SOL     OW36620   0.124   2.510   1.786 -0.4034 -0.6049  0.0547
11538SOL    HW136621   0.070   2.518   1.707  0.6784  1.4895 -0.5506
11538SOL    HW236622   0.180   2.433   1.769  0.0123 -0.0150 -1.3834
11539SOL     OW36623   1.949  10.369   1.636 -0.1530  0.4815  0.0829
11539SOL    HW136624   2.022  10.316   1.668 -1.1707 -0.5566  0.7765
11539SOL    HW236625   1.903  10.398   1.715  0.5021  2.6624 -0.2595
11540SOL     OW36626   5.341   8.474   7.077  0.2794  0.5089 -0.6520
11540SOL    HW136627   5.327   8.432   6.992  0.5491 -1.1536  0.0874
11540SOL    HW236628   5.404   8.418   7.122 -0.1557  1.1363  0.8018
11541SOL     OW36629   3.239   4.807   3.963 -0.3561  0.2717  0.3471
11541SOL    HW136630   3.153   4.794   4.001  0.1134 -1.3209  0.9604
11541SOL    HW236631   3.299   4.760   4.022  0.5066 -1.5101 -1.8082
11542SOL     OW36632   2.917   6.102   8.473  0.7290  0.0118  0.5151
11542SOL    HW136633   2.913   6.026   8.531 -1.4944  0.6177  1.2429
11542SOL    HW236634   2.941   6.175   8.531  0.5472  0.2737  0.2607
11543SOL     OW36635   8.067   4.717   7.481 -0.0864  0.3456  0.3970
11543SOL    HW136636   8.065   4.759   7.568 -0.1911  1.4103 -0.0985
11543SOL    HW236637   8.038   4.786   7.421 -0.8944 -0.6562 -0.3842
11544SOL     OW36638   3.277   0.041   9.707  0.1371 -0.0568 -0.2887
11544SOL    HW136639   3.251   0.099   9.778  1.0709 -1.2619  1.1060
11544SOL    HW236640   3.206  -0.023   9.701  0.2470 -0.1880 -0.1780
11545SOL     OW36641   2.268   9.626   1.267  0.3857  0.2463  0.2179
11545SOL    HW136642   2.298   9.618   1.176  1.1600  1.1691  0.3859
11545SOL    HW236643   2.290   9.542   1.307  0.1189 -0.1347 -0.4218
11546SOL     OW36644   3.019  10.601  10.150 -0.0782  0.3406 -0.5705
11546SOL    HW136645   2.969  10.528  10.114 -1.7326  0.8700  0.5561
11546SOL    HW236646   3.109  10.569  10.152 -0.6284 -1.3452 -0.9167
11547SOL     OW36647  10.884   5.669   9.191  0.2157  0.6644 -0.3568
11547SOL    HW136648  10.930   5.593   9.226  0.1208  0.1496 -1.3123
11547SOL    HW236649  10.912   5.742   9.246  0.0281 -0.1157  0.7972
11548SOL     OW36650   8.765   0.896   3.528  0.2887  0.4389 -0.5397
11548SOL    HW136651   8.685   0.849   3.506  1.2819 -1.7503  0.2724
11548SOL    HW236652   8.801   0.924   3.444 -1.0501  1.0292 -0.9408
11549SOL     OW36653   0.633   9.838   6.226 -0.6119  0.1046  0.5622
11549SOL    HW136654   0.648   9.909   6.289 -0.4380 -1.6953  2.6626
11549SOL    HW236655   0.720   9.800   6.212 -0.4473  1.1809 -1.7504
11550SOL     OW36656   3.486   9.376  10.186 -0.0748  0.6805  0.8068
11550SOL    HW136657   3.547   9.422  10.129  0.8359 -0.6861  0.6381
11550SOL    HW236658   3.407   9.431  10.185  1.1791  2.5956  1.2031
11551SOL     OW36659   3.393   6.359   7.043  0.2919  0.0546  0.2000
11551SOL    HW136660   3.469   6.418   7.041  1.7213 -1.7331 -0.0929
11551SOL    HW236661   3.422   6.282   7.091 -1.0667 -1.0423 -0.6432
11552SOL     OW36662  10.361  10.384   1.358  0.0670  0.0724 -0.0328
11552SOL    HW136663  10.383  10.408   1.448 -0.1376 -0.9033  0.2828
11552SOL    HW236664  10.272  10.349   1.364 -0.1107  0.3910 -0.6897
11553SOL     OW36665   9.108   9.121   9.210  0.3522  0.4595 -0.3136
11553SOL    HW136666   9.079   9.211   9.194  1.7412  0.7705 -1.2056
11553SOL    HW236667   9.195   9.116   9.171  0.2246 -1.3416 -0.4452
11554SOL     OW36668   3.738   3.968   0.726  0.0272  0.1172 -0.3096
11554SOL    HW136669   3.659   4.019   0.711  0.3515  0.1794 -2.0303
11554SOL    HW236670   3.713   3.878   0.705  0.5414  0.2289 -1.5075
11555SOL     OW36671   0.733  10.099   7.571 -0.3120  0.3487 -0.1245
11555SOL    HW136672   0.728  10.004   7.569 -0.2783  0.3577 -0.7636
11555SOL    HW236673   0.811  10.118   7.622  0.3721  0.0122 -1.0329
11556SOL     OW36674   5.155   6.050   9.850 -0.1299 -0.5876 -0.3817
11556SOL    HW136675   5.174   6.139   9.880  1.1721 -1.1060  0.3971
11556SOL    HW236676   5.142   6.059   9.755  0.8198  0.3268 -0.4447
11557SOL     OW36677   9.393   6.759  10.128 -0.7551 -0.1799  0.6739
11557SOL    HW136678   9.390   6.695  10.057  0.0108  0.2039  0.2741
11557SOL    HW236679   9.467   6.731  10.182  0.5523  1.1796 -0.3326
11558SOL     OW36680   5.529   0.076   1.738  0.2882 -0.0068 -0.0504
11558SOL    HW136681   5.547   0.131   1.661  0.6042  0.9198  0.6716
11558SOL    HW236682   5.452   0.025   1.712  0.4247  0.2417 -1.0075
11559SOL     OW36683  10.794   2.229   9.148  0.7576 -0.4272 -0.0765
11559SOL    HW136684  10.879   2.258   9.116 -0.2252  0.1161 -2.4035
11559SOL    HW236685  10.756   2.308   9.189  0.9310 -0.3750 -0.0163
11560SOL     OW36686   9.429   8.630   0.788  0.1039  0.0882  0.2278
11560SOL    HW136687   9.437   8.579   0.869  0.0234 -1.9105 -0.9626
11560SOL    HW236688   9.511   8.680   0.784  0.2007  0.0562  1.4213
11561SOL     OW36689   7.325   9.301   3.687  0.6340 -0.2876  0.5221
11561SOL    HW136690   7.355   9.285   3.598  1.3206  2.9003  0.0493
11561SOL    HW236691   7.234   9.275   3.687  0.4823  0.1095 -1.2942
11562SOL     OW36692   4.784   3.685   2.864  0.8915 -0.0542  0.2394
11562SOL    HW136693   4.709   3.724   2.908  0.5500  0.5491 -0.8483
11562SOL    HW236694   4.860   3.728   2.903  0.6415 -0.1109  0.8016
11563SOL     OW36695   3.821   8.506   2.066  0.4030  0.4462  0.7095
11563SOL    HW136696   3.877   8.433   2.040  0.0856 -0.2210  1.8091
11563SOL    HW236697   3.772   8.528   1.987  0.9069 -0.1600  0.2135
11564SOL     OW36698   3.385   9.432   3.987 -0.1442  0.2303  0.2957
11564SOL    HW136699   3.307   9.486   3.992 -0.9870 -0.8062 -1.1047
11564SOL    HW236700   3.367   9.358   4.045  0.4064  0.6727  1.0613
11565SOL     OW36701   8.224   5.239   9.340  0.4861 -0.7299 -0.3131
11565SOL    HW136702   8.275   5.241   9.259 -0.9705  0.5267 -1.2528
11565SOL    HW236703   8.198   5.330   9.355  0.5132 -0.9702  1.4471
11566SOL     OW36704   8.156   9.569   0.223 -0.0540 -0.4580 -0.4153
11566SOL    HW136705   8.085   9.579   0.159 -0.0547 -1.0386 -0.5098
11566SOL    HW236706   8.225   9.524   0.176  0.1693 -0.3870 -0.1619
11567SOL     OW36707   8.469   6.396   3.619  0.4828 -0.4820 -0.0303
11567SOL    HW136708   8.390   6.401   3.566  1.0474  0.0185 -0.8468
11567SOL    HW236709   8.439   6.415   3.708 -0.2107  0.4442 -0.4428
11568SOL     OW36710   6.206   6.775   2.915  0.0673  0.2876  0.3688
11568SOL    HW136711   6.162   6.851   2.955 -1.2092  1.1773 -2.4638
11568SOL    HW236712   6.154   6.700   2.945 -0.3298  0.8169  1.0453
11569SOL     OW36713   1.222   6.239   1.069  0.2648 -0.4904 -0.6711
11569SOL    HW136714   1.214   6.320   1.118 -0.7072 -1.1052  0.2299
11569SOL    HW236715   1.250   6.174   1.134  1.7945 -0.7433 -1.5284
11570SOL     OW36716   0.963   6.150   2.643  0.1423 -0.0072 -0.1431
11570SOL    HW136717   0.947   6.230   2.693 -0.5693  0.3794 -0.9522
11570SOL    HW236718   0.891   6.092   2.667 -0.0261  0.0629 -0.4623
11571SOL     OW36719   1.058   6.142   4.390 -0.3480 -0.0091  0.6031
11571SOL    HW136720   1.125   6.106   4.449 -0.5228 -2.2264 -0.4525
11571SOL    HW236721   1.043   6.072   4.326 -1.3547  1.6927 -1.0961
11572SOL     OW36722   7.102   2.707   5.750 -0.3628 -0.2755 -0.3241
11572SOL    HW136723   7.064   2.668   5.671 -2.3815  0.4272  0.2580
11572SOL    HW236724   7.196   2.709   5.732 -0.8515  1.0613 -3.2473
11573SOL     OW36725  10.802   7.299   2.083 -0.4063 -0.3269 -0.2110
11573SOL    HW136726  10.801   7.391   2.111 -1.6058 -0.6596  0.9292
11573SOL    HW236727  10.741   7.255   2.142 -0.3321 -1.7559 -1.1464
11574SOL     OW36728   9.101   4.749   3.961  0.1221 -0.5254 -0.3441
11574SOL    HW136729   9.179   4.731   4.015 -0.7186 -1.8481  0.4754
11574SOL    HW236730   9.061   4.825   4.003 -0.3144 -1.3113  0.7168
11575SOL     OW36731   4.864   6.652   8.402 -0.2753 -0.0408  0.2367
11575SOL    HW136732   4.829   6.734   8.368  0.3398  0.6534  1.2313
11575SOL    HW236733   4.794   6.617   8.457 -0.7266 -0.4466 -0.5798
11576SOL     OW36734  10.876   9.090   6.360 -0.6526 -0.4761  0.0499
11576SOL    HW136735  10.830   9.147   6.422 -0.0962  0.1728 -0.1198
11576SOL    HW236736  10.857   9.127   6.274 -0.8991 -0.9976 -0.1251
11577SOL     OW36737   9.323   3.286   4.601  0.1824  0.6417  0.5035
11577SOL    HW136738   9.313   3.221   4.671  1.0708  0.2987  0.3243
11577SOL    HW236739   9.263   3.258   4.533 -0.4275  0.7747  0.9795
11578SOL     OW36740   0.677   3.664   5.412  0.2703  0.5897  0.6327
11578SOL    HW136741   0.746   3.662   5.478  1.7366  0.3066 -0.8727
11578SOL    HW236742   0.596   3.664   5.463  1.2973 -1.7444  2.4174
11579SOL     OW36743   0.563   3.370   0.739  0.4236 -0.0202 -0.6486
11579SOL    HW136744   0.652   3.374   0.704  0.8805 -1.1454  0.3121
11579SOL    HW236745   0.534   3.461   0.742  1.4776  0.3465 -1.1377
11580SOL     OW36746   4.077   8.249   1.447 -0.0829 -0.0209  0.1723
11580SOL    HW136747   4.063   8.312   1.518  0.9260  0.1094  0.2784
11580SOL    HW236748   3.991   8.211   1.430 -0.7172  1.4159  0.0766
11581SOL     OW36749   2.638   3.752   5.207  0.2807  0.3005  0.6248
11581SOL    HW136750   2.715   3.785   5.254  1.1482 -1.4390  0.4899
11581SOL    HW236751   2.628   3.813   5.133  0.5768  1.4353  1.4874
11582SOL     OW36752  10.069   9.924  10.239 -0.4716 -0.3012  0.2156
11582SOL    HW136753  10.011   9.861  10.282 -0.2778  0.2866  1.3766
11582SOL    HW236754  10.157   9.897  10.263 -0.3415 -0.1162 -0.0456
11583SOL     OW36755   3.088   6.184   7.563  0.2443  0.2081  0.3815
11583SOL    HW136756   3.183   6.178   7.558  0.1781 -0.2129 -0.8479
11583SOL    HW236757   3.068   6.177   7.656  1.4029  0.1046  0.6380
11584SOL     OW36758   1.753  10.580   3.281  0.4767  0.0604  0.1827
11584SOL    HW136759   1.804  10.597   3.201 -0.8439 -1.6209 -1.0697
11584SOL    HW236760   1.759  10.662   3.329  1.2084  1.1951 -1.6898
11585SOL     OW36761   8.569   8.111   2.890 -0.5412 -0.3000 -0.1344
11585SOL    HW136762   8.553   8.166   2.967 -0.6739  2.1217 -1.7961
11585SOL    HW236763   8.503   8.137   2.827  0.8441 -0.7038 -1.8460
11586SOL     OW36764   1.936   5.279   4.309  0.5179  0.6486  0.0996
11586SOL    HW136765   1.928   5.205   4.248 -1.7610 -0.4046  1.5261
11586SOL    HW236766   1.933   5.356   4.253 -0.4688 -0.2987 -1.2260
11587SOL     OW36767  10.800   9.807   9.334  0.2748  0.0135 -0.0210
11587SOL    HW136768  10.825   9.842   9.249 -1.3781  0.2106 -0.4769
11587SOL    HW236769  10.882   9.799   9.382  0.9596  2.5969 -0.6070
11588SOL     OW36770   3.664   6.882   0.605 -0.1214  0.1749 -0.5466
11588SOL    HW136771   3.617   6.857   0.685 -0.1246  0.4611 -0.4592
11588SOL    HW236772   3.756   6.880   0.629 -0.1718  1.3910 -0.2090
11589SOL     OW36773   2.926   3.715  10.346  0.5352  0.1384 -0.0322
11589SOL    HW136774   2.966   3.802  10.344 -0.2296  0.4868 -1.1475
11589SOL    HW236775   2.995   3.656  10.317  1.3065  0.2365  1.4756
11590SOL     OW36776   5.210   6.842   9.088 -0.0858 -0.6824  0.1473
11590SOL    HW136777   5.134   6.858   9.144 -0.3693  0.2158 -0.4527
11590SOL    HW236778   5.247   6.930   9.073  0.2926 -0.9636 -0.6240
11591SOL     OW36779   2.835   5.762   4.842 -0.1324  0.5841  0.1213
11591SOL    HW136780   2.875   5.844   4.868  0.8029  0.5606 -1.1330
11591SOL    HW236781   2.750   5.761   4.887 -1.0994  3.2181 -1.3675
11592SOL     OW36782   5.817   8.774   3.428 -0.1642 -0.4290 -0.4720
11592SOL    HW136783   5.784   8.861   3.405 -0.5161 -0.6170 -0.6898
11592SOL    HW236784   5.798   8.765   3.521 -0.5606 -0.4580 -0.5531
11593SOL     OW36785   5.722   5.489   4.141 -0.0339  0.4951  0.2043
11593SOL    HW136786   5.661   5.528   4.078  1.5590  0.3987 -1.5031
11593SOL    HW236787   5.683   5.507   4.227 -1.2269  2.5296 -0.6815
11594SOL     OW36788   0.721   8.531   1.665 -0.2201  0.0105 -0.0797
11594SOL    HW136789   0.663   8.455   1.654 -1.6723  0.9370  0.8043
11594SOL    HW236790   0.678   8.601   1.614 -1.0089  1.2569  2.1638
11595SOL     OW36791   4.075   2.795   3.715  0.1644  0.0844 -0.2640
11595SOL    HW136792   3.992   2.753   3.692 -0.3163  0.9594 -0.1750
11595SOL    HW236793   4.116   2.735   3.777 -0.1075 -0.6634 -0.7969
11596SOL     OW36794   7.341   8.766   3.932 -0.4322  0.1123 -0.6113
11596SOL    HW136795   7.302   8.825   3.867  0.4855 -0.1119 -1.3723
11596SOL    HW236796   7.426   8.743   3.896 -0.7454 -1.6352 -0.2942
11597SOL     OW36797  10.485   7.442   1.342  0.8317 -0.1869 -0.0700
11597SOL    HW136798  10.459   7.532   1.320 -0.7125 -0.4965  0.3374
11597SOL    HW236799  10.552   7.452   1.410 -0.4813  0.6748  1.1585
11598SOL     OW36800   1.938   9.925   0.415 -0.2245  0.2513  0.6169
11598SOL    HW136801   1.934   9.830   0.405 -0.7980  0.1935  1.3279
11598SOL    HW236802   1.849   9.951   0.439 -0.3378  1.1024 -0.6408
11599SOL     OW36803   2.816   2.282   1.386  0.2494  0.2601  0.4104
11599SOL    HW136804   2.794   2.267   1.478  0.7868 -1.3008  0.3043
11599SOL    HW236805   2.847   2.197   1.354  1.0001  1.0146 -0.9582
11600SOL     OW36806  11.086   1.928  10.457 -0.3150  0.2902  0.5355
11600SOL    HW136807  11.158   1.891  10.507  0.7504  0.7820 -0.5726
11600SOL    HW236808  11.118   2.014  10.429  0.2859 -0.9768 -3.2467
11601SOL     OW36809   0.950   1.218   8.921 -0.4253 -0.7517  0.7018
11601SOL    HW136810   0.944   1.191   9.012 -0.3096  0.5376  1.1051
11601SOL    HW236811   1.044   1.215   8.902 -0.3923 -0.4159  0.8137
11602SOL     OW36812   7.514   8.589   5.769  0.1393  0.0708  0.4652
11602SOL    HW136813   7.610   8.597   5.769  0.2393 -0.7205  1.6862
11602SOL    HW236814   7.485   8.657   5.829 -0.2720  1.8035 -1.6046
11603SOL     OW36815   6.226   9.113   2.069  0.3456  0.3628  0.3583
11603SOL    HW136816   6.138   9.077   2.083  0.4863  0.2105  0.8715
11603SOL    HW236817   6.281   9.035   2.057  0.5106  0.4304  0.6548
11604SOL     OW36818   8.822   5.190   3.321 -0.6893 -0.0517  0.6343
11604SOL    HW136819   8.822   5.135   3.399  1.7496 -2.1382 -0.6931
11604SOL    HW236820   8.885   5.260   3.341  0.1043 -0.7125  0.4953
11605SOL     OW36821   4.981   2.032   4.722  0.5526 -0.3765  0.0529
11605SOL    HW136822   5.017   1.943   4.728 -1.3529 -1.0788  2.7399
11605SOL    HW236823   4.900   2.022   4.672  0.2290 -0.1886  0.5397
11606SOL     OW36824   7.501   8.470   2.810 -0.1027  0.2446 -0.4221
11606SOL    HW136825   7.422   8.434   2.850 -0.2321  0.6436 -0.3179
11606SOL    HW236826   7.483   8.563   2.800  0.7269  0.5232  0.5118
11607SOL     OW36827   5.868   2.034   4.959 -0.1227 -0.1002  0.7565
11607SOL    HW136828   5.781   2.070   4.975  0.2977  1.5328 -0.3640
11607SOL    HW236829   5.922   2.066   5.031 -0.0130  0.5647  0.3844
11608SOL     OW36830   4.347  10.583  10.370  0.4482  1.0650 -0.3821
11608SOL    HW136831   4.424  10.562  10.316  0.6450  0.3950  0.1428
11608SOL    HW236832   4.278  10.602  10.307 -0.7139 -4.2082 -1.2136
11609SOL     OW36833   1.771   6.605   7.687 -0.0139  0.8672 -0.1079
11609SOL    HW136834   1.724   6.573   7.609 -0.7241  0.0377  0.6416
11609SOL    HW236835   1.820   6.529   7.718 -1.7827  0.3880  1.7499
11610SOL     OW36836   3.056   8.783   2.659  0.0067  0.1070 -0.3044
11610SOL    HW136837   3.026   8.806   2.747  0.8452 -1.0372  0.3055
11610SOL    HW236838   3.077   8.690   2.664 -2.1413 -0.5826 -2.3537
11611SOL     OW36839   6.345  10.626   1.398  0.2457  0.3103  0.0558
11611SOL    HW136840   6.299  10.546   1.425  1.0234 -0.4577 -0.8382
11611SOL    HW236841   6.438  10.604   1.404  0.4585  0.6160 -1.7304
11612SOL     OW36842   4.240   2.045   1.064  0.0639 -0.0276  0.8757
11612SOL    HW136843   4.225   1.977   1.129  1.7141  0.0281  1.3538
11612SOL    HW236844   4.206   2.125   1.104  1.0330 -0.0010  1.6643
11613SOL     OW36845   6.452   4.534  10.167 -0.4141  0.3094  0.1998
11613SOL    HW136846   6.508   4.608  10.144  0.0219 -0.1468 -0.2424
11613SOL    HW236847   6.473   4.516  10.259 -1.0217  1.1574  0.5166
11614SOL     OW36848   7.808   5.110   0.047  0.2026 -0.2535  0.4277
11614SOL    HW136849   7.747   5.175   0.082 -1.6137 -2.0151  0.6952
11614SOL    HW236850   7.773   5.087  -0.039 -0.2538 -2.1256  1.0567
11615SOL     OW36851   6.712   1.003   5.160 -0.0301 -0.2641 -0.3924
11615SOL    HW136852   6.644   0.936   5.154 -0.2711  0.1294 -3.0051
11615SOL    HW236853   6.671   1.074   5.210  0.0528 -1.7649  1.9490
11616SOL     OW36854   2.414   9.654   5.217  0.4174  0.1523 -0.5029
11616SOL    HW136855   2.377   9.624   5.300  0.0557 -0.6828 -0.9504
11616SOL    HW236856   2.497   9.606   5.209 -0.0187 -0.5264 -1.0805
11617SOL     OW36857   1.623   7.816   6.504 -0.0012  0.4684 -0.1676
11617SOL    HW136858   1.612   7.873   6.428  1.6288  0.5074 -0.4041
11617SOL    HW236859   1.571   7.858   6.573  0.4416  1.7496 -0.5896
11618SOL     OW36860   4.563   5.623   2.847 -0.3066 -0.1080 -0.0491
11618SOL    HW136861   4.500   5.695   2.845 -1.1662 -0.8479 -0.0713
11618SOL    HW236862   4.636   5.654   2.793 -1.1490  0.3164 -0.9958
11619SOL     OW36863   1.855   2.341   5.916 -0.5691  0.0137 -0.2500
11619SOL    HW136864   1.914   2.277   5.957  1.4425  0.2850 -2.4987
11619SOL    HW236865   1.907   2.421   5.909 -0.9360  0.0918 -2.8545
11620SOL     OW36866   9.835   9.392  10.323  0.2730  0.0746  0.0429
11620SOL    HW136867   9.875   9.328  10.382  1.3266 -0.9706 -1.7307
11620SOL    HW236868   9.761   9.346  10.284 -0.5442  0.8256  0.6669
11621SOL     OW36869  10.209   5.874   2.058 -0.4340 -0.9294  0.8898
11621SOL    HW136870  10.195   5.964   2.086  1.3223 -0.0014 -0.9369
11621SOL    HW236871  10.125   5.846   2.022 -0.4922  0.7170 -0.3409
11622SOL     OW36872   1.881   6.411   1.514  0.3984 -0.6095  0.1906
11622SOL    HW136873   1.873   6.365   1.598 -0.7851  1.3186  1.2063
11622SOL    HW236874   1.821   6.365   1.455  0.6879 -1.5268  0.5917
11623SOL     OW36875   4.608  10.796   0.741 -0.1448 -1.2704 -0.1871
11623SOL    HW136876   4.514  10.778   0.738 -0.3018 -0.5794  0.1560
11623SOL    HW236877   4.617  10.881   0.697  0.2755 -1.2108  0.0066
11624SOL     OW36878   3.674   5.113   6.372  0.5285 -0.7101 -0.7110
11624SOL    HW136879   3.729   5.169   6.316  0.2921 -0.2187 -0.4610
11624SOL    HW236880   3.713   5.026   6.364  2.7205 -0.0155  1.1109
11625SOL     OW36881   6.504   7.449   0.199 -0.2713  0.0689  0.2443
11625SOL    HW136882   6.565   7.519   0.176 -0.0618  0.0948  0.8494
11625SOL    HW236883   6.559   7.382   0.240 -0.7635  0.5041  1.6760
11626SOL     OW36884   2.025   8.228   5.349 -0.1331  0.0064 -0.0549
11626SOL    HW136885   2.095   8.202   5.410 -1.6805  1.2059  2.4037
11626SOL    HW236886   1.955   8.164   5.366  0.1518 -0.9705 -2.2338
11627SOL     OW36887   3.844   0.395  10.354  0.0443  0.0442  0.3536
11627SOL    HW136888   3.903   0.468  10.374 -0.9536  0.8818  0.3233
11627SOL    HW236889   3.855   0.380  10.260  0.6359 -0.2107  0.4544
11628SOL     OW36890   0.145   8.619   9.234 -0.0520 -0.0688 -0.0899
11628SOL    HW136891   0.156   8.698   9.287 -0.1695  0.9634 -1.5469
11628SOL    HW236892   0.059   8.630   9.192 -0.0488 -0.9528 -0.3530
11629SOL     OW36893   1.321  10.628   1.747  0.1574 -0.0023 -0.4136
11629SOL    HW136894   1.331  10.535   1.725 -0.5463 -0.4108  0.8794
11629SOL    HW236895   1.398  10.648   1.799 -0.9067 -0.5795  1.4646
11630SOL     OW36896   6.740   1.531   4.356  0.3102 -0.5327 -0.3832
11630SOL    HW136897   6.823   1.498   4.390  0.2413 -0.6301 -0.3119
11630SOL    HW236898   6.740   1.624   4.379 -0.3643 -0.8711  1.1311
11631SOL     OW36899   8.641   8.475   3.523  0.3492  0.3809 -0.4291
11631SOL    HW136900   8.702   8.539   3.488 -1.8845  2.5149 -0.6923
11631SOL    HW236901   8.568   8.475   3.461 -0.7292 -0.7634  0.7596
11632SOL     OW36902   3.780   4.464   6.788 -0.5042  0.2040  0.0287
11632SOL    HW136903   3.703   4.500   6.832  0.3169 -0.0052  1.7314
11632SOL    HW236904   3.765   4.370   6.785 -1.0283  0.3073 -1.1440
11633SOL     OW36905   1.655   2.987   3.949 -0.3750 -0.5586 -0.1378
11633SOL    HW136906   1.568   2.960   3.980 -0.2422 -1.4388 -0.4997
11633SOL    HW236907   1.687   2.911   3.901  0.3970 -0.0554 -0.4213
11634SOL     OW36908   4.370   2.367   1.885 -0.1933 -0.4919  0.3844
11634SOL    HW136909   4.287   2.409   1.862  0.9901  1.5457 -0.4189
11634SOL    HW236910   4.344   2.290   1.936 -2.5859 -0.3042 -0.3978
11635SOL     OW36911   8.567   2.688   0.961  0.8011 -0.0103  0.1885
11635SOL    HW136912   8.613   2.692   0.877 -2.0334 -1.2903 -1.5872
11635SOL    HW236913   8.590   2.602   0.996  1.3142  0.1702  0.3010
11636SOL     OW36914  10.508   3.805   1.210  0.1021  0.1972  0.3418
11636SOL    HW136915  10.487   3.722   1.167 -0.2523  0.0086  0.8621
11636SOL    HW236916  10.565   3.851   1.149  0.9313 -0.7615  0.3690
11637SOL     OW36917  11.043   0.954  10.930 -0.3581  0.3752 -0.0895
11637SOL    HW136918  11.138   0.961  10.917 -0.3747  2.0988  0.4347
11637SOL    HW236919  11.031   0.869  10.972  0.9680  0.1350 -0.1529
11638SOL     OW36920   2.458   4.742   2.226 -0.2228 -0.7028  0.2771
11638SOL    HW136921   2.551   4.752   2.246 -0.0524 -1.4375 -0.1228
11638SOL    HW236922   2.424   4.686   2.297  0.2647 -2.8482 -1.1069
11639SOL     OW36923   2.519  10.874   0.649 -0.6702 -0.2230 -0.1397
11639SOL    HW136924   2.589  10.839   0.704 -0.5821 -2.3083 -1.5012
11639SOL    HW236925   2.439  10.831   0.681 -0.8406 -0.3249 -0.6972
11640SOL     OW36926   3.164   9.277   5.036 -0.1125 -0.0417  0.2487
11640SOL    HW136927   3.106   9.209   5.067 -2.1787  2.8330  3.3546
11640SOL    HW236928   3.220   9.297   5.110  0.2739  1.7623 -0.4723
11641SOL     OW36929   6.102   2.944   3.303 -0.3506  0.6541  0.1259
11641SOL    HW136930   6.135   2.870   3.251 -1.9018  0.3691 -0.5166
11641SOL    HW236931   6.027   2.908   3.350 -2.6225  2.3280 -1.9821
11642SOL     OW36932   3.558   8.020   0.834 -0.2369 -0.0276 -0.1551
11642SOL    HW136933   3.637   8.075   0.837 -1.3808  1.6746  0.5757
11642SOL    HW236934   3.512   8.048   0.755 -0.8176  0.0473  0.2053
11643SOL     OW36935   3.407   5.109   1.641  0.1146 -0.0241 -0.1432
11643SOL    HW136936   3.372   5.133   1.555  0.4299  0.2679 -0.1916
11643SOL    HW236937   3.436   5.019   1.631 -1.5736 -0.6452  0.1895
11644SOL     OW36938   8.525   4.154   3.021 -0.1916 -0.2832 -0.2005
11644SOL    HW136939   8.563   4.232   2.980 -0.2461 -0.4594 -0.5863
11644SOL    HW236940   8.578   4.141   3.100 -0.7443  0.6701  0.3471
11645SOL     OW36941   1.106   2.060   5.078  0.1192  0.2929 -0.1718
11645SOL    HW136942   1.015   2.036   5.094  0.3637 -0.7805 -0.3407
11645SOL    HW236943   1.144   2.067   5.166  0.1721 -0.4624 -0.1307
11646SOL     OW36944   3.193   1.975   1.490 -0.2457 -0.0113 -0.0379
11646SOL    HW136945   3.225   1.885   1.497 -1.6400 -0.5884 -0.5686
11646SOL    HW236946   3.181   1.989   1.396 -1.7171  0.0575  0.1259
11647SOL     OW36947  10.265   3.068   4.831  0.1349  0.1019 -0.0539
11647SOL    HW136948  10.285   3.132   4.763 -0.2455 -0.5574 -0.8004
11647SOL    HW236949  10.319   2.992   4.809 -0.7469 -0.4922 -0.2253
11648SOL     OW36950   8.044   0.315   3.702  0.2633 -0.1622  0.7569
11648SOL    HW136951   8.136   0.337   3.716  0.4967  0.3711 -1.2059
11648SOL    HW236952   8.038   0.222   3.726  1.3347 -0.2143  0.8783
11649SOL     OW36953   1.285   0.326  10.690  0.2106  0.1343 -0.4105
11649SOL    HW136954   1.247   0.310  10.604  1.8980  1.5511 -1.4780
11649SOL    HW236955   1.380   0.317  10.677  0.5836  1.5093  1.0091
11650SOL     OW36956   6.253   5.350   3.140  0.3595 -0.1929 -0.2032
11650SOL    HW136957   6.339   5.377   3.106  0.5812 -1.1521 -0.4480
11650SOL    HW236958   6.255   5.255   3.134 -0.4670 -0.2549  0.4418
11651SOL     OW36959   1.549   0.400   4.631 -0.0081  0.4928 -0.9979
11651SOL    HW136960   1.478   0.408   4.696 -0.4197 -0.4990 -1.3107
11651SOL    HW236961   1.619   0.355   4.678 -0.5056 -0.7013 -1.3845
11652SOL     OW36962   8.788   6.652   0.010 -0.7841  0.8968  0.4060
11652SOL    HW136963   8.799   6.747   0.018 -2.8194  1.1242  0.9518
11652SOL    HW236964   8.747   6.639  -0.075  0.8920  0.3184 -0.3682
11653SOL     OW36965   2.518   4.591   8.785  0.3733  0.2614  0.2517
11653SOL    HW136966   2.544   4.628   8.870 -0.0309 -0.5122  0.7200
11653SOL    HW236967   2.576   4.633   8.722  1.1262  0.3562  0.9935
11654SOL     OW36968   2.720   1.517   2.817 -0.0252 -0.4281 -0.2348
11654SOL    HW136969   2.629   1.507   2.844 -0.6433 -0.7971 -2.3145
11654SOL    HW236970   2.765   1.441   2.854 -0.7636 -0.7714 -0.0399
11655SOL     OW36971   9.976   9.979   9.261 -0.0334 -0.3284 -0.0730
11655SOL    HW136972   9.893  10.026   9.272  0.7037  0.9970 -0.0588
11655SOL    HW236973  10.024  10.029   9.196  1.1565 -0.5488  0.6136
11656SOL     OW36974   1.640   5.199   9.963 -0.3676 -0.0252  0.0325
11656SOL    HW136975   1.720   5.233  10.002 -0.4393 -1.0532  1.1565
11656SOL    HW236976   1.570   5.231  10.020 -0.9747  2.2035 -1.8380
11657SOL     OW36977   4.103  10.710   3.842 -0.3143 -0.0354  0.2968
11657SOL    HW136978   4.186  10.676   3.875 -0.2779  0.4016  0.6631
11657SOL    HW236979   4.128  10.768   3.769 -0.4727 -2.1455 -1.5568
11658SOL     OW36980   7.922   5.811   5.739  0.2614  0.4009 -0.1084
11658SOL    HW136981   7.917   5.849   5.826  1.2077 -1.7052  0.9354
11658SOL    HW236982   7.971   5.729   5.751  0.8226  0.2672 -2.6861
11659SOL     OW36983   9.337   6.021   2.594  0.0597  0.0283  0.6256
11659SOL    HW136984   9.379   6.001   2.511 -1.4148  0.1864 -0.1928
11659SOL    HW236985   9.342   5.940   2.644  0.0150 -0.3939 -0.0451
11660SOL     OW36986   9.701   4.487  10.659  0.7145  0.1962  0.0643
11660SOL    HW136987   9.686   4.526  10.745  1.6454 -1.2655  0.9258
11660SOL    HW236988   9.789   4.515  10.634  0.7436  0.0061 -0.0536
11661SOL     OW36989   5.529   1.434   5.936  0.1694 -0.4581  0.4349
11661SOL    HW136990   5.517   1.522   5.971 -0.2339 -0.2435 -0.2280
11661SOL    HW236991   5.615   1.406   5.969  1.9032  1.4865 -2.0321
11662SOL     OW36992  10.032   4.789   7.755  0.7304  0.3761 -0.3124
11662SOL    HW136993  10.027   4.878   7.791  0.4161  0.7461 -1.2364
11662SOL    HW236994  10.093   4.743   7.813  0.6164  1.0851  0.3934
11663SOL     OW36995   9.864   0.697   9.781  0.0598  0.2347 -0.5713
11663SOL    HW136996   9.932   0.630   9.794  0.2123  0.5708  0.4776
11663SOL    HW236997   9.902   0.777   9.819 -1.0947  0.3176  0.4977
11664SOL     OW36998   7.260   9.524   8.972 -0.1977 -0.3858  0.2674
11664SOL    HW136999   7.246   9.604   9.021 -0.8501  1.7726 -3.0779
11664SOL    HW237000   7.339   9.540   8.921 -0.6624 -1.5646 -0.8996
11665SOL     OW37001   0.493   3.280   3.659  0.4276 -0.0852  0.5300
11665SOL    HW137002   0.502   3.267   3.565  1.6101  0.7021  0.5119
11665SOL    HW237003   0.583   3.292   3.691  0.0974 -0.8714  1.8438
11666SOL     OW37004   0.194   8.367   6.158  0.0002  0.0251  0.3886
11666SOL    HW137005   0.222   8.457   6.166 -0.8842  0.4634 -1.0048
11666SOL    HW237006   0.212   8.344   6.066 -2.8633 -0.0516 -0.2529
11667SOL     OW37007   6.863   6.287   3.015  0.3246 -0.4907  0.3199
11667SOL    HW137008   6.787   6.232   3.033 -0.4672 -0.4211 -2.4541
11667SOL    HW237009   6.880   6.332   3.098 -3.2889  0.2302  0.8145
11668SOL     OW37010   3.524   7.855   4.590  0.0520  0.0029  0.4462
11668SOL    HW137011   3.568   7.770   4.593  1.1793  0.5911  1.2485
11668SOL    HW237012   3.550   7.899   4.671 -0.9982  0.8844  0.3262
11669SOL     OW37013   5.029   2.706   4.030  0.1916 -0.1673 -0.8116
11669SOL    HW137014   5.033   2.664   3.944  0.4102 -0.0762 -0.8460
11669SOL    HW237015   4.991   2.792   4.013  0.8406  0.1040 -0.9145
11670SOL     OW37016   7.532   0.490   3.367  0.5663 -0.7898 -0.9416
11670SOL    HW137017   7.508   0.434   3.441 -1.5911 -0.2359 -1.1555
11670SOL    HW237018   7.625   0.473   3.353  0.5229 -2.5120  0.5228
11671SOL     OW37019   9.278   7.312   8.312  0.5419 -0.4193 -0.0302
11671SOL    HW137020   9.363   7.310   8.268  0.7743  0.6881  0.3550
11671SOL    HW237021   9.293   7.265   8.394  0.1253 -2.4300 -1.0376
11672SOL     OW37022   0.685   5.646  10.222 -0.7620  0.0048 -0.1843
11672SOL    HW137023   0.667   5.710  10.153  2.2578  1.9805  0.6714
11672SOL    HW237024   0.728   5.574  10.177  0.3843  0.8851 -0.5443
11673SOL     OW37025   3.076   8.522   0.259 -0.8087  0.1499  0.0899
11673SOL    HW137026   3.104   8.524   0.350 -2.4396 -1.5590  0.6968
11673SOL    HW237027   3.117   8.599   0.219  2.1305 -0.5101  1.5692
11674SOL     OW37028   3.942   8.908   1.410 -0.0505  0.0616  0.5463
11674SOL    HW137029   3.965   8.815   1.401 -0.2643 -0.0161  0.7865
11674SOL    HW237030   3.881   8.924   1.339  0.4682  0.1772  0.1246
11675SOL     OW37031   4.363   9.524   1.769  0.2993 -0.4722  0.1105
11675SOL    HW137032   4.310   9.558   1.696  0.2568 -1.1012 -0.1617
11675SOL    HW237033   4.382   9.600   1.823 -1.2611 -0.2932  0.4551
11676SOL     OW37034  10.746   4.674   0.301  0.2340 -0.3553 -0.1122
11676SOL    HW137035  10.835   4.692   0.332 -0.0624 -0.0361  0.5833
11676SOL    HW237036  10.735   4.580   0.315  0.8876 -0.6320 -1.3570
11677SOL     OW37037   8.030   6.053   4.197 -0.0006 -0.2731 -0.2186
11677SOL    HW137038   7.984   5.992   4.255  1.1326 -1.4515 -0.5036
11677SOL    HW237039   7.961   6.093   4.144 -0.7969 -1.2461  0.0580
11678SOL     OW37040   4.447   2.010   6.457  0.3676  0.1631  0.0934
11678SOL    HW137041   4.390   2.020   6.533  2.2058  1.5692  1.3876
11678SOL    HW237042   4.472   1.918   6.457 -2.8393 -0.8723 -1.3452
11679SOL     OW37043   6.429   9.678   8.846  0.4998  0.0894 -0.0385
11679SOL    HW137044   6.372   9.729   8.903 -0.1521 -1.0314  0.3409
11679SOL    HW237045   6.491   9.742   8.810  0.2219  0.9953  1.0563
11680SOL     OW37046   4.751   4.401   2.737 -0.3330 -0.3306  0.1083
11680SOL    HW137047   4.829   4.442   2.775  1.3559 -2.9950 -0.2005
11680SOL    HW237048   4.718   4.465   2.675  0.7524  1.4708  1.3150
11681SOL     OW37049   2.290   6.819  10.656 -0.3916  0.8794 -0.2266
11681SOL    HW137050   2.241   6.873  10.719 -0.0346  0.2381  0.6149
11681SOL    HW237051   2.381   6.843  10.670 -0.3712  1.4187 -1.1754
11682SOL     OW37052   3.326   2.400   2.566 -0.1364 -0.3806  0.0854
11682SOL    HW137053   3.418   2.403   2.594 -0.5300  0.6274  1.3905
11682SOL    HW237054   3.309   2.487   2.530 -0.8301 -0.2489  0.7090
11683SOL     OW37055  10.154   6.811   9.982  0.7892 -0.0592  0.0110
11683SOL    HW137056  10.230   6.784   9.930  1.6209 -0.5921  1.4422
11683SOL    HW237057  10.091   6.739   9.972 -1.5196  2.1957 -4.7016
11684SOL     OW37058  10.311   0.310   4.650 -0.4976 -0.4383  0.1049
11684SOL    HW137059  10.372   0.238   4.665  0.0835 -0.2670 -1.2936
11684SOL    HW237060  10.364   0.389   4.657 -0.6474 -0.2645 -0.5690
11685SOL     OW37061   3.092   8.476   8.607 -0.0804 -0.4011 -0.0054
11685SOL    HW137062   3.044   8.396   8.585  1.3996 -1.3119 -0.0242
11685SOL    HW237063   3.089   8.480   8.702  0.1776 -0.6933  0.0161
11686SOL     OW37064   7.417   8.711   1.758  0.8331 -0.4394  0.1382
11686SOL    HW137065   7.379   8.740   1.840  1.6312  0.0200  0.3531
11686SOL    HW237066   7.347   8.723   1.693  0.6515  0.4986  0.4988
11687SOL     OW37067   3.322   2.487   3.886 -1.0843  0.1090  0.4367
11687SOL    HW137068   3.252   2.464   3.825 -1.3428  0.0905  0.7374
11687SOL    HW237069   3.313   2.424   3.958 -1.0541  0.4021  0.7000
11688SOL     OW37070  10.899   6.972   0.927  0.2578 -0.0466  0.0893
11688SOL    HW137071  10.858   6.943   0.846  0.4465 -1.8388  0.5927
11688SOL    HW237072  10.947   7.051   0.903 -0.2222 -0.1720 -1.3846
11689SOL     OW37073   7.090   6.817   2.633 -0.2117  0.1940  0.4325
11689SOL    HW137074   7.172   6.774   2.608 -1.3994 -1.4821 -0.8281
11689SOL    HW237075   7.040   6.822   2.552 -1.8889 -0.0565  1.4083
11690SOL     OW37076   8.617   1.241   5.283  0.2339  0.8097 -0.2731
11690SOL    HW137077   8.699   1.214   5.241  1.5536  1.8411  1.4399
11690SOL    HW237078   8.609   1.334   5.262 -1.0118  0.5263 -1.1563
11691SOL     OW37079   1.204   5.629   5.827 -0.3913 -0.1467  0.4009
11691SOL    HW137080   1.208   5.713   5.781 -0.8174 -1.0086 -1.2721
11691SOL    HW237081   1.254   5.644   5.908 -0.0306  1.5531 -0.0938
11692SOL     OW37082   0.085   6.214   6.329 -0.0177 -0.0489 -0.0951
11692SOL    HW137083   0.151   6.282   6.344 -0.4600  0.0907  1.4437
11692SOL    HW237084   0.132   6.132   6.342  0.1595  0.0090 -0.3684
11693SOL     OW37085   5.511   9.512   2.100  0.4043  0.0246  0.3165
11693SOL    HW137086   5.548   9.542   2.017 -0.7945  0.3882 -0.1053
11693SOL    HW237087   5.507   9.417   2.090  1.7404 -0.0827  0.6069
11694SOL     OW37088   4.865   5.544  10.680 -0.4537 -0.2088 -0.6486
11694SOL    HW137089   4.777   5.537  10.644 -0.3727  0.7423 -1.0640
11694SOL    HW237090   4.923   5.530  10.606 -0.1985 -2.3738 -0.1003
11695SOL     OW37091   2.878   7.250   8.913 -0.2810  0.6103 -0.0807
11695SOL    HW137092   2.834   7.319   8.962 -0.9990  2.2188 -2.8066
11695SOL    HW237093   2.931   7.204   8.978 -0.6268  3.0275  2.0435
11696SOL     OW37094  10.904   3.660   4.348  0.3823 -0.2408 -0.9897
11696SOL    HW137095  10.924   3.599   4.277  1.0031  0.9119 -1.8469
11696SOL    HW237096  10.982   3.659   4.403  0.0943 -0.7655 -0.5789
11697SOL     OW37097   5.305   6.593   9.108  0.1184  0.1292  0.0974
11697SOL    HW137098   5.258   6.676   9.106 -0.7696 -0.3774 -2.1624
11697SOL    HW237099   5.271   6.548   9.186 -1.5651  0.6807 -0.2885
11698SOL     OW37100   5.229   7.767   3.763 -0.1991  0.1645 -0.3577
11698SOL    HW137101   5.256   7.754   3.854 -1.6363 -0.4932 -0.0031
11698SOL    HW237102   5.311   7.763   3.713  0.3658 -2.0198  0.6403
11699SOL     OW37103   3.378   6.622   8.634 -0.5098 -0.0158 -0.0159
11699SOL    HW137104   3.294   6.661   8.661 -0.5492  0.3009 -0.5867
11699SOL    HW237105   3.418   6.593   8.716 -1.2748 -0.3640  0.2452
11700SOL     OW37106   0.274   7.355   5.884 -0.6727 -0.3251 -0.5513
11700SOL    HW137107   0.338   7.376   5.816  0.0183  0.1426  0.2383
11700SOL    HW237108   0.207   7.422   5.875 -0.0383  0.3873 -0.0806
11701SOL     OW37109   4.695   4.756   4.420  0.0163  0.4025 -0.3336
11701SOL    HW137110   4.777   4.751   4.371 -0.3430 -0.7397 -0.8543
11701SOL    HW237111   4.685   4.669   4.459 -0.2063  0.9880  0.9797
11702SOL     OW37112   5.236  10.709   1.832 -0.8021 -0.4737 -0.2288
11702SOL    HW137113   5.193  10.789   1.864 -1.3067 -1.6705  2.4348
11702SOL    HW237114   5.327  10.734   1.819 -0.8961  0.5257  0.8154
11703SOL     OW37115   9.839  10.167   4.482 -0.4547  0.1316 -0.3772
11703SOL    HW137116   9.760  10.221   4.489 -0.2928  0.2740  0.5309
11703SOL    HW237117   9.896  10.200   4.551 -0.5433 -1.5197  0.5427
11704SOL     OW37118   5.959   9.638   8.282 -0.1315  0.0544 -0.7161
11704SOL    HW137119   6.004   9.553   8.283 -0.8112 -0.3316 -1.8165
11704SOL    HW237120   6.022   9.698   8.241 -0.6574 -0.5330 -2.4719
11705SOL     OW37121   3.964   8.657   4.190  0.7288  0.0952 -0.0491
11705SOL    HW137122   4.012   8.648   4.107  0.8018  1.2964 -0.1532
11705SOL    HW237123   3.925   8.571   4.204  4.1473 -1.4365  0.8423
11706SOL     OW37124   2.989  10.558   0.279 -0.3557 -0.1298  0.1334
11706SOL    HW137125   2.914  10.610   0.309 -1.0484 -1.8744  1.6127
11706SOL    HW237126   3.063  10.619   0.285 -1.1991  0.8548  1.3532
11707SOL     OW37127   8.591   5.384   1.285  0.0696  0.0536 -0.4175
11707SOL    HW137128   8.550   5.309   1.328 -1.1028  1.0004  0.1716
11707SOL    HW237129   8.609   5.353   1.196 -0.1613 -1.0107 -0.1103
11708SOL     OW37130   9.757   1.991   2.321  0.1597 -0.1743  0.0234
11708SOL    HW137131   9.768   2.075   2.364 -0.0946 -0.5293  0.7990
11708SOL    HW237132   9.715   1.935   2.387 -1.9012 -0.2228 -1.2168
11709SOL     OW37133   3.641   7.089   3.645 -0.2458 -0.6467 -0.0411
11709SOL    HW137134   3.597   7.109   3.562  1.1761  0.0459 -0.6676
11709SOL    HW237135   3.673   6.999   3.634 -1.2660 -1.0612  0.3204
11710SOL     OW37136   8.447   4.477   0.195 -0.1431  0.2568  0.2518
11710SOL    HW137137   8.370   4.528   0.168 -0.7215 -0.7582 -0.0855
11710SOL    HW237138   8.415   4.387   0.199  0.5268  0.0631  2.0868
11711SOL     OW37139   0.941   2.986   9.828 -0.1420 -0.4697 -0.1411
11711SOL    HW137140   0.955   3.080   9.837  1.5367 -0.7590  0.8584
11711SOL    HW237141   1.021   2.954   9.786  1.8394 -2.0601  4.2555
11712SOL     OW37142   0.738  10.017   2.898  0.1148  0.1651  0.4554
11712SOL    HW137143   0.788   9.966   2.962  1.4825  0.2756 -0.4835
11712SOL    HW237144   0.647  10.008   2.927  0.3876 -2.0552  0.8640
11713SOL     OW37145  10.342   9.284   5.938 -0.3419 -0.4067 -0.5280
11713SOL    HW137146  10.268   9.345   5.935 -0.6168 -0.4631  2.2387
11713SOL    HW237147  10.416   9.335   5.903 -1.1446  0.5966 -0.8114
11714SOL     OW37148   2.063   1.462   0.948  0.2731 -0.1867 -0.0347
11714SOL    HW137149   2.108   1.378   0.959  0.3126 -0.3040 -0.9553
11714SOL    HW237150   2.108   1.503   0.873 -0.1533  0.3726  0.0109
11715SOL     OW37151   1.020   5.362   3.828  0.1288 -0.1358  0.8880
11715SOL    HW137152   1.101   5.350   3.780 -0.2300 -2.7449  0.7900
11715SOL    HW237153   1.045   5.356   3.920  0.2994  1.2873  0.9682
11716SOL     OW37154   0.606   7.569   9.720 -0.1807 -0.6170 -0.0131
11716SOL    HW137155   0.600   7.643   9.660 -1.4547 -0.5182  0.2005
11716SOL    HW237156   0.623   7.494   9.663  0.7127 -0.2275 -0.2700
11717SOL     OW37157   0.078   6.700   1.183  0.6703 -0.0184  0.6324
11717SOL    HW137158   0.051   6.772   1.240 -1.2809  0.6989 -1.0479
11717SOL    HW237159   0.028   6.625   1.215 -0.2075  0.3155  0.0969
11718SOL     OW37160   8.101   4.394   1.667  0.4048 -0.0630 -0.4999
11718SOL    HW137161   8.180   4.442   1.643  0.1067  0.2088 -0.9333
11718SOL    HW237162   8.048   4.391   1.588  0.4751 -1.2282 -0.5253
11719SOL     OW37163   7.175   9.181   1.738 -0.0619  0.1399 -0.3315
11719SOL    HW137164   7.090   9.213   1.768  0.3501  1.2082 -0.2893
11719SOL    HW237165   7.239   9.232   1.787  0.6474 -1.9622  1.0743
11720SOL     OW37166   6.724   2.887   2.170  0.0602 -0.2152 -0.5111
11720SOL    HW137167   6.766   2.855   2.090  2.5710  0.1680  0.5556
11720SOL    HW237168   6.682   2.969   2.144 -2.5674 -1.9532 -2.2380
11721SOL     OW37169   4.715  10.240   4.875  0.4172  0.0017 -0.4442
11721SOL    HW137170   4.775  10.306   4.840  1.0802 -0.1519  0.3761
11721SOL    HW237171   4.744  10.226   4.965 -1.6868  0.9308  0.4517
11722SOL     OW37172   5.260   1.662   4.859 -0.8976 -0.1258 -0.6787
11722SOL    HW137173   5.254   1.703   4.946  0.0771  0.1123 -0.7184
11722SOL    HW237174   5.351   1.672   4.834 -1.0117 -0.8644 -1.4176
11723SOL     OW37175   5.070   5.643   4.061  0.3366 -0.2519  0.2377
11723SOL    HW137176   5.089   5.673   4.149 -2.3012  1.2714  0.4167
11723SOL    HW237177   5.029   5.557   4.072 -2.5002  1.0542  0.8912
11724SOL     OW37178  10.014   7.095   6.168  0.3507 -0.0234  0.1785
11724SOL    HW137179   9.973   7.045   6.239  0.9567 -0.9072 -0.0784
11724SOL    HW237180  10.021   7.184   6.203  0.0422 -0.2985  0.9798
11725SOL     OW37181   2.387   8.974   6.450 -0.3696  0.5684 -0.2350
11725SOL    HW137182   2.471   9.003   6.416 -0.3095  1.5623  0.6909
11725SOL    HW237183   2.335   8.954   6.373  1.2549 -1.7802 -0.8287
11726SOL     OW37184   4.815  10.747  10.968  0.6660  0.0649  0.0595
11726SOL    HW137185   4.721  10.750  10.948  0.5238 -0.8353  0.5096
11726SOL    HW237186   4.845  10.667  10.923  1.0647 -0.0417  0.5177
11727SOL     OW37187   1.575   0.017   0.607 -0.2643  0.0847 -0.6149
11727SOL    HW137188   1.548  -0.022   0.689  0.2823  0.4024 -0.2804
11727SOL    HW237189   1.568   0.112   0.621  0.1237  0.1490 -0.8273
11728SOL     OW37190   3.281   4.113   4.007 -0.3492 -0.2795  0.1545
11728SOL    HW137191   3.235   4.032   3.984 -0.4184 -0.0051 -0.7083
11728SOL    HW237192   3.341   4.128   3.934 -0.5185  0.5850  0.1861
11729SOL     OW37193   5.193   8.103   5.326 -0.3136  0.3049  0.8475
11729SOL    HW137194   5.283   8.089   5.354  0.1046 -1.2721 -1.0674
11729SOL    HW237195   5.197   8.178   5.267 -0.1051 -0.2507  0.1495
11730SOL     OW37196   4.832   4.832   0.975 -0.7191 -0.7278 -0.6589
11730SOL    HW137197   4.744   4.868   0.987 -0.8191 -0.5494 -1.7777
11730SOL    HW237198   4.883   4.868   1.047 -0.9714  1.1629 -1.3775
11731SOL     OW37199   0.445   0.814   5.854 -0.0841 -0.8437 -0.2988
11731SOL    HW137200   0.438   0.908   5.872 -1.4851 -1.0625  0.3592
11731SOL    HW237201   0.505   0.809   5.778 -0.5695  0.6189 -0.8128
11732SOL     OW37202   6.078   9.050   4.013 -0.2801 -0.1959 -0.5715
11732SOL    HW137203   6.126   9.133   4.005 -0.9038  0.8430  3.8132
11732SOL    HW237204   6.028   9.044   3.931  1.6503  2.4472 -2.1200
11733SOL     OW37205   3.546   2.482   3.607  0.3918 -0.3506 -0.5627
11733SOL    HW137206   3.462   2.456   3.569 -0.2203 -0.9329  1.1182
11733SOL    HW237207   3.538   2.576   3.620 -0.6467 -0.6155  1.0124
11734SOL     OW37208   0.918   6.664   3.372  0.0361  0.0337  0.3069
11734SOL    HW137209   0.925   6.661   3.276  0.1149  0.8372  0.2836
11734SOL    HW237210   0.974   6.592   3.402 -0.8999 -0.9826 -0.2797
11735SOL     OW37211   9.729   0.403   4.917 -0.2075 -0.4300  0.3729
11735SOL    HW137212   9.664   0.440   4.976 -0.4677  0.5333 -0.4939
11735SOL    HW237213   9.797   0.368   4.975 -0.2106  0.9379  1.2331
11736SOL     OW37214   4.919   9.834   1.397 -0.3938  0.2872  0.2967
11736SOL    HW137215   4.965   9.868   1.474  0.7318 -0.5689  0.0109
11736SOL    HW237216   4.941   9.895   1.327 -0.9086  0.7105  0.4981
11737SOL     OW37217   4.027   6.329   2.671 -0.0920 -0.6751 -0.1842
11737SOL    HW137218   4.086   6.383   2.723  0.6348 -1.2436 -0.4061
11737SOL    HW237219   3.973   6.283   2.735  0.1018 -0.5941  0.0372
11738SOL     OW37220   4.683   2.398   6.872 -0.8417  0.0843 -0.1855
11738SOL    HW137221   4.611   2.340   6.845 -0.6157  0.3488 -1.4470
11738SOL    HW237222   4.753   2.379   6.810  0.5640 -0.8676  1.6196
11739SOL     OW37223   2.595   2.537   5.728  0.3607  0.3893  0.2531
11739SOL    HW137224   2.500   2.547   5.724  0.2209 -0.3798  1.2554
11739SOL    HW237225   2.613   2.454   5.682  0.6996  1.1819 -1.0978
11740SOL     OW37226   7.557   2.066   2.842 -0.3933  0.2808  0.2094
11740SOL    HW137227   7.490   2.086   2.777  1.1656 -0.1102 -1.6060
11740SOL    HW237228   7.551   1.971   2.853  0.4463  0.1269 -0.6360
11741SOL     OW37229   3.869   4.400   7.728 -0.5001  0.7467 -0.0262
11741SOL    HW137230   3.963   4.410   7.717 -0.8414  2.3959 -2.0322
11741SOL    HW237231   3.834   4.489   7.720 -2.1664  0.3738  1.9825
11742SOL     OW37232   0.374   8.956   6.196 -0.4376  0.2226  0.4342
11742SOL    HW137233   0.335   8.999   6.120 -0.7544 -0.9324 -0.0824
11742SOL    HW237234   0.397   8.868   6.165  0.6744  0.1752  1.3077
11743SOL     OW37235   0.513  10.630   5.953 -0.0862 -0.5912 -0.3632
11743SOL    HW137236   0.603  10.655   5.931  0.8132 -2.8020  0.5822
11743SOL    HW237237   0.476  10.709   5.992  2.3245 -0.3381  1.6929
11744SOL     OW37238   0.594   6.185   3.669  0.3375 -0.1056 -0.4726
11744SOL    HW137239   0.522   6.161   3.612 -0.8505 -0.5619  1.1559
11744SOL    HW237240   0.595   6.118   3.737  1.5256  0.5630  0.2052
11745SOL     OW37241   8.059   4.674   0.878 -0.2824 -0.6006  0.2454
11745SOL    HW137242   8.120   4.722   0.821 -1.9171  1.3140 -0.0070
11745SOL    HW237243   8.112   4.646   0.952  0.8916  1.2467  0.1720
11746SOL     OW37244   4.738   2.288   5.676  0.0012 -0.4312 -0.3574
11746SOL    HW137245   4.750   2.201   5.640 -0.0499 -1.0264  1.0152
11746SOL    HW237246   4.724   2.274   5.770 -1.6222  0.9275 -0.3537
11747SOL     OW37247  10.011   5.967   1.373  0.6382  0.4298  0.1774
11747SOL    HW137248   9.995   5.873   1.383  1.8737  0.2218  0.4297
11747SOL    HW237249   9.983   5.987   1.284  1.7714 -0.5228 -0.4142
11748SOL     OW37250   7.191   7.814   7.178 -0.1887 -0.1347 -0.1960
11748SOL    HW137251   7.256   7.752   7.211  0.2099 -0.6301 -1.7826
11748SOL    HW237252   7.236   7.860   7.107 -1.6775 -0.8426 -1.6845
11749SOL     OW37253   5.768   8.811   4.085  0.3930 -0.1533 -0.1883
11749SOL    HW137254   5.694   8.800   4.026 -0.5994  0.3301  0.9420
11749SOL    HW237255   5.738   8.775   4.169  1.5779 -0.3233  0.1843
11750SOL     OW37256   5.257  10.036   8.062 -0.4786 -0.3316 -0.4724
11750SOL    HW137257   5.235  10.128   8.051  1.5667  0.3375  0.5273
11750SOL    HW237258   5.180   9.997   8.104 -0.1477  1.6999  2.2560
11751SOL     OW37259   2.600   9.270   6.508  0.1650 -0.2058  0.0838
11751SOL    HW137260   2.610   9.178   6.481 -1.9793 -0.5809  0.3293
11751SOL    HW237261   2.602   9.319   6.426  0.5011 -0.5684 -0.1293
11752SOL     OW37262   3.945   5.241   3.305  0.1263 -0.0618  0.0828
11752SOL    HW137263   4.037   5.215   3.302  0.7896  2.1821 -1.6505
11752SOL    HW237264   3.933   5.276   3.393  1.0927  0.1255  0.1518
11753SOL     OW37265   2.487  10.361   2.321 -0.2147  0.2918  0.2608
11753SOL    HW137266   2.579  10.352   2.296 -0.1904 -2.0367  0.9818
11753SOL    HW237267   2.442  10.379   2.238  0.7972  0.9319 -0.1768
11754SOL     OW37268   2.621   3.803   9.511 -0.1319 -0.0658  0.3645
11754SOL    HW137269   2.599   3.720   9.469  1.3227  0.3311 -1.2606
11754SOL    HW237270   2.694   3.782   9.569 -0.9005 -0.2326  1.3027
11755SOL     OW37271   4.409   9.411   1.306  0.8760  0.1727 -0.1689
11755SOL    HW137272   4.457   9.408   1.389 -0.3863 -0.6667  0.5728
11755SOL    HW237273   4.473   9.444   1.243  2.5816 -1.3449  0.6505
11756SOL     OW37274   4.949   4.980   4.460 -0.8633  0.5633  0.0103
11756SOL    HW137275   4.922   4.933   4.539  1.7529  0.1915  0.7516
11756SOL    HW237276   4.940   4.916   4.389 -0.0667 -0.1483  0.5481
11757SOL     OW37277  11.079   8.764   5.435 -0.2929  0.4717 -0.6351
11757SOL    HW137278  11.050   8.778   5.345  0.0998  1.5462 -0.6049
11757SOL    HW237279  11.113   8.674   5.435 -0.3324  0.4431 -1.5428
11758SOL     OW37280   6.365   6.976   4.425  0.0035 -0.0326  0.6326
11758SOL    HW137281   6.422   7.047   4.397 -1.8085  0.9558 -0.7508
11758SOL    HW237282   6.303   7.016   4.486 -1.9020 -0.0218 -1.2134
11759SOL     OW37283   4.881   7.808   5.251 -0.1531  0.1082  0.7841
11759SOL    HW137284   4.793   7.833   5.222  0.6491  0.5131 -1.5118
11759SOL    HW237285   4.877   7.713   5.262 -0.3125 -0.2356 -1.7121
11760SOL     OW37286   2.888   0.597   6.745  0.2456  0.1085  0.0382
11760SOL    HW137287   2.972   0.561   6.719  0.1239  0.2053 -0.4957
11760SOL    HW237288   2.853   0.637   6.665 -0.3560 -0.0312  0.2282
11761SOL     OW37289   4.829   2.433   2.893  0.7249  0.6148  0.3099
11761SOL    HW137290   4.910   2.411   2.846  0.2179  0.3812 -0.4542
11761SOL    HW237291   4.860   2.469   2.977  1.6938  2.5105 -0.7970
11762SOL     OW37292   0.322   8.472   3.729 -0.2734  0.2907 -0.3815
11762SOL    HW137293   0.414   8.476   3.701 -0.4971  1.7966 -0.9784
11762SOL    HW237294   0.326   8.466   3.824  0.4525 -1.6885 -0.4845
11763SOL     OW37295  10.175   0.414   4.176 -0.2338 -0.6418 -0.6052
11763SOL    HW137296  10.165   0.326   4.211 -1.4748  0.1253  1.1228
11763SOL    HW237297  10.248   0.451   4.226  0.0122 -0.5498 -1.0312
11764SOL     OW37298   8.566   9.559   2.899  0.2881 -0.4095  0.0500
11764SOL    HW137299   8.503   9.508   2.848  0.0173 -1.1531  1.0866
11764SOL    HW237300   8.651   9.522   2.875  0.0402 -2.0635  1.4704
11765SOL     OW37301   1.368   5.081   5.258  0.0968 -0.0855  0.7463
11765SOL    HW137302   1.315   5.097   5.179 -0.4106 -0.5385  0.9821
11765SOL    HW237303   1.458   5.098   5.231 -0.2087  1.2624  0.4821
11766SOL     OW37304   7.407   6.359   5.283  0.4999 -0.2827  0.0989
11766SOL    HW137305   7.393   6.318   5.198 -1.5708 -0.7264  0.6033
11766SOL    HW237306   7.356   6.441   5.279  1.6362  0.4618  0.3860
11767SOL     OW37307   6.165   7.703   1.510 -0.3466 -0.0022 -0.2112
11767SOL    HW137308   6.188   7.634   1.573  0.8631  0.5088 -0.0481
11767SOL    HW237309   6.183   7.785   1.557 -0.0303  0.3932 -0.9918
11768SOL     OW37310   0.002   3.303   3.639  0.1934 -0.3308 -0.0191
11768SOL    HW137311   0.079   3.292   3.583 -0.7277 -0.4268 -1.2899
11768SOL    HW237312   0.028   3.371   3.702  1.0692  0.1567 -0.8826
11769SOL     OW37313   7.536  10.773   0.834  0.1579  0.2659 -0.3864
11769SOL    HW137314   7.462  10.730   0.876 -0.3262  1.4597  0.0222
11769SOL    HW237315   7.593  10.701   0.806  0.3316 -0.6152  1.9726
11770SOL     OW37316   3.136  11.097   2.545  0.2983 -0.5032 -0.2464
11770SOL    HW137317   3.107  11.160   2.612 -1.3822 -2.2655  0.8072
11770SOL    HW237318   3.231  11.093   2.556  0.5543  2.1592 -0.7087
11771SOL     OW37319   3.957   0.986   4.470 -0.4652 -0.3072 -0.5914
11771SOL    HW137320   4.010   1.066   4.473  0.4034 -0.8785 -0.1966
11771SOL    HW237321   3.927   0.981   4.379  0.0768  0.0849 -0.7971
11772SOL     OW37322   4.768   4.839   5.355  0.1782  0.5015  0.2738
11772SOL    HW137323   4.812   4.754   5.351 -1.2865 -0.3036  0.5740
11772SOL    HW237324   4.752   4.861   5.263  2.0643  1.3219  0.0830
11773SOL     OW37325   4.056   4.853   4.580 -0.6308  0.0352  0.2118
11773SOL    HW137326   4.069   4.789   4.650  1.3962  0.2108  0.0643
11773SOL    HW237327   3.985   4.816   4.526 -0.3109 -1.4982  0.7811
11774SOL     OW37328   8.912   4.409   8.347 -0.0007 -0.5314 -0.3411
11774SOL    HW137329   8.875   4.497   8.342  0.9877 -0.0556  0.2537
11774SOL    HW237330   8.838   4.353   8.371 -0.5363  0.2149 -0.2041
11775SOL     OW37331   3.379   5.489   8.023 -0.1534 -0.1284 -0.2001
11775SOL    HW137332   3.367   5.454   7.935  1.4251  0.7288 -0.7900
11775SOL    HW237333   3.421   5.418   8.072  1.6802  0.3612 -0.9839
11776SOL     OW37334   1.451   3.168   6.651 -0.1641 -0.1043 -0.4966
11776SOL    HW137335   1.489   3.080   6.640  0.0476 -0.1001  0.1393
11776SOL    HW237336   1.372   3.153   6.702  0.2392  0.1487  0.2103
11777SOL     OW37337   8.286   6.334   0.843  0.4539 -0.0934  0.3823
11777SOL    HW137338   8.259   6.302   0.757  0.0374  1.8746 -0.2859
11777SOL    HW237339   8.208   6.326   0.898  0.8432 -1.7575  0.7413
11778SOL     OW37340   2.853   4.263   2.978  0.2338  0.3805  0.4760
11778SOL    HW137341   2.856   4.184   3.032  3.9973  0.5405  0.7355
11778SOL    HW237342   2.897   4.329   3.030  2.3163  1.0447 -1.9553
11779SOL     OW37343   0.981   2.869   6.770  0.5516  0.0586 -0.1523
11779SOL    HW137344   1.016   2.843   6.685  0.9308  0.9869 -0.2874
11779SOL    HW237345   1.058   2.893   6.821  0.2312  0.6108  0.0705
11780SOL     OW37346   8.118   2.295   1.167 -0.0345  0.2884 -0.2474
11780SOL    HW137347   8.078   2.218   1.207 -0.3128  0.9568  0.7843
11780SOL    HW237348   8.075   2.302   1.082 -0.7517 -0.0984  0.0757
11781SOL     OW37349   2.003   0.172   8.801 -0.3344 -0.1550 -0.0727
11781SOL    HW137350   1.992   0.086   8.843 -0.4723 -1.6019 -2.8171
11781SOL    HW237351   2.096   0.178   8.783 -0.4906 -0.3278 -0.9891
11782SOL     OW37352   6.689   3.210   5.622  0.0247 -0.0110  0.1962
11782SOL    HW137353   6.704   3.298   5.589  0.4300 -0.4154 -0.7177
11782SOL    HW237354   6.602   3.213   5.661  0.1417  0.8564  0.4067
11783SOL     OW37355   8.073   9.635   3.832  0.1011 -0.3531 -0.4126
11783SOL    HW137356   8.109   9.558   3.874 -1.8098 -1.1325 -0.0972
11783SOL    HW237357   8.083   9.705   3.897 -2.9833 -1.5693  1.6311
11784SOL     OW37358   1.030   9.683   2.074 -0.1787  0.0458 -0.6528
11784SOL    HW137359   0.963   9.650   2.015  1.7345 -0.7383 -2.4997
11784SOL    HW237360   1.034   9.619   2.145 -0.4793 -0.5608 -1.1811
11785SOL     OW37361   3.098   8.753   5.911 -0.0610 -0.8222 -0.4007
11785SOL    HW137362   3.044   8.738   5.989  0.3859 -0.4654 -0.0175
11785SOL    HW237363   3.188   8.741   5.941  0.0716 -1.6938 -1.1058
11786SOL     OW37364   1.361  10.038   8.872 -0.6918  0.5203 -0.2118
11786SOL    HW137365   1.450  10.015   8.900 -0.2491  0.0198 -1.9154
11786SOL    HW237366   1.305   9.975   8.918 -0.4116  1.8563  2.1682
11787SOL     OW37367   4.427  11.018  10.215 -0.3172 -0.4056 -0.4783
11787SOL    HW137368   4.398  10.983  10.131 -2.8120 -0.5374  0.3796
11787SOL    HW237369   4.354  11.003  10.274  1.3371 -0.2486  1.7433
11788SOL     OW37370   1.721   5.956   7.456 -0.2567  0.1427 -0.2942
11788SOL    HW137371   1.728   5.925   7.546 -1.8065  0.0383 -0.1798
11788SOL    HW237372   1.769   6.038   7.455  0.0478 -0.0171  0.5472
11789SOL     OW37373   6.381   5.300   4.453 -0.0551 -0.8583  0.3911
11789SOL    HW137374   6.357   5.302   4.360 -1.0353  0.6831  0.6352
11789SOL    HW237375   6.313   5.248   4.494  0.0006 -0.9642  0.3509
11790SOL     OW37376   0.968   6.580   8.813  0.0366  0.1828  0.3943
11790SOL    HW137377   1.011   6.519   8.753  0.2390  1.3058 -0.6344
11790SOL    HW237378   1.013   6.663   8.799  2.4301 -0.1659  4.5273
11791SOL     OW37379   7.993   8.855   0.554  0.0635  0.1807  0.2520
11791SOL    HW137380   8.040   8.936   0.535 -0.0073  0.2871  0.5172
11791SOL    HW237381   7.932   8.845   0.481  0.8474 -0.2377 -0.3568
11792SOL     OW37382  10.625   8.267   7.701 -0.4119  0.5148  0.3029
11792SOL    HW137383  10.572   8.207   7.648 -2.9728  1.1687  1.9770
11792SOL    HW237384  10.597   8.354   7.675 -0.6743  0.8652  1.6785
11793SOL     OW37385   1.847   0.206   2.658 -0.0945  0.1145 -0.5715
11793SOL    HW137386   1.872   0.292   2.625 -0.5900 -0.0554 -1.4080
11793SOL    HW237387   1.924   0.151   2.644  0.3578  0.4892  0.3027
11794SOL     OW37388   5.037   7.443   2.663 -0.1533  0.2129 -0.3010
11794SOL    HW137389   5.087   7.415   2.587  3.4033  0.7097  1.6492
11794SOL    HW237390   5.008   7.361   2.704  1.7283 -0.2902  0.1058
11795SOL     OW37391   0.448   5.683   9.392 -0.1643 -0.8195  0.5057
11795SOL    HW137392   0.445   5.755   9.329  0.4939 -2.0610 -0.9872
11795SOL    HW237393   0.530   5.638   9.373 -0.8493 -2.3252  1.0167
11796SOL     OW37394   2.255   4.598   0.490 -0.0986  0.3998  0.6356
11796SOL    HW137395   2.304   4.604   0.408 -1.1101  0.0211 -0.0157
11796SOL    HW237396   2.320   4.612   0.558  1.0225 -0.7184 -0.1803
11797SOL     OW37397   3.185   3.097   6.763  0.5385  0.4688  0.0721
11797SOL    HW137398   3.140   3.075   6.844  2.2863  0.0764  0.9902
11797SOL    HW237399   3.276   3.069   6.777  1.6606  3.2911 -0.7737
11798SOL     OW37400   0.307   9.207   3.302  0.1355  0.4704  0.0612
11798SOL    HW137401   0.229   9.238   3.256 -1.4384  0.1706  2.3747
11798SOL    HW237402   0.297   9.240   3.391  1.1943 -1.9567  1.1789
11799SOL     OW37403   6.577   6.202   0.226 -0.3424 -0.2278 -0.3773
11799SOL    HW137404   6.610   6.165   0.144 -0.1326 -2.1974  0.5326
11799SOL    HW237405   6.574   6.127   0.287 -3.8129  0.3898  0.4389
11800SOL     OW37406   1.704   4.233   3.661  0.1074 -0.8813 -0.0805
11800SOL    HW137407   1.740   4.240   3.749  1.2661 -1.0697 -0.5197
11800SOL    HW237408   1.614   4.202   3.673  0.4768 -1.5444  0.9879
11801SOL     OW37409   4.683   9.671   3.765  1.0983 -0.0218 -0.4714
11801SOL    HW137410   4.661   9.643   3.854  3.1205 -1.4840 -0.3368
11801SOL    HW237411   4.701   9.764   3.773  0.3650  0.0584  0.4589
11802SOL     OW37412   0.329   6.717   1.695 -0.1573  0.0309  0.0174
11802SOL    HW137413   0.353   6.768   1.772  1.6228  0.2272 -0.6341
11802SOL    HW237414   0.410   6.708   1.645 -1.1254 -0.6619 -1.5103
11803SOL     OW37415   6.528   9.446  10.034 -0.2127  0.2668  0.1754
11803SOL    HW137416   6.590   9.433  10.106 -0.3177  2.0897  0.6202
11803SOL    HW237417   6.582   9.435   9.955 -0.2833 -2.6794  0.4298
11804SOL     OW37418   1.559   7.362   5.200  0.1665 -0.0875  0.2337
11804SOL    HW137419   1.565   7.268   5.182 -0.7696 -0.4495  1.6828
11804SOL    HW237420   1.472   7.374   5.236  0.8219  1.0884  1.4814
11805SOL     OW37421  10.623   2.110  10.630 -0.3012  0.0617  0.1374
11805SOL    HW137422  10.619   2.034  10.687  1.4204 -0.4096 -0.3056
11805SOL    HW237423  10.655   2.076  10.546 -2.1283  0.8499 -0.9389
11806SOL     OW37424   3.090   1.452   2.027  0.3510 -0.2908 -0.6974
11806SOL    HW137425   3.170   1.495   2.058  1.1303 -1.8339 -0.4542
11806SOL    HW237426   3.072   1.493   1.942  1.5344 -0.0524 -0.8499
11807SOL     OW37427   3.677   7.882  10.141  0.4100 -0.2671 -0.3248
11807SOL    HW137428   3.589   7.845  10.143  0.8607 -1.3517  0.4986
11807SOL    HW237429   3.664   7.974  10.120 -0.7859 -0.7750 -1.9823
11808SOL     OW37430   1.123  10.473   5.478 -1.0134  0.0098  0.5981
11808SOL    HW137431   1.135  10.548   5.537 -2.5887 -0.1014  1.0964
11808SOL    HW237432   1.036  10.485   5.442 -1.3635 -1.6887  0.8337
11809SOL     OW37433   4.087   2.529   1.216 -0.0331  0.5372  0.5587
11809SOL    HW137434   4.063   2.572   1.298 -1.6725  0.1820  0.2924
11809SOL    HW237435   4.060   2.590   1.148 -0.0399  0.1780  0.2380
11810SOL     OW37436   6.629   7.082   9.521 -0.1676 -0.3230  0.2427
11810SOL    HW137437   6.583   7.007   9.557  1.5719 -3.0555 -2.7718
11810SOL    HW237438   6.616   7.076   9.427  1.8843  1.9105 -0.2849
11811SOL     OW37439   6.146   2.922   1.138  0.3025  0.5068  0.8303
11811SOL    HW137440   6.116   2.847   1.189  0.5906  0.7024  1.2947
11811SOL    HW237441   6.146   2.891   1.048 -2.1643  0.7640  0.6827
11812SOL     OW37442   4.261   2.336   6.808  0.5256  0.2342 -0.7928
11812SOL    HW137443   4.230   2.250   6.780 -0.1195  0.0838  0.3238
11812SOL    HW237444   4.302   2.374   6.730 -0.8975 -0.2981 -1.8365
11813SOL     OW37445   0.985   8.823   6.242 -0.2109  0.0308 -0.2566
11813SOL    HW137446   0.946   8.909   6.224  1.1485  0.8559  0.5799
11813SOL    HW237447   0.979   8.777   6.159 -1.8508  0.5435 -0.4766
11814SOL     OW37448  10.581   7.364   3.314 -0.0447  0.5344  0.2831
11814SOL    HW137449  10.666   7.360   3.272  1.2313 -0.4558  2.7596
11814SOL    HW237450  10.563   7.458   3.323 -0.9321  0.8421 -3.2726
11815SOL     OW37451  11.007   5.841   1.034 -0.6606  0.2394  0.2487
11815SOL    HW137452  11.073   5.792   1.082 -0.5893  0.1312  0.0434
11815SOL    HW237453  10.940   5.861   1.099  0.2070  1.5521  0.8005
11816SOL     OW37454   4.491   5.663   1.951  0.4560  0.4793  0.3408
11816SOL    HW137455   4.423   5.725   1.977  0.8377  0.9474  0.2260
11816SOL    HW237456   4.483   5.591   2.015  0.0092  0.6378  0.4656
11817SOL     OW37457   2.537   3.641  10.937 -0.1310 -0.1857  0.3086
11817SOL    HW137458   2.476   3.701  10.979  0.2662  0.0554  0.5432
11817SOL    HW237459   2.611   3.696  10.909  1.2477 -0.8305  2.4268
11818SOL     OW37460   3.797   8.567   7.762  0.4757  0.4290 -0.7874
11818SOL    HW137461   3.717   8.517   7.749  1.6943 -1.6894 -0.5800
11818SOL    HW237462   3.791   8.601   7.851  0.2595 -0.5965 -0.4058
11819SOL     OW37463  10.840   7.791   2.897 -0.0960 -0.6411  0.3354
11819SOL    HW137464  10.776   7.742   2.844  1.2725 -0.9592 -1.0914
11819SOL    HW237465  10.814   7.883   2.886  0.4762 -0.6473 -1.4115
11820SOL     OW37466   8.570   7.891   5.107  0.0469  0.1574 -0.3768
11820SOL    HW137467   8.527   7.899   5.192 -0.8339  1.2462 -0.8981
11820SOL    HW237468   8.663   7.902   5.126  0.0580 -1.4537  0.6641
11821SOL     OW37469   2.824   7.429  10.664 -0.2520 -0.0896 -0.0604
11821SOL    HW137470   2.824   7.338  10.634 -0.2241  0.3912 -1.6360
11821SOL    HW237471   2.884   7.431  10.738  1.6813 -0.9273 -1.5037
11822SOL     OW37472   1.596  10.021   5.201  0.1595 -0.7431 -0.7744
11822SOL    HW137473   1.648  10.049   5.276  0.6593 -1.4135 -0.8691
11822SOL    HW237474   1.508  10.055   5.219 -0.2364 -2.5615  1.0721
11823SOL     OW37475   6.110  10.024   3.133 -0.2952  0.2377 -0.0497
11823SOL    HW137476   6.190   9.972   3.129  0.4078  1.0825  1.8800
11823SOL    HW237477   6.077  10.011   3.222 -0.2644  2.7777  0.4085
11824SOL     OW37478   8.106   9.832  10.443  0.2643 -0.4007 -0.4306
11824SOL    HW137479   8.140   9.917  10.471 -0.8505  0.1733 -0.7579
11824SOL    HW237480   8.018   9.851  10.409 -2.5879 -2.3495  4.7296
11825SOL     OW37481  10.461  10.051  10.113 -0.2279  0.5197 -0.4200
11825SOL    HW137482  10.476  10.078  10.203  0.0215  0.5233 -0.4603
11825SOL    HW237483  10.486  10.127  10.061  3.8880 -0.7757 -0.7629
11826SOL     OW37484   3.221   2.725   6.014 -0.2892  0.3115  0.7088
11826SOL    HW137485   3.275   2.647   6.002 -0.9658 -0.5132  2.6920
11826SOL    HW237486   3.252   2.763   6.096 -0.2278  1.9467 -0.0345
11827SOL     OW37487   6.283   9.993   6.606  0.0229 -0.2087  0.0387
11827SOL    HW137488   6.299  10.071   6.555 -0.7741 -1.5917 -2.4991
11827SOL    HW237489   6.190   9.998   6.630  0.3056  0.2584  1.0947
11828SOL     OW37490   1.915  11.100   1.710  0.5510 -0.0927 -1.3280
11828SOL    HW137491   2.007  11.124   1.721  0.4503 -0.3568  0.4399
11828SOL    HW237492   1.870  11.183   1.695  0.8625  0.2451 -0.4463
11829SOL     OW37493   1.414   2.749   9.402 -0.2032  0.1782  0.4740
11829SOL    HW137494   1.376   2.662   9.408 -1.3596  0.6790  0.6377
11829SOL    HW237495   1.419   2.779   9.493  0.3458  0.2238  0.4317
11830SOL     OW37496   2.975   0.981   5.194  0.2827  0.1243  0.3898
11830SOL    HW137497   2.882   1.003   5.197  0.2490  0.2196 -0.8738
11830SOL    HW237498   2.980   0.894   5.233 -0.9943 -1.7682 -3.2375
11831SOL     OW37499   2.720   5.083   2.810  0.0990 -0.3302  0.1382
11831SOL    HW137500   2.648   5.043   2.860 -0.9964  0.7413 -0.5133
11831SOL    HW237501   2.767   5.009   2.772 -0.1076 -1.0945  1.3063
11832SOL     OW37502   6.678   7.407   9.611 -0.3074  0.9131  0.5698
11832SOL    HW137503   6.709   7.317   9.625 -0.0001  1.0382  0.7042
11832SOL    HW237504   6.589   7.397   9.578 -0.6125  0.5761  1.4780
11833SOL     OW37505   5.883   1.278   8.163  0.4005  0.5020 -0.0083
11833SOL    HW137506   5.876   1.301   8.071 -0.3818 -0.0012 -0.0853
11833SOL    HW237507   5.914   1.187   8.162  3.1793  1.3428  0.2812
11834SOL     OW37508   6.653   7.053   8.637 -0.1632  0.0309 -0.5953
11834SOL    HW137509   6.676   7.132   8.686 -1.4192  0.1854 -0.2304
11834SOL    HW237510   6.619   7.084   8.554  1.2804 -0.2159 -1.3239
11835SOL     OW37511  11.052   2.609   2.162  0.1614 -0.0482 -0.4515
11835SOL    HW137512  10.964   2.639   2.139  0.1687 -1.1172 -2.0220
11835SOL    HW237513  11.050   2.601   2.258 -1.6688 -0.7021 -0.4926
11836SOL     OW37514   0.077   9.297   7.818  0.2057  0.1005 -0.0472
11836SOL    HW137515   0.035   9.378   7.848 -0.2021 -0.4534  0.9196
11836SOL    HW237516   0.164   9.299   7.858  1.3713  1.4665 -2.4078
11837SOL     OW37517   5.720  10.227   7.855 -0.4384 -0.2263 -0.2216
11837SOL    HW137518   5.709  10.251   7.763 -0.9544 -0.3490 -0.1985
11837SOL    HW237519   5.769  10.145   7.853 -0.0817 -0.0138 -0.3666
11838SOL     OW37520   4.454   7.781   7.377 -0.4494 -0.3097 -0.2901
11838SOL    HW137521   4.459   7.707   7.436  0.9250 -1.3036 -1.5798
11838SOL    HW237522   4.531   7.772   7.320 -1.8813  0.3675 -2.4631
11839SOL     OW37523   3.830   7.654   3.097 -0.0873  0.0679 -0.1561
11839SOL    HW137524   3.885   7.591   3.050  1.0518  2.3407 -2.0603
11839SOL    HW237525   3.740   7.631   3.072  0.1367 -1.7357  0.5082
11840SOL     OW37526   4.912   9.920   6.991  0.2690  0.0017  0.4397
11840SOL    HW137527   4.825   9.904   6.954  0.2242  0.0009  0.5435
11840SOL    HW237528   4.932   9.841   7.040 -0.6253  0.8263  2.2516
11841SOL     OW37529  10.530   4.929   8.623  0.2012 -0.4772  0.1826
11841SOL    HW137530  10.457   4.899   8.568 -0.3410 -1.1137  1.2242
11841SOL    HW237531  10.606   4.881   8.590  0.2585  0.4672 -1.1586
11842SOL     OW37532  10.317   5.757   8.376 -0.0600  0.3840 -0.4644
11842SOL    HW137533  10.352   5.725   8.459 -0.3399 -1.2525 -0.9360
11842SOL    HW237534  10.354   5.845   8.366  2.1562 -0.4272  0.0918
11843SOL     OW37535   1.721   4.057   7.339  0.0724  0.4939  0.3137
11843SOL    HW137536   1.786   4.062   7.409 -0.6076  0.5287  0.9625
11843SOL    HW237537   1.756   3.993   7.278  1.5317  1.7507 -0.2418
11844SOL     OW37538   1.741   9.212   4.946 -0.4551  0.4394  0.1984
11844SOL    HW137539   1.825   9.225   4.991 -1.3578  1.4567  1.6548
11844SOL    HW237540   1.697   9.144   4.997  0.4925 -2.1183 -2.1139
11845SOL     OW37541   0.157   7.883  10.380 -0.2645 -0.2585  0.3021
11845SOL    HW137542   0.114   7.861  10.298  1.0836  2.1022 -1.1475
11845SOL    HW237543   0.096   7.942  10.424  0.9341  2.3280 -1.3115
11846SOL     OW37544   4.641   4.713   6.858  0.5707 -0.3089  0.2185
11846SOL    HW137545   4.612   4.712   6.949 -0.0265 -0.2391  0.0339
11846SOL    HW237546   4.680   4.627   6.844 -3.2987 -2.1315 -0.6971
11847SOL     OW37547   3.627   8.924   7.546  0.4057  0.8682 -0.6648
11847SOL    HW137548   3.653   8.999   7.599 -1.7936  1.9755 -1.0511
11847SOL    HW237549   3.603   8.962   7.462 -1.5915 -0.1140 -0.5857
11848SOL     OW37550   5.570   5.982   3.897  1.0040  0.3670 -0.2851
11848SOL    HW137551   5.524   5.971   3.980  0.6764  0.2487 -0.4830
11848SOL    HW237552   5.655   6.018   3.922  0.5963  1.1283  0.0287
11849SOL     OW37553   1.233   4.259   7.389  0.7206  0.6711  0.2208
11849SOL    HW137554   1.323   4.234   7.408  0.2717 -2.1870 -0.8698
11849SOL    HW237555   1.230   4.265   7.294 -0.0721  1.4885  0.2898
11850SOL     OW37556   2.039   8.034   3.080 -0.1036 -0.2596 -0.1095
11850SOL    HW137557   2.052   8.119   3.038 -0.0506 -0.6112 -0.8258
11850SOL    HW237558   2.104   8.032   3.151  2.1221 -0.9360 -2.0086
11851SOL     OW37559  10.206   7.723   3.362  0.7350 -0.3597  0.3753
11851SOL    HW137560  10.250   7.722   3.447  0.1584 -2.9034  0.7100
11851SOL    HW237561  10.116   7.746   3.381  0.9698  0.7844  0.1952
11852SOL     OW37562   4.949  10.776   9.831 -0.5602  0.3167 -0.2935
11852SOL    HW137563   4.879  10.834   9.800  0.2679 -0.0772 -3.2158
11852SOL    HW237564   5.012  10.774   9.759  1.0146 -1.7132  1.0254
11853SOL     OW37565   2.100   2.266   8.416 -0.0358 -0.5943  0.2681
11853SOL    HW137566   2.151   2.341   8.446  2.3861 -2.2499  0.6640
11853SOL    HW237567   2.058   2.295   8.336 -0.3550  1.5911  1.1654
11854SOL     OW37568   4.365   3.233   2.451 -0.1424  0.0344  0.6753
11854SOL    HW137569   4.283   3.239   2.402  0.7419  1.3087 -0.7287
11854SOL    HW237570   4.353   3.290   2.527  0.3007  2.3724 -0.9010
11855SOL     OW37571   6.305   5.346   1.281  0.5678 -0.0074 -0.4594
11855SOL    HW137572   6.288   5.268   1.333 -1.4625 -0.9368 -2.3195
11855SOL    HW237573   6.234   5.406   1.304  0.6259  0.2384 -0.9002
11856SOL     OW37574   7.076   3.740   4.179 -0.3561  0.1533  0.2282
11856SOL    HW137575   7.097   3.747   4.273  0.8828 -0.2695 -0.0021
11856SOL    HW237576   7.152   3.695   4.141  0.5328  2.8143 -1.4359
11857SOL     OW37577   1.195   7.766   7.444 -0.0734 -0.2929  0.0143
11857SOL    HW137578   1.101   7.761   7.465 -0.4376  1.7703 -0.8762
11857SOL    HW237579   1.224   7.675   7.446 -2.3186 -1.1105 -0.6102
11858SOL     OW37580   6.477   4.912  10.216  0.6196 -0.3079 -0.4631
11858SOL    HW137581   6.391   4.871  10.210  1.3725 -2.5364  2.4385
11858SOL    HW237582   6.463   4.989  10.271  0.3376 -0.0898 -0.8303
11859SOL     OW37583   1.986   0.998   6.419  0.6611  0.2729 -0.5819
11859SOL    HW137584   1.974   0.945   6.498  2.6824 -0.4158 -0.6762
11859SOL    HW237585   1.897   1.010   6.384 -0.0316 -1.4496  0.4748
11860SOL     OW37586   4.115   2.538   6.446 -0.4302 -0.5622  0.3899
11860SOL    HW137587   4.053   2.534   6.373  0.5687  0.9008 -0.6042
11860SOL    HW237588   4.169   2.459   6.437  0.1831 -0.0244 -0.9709
11861SOL     OW37589   4.503   3.562   3.768 -0.1073  0.0968  0.3624
11861SOL    HW137590   4.527   3.549   3.860 -1.3849 -2.5915  0.4167
11861SOL    HW237591   4.441   3.635   3.770  1.1931  1.2218  1.3549
11862SOL     OW37592   6.148   0.319   8.549 -0.0416 -0.1672  0.1657
11862SOL    HW137593   6.075   0.274   8.506 -0.0364  0.1780 -0.2105
11862SOL    HW237594   6.200   0.355   8.477  0.0498  0.2842  0.4521
11863SOL     OW37595   4.502   4.039   1.747  0.3799  0.2004 -0.3060
11863SOL    HW137596   4.551   4.029   1.666  0.2079  0.0536 -0.3939
11863SOL    HW237597   4.421   3.991   1.731  1.3154 -1.8666  0.7791
11864SOL     OW37598   1.782   8.479   6.551 -0.3464  0.0171  0.0417
11864SOL    HW137599   1.876   8.471   6.540 -0.6210 -3.2890 -1.0795
11864SOL    HW237600   1.748   8.494   6.462 -0.9685 -0.0334  0.2610
11865SOL     OW37601   1.541   5.431   4.503  0.1867 -0.0536  0.0714
11865SOL    HW137602   1.554   5.485   4.581 -0.4640 -0.1107  0.2200
11865SOL    HW237603   1.452   5.398   4.511  0.3017 -0.4925 -0.4305
11866SOL     OW37604   3.134   2.609   5.341  0.5007 -0.0729 -0.2171
11866SOL    HW137605   3.052   2.573   5.376 -0.0219 -0.7848 -2.0426
11866SOL    HW237606   3.197   2.537   5.349  0.1430 -0.5467 -1.5041
11867SOL     OW37607   3.742   5.998   8.094 -0.0534 -0.2364  0.0318
11867SOL    HW137608   3.694   6.047   8.028  1.6959  1.2996 -0.1625
11867SOL    HW237609   3.794   5.935   8.045  0.0957 -0.1304  0.0534
11868SOL     OW37610   3.757   2.716   6.706 -0.3462 -0.4776 -0.2545
11868SOL    HW137611   3.752   2.778   6.633 -2.4630 -1.5708 -1.1321
11868SOL    HW237612   3.846   2.683   6.703  0.4343  1.5132 -0.5982
11869SOL     OW37613   6.017   2.024   1.759  0.6183  0.1157 -0.1379
11869SOL    HW137614   6.027   2.115   1.731  2.7143 -0.1507 -0.3734
11869SOL    HW237615   5.927   2.001   1.735  0.3295  1.8559 -0.8227
11870SOL     OW37616   0.867   2.981   7.290  1.2341  0.5427  0.1078
11870SOL    HW137617   0.881   2.887   7.295 -0.6749  0.1939 -0.1466
11870SOL    HW237618   0.856   2.999   7.197 -2.5309  0.2249  0.3335
11871SOL     OW37619   3.258   4.672   7.403  0.0483  0.5373  0.0662
11871SOL    HW137620   3.221   4.749   7.448  0.3407 -0.0329  1.3085
11871SOL    HW237621   3.313   4.630   7.468 -0.8315 -1.2561 -0.3034
11872SOL     OW37622   1.517   4.031   6.213  0.3838 -0.1911  0.6595
11872SOL    HW137623   1.452   3.964   6.190  1.0810 -0.8768  0.6108
11872SOL    HW237624   1.527   4.083   6.134  1.2122 -1.2161  0.0729
11873SOL     OW37625   1.231   3.671   5.902 -0.0297 -0.1454 -0.3904
11873SOL    HW137626   1.295   3.740   5.922 -0.9009  0.2393  1.2690
11873SOL    HW237627   1.219   3.677   5.807 -1.2336  3.1046 -0.1657
11874SOL     OW37628   9.654   8.500  10.453  0.2074 -0.2843  0.5111
11874SOL    HW137629   9.653   8.470  10.544  1.8437 -3.9920 -0.4925
11874SOL    HW237630   9.625   8.424  10.402  2.4673  0.5075 -2.2226
11875SOL     OW37631   4.920   1.701   9.042 -0.2333  0.3684  0.0770
11875SOL    HW137632   5.015   1.697   9.033  0.0698 -1.5215  2.9410
11875SOL    HW237633   4.898   1.629   9.100 -3.3674  1.2332  0.1532
11876SOL     OW37634   6.216   1.490   6.955  0.4101 -0.4846 -1.1083
11876SOL    HW137635   6.258   1.410   6.924  0.8223 -1.2424  1.2765
11876SOL    HW237636   6.240   1.497   7.047 -3.0738  0.0954 -0.0828
11877SOL     OW37637   2.941   6.003   1.667  0.3203 -0.2964 -0.3736
11877SOL    HW137638   3.016   6.019   1.724 -0.0465  1.7811 -0.3724
11877SOL    HW237639   2.866   5.998   1.728  0.3906 -2.2734 -0.3790
11878SOL     OW37640   7.176   1.411   4.424  0.0857  0.0554  0.3407
11878SOL    HW137641   7.233   1.462   4.367  0.0213 -1.7958 -1.4942
11878SOL    HW237642   7.232   1.385   4.497  0.5443  1.3453  0.4723
11879SOL     OW37643   9.289   0.371   8.478  0.1079  0.0615 -0.6692
11879SOL    HW137644   9.318   0.458   8.506  0.5397 -0.0906 -0.6317
11879SOL    HW237645   9.365   0.315   8.493 -0.0880 -0.2752 -0.9249
11880SOL     OW37646  10.144  10.830   4.377  0.1331  0.1026  0.0325
11880SOL    HW137647  10.223  10.810   4.327  0.1116  0.2254 -0.0512
11880SOL    HW237648  10.080  10.765   4.348  0.2435 -0.0842  0.2016
11881SOL     OW37649   8.284   0.297   7.127  0.0747 -0.2134 -0.0195
11881SOL    HW137650   8.285   0.335   7.215  0.1569 -1.3297  0.4715
11881SOL    HW237651   8.192   0.282   7.108  0.0712 -0.1739 -0.0342
11882SOL     OW37652   0.247   1.487   5.444  0.5078  0.0942 -0.1653
11882SOL    HW137653   0.225   1.394   5.444  0.6858  0.0450  0.7334
11882SOL    HW237654   0.229   1.516   5.354  2.1757 -1.1989 -0.9599
11883SOL     OW37655   0.498   8.829   4.104 -0.1391  0.1681 -0.7421
11883SOL    HW137656   0.502   8.909   4.157  0.4162 -0.2516 -0.1363
11883SOL    HW237657   0.461   8.764   4.164  0.3564 -0.2740 -0.9157
11884SOL     OW37658   6.483   8.593   2.417 -0.4305 -0.0471 -0.1572
11884SOL    HW137659   6.562   8.590   2.364 -0.1964 -1.6347  0.2339
11884SOL    HW237660   6.427   8.658   2.373  0.4530 -0.0545 -1.3335
11885SOL     OW37661   2.930   7.103   5.365 -0.3238 -0.5467  0.1209
11885SOL    HW137662   2.985   7.134   5.437 -1.2689 -0.4598  0.8308
11885SOL    HW237663   2.851   7.157   5.370 -0.2311 -0.2491 -1.2555
11886SOL     OW37664   0.115   5.972   0.842 -0.2495  0.3926  0.3017
11886SOL    HW137665   0.188   6.016   0.885 -0.0862  0.0880  0.3347
11886SOL    HW237666   0.080   6.038   0.782  2.2053 -0.4630 -2.3184
11887SOL     OW37667   4.850   0.098   6.170  0.7203 -0.1378 -0.6104
11887SOL    HW137668   4.832   0.004   6.163 -0.2106 -0.0235  0.0517
11887SOL    HW237669   4.829   0.133   6.084  1.8130 -0.6394 -1.1011
11888SOL     OW37670   2.646   7.941   1.210 -0.8946  0.1412 -0.0247
11888SOL    HW137671   2.672   8.019   1.160 -1.2042  1.7866  2.2296
11888SOL    HW237672   2.728   7.892   1.221 -0.6925  0.1069 -1.4525
11889SOL     OW37673   5.383   5.213   4.631 -0.0533 -0.3862  0.2385
11889SOL    HW137674   5.393   5.299   4.588 -1.0221  0.5099  1.7237
11889SOL    HW237675   5.322   5.166   4.574 -0.0194  0.1603 -0.2667
11890SOL     OW37676   3.217   9.204   7.578  0.1492 -0.2828 -0.1014
11890SOL    HW137677   3.157   9.264   7.621 -0.6790 -0.3328 -1.1483
11890SOL    HW237678   3.227   9.132   7.640  0.3083  0.4214  0.7095
11891SOL     OW37679   8.886   1.144   8.053  0.1268  0.8591  0.1233
11891SOL    HW137680   8.854   1.057   8.029  0.3610  1.3365 -2.0780
11891SOL    HW237681   8.981   1.138   8.044  0.0298  1.9019 -2.2931
11892SOL     OW37682  10.534  10.831   8.142  0.7850 -0.0550 -0.1749
11892SOL    HW137683  10.512  10.826   8.235  0.5560  1.6835 -0.1049
11892SOL    HW237684  10.450  10.829   8.097  0.9079 -1.2238 -0.3976
11893SOL     OW37685   0.849   7.018   9.080 -0.2259  0.1056 -0.5873
11893SOL    HW137686   0.864   7.066   9.161 -0.4273 -0.1058 -0.4230
11893SOL    HW237687   0.763   7.048   9.049  0.3545  1.0518 -1.3400
11894SOL     OW37688   3.649  10.150   4.172  0.0296 -0.3252 -0.3914
11894SOL    HW137689   3.739  10.158   4.140 -0.5672 -1.2068 -2.4454
11894SOL    HW237690   3.625  10.240   4.197  1.6481 -0.1762  0.8354
11895SOL     OW37691   8.912   2.308   0.156  0.7605  0.1885  0.7812
11895SOL    HW137692   9.000   2.285   0.125  1.0735 -1.2171  2.5160
11895SOL    HW237693   8.892   2.241   0.222 -1.3920  0.8128  0.8306
11896SOL     OW37694   1.725   4.454   5.350  0.4727 -0.4164  0.0818
11896SOL    HW137695   1.673   4.410   5.283 -0.7440 -1.1122  1.4342
11896SOL    HW237696   1.661   4.504   5.401  1.6500  1.9275 -0.5915
11897SOL     OW37697   0.480   5.528   7.002  0.6339 -0.2606 -0.0838
11897SOL    HW137698   0.520   5.540   6.915  0.5942  2.0383  0.1504
11897SOL    HW237699   0.402   5.476   6.985  0.4517  0.4072 -1.5078
11898SOL     OW37700   6.828   8.260   4.766 -0.2264  0.5403 -0.6598
11898SOL    HW137701   6.916   8.296   4.782  0.1331 -0.3449 -0.5951
11898SOL    HW237702   6.835   8.215   4.682 -0.5058  0.1137 -0.4596
11899SOL     OW37703   4.061   5.525   7.793  0.1750  0.2314  0.1079
11899SOL    HW137704   3.973   5.501   7.764 -0.0002  0.2896  0.5905
11899SOL    HW237705   4.119   5.466   7.743 -0.1252  0.2749 -0.2970
11900SOL     OW37706   4.589   8.390   9.211 -0.3613  0.2710  0.2229
11900SOL    HW137707   4.566   8.483   9.218  2.4775  1.0307  0.5993
11900SOL    HW237708   4.660   8.379   9.274  0.4653 -1.7829 -1.0039
11901SOL     OW37709   2.226   5.176   6.485 -0.1391 -0.1153 -0.3233
11901SOL    HW137710   2.185   5.104   6.438  0.7344 -0.8379 -0.0237
11901SOL    HW237711   2.304   5.137   6.524  2.2325  1.6705 -2.8482
11902SOL     OW37712   9.352   9.002   9.800 -0.2558 -0.2966  0.0668
11902SOL    HW137713   9.347   9.091   9.834 -0.7532  0.0481 -0.8833
11902SOL    HW237714   9.342   8.947   9.877 -0.5645  0.4707  0.5871
11903SOL     OW37715  10.959   4.068   1.062  0.3234 -0.8881 -0.2069
11903SOL    HW137716  10.941   4.054   1.155 -0.2786  1.7680  0.1563
11903SOL    HW237717  11.049   4.100   1.059 -0.1252  0.4260 -0.3371
11904SOL     OW37718   9.279  10.078   7.919  0.1661  0.2157  0.3614
11904SOL    HW137719   9.223  10.019   7.969 -0.0983  0.4475  0.3366
11904SOL    HW237720   9.256  10.166   7.950  0.7218  0.2965  0.5669
11905SOL     OW37721   4.420   0.930   4.874  0.0354  0.0311  0.0218
11905SOL    HW137722   4.469   0.979   4.808 -0.0639  0.5304  0.3146
11905SOL    HW237723   4.450   0.965   4.957 -1.4902  1.0417  0.1903
11906SOL     OW37724   2.534  11.023   7.238 -0.4596 -0.1917 -0.3960
11906SOL    HW137725   2.462  11.041   7.300  0.4050  1.0478  0.2958
11906SOL    HW237726   2.490  10.989   7.160 -1.6623 -0.9612  0.5744
11907SOL     OW37727   6.031   6.175   3.816  0.3788  0.3478 -0.3390
11907SOL    HW137728   6.123   6.149   3.804 -0.0314 -1.0181 -0.6610
11907SOL    HW237729   5.999   6.194   3.728  0.1565  0.1601 -0.2976
11908SOL     OW37730   4.004   2.876   5.719 -0.0518 -0.8050 -0.0316
11908SOL    HW137731   3.915   2.879   5.684 -0.7433 -1.0203  1.6364
11908SOL    HW237732   4.011   2.953   5.775  0.1260 -1.8102  1.3720
11909SOL     OW37733   5.756   9.241   2.838  0.1986  0.3924 -0.5123
11909SOL    HW137734   5.849   9.263   2.837 -0.0694  1.7551  0.8907
11909SOL    HW237735   5.743   9.194   2.920 -0.0783 -1.3027 -1.4718
11910SOL     OW37736   3.622   4.520   6.999 -0.1038  0.2869  0.3170
11910SOL    HW137737   3.601   4.481   7.084 -0.0754 -2.0519 -0.6661
11910SOL    HW237738   3.656   4.606   7.020  2.4110 -1.1517  2.9147
11911SOL     OW37739   7.219   4.663   8.947 -0.4922 -0.6037 -0.0053
11911SOL    HW137740   7.145   4.708   8.987 -0.6665 -0.8213 -0.0852
11911SOL    HW237741   7.196   4.570   8.951 -0.7611 -0.5936 -1.1201
11912SOL     OW37742   4.289   0.499   5.678 -0.2082 -0.2595 -0.1544
11912SOL    HW137743   4.257   0.460   5.597 -1.1733  0.2313 -0.0245
11912SOL    HW237744   4.270   0.434   5.746 -0.2306 -0.2950 -0.1954
11913SOL     OW37745   1.549   6.859   4.170 -0.0363  0.2794  0.2778
11913SOL    HW137746   1.577   6.950   4.166 -0.5406  0.5433  1.9320
11913SOL    HW237747   1.462   6.858   4.130 -0.2862  0.6468  0.8056
11914SOL     OW37748   9.668   2.681   4.378 -0.7140  0.1146  0.3769
11914SOL    HW137749   9.658   2.601   4.325  0.0081 -0.0489  0.4782
11914SOL    HW237750   9.578   2.706   4.401 -0.9977 -0.1719 -0.3895
11915SOL     OW37751   1.278   7.174   4.293 -0.0822 -0.0759  0.0514
11915SOL    HW137752   1.306   7.118   4.365 -1.4281 -0.8413  0.0040
11915SOL    HW237753   1.215   7.121   4.244  0.4428  0.5927 -1.4260
11916SOL     OW37754   7.215   9.313   7.661  0.0340 -0.2772 -0.4297
11916SOL    HW137755   7.184   9.342   7.747 -0.5685 -0.8307 -0.4466
11916SOL    HW237756   7.289   9.369   7.641  0.9999 -0.9896  1.0333
11917SOL     OW37757   6.300   1.808   9.083  0.1825  0.2707  0.4340
11917SOL    HW137758   6.265   1.773   9.165  2.3151 -1.8883  0.5310
11917SOL    HW237759   6.293   1.903   9.093 -6.1740  0.3117  0.0518
11918SOL     OW37760   6.332   5.761   9.634 -0.3841  0.2232 -0.2679
11918SOL    HW137761   6.307   5.742   9.724 -0.3708  0.1893 -0.2714
11918SOL    HW237762   6.402   5.827   9.642 -0.4693  0.3124 -0.2574
11919SOL     OW37763   7.762   3.357   8.905  0.2645 -0.3920  0.0718
11919SOL    HW137764   7.853   3.361   8.873  0.4623 -0.8710  0.5585
11919SOL    HW237765   7.767   3.383   8.997  0.0677 -1.4014  0.3797
11920SOL     OW37766   3.557   9.592   9.819 -0.4138  0.0403 -0.2441
11920SOL    HW137767   3.544   9.528   9.749 -0.3566 -0.6612  0.3690
11920SOL    HW237768   3.608   9.661   9.779  0.9307 -1.0633 -0.5262
11921SOL     OW37769   1.273   4.837   2.862 -0.9340 -0.6373  0.0684
11921SOL    HW137770   1.346   4.824   2.923 -0.7684  1.0931  0.3044
11921SOL    HW237771   1.309   4.820   2.776 -0.3031 -0.0505  0.2104
11922SOL     OW37772   0.946   3.619   8.670  0.6353  0.0156 -0.1470
11922SOL    HW137773   1.006   3.557   8.628 -0.7945 -2.2203  0.8848
11922SOL    HW237774   0.967   3.613   8.763  0.3843  1.0254 -0.0159
11923SOL     OW37775   0.144   2.918   0.471  0.1256 -0.1322  0.7088
11923SOL    HW137776   0.098   2.835   0.460 -0.0555  0.1435 -0.9135
11923SOL    HW237777   0.220   2.912   0.413  1.0917  0.1816  1.8807
11924SOL     OW37778   2.285   7.742   4.156  0.1209 -0.0628  0.3408
11924SOL    HW137779   2.286   7.757   4.061  0.4387  1.4797  0.5568
11924SOL    HW237780   2.351   7.674   4.170 -0.3642 -0.7434 -0.6044
11925SOL     OW37781   6.705   3.724   9.966  0.6649 -0.3426  0.2122
11925SOL    HW137782   6.682   3.798  10.022  0.1766  0.1782 -0.6634
11925SOL    HW237783   6.797   3.707   9.985  0.2601 -0.8600  1.9426
11926SOL     OW37784   0.184   4.667   5.859  0.5222 -0.0824  0.0961
11926SOL    HW137785   0.237   4.606   5.807  1.4681  0.1635  0.7415
11926SOL    HW237786   0.196   4.752   5.816 -1.5886 -0.4536 -1.4011
11927SOL     OW37787   2.541   3.297   3.765 -0.0567 -0.0575 -0.2708
11927SOL    HW137788   2.504   3.280   3.852  0.6763  0.3454  0.1300
11927SOL    HW237789   2.555   3.210   3.727  2.4298 -0.4112  1.2266
11928SOL     OW37790   7.675   1.239   4.058 -0.1713 -0.2636  0.1594
11928SOL    HW137791   7.666   1.237   4.153 -0.0091 -2.0363  0.1716
11928SOL    HW237792   7.694   1.330   4.037  0.4319  0.0399  1.8897
11929SOL     OW37793   4.529   3.480   0.442 -0.3918  0.5952 -0.0412
11929SOL    HW137794   4.481   3.405   0.409 -1.4704  0.8080  0.9925
11929SOL    HW237795   4.462   3.547   0.457  0.1059  0.6868  2.0353
11930SOL     OW37796   3.865   2.802  10.712  0.1338  0.2967 -0.2057
11930SOL    HW137797   3.908   2.887  10.704 -1.7423  1.4806  1.3799
11930SOL    HW237798   3.793   2.806  10.650 -1.2159  0.7459  1.3377
11931SOL     OW37799   1.663   0.813   5.853  0.0359  0.3226  1.0091
11931SOL    HW137800   1.665   0.906   5.876 -0.1594  0.6668 -0.3247
11931SOL    HW237801   1.570   0.792   5.847  0.0814  0.4068 -0.1023
11932SOL     OW37802   1.475   6.708   9.315 -0.1650 -0.6523 -0.2904
11932SOL    HW137803   1.484   6.777   9.250 -1.7538 -1.4088 -1.3845
11932SOL    HW237804   1.524   6.739   9.391  2.1955  0.0350 -1.9833
11933SOL     OW37805   2.950   0.862   3.203  0.6442  0.4533 -0.3138
11933SOL    HW137806   3.045   0.864   3.214  0.6616  1.1689 -0.5611
11933SOL    HW237807   2.915   0.901   3.283  0.5572  0.2045 -0.2295
11934SOL     OW37808   5.678   2.291   6.832  0.4877  0.0345 -0.0558
11934SOL    HW137809   5.758   2.340   6.811  0.9094 -0.6731 -0.1402
11934SOL    HW237810   5.615   2.359   6.856  0.7806  0.6874 -1.0344
11935SOL     OW37811   4.313   8.749   7.773 -0.4304 -0.0708  0.2073
11935SOL    HW137812   4.226   8.710   7.785  0.1753 -1.2401  0.9009
11935SOL    HW237813   4.339   8.776   7.862  0.2969 -0.5660  0.1517
11936SOL     OW37814   3.483   5.660   0.156 -0.1549  0.1714  0.6669
11936SOL    HW137815   3.541   5.586   0.173 -0.7569 -0.2580  0.8890
11936SOL    HW237816   3.491   5.675   0.062  1.8173  1.4006  0.9778
11937SOL     OW37817   2.677   4.422   7.053  0.5539  0.1554 -0.0358
11937SOL    HW137818   2.680   4.518   7.058  1.6702  0.0718  1.3851
11937SOL    HW237819   2.662   4.393   7.143  0.4127 -1.0201 -0.4183
11938SOL     OW37820   3.290   8.935   2.643  0.6084 -0.3300  0.0713
11938SOL    HW137821   3.218   8.873   2.637  0.4681 -0.1873  0.2652
11938SOL    HW237822   3.316   8.951   2.553  0.5715 -0.5849  0.0155
11939SOL     OW37823   5.085   8.015   2.613  0.2976 -0.1696  0.6230
11939SOL    HW137824   5.099   7.924   2.587  0.6898 -0.1087  0.6094
11939SOL    HW237825   5.024   8.050   2.548  1.0965 -0.0791 -0.0949
11940SOL     OW37826   6.488   5.851   3.588 -0.3723 -0.0449  0.0962
11940SOL    HW137827   6.415   5.875   3.645 -0.4173  1.4034 -0.5255
11940SOL    HW237828   6.549   5.805   3.645 -1.3506 -0.4860  0.8300
11941SOL     OW37829   4.798   0.787   8.189  0.4078  0.2158  0.0028
11941SOL    HW137830   4.800   0.826   8.102 -2.2930  0.7348  0.0898
11941SOL    HW237831   4.877   0.819   8.231 -0.0694  3.0455 -1.0280
11942SOL     OW37832   1.178   2.887   5.074  0.2500 -0.5619 -0.5017
11942SOL    HW137833   1.238   2.943   5.124  0.1251 -2.2523  1.6759
11942SOL    HW237834   1.138   2.830   5.139 -1.1298 -1.8519 -2.3692
11943SOL     OW37835   4.918   8.850   5.274  0.2599 -0.0302  0.1049
11943SOL    HW137836   4.981   8.825   5.341 -0.1595  1.5317  1.1325
11943SOL    HW237837   4.843   8.884   5.322 -0.3154  0.5214 -1.1291
11944SOL     OW37838   3.347   7.117   3.679  0.2386 -0.1309 -0.2449
11944SOL    HW137839   3.350   7.025   3.704  0.1945 -0.2265 -0.5845
11944SOL    HW237840   3.433   7.151   3.704  0.9291 -0.6947 -1.7403
11945SOL     OW37841   4.224   8.155   7.692  0.5023  0.4375  0.2273
11945SOL    HW137842   4.266   8.096   7.629  1.5172  0.8631  0.4832
11945SOL    HW237843   4.131   8.147   7.674  0.7643  0.5301 -1.3246
11946SOL     OW37844   4.929   5.973  10.152  0.2358 -0.2066 -0.2816
11946SOL    HW137845   4.950   6.049  10.207 -1.1141  0.5321 -0.7234
11946SOL    HW237846   4.926   6.009  10.063 -4.5962  0.3361 -0.1612
11947SOL     OW37847   2.597   7.547  10.731 -0.0861 -0.0667  0.2940
11947SOL    HW137848   2.683   7.505  10.722 -0.3241 -0.4877 -0.0655
11947SOL    HW237849   2.617   7.637  10.755  0.5568  0.4253 -1.8814
11948SOL     OW37850   5.311   2.524   7.829 -0.0926  0.3839  0.2336
11948SOL    HW137851   5.352   2.563   7.906  2.0599 -0.6102 -0.3499
11948SOL    HW237852   5.324   2.430   7.840 -0.1468  0.2017 -1.1238
11949SOL     OW37853   8.824   0.451   6.875 -0.0750  0.7138  0.1756
11949SOL    HW137854   8.842   0.530   6.928 -1.8285  0.1698  1.6908
11949SOL    HW237855   8.741   0.470   6.832  1.6019  1.3975 -3.0865
11950SOL     OW37856   2.733   2.111   6.065  0.1702 -0.3056  0.0898
11950SOL    HW137857   2.659   2.091   6.007 -0.7300 -1.8383  1.6712
11950SOL    HW237858   2.752   2.203   6.048  1.1306 -1.0458 -3.8960
11951SOL     OW37859   2.446   6.121   4.754 -0.3151  0.0997 -0.2002
11951SOL    HW137860   2.366   6.069   4.768 -0.9408  0.1569 -2.9773
11951SOL    HW237861   2.517   6.057   4.759 -0.6950 -0.2761  0.5294
11952SOL     OW37862   8.799   1.417   4.395 -0.1696 -0.5895 -0.6407
11952SOL    HW137863   8.770   1.434   4.306  2.3499 -0.3424 -1.4837
11952SOL    HW237864   8.880   1.467   4.404 -1.2221  0.8608  2.4221
11953SOL     OW37865   1.920   6.013   1.400  0.3924  0.0602  0.0356
11953SOL    HW137866   1.869   5.952   1.452  0.9217 -0.1074  0.3680
11953SOL    HW237867   2.007   6.012   1.440  0.1690  1.7550  0.6628
11954SOL     OW37868   3.304   0.415   8.757  0.1097 -0.4429  0.2854
11954SOL    HW137869   3.352   0.463   8.824  0.1892 -0.0724 -0.0333
11954SOL    HW237870   3.371   0.385   8.695 -0.1768  1.3379 -0.9622
11955SOL     OW37871   9.537   8.673   9.375  0.8433  0.2719  0.1127
11955SOL    HW137872   9.542   8.737   9.446  0.1821  0.1219  0.3023
11955SOL    HW237873   9.463   8.701   9.322  0.2532 -0.5781  0.4528
11956SOL     OW37874   2.915   5.688   0.386  0.2875  0.9537 -0.0442
11956SOL    HW137875   2.845   5.685   0.321  0.0943  0.0278  0.1833
11956SOL    HW237876   2.920   5.598   0.419 -0.7738  1.6920  2.4023
11957SOL     OW37877   3.453   5.673   7.402  0.5851  0.1168 -0.5652
11957SOL    HW137878   3.469   5.635   7.488 -0.7868  2.1595  0.6821
11957SOL    HW237879   3.539   5.700   7.371  1.2237 -1.4985 -0.3192
11958SOL     OW37880   4.417   8.687   1.549  0.5303  0.1410  0.0317
11958SOL    HW137881   4.344   8.679   1.611  1.8424 -0.8038  1.5285
11958SOL    HW237882   4.384   8.648   1.468 -1.2329  1.4166  0.0755
11959SOL     OW37883   8.274   1.219   7.362 -0.4306  0.4074 -0.5126
11959SOL    HW137884   8.281   1.313   7.377 -0.4021  0.3133  0.0954
11959SOL    HW237885   8.216   1.211   7.287 -1.4396  0.8763  0.1923
11960SOL     OW37886   9.547   7.084   9.096 -0.4278  0.5790  0.1246
11960SOL    HW137887   9.635   7.117   9.111 -0.9827  1.7167  1.0429
11960SOL    HW237888   9.541   7.006   9.150 -0.0065  0.5348  0.1107
11961SOL     OW37889   1.503   6.384   7.822  0.1010  0.6614  0.2198
11961SOL    HW137890   1.593   6.411   7.840 -0.6475  4.1603 -0.6387
11961SOL    HW237891   1.466   6.367   7.909  1.0422  1.0962  0.7234
11962SOL     OW37892   0.067   6.670   4.827 -0.5151  0.0397  0.2953
11962SOL    HW137893   0.144   6.674   4.771 -0.4168 -0.9324  0.3534
11962SOL    HW237894   0.042   6.762   4.840 -0.2368  0.2974 -0.9103
11963SOL     OW37895   4.771   7.436   4.074  0.4819  0.4306 -0.4165
11963SOL    HW137896   4.683   7.464   4.049  1.0836  0.0617 -3.2581
11963SOL    HW237897   4.758   7.350   4.114 -0.3233 -1.3136 -3.9795
11964SOL     OW37898   3.786   6.557   5.309  0.8946 -0.2621  0.4694
11964SOL    HW137899   3.789   6.652   5.321 -1.1208 -0.0850 -0.1122
11964SOL    HW237900   3.696   6.533   5.329  1.0935 -1.8887 -0.4329
11965SOL     OW37901  10.531   6.936   2.515  0.1245  0.2591  0.4318
11965SOL    HW137902  10.461   6.933   2.450  0.4703  0.7597  0.0258
11965SOL    HW237903  10.499   6.996   2.583  1.3253  3.0102 -1.2199
11966SOL     OW37904   6.637   0.371  10.228 -0.2308  0.0583 -0.1807
11966SOL    HW137905   6.599   0.297  10.274 -0.2124  1.1426  1.7256
11966SOL    HW237906   6.711   0.398  10.283  1.4017 -0.0842 -2.1700
11967SOL     OW37907  10.363   1.758  10.873 -0.7099  0.1008 -0.2207
11967SOL    HW137908  10.316   1.675  10.866 -0.7834  0.0054  1.0527
11967SOL    HW237909  10.429   1.741  10.941 -0.5054  0.9787 -0.1983
11968SOL     OW37910   6.323   5.539   8.915  0.3129 -0.0463 -0.6969
11968SOL    HW137911   6.265   5.548   8.991  0.4146  3.2990 -0.8861
11968SOL    HW237912   6.265   5.552   8.839  0.7040 -0.4268 -1.0657
11969SOL     OW37913   0.418   4.339   7.233  0.2176 -0.1342 -0.1130
11969SOL    HW137914   0.479   4.265   7.238 -1.5279 -1.5910  1.1577
11969SOL    HW237915   0.400   4.361   7.324 -1.6550 -0.2150 -0.4284
11970SOL     OW37916   1.429   6.482   4.723  0.4159 -0.3051  0.3845
11970SOL    HW137917   1.389   6.523   4.646 -1.5821  0.4607  1.7364
11970SOL    HW237918   1.387   6.397   4.730  1.6832 -1.0054 -0.1696
11971SOL     OW37919   8.881   6.423   5.254 -0.1285 -0.2067 -0.8633
11971SOL    HW137920   8.809   6.395   5.310  0.8022  1.0028  1.0517
11971SOL    HW237921   8.944   6.351   5.257 -0.7774 -0.8397 -1.7405
11972SOL     OW37922   6.223   7.621   9.767 -0.5724 -0.0811  0.1680
11972SOL    HW137923   6.148   7.680   9.761 -2.0817 -2.0378 -1.7682
11972SOL    HW237924   6.196   7.556   9.832  1.0392  1.2030  2.2222
11973SOL     OW37925   4.196   6.958   9.616 -0.2321  0.2394 -0.0066
11973SOL    HW137926   4.285   6.989   9.636 -0.0988 -0.0641 -0.1098
11973SOL    HW237927   4.161   6.931   9.701  0.1242 -0.5158 -0.0893
11974SOL     OW37928   6.408   7.732   1.320  0.1845  0.8348  0.0485
11974SOL    HW137929   6.393   7.639   1.341  1.2805  1.0044  1.8176
11974SOL    HW237930   6.351   7.780   1.380 -0.5760  1.3367 -1.0408
11975SOL     OW37931   2.537   6.497   5.908  0.6170  0.4574  0.2507
11975SOL    HW137932   2.618   6.457   5.879 -0.2637 -1.1992 -0.0056
11975SOL    HW237933   2.561   6.544   5.989  1.5996 -0.9560  0.8063
11976SOL     OW37934   1.892   7.015   6.714  0.2950 -0.0519 -0.3542
11976SOL    HW137935   1.878   7.108   6.732 -1.1325 -0.2491 -0.3604
11976SOL    HW237936   1.932   7.014   6.627  0.7211  0.5731 -0.1709
11977SOL     OW37937   3.163   2.929   5.137  0.1057 -0.4382  0.2866
11977SOL    HW137938   3.236   2.968   5.089 -1.3152  0.6122 -1.1294
11977SOL    HW237939   3.202   2.898   5.218  1.8596  1.5183  0.2920
11978SOL     OW37940   1.876   2.658   5.772 -0.1355 -0.5830 -0.0129
11978SOL    HW137941   1.932   2.603   5.827 -0.4605 -0.0457  0.8669
11978SOL    HW237942   1.840   2.724   5.831 -0.7336 -0.1708 -0.8085
11979SOL     OW37943   9.758   2.774  10.617 -0.3247 -0.5665 -0.4519
11979SOL    HW137944   9.754   2.794  10.711 -4.1120 -0.5343 -0.4893
11979SOL    HW237945   9.844   2.808  10.590  0.9220 -0.5867  2.9390
11980SOL     OW37946   3.718   2.314   4.157  0.1363 -0.0231 -0.7283
11980SOL    HW137947   3.687   2.279   4.073  0.9355 -0.2608 -0.9245
11980SOL    HW237948   3.790   2.257   4.182 -0.3485 -0.2031  0.3326
11981SOL     OW37949   2.390   7.644   6.924  0.5078 -0.3697  0.0328
11981SOL    HW137950   2.311   7.636   6.978 -0.2683 -0.6785 -1.1117
11981SOL    HW237951   2.461   7.657   6.987 -0.7502  2.4114  1.0310
11982SOL     OW37952   3.179   6.608   1.812 -0.2848 -0.3310 -0.3280
11982SOL    HW137953   3.140   6.521   1.801  0.8757 -1.2693  2.2479
11982SOL    HW237954   3.265   6.601   1.771  0.1245 -0.6746  0.5722
11983SOL     OW37955   1.683   3.456   3.467  0.1477 -0.1654  0.0418
11983SOL    HW137956   1.610   3.395   3.462 -1.0535  1.3222 -1.7280
11983SOL    HW237957   1.656   3.520   3.533  0.6767 -0.5862  0.6841
11984SOL     OW37958   1.132  10.220   8.820 -0.3444 -0.2158 -0.2595
11984SOL    HW137959   1.198  10.158   8.849 -0.9960 -0.1127  1.6488
11984SOL    HW237960   1.061  10.210   8.884 -1.7818  0.3151 -1.7092
11985SOL     OW37961   3.645   5.048   4.147 -0.4670 -0.3875 -0.4476
11985SOL    HW137962   3.700   5.109   4.097  0.2811 -1.0099 -0.4050
11985SOL    HW237963   3.703   5.012   4.214 -1.2757 -0.0993  0.4337
11986SOL     OW37964   4.230   4.134   6.227 -0.1693 -0.3425 -0.0058
11986SOL    HW137965   4.161   4.164   6.286  0.4391  0.4303  0.3280
11986SOL    HW237966   4.183   4.084   6.159 -1.2083  1.1548 -0.4548
11987SOL     OW37967   3.211  10.710   8.510 -0.9698 -0.2259  0.0763
11987SOL    HW137968   3.168  10.637   8.465 -1.0696  0.1004 -0.3645
11987SOL    HW237969   3.277  10.741   8.448  0.5863 -1.3347  1.1114
11988SOL     OW37970   2.814  10.073   4.317  0.0280  0.1622 -0.1115
11988SOL    HW137971   2.835  10.028   4.235 -0.7872 -0.0294 -0.2280
11988SOL    HW237972   2.882  10.044   4.379 -1.0665 -2.1177  0.1251
11989SOL     OW37973   4.416   8.604   5.666 -0.5377  0.2496 -0.2187
11989SOL    HW137974   4.378   8.675   5.615  0.3682  1.6458  0.9692
11989SOL    HW237975   4.341   8.549   5.690 -1.4380  1.4381 -0.2035
11990SOL     OW37976   6.369   5.878   8.065 -0.2109  0.1310 -0.5530
11990SOL    HW137977   6.345   5.786   8.075 -0.3984  0.3055  0.8445
11990SOL    HW237978   6.325   5.905   7.984 -2.2632 -0.3722  0.3194
11991SOL     OW37979   4.652   4.199   5.714 -0.1243  0.5622 -0.2334
11991SOL    HW137980   4.613   4.114   5.734 -1.0821  1.0237 -0.0585
11991SOL    HW237981   4.674   4.236   5.800  2.1711 -0.3282 -0.3799
11992SOL     OW37982   5.823   6.645   3.293 -0.2903 -0.3439 -0.0920
11992SOL    HW137983   5.881   6.578   3.329 -0.4342  0.2400  1.2883
11992SOL    HW237984   5.760   6.662   3.363 -0.7965  0.5891 -0.7552
11993SOL     OW37985   2.584   3.879   3.236 -0.3761 -0.2247 -0.5833
11993SOL    HW137986   2.579   3.791   3.201 -1.8055 -0.0474 -0.8864
11993SOL    HW237987   2.524   3.931   3.181 -1.0093  0.5146  0.7319
11994SOL     OW37988   6.344   5.387  10.686 -0.2468  0.0807 -0.2224
11994SOL    HW137989   6.418   5.444  10.708 -0.7762  1.8625 -2.6752
11994SOL    HW237990   6.381   5.322  10.625 -0.3807  0.0028 -0.2216
11995SOL     OW37991   8.364   0.521   2.788 -0.3975  0.4247  0.2342
11995SOL    HW137992   8.274   0.492   2.781 -0.0150 -0.8239  0.2004
11995SOL    HW237993   8.394   0.530   2.698 -0.2407  0.0037  0.2418
11996SOL     OW37994   2.407   4.726   2.725 -0.4058 -0.4548  0.1774
11996SOL    HW137995   2.356   4.653   2.763 -1.1312 -0.1303 -0.1441
11996SOL    HW237996   2.424   4.699   2.635  1.0058 -1.0651  0.5956
11997SOL     OW37997   1.296   5.559   1.558 -0.1794  0.4105  0.1758
11997SOL    HW137998   1.346   5.628   1.602 -0.1609  1.0466 -0.8092
11997SOL    HW237999   1.205   5.587   1.564 -0.2703  0.0338  0.6075
11998SOL     OW38000   9.674   7.027   4.345 -0.1688 -0.7249  0.2664
11998SOL    HW138001   9.729   7.075   4.284  0.7989 -1.3445  0.6293
11998SOL    HW238002   9.644   7.093   4.408 -1.4432 -0.0125 -1.0165
11999SOL     OW38003   7.613   6.474   6.628 -0.4282 -0.5667  0.4134
11999SOL    HW138004   7.668   6.397   6.614  1.5244  1.0616 -1.6521
11999SOL    HW238005   7.559   6.452   6.704  2.6344 -2.5496  2.2318
12000SOL     OW38006  10.109   3.019   5.370 -0.0715  0.6188  0.1016
12000SOL    HW138007  10.089   2.930   5.341 -1.0353  1.1047 -0.8090
12000SOL    HW238008  10.040   3.040   5.434  2.6067 -0.8143  3.7776
12001SOL     OW38009   0.467   9.303   7.756 -0.3097  0.1023  0.3676
12001SOL    HW138010   0.408   9.236   7.790 -0.1733 -0.4127 -0.3869
12001SOL    HW238011   0.504   9.264   7.676  2.8442 -0.6103  2.0030
12002SOL     OW38012   0.321   4.805   3.237 -0.3244  0.2222  0.8211
12002SOL    HW138013   0.247   4.764   3.282  0.6487 -1.0188  1.3471
12002SOL    HW238014   0.313   4.775   3.146  1.6871 -3.3027  1.6136
12003SOL     OW38015   2.647   3.865   4.558 -0.2108  0.1928 -0.5299
12003SOL    HW138016   2.662   3.956   4.530  0.0220  0.6484  0.9535
12003SOL    HW238017   2.600   3.874   4.641  2.4408 -0.8962  1.2545
12004SOL     OW38018   4.601   6.243   6.434  0.5762  0.2966 -0.3579
12004SOL    HW138019   4.691   6.272   6.424  0.6298  0.5662  0.8036
12004SOL    HW238020   4.548   6.316   6.400  0.7792  0.0645 -1.2075
12005SOL     OW38021   3.281   6.903   7.221 -0.0825 -0.3499  0.2406
12005SOL    HW138022   3.197   6.858   7.209 -1.4674  2.0640  0.1719
12005SOL    HW238023   3.313   6.872   7.306 -1.3978 -0.8136  0.5966
12006SOL     OW38024   0.300   7.333   3.607  0.7855  0.1371  0.7569
12006SOL    HW138025   0.340   7.282   3.678  2.0727  0.5369  0.3554
12006SOL    HW238026   0.310   7.278   3.529 -0.0999 -0.0549  0.7702
12007SOL     OW38027   6.083   9.089   0.409  0.7785  0.1448  0.4454
12007SOL    HW138028   6.029   9.016   0.379  1.8412  0.8592 -3.8504
12007SOL    HW238029   6.037   9.167   0.378  1.1170  1.1935  2.4296
12008SOL     OW38030   8.962   4.844   6.722 -0.5261 -0.7638  0.0996
12008SOL    HW138031   8.971   4.788   6.800 -2.2220 -0.3599  0.6324
12008SOL    HW238032   9.051   4.849   6.686  0.3131 -0.9745  2.0019
12009SOL     OW38033   0.750   6.487  10.723 -1.0082  0.5598 -0.6282
12009SOL    HW138034   0.673   6.538  10.698 -1.6747 -1.3528 -2.7701
12009SOL    HW238035   0.818   6.512  10.660 -0.8694 -0.0704 -0.7356
12010SOL     OW38036   0.688   6.910   8.356 -0.2433  0.3191 -0.1698
12010SOL    HW138037   0.740   6.881   8.431  0.0137  1.8712  0.2975
12010SOL    HW238038   0.704   7.005   8.351 -0.7019  0.3420 -1.8448
12011SOL     OW38039   1.168   6.296   7.004  0.2845 -0.2859  0.6973
12011SOL    HW138040   1.122   6.234   6.947  0.4866  0.4057 -0.2403
12011SOL    HW238041   1.099   6.347   7.046  0.1651  0.7060 -0.6549
12012SOL     OW38042   8.433   6.039   4.823  0.0539  0.4312 -0.3436
12012SOL    HW138043   8.480   5.956   4.828  0.0540  0.5060  1.1917
12012SOL    HW238044   8.488   6.100   4.872 -1.1258  0.7647  0.5906
12013SOL     OW38045   3.794   6.028   8.753  1.2468 -0.4237 -0.2887
12013SOL    HW138046   3.733   6.011   8.681  0.2001  0.3885  0.3693
12013SOL    HW238047   3.877   6.045   8.711  0.5728  0.3776 -1.3321
12014SOL     OW38048   5.293   7.577   9.498  0.0896 -0.8501  0.4788
12014SOL    HW138049   5.220   7.557   9.440  0.5811  0.6917 -0.7245
12014SOL    HW238050   5.259   7.558   9.586 -1.8062 -0.0681 -0.0358
12015SOL     OW38051   3.732   6.929   9.179 -0.9027 -0.6496  0.5349
12015SOL    HW138052   3.805   6.956   9.234  0.9757 -3.5547 -0.2682
12015SOL    HW238053   3.696   7.010   9.143 -0.2851  1.1056  3.5817
12016SOL     OW38054   1.996   8.332   4.886 -0.0356 -0.0898  0.5473
12016SOL    HW138055   2.054   8.404   4.862  0.3889  0.6490  3.4009
12016SOL    HW238056   2.045   8.253   4.863  0.2775  0.4918 -0.8990
12017SOL     OW38057  10.630   1.663   0.863 -0.1082  0.9624 -0.4113
12017SOL    HW138058  10.599   1.603   0.795  1.4788  0.5337 -0.7979
12017SOL    HW238059  10.551   1.709   0.892 -1.4319 -1.4791  0.1119
12018SOL     OW38060   5.475  10.033   8.245 -0.0850 -0.2577 -0.3270
12018SOL    HW138061   5.389  10.038   8.202  0.2693  0.7300 -0.9687
12018SOL    HW238062   5.459   9.986   8.326 -1.5332  1.1880  0.2702
12019SOL     OW38063   0.604   6.436   6.776  0.4300  0.0919 -0.2891
12019SOL    HW138064   0.531   6.393   6.731  0.3182 -1.4969  1.2984
12019SOL    HW238065   0.669   6.452   6.708 -1.7383  2.5048 -1.9737
12020SOL     OW38066   1.323   4.260   6.260 -0.2848  0.1775  0.3563
12020SOL    HW138067   1.359   4.173   6.241 -1.2173 -0.5795  1.8508
12020SOL    HW238068   1.232   4.243   6.285 -0.6541  1.6652  0.0753
12021SOL     OW38069   4.324   9.373   8.976 -0.5527  0.2734  0.0412
12021SOL    HW138070   4.312   9.401   8.885  2.8799  2.3654  0.0612
12021SOL    HW238071   4.342   9.453   9.024 -0.4835 -0.9703  2.2408
12022SOL     OW38072   1.443   2.086   1.520 -0.0944  0.2803 -0.1033
12022SOL    HW138073   1.351   2.068   1.502 -0.3506  1.0725  0.3363
12022SOL    HW238074   1.443   2.175   1.556  0.7563  0.0068  0.6178
12023SOL     OW38075   3.653   9.146   5.916 -0.3893 -0.1382  1.2555
12023SOL    HW138076   3.619   9.064   5.881 -0.5640 -0.6045  2.4943
12023SOL    HW238077   3.747   9.130   5.928  0.2800  0.9478 -1.5775
12024SOL     OW38078   3.391   7.862  10.014 -0.5038  0.3612 -0.2408
12024SOL    HW138079   3.351   7.871   9.927 -3.2852 -0.1708  0.8568
12024SOL    HW238080   3.316   7.852  10.073  1.0656  3.7063  2.6895
12025SOL     OW38081   3.194   6.006   9.116 -0.0282  0.3105 -0.0578
12025SOL    HW138082   3.218   5.973   9.203 -2.0568 -0.6983  0.1816
12025SOL    HW238083   3.260   5.969   9.057 -1.5826 -3.5838  0.3395
12026SOL     OW38084   1.918   3.366   5.696  0.1437 -0.0717  0.0217
12026SOL    HW138085   1.985   3.422   5.656  0.7974 -0.7847  0.1109
12026SOL    HW238086   1.962   3.324   5.770 -0.6756  0.1913  0.6830
12027SOL     OW38087   7.476   7.008  10.157  0.7909  0.3830  0.5989
12027SOL    HW138088   7.435   7.074  10.213  0.7776  1.1005 -0.2195
12027SOL    HW238089   7.547   6.971  10.210  0.5239  0.7563  1.2232
12028SOL     OW38090   1.182   7.010   8.414 -0.2211 -0.2513  0.3398
12028SOL    HW138091   1.251   7.028   8.350 -0.9689 -1.2015 -0.7885
12028SOL    HW238092   1.224   7.021   8.499  0.9651  0.4705 -0.3100
12029SOL     OW38093   3.056   1.063   4.585  0.8299 -0.7207  0.1947
12029SOL    HW138094   3.009   1.124   4.641 -1.6435 -1.8984 -0.4588
12029SOL    HW238095   3.029   0.976   4.616 -0.2605 -1.4157 -2.4347
12030SOL     OW38096   5.349  10.426   9.209 -0.7816  0.2712  0.3064
12030SOL    HW138097   5.299  10.497   9.170 -0.4131 -0.0050 -0.6781
12030SOL    HW238098   5.440  10.455   9.207 -0.3141 -1.1027 -2.1933
12031SOL     OW38099   4.619   7.108   8.526 -0.2233  0.2124 -0.0923
12031SOL    HW138100   4.638   7.044   8.595 -0.0334  0.1730 -0.1814
12031SOL    HW238101   4.530   7.086   8.498  0.4839 -1.1928 -1.3838
12032SOL     OW38102   0.034   9.703  10.694 -0.2623  0.9729 -0.1737
12032SOL    HW138103  -0.035   9.722  10.630 -0.9746  0.7563  0.5139
12032SOL    HW238104   0.015   9.614  10.723  0.8812  0.5536 -0.6785
12033SOL     OW38105   7.043  10.676   6.840  0.2975 -0.2063 -0.2098
12033SOL    HW138106   7.033  10.582   6.854  0.1483 -0.1598  0.0051
12033SOL    HW238107   7.039  10.687   6.745 -0.2896 -0.3548 -0.2084
12034SOL     OW38108   1.461   5.610   6.319 -0.2105  0.3267  0.5078
12034SOL    HW138109   1.444   5.517   6.334 -1.9548  0.7318  1.3636
12034SOL    HW238110   1.528   5.612   6.252  0.4721 -1.5523  1.0851
12035SOL     OW38111   3.880   1.637   2.016  0.6910 -0.5460 -0.0223
12035SOL    HW138112   3.911   1.634   1.925  0.1707  2.1444 -0.3792
12035SOL    HW238113   3.898   1.550   2.050  2.7875 -1.0392 -2.0937
12036SOL     OW38114   3.527   7.393   9.811  0.6018  0.4601  0.6600
12036SOL    HW138115   3.574   7.380   9.894  0.6761  0.2807  0.5905
12036SOL    HW238116   3.466   7.465   9.829 -0.8827 -0.9444  1.5144
12037SOL     OW38117   7.097   4.972   9.620  0.1415 -0.0671 -0.1265
12037SOL    HW138118   7.020   5.011   9.580  1.3878  2.1642 -0.5370
12037SOL    HW238119   7.155   4.951   9.547 -0.2140 -2.1922  0.1385
12038SOL     OW38120   1.274   5.032   1.272  0.3695 -0.1450 -0.0154
12038SOL    HW138121   1.309   4.973   1.339 -1.3751 -1.8739 -0.5179
12038SOL    HW238122   1.300   4.992   1.189 -0.7210 -0.1814 -0.3655
12039SOL     OW38123  10.576   8.267   7.289 -0.7558 -0.1104 -0.0933
12039SOL    HW138124  10.669   8.289   7.294 -0.7373 -0.4390  1.9659
12039SOL    HW238125  10.565   8.196   7.352 -2.2313 -0.7928 -1.0632
12040SOL     OW38126  10.850   2.431   6.153  0.3874  0.1206  0.2882
12040SOL    HW138127  10.837   2.506   6.094 -2.8769 -0.3225  0.2090
12040SOL    HW238128  10.915   2.377   6.109  0.3421  1.3166 -1.3622
12041SOL     OW38129   4.574   5.381  10.169 -0.4397 -0.3222 -0.0628
12041SOL    HW138130   4.487   5.373  10.208 -0.1464  0.0545  0.6931
12041SOL    HW238131   4.559   5.432  10.089 -0.6859  1.4094  1.0154
12042SOL     OW38132   9.417   1.607   2.992 -0.1168  0.1113 -0.3558
12042SOL    HW138133   9.352   1.675   3.008  0.4230  0.4578  0.4348
12042SOL    HW238134   9.445   1.622   2.901 -1.6164 -0.4761 -0.9466
12043SOL     OW38135   0.562   9.878   5.803  0.7529  0.1947  0.2908
12043SOL    HW138136   0.633   9.814   5.800 -0.6682 -1.4810 -3.5349
12043SOL    HW238137   0.486   9.830   5.836 -0.0776  0.1336 -1.6251
12044SOL     OW38138   9.847   0.499   4.377 -0.4497 -0.5118  0.2558
12044SOL    HW138139   9.755   0.524   4.379 -0.3214  0.0324  2.2046
12044SOL    HW238140   9.887   0.561   4.316 -1.2188 -0.1494  0.1073
12045SOL     OW38141   5.888   4.721   2.183  0.1473 -0.6883 -0.3989
12045SOL    HW138142   5.963   4.670   2.214 -0.8736 -1.9323  0.1427
12045SOL    HW238143   5.911   4.812   2.203  0.9002 -1.1752  1.1152
12046SOL     OW38144   2.646   1.316  11.017  0.4045  0.4708 -0.4936
12046SOL    HW138145   2.608   1.402  11.033  0.3732  0.7248 -1.8533
12046SOL    HW238146   2.636   1.270  11.100 -1.4576  1.0696 -0.3367
12047SOL     OW38147   6.829   6.392   9.966  0.1493 -0.3474  0.0062
12047SOL    HW138148   6.819   6.455   9.894  0.9106 -0.0119  0.1788
12047SOL    HW238149   6.836   6.307   9.923 -1.1163 -0.3561 -0.2228
12048SOL     OW38150   0.106   5.925   0.157  0.1705 -0.1542  0.6067
12048SOL    HW138151   0.181   5.867   0.170  1.1538  0.9013 -0.1183
12048SOL    HW238152   0.037   5.889   0.213  0.1655 -2.9900 -1.0298
12049SOL     OW38153   9.796   0.353   8.148  0.1567  0.0221  0.0085
12049SOL    HW138154   9.844   0.341   8.230 -0.4165  0.4615  0.4163
12049SOL    HW238155   9.848   0.306   8.083  2.2138  2.0909  0.0370
12050SOL     OW38156   6.063   0.413   8.801  0.3962 -0.6538 -0.0361
12050SOL    HW138157   5.978   0.453   8.782  0.2584 -1.1315 -0.4664
12050SOL    HW238158   6.090   0.374   8.718  0.8398 -0.8739  0.2057
12051SOL     OW38159   5.035   3.041  10.293  0.3240  0.1992 -0.0743
12051SOL    HW138160   5.000   3.009  10.210  0.3487 -0.1020  0.0305
12051SOL    HW238161   5.121   3.077  10.270 -0.2482  1.3930 -0.4170
12052SOL     OW38162   4.761   9.239   3.364 -0.4761 -0.6920  0.3909
12052SOL    HW138163   4.696   9.169   3.366  0.6805 -1.8214 -0.4084
12052SOL    HW238164   4.713   9.316   3.395 -2.5840 -1.1400 -1.5038
12053SOL     OW38165   6.810   6.952   3.591  0.0690  0.3093  0.0957
12053SOL    HW138166   6.796   6.891   3.664 -0.2065  0.9667  0.5964
12053SOL    HW238167   6.789   6.900   3.513  1.1362 -0.6478  0.4097
12054SOL     OW38168   4.676   9.023   0.169 -0.0527  0.3331 -0.2325
12054SOL    HW138169   4.642   8.942   0.131 -2.9836  1.5713 -0.5724
12054SOL    HW238170   4.685   9.005   0.262  1.4221 -0.9520 -0.5787
12055SOL     OW38171   1.228   7.629   1.411 -0.0987  0.2129 -0.4647
12055SOL    HW138172   1.236   7.553   1.353 -0.9200 -0.6676  0.5442
12055SOL    HW238173   1.241   7.593   1.499  1.5532  1.5920 -0.1023
12056SOL     OW38174   0.904   9.202   5.574  0.1237  0.1204 -0.3883
12056SOL    HW138175   0.968   9.147   5.621 -1.3954 -0.8064  0.7025
12056SOL    HW238176   0.939   9.291   5.582  0.4354 -0.1296  1.6997
12057SOL     OW38177   6.348   7.979   8.568 -0.5650 -0.5492 -0.3120
12057SOL    HW138178   6.327   7.889   8.540 -0.4929 -0.7229  0.1959
12057SOL    HW238179   6.387   7.969   8.655 -0.8937  0.0057 -0.0991
12058SOL     OW38180   5.919   9.733  10.056 -0.1186 -0.0545  0.0531
12058SOL    HW138181   6.011   9.737  10.031 -0.0210 -0.4897  0.3404
12058SOL    HW238182   5.920   9.730  10.151 -0.4679  0.9277  0.0979
12059SOL     OW38183   5.964   5.800   3.500  0.1258 -0.3909  0.7358
12059SOL    HW138184   5.885   5.850   3.477  1.0688  0.3568 -1.0910
12059SOL    HW238185   5.996   5.843   3.579 -0.4379  0.3219  0.5962
12060SOL     OW38186   9.185   7.843   5.882 -0.2744  0.5045  0.1596
12060SOL    HW138187   9.202   7.897   5.959  0.1477  1.0339 -0.2844
12060SOL    HW238188   9.097   7.809   5.894  0.2005 -0.3429  1.4062
12061SOL     OW38189   0.961   0.728   3.290 -0.1037  0.6488 -0.0835
12061SOL    HW138190   0.874   0.687   3.289 -0.3284  1.1177 -0.3058
12061SOL    HW238191   0.977   0.747   3.383  0.5181 -0.9860  0.1790
12062SOL     OW38192   6.532   9.112   9.232 -0.5496 -0.0161  0.3587
12062SOL    HW138193   6.511   9.022   9.259  0.5165 -0.1368  0.8087
12062SOL    HW238194   6.584   9.101   9.152 -1.6741  0.2640 -0.4353
12063SOL     OW38195   0.405   5.043   2.191 -0.1867  0.0968  0.0516
12063SOL    HW138196   0.421   5.051   2.285  0.3677  1.4100 -0.1343
12063SOL    HW238197   0.410   4.949   2.174 -4.4830 -0.7083  2.0048
12064SOL     OW38198   5.085   8.890   1.156  0.0899  0.0123 -0.1846
12064SOL    HW138199   5.156   8.830   1.180  0.3686  0.7447  0.9274
12064SOL    HW238200   5.005   8.839   1.167  0.1099  0.4535  3.2549
12065SOL     OW38201  10.203   4.638   1.513 -0.0548 -0.0256  0.2414
12065SOL    HW138202  10.148   4.559   1.518  1.4044 -1.0278  3.0889
12065SOL    HW238203  10.142   4.708   1.491 -1.6338 -1.7165 -1.1406
12066SOL     OW38204   9.115   7.099   2.747 -0.1568 -0.2802  0.4418
12066SOL    HW138205   9.084   7.182   2.709 -1.0200 -0.1584  1.3673
12066SOL    HW238206   9.038   7.042   2.744  0.3320 -0.9299  0.1542
12067SOL     OW38207   0.722   3.046   8.729 -0.8322 -0.5384 -0.6100
12067SOL    HW138208   0.631   3.067   8.751 -0.3150  2.0657 -0.6088
12067SOL    HW238209   0.722   2.951   8.716 -2.9150 -1.0749  2.2324
12068SOL     OW38210   7.877   9.525  10.539 -0.0910 -0.3393  0.2377
12068SOL    HW138211   7.900   9.461  10.606  1.3545 -0.7556 -0.6157
12068SOL    HW238212   7.934   9.504  10.465 -0.9488  0.7324 -0.7647
12069SOL     OW38213   0.490   8.214   7.091  0.0520 -0.0768  0.2833
12069SOL    HW138214   0.415   8.156   7.106  1.4487 -1.6783  1.4455
12069SOL    HW238215   0.542   8.169   7.024  0.2974  0.7026 -0.0625
12070SOL     OW38216   1.800   3.949   9.156 -0.3540  0.2276 -0.1205
12070SOL    HW138217   1.755   3.949   9.072 -0.8250  3.4045 -0.0131
12070SOL    HW238218   1.875   4.007   9.143 -0.5784  1.0024  1.6883
12071SOL     OW38219   1.748   5.640   5.882  0.3939 -0.2671  0.2775
12071SOL    HW138220   1.684   5.698   5.841  0.0911 -0.8194 -0.0426
12071SOL    HW238221   1.832   5.678   5.860  0.2533 -0.6978 -1.1237
12072SOL     OW38222  10.666  10.993  10.234  0.2568 -0.3239 -0.0766
12072SOL    HW138223  10.658  11.086  10.213 -1.1651 -0.5430 -0.5809
12072SOL    HW238224  10.703  10.953  10.155 -1.1239 -0.4957 -0.6578
12073SOL     OW38225   1.751   6.421   7.914 -0.7387 -0.3624 -0.2577
12073SOL    HW138226   1.764   6.341   7.965 -0.3288  0.2125  0.5429
12073SOL    HW238227   1.823   6.478   7.940  0.4833 -0.6574 -2.6930
12074SOL     OW38228   5.764   1.166   2.376 -1.0171  0.1798  0.3560
12074SOL    HW138229   5.709   1.130   2.306  0.5518 -1.3917 -0.1614
12074SOL    HW238230   5.845   1.191   2.332 -0.6118  0.6867  1.3675
12075SOL     OW38231   7.105   9.567   3.701 -0.0640  0.0410  0.7579
12075SOL    HW138232   7.177   9.625   3.678 -0.8395  0.6880 -0.0871
12075SOL    HW238233   7.057   9.554   3.620 -1.0392 -0.1898  1.3543
12076SOL     OW38234   2.071   2.326   2.998 -0.4731 -0.2674 -0.1250
12076SOL    HW138235   2.138   2.288   3.055  0.1773  2.6478  1.2205
12076SOL    HW238236   1.989   2.289   3.031  0.2663 -3.0933 -1.1438
12077SOL     OW38237   4.462   6.148   6.629 -0.1894  0.0332 -0.1252
12077SOL    HW138238   4.526   6.165   6.560  2.4649 -0.3204  2.1006
12077SOL    HW238239   4.430   6.060   6.610 -0.8971  0.6190 -1.8672
12078SOL     OW38240   0.058   6.421   7.038 -0.1911 -0.1655 -0.2289
12078SOL    HW138241   0.116   6.349   7.061 -1.0694 -1.7752 -2.6381
12078SOL    HW238242   0.001   6.384   6.970 -0.4878  2.8967 -1.7859
12079SOL     OW38243   3.368   7.983   1.824 -0.7636  0.4444 -0.3243
12079SOL    HW138244   3.361   7.895   1.787  0.7117  0.5713 -0.9764
12079SOL    HW238245   3.279   8.006   1.849 -1.2488 -1.0274 -0.6294
12080SOL     OW38246   1.661   2.406   9.949 -0.6223  0.0869 -0.6661
12080SOL    HW138247   1.695   2.407  10.039  0.8115 -0.7830 -1.1709
12080SOL    HW238248   1.676   2.495   9.917  0.6029 -0.0784 -0.6290
12081SOL     OW38249   4.460   2.142   9.857  0.7955  0.0917  0.2858
12081SOL    HW138250   4.473   2.233   9.882  0.7443 -0.3034  1.8817
12081SOL    HW238251   4.422   2.146   9.769 -0.7476  1.6669  0.9695
12082SOL     OW38252  10.743   7.505   6.979  1.0008 -0.4852  0.7060
12082SOL    HW138253  10.824   7.553   6.960  0.4934 -0.3536 -1.4484
12082SOL    HW238254  10.675   7.558   6.938 -0.5213  0.3727  3.9766
12083SOL     OW38255   2.223   9.367   3.186  0.3208 -0.0721  0.7934
12083SOL    HW138256   2.210   9.316   3.267 -0.8383  0.9297  1.2512
12083SOL    HW238257   2.214   9.458   3.213  2.8687  0.4758  0.0764
12084SOL     OW38258   4.641   2.930   6.901 -0.1277  0.2022 -0.2661
12084SOL    HW138259   4.651   2.956   6.992  1.1732 -1.4840  0.1240
12084SOL    HW238260   4.589   2.849   6.905  1.2981 -0.7886 -0.8303
12085SOL     OW38261   6.685   6.067   1.218 -0.5904 -0.0860 -0.0819
12085SOL    HW138262   6.701   6.117   1.138  1.2713  1.2074  1.0296
12085SOL    HW238263   6.760   6.009   1.226 -0.7072 -0.1329  0.7613
12086SOL     OW38264   2.122   6.975   1.678 -0.0899  0.5321  0.4903
12086SOL    HW138265   2.136   7.051   1.622  0.0045  0.9801  1.1104
12086SOL    HW238266   2.144   6.900   1.623 -1.8662  0.8261 -0.7013
12087SOL     OW38267   4.468   2.894  10.158  0.5292 -0.0354 -0.0667
12087SOL    HW138268   4.427   2.842  10.227 -0.2198 -2.6220 -2.2813
12087SOL    HW238269   4.395   2.926  10.105  1.1108 -1.4298 -1.8408
12088SOL     OW38270   2.757   5.558  10.080 -0.0175  0.0348 -0.5951
12088SOL    HW138271   2.674   5.539  10.037 -0.5968  0.2152  0.3961
12088SOL    HW238272   2.737   5.632  10.138  0.8322  0.0718 -0.3399
12089SOL     OW38273   9.821   8.244   2.731 -0.8187 -0.7417  0.4106
12089SOL    HW138274   9.767   8.233   2.652 -0.6577  0.9665  0.0178
12089SOL    HW238275   9.910   8.221   2.702 -0.5579  0.9628 -0.2654
12090SOL     OW38276   9.006   3.777   6.936 -0.8218 -0.1631  0.8101
12090SOL    HW138277   9.096   3.806   6.927 -1.2500  0.9332 -0.2438
12090SOL    HW238278   9.011   3.700   6.992  0.5207  1.2544  2.8048
12091SOL     OW38279   9.446   4.021   7.216  0.1520  0.3038 -0.5773
12091SOL    HW138280   9.476   3.938   7.253  1.0344  1.2349  0.8596
12091SOL    HW238281   9.453   4.084   7.287  0.6359  1.8954 -1.9601
12092SOL     OW38282   0.972   7.799   7.735 -0.3149 -0.4770 -0.4802
12092SOL    HW138283   1.039   7.801   7.803 -1.2109  0.0575  0.3916
12092SOL    HW238284   0.951   7.891   7.719  0.7945 -0.4863 -2.4257
12093SOL     OW38285   9.146   6.499  11.067 -0.0420 -0.3039 -0.3209
12093SOL    HW138286   9.174   6.520  10.977  0.1053 -0.0004 -0.2048
12093SOL    HW238287   9.177   6.572  11.119 -2.4412  0.8620 -0.4193
12094SOL     OW38288   5.021   5.109   7.873  0.1750  0.0049 -0.3318
12094SOL    HW138289   4.982   5.044   7.814 -0.3080  0.7684 -0.8838
12094SOL    HW238290   4.984   5.089   7.959 -1.2770  0.5423 -0.7963
12095SOL     OW38291   1.298   0.741   7.884  0.9175  0.2545 -0.5324
12095SOL    HW138292   1.388   0.738   7.852  1.1697  0.5103  0.1387
12095SOL    HW238293   1.252   0.797   7.821  1.3627  0.5957 -0.5594
12096SOL     OW38294   1.690   3.486   8.398 -0.6677 -0.1278  0.5255
12096SOL    HW138295   1.622   3.446   8.344 -0.2166  1.1855 -1.1133
12096SOL    HW238296   1.748   3.414   8.421 -0.4040 -0.6224 -1.5075
12097SOL     OW38297   2.611   5.919   9.464  0.1041 -0.2444 -0.0625
12097SOL    HW138298   2.547   5.868   9.413 -0.5025  0.4019  0.0280
12097SOL    HW238299   2.685   5.930   9.405 -0.5392  0.3883 -0.7793
12098SOL     OW38300   8.646   5.667   7.783  0.7582  0.0692 -0.1977
12098SOL    HW138301   8.695   5.675   7.701  0.3890 -2.5635 -0.7518
12098SOL    HW238302   8.713   5.650   7.850  1.2012  3.4365  0.4156
12099SOL     OW38303   3.876   3.500   9.975  0.4672 -0.4478  0.2482
12099SOL    HW138304   3.783   3.514   9.995  0.7892  1.2044  0.7309
12099SOL    HW238305   3.877   3.423   9.918 -1.2091 -0.3820  0.0837
12100SOL     OW38306   2.483   6.733   7.515  0.1868 -0.3382 -0.1407
12100SOL    HW138307   2.506   6.744   7.607 -2.2235 -2.4149  0.8292
12100SOL    HW238308   2.561   6.694   7.475  1.2705  0.5951  0.9890
12101SOL     OW38309   3.949   7.091   0.128 -0.1805 -0.3310  0.5407
12101SOL    HW138310   4.017   7.065   0.065 -0.2576  1.4126 -0.3337
12101SOL    HW238311   3.941   7.186   0.115 -1.0179 -0.1219  2.3982
12102SOL     OW38312   4.431   7.174   2.355  0.1269 -0.3705 -0.1335
12102SOL    HW138313   4.489   7.131   2.292  0.0903 -0.9874  0.2452
12102SOL    HW238314   4.378   7.103   2.391 -2.4297  0.4137 -2.0304
12103SOL     OW38315   9.585   5.160   8.713 -0.0926 -0.3748 -0.1480
12103SOL    HW138316   9.529   5.236   8.733  0.0966  0.7638 -3.4036
12103SOL    HW238317   9.530   5.103   8.659  0.7881 -0.9887 -0.4084
12104SOL     OW38318   3.806   4.119   5.297  0.3498 -0.3194  0.0035
12104SOL    HW138319   3.769   4.032   5.310 -0.5528  0.1537  0.6681
12104SOL    HW238320   3.736   4.179   5.321  0.9309  0.6005 -0.5354
12105SOL     OW38321   7.940   6.873   7.795  0.3976  0.4374  0.3768
12105SOL    HW138322   7.976   6.825   7.721 -0.3462  1.1389 -0.4608
12105SOL    HW238323   7.874   6.814   7.831  0.1127  0.4692 -0.0910
12106SOL     OW38324   8.476   0.500   1.598 -0.3672  0.5066  0.1292
12106SOL    HW138325   8.545   0.526   1.537 -0.3499  0.6210  0.1974
12106SOL    HW238326   8.416   0.448   1.545 -0.7459  1.2248 -0.1737
12107SOL     OW38327   0.434   9.644   1.781  0.8891  0.2437 -0.2083
12107SOL    HW138328   0.461   9.651   1.689  0.0990 -1.2499 -0.5794
12107SOL    HW238329   0.407   9.553   1.792 -0.5614  0.7876  1.0843
12108SOL     OW38330   5.627   8.624  10.287  0.5682 -0.2699 -0.3791
12108SOL    HW138331   5.561   8.690  10.308 -0.5961 -1.0858 -1.3271
12108SOL    HW238332   5.633   8.625  10.192 -0.6286 -2.5359 -0.5629
12109SOL     OW38333   2.731   6.348  10.790  0.0148  0.0215 -0.5666
12109SOL    HW138334   2.667   6.415  10.766 -1.3876 -1.3248 -0.7328
12109SOL    HW238335   2.764   6.376  10.876  2.0663  2.7302 -2.0851
12110SOL     OW38336   5.029   3.607   9.195  0.2084 -0.1605 -0.2802
12110SOL    HW138337   4.954   3.579   9.143 -0.0174 -1.0194  0.4737
12110SOL    HW238338   5.063   3.526   9.233 -1.1592  0.5908  2.8804
12111SOL     OW38339   2.903   1.999  10.503  0.1669 -0.4166 -0.4559
12111SOL    HW138340   2.867   2.006  10.591  2.1279  1.1565  0.3117
12111SOL    HW238341   2.931   1.908  10.495  0.1679 -0.5170  0.6426
12112SOL     OW38342   0.378   4.839   0.359 -0.1839  0.3825 -0.1604
12112SOL    HW138343   0.347   4.851   0.269  0.3926  0.2307 -0.3805
12112SOL    HW238344   0.351   4.750   0.382 -1.1506  0.7437  0.1514
12113SOL     OW38345   1.057   3.854   2.959  0.0246  0.1902  0.2646
12113SOL    HW138346   1.090   3.771   2.993 -0.7173 -1.5537 -2.8572
12113SOL    HW238347   1.043   3.908   3.036 -0.5190 -2.9758  2.5720
12114SOL     OW38348   5.952  10.564   9.398  0.1585 -0.0871  0.2512
12114SOL    HW138349   5.898  10.492   9.369 -1.2337  0.9695  0.1136
12114SOL    HW238350   6.014  10.579   9.327  1.3178 -1.9281  0.8169
12115SOL     OW38351   7.278   6.288   8.954 -0.0165  0.2733  0.1490
12115SOL    HW138352   7.271   6.350   9.026 -1.8076  1.4553 -0.9620
12115SOL    HW238353   7.282   6.202   8.997 -3.3144  0.7574  1.7051
12116SOL     OW38354   2.214   4.909   9.547  0.1948  0.3707  0.2929
12116SOL    HW138355   2.240   4.832   9.598 -0.3375  0.1154  0.1885
12116SOL    HW238356   2.239   4.983   9.602  0.0927  0.1088  0.7022
12117SOL     OW38357   0.140   7.891   5.895 -0.4855 -0.2036  0.6251
12117SOL    HW138358   0.214   7.833   5.875  0.7742  1.0142  1.6120
12117SOL    HW238359   0.106   7.917   5.809  2.7657  2.3642 -0.0381
12118SOL     OW38360   2.953   8.186   2.272 -0.0557  0.5886  0.1415
12118SOL    HW138361   2.923   8.265   2.227  1.0831  1.3338  0.6319
12118SOL    HW238362   3.048   8.199   2.281  0.1256 -0.7860  0.3369
12119SOL     OW38363   0.456   0.667   8.506 -0.2826  0.1438 -0.0212
12119SOL    HW138364   0.417   0.654   8.420  0.5460 -0.2465 -0.3537
12119SOL    HW238365   0.524   0.732   8.492 -0.3098  0.2626  0.3865
12120SOL     OW38366   1.946   3.221   6.258 -0.2729 -0.7755 -0.5170
12120SOL    HW138367   1.977   3.139   6.296  2.2509 -1.0693 -2.8986
12120SOL    HW238368   1.895   3.194   6.182  1.9075 -0.2519 -2.2657
12121SOL     OW38369   5.999   8.966  10.586 -0.6997 -0.3610 -0.3530
12121SOL    HW138370   6.011   8.880  10.626 -2.1923 -0.4601 -0.0627
12121SOL    HW238371   6.044   9.027  10.646 -2.1534 -0.6089  1.0663
12122SOL     OW38372   3.053   2.588   0.230  0.5267  0.1022 -0.9275
12122SOL    HW138373   3.119   2.656   0.238  1.0814 -0.4195 -0.9758
12122SOL    HW238374   3.072   2.527   0.302 -1.4422  1.2131  0.6066
12123SOL     OW38375   3.193   9.991   7.571  0.1541  0.6488 -0.0971
12123SOL    HW138376   3.233   9.915   7.529 -0.2859  1.0095 -1.2343
12123SOL    HW238377   3.140   9.954   7.642 -1.5561 -0.3548 -1.7680
12124SOL     OW38378   3.550   9.398   8.814  0.2387  0.4802  0.4626
12124SOL    HW138379   3.476   9.379   8.756  1.3910  0.4049 -1.0311
12124SOL    HW238380   3.514   9.459   8.880 -2.2716 -2.8636  2.4820
12125SOL     OW38381   1.954   8.341   9.561  0.6543  0.0714 -0.0939
12125SOL    HW138382   2.026   8.370   9.505  1.3360 -1.3739 -0.0121
12125SOL    HW238383   1.989   8.347   9.650  0.8224 -0.9762 -0.0762
12126SOL     OW38384   5.081  10.988   7.622 -0.3874  0.2695  0.4864
12126SOL    HW138385   5.020  11.008   7.693  0.2547 -0.3105  1.2297
12126SOL    HW238386   5.042  10.914   7.576 -0.2789 -0.0739  0.9350
12127SOL     OW38387   0.043   6.058   6.840 -0.2343 -0.1296  0.6388
12127SOL    HW138388   0.004   5.988   6.788 -0.5383  1.0110 -0.7293
12127SOL    HW238389   0.024   6.034   6.931 -1.1426 -1.3235  0.1555
12128SOL     OW38390   0.630   8.828   7.281  0.0040 -0.2715 -0.1591
12128SOL    HW138391   0.634   8.759   7.348 -0.0552 -0.2570 -0.1410
12128SOL    HW238392   0.661   8.785   7.201 -0.2957 -0.3942 -0.2094
12129SOL     OW38393   2.248   5.165   5.097 -0.6202  0.2029 -0.0694
12129SOL    HW138394   2.240   5.091   5.158  1.9679 -0.7736 -0.7819
12129SOL    HW238395   2.217   5.131   5.014  1.3139 -0.4117 -0.5830
12130SOL     OW38396   8.685   9.203  11.042  0.1894 -0.1534 -0.4190
12130SOL    HW138397   8.675   9.297  11.032  2.1496  0.5988  3.1286
12130SOL    HW238398   8.725   9.174  10.961 -0.6901  1.9899 -1.6958
12131SOL     OW38399   5.129   0.562   3.676  0.2861  0.2743 -0.1177
12131SOL    HW138400   5.105   0.639   3.624 -1.4573 -0.1935 -0.0652
12131SOL    HW238401   5.191   0.596   3.741 -1.4962  1.9701  0.7969
12132SOL     OW38402   5.792   3.258   6.315 -0.1911  0.1006 -0.5689
12132SOL    HW138403   5.761   3.348   6.309  0.8792  0.5610  0.4393
12132SOL    HW238404   5.872   3.256   6.262  0.0579 -0.1205 -0.1883
12133SOL     OW38405   5.473   1.334   7.762  0.5020  0.2625 -0.1028
12133SOL    HW138406   5.434   1.309   7.846 -0.2989 -1.9522 -1.0729
12133SOL    HW238407   5.556   1.287   7.759  2.0806  2.8036  0.7429
12134SOL     OW38408   5.552   8.419   1.684 -0.1322 -0.4413 -0.6212
12134SOL    HW138409   5.519   8.339   1.643  0.7335 -0.0691 -2.1544
12134SOL    HW238410   5.491   8.488   1.656 -0.2108 -0.3714 -0.2849
12135SOL     OW38411   8.166   5.111   6.918  0.3423 -0.8815 -0.0910
12135SOL    HW138412   8.089   5.101   6.975 -0.9796  4.0117 -0.5705
12135SOL    HW238413   8.147   5.055   6.842 -1.3152 -1.9800  1.0571
12136SOL     OW38414   4.830   0.810   8.680  0.3739  0.2899 -0.3214
12136SOL    HW138415   4.798   0.720   8.687  1.5943 -0.0355  2.8666
12136SOL    HW238416   4.755   0.864   8.705  0.8281 -0.2055  2.4271
12137SOL     OW38417   2.608   9.081   9.047 -0.2376  0.0126  0.5602
12137SOL    HW138418   2.598   9.095   9.141  0.7272 -0.2717  0.7155
12137SOL    HW238419   2.524   9.107   9.010 -0.6129  0.1693  1.4942
12138SOL     OW38420   1.035  10.045   4.839 -0.7022  0.1167  0.0055
12138SOL    HW138421   1.110  10.079   4.790 -0.3239 -1.6446 -0.7220
12138SOL    HW238422   1.021  10.109   4.909  1.6665  0.3705  0.3344
12139SOL     OW38423   1.778   5.082   0.483  0.0632  0.0875 -0.0034
12139SOL    HW138424   1.745   5.038   0.561 -2.1659  0.7501 -0.5037
12139SOL    HW238425   1.739   5.034   0.410  0.5789  0.6503 -0.6601
12140SOL     OW38426   0.519   6.721   5.483  0.0169 -0.1423  0.3663
12140SOL    HW138427   0.472   6.764   5.555 -0.7447 -1.3165  0.6029
12140SOL    HW238428   0.533   6.791   5.419  2.1735  1.3581  2.2744
12141SOL     OW38429   5.591   4.213   2.538 -0.2812 -0.5314 -0.0976
12141SOL    HW138430   5.563   4.238   2.626 -1.0599  0.4661 -0.6133
12141SOL    HW238431   5.595   4.117   2.541 -1.0375 -0.5541  0.8027
12142SOL     OW38432   0.552   5.499   1.859  0.1568  0.1183  0.1660
12142SOL    HW138433   0.588   5.584   1.885 -1.2096  0.5333  0.8538
12142SOL    HW238434   0.461   5.502   1.891  0.5250 -2.2165  1.6492
12143SOL     OW38435   7.066   5.372   7.027 -0.0821 -0.2089  0.2179
12143SOL    HW138436   7.039   5.432   6.957  1.3851  0.3078  0.0524
12143SOL    HW238437   6.998   5.380   7.093  0.4122  2.2532  0.5357
12144SOL     OW38438   3.603  10.879   4.480  0.0633 -0.6987 -0.7108
12144SOL    HW138439   3.644  10.857   4.563  0.3494 -0.3624 -0.7583
12144SOL    HW238440   3.579  10.795   4.442 -1.1837 -0.8058  0.2632
12145SOL     OW38441   8.230   8.346   7.526 -0.1823  0.6517  0.2875
12145SOL    HW138442   8.168   8.386   7.465 -1.1834  0.1969  0.9890
12145SOL    HW238443   8.257   8.419   7.583 -1.6695  0.4708  1.2845
12146SOL     OW38444   6.355   8.276   1.302 -0.0807  0.6173  0.9668
12146SOL    HW138445   6.372   8.330   1.380 -0.3122  0.9993  0.7593
12146SOL    HW238446   6.307   8.335   1.243  0.4007  0.4375  0.3936
12147SOL     OW38447   7.720   4.382  11.023 -0.0030  0.1566 -0.6305
12147SOL    HW138448   7.676   4.349  11.101 -1.0453  0.4288 -1.0898
12147SOL    HW238449   7.698   4.319  10.955 -2.3617  1.9121 -1.6272
12148SOL     OW38450   2.616  10.631   7.383 -0.0793 -0.1201  0.5108
12148SOL    HW138451   2.607  10.535   7.389  0.1990 -0.0591  2.2077
12148SOL    HW238452   2.529  10.664   7.407 -0.4741  0.0542 -1.0677
12149SOL     OW38453   1.332   5.105   6.114  0.4992 -0.6202  0.3055
12149SOL    HW138454   1.399   5.169   6.092 -0.7028  0.7367  0.4754
12149SOL    HW238455   1.252   5.156   6.125 -1.0489 -2.3427 -1.8081
12150SOL     OW38456   1.320   4.090   1.997 -0.2009  0.1625  0.2752
12150SOL    HW138457   1.298   4.009   1.951  0.6774 -0.8548  1.5893
12150SOL    HW238458   1.359   4.146   1.929 -5.4384  1.7058 -2.0104
12151SOL     OW38459   8.519   5.136   7.029  0.2454  0.1318 -0.2691
12151SOL    HW138460   8.521   5.044   7.005  0.8015  0.4648 -1.5475
12151SOL    HW238461   8.541   5.136   7.123 -0.9789 -1.1055  0.0453
12152SOL     OW38462   8.840   9.516   0.329 -0.0371  0.6059  0.2783
12152SOL    HW138463   8.921   9.536   0.374  0.4557  1.6654 -1.0031
12152SOL    HW238464   8.862   9.520   0.236 -1.4080  0.2938 -0.0937
12153SOL     OW38465   9.710   1.122   5.921  0.0765 -0.7053 -0.4836
12153SOL    HW138466   9.704   1.217   5.910  0.8090 -0.6497 -0.4611
12153SOL    HW238467   9.791   1.098   5.876 -0.8776 -1.5292 -1.7992
12154SOL     OW38468   1.197   0.012   5.756 -0.3848 -0.6149 -0.0348
12154SOL    HW138469   1.273  -0.044   5.764 -0.3919 -0.8238 -1.2793
12154SOL    HW238470   1.222   0.093   5.800 -0.0857 -1.2725  1.0624
12155SOL     OW38471   2.802   5.293   7.735  0.1785 -0.3500  0.4773
12155SOL    HW138472   2.752   5.374   7.733 -0.6675 -0.8393  1.2088
12155SOL    HW238473   2.836   5.288   7.824  1.1881 -0.2467  0.1165
12156SOL     OW38474   4.211   9.398   7.443 -0.1591 -0.2392  0.0912
12156SOL    HW138475   4.186   9.325   7.387 -1.1860  0.4789 -0.4177
12156SOL    HW238476   4.260   9.358   7.515 -1.1603 -1.4889  0.1015
12157SOL     OW38477  10.616   2.197  10.164 -0.8473 -0.5668  0.2887
12157SOL    HW138478  10.562   2.186  10.242 -0.2324 -2.0115  0.5470
12157SOL    HW238479  10.555   2.230  10.097 -1.4065  0.5461  1.3126
12158SOL     OW38480   7.188   7.480   6.081  0.0355 -0.0703 -0.4962
12158SOL    HW138481   7.201   7.386   6.067  0.2128 -0.2218  0.6097
12158SOL    HW238482   7.232   7.498   6.164  0.0330  1.0031 -0.7145
12159SOL     OW38483   3.787   0.075   6.161  0.2128 -0.4562 -0.3142
12159SOL    HW138484   3.880   0.079   6.185  0.0549  2.5120  0.2889
12159SOL    HW238485   3.744   0.039   6.239  0.6757  0.1522  0.2366
12160SOL     OW38486   6.427   5.753   6.616 -0.2990 -0.0713  0.3166
12160SOL    HW138487   6.443   5.814   6.688  2.0274  0.1225 -0.2562
12160SOL    HW238488   6.361   5.797   6.562  3.5581  3.8846 -1.8933
12161SOL     OW38489  10.473   5.146   5.222 -0.5454  0.0961 -0.0847
12161SOL    HW138490  10.441   5.105   5.141 -0.6254 -0.0942  0.0431
12161SOL    HW238491  10.568   5.136   5.218 -0.3211  2.0712 -1.2442
12162SOL     OW38492   7.417   9.102   3.506 -0.3974 -0.0086  0.3573
12162SOL    HW138493   7.414   9.008   3.490  0.9413 -0.2459  1.2874
12162SOL    HW238494   7.381   9.142   3.427 -0.3115 -1.2766 -0.3368
12163SOL     OW38495   3.137   0.843   1.435 -0.1430 -0.4256 -0.0199
12163SOL    HW138496   3.161   0.920   1.486  1.8066 -0.6485 -0.5556
12163SOL    HW238497   3.209   0.831   1.374 -0.2464 -2.8512  0.2467
12164SOL     OW38498   2.570   1.548   6.634 -0.2230 -0.4587 -0.3323
12164SOL    HW138499   2.495   1.489   6.635 -0.6365  0.0583 -0.4215
12164SOL    HW238500   2.630   1.509   6.571 -0.8478 -0.3634 -1.0083
12165SOL     OW38501   4.581   9.093   2.154 -0.5505  0.4889 -0.0656
12165SOL    HW138502   4.630   9.065   2.077 -0.5932  1.0916 -0.3178
12165SOL    HW238503   4.614   9.181   2.172  0.4494 -0.1394  1.4283
12166SOL     OW38504  10.623  10.094   9.237  0.0038 -0.8681  0.2132
12166SOL    HW138505  10.600  10.184   9.213  1.5510 -1.0420 -2.3089
12166SOL    HW238506  10.692  10.103   9.302  0.3504 -0.2139 -0.2348
12167SOL     OW38507   2.777  10.661   9.720  0.3053  0.2765 -0.1654
12167SOL    HW138508   2.727  10.636   9.798 -1.7226  0.7595 -1.2248
12167SOL    HW238509   2.858  10.612   9.726 -0.3178 -0.6098  1.6381
12168SOL     OW38510   4.654   6.881   8.704  0.1216  0.3757 -0.4578
12168SOL    HW138511   4.634   6.863   8.796  0.1288  1.4938 -0.2238
12168SOL    HW238512   4.746   6.907   8.704  0.0800  0.5233 -0.7659
12169SOL     OW38513   0.441   5.956  10.243 -0.3053 -0.1765 -0.0434
12169SOL    HW138514   0.460   5.888  10.307  1.2579 -0.7323 -1.0105
12169SOL    HW238515   0.388   5.912  10.176 -1.0044  0.1050  0.3234
12170SOL     OW38516   6.408   2.273   7.757 -0.4807  1.0613 -0.0004
12170SOL    HW138517   6.495   2.271   7.716 -1.8496 -0.6218 -3.1737
12170SOL    HW238518   6.416   2.214   7.832  1.0110  0.5713 -0.5105
12171SOL     OW38519   2.375   0.890   2.659  0.2098  0.2452 -1.0847
12171SOL    HW138520   2.361   0.984   2.652 -0.0893  0.3065  0.1561
12171SOL    HW238521   2.327   0.864   2.738  0.2160 -0.9630 -1.4526
12172SOL     OW38522   9.400   6.406  10.862  0.1551  0.1850 -0.3315
12172SOL    HW138523   9.376   6.499  10.860  1.3393  0.5005 -1.5237
12172SOL    HW238524   9.445   6.391  10.778 -1.5044 -1.8902 -0.9311
12173SOL     OW38525   1.740   6.836   5.621  0.0572 -0.2376  0.6537
12173SOL    HW138526   1.645   6.844   5.631  0.1227  0.4366  0.7972
12173SOL    HW238527   1.752   6.766   5.557 -0.5273 -0.5900  0.9214
12174SOL     OW38528   3.601   8.147  10.071 -0.4047 -0.2806  0.6715
12174SOL    HW138529   3.649   8.230  10.065  0.5717 -0.6129  2.8366
12174SOL    HW238530   3.509   8.172  10.072 -0.2058  0.5998 -0.6548
12175SOL     OW38531  10.978   5.549   7.442  0.1488  0.1164  0.3286
12175SOL    HW138532  11.043   5.498   7.393  0.3486  2.0027 -1.5036
12175SOL    HW238533  11.014   5.638   7.444 -1.1400  0.6461  1.6285
12176SOL     OW38534   7.392   5.548   7.570  0.0159 -0.3404  0.5217
12176SOL    HW138535   7.305   5.515   7.593 -0.0500  0.4491  1.4715
12176SOL    HW238536   7.405   5.520   7.479 -0.6989 -1.5460  0.7752
12177SOL     OW38537   4.305   8.915   2.429 -0.0714 -0.5148 -0.0113
12177SOL    HW138538   4.217   8.947   2.449  0.3293 -0.4058  1.7540
12177SOL    HW238539   4.308   8.827   2.466  0.6613 -0.3966  0.2271
12178SOL     OW38540   7.430   7.841   9.943  0.3385 -0.1090  0.1930
12178SOL    HW138541   7.418   7.884  10.028 -1.5551 -0.2035  0.0092
12178SOL    HW238542   7.442   7.748   9.965 -0.7709 -0.2265  0.3467
12179SOL     OW38543   5.227   6.930  10.635 -0.1386  0.1151 -0.1930
12179SOL    HW138544   5.204   6.943  10.543 -0.6963 -0.7094 -0.1781
12179SOL    HW238545   5.146   6.947  10.682  0.0021 -0.0327  0.1031
12180SOL     OW38546   9.241  10.857   6.294 -0.5627  0.4124 -0.0837
12180SOL    HW138547   9.250  10.952   6.298 -0.5943  0.4803 -1.1430
12180SOL    HW238548   9.226  10.839   6.201  1.0768 -0.7727 -0.1561
12181SOL     OW38549   7.531   6.155   6.316  0.2958 -0.0294 -0.4700
12181SOL    HW138550   7.537   6.244   6.282  0.1277 -0.2964 -1.2051
12181SOL    HW238551   7.439   6.142   6.336  0.7641  1.2785  3.2886
12182SOL     OW38552   0.126   0.230   8.402  0.0353 -0.3997 -0.2105
12182SOL    HW138553   0.083   0.315   8.403 -1.8995 -1.3185 -0.2759
12182SOL    HW238554   0.153   0.217   8.311 -0.9458 -0.4217 -0.5169
12183SOL     OW38555   1.597  10.792   8.142 -0.2690  0.4872 -0.2010
12183SOL    HW138556   1.596  10.762   8.233 -0.6029 -0.2263 -0.4289
12183SOL    HW238557   1.554  10.721   8.093  0.4403  0.5946 -0.9982
12184SOL     OW38558   0.811   5.745   1.837  0.3731  0.1244  0.3407
12184SOL    HW138559   0.816   5.832   1.877 -1.2072  0.0509  0.7966
12184SOL    HW238560   0.873   5.692   1.886 -0.3660  0.4357  1.6594
12185SOL     OW38561   6.257   8.218   9.079  0.5118  0.0093 -0.5883
12185SOL    HW138562   6.223   8.163   9.008 -1.1041  0.4215 -0.1808
12185SOL    HW238563   6.350   8.196   9.084  0.6853 -0.0308 -2.8148
12186SOL     OW38564   0.928   0.983   7.726 -0.0053  0.8025  0.5776
12186SOL    HW138565   0.888   1.050   7.781 -1.6114  0.2644  0.0953
12186SOL    HW238566   0.883   0.902   7.748 -0.1123  0.4240 -0.9277
12187SOL     OW38567   9.783   9.598   0.034 -0.0516 -0.2199  0.3768
12187SOL    HW138568   9.790   9.510  -0.002  0.7652 -0.1702  0.3986
12187SOL    HW238569   9.741   9.586   0.119  0.6709 -0.6654  0.6748
12188SOL     OW38570   6.338   1.913   1.327  0.3590  0.5108 -0.1896
12188SOL    HW138571   6.342   1.934   1.233  1.3036 -1.4847 -0.6681
12188SOL    HW238572   6.292   1.986   1.366 -0.5038  1.1843 -2.2998
12189SOL     OW38573   0.342   9.904   8.051  0.0086  0.1273 -0.0978
12189SOL    HW138574   0.386   9.988   8.042 -0.2060  0.2019 -0.4745
12189SOL    HW238575   0.350   9.863   7.965  0.1559 -0.2598  0.0974
12190SOL     OW38576   9.686   5.053   9.191  0.0385 -0.5950  0.2519
12190SOL    HW138577   9.625   5.073   9.262  0.1687  0.3039  0.1211
12190SOL    HW238578   9.630   5.045   9.113  0.0728  0.2345  0.1311
12191SOL     OW38579  10.773   7.259   8.392  0.1254  0.0647 -0.2601
12191SOL    HW138580  10.684   7.258   8.357  0.3553  0.6617 -0.8726
12191SOL    HW238581  10.785   7.171   8.429 -0.9034  0.1488  0.3084
12192SOL     OW38582   2.916   9.505   0.723 -0.1813 -0.3443  0.0741
12192SOL    HW138583   2.937   9.509   0.816 -2.6234  2.8380  0.6513
12192SOL    HW238584   2.850   9.436   0.717 -1.5867  0.8389  1.1655
12193SOL     OW38585   1.993   7.490   4.964  0.1015  0.2638 -0.2931
12193SOL    HW138586   2.011   7.445   5.047 -2.0499 -0.1280  0.0189
12193SOL    HW238587   2.076   7.531   4.941  1.2580 -1.1628  1.0895
12194SOL     OW38588   4.352  10.189   2.174 -0.4037  0.3951 -0.5376
12194SOL    HW138589   4.403  10.268   2.189 -0.1777  0.1309  0.1416
12194SOL    HW238590   4.365  10.136   2.253  0.7219 -1.0231 -1.6040
12195SOL     OW38591   4.231   3.943   3.987  0.1423 -0.2920 -0.6829
12195SOL    HW138592   4.166   3.883   3.950 -0.5214 -0.6412  0.9795
12195SOL    HW238593   4.180   4.019   4.015  0.6007 -0.1153 -0.3114
12196SOL     OW38594   0.906   7.767   3.758  0.3125 -0.2369  0.6263
12196SOL    HW138595   0.994   7.788   3.789  0.3750 -0.1696  0.4039
12196SOL    HW238596   0.914   7.677   3.724  0.2533 -0.2962  0.7667
12197SOL     OW38597   0.731   3.586   4.186  1.0117  0.2563 -0.9559
12197SOL    HW138598   0.803   3.604   4.127  1.2414  0.3446 -0.6520
12197SOL    HW238599   0.675   3.664   4.180  0.3187 -0.3048 -2.0819
12198SOL     OW38600   2.834   1.224   9.299 -0.0872  0.4325 -0.0861
12198SOL    HW138601   2.883   1.306   9.290 -0.2890  0.5154 -0.4061
12198SOL    HW238602   2.803   1.204   9.211  0.0209 -0.0280 -0.0247
12199SOL     OW38603   2.588   4.744   6.624  0.1805 -0.2122  0.4147
12199SOL    HW138604   2.650   4.808   6.658 -0.4440  0.0366  1.1227
12199SOL    HW238605   2.529   4.727   6.698 -0.3622 -0.7205 -0.1284
12200SOL     OW38606   7.576   7.035   8.590  0.1329  0.1007  0.3475
12200SOL    HW138607   7.563   7.064   8.680  0.0968 -0.9190  0.6838
12200SOL    HW238608   7.638   6.963   8.597 -0.6796 -0.6856 -0.3223
12201SOL     OW38609  10.778  10.815   2.027 -0.2164  0.4659 -0.5505
12201SOL    HW138610  10.772  10.866   1.946  1.1015 -0.0750 -1.0193
12201SOL    HW238611  10.770  10.880   2.097  0.4990  1.2128 -1.1365
12202SOL     OW38612   8.009   3.716   7.955 -0.2618 -0.6613  0.0441
12202SOL    HW138613   8.043   3.707   7.866  1.3469  1.9970  0.2971
12202SOL    HW238614   8.087   3.709   8.011 -0.7946  0.7799  1.0125
12203SOL     OW38615   1.674   2.962   1.042 -0.6070 -0.8460 -0.9668
12203SOL    HW138616   1.690   2.974   0.949  0.6452 -1.6003 -0.8687
12203SOL    HW238617   1.725   2.885   1.066  2.6569  1.6692  1.1834
12204SOL     OW38618   5.035   6.044   1.652 -0.2038  0.0684 -0.1338
12204SOL    HW138619   5.007   6.010   1.737  0.7574 -2.0264 -0.5746
12204SOL    HW238620   5.030   6.139   1.661  0.2230 -0.0716  2.3809
12205SOL     OW38621   7.226   5.767   7.460  0.1073  0.4565  0.1724
12205SOL    HW138622   7.172   5.703   7.412  0.1674  2.0132 -2.1199
12205SOL    HW238623   7.314   5.729   7.459  0.1076  0.4291 -0.9984
12206SOL     OW38624   0.201   8.607   9.950 -0.4805 -0.2600 -0.3985
12206SOL    HW138625   0.169   8.698   9.954  2.5944  0.9494 -0.2394
12206SOL    HW238626   0.206   8.579  10.041 -1.1518 -0.5150 -0.4329
12207SOL     OW38627   1.623   5.436   8.528  0.1290 -0.0699 -0.1747
12207SOL    HW138628   1.699   5.476   8.569  0.9117 -0.3710 -1.2824
12207SOL    HW238629   1.548   5.483   8.565  0.8788  0.6486  0.4742
12208SOL     OW38630   0.665   8.677   7.066 -0.0987  0.0264  0.7832
12208SOL    HW138631   0.634   8.598   7.110  0.0610 -0.6555 -0.2905
12208SOL    HW238632   0.634   8.668   6.976  0.8810  0.6370  0.3689
12209SOL     OW38633   1.390   8.057   6.970  0.4116  0.5674  0.5473
12209SOL    HW138634   1.460   8.122   6.962  0.6729  0.3645  1.1386
12209SOL    HW238635   1.309   8.107   6.957  0.6777  0.7116 -0.6696
12210SOL     OW38636   1.313   1.042   3.818  0.3810  0.4450  0.3038
12210SOL    HW138637   1.354   1.128   3.810  0.3203  0.4214 -0.2589
12210SOL    HW238638   1.266   1.029   3.736  1.3280 -0.6149 -0.0998
12211SOL     OW38639   2.554   1.979   5.148 -0.3676  0.7827 -0.0237
12211SOL    HW138640   2.548   2.007   5.239 -1.1489  0.3485  0.0695
12211SOL    HW238641   2.489   1.909   5.140 -0.2558  0.7637 -0.8987
12212SOL     OW38642   3.196   2.895   9.961  0.2838  0.2938 -0.0185
12212SOL    HW138643   3.189   2.845   9.879  1.3027  1.1213 -0.6403
12212SOL    HW238644   3.140   2.848  10.023  0.4784 -1.0694 -0.8352
12213SOL     OW38645   3.907   1.794  10.170 -0.2261  0.4976  0.2968
12213SOL    HW138646   3.863   1.871  10.134 -0.4186 -0.3580 -1.3950
12213SOL    HW238647   3.991   1.790  10.125  0.3984  0.5063  1.4210
12214SOL     OW38648   9.579   7.248   5.470  0.2229  0.2977 -0.0137
12214SOL    HW138649   9.544   7.159   5.462  0.2848  0.3151 -0.5740
12214SOL    HW238650   9.538   7.284   5.548  1.0746 -0.6199  0.8901
12215SOL     OW38651   8.966   7.460   6.317  0.4697  0.3305 -0.2765
12215SOL    HW138652   8.982   7.554   6.328 -0.2916  0.5318 -0.7892
12215SOL    HW238653   8.929   7.432   6.401 -0.6059  0.7914 -0.5770
12216SOL     OW38654   0.899   6.091   1.689 -0.4745  0.0947 -0.0186
12216SOL    HW138655   0.878   6.064   1.779 -1.4091  1.4831  0.2212
12216SOL    HW238656   0.943   6.175   1.700 -3.3231  1.8721 -0.8925
12217SOL     OW38657   2.647   6.228   8.186  0.1277 -0.0191 -0.0983
12217SOL    HW138658   2.690   6.255   8.105 -0.2521  0.5897 -0.1066
12217SOL    HW238659   2.569   6.283   8.190  0.0850 -0.1311  0.6259
12218SOL     OW38660   4.224   6.505   6.298  0.2668  0.1366  0.7860
12218SOL    HW138661   4.181   6.429   6.260  1.7369 -1.0658  1.4382
12218SOL    HW238662   4.251   6.477   6.386  2.7901  0.5935  0.2577
12219SOL     OW38663   4.976   6.268   2.290  0.3368 -0.7691  0.4925
12219SOL    HW138664   5.071   6.256   2.292  0.1062 -4.1537  4.0195
12219SOL    HW238665   4.956   6.317   2.369 -0.9044 -0.5909  0.0933
12220SOL     OW38666   8.448   6.124   8.249 -0.0021 -0.8085 -0.3094
12220SOL    HW138667   8.515   6.092   8.309  0.8094 -0.4217 -0.9888
12220SOL    HW238668   8.473   6.215   8.231 -1.1586 -0.3925  0.0396
12221SOL     OW38669   7.595   2.446   8.613 -0.5671 -0.3022 -0.2524
12221SOL    HW138670   7.673   2.392   8.608 -1.2359 -1.2297 -1.3349
12221SOL    HW238671   7.537   2.411   8.545 -1.7457  0.6390  0.2188
12222SOL     OW38672  11.068   6.372   7.336 -0.3180 -0.3608  0.1074
12222SOL    HW138673  11.088   6.332   7.251 -0.2877 -1.7528  0.7402
12222SOL    HW238674  11.122   6.451   7.339  1.6674 -1.6467 -0.1092
12223SOL     OW38675   3.554   1.984   9.016 -0.0721  0.0915 -0.6462
12223SOL    HW138676   3.562   1.906   9.071  1.0024  1.7082  1.5904
12223SOL    HW238677   3.600   1.960   8.935  1.9231 -0.9689  0.7171
12224SOL     OW38678   0.622   9.510   5.033 -0.1836  0.3071  0.4833
12224SOL    HW138679   0.561   9.452   4.988 -0.0380  0.7378 -0.2954
12224SOL    HW238680   0.621   9.481   5.124 -1.9231  0.6268  0.6032
12225SOL     OW38681   0.533  10.038   9.456 -0.5230  0.0551  0.4155
12225SOL    HW138682   0.444  10.062   9.481 -0.8881 -2.6977  2.2924
12225SOL    HW238683   0.585  10.059   9.534  1.1343  4.0832 -1.5291
12226SOL     OW38684   9.318   2.002  10.449 -0.0916 -0.0599 -0.6509
12226SOL    HW138685   9.283   1.933  10.392 -0.6515 -0.7180  0.4494
12226SOL    HW238686   9.295   1.974  10.538 -0.3435  1.5554 -0.1721
12227SOL     OW38687   0.323  10.559  10.774  0.2636  0.5148 -0.1315
12227SOL    HW138688   0.344  10.653  10.770  1.0380  0.3072 -1.0802
12227SOL    HW238689   0.340  10.527  10.686  0.3729 -0.6096  0.2932
12228SOL     OW38690   4.202   2.927   6.931  0.2651 -0.4114 -0.4592
12228SOL    HW138691   4.124   2.974   6.961  0.0464  0.2055 -1.8840
12228SOL    HW238692   4.274   2.963   6.983 -0.2720 -0.3591  0.2574
12229SOL     OW38693   2.002   5.307   6.564 -0.0708 -0.0639  0.4934
12229SOL    HW138694   2.004   5.379   6.627  0.7131 -0.1507  0.5793
12229SOL    HW238695   2.094   5.281   6.554 -0.3657 -1.2903  0.7425
12230SOL     OW38696   0.005   3.190   9.238 -0.4853  0.0533 -0.4431
12230SOL    HW138697  -0.037   3.163   9.320 -0.6504 -0.9555 -0.8379
12230SOL    HW238698  -0.033   3.275   9.219 -0.8220  0.0751  0.2699
12231SOL     OW38699   7.219  10.874   2.030 -0.0327  0.3144  0.2230
12231SOL    HW138700   7.311  10.860   2.009 -0.4825  0.9696 -2.5567
12231SOL    HW238701   7.177  10.791   2.007 -0.3318  0.5089  0.0680
12232SOL     OW38702   2.360   9.025   1.587 -0.1162  0.0131 -0.2032
12232SOL    HW138703   2.403   8.958   1.640  1.8290  0.9850 -0.4725
12232SOL    HW238704   2.431   9.081   1.555 -1.4935  1.1167 -1.5281
12233SOL     OW38705   2.647   1.376   7.333  0.0362 -0.6143 -0.0382
12233SOL    HW138706   2.714   1.369   7.402  1.1789 -0.6429 -1.1135
12233SOL    HW238707   2.609   1.463   7.346  0.6578 -0.3780  0.2651
12234SOL     OW38708   8.873   9.430   3.091 -0.0213 -0.0814 -0.0707
12234SOL    HW138709   8.901   9.374   3.163  1.3740 -0.8362 -1.1411
12234SOL    HW238710   8.795   9.386   3.056  1.8936 -2.3186 -1.8388
12235SOL     OW38711   1.081   7.367   3.921 -0.2385 -0.3039 -0.0008
12235SOL    HW138712   1.162   7.317   3.911 -0.5816 -0.6441 -1.1918
12235SOL    HW238713   1.052   7.385   3.832 -1.2399  0.2174  0.4084
12236SOL     OW38714   7.101   7.166  10.368 -0.1592  0.9355  0.4948
12236SOL    HW138715   7.095   7.071  10.374 -1.0472  1.0471  1.6949
12236SOL    HW238716   7.077   7.186  10.278  0.1755  0.0177  0.1934
12237SOL     OW38717   7.980   6.660   3.496 -0.6205  0.2386  0.1721
12237SOL    HW138718   7.960   6.631   3.585 -3.2626 -2.0676 -1.0284
12237SOL    HW238719   7.912   6.725   3.477 -1.5245 -0.9773 -0.8923
12238SOL     OW38720   3.342   7.535   6.055 -0.9392 -0.5292 -0.0830
12238SOL    HW138721   3.406   7.572   5.995 -0.6353 -0.2316  0.4182
12238SOL    HW238722   3.394   7.491   6.122 -1.2030  0.7514  0.9997
12239SOL     OW38723   2.205   9.721   0.638  0.2827  0.3391 -0.3196
12239SOL    HW138724   2.234   9.707   0.548 -1.9386  0.7978 -1.1751
12239SOL    HW238725   2.270   9.781   0.675  1.1754  0.2405 -1.6495
12240SOL     OW38726   5.909   2.590   7.983  0.9560 -0.1935 -0.0791
12240SOL    HW138727   5.832   2.532   7.983  0.5356  0.3341  0.9278
12240SOL    HW238728   5.879   2.670   7.941  1.5639 -0.7049 -1.5509
12241SOL     OW38729  10.934   9.995   0.596  0.5281 -0.5262  0.2696
12241SOL    HW138730  10.982   9.938   0.536  1.1366 -0.6939  0.8955
12241SOL    HW238731  10.848  10.006   0.555  1.1121 -0.1779 -0.9028
12242SOL     OW38732   0.897   0.321   9.930 -0.2346 -0.0196  0.4251
12242SOL    HW138733   0.889   0.332  10.025 -0.4666 -1.5220  0.6016
12242SOL    HW238734   0.979   0.365   9.907 -0.6751  1.2354  1.1417
12243SOL     OW38735   3.796   7.950   9.043  0.6218  0.3466  0.0569
12243SOL    HW138736   3.782   7.873   8.987  1.9053 -0.7745  1.1969
12243SOL    HW238737   3.721   8.006   9.025  0.4720 -0.4292 -2.0083
12244SOL     OW38738   4.194   7.240   8.158 -0.3590  0.1525  0.2861
12244SOL    HW138739   4.121   7.182   8.179 -1.0719  1.1141  0.5034
12244SOL    HW238740   4.199   7.238   8.062 -1.9789  1.6211  0.1323
12245SOL     OW38741   4.609   6.265  10.091  0.4067 -0.5155 -0.1568
12245SOL    HW138742   4.534   6.287  10.036 -1.5625 -1.7332  1.8830
12245SOL    HW238743   4.617   6.170  10.084 -0.1757 -0.7620  1.8935
12246SOL     OW38744   8.447   3.850   2.409 -0.0335  0.5077 -0.3250
12246SOL    HW138745   8.364   3.812   2.437  0.2241  0.5717  0.5590
12246SOL    HW238746   8.506   3.776   2.400  0.1448  0.5779  0.2409
12247SOL     OW38747   3.155   8.950   8.440  0.3446 -0.5550  0.0481
12247SOL    HW138748   3.155   8.979   8.531 -0.5647 -0.4296  0.0224
12247SOL    HW238749   3.136   8.857   8.445  0.0546 -0.5010 -0.0189
12248SOL     OW38750   0.239   2.211   2.611 -0.3346 -0.0836  0.2967
12248SOL    HW138751   0.324   2.252   2.626  0.9027 -1.8438 -1.3338
12248SOL    HW238752   0.231   2.146   2.681  0.3728 -0.8898 -0.3451
12249SOL     OW38753   2.661   6.473   0.598 -0.0315  0.0867  0.3255
12249SOL    HW138754   2.739   6.483   0.544 -0.1043  1.6616  0.4509
12249SOL    HW238755   2.598   6.535   0.560 -1.0040 -0.6773  0.6295
12250SOL     OW38756   0.299   7.171   7.557 -0.0892  0.4572  0.2619
12250SOL    HW138757   0.342   7.239   7.505  1.3816 -2.8269 -3.2558
12250SOL    HW238758   0.369   7.135   7.612  0.1698 -0.6563 -0.7471
12251SOL     OW38759   2.164   2.505   9.592 -0.0865 -0.5379  0.2754
12251SOL    HW138760   2.202   2.555   9.665  1.0259 -0.1797 -0.5177
12251SOL    HW238761   2.089   2.460   9.630 -0.1707  0.4921  1.3917
12252SOL     OW38762   0.180   3.433  10.597  0.4764  0.3921 -0.3090
12252SOL    HW138763   0.092   3.469  10.584  0.0980 -1.1222 -2.4432
12252SOL    HW238764   0.227   3.455  10.517  2.0850  1.1684  0.7987
12253SOL     OW38765  10.167   9.190   0.331 -0.1442 -0.0964  0.1120
12253SOL    HW138766  10.096   9.154   0.384 -0.3721 -1.8838 -1.2963
12253SOL    HW238767  10.234   9.122   0.329  1.7788  1.6311  1.5707
12254SOL     OW38768  10.413   6.718   0.909 -0.2726  0.1885 -0.6347
12254SOL    HW138769  10.487   6.772   0.883  0.5931 -1.2388 -1.2219
12254SOL    HW238770  10.350   6.780   0.946  0.9780  1.4963 -0.6183
12255SOL     OW38771   4.024   8.340   8.674 -0.0010  0.4956  0.0323
12255SOL    HW138772   4.023   8.390   8.756 -1.9595  0.7415 -0.0974
12255SOL    HW238773   3.974   8.393   8.612 -1.3442 -1.1520 -0.3816
12256SOL     OW38774   2.966   9.254   8.039 -0.6951 -0.6944 -0.4806
12256SOL    HW138775   2.916   9.249   8.120 -0.0554 -1.3102 -0.1142
12256SOL    HW238776   2.963   9.166   8.003  0.3392 -0.8165 -0.3073
12257SOL     OW38777   2.701  11.065   8.215  0.1203 -0.5403  0.1523
12257SOL    HW138778   2.768  11.110   8.265  0.0554  0.6696 -0.7991
12257SOL    HW238779   2.727  11.076   8.123 -1.3530 -0.0199 -0.2413
12258SOL     OW38780   2.601   9.667   1.592 -0.3378  0.1671  0.5596
12258SOL    HW138781   2.590   9.668   1.497  0.5901 -0.0683  0.4338
12258SOL    HW238782   2.592   9.758   1.618  0.9651  0.4841  0.0249
12259SOL     OW38783   9.360   1.996   2.982  0.0787  0.0445 -0.3312
12259SOL    HW138784   9.387   2.034   2.898  2.3953 -0.7225 -0.0167
12259SOL    HW238785   9.377   2.066   3.046 -0.8047  0.3089 -0.3772
12260SOL     OW38786  10.416  11.097   4.630 -0.0397 -0.1994 -0.1566
12260SOL    HW138787  10.453  11.068   4.547  0.5141  0.7449 -0.2531
12260SOL    HW238788  10.490  11.100   4.690 -0.2462  0.1471  0.0858
12261SOL     OW38789   1.550  10.531   8.076 -0.3502 -0.8918  0.4838
12261SOL    HW138790   1.577  10.462   8.016 -1.5258 -0.4488 -0.6171
12261SOL    HW238791   1.506  10.485   8.148  0.9976 -1.4199  1.0094
12262SOL     OW38792   9.910   4.183   8.825 -0.0985  0.4185 -0.1867
12262SOL    HW138793   9.858   4.203   8.903 -1.1257 -0.2742 -0.6779
12262SOL    HW238794   9.950   4.266   8.801 -2.1364  1.3328 -0.6249
12263SOL     OW38795   3.952   8.333   9.333 -0.5910  0.2707  0.0182
12263SOL    HW138796   4.005   8.340   9.254  0.4260 -0.2456  0.6305
12263SOL    HW238797   3.997   8.388   9.398 -0.8932 -0.0396  0.5034
12264SOL     OW38798   1.643   7.124   8.320  0.1360  0.3353 -0.2186
12264SOL    HW138799   1.658   7.061   8.391 -1.4385 -0.8073 -0.8310
12264SOL    HW238800   1.728   7.133   8.277  0.4815 -1.1471  0.0862
12265SOL     OW38801   8.473  10.060   1.238 -0.3206  0.2071 -0.8702
12265SOL    HW138802   8.482  10.000   1.163  0.8728  0.6017 -1.0568
12265SOL    HW238803   8.517  10.014   1.310 -0.5644  0.2787 -0.6771
12266SOL     OW38804   5.227  10.601   7.804 -0.1525 -0.4733 -0.2857
12266SOL    HW138805   5.243  10.600   7.709 -1.2466 -3.3992 -0.5349
12266SOL    HW238806   5.159  10.667   7.815  1.0201  0.9744 -1.2915
12267SOL     OW38807   3.359   3.622   1.135  0.7242  0.5619  0.8224
12267SOL    HW138808   3.423   3.560   1.170 -0.5147  0.5896  3.3705
12267SOL    HW238809   3.277   3.572   1.131  0.5301  0.9702 -0.8393
12268SOL     OW38810   0.087   8.323   8.523  0.1121  0.1559 -0.6131
12268SOL    HW138811   0.038   8.284   8.450  0.0279 -0.3872 -0.2676
12268SOL    HW238812   0.178   8.299   8.506  0.2117  0.7900 -1.0162
12269SOL     OW38813   5.790  10.865   0.972 -0.5606  0.1167 -0.2812
12269SOL    HW138814   5.702  10.874   0.934  0.4018  1.4418 -2.3426
12269SOL    HW238815   5.844  10.925   0.922  1.3299  0.1881  1.7061
12270SOL     OW38816   5.297   4.743   5.014 -0.1835  0.1239 -0.1744
12270SOL    HW138817   5.202   4.747   5.024 -0.0950 -1.3866  2.2121
12270SOL    HW238818   5.327   4.698   5.093  2.2467 -2.3365 -2.2859
12271SOL     OW38819   5.071   4.349   7.947 -0.2506 -1.0162 -0.3766
12271SOL    HW138820   4.977   4.367   7.935 -0.3567 -0.4857  1.0671
12271SOL    HW238821   5.113   4.435   7.937  0.0546 -1.2026 -0.7170
12272SOL     OW38822   9.347   7.195  10.609 -0.7913  0.0317 -0.5885
12272SOL    HW138823   9.317   7.285  10.603 -0.0368  0.3700  0.4864
12272SOL    HW238824   9.369   7.182  10.701  0.3813 -0.8142 -0.9509
12273SOL     OW38825   1.224   3.262   1.031 -0.2773  0.8483  0.4102
12273SOL    HW138826   1.297   3.223   1.079 -0.9206 -1.1351 -0.1246
12273SOL    HW238827   1.202   3.197   0.964 -0.9905  2.4512 -1.0038
12274SOL     OW38828   4.162   8.329   9.113 -0.2759  0.9062 -0.4313
12274SOL    HW138829   4.110   8.252   9.087  0.8831 -0.0380 -0.0472
12274SOL    HW238830   4.252   8.301   9.101  0.1723  2.4012 -0.7510
12275SOL     OW38831  10.789   7.234   0.721  0.5315  0.7089 -0.4212
12275SOL    HW138832  10.869   7.207   0.766 -1.0888  0.4394  2.5747
12275SOL    HW238833  10.742   7.153   0.706  0.0201  1.0123 -0.4702
12276SOL     OW38834   9.973   6.842   9.624  0.1178  0.6991  0.2809
12276SOL    HW138835  10.005   6.925   9.589 -0.9650  1.8119  1.7982
12276SOL    HW238836  10.041   6.813   9.684  0.5776  0.3617 -0.3826
12277SOL     OW38837   9.273   4.558   8.564  0.2387 -0.6134  0.3259
12277SOL    HW138838   9.240   4.502   8.494  0.5542 -0.4779  0.0688
12277SOL    HW238839   9.333   4.618   8.521 -0.6005  0.3624  0.4785
12278SOL     OW38840   4.756   5.850   1.762 -0.1201 -0.1556  0.5058
12278SOL    HW138841   4.732   5.892   1.680 -0.9981  1.1695  1.4117
12278SOL    HW238842   4.722   5.761   1.755  1.7809 -0.8028 -1.4501
12279SOL     OW38843   5.094   1.014   4.849  0.3648  0.2245  0.4002
12279SOL    HW138844   5.155   0.955   4.894  1.2502  1.5522  1.0045
12279SOL    HW238845   5.011   0.967   4.850  0.8954 -0.7654  1.3838
12280SOL     OW38846   2.910   9.148  10.947 -0.0790 -0.0256 -0.0133
12280SOL    HW138847   2.936   9.176  11.035  1.8232  0.9285 -0.8087
12280SOL    HW238848   2.989   9.160  10.894 -1.3070 -0.1129 -1.9652
12281SOL     OW38849   4.398   6.255   5.717  0.5494 -0.1047 -1.0023
12281SOL    HW138850   4.360   6.212   5.640 -3.1174  0.1276  0.4674
12281SOL    HW238851   4.380   6.348   5.704  0.9921  0.0715 -0.3907
12282SOL     OW38852   6.920   9.075  10.098 -0.7361  0.0472  0.4071
12282SOL    HW138853   6.978   9.144  10.065  1.1164  0.0393  3.3186
12282SOL    HW238854   6.947   8.997  10.050  0.1671  0.4922  0.1593
12283SOL     OW38855   4.253   6.277   9.088  0.2940 -0.2176  0.4586
12283SOL    HW138856   4.249   6.370   9.065 -1.3444 -0.4247 -0.2758
12283SOL    HW238857   4.346   6.259   9.102  0.8961  1.0613 -1.4558
12284SOL     OW38858   3.757   3.995   8.555 -0.0335  0.1525  0.3103
12284SOL    HW138859   3.673   3.966   8.519  0.2633  1.4038 -1.5219
12284SOL    HW238860   3.741   4.004   8.649 -1.4499 -1.2332  0.2604
12285SOL     OW38861   8.169   8.014  10.240  0.9607  0.0134 -0.0870
12285SOL    HW138862   8.222   8.064  10.177 -0.1705  0.4037 -0.7697
12285SOL    HW238863   8.102   7.972  10.186 -2.1909  3.0400  1.0460
12286SOL     OW38864   1.250   3.957   2.336  0.0846  0.0119  0.2765
12286SOL    HW138865   1.331   3.997   2.369  0.6887 -2.0419  1.4840
12286SOL    HW238866   1.181   4.020   2.358  1.2280  1.4258 -0.0122
12287SOL     OW38867   5.172   9.818   6.171 -0.7326  0.3936  0.2161
12287SOL    HW138868   5.199   9.909   6.182 -1.0591  0.4501  0.5565
12287SOL    HW238869   5.255   9.770   6.160 -0.5302  0.6635  0.5315
12288SOL     OW38870   9.141   5.275   4.191 -0.5411 -0.5062 -0.3886
12288SOL    HW138871   9.188   5.315   4.117  2.6194 -0.7286  1.3149
12288SOL    HW238872   9.123   5.348   4.250  0.3673 -0.8166  0.2893
12289SOL     OW38873   9.307   4.065  10.618  0.0679  0.1322  0.1644
12289SOL    HW138874   9.303   4.016  10.700  1.7430  1.3810  1.0583
12289SOL    HW238875   9.308   4.157  10.645  0.4517  0.5672 -1.2668
12290SOL     OW38876   4.180   1.637   9.269 -0.8090  0.3736  0.3670
12290SOL    HW138877   4.156   1.614   9.180  0.7224  1.8811 -0.5042
12290SOL    HW238878   4.200   1.554   9.311  1.4200 -0.2499 -1.6717
12291SOL     OW38879   3.295   2.830   2.101  0.2288 -0.8106 -0.2506
12291SOL    HW138880   3.290   2.742   2.138  0.3226 -0.8891 -0.4252
12291SOL    HW238881   3.388   2.850   2.096  0.2094 -0.7155 -0.2429
12292SOL     OW38882   9.916  10.923   0.764 -0.0315 -0.0635 -0.4867
12292SOL    HW138883  10.009  10.911   0.748  0.4394  0.4756  1.5556
12292SOL    HW238884   9.890  10.992   0.704  0.8001 -0.4202 -1.2810
12293SOL     OW38885   4.763   6.845   9.008 -0.5804 -0.5671 -0.3118
12293SOL    HW138886   4.760   6.912   9.076 -0.7298 -0.6237 -0.2614
12293SOL    HW238887   4.680   6.797   9.018  0.1901 -1.7508  0.6645
12294SOL     OW38888   5.814   9.753   3.332 -0.2541 -0.3340  0.2142
12294SOL    HW138889   5.798   9.749   3.238  1.4757  0.8249 -0.1827
12294SOL    HW238890   5.785   9.841   3.358  1.8180  0.4147  0.1693
12295SOL     OW38891   0.951  10.608   1.143 -0.3255 -0.4073 -0.0349
12295SOL    HW138892   0.897  10.533   1.169  0.3732 -0.7961  0.3327
12295SOL    HW238893   0.926  10.625   1.053 -0.6693 -0.9305 -0.0468
12296SOL     OW38894   5.768   9.051   0.196  0.4899 -0.3618  0.4929
12296SOL    HW138895   5.802   9.087   0.114  1.8336 -0.0321  1.1734
12296SOL    HW238896   5.774   8.956   0.185 -2.5077 -0.5176 -1.0733
12297SOL     OW38897   3.019   3.420   0.360  0.2776  0.5873  0.1698
12297SOL    HW138898   3.041   3.476   0.286 -1.5816  0.1381 -0.7764
12297SOL    HW238899   3.058   3.335   0.338  0.4640  0.6854  0.1225
12298SOL     OW38900   0.144   8.380   8.807 -0.3992 -0.4837 -0.1452
12298SOL    HW138901   0.157   8.474   8.809  1.2568 -0.5514 -2.6128
12298SOL    HW238902   0.129   8.360   8.714  0.7574 -2.7584  0.0844
12299SOL     OW38903   4.448   4.104   7.371 -0.5735  0.2507  0.0524
12299SOL    HW138904   4.521   4.124   7.430 -0.4762 -0.5206  0.1996
12299SOL    HW238905   4.378   4.164   7.397 -0.1470  0.6780  0.2122
12300SOL     OW38906   7.055   4.125   9.604 -0.5256  0.2476  0.4726
12300SOL    HW138907   6.979   4.142   9.549 -0.6570 -1.3700  0.1117
12300SOL    HW238908   7.127   4.170   9.560 -0.5921 -1.1513 -1.1745
12301SOL     OW38909  10.944   4.672   0.804  0.3747  0.5019 -0.2035
12301SOL    HW138910  10.869   4.673   0.745  0.2070 -0.6175 -0.0226
12301SOL    HW238911  10.916   4.725   0.879 -0.7198 -0.9424  0.4378
12302SOL     OW38912   0.787   2.887   7.957 -0.2334 -0.4125 -0.0471
12302SOL    HW138913   0.851   2.879   8.028 -0.9887  0.8548  0.8269
12302SOL    HW238914   0.714   2.935   7.996 -0.6418  0.3916 -1.7070
12303SOL     OW38915   3.908   5.095   4.680 -0.1091 -0.3609 -0.0045
12303SOL    HW138916   3.942   5.006   4.691  0.5371  0.0474  1.5832
12303SOL    HW238917   3.911   5.132   4.768  0.1272  1.4077 -0.7334
12304SOL     OW38918   3.281   6.905   5.282 -0.0088  0.0266  0.0613
12304SOL    HW138919   3.291   6.930   5.374  0.7446  0.4192 -0.1204
12304SOL    HW238920   3.335   6.967   5.234  1.0766 -1.2862 -0.4988
12305SOL     OW38921   7.865   7.780   5.327  0.4998  0.3597  0.0588
12305SOL    HW138922   7.853   7.688   5.303 -0.9787  0.1655  1.3533
12305SOL    HW238923   7.796   7.826   5.279 -0.0442  0.4935  0.9562
12306SOL     OW38924   7.461   7.954   9.371  0.1914  0.1246  0.3137
12306SOL    HW138925   7.408   7.892   9.321 -0.9054  1.0622  0.2796
12306SOL    HW238926   7.521   7.899   9.422  0.8077 -0.8761 -1.4133
12307SOL     OW38927   2.852   5.174  10.124 -0.3607 -1.1277 -0.2379
12307SOL    HW138928   2.825   5.174  10.215  0.2521  3.3343  0.1634
12307SOL    HW238929   2.773   5.199  10.075  0.2531  0.8423 -0.3202
12308SOL     OW38930   7.815   6.698   2.566 -0.0230  0.2767 -0.9138
12308SOL    HW138931   7.840   6.789   2.552  0.2532  0.2861 -0.3793
12308SOL    HW238932   7.850   6.676   2.652  0.8557 -0.6616 -1.4910
12309SOL     OW38933   9.484   0.367   0.141  0.4576  0.5701 -0.1611
12309SOL    HW138934   9.473   0.450   0.094  2.8294 -0.1535 -2.1710
12309SOL    HW238935   9.422   0.307   0.099  0.5609  0.6551 -0.4351
12310SOL     OW38936   2.382   5.347   7.939  0.0492 -0.0495  0.1928
12310SOL    HW138937   2.356   5.333   8.030  1.8575  1.7471  1.0592
12310SOL    HW238938   2.379   5.260   7.900 -2.0064 -0.6846  1.5912
12311SOL     OW38939   3.281   2.373   8.291 -0.2417 -0.0165 -0.5984
12311SOL    HW138940   3.330   2.335   8.364 -0.6764  0.1998 -0.1821
12311SOL    HW238941   3.279   2.466   8.310 -0.3472  0.0409 -0.8929
12312SOL     OW38942   6.617   6.824   7.819  0.1881  0.6254  0.0504
12312SOL    HW138943   6.576   6.874   7.889  0.7107  0.7380  0.2786
12312SOL    HW238944   6.621   6.886   7.745 -0.0836  0.6007  0.0133
12313SOL     OW38945  10.367   9.969   5.313  0.7502  0.0203  0.2490
12313SOL    HW138946  10.378  10.018   5.232  1.1083 -0.1982  0.1611
12313SOL    HW238947  10.426  10.011   5.375  0.4300  0.2274  0.4198
12314SOL     OW38948   4.171   4.919   7.449  0.4738  0.2984  0.2452
12314SOL    HW138949   4.152   4.977   7.376  2.2880  0.0642 -0.4641
12314SOL    HW238950   4.095   4.929   7.507 -0.9167  0.6467 -1.5262
12315SOL     OW38951   4.677   8.591   4.429 -0.1046  0.0882  0.0360
12315SOL    HW138952   4.650   8.666   4.482  1.2056  0.6812 -0.0913
12315SOL    HW238953   4.605   8.578   4.368 -0.0559  1.7420 -0.4301
12316SOL     OW38954   5.288  10.113   0.229  0.1451 -0.1539 -0.0408
12316SOL    HW138955   5.350  10.040   0.217  0.4443 -0.1223  1.1990
12316SOL    HW238956   5.231  10.084   0.300 -0.4291  0.3838 -0.2731
12317SOL     OW38957   8.796   0.602   4.948 -0.0592 -0.2801  0.1799
12317SOL    HW138958   8.738   0.629   5.019 -1.4512  0.4202 -1.1797
12317SOL    HW238959   8.793   0.506   4.950 -2.7111 -0.2941 -0.9306
12318SOL     OW38960   6.217   2.924   8.814  0.2040 -0.0060  0.4206
12318SOL    HW138961   6.150   2.990   8.831  1.1569  0.8429  0.9813
12318SOL    HW238962   6.172   2.857   8.762 -1.6213 -0.4255  2.3862
12319SOL     OW38963   1.110   2.184  10.983 -0.5072  0.0067 -0.3838
12319SOL    HW138964   1.111   2.226  11.069 -0.5471 -0.2538 -0.2552
12319SOL    HW238965   1.048   2.111  10.993  0.1431 -0.5548 -0.3752
12320SOL     OW38966   6.976  10.003   8.553  0.0019 -0.2975 -0.2877
12320SOL    HW138967   6.992   9.909   8.564  2.9444  0.1666  0.2828
12320SOL    HW238968   6.913  10.009   8.482 -1.3521 -2.7267  0.5941
12321SOL     OW38969   4.295   8.452   6.730 -0.1060  0.0428 -0.5878
12321SOL    HW138970   4.349   8.429   6.806 -0.0989  0.2701 -0.5243
12321SOL    HW238971   4.243   8.526   6.759  1.8135  1.9132 -1.6187
12322SOL     OW38972   5.134   8.763   2.059  0.2742 -0.2575  0.2825
12322SOL    HW138973   5.043   8.741   2.079  0.6398 -1.0258  1.1989
12322SOL    HW238974   5.150   8.844   2.106  0.9074 -1.6698  2.7018
12323SOL     OW38975   9.824   1.180  10.875  0.0849 -0.4365  0.3234
12323SOL    HW138976   9.729   1.166  10.883 -0.1648 -1.3117 -2.8523
12323SOL    HW238977   9.862   1.093  10.884  0.5923 -0.1324  1.2579
12324SOL     OW38978   1.732   4.056  10.092 -0.0688 -0.5502  0.1006
12324SOL    HW138979   1.693   4.010  10.018  1.5353 -0.8616 -0.5946
12324SOL    HW238980   1.730   3.993  10.164 -0.2380 -0.7848 -0.1095
12325SOL     OW38981   0.378   5.051   3.764  0.2415 -0.1200 -0.0400
12325SOL    HW138982   0.286   5.055   3.788  0.2915 -2.1582  0.7350
12325SOL    HW238983   0.423   5.029   3.846  1.4177  0.6882 -0.4331
12326SOL     OW38984   3.157   5.204   9.866  0.5876 -0.1926 -0.2888
12326SOL    HW138985   3.251   5.193   9.852  0.6365 -1.2431  0.7447
12326SOL    HW238986   3.140   5.164   9.951 -0.8011 -0.0065 -0.4502
12327SOL     OW38987   4.194   5.509   0.925 -0.0848 -0.3492  0.6532
12327SOL    HW138988   4.108   5.497   0.965 -0.0226 -0.4362  0.7615
12327SOL    HW238989   4.231   5.586   0.969  0.2219 -0.7871  1.1764
12328SOL     OW38990   9.084   2.210   9.343 -0.0357  0.2714 -0.3485
12328SOL    HW138991   9.066   2.241   9.255  1.1302  0.9269 -0.3848
12328SOL    HW238992   9.025   2.136   9.356 -1.3104  1.1257 -1.0949
12329SOL     OW38993   0.322  10.987   5.841 -0.2365  0.2725 -0.0205
12329SOL    HW138994   0.413  10.987   5.812  0.6218  2.2465  2.3135
12329SOL    HW238995   0.293  11.078   5.829 -2.0611 -0.3800 -1.0234
12330SOL     OW38996   0.073   5.546   2.367  0.0276  0.3390 -0.5380
12330SOL    HW138997   0.149   5.515   2.415 -0.3846  0.3820  0.1505
12330SOL    HW238998   0.001   5.543   2.430 -0.3630  1.1352 -0.9270
12331SOL     OW38999   0.048   5.060  10.540  0.6775 -0.1483  0.8529
12331SOL    HW139000   0.001   5.138  10.572 -0.4449 -0.7516  0.7186
12331SOL    HW239001   0.063   5.008  10.619  1.2351  0.0895  0.9102
12332SOL     OW39002   0.239   4.235   9.622 -0.0176  0.0662  0.2517
12332SOL    HW139003   0.155   4.251   9.579  0.1777 -0.0866 -0.1851
12332SOL    HW239004   0.304   4.244   9.553  0.2478 -0.7893  0.3783
12333SOL     OW39005   2.771   5.280   8.569  0.4715  0.1395  0.2713
12333SOL    HW139006   2.728   5.209   8.618  1.2366  0.6034  1.6782
12333SOL    HW239007   2.713   5.297   8.495 -0.7039 -0.6616  0.9801
12334SOL     OW39008   5.271   9.631   2.170 -0.1706  0.3284 -0.1702
12334SOL    HW139009   5.355   9.587   2.160 -0.2685 -0.4806  2.0688
12334SOL    HW239010   5.207   9.570   2.132  0.0631  0.0954 -0.1898
12335SOL     OW39011  10.118   9.162   6.870  0.7331 -0.0568  0.0831
12335SOL    HW139012  10.075   9.113   6.941  2.1973 -0.4772  0.7300
12335SOL    HW239013  10.208   9.171   6.900  1.5752 -0.9060 -2.0797
12336SOL     OW39014   1.267   7.346   8.900 -0.1991 -0.0880 -0.1279
12336SOL    HW139015   1.310   7.431   8.908 -1.5918  0.6716 -0.2932
12336SOL    HW239016   1.220   7.334   8.982 -1.2548  0.0502 -0.6856
12337SOL     OW39017  10.349   0.197   0.717  0.4001  0.0227  0.3654
12337SOL    HW139018  10.261   0.211   0.682  0.2978 -0.9957  0.2026
12337SOL    HW239019  10.335   0.165   0.806  0.6558  3.1378  1.6840
12338SOL     OW39020   2.318   2.672  11.018 -0.0504  0.0355  0.0293
12338SOL    HW139021   2.399   2.638  10.980  0.2661  0.0196  0.7216
12338SOL    HW239022   2.294   2.609  11.086 -0.9836 -0.2946 -0.5773
12339SOL     OW39023   4.144  10.883   6.413  0.6747  0.3124 -0.5987
12339SOL    HW139024   4.190  10.812   6.368  0.4907 -0.3367  0.1902
12339SOL    HW239025   4.211  10.924   6.467  0.5994  0.1578 -0.3837
12340SOL     OW39026   3.687   7.227  10.472 -0.0527 -0.5876 -0.1045
12340SOL    HW139027   3.658   7.146  10.430 -1.0732 -0.7134  0.7890
12340SOL    HW239028   3.623   7.293  10.443 -0.1100 -0.4360  0.3606
12341SOL     OW39029   3.157   7.992   0.629  0.5204 -0.2401  0.1261
12341SOL    HW139030   3.117   8.077   0.649 -0.6211 -1.0511  1.4479
12341SOL    HW239031   3.198   7.965   0.711 -0.3253 -1.5665  0.1502
12342SOL     OW39032   6.384   1.356   4.822 -0.0504  0.2371  0.1952
12342SOL    HW139033   6.432   1.363   4.904 -2.0774  1.1359  1.4055
12342SOL    HW239034   6.293   1.345   4.849 -0.8671  1.1416 -1.9215
12343SOL     OW39035   0.824  10.904   1.778 -0.3048 -0.6276  0.1288
12343SOL    HW139036   0.913  10.905   1.744 -0.3165 -2.1006 -0.0220
12343SOL    HW239037   0.834  10.914   1.873 -0.0598  0.2930  0.0108
12344SOL     OW39038   3.240   4.119   9.153  0.5422  0.5830  0.1529
12344SOL    HW139039   3.210   4.070   9.230 -1.6268 -2.7900 -2.5157
12344SOL    HW239040   3.311   4.065   9.117  0.2645  1.0769 -1.1847
12345SOL     OW39041   6.000   3.664   1.801 -0.2934 -0.3877 -0.1325
12345SOL    HW139042   6.035   3.739   1.848 -1.1523 -0.5974  0.8813
12345SOL    HW239043   6.030   3.676   1.711  3.5668 -1.2392  0.8413
12346SOL     OW39044   3.495   7.390  10.373 -0.2433  0.5274  0.1835
12346SOL    HW139045   3.438   7.349  10.308 -0.3554 -0.4740  0.8813
12346SOL    HW239046   3.546   7.454  10.324 -0.4865 -0.0403 -0.8435
12347SOL     OW39047   9.718   3.142   3.781  0.2907 -0.1172  0.2626
12347SOL    HW139048   9.692   3.050   3.778  2.2068 -0.6638 -1.4451
12347SOL    HW239049   9.810   3.141   3.807  0.7171  1.1932 -1.0519
12348SOL     OW39050   2.388   8.415   7.445  0.3969 -0.2711  0.3228
12348SOL    HW139051   2.416   8.503   7.419 -0.7633  0.0491  0.0921
12348SOL    HW239052   2.319   8.430   7.509 -0.3450 -1.0005 -0.2847
12349SOL     OW39053   8.958   4.955   5.150 -0.4926 -0.3336 -0.4335
12349SOL    HW139054   8.976   4.871   5.193  0.6613  0.3076  0.3465
12349SOL    HW239055   9.015   5.018   5.193 -3.1496  1.4112  0.7731
12350SOL     OW39056   1.678   8.450   0.646  0.1170 -0.0381  0.1593
12350SOL    HW139057   1.751   8.393   0.671  0.1443 -0.0713  0.0062
12350SOL    HW239058   1.640   8.479   0.729 -0.2815 -0.7716  0.2425
12351SOL     OW39059   1.403   2.994   1.071  0.2493  0.4386  0.1679
12351SOL    HW139060   1.498   2.996   1.088  0.2544  1.4202  0.0874
12351SOL    HW239061   1.371   2.925   1.129  1.2812 -1.4069 -1.3484
12352SOL     OW39062   1.065   6.133   0.156  0.4427 -0.2238  0.5336
12352SOL    HW139063   1.042   6.043   0.179 -1.8785  0.5722  1.6947
12352SOL    HW239064   0.986   6.167   0.113  1.3594  1.1937 -0.0790
12353SOL     OW39065   0.368   2.214   9.841  0.1321  0.0828  0.1258
12353SOL    HW139066   0.323   2.167   9.770  0.7438  0.7706 -0.7462
12353SOL    HW239067   0.425   2.149   9.881  0.3532 -0.1366 -0.5281
12354SOL     OW39068   7.763   2.528   6.127 -0.0645 -0.5789 -0.3345
12354SOL    HW139069   7.755   2.433   6.128 -0.3295 -0.5595 -0.6116
12354SOL    HW239070   7.858   2.543   6.126  0.0391 -0.8070  1.7745
12355SOL     OW39071   5.485   1.863   9.458 -0.0135  0.2746  0.3820
12355SOL    HW139072   5.580   1.853   9.463 -0.0153  0.6683  1.3992
12355SOL    HW239073   5.453   1.774   9.443  0.4611 -0.0147  1.0234
12356SOL     OW39074   6.749  10.650   4.579 -0.4592 -0.1420 -0.1409
12356SOL    HW139075   6.708  10.592   4.515 -1.2333  0.2176  0.0213
12356SOL    HW239076   6.744  10.737   4.539  2.1215 -0.3355 -1.1174
12357SOL     OW39077   0.438   9.946   9.141  0.4091  0.2098 -0.5543
12357SOL    HW139078   0.474   9.969   9.226  0.2028  1.1450 -0.7040
12357SOL    HW239079   0.346   9.924   9.159  0.8967 -1.7333 -0.2386
12358SOL     OW39080   3.071  10.151   1.190  0.1757 -0.0149 -0.0589
12358SOL    HW139081   3.110  10.186   1.110 -0.5934  0.4110 -0.2638
12358SOL    HW239082   2.991  10.202   1.202 -0.3644 -0.9114  0.3012
12359SOL     OW39083   1.533   8.638   7.394 -0.1784  0.0995 -0.4251
12359SOL    HW139084   1.537   8.723   7.350 -0.6254  1.0649  1.3147
12359SOL    HW239085   1.608   8.637   7.452 -0.8504 -0.1560  0.4621
12360SOL     OW39086   2.244   9.070  11.055  0.1497  0.3722  0.6459
12360SOL    HW139087   2.193   9.015  10.995 -1.7668  2.2427  0.4182
12360SOL    HW239088   2.333   9.068  11.020 -0.3105 -0.9018 -0.5534
12361SOL     OW39089   7.355   4.035   9.068 -0.1350  0.2920  0.5557
12361SOL    HW139090   7.406   3.973   9.120 -2.8661 -1.3464  1.4733
12361SOL    HW239091   7.375   4.121   9.107  2.0438 -0.1944  0.6594
12362SOL     OW39092   2.162   5.750  10.304 -0.3010  0.3032 -0.1081
12362SOL    HW139093   2.242   5.698  10.296 -0.5929 -0.2699  0.6141
12362SOL    HW239094   2.182   5.814  10.372  0.2238  1.4910 -1.3192
12363SOL     OW39095   0.894   2.571   3.056 -0.4275  0.5761 -0.0547
12363SOL    HW139096   0.987   2.582   3.037 -0.6894  1.3004 -1.0012
12363SOL    HW239097   0.890   2.498   3.118  0.6861 -0.2282 -0.8889
12364SOL     OW39098   5.144  10.188   2.796  0.3645  0.3800  0.2477
12364SOL    HW139099   5.085  10.147   2.732 -0.2216  1.3909  0.1251
12364SOL    HW239100   5.132  10.135   2.876 -0.6644  0.5235  0.2042
12365SOL     OW39101   4.708   2.632   9.064  0.1100 -0.0829  0.0749
12365SOL    HW139102   4.720   2.574   8.990 -0.9974 -0.5302  0.2240
12365SOL    HW239103   4.618   2.663   9.057 -0.6314 -1.5277  2.1812
12366SOL     OW39104   4.785   1.118   7.751 -0.9024 -0.1456 -0.8396
12366SOL    HW139105   4.799   1.209   7.724  2.5943  0.4937  2.3375
12366SOL    HW239106   4.834   1.067   7.687  0.5278  0.6308 -0.4123
12367SOL     OW39107   1.731   8.320   9.407  0.2311 -0.2608  0.1321
12367SOL    HW139108   1.733   8.236   9.361 -2.0051 -0.4185  0.2034
12367SOL    HW239109   1.808   8.319   9.463  1.1175 -1.5606 -1.0383
12368SOL     OW39110  11.047   5.264   8.661 -0.4217  0.7958 -0.2925
12368SOL    HW139111  11.016   5.182   8.700 -0.9121  0.5859 -1.1195
12368SOL    HW239112  11.142   5.264   8.678 -0.5336  0.4283  0.3752
12369SOL     OW39113   1.733   0.317   4.801  0.0970  0.2690 -0.5976
12369SOL    HW139114   1.752   0.279   4.887 -3.3057  0.2182  0.2502
12369SOL    HW239115   1.745   0.411   4.813 -1.4972  0.3866  0.3571
12370SOL     OW39116  10.978   2.598   1.005  0.1427  0.0494  0.1911
12370SOL    HW139117  10.993   2.692   1.009  1.0340 -0.1067  0.5582
12370SOL    HW239118  10.995   2.575   0.913  0.8153  0.0920  0.3073
12371SOL     OW39119   3.761   0.713  10.451 -0.6725  0.5951 -0.1519
12371SOL    HW139120   3.752   0.627  10.492 -1.6828  0.0294 -1.4868
12371SOL    HW239121   3.675   0.754  10.461 -0.8023  0.6287 -1.2688
12372SOL     OW39122   2.337   7.939   7.147  0.0828  1.1029  0.2429
12372SOL    HW139123   2.274   7.933   7.219 -1.5466 -0.4682 -1.2103
12372SOL    HW239124   2.307   7.874   7.083  1.5812  2.2626 -1.7679
12373SOL     OW39125   3.247   5.670   0.944 -0.0049 -0.7845  0.2778
12373SOL    HW139126   3.238   5.672   1.039 -1.0874  1.6364  0.1838
12373SOL    HW239127   3.160   5.688   0.910  1.0174  2.2675 -1.0691
12374SOL     OW39128   1.494   3.714   8.185  0.5799  0.2108 -0.3974
12374SOL    HW139129   1.526   3.764   8.260 -0.0008  0.5322 -0.3555
12374SOL    HW239130   1.435   3.774   8.140 -0.1183 -0.4315 -0.3607
12375SOL     OW39131   2.420   1.749   8.545 -0.2145 -0.1667 -0.0521
12375SOL    HW139132   2.473   1.774   8.469  0.3742 -0.2241  0.3387
12375SOL    HW239133   2.409   1.831   8.594  0.8726 -0.4470  0.7026
12376SOL     OW39134   3.865   4.449   1.868  0.4041 -0.5063 -0.1554
12376SOL    HW139135   3.929   4.513   1.838  1.1380 -0.8308  0.7030
12376SOL    HW239136   3.870   4.378   1.804 -0.6823  0.4229 -1.3288
12377SOL     OW39137   8.963   4.929   9.692 -0.4576  0.1437  0.0609
12377SOL    HW139138   8.962   4.931   9.597 -1.2151 -0.8983  0.0298
12377SOL    HW239139   9.018   4.854   9.714 -0.5642  0.1718  0.4401
12378SOL     OW39140   3.271   0.952   9.330 -0.0655 -0.2499  0.0045
12378SOL    HW139141   3.355   0.995   9.346  0.0840 -0.4549 -0.2121
12378SOL    HW239142   3.283   0.906   9.246 -1.4844  2.5312 -1.8876
12379SOL     OW39143   3.743   8.090   5.606  0.2356  0.5605  0.3176
12379SOL    HW139144   3.783   8.177   5.607 -1.1383  1.2248  0.7139
12379SOL    HW239145   3.771   8.050   5.689  1.7952  0.1558 -0.3770
12380SOL     OW39146   2.283   4.793   7.683  0.4204 -0.3459  0.0108
12380SOL    HW139147   2.345   4.836   7.624 -1.5243  1.6079 -0.7153
12380SOL    HW239148   2.286   4.845   7.763 -0.2224 -0.2665 -0.0124
12381SOL     OW39149   0.496   1.931   1.716  0.7861  0.3928  0.1847
12381SOL    HW139150   0.527   1.910   1.805 -1.4291 -0.0243  0.9230
12381SOL    HW239151   0.488   2.026   1.716  1.2267  0.4313  0.2768
12382SOL     OW39152   8.103   8.883   2.022  0.3870 -0.4041  0.0948
12382SOL    HW139153   8.028   8.888   2.081  0.0177  1.1724 -0.4418
12382SOL    HW239154   8.081   8.944   1.951  0.5073 -2.6898 -2.0387
12383SOL     OW39155   5.297   5.839   8.032  0.2084  0.6091  0.4147
12383SOL    HW139156   5.332   5.852   8.120  0.5634  1.9130  0.1111
12383SOL    HW239157   5.271   5.747   8.029  3.0624 -0.2907  0.8628
12384SOL     OW39158   2.426   4.989   6.593 -0.4862  0.5811  0.0035
12384SOL    HW139159   2.497   5.001   6.657  2.9126  1.5574 -3.5889
12384SOL    HW239160   2.446   4.906   6.551 -2.0240  0.4422 -0.4871
12385SOL     OW39161   2.991   2.254   0.835  0.2035  0.1204 -0.0746
12385SOL    HW139162   2.945   2.263   0.751 -0.2407 -2.8434 -0.2468
12385SOL    HW239163   3.058   2.323   0.832 -0.8440  1.1719 -2.1079
12386SOL     OW39164  10.751   5.301   4.139 -0.3204  0.6782  0.9234
12386SOL    HW139165  10.812   5.243   4.094 -0.6149  1.5296 -0.6531
12386SOL    HW239166  10.681   5.243   4.169 -1.6017  0.3260 -2.3041
12387SOL     OW39167   2.518   5.188   1.309 -0.3868  0.7460  0.1545
12387SOL    HW139168   2.453   5.258   1.304 -0.2979  0.9674  1.6701
12387SOL    HW239169   2.482   5.117   1.255 -1.6217  1.0707  0.5254
12388SOL     OW39170   1.783   8.335   3.583 -0.1815  0.4830  0.1940
12388SOL    HW139171   1.794   8.311   3.491 -1.1814 -2.2444  0.7003
12388SOL    HW239172   1.867   8.310   3.623 -0.3384  0.1251  0.3003
12389SOL     OW39173   3.592   2.321  10.410  0.3265 -0.2353 -0.1817
12389SOL    HW139174   3.558   2.285  10.492  1.6288 -1.0926  0.0113
12389SOL    HW239175   3.606   2.414  10.429 -0.4263 -0.1901  0.2070
12390SOL     OW39176   5.977   5.549   8.474  0.1571 -0.9034  0.3613
12390SOL    HW139177   5.953   5.640   8.489 -0.4630 -1.0179  0.0836
12390SOL    HW239178   6.021   5.550   8.389  2.3704 -0.4890  1.4193
12391SOL     OW39179   5.573   0.375   2.692 -0.3605  0.1103  0.2320
12391SOL    HW139180   5.617   0.331   2.619  0.4241  0.2731  0.6028
12391SOL    HW239181   5.626   0.354   2.768 -0.4941  0.9556  0.5612
12392SOL     OW39182   1.949   1.447   0.544 -0.3152  0.2989  0.0032
12392SOL    HW139183   2.024   1.507   0.545  1.0245 -1.2781  1.4125
12392SOL    HW239184   1.942   1.418   0.453  1.5086 -0.3115  0.0083
12393SOL     OW39185   7.971   2.824   5.887  0.4034 -0.1136 -0.4437
12393SOL    HW139186   7.898   2.882   5.865 -1.1984 -1.7355  0.3498
12393SOL    HW239187   8.017   2.811   5.804 -0.2154  0.9331 -0.9672
12394SOL     OW39188   9.154   8.848   9.620 -0.5479  0.2043 -0.3123
12394SOL    HW139189   9.086   8.874   9.558 -1.6527  0.0298  0.7864
12394SOL    HW239190   9.189   8.931   9.654 -1.0405  0.2920 -0.0116
12395SOL     OW39191   2.938   7.268  10.460 -0.3654  0.0226 -0.1347
12395SOL    HW139192   3.031   7.284  10.443 -0.5448 -0.0704 -1.3396
12395SOL    HW239193   2.938   7.199  10.526  0.4405 -0.3523 -0.4975
12396SOL     OW39194   4.495   3.466   2.256  0.0524  0.7331 -0.1339
12396SOL    HW139195   4.550   3.540   2.282  2.8564 -1.9826  2.5313
12396SOL    HW239196   4.460   3.433   2.339  0.0977 -1.7488 -1.0419
12397SOL     OW39197   5.193   4.353   8.207 -0.2228 -0.4233 -0.3980
12397SOL    HW139198   5.160   4.331   8.120  1.4254 -0.7585 -0.9735
12397SOL    HW239199   5.172   4.446   8.217 -1.7714 -0.7311 -0.4940
12398SOL     OW39200   7.887  10.749   3.345 -0.0502  0.0659 -0.0341
12398SOL    HW139201   7.897  10.830   3.294 -1.0182 -0.1244 -0.5398
12398SOL    HW239202   7.974  10.735   3.384  0.4599  0.7041 -0.8991
12399SOL     OW39203   3.662   0.404   5.596  0.6226 -0.3897  0.1894
12399SOL    HW139204   3.641   0.381   5.506  1.0814  1.0544 -0.3210
12399SOL    HW239205   3.742   0.355   5.615  0.6921 -0.4718 -0.2970
12400SOL     OW39206   9.925  10.293   9.757  0.4081  0.0266 -0.2778
12400SOL    HW139207   9.952  10.338   9.676  1.1367 -0.1665 -0.1467
12400SOL    HW239208   9.983  10.217   9.763  0.1488 -0.1327  0.2674
12401SOL     OW39209   7.543   1.807   7.667 -0.2443 -0.0265  0.7308
12401SOL    HW139210   7.503   1.722   7.684 -0.9632 -0.1082 -1.1116
12401SOL    HW239211   7.555   1.846   7.754 -1.2734 -1.3862  1.5229
12402SOL     OW39212   5.471   1.680   2.943 -0.3491  0.5773 -0.7007
12402SOL    HW139213   5.452   1.586   2.954  0.6010  0.2906 -1.3745
12402SOL    HW239214   5.537   1.699   3.010  0.1800  0.5194 -1.1949
12403SOL     OW39215   1.403   9.980   8.619  0.5642 -0.0469 -0.4032
12403SOL    HW139216   1.427  10.023   8.701  0.1181  1.1376 -0.8654
12403SOL    HW239217   1.315   9.947   8.634 -0.8621  2.9618 -1.3537
12404SOL     OW39218   2.442   2.844   1.656  0.1666  0.0685 -0.5767
12404SOL    HW139219   2.438   2.749   1.670 -0.0079 -0.0919 -1.6035
12404SOL    HW239220   2.486   2.853   1.571  0.8503  0.9413 -0.1470
12405SOL     OW39221   6.165  10.465   5.066  0.3310  0.2642 -0.2181
12405SOL    HW139222   6.139  10.379   5.030  1.6467  0.1098 -0.8560
12405SOL    HW239223   6.122  10.528   5.008 -0.9451  0.0721  0.4713
12406SOL     OW39224   1.430   8.413   8.003 -0.9009  0.6309  0.2646
12406SOL    HW139225   1.439   8.413   8.099  1.0387 -2.8040  0.2388
12406SOL    HW239226   1.518   8.396   7.971 -1.7985  0.0105 -2.0667
12407SOL     OW39227   6.665   7.713   5.760  0.4703  0.3871 -0.3016
12407SOL    HW139228   6.757   7.695   5.744  0.1715 -1.3745 -0.2007
12407SOL    HW239229   6.618   7.645   5.712 -0.6395 -1.3606  2.9537
12408SOL     OW39230   0.400   6.974   9.129  1.1299  0.0955 -0.0753
12408SOL    HW139231   0.331   7.008   9.186  1.1093  0.5927 -0.3889
12408SOL    HW239232   0.458   6.924   9.188  0.1441 -0.9035  0.0774
12409SOL     OW39233   8.246   5.195   1.841  0.7863  0.2135 -0.2417
12409SOL    HW139234   8.252   5.178   1.747 -0.2778 -0.1549 -0.2540
12409SOL    HW239235   8.225   5.110   1.879  2.0486  0.1771  0.4390
12410SOL     OW39236   0.357   6.288   3.898  0.0075  0.7168  0.4875
12410SOL    HW139237   0.446   6.288   3.862  0.0666  0.3763  0.6293
12410SOL    HW239238   0.352   6.208   3.950 -0.3065  0.8531  0.6713
12411SOL     OW39239   0.685   1.305   7.775 -0.4999 -0.0936 -0.2096
12411SOL    HW139240   0.769   1.348   7.793 -0.3587  0.0193 -1.1027
12411SOL    HW239241   0.628   1.334   7.846  0.0147  0.3915  0.0157
12412SOL     OW39242   3.276   0.436  10.378 -0.0329 -0.0477  0.6529
12412SOL    HW139243   3.366   0.465  10.393  0.2262  0.6703 -1.7689
12412SOL    HW239244   3.283   0.371  10.308 -1.5486  1.9542 -1.5204
12413SOL     OW39245   3.631  10.184   9.610  0.3621  0.5348  0.3334
12413SOL    HW139246   3.667  10.197   9.522 -0.2724 -1.0220 -0.2084
12413SOL    HW239247   3.578  10.105   9.602 -1.2364  1.4121  1.6788
12414SOL     OW39248  10.448   9.045   0.648  0.0213  0.0696  0.0818
12414SOL    HW139249  10.504   9.122   0.634 -1.0049  0.4262 -2.8647
12414SOL    HW239250  10.506   8.980   0.687  2.5108  0.5244 -2.5007
12415SOL     OW39251   3.055   2.371   2.163 -0.0641  0.0935  0.2990
12415SOL    HW139252   3.017   2.368   2.251 -1.7471  0.1754 -0.3929
12415SOL    HW239253   3.053   2.280   2.133  0.4882  0.0679  0.3259
12416SOL     OW39254   4.766   8.829   2.197  0.3271 -0.0433  0.3483
12416SOL    HW139255   4.763   8.849   2.104  0.4628 -0.4304  0.2578
12416SOL    HW239256   4.680   8.792   2.217  0.8433 -1.5075  0.0066
12417SOL     OW39257   4.403  10.265   5.946 -0.1922  0.6420  0.4236
12417SOL    HW139258   4.341  10.195   5.968  1.8228 -1.4664 -0.2747
12417SOL    HW239259   4.434  10.244   5.858  3.6483 -0.1538  1.7766
12418SOL     OW39260   3.291   0.598  10.110 -0.3302  0.2817 -0.4111
12418SOL    HW139261   3.331   0.529  10.057  1.6348  0.0883  1.2108
12418SOL    HW239262   3.263   0.554  10.190 -0.0513  1.1607  0.1821
12419SOL     OW39263   2.284   5.066   1.869  0.5468  0.0626 -0.0051
12419SOL    HW139264   2.233   5.085   1.948  0.9970 -0.6098  0.4670
12419SOL    HW239265   2.270   5.141   1.812  2.5664  2.0617  1.9059
12420SOL     OW39266   1.440   9.200   2.608 -0.2994  0.3013  0.5106
12420SOL    HW139267   1.413   9.207   2.516 -0.1256  0.0894  0.4425
12420SOL    HW239268   1.359   9.206   2.658 -0.4644 -0.2106  0.3139
12421SOL     OW39269  10.140   9.050   8.603  0.5443 -0.0209  0.0099
12421SOL    HW139270  10.214   9.110   8.608 -0.1625  0.8177  0.8668
12421SOL    HW239271  10.088   9.081   8.529  1.2913 -0.9222 -0.9161
12422SOL     OW39272   8.907   9.518  10.159  0.0206  0.1262  0.4028
12422SOL    HW139273   8.916   9.547  10.068 -1.9615 -0.7234 -0.1171
12422SOL    HW239274   8.908   9.422  10.153  2.5986  0.0035  1.6354
12423SOL     OW39275   2.386   1.506   2.449  0.2580 -0.1479 -0.1874
12423SOL    HW139276   2.335   1.480   2.526 -0.4406 -0.4765 -0.7534
12423SOL    HW239277   2.394   1.426   2.398 -1.1027  0.5185 -1.4957
12424SOL     OW39278   9.529   5.845   0.056 -0.7149 -0.4270 -0.1880
12424SOL    HW139279   9.564   5.925   0.095 -0.3079 -0.3803 -0.6314
12424SOL    HW239280   9.595   5.778   0.074  0.3850 -0.0214 -2.2930
12425SOL     OW39281   8.339   9.958  10.237  0.0429  0.1680  0.8609
12425SOL    HW139282   8.417   9.906  10.218  1.1360  0.9151  2.9336
12425SOL    HW239283   8.280   9.941  10.164  1.3611 -1.9548  0.2008
12426SOL     OW39284   5.330   6.500   7.467 -0.8627 -0.1797  0.9365
12426SOL    HW139285   5.240   6.527   7.481 -0.8053  1.4857 -1.3312
12426SOL    HW239286   5.382   6.560   7.520 -1.0034  0.5095  0.3112
12427SOL     OW39287  10.145   5.120   5.424  0.0822 -0.6823 -0.1973
12427SOL    HW139288  10.056   5.136   5.455 -0.0310  3.2496 -1.9833
12427SOL    HW239289  10.136   5.112   5.329  1.6685  1.3749 -0.6021
12428SOL     OW39290   0.571   7.308   8.995 -0.5954  0.4766 -0.2500
12428SOL    HW139291   0.521   7.388   8.979  2.4006  2.3250 -1.0673
12428SOL    HW239292   0.643   7.335   9.051  0.8272 -1.5375 -0.9889
12429SOL     OW39293   7.391   8.945   0.805  0.0841 -0.3190  0.6781
12429SOL    HW139294   7.403   8.851   0.818  0.6695 -0.3899 -0.3497
12429SOL    HW239295   7.296   8.958   0.813 -0.2937 -1.3687 -1.4578
12430SOL     OW39296   1.687  10.733   8.901  0.6460  0.1462  0.3296
12430SOL    HW139297   1.757  10.668   8.894 -0.5948 -1.2895  0.6938
12430SOL    HW239298   1.653  10.722   8.990 -2.2400 -1.6423 -0.8311
12431SOL     OW39299   1.656   8.702   0.305  0.8374 -0.2048  0.5663
12431SOL    HW139300   1.689   8.769   0.365  1.9692 -0.1408 -0.0959
12431SOL    HW239301   1.718   8.703   0.232 -1.6764  1.2339 -1.7055
12432SOL     OW39302   1.317  10.756   7.834 -0.1148 -0.1203  0.0226
12432SOL    HW139303   1.289  10.845   7.815  0.1055  0.1569  0.9668
12432SOL    HW239304   1.412  10.761   7.845 -0.2668 -0.1797  1.5556
12433SOL     OW39305   1.745   8.053  11.017  0.0456  0.1291 -0.3041
12433SOL    HW139306   1.667   8.034  10.964  1.6418 -0.0507 -2.7829
12433SOL    HW239307   1.738   8.146  11.038  0.1253  0.6346 -2.3184
12434SOL     OW39308   4.690   1.409   8.913  0.2709  0.0695  0.2849
12434SOL    HW139309   4.717   1.342   8.851 -0.9928 -0.8452  0.6929
12434SOL    HW239310   4.763   1.416   8.975  1.3849  0.7424 -1.0561
12435SOL     OW39311   4.388   6.572   2.069  0.8137  0.3930  0.7871
12435SOL    HW139312   4.465   6.596   2.121  2.2979  2.7742 -2.1804
12435SOL    HW239313   4.424   6.516   2.000 -0.2031  1.0549 -0.3028
12436SOL     OW39314   3.089   8.773   6.992 -0.7384  0.1871 -0.4807
12436SOL    HW139315   3.053   8.721   6.920 -0.5455  1.6409 -1.6926
12436SOL    HW239316   3.031   8.849   6.998  0.0699  0.7918 -0.0762
12437SOL     OW39317   4.510   9.780   1.657  0.0315 -0.5397  0.1196
12437SOL    HW139318   4.414   9.781   1.661  0.0236  0.6480 -0.0713
12437SOL    HW239319   4.529   9.768   1.564  0.1040 -2.4652  0.3347
12438SOL     OW39320   5.520   5.152   3.097  0.5099  0.4055  0.6832
12438SOL    HW139321   5.426   5.131   3.095  0.6797 -0.2872 -0.1731
12438SOL    HW239322   5.550   5.139   3.007  1.2704  1.4052  0.7693
12439SOL     OW39323   3.387   1.304   6.009  0.6774  0.1444  0.9636
12439SOL    HW139324   3.385   1.210   6.024 -2.3931 -0.3565 -1.4132
12439SOL    HW239325   3.299   1.334   6.033  1.3381  2.2613  0.9322
12440SOL     OW39326   1.048   0.508   7.619 -0.2066 -0.4841  0.8416
12440SOL    HW139327   0.959   0.502   7.583  0.0096  0.8157  0.0302
12440SOL    HW239328   1.085   0.585   7.577  1.1010 -0.6550  1.6504
12441SOL     OW39329   6.857   6.038   0.618  0.5192 -0.0545 -0.4026
12441SOL    HW139330   6.917   5.970   0.651 -0.7316  0.0353  2.3332
12441SOL    HW239331   6.771   6.010   0.649 -0.1980  2.1800 -0.2593
12442SOL     OW39332   4.846   1.485   6.254 -0.2833 -0.2361  0.3690
12442SOL    HW139333   4.904   1.424   6.300 -0.4928  0.0237  0.9828
12442SOL    HW239334   4.804   1.432   6.187  1.9169 -0.0921 -1.2494
12443SOL     OW39335   4.577   1.963   1.693 -0.2407  0.0666 -0.5266
12443SOL    HW139336   4.591   1.946   1.786 -0.4351  1.2442 -0.2753
12443SOL    HW239337   4.642   2.030   1.671 -0.0063 -0.4024 -1.3184
12444SOL     OW39338   4.184   9.892   7.361 -0.3833  0.5746 -0.5230
12444SOL    HW139339   4.126   9.905   7.436  0.9308  0.6756  0.5174
12444SOL    HW239340   4.154   9.957   7.297 -1.8021  0.1990 -0.2853
12445SOL     OW39341  10.757   4.272   9.201  0.2087  0.0423 -0.6935
12445SOL    HW139342  10.836   4.240   9.245  0.4672 -1.4099 -2.1350
12445SOL    HW239343  10.686   4.248   9.261  0.6350 -1.0048 -0.5771
12446SOL     OW39344   6.672   7.818   9.737 -0.3608 -0.0062  0.5910
12446SOL    HW139345   6.617   7.892   9.765 -0.4721 -0.0273  0.4310
12446SOL    HW239346   6.759   7.841   9.768 -0.1692  0.7413 -0.4206
12447SOL     OW39347   1.433   1.701   1.363  0.0782  0.5730 -0.4901
12447SOL    HW139348   1.451   1.609   1.343  2.9024  1.1724 -1.2215
12447SOL    HW239349   1.339   1.705   1.379 -0.1740 -2.3669 -0.7479
12448SOL     OW39350   7.261   0.680   4.103  0.3707 -0.0277 -0.4557
12448SOL    HW139351   7.253   0.775   4.099 -0.6863 -0.0599  0.4595
12448SOL    HW239352   7.342   0.665   4.153  1.2596  0.3607 -1.7288
12449SOL     OW39353   3.411   9.986   9.467  0.2516  0.0616  0.4394
12449SOL    HW139354   3.431  10.073   9.433 -1.5139  1.0057  1.6806
12449SOL    HW239355   3.316   9.985   9.476  0.3659 -1.4298  1.9157
12450SOL     OW39356   2.563   1.985   6.550  0.3197  0.5590  0.0738
12450SOL    HW139357   2.506   1.912   6.524 -1.5828  1.6012  1.0766
12450SOL    HW239358   2.554   2.049   6.479  1.8533 -0.0753 -0.7232
12451SOL     OW39359  10.715   1.025   0.826 -0.0044 -0.7653  0.0993
12451SOL    HW139360  10.792   0.975   0.801  0.1810 -0.8293  0.7707
12451SOL    HW239361  10.649   0.960   0.847  0.6748 -0.8190  2.3675
12452SOL     OW39362  10.255   2.177   2.778 -0.2284 -0.5299  0.2691
12452SOL    HW139363  10.242   2.248   2.715  0.8043  1.5049  2.2044
12452SOL    HW239364  10.184   2.189   2.842  1.1912  0.1892  1.7809
12453SOL     OW39365   1.031   7.039   7.835 -0.3686  0.5073  0.2810
12453SOL    HW139366   1.115   7.084   7.839  0.2214 -0.6348  0.8474
12453SOL    HW239367   0.987   7.078   7.759  1.3638 -0.0963 -1.0859
12454SOL     OW39368   1.528   3.404   3.955 -0.6084  0.0616  0.4984
12454SOL    HW139369   1.523   3.483   4.008 -0.7355  1.0680 -0.9353
12454SOL    HW239370   1.585   3.345   4.004  0.1318  1.3405  1.2387
12455SOL     OW39371  10.306   4.551   4.102 -0.4689  0.0182  0.2338
12455SOL    HW139372  10.287   4.538   4.195  1.1974  1.4952  0.8324
12455SOL    HW239373  10.235   4.606   4.070 -0.3848  0.5670  0.9665
12456SOL     OW39374   6.703   1.139   3.174 -0.1232 -0.2153  0.1013
12456SOL    HW139375   6.739   1.143   3.263 -0.6347  0.0032  0.3033
12456SOL    HW239376   6.697   1.045   3.156 -2.9369 -0.4283  1.5376
12457SOL     OW39377   7.625   5.290   3.067 -0.0784 -0.0979 -0.1849
12457SOL    HW139378   7.560   5.277   3.137  3.1442  0.8918  3.3652
12457SOL    HW239379   7.615   5.382   3.043 -0.0263  0.0579  0.3628
12458SOL     OW39380   3.627   7.823   7.110  0.2611 -0.4146 -0.2143
12458SOL    HW139381   3.552   7.763   7.102 -0.0600 -0.2296  1.1368
12458SOL    HW239382   3.587   7.910   7.111  0.7456 -0.0989 -2.4492
12459SOL     OW39383   8.729   5.933   1.009 -0.5104 -0.7656 -0.4950
12459SOL    HW139384   8.769   5.851   0.980 -1.5237 -1.2428 -0.5824
12459SOL    HW239385   8.735   5.990   0.932  2.6728  0.2524  0.3631
12460SOL     OW39386   4.199   6.492   7.490  0.1162 -0.4170  0.1499
12460SOL    HW139387   4.171   6.574   7.449  0.4655  0.1318  0.9990
12460SOL    HW239388   4.198   6.429   7.418  0.3123  0.4309 -0.6232
12461SOL     OW39389   6.635   1.054   8.750  0.4267 -0.1727  0.3312
12461SOL    HW139390   6.693   1.012   8.813 -0.4871  0.1013  1.3963
12461SOL    HW239391   6.605   0.983   8.693  1.1889 -0.4409  0.2610
12462SOL     OW39392   6.112   6.114   8.229 -0.3783 -0.0134  0.0174
12462SOL    HW139393   6.044   6.054   8.201 -0.1800 -0.0567 -0.3752
12462SOL    HW239394   6.145   6.154   8.148  1.6813 -1.7063 -0.0692
12463SOL     OW39395   5.423   9.562   0.349 -0.1318  0.0127 -0.6126
12463SOL    HW139396   5.500   9.508   0.332  0.1074 -0.2290  1.0332
12463SOL    HW239397   5.450   9.651   0.327  0.5418 -0.1007 -0.2627
12464SOL     OW39398   2.624   3.589   8.424 -0.3284  0.0726 -0.3419
12464SOL    HW139399   2.653   3.652   8.358  0.8984 -0.7004 -0.5854
12464SOL    HW239400   2.543   3.553   8.389 -0.3895  0.6314 -0.7889
12465SOL     OW39401   2.740  10.574   0.982  0.1360  0.2984 -0.4836
12465SOL    HW139402   2.717  10.562   0.890 -0.6950  0.6830 -0.3329
12465SOL    HW239403   2.680  10.517   1.030 -0.2531  1.0025 -0.1097
12466SOL     OW39404   0.382   7.261   9.444 -0.1558 -0.3668 -0.9185
12466SOL    HW139405   0.314   7.308   9.394 -1.5510  0.2564  1.4040
12466SOL    HW239406   0.332   7.203   9.502  1.3501 -0.3882  0.3962
12467SOL     OW39407  10.282   2.875   6.824  0.1041 -0.0604  0.0960
12467SOL    HW139408  10.317   2.936   6.889 -0.7807  1.9814 -1.2353
12467SOL    HW239409  10.224   2.818   6.874  0.4547  0.6068  1.3034
12468SOL     OW39410  10.624   0.524   5.680 -0.0962 -0.1381 -0.4424
12468SOL    HW139411  10.697   0.532   5.741 -0.7660  0.0101  0.3488
12468SOL    HW239412  10.590   0.613   5.672  0.0459 -0.1356 -1.1239
12469SOL     OW39413   2.088   0.540   0.746 -0.4925  0.2061  0.3031
12469SOL    HW139414   2.121   0.479   0.680  0.3726  2.0167 -1.0120
12469SOL    HW239415   2.007   0.575   0.709 -0.3225  0.7807  0.4632
12470SOL     OW39416   2.479   2.859   4.599 -0.2412  0.1188  0.5204
12470SOL    HW139417   2.527   2.781   4.625 -2.3944 -0.8643  1.7482
12470SOL    HW239418   2.534   2.932   4.628  1.3635 -0.9206  0.1752
12471SOL     OW39419   2.070   7.735   3.383  0.4274  0.5907  0.4602
12471SOL    HW139420   2.154   7.689   3.386  0.3144  0.3662  0.2660
12471SOL    HW239421   2.024   7.695   3.309 -0.2843 -0.0425  1.2317
12472SOL     OW39422   5.625   8.078   1.627 -0.1986  0.3838  0.1941
12472SOL    HW139423   5.659   8.116   1.708  0.3035  0.9764 -0.2796
12472SOL    HW239424   5.535   8.111   1.621 -1.1069 -1.6166  1.7218
12473SOL     OW39425   0.426  10.603   1.116  0.0638  0.2670  0.3986
12473SOL    HW139426   0.480  10.677   1.089 -0.8185  1.2751  1.2736
12473SOL    HW239427   0.363  10.592   1.045 -0.6206  1.2235  0.8337
12474SOL     OW39428   1.439   2.949   5.565  0.1615  0.1291  0.1559
12474SOL    HW139429   1.402   2.914   5.646 -0.7649 -1.9275 -1.0600
12474SOL    HW239430   1.515   2.893   5.548  0.4718  0.6781 -0.2958
12475SOL     OW39431   0.554   3.806   4.794 -0.5232  0.5909 -0.6365
12475SOL    HW139432   0.478   3.792   4.850 -0.5276  0.5660 -0.6484
12475SOL    HW239433   0.528   3.772   4.709 -0.2407 -0.1119 -0.4513
12476SOL     OW39434   5.347   9.157   7.049  0.1119 -0.4312 -0.5921
12476SOL    HW139435   5.369   9.066   7.070 -0.5515 -1.4359 -3.6646
12476SOL    HW239436   5.306   9.191   7.129  1.9186 -2.2427  1.2148
12477SOL     OW39437   2.893   3.944   2.148  0.6643 -0.0052  0.0389
12477SOL    HW139438   2.937   4.004   2.088 -0.9650  0.4905 -0.7154
12477SOL    HW239439   2.923   3.971   2.235  2.6351 -0.3844 -0.4729
12478SOL     OW39440   2.311   0.344   7.456  0.4436 -0.2133 -0.0660
12478SOL    HW139441   2.270   0.296   7.383  1.2671 -1.0279 -0.0088
12478SOL    HW239442   2.277   0.300   7.534 -1.1483  1.2224  0.1221
12479SOL     OW39443   1.830   3.284   8.440 -0.4619  0.7195  0.2693
12479SOL    HW139444   1.844   3.223   8.512  0.2192  1.0894  0.4552
12479SOL    HW239445   1.809   3.228   8.365 -1.5471  0.3516  0.8267
12480SOL     OW39446   4.207   3.789  11.094 -0.1413 -0.3644 -0.4359
12480SOL    HW139447   4.193   3.829  11.179  1.6718 -0.6282  0.0479
12480SOL    HW239448   4.224   3.862  11.035  1.3212 -0.2651  0.0524
12481SOL     OW39449   4.358   6.316   4.778  0.6221 -0.0450 -0.3780
12481SOL    HW139450   4.420   6.284   4.844  0.9356  1.0393 -0.1337
12481SOL    HW239451   4.287   6.355   4.829 -0.8984 -2.3022 -0.6168
12482SOL     OW39452   0.468   1.380   2.032 -0.0349  0.4971 -0.0828
12482SOL    HW139453   0.475   1.317   2.104 -0.7482 -0.7772 -1.0897
12482SOL    HW239454   0.499   1.332   1.955  3.2003  2.6108 -0.2910
12483SOL     OW39455   4.627   2.999   9.976 -0.3552  0.0985  0.2196
12483SOL    HW139456   4.581   2.938  10.033 -3.9202  2.9354  0.7578
12483SOL    HW239457   4.711   3.015  10.019 -0.8281 -1.6801  1.9074
12484SOL     OW39458   5.136   7.093   1.737 -0.4205  0.4531 -0.2967
12484SOL    HW139459   5.146   7.165   1.675  0.1393  1.0317  0.4472
12484SOL    HW239460   5.191   7.117   1.811 -3.1745  1.2057  1.6821
12485SOL     OW39461   3.749   1.900   7.393  0.0485 -0.3087 -0.2498
12485SOL    HW139462   3.840   1.914   7.369  0.4205 -1.0791  0.6541
12485SOL    HW239463   3.701   1.911   7.312  0.7822  1.4509 -0.4978
12486SOL     OW39464   2.187  11.022   9.093 -0.2932 -0.7423  0.8674
12486SOL    HW139465   2.097  11.036   9.064 -0.0380  0.6786  0.6682
12486SOL    HW239466   2.235  11.005   9.012 -0.0768  0.3645  0.7481
12487SOL     OW39467   4.533   7.473   4.001  0.2634 -0.2170  0.4895
12487SOL    HW139468   4.483   7.432   4.071  0.2328 -0.9346  0.0604
12487SOL    HW239469   4.494   7.437   3.921  0.8373 -0.0405  0.1303
12488SOL     OW39470   6.202  10.062   8.366  0.7769 -0.2564 -0.1533
12488SOL    HW139471   6.174   9.975   8.338  1.1477 -0.2336 -0.6082
12488SOL    HW239472   6.229  10.051   8.457  2.0515 -0.8993 -0.5903
12489SOL     OW39473   0.962   4.430   2.618  0.9851 -0.5566  0.1768
12489SOL    HW139474   0.959   4.335   2.610 -1.8320 -0.6930  1.5484
12489SOL    HW239475   0.877   4.460   2.584  1.5740  1.4222  0.2913
12490SOL     OW39476   8.635   7.581   8.176 -0.4958  0.0395  0.1455
12490SOL    HW139477   8.696   7.506   8.175  3.0387  2.5680 -3.0749
12490SOL    HW239478   8.652   7.623   8.260 -0.2522 -1.0813  0.6863
12491SOL     OW39479   1.426  10.194   4.458  0.4746 -0.2694  0.6009
12491SOL    HW139480   1.388  10.219   4.374  0.9541 -0.5304  0.3012
12491SOL    HW239481   1.503  10.250   4.467  1.0949 -1.0514  0.3035
12492SOL     OW39482   6.186   3.009   9.147  0.3652 -0.7330 -0.4617
12492SOL    HW139483   6.237   3.039   9.072 -0.7432  1.0410 -0.5643
12492SOL    HW239484   6.249   3.004   9.219  1.5178 -2.8266 -1.5468
12493SOL     OW39485   1.579  10.409   8.536  0.0006 -0.0734  0.1204
12493SOL    HW139486   1.497  10.453   8.513  0.3433  1.2525  1.3020
12493SOL    HW239487   1.573  10.396   8.631  1.0819 -0.1318  0.1843
12494SOL     OW39488   5.097   1.477  11.046  0.3292  0.6592 -0.5093
12494SOL    HW139489   5.158   1.519  10.985  0.1119  1.0741 -0.4482
12494SOL    HW239490   5.026   1.541  11.055 -0.9932 -0.5192 -1.9293
12495SOL     OW39491   6.006   0.286   0.924  0.2632  0.1021  0.0137
12495SOL    HW139492   6.043   0.295   0.835 -1.3974  0.8018 -0.6435
12495SOL    HW239493   6.005   0.376   0.958 -3.1355  0.5771 -1.0066
12496SOL     OW39494   5.580   6.229   1.441 -0.4089  0.1771  0.4893
12496SOL    HW139495   5.524   6.228   1.363  1.0598 -1.0621 -0.6229
12496SOL    HW239496   5.532   6.177   1.505 -0.3870 -1.2445 -0.5923
12497SOL     OW39497   5.786   9.796  11.067  0.1149 -0.0694 -0.2155
12497SOL    HW139498   5.789   9.702  11.085 -1.9574 -0.1984 -0.3877
12497SOL    HW239499   5.753   9.803  10.978 -1.8935  0.8404  0.5443
12498SOL     OW39500   6.256  11.092   2.296  0.5926 -0.5451  0.0543
12498SOL    HW139501   6.240  10.998   2.290  0.0950 -0.4194 -0.7092
12498SOL    HW239502   6.183  11.132   2.250  2.1421  0.1217 -1.9590
12499SOL     OW39503   6.570   9.723   1.155 -0.1772  1.2060  0.1606
12499SOL    HW139504   6.477   9.725   1.174 -0.3806 -2.5051  0.3577
12499SOL    HW239505   6.576   9.721   1.060 -0.3741  0.5624  0.1596
12500SOL     OW39506   1.315   3.710  10.885  0.8078 -0.7251 -0.2513
12500SOL    HW139507   1.270   3.640  10.932 -1.5625  1.4710  1.0692
12500SOL    HW239508   1.245   3.755  10.837  2.0647  1.2101 -0.3680
12501SOL     OW39509   3.739  10.714   8.654 -0.2095  0.6224 -0.4113
12501SOL    HW139510   3.751  10.626   8.617 -1.1700 -0.6867  2.1548
12501SOL    HW239511   3.825  10.754   8.650  0.8139 -1.3537  0.4584
12502SOL     OW39512   7.939  10.085   1.306  0.5082 -0.2712  0.2787
12502SOL    HW139513   7.884  10.007   1.305  0.2788 -0.1448  1.3550
12502SOL    HW239514   8.008  10.066   1.369  1.4080 -0.2224 -0.6721
12503SOL     OW39515   0.736   6.273   8.544  0.0893 -0.2203 -0.8259
12503SOL    HW139516   0.681   6.313   8.611  2.0997  0.3845  0.5861
12503SOL    HW239517   0.693   6.190   8.523 -0.1028 -0.9659  2.0685
12504SOL     OW39518  10.877   6.913  10.828  0.0582 -0.3863  0.0122
12504SOL    HW139519  10.948   6.851  10.813  1.2099  0.7022  0.7508
12504SOL    HW239520  10.892   6.982  10.763  0.0955  0.1796  0.6110
12505SOL     OW39521   1.933   9.214   2.927 -0.1345  0.4137  0.6059
12505SOL    HW139522   1.842   9.201   2.953 -0.8236 -0.2770 -1.8055
12505SOL    HW239523   1.982   9.147   2.975 -1.2620 -0.6773  0.2807
12506SOL     OW39524   3.473   9.544   0.401  0.4034 -0.4354  0.0103
12506SOL    HW139525   3.519   9.626   0.382  1.6059 -0.8640  0.8748
12506SOL    HW239526   3.411   9.567   0.471  1.6512 -0.4878  1.1792
12507SOL     OW39527   5.691   0.275   6.690 -0.6053  0.0268 -0.0540
12507SOL    HW139528   5.734   0.337   6.749  1.8294 -1.3996 -0.1770
12507SOL    HW239529   5.622   0.326   6.647 -0.6248  1.8378  1.9379
12508SOL     OW39530   9.015   9.739   5.431 -0.0766  0.0820 -0.3237
12508SOL    HW139531   9.087   9.677   5.442  1.3498  1.7922  0.4884
12508SOL    HW239532   9.019   9.765   5.339  0.4260  0.2497 -0.2560
12509SOL     OW39533   0.178   3.392   9.796  0.2624  0.4174  0.1167
12509SOL    HW139534   0.106   3.332   9.778  0.0145  0.5976  0.4990
12509SOL    HW239535   0.228   3.349   9.865  1.2388 -0.2946 -0.9887
12510SOL     OW39536   6.158   6.340   0.979  0.1442 -0.2237 -0.0538
12510SOL    HW139537   6.132   6.411   1.037  0.4704 -1.0720  1.1864
12510SOL    HW239538   6.225   6.378   0.922  0.7938  0.3201  1.0335
12511SOL     OW39539   9.923   0.329   3.179  0.7107 -0.1758  0.0605
12511SOL    HW139540   9.917   0.240   3.144  3.9483  0.1690 -1.7059
12511SOL    HW239541   9.905   0.386   3.104  0.0804  0.7055  0.8444
12512SOL     OW39542   1.554   1.157   2.043 -0.8081 -0.4679 -0.3645
12512SOL    HW139543   1.646   1.159   2.068 -0.6064 -0.5738 -1.0559
12512SOL    HW239544   1.531   1.248   2.027 -1.4063 -0.1932  1.7478
12513SOL     OW39545   0.869   5.802   0.272  0.6987  0.0694 -0.1117
12513SOL    HW139546   0.950   5.791   0.223  1.8842 -0.0429  1.7561
12513SOL    HW239547   0.892   5.862   0.343 -1.1208  0.7934 -0.0625
12514SOL     OW39548  10.703   9.376   3.493  0.0838  0.2613  0.3146
12514SOL    HW139549  10.652   9.377   3.574 -0.3171  2.1389  0.0968
12514SOL    HW239550  10.640   9.402   3.425  0.4962 -0.9527 -0.5621
12515SOL     OW39551   0.057   0.773  10.111  0.0560  0.0662  0.1858
12515SOL    HW139552   0.082   0.777  10.019  1.0659 -0.2918  0.4406
12515SOL    HW239553  -0.030   0.732  10.110  0.1594 -0.1510 -0.5841
12516SOL     OW39554   0.987   4.200   0.502  0.4645 -0.6990  0.7303
12516SOL    HW139555   1.004   4.108   0.482  0.8728 -0.7626  1.3477
12516SOL    HW239556   1.067   4.245   0.476 -0.2792 -0.2927 -0.9632
12517SOL     OW39557   8.823   8.864  10.766  0.0223  0.2835 -0.2042
12517SOL    HW139558   8.728   8.865  10.752 -0.0605  1.3675  0.3104
12517SOL    HW239559   8.836   8.918  10.843  0.9882 -0.6683  0.3218
12518SOL     OW39560   6.707   9.338   1.361  0.1302  0.5227 -0.9456
12518SOL    HW139561   6.622   9.359   1.322  0.2125  0.2498 -1.2721
12518SOL    HW239562   6.770   9.387   1.308  0.3893 -1.0018 -2.1113
12519SOL     OW39563   7.073   8.957   3.387 -0.1017  0.6937  0.1235
12519SOL    HW139564   7.018   8.908   3.325  0.5428 -0.2249  0.2533
12519SOL    HW239565   7.010   9.006   3.440 -0.7135  0.7657 -0.6490
12520SOL     OW39566   5.846   1.401  10.557  0.1979  0.4834  0.3838
12520SOL    HW139567   5.853   1.473  10.619  1.4439 -0.6622  1.6628
12520SOL    HW239568   5.839   1.443  10.471  0.6650  2.0998  1.1027
12521SOL     OW39569   3.420   0.403   5.108  0.6074  0.4322 -0.3458
12521SOL    HW139570   3.345   0.346   5.092  0.9525  0.2143 -1.2507
12521SOL    HW239571   3.397   0.486   5.065  0.7892  0.4292 -0.4545
12522SOL     OW39572   3.994  10.356  10.501  0.1234 -0.0839  0.4021
12522SOL    HW139573   3.991  10.323  10.591 -0.0706  0.2364  0.5142
12522SOL    HW239574   3.939  10.434  10.502 -0.4967 -0.4981 -0.1696
12523SOL     OW39575   7.887   9.098   8.118 -0.3721 -0.4913  0.8420
12523SOL    HW139576   7.882   9.145   8.035 -1.0843  0.6525  1.4876
12523SOL    HW239577   7.801   9.056   8.126  0.6135 -2.8333 -0.2111
12524SOL     OW39578   6.404  10.131   0.686 -0.1775 -0.2861 -0.3537
12524SOL    HW139579   6.323  10.161   0.728 -0.9893 -0.1957 -1.9127
12524SOL    HW239580   6.443  10.072   0.750 -0.8465  0.6036  0.9253
12525SOL     OW39581   4.047   4.455  11.039  0.8055  0.5302 -0.0889
12525SOL    HW139582   4.066   4.451  10.945 -2.0802  0.7340 -0.7866
12525SOL    HW239583   3.953   4.472  11.043  0.8807  0.6743  2.8706
12526SOL     OW39584   5.766   6.952   2.315 -0.2668 -0.4213 -0.7640
12526SOL    HW139585   5.772   6.936   2.409  2.2191  0.0833 -0.7647
12526SOL    HW239586   5.857   6.948   2.284 -0.8432  1.0488 -2.8656
12527SOL     OW39587   3.343   9.718   2.531 -0.5974  0.3080 -0.4461
12527SOL    HW139588   3.419   9.733   2.587 -0.9102  0.9542 -0.1888
12527SOL    HW239589   3.353   9.781   2.459 -0.3350 -0.3357 -0.9818
12528SOL     OW39590   6.137   7.177   2.764 -0.1045  0.4374  0.1344
12528SOL    HW139591   6.109   7.112   2.828  0.6454  0.3144  0.3562
12528SOL    HW239592   6.061   7.233   2.750 -0.9763 -0.8896 -0.5789
12529SOL     OW39593   1.954   0.065  10.930 -0.2674  0.0944  0.5059
12529SOL    HW139594   2.035   0.021  10.904 -1.4070 -1.3207 -0.8522
12529SOL    HW239595   1.933   0.029  11.016 -0.1884 -0.6298  0.2324
12530SOL     OW39596   5.401   4.012  10.904 -0.0412 -0.5433 -0.2652
12530SOL    HW139597   5.474   3.973  10.857 -0.0904 -0.6786 -0.2293
12530SOL    HW239598   5.361   4.072  10.840 -0.2631 -0.9182 -0.4798
12531SOL     OW39599   6.253   2.229   1.181  0.7528  0.0044 -0.1515
12531SOL    HW139600   6.237   2.178   1.101  1.1322  0.2861 -0.4114
12531SOL    HW239601   6.323   2.289   1.157  0.1998  0.7695  0.1036
12532SOL     OW39602   8.819   0.622   1.103  0.1902 -0.5627  0.1081
12532SOL    HW139603   8.795   0.592   1.015  2.2967 -1.3836 -0.2261
12532SOL    HW239604   8.815   0.544   1.157  2.4018 -0.8415 -0.0543
12533SOL     OW39605   3.278   5.571   7.139 -0.3579  0.1471  0.2819
12533SOL    HW139606   3.275   5.626   7.217 -0.2108 -0.6686  0.8733
12533SOL    HW239607   3.251   5.484   7.169 -0.3223 -0.1747 -0.5776
12534SOL     OW39608   2.691   2.675   2.505 -0.3531  0.1015 -0.1786
12534SOL    HW139609   2.729   2.713   2.425 -0.7184 -0.3208 -0.5568
12534SOL    HW239610   2.749   2.704   2.575  0.3776 -0.1222 -0.6889
12535SOL     OW39611   3.125   3.877   7.073 -0.5030  0.2522 -0.0582
12535SOL    HW139612   3.156   3.966   7.087  0.7648  0.2859 -2.5752
12535SOL    HW239613   3.160   3.827   7.147  1.2925  1.3013 -0.1498
12536SOL     OW39614   8.950   9.227   5.026 -0.2591 -0.3817  0.4879
12536SOL    HW139615   9.032   9.183   5.050  1.4954  2.0317 -0.5986
12536SOL    HW239616   8.950   9.225   4.930 -2.0532 -1.2056  0.4645
12537SOL     OW39617   1.827  10.495   8.557  0.3863  0.7389  0.4072
12537SOL    HW139618   1.737  10.466   8.550  0.0431  1.9646 -0.6474
12537SOL    HW239619   1.879  10.423   8.521 -0.4236  1.2765 -2.0017
12538SOL     OW39620   7.889  10.870   0.153  0.1894  0.7084 -0.0815
12538SOL    HW139621   7.879  10.775   0.166 -1.5661  0.7405 -0.8851
12538SOL    HW239622   7.821  10.909   0.207  0.6294  1.4980 -0.0796
12539SOL     OW39623   6.481   2.406   1.214  0.3971  0.0890  0.3767
12539SOL    HW139624   6.542   2.360   1.272  0.7225  2.4194  2.0123
12539SOL    HW239625   6.508   2.498   1.219 -2.3104  0.9881 -0.0386
12540SOL     OW39626   7.240   7.575   2.915 -0.0211 -0.2130 -0.4990
12540SOL    HW139627   7.188   7.497   2.896  0.9178 -1.7051  2.4906
12540SOL    HW239628   7.331   7.545   2.915  0.6952  1.6744 -2.5246
12541SOL     OW39629   2.982   9.175   8.833 -0.0772 -0.2466  0.3362
12541SOL    HW139630   3.025   9.195   8.750 -0.2122 -0.5662  0.1908
12541SOL    HW239631   3.053   9.144   8.889  0.1899  0.9054  0.6591
12542SOL     OW39632   0.831   6.371   1.175  0.3425 -0.9485 -0.1583
12542SOL    HW139633   0.738   6.395   1.179  1.0513  1.9591  0.8562
12542SOL    HW239634   0.856   6.388   1.084  0.3711  0.4555  0.0924
12543SOL     OW39635   5.757   4.611   1.791  0.1313  0.2498  0.2647
12543SOL    HW139636   5.820   4.584   1.858  0.3426 -0.0323 -0.0435
12543SOL    HW239637   5.810   4.632   1.714 -0.1540 -0.1099 -0.0376
12544SOL     OW39638   4.562   1.943   2.070  0.6346  0.0408  0.1995
12544SOL    HW139639   4.641   1.963   2.122  0.1781  0.6302  0.6748
12544SOL    HW239640   4.553   1.848   2.078  1.1448 -0.0018  0.3584
12545SOL     OW39641   2.458   4.151  10.340 -0.0942 -0.3825  0.3941
12545SOL    HW139642   2.506   4.117  10.264 -1.3895 -0.6768 -0.3240
12545SOL    HW239643   2.386   4.200  10.302 -0.6103 -0.2972  1.4516
12546SOL     OW39644   6.541   7.931   6.648  0.3235 -0.1101  0.5603
12546SOL    HW139645   6.548   7.995   6.577  0.5610 -1.5027 -0.7052
12546SOL    HW239646   6.573   7.978   6.726 -0.7039  1.7044 -0.0493
12547SOL     OW39647   2.791  10.786   5.207 -0.1547 -0.1126 -0.1578
12547SOL    HW139648   2.810  10.765   5.298 -0.6604 -1.1792 -0.2841
12547SOL    HW239649   2.850  10.859   5.186  0.3219 -0.1949  0.8649
12548SOL     OW39650   0.904   0.717  10.309  0.5163  0.3258 -0.9249
12548SOL    HW139651   0.940   0.635  10.341  0.1634  0.2983 -0.6024
12548SOL    HW239652   0.971   0.751  10.249  0.1810 -0.7618 -1.9649
12549SOL     OW39653   0.653   8.475   7.809 -0.0999 -0.4074 -0.1064
12549SOL    HW139654   0.673   8.560   7.769  2.7165 -0.4825  0.9292
12549SOL    HW239655   0.619   8.496   7.895 -0.3832 -0.3243 -0.2378
12550SOL     OW39656   9.464   5.172  10.196 -0.1684 -0.0259 -0.5964
12550SOL    HW139657   9.443   5.221  10.117 -1.4451 -1.1034 -0.9549
12550SOL    HW239658   9.398   5.200  10.260  1.1782  1.2478  0.3048
12551SOL     OW39659   8.211   9.028  10.853  0.1556 -0.3232  1.0985
12551SOL    HW139660   8.174   9.065  10.933 -0.1983  0.9338  0.3843
12551SOL    HW239661   8.183   8.937  10.853 -1.3315  0.1094  1.5532
12552SOL     OW39662   2.979   3.342   4.859 -0.0078  0.0758 -0.4299
12552SOL    HW139663   2.892   3.360   4.824  0.4041  1.0656 -1.0109
12552SOL    HW239664   2.967   3.343   4.954 -1.1433 -2.6419 -0.4547
12553SOL     OW39665   5.798   7.015   0.521 -0.1025  0.4005 -0.5177
12553SOL    HW139666   5.755   7.098   0.499  1.3547  0.5582 -3.0281
12553SOL    HW239667   5.877   7.041   0.568 -0.2722  0.3360 -0.1877
12554SOL     OW39668   3.235   3.097   8.029  0.4274 -0.0707 -0.2276
12554SOL    HW139669   3.259   3.151   7.953  1.5003  0.5104  0.4850
12554SOL    HW239670   3.266   3.148   8.104 -0.7890 -0.5424  0.6123
12555SOL     OW39671   6.331  10.383   2.951 -0.2554 -0.0557  0.0209
12555SOL    HW139672   6.400  10.346   3.006 -0.2639  0.4436  0.3779
12555SOL    HW239673   6.249  10.356   2.993 -0.2715 -0.2608 -0.1421
12556SOL     OW39674   9.061   9.081   1.479 -0.8309  0.0703 -0.2321
12556SOL    HW139675   9.087   9.107   1.568 -1.4247  1.9181 -0.5565
12556SOL    HW239676   9.144   9.064   1.434 -0.4843  0.0688  0.4015
12557SOL     OW39677   0.114  10.723   7.418  0.2173 -0.0351 -0.3261
12557SOL    HW139678   0.142  10.643   7.463 -0.4324  0.7738  1.6382
12557SOL    HW239679   0.021  10.732   7.442 -0.6849 -0.4510 -3.2823
12558SOL     OW39680   3.005   2.764   5.007  0.2947 -1.0727 -0.0387
12558SOL    HW139681   3.060   2.822   5.061 -2.0884  0.7208  0.6395
12558SOL    HW239682   3.056   2.684   4.999  2.4537  0.0192  1.5711
12559SOL     OW39683   3.925  10.510   5.374  0.2734  0.0052  0.2267
12559SOL    HW139684   3.885  10.525   5.288 -0.0958  1.3014  0.5933
12559SOL    HW239685   4.008  10.467   5.355  0.5906  1.0491 -0.8532
12560SOL     OW39686   7.603   9.939   9.040 -0.3480 -0.3761  0.5612
12560SOL    HW139687   7.692   9.948   9.006  0.1856 -1.0015  1.7410
12560SOL    HW239688   7.547   9.972   8.969  0.8541  0.9029  0.1510
12561SOL     OW39689   1.821   8.736   6.234 -0.3368 -0.0542  0.2388
12561SOL    HW139690   1.905   8.691   6.220 -0.4238 -0.4659  0.9874
12561SOL    HW239691   1.773   8.724   6.152 -0.4854 -1.6100  0.5290
12562SOL     OW39692   2.923   7.161   3.819 -0.4395  0.3177  0.1343
12562SOL    HW139693   2.886   7.096   3.878 -0.1818 -0.2552 -0.3281
12562SOL    HW239694   2.852   7.225   3.807 -0.7431  0.0498  0.4830
12563SOL     OW39695  10.993   8.172   6.228 -0.0726  0.2959 -0.1419
12563SOL    HW139696  10.968   8.101   6.286  1.0409  0.4155  0.5134
12563SOL    HW239697  10.978   8.138   6.139  0.6211 -0.8220  0.1580
12564SOL     OW39698  10.251   3.479   4.721 -0.2264  0.5943  0.0912
12564SOL    HW139699  10.166   3.465   4.680  0.4076  1.5806 -1.6666
12564SOL    HW239700  10.309   3.415   4.678  0.3657  1.3832 -0.3122
12565SOL     OW39701   1.925   4.959   1.934  0.2760  0.5196 -0.0058
12565SOL    HW139702   1.959   4.880   1.975 -0.5661  0.3121  0.3031
12565SOL    HW239703   1.953   4.953   1.843  0.7236  0.1670  0.1518
12566SOL     OW39704   3.697   7.316   5.541  0.4385 -0.4462  0.1363
12566SOL    HW139705   3.700   7.347   5.451 -0.2229  1.1869  0.6429
12566SOL    HW239706   3.764   7.367   5.587  1.5986 -2.1046  0.3567
12567SOL     OW39707   0.509   8.351  10.619 -0.1403 -0.3376  0.5780
12567SOL    HW139708   0.578   8.395  10.570  0.1674 -0.5182  0.8420
12567SOL    HW239709   0.428   8.376  10.575  0.2465 -2.3255 -1.4729
12568SOL     OW39710   0.496   4.118   8.921 -0.0345 -0.2462  0.8128
12568SOL    HW139711   0.473   4.035   8.962  2.5871 -1.0027  0.9344
12568SOL    HW239712   0.563   4.095   8.857  0.4667  1.7231  0.5724
12569SOL     OW39713   3.259   9.308   8.075  0.7105 -0.2668  0.1182
12569SOL    HW139714   3.164   9.315   8.069  0.5533 -1.1982  1.2713
12569SOL    HW239715   3.281   9.230   8.024  0.5554 -1.5213  1.8677
12570SOL     OW39716   1.133   3.020   8.370  0.2856 -0.6237  0.1351
12570SOL    HW139717   1.169   3.063   8.293 -0.1979 -1.0849 -0.3512
12570SOL    HW239718   1.200   2.956   8.395  0.1682 -0.9117 -0.2816
12571SOL     OW39719   7.010   8.944   9.333 -0.1598  0.3082 -0.5660
12571SOL    HW139720   7.079   9.008   9.316 -1.3724  1.8093 -0.1479
12571SOL    HW239721   7.006   8.938   9.429 -1.0382  0.7822 -0.5566
12572SOL     OW39722   3.773   8.241   2.313  0.1376 -0.3143 -0.3208
12572SOL    HW139723   3.778   8.178   2.241  0.9349  0.6100 -1.0986
12572SOL    HW239724   3.852   8.226   2.364  2.0062  2.0598 -2.2687
12573SOL     OW39725   4.912   9.807   9.407  0.2958 -0.3685  0.6203
12573SOL    HW139726   4.918   9.838   9.317  0.7700 -0.7044  0.5297
12573SOL    HW239727   4.822   9.823   9.433 -0.4197 -2.1510 -0.6066
12574SOL     OW39728   1.378   5.873   0.259  0.0577  0.0878 -0.0151
12574SOL    HW139729   1.375   5.859   0.164  3.0746  0.6010 -0.2873
12574SOL    HW239730   1.369   5.786   0.296 -1.1468 -0.1206 -0.7247
12575SOL     OW39731   2.962   0.277   6.391  0.0394  0.5313 -0.1345
12575SOL    HW139732   2.998   0.345   6.448 -3.4409 -1.3212  5.0559
12575SOL    HW239733   2.899   0.323   6.336  0.1143  1.9753  0.9185
12576SOL     OW39734   9.619   1.090   3.130 -1.3111 -0.0531 -0.2074
12576SOL    HW139735   9.570   1.171   3.120 -1.0590  0.2193  0.6503
12576SOL    HW239736   9.592   1.057   3.216 -1.2007 -0.7353 -0.4296
12577SOL     OW39737   8.690   8.145   1.510  0.3785 -0.6420 -0.3747
12577SOL    HW139738   8.719   8.230   1.478 -0.7240  0.4102  1.2783
12577SOL    HW239739   8.614   8.164   1.565 -0.3977 -2.7816 -0.5937
12578SOL     OW39740   8.054   9.294   4.293 -0.4558  0.2794 -0.1631
12578SOL    HW139741   7.969   9.336   4.283 -0.7719 -0.0998  0.7914
12578SOL    HW239742   8.037   9.201   4.276 -0.0014  0.3480 -1.0602
12579SOL     OW39743   4.172   5.894   0.029  0.8505 -0.8392  0.1644
12579SOL    HW139744   4.265   5.872   0.025  1.1898  0.5777 -2.3049
12579SOL    HW239745   4.170   5.990   0.031 -0.5842 -0.8464  1.8187
12580SOL     OW39746   3.435   2.447   8.048  0.4937 -0.2312  0.7914
12580SOL    HW139747   3.454   2.537   8.075 -0.1733  0.3946 -0.6806
12580SOL    HW239748   3.356   2.424   8.095  0.8013 -0.1434  1.3608
12581SOL     OW39749   6.634   0.173   0.115  0.2024  0.1954 -0.1165
12581SOL    HW139750   6.613   0.265   0.131 -1.0283  0.1179 -1.0829
12581SOL    HW239751   6.603   0.157   0.026 -0.9053 -1.5011  0.5277
12582SOL     OW39752  10.170   9.638   6.960  0.5451 -0.4004 -0.0079
12582SOL    HW139753  10.207   9.695   6.892  0.5043  0.2120  0.4706
12582SOL    HW239754  10.077   9.661   6.963  0.3209 -1.2175 -0.5087
12583SOL     OW39755  11.093   9.323   4.274 -0.3515 -0.0390  0.0326
12583SOL    HW139756  11.130   9.242   4.310 -1.3472 -0.4278  0.2294
12583SOL    HW239757  11.149   9.392   4.307  0.7901 -0.6817 -0.5108
12584SOL     OW39758   4.494   8.923   4.088  0.6610 -0.1156  0.0944
12584SOL    HW139759   4.505   8.840   4.042  0.9621 -0.7563  1.2923
12584SOL    HW239760   4.416   8.910   4.142  1.7581 -0.3102  1.7020
12585SOL     OW39761   2.405   5.402   6.385  0.2611 -0.6467 -0.2222
12585SOL    HW139762   2.337   5.337   6.404  0.4927 -0.4678  1.3926
12585SOL    HW239763   2.457   5.363   6.315  1.5752 -3.1847  1.9664
12586SOL     OW39764  10.511   7.311   5.602  0.4095  0.4722 -0.2971
12586SOL    HW139765  10.442   7.365   5.641  0.1331  1.9269 -2.6104
12586SOL    HW239766  10.592   7.357   5.623  0.4448  0.1827  0.2109
12587SOL     OW39767   7.621   2.401  10.521 -0.0891  0.6920  0.4762
12587SOL    HW139768   7.598   2.409  10.614 -1.4118  2.6862  0.0441
12587SOL    HW239769   7.545   2.436  10.475  0.5625 -0.2316 -1.3778
12588SOL     OW39770   1.236   6.536   1.905  1.0125  0.4237  0.1572
12588SOL    HW139771   1.306   6.559   1.844  0.7519  0.6127 -0.0750
12588SOL    HW239772   1.166   6.599   1.886 -0.2645 -1.3789 -1.4182
12589SOL     OW39773   0.271   6.413   4.740 -0.3944  0.7187  0.4957
12589SOL    HW139774   0.286   6.499   4.700 -2.0068 -0.0240 -1.8671
12589SOL    HW239775   0.249   6.355   4.668  0.5569 -1.7374  2.0332
12590SOL     OW39776   1.841  10.082   3.322 -0.0203  0.0731  0.3749
12590SOL    HW139777   1.762  10.049   3.280  1.3608 -1.8726 -0.8212
12590SOL    HW239778   1.856  10.168   3.281 -0.7678 -0.1327 -0.3395
12591SOL     OW39779   7.950   8.621   1.705 -0.2763  0.0555  0.1086
12591SOL    HW139780   7.855   8.608   1.713 -0.3776  1.0801  0.7005
12591SOL    HW239781   7.963   8.715   1.718  0.8946 -0.1715  0.7579
12592SOL     OW39782   5.732   7.278  10.888  0.6889 -0.6122 -0.2647
12592SOL    HW139783   5.671   7.247  10.955 -0.1680 -0.4958 -0.9756
12592SOL    HW239784   5.706   7.368  10.871  0.8550 -0.6617 -0.7958
12593SOL     OW39785   6.804   5.502   8.863  0.0584  0.3776 -0.5375
12593SOL    HW139786   6.745   5.557   8.914 -0.6163 -0.4827 -0.3784
12593SOL    HW239787   6.871   5.563   8.831 -1.0776  1.4398 -0.9901
12594SOL     OW39788   2.058   1.407   7.851  0.1123 -0.2712  0.0454
12594SOL    HW139789   2.024   1.319   7.836 -0.4787  0.0438 -0.5322
12594SOL    HW239790   2.029   1.457   7.775  0.3951  0.4385  0.3937
12595SOL     OW39791   4.056   8.172   2.307  0.0014 -0.3111 -0.5014
12595SOL    HW139792   4.014   8.136   2.229  1.0079 -4.0530  0.5078
12595SOL    HW239793   4.150   8.166   2.289  0.2291  0.1721  0.4554
12596SOL     OW39794   5.133   2.919   1.152  0.2837 -0.5931 -0.6499
12596SOL    HW139795   5.103   2.959   1.233 -1.2454 -1.5250 -0.7147
12596SOL    HW239796   5.122   2.986   1.085 -2.9288 -1.2181 -0.8947
12597SOL     OW39797   3.138   3.307  10.549  0.1206  0.1796 -0.4287
12597SOL    HW139798   3.096   3.381  10.505  1.0197  0.3853 -0.9557
12597SOL    HW239799   3.070   3.273  10.609 -0.6281  0.7955 -0.9111
12598SOL     OW39800   6.129   4.831   3.691  0.2012 -0.0388  0.1243
12598SOL    HW139801   6.047   4.877   3.676 -0.9634 -2.0955 -0.2331
12598SOL    HW239802   6.172   4.881   3.760 -2.4922 -0.2012  2.0911
12599SOL     OW39803   5.715   7.794   8.394 -0.1742  0.0006 -0.1827
12599SOL    HW139804   5.795   7.842   8.373  0.6423 -0.9005  0.8036
12599SOL    HW239805   5.650   7.862   8.411 -0.0712  0.7707 -2.4956
12600SOL     OW39806   2.489   5.489   3.437 -0.0075 -0.3916  0.8307
12600SOL    HW139807   2.410   5.535   3.465  0.1668 -0.0005  0.6884
12600SOL    HW239808   2.536   5.470   3.518  0.0309 -0.1135  0.8747
12601SOL     OW39809   7.881   1.795   4.011 -0.0801 -0.0143  0.8149
12601SOL    HW139810   7.844   1.867   4.061 -0.8850 -0.6168  1.1179
12601SOL    HW239811   7.808   1.733   4.001  0.4631 -0.5651  0.1536
12602SOL     OW39812   2.726   8.399   7.334 -0.0518  0.4060  0.9361
12602SOL    HW139813   2.806   8.347   7.338  0.5696  1.2186 -0.2803
12602SOL    HW239814   2.718   8.438   7.422 -0.0856 -1.0455  1.6028
12603SOL     OW39815   0.260   2.003   0.218 -0.2993  0.4846  0.4771
12603SOL    HW139816   0.211   1.933   0.262 -2.4572  0.7326 -1.3699
12603SOL    HW239817   0.237   2.082   0.268  0.2352  0.2495  1.1135
12604SOL     OW39818   7.995   5.390   0.349  0.1647 -0.3714 -0.0240
12604SOL    HW139819   7.959   5.395   0.261 -0.3265 -0.0182  0.1946
12604SOL    HW239820   7.937   5.445   0.402  1.0010  0.1861  0.3358
12605SOL     OW39821   2.928   0.371   7.366 -0.3078 -0.6003  0.2187
12605SOL    HW139822   2.942   0.462   7.392  0.1711 -0.4137 -0.6328
12605SOL    HW239823   2.884   0.377   7.281 -0.1033 -1.1553  0.0692
12606SOL     OW39824   2.772   7.555   1.614  0.3588  0.1522  0.0310
12606SOL    HW139825   2.727   7.531   1.695 -3.0934  0.8985 -1.4592
12606SOL    HW239826   2.776   7.474   1.564  0.9334  0.0333  0.2668
12607SOL     OW39827   4.019   1.558   0.556 -0.3550  0.0596  0.1771
12607SOL    HW139828   4.114   1.566   0.545 -0.4400  0.2460 -0.4337
12607SOL    HW239829   4.008   1.534   0.648  0.1609  2.6606  1.0168
12608SOL     OW39830  10.029   4.620   5.978  0.2547 -0.4152  0.4137
12608SOL    HW139831   9.941   4.620   6.015  0.7187 -0.6166  1.5623
12608SOL    HW239832  10.086   4.640   6.052  1.4459 -3.2879  0.4258
12609SOL     OW39833   4.498  10.192   3.305  0.4295  0.2407  0.5410
12609SOL    HW139834   4.460  10.128   3.245  0.0706  1.8011 -0.9739
12609SOL    HW239835   4.423  10.243   3.337  0.6712 -0.2681  1.9822
12610SOL     OW39836  10.666   8.921   1.135 -0.3282 -0.1871  0.4777
12610SOL    HW139837  10.716   8.990   1.178  1.0322  0.9958 -2.6454
12610SOL    HW239838  10.700   8.840   1.171  0.1817  0.6919  2.0800
12611SOL     OW39839   7.033   0.768   1.114 -0.3849  0.6140  0.3820
12611SOL    HW139840   7.031   0.698   1.049  1.2765  0.1370  0.7852
12611SOL    HW239841   7.106   0.745   1.172 -1.6226  1.1758  2.2633
12612SOL     OW39842   4.772   1.425   2.406 -0.0689  0.0776 -0.0638
12612SOL    HW139843   4.827   1.347   2.402 -0.8921 -0.4791 -0.9775
12612SOL    HW239844   4.768   1.447   2.499  1.9107  0.3079  0.0165
12613SOL     OW39845   4.432   2.412   6.590 -0.0982  0.1999 -0.3116
12613SOL    HW139846   4.366   2.396   6.522 -1.3586  0.2331  0.8662
12613SOL    HW239847   4.513   2.379   6.552 -1.2434 -2.3122 -0.8451
12614SOL     OW39848   9.902   4.934   1.188  0.2007 -0.4898  0.6324
12614SOL    HW139849   9.979   4.916   1.243  1.5843  2.8667  0.0737
12614SOL    HW239850   9.938   4.944   1.100 -0.8404  1.2238  0.3654
12615SOL     OW39851   1.023   4.835   9.874 -0.3746 -0.5442  0.2488
12615SOL    HW139852   1.011   4.741   9.859 -1.2898 -0.2136 -1.2547
12615SOL    HW239853   0.939   4.865   9.908 -0.5109 -0.0510 -0.5001
12616SOL     OW39854  11.053   2.837   1.110 -0.4470  0.7990 -0.6866
12616SOL    HW139855  11.140   2.836   1.070  0.8102  0.0079  1.8349
12616SOL    HW239856  11.044   2.925   1.146 -0.8806  1.0085 -1.2974
12617SOL     OW39857   2.719   5.478  10.889  0.1340 -0.2905  0.0186
12617SOL    HW139858   2.663   5.555  10.893  1.1802  0.4894  0.2559
12617SOL    HW239859   2.663   5.408  10.855 -1.5051 -0.0284  1.9995
12618SOL     OW39860   0.417   8.810   7.583  0.1383  0.0996 -0.6733
12618SOL    HW139861   0.431   8.727   7.537  2.0917  0.6070 -1.0985
12618SOL    HW239862   0.376   8.867   7.519  1.2962  0.2788 -1.2730
12619SOL     OW39863   2.506   5.330  10.769  0.3448  0.4608  0.0666
12619SOL    HW139864   2.504   5.235  10.765  0.0737  0.4973 -1.7558
12619SOL    HW239865   2.421   5.355  10.807  0.8477 -0.0107  1.5743
12620SOL     OW39866   1.336   9.700   6.095 -0.1086 -0.0909  0.1231
12620SOL    HW139867   1.328   9.605   6.098 -0.1595 -0.0645  0.7841
12620SOL    HW239868   1.390   9.717   6.018  2.3923 -0.7976  1.6404
12621SOL     OW39869   6.112   8.153   5.238  0.0345  0.3412  0.3182
12621SOL    HW139870   6.023   8.123   5.256  0.0335  1.5738  2.8837
12621SOL    HW239871   6.100   8.241   5.201  0.1329  1.0153  1.7973
12622SOL     OW39872   0.031   7.803   5.144 -0.1605  0.9839  0.0800
12622SOL    HW139873   0.060   7.806   5.052 -1.8249 -1.6475 -0.6585
12622SOL    HW239874   0.103   7.762   5.191  0.1907  1.1811 -0.2772
12623SOL     OW39875   0.451   1.647   5.067 -0.0578 -0.6142 -0.0305
12623SOL    HW139876   0.394   1.706   5.019  0.3976 -1.0832 -1.1656
12623SOL    HW239877   0.392   1.584   5.108 -0.3882 -0.8774 -0.8940
12624SOL     OW39878   9.746   6.559  11.011 -0.3387  0.4026 -0.2695
12624SOL    HW139879   9.721   6.536  10.921  0.7250 -0.5053 -0.3556
12624SOL    HW239880   9.720   6.483  11.063 -0.5342  0.7365  0.1315
12625SOL     OW39881   6.168   1.999  10.765  0.0925  0.0099  0.2847
12625SOL    HW139882   6.166   2.094  10.750 -1.3947  0.1608  1.2849
12625SOL    HW239883   6.083   1.968  10.735  0.1086 -0.8306  1.0716
12626SOL     OW39884  10.546   2.771   3.778 -0.1197 -0.2109 -0.5786
12626SOL    HW139885  10.557   2.739   3.688 -3.8243 -2.5461 -0.4111
12626SOL    HW239886  10.473   2.832   3.774 -2.8351 -3.0531  1.1520
12627SOL     OW39887   7.834   9.439   1.459  0.0755 -0.4234 -0.1031
12627SOL    HW139888   7.782   9.359   1.459 -0.1692 -0.3357  2.4477
12627SOL    HW239889   7.924   9.410   1.444 -0.3035 -0.8531 -1.7738
12628SOL     OW39890   2.565   7.296   3.549 -0.4526 -0.2309  0.1823
12628SOL    HW139891   2.557   7.233   3.478 -1.2219  0.2702 -0.1834
12628SOL    HW239892   2.488   7.280   3.604 -0.0069 -0.4308  0.7730
12629SOL     OW39893   8.724  10.002  10.932 -0.1946  0.4126 -0.4290
12629SOL    HW139894   8.731   9.925  10.876  0.1451 -0.1707  0.3969
12629SOL    HW239895   8.646   9.985  10.985  0.1658  0.3914  0.1039
12630SOL     OW39896   0.980   6.437   7.549 -0.6179 -0.5411  0.4474
12630SOL    HW139897   0.990   6.483   7.632 -0.0962  0.6461 -0.2517
12630SOL    HW239898   1.038   6.361   7.557 -1.1443 -0.8557  1.4379
12631SOL     OW39899   6.752   1.186  10.420  0.0120  0.4624 -0.0572
12631SOL    HW139900   6.705   1.108  10.388 -1.3049  1.0120  0.4681
12631SOL    HW239901   6.721   1.197  10.510  0.8958  1.0593  0.1809
12632SOL     OW39902   4.020  10.092   2.858  0.6747 -0.0498 -0.2412
12632SOL    HW139903   3.949  10.105   2.920  0.2976 -1.0054 -0.4599
12632SOL    HW239904   3.987  10.127   2.775 -0.2720 -2.0649 -0.7850
12633SOL     OW39905   2.701   9.651  10.136  0.6130  0.3357  0.0346
12633SOL    HW139906   2.614   9.614  10.150  0.1754 -0.1450 -3.1800
12633SOL    HW239907   2.684   9.742  10.111  1.0719  0.3939 -0.0724
12634SOL     OW39908   2.469   1.063  10.336 -0.0115  0.5297 -0.2393
12634SOL    HW139909   2.531   0.990  10.344  1.5909  1.7952 -0.4067
12634SOL    HW239910   2.413   1.056  10.412  0.0276 -0.9380 -0.3130
12635SOL     OW39911   4.774   8.583   5.981 -0.1508 -0.2368 -0.1863
12635SOL    HW139912   4.781   8.673   5.950  0.4621 -0.5306 -0.9367
12635SOL    HW239913   4.689   8.553   5.949 -1.0747  0.5512  1.4052
12636SOL     OW39914   4.563   0.262   9.628 -0.2370 -0.3682 -0.3043
12636SOL    HW139915   4.532   0.334   9.572 -1.6593  0.2289  1.1635
12636SOL    HW239916   4.483   0.219   9.658  0.5775 -2.3209 -0.7850
12637SOL     OW39917   5.544   3.777   3.884  0.1007  0.3154  0.1758
12637SOL    HW139918   5.584   3.741   3.963  0.7515  1.3620  0.3465
12637SOL    HW239919   5.573   3.868   3.882  0.1825  0.2762 -1.3315
12638SOL     OW39920   6.429   1.796   3.975  0.0080 -0.2435  0.0098
12638SOL    HW139921   6.484   1.745   4.034  0.1086 -0.3538 -0.1763
12638SOL    HW239922   6.459   1.771   3.887 -0.5605 -0.5445 -0.1026
12639SOL     OW39923   5.271   7.652   9.216  0.1020 -0.0382 -0.0918
12639SOL    HW139924   5.316   7.647   9.300 -0.9627 -0.0416  0.4920
12639SOL    HW239925   5.293   7.738   9.181 -0.6753  0.5927  0.9173
12640SOL     OW39926   6.542   5.964   2.801 -0.5279 -0.0823 -0.1672
12640SOL    HW139927   6.603   5.921   2.740  0.7418  1.2441  0.1186
12640SOL    HW239928   6.580   5.948   2.888 -0.2646  1.2269 -0.0286
12641SOL     OW39929   7.334   3.178   1.429 -0.2911  0.2011 -0.0958
12641SOL    HW139930   7.271   3.247   1.447  0.9045  1.2107  0.3951
12641SOL    HW239931   7.376   3.160   1.514 -0.2964 -0.8464 -0.2948
12642SOL     OW39932   1.601   5.511   0.308  0.3732 -0.0684 -0.2439
12642SOL    HW139933   1.674   5.457   0.339 -0.0058  0.0713  0.9376
12642SOL    HW239934   1.640   5.570   0.244  1.5582  0.7812  1.1995
12643SOL     OW39935   5.210   3.422   4.000  0.2100 -0.7242 -0.0280
12643SOL    HW139936   5.261   3.486   4.050  0.0244 -1.0383  0.5757
12643SOL    HW239937   5.262   3.405   3.922  0.7857 -0.6501  0.3349
12644SOL     OW39938   6.540   5.401   3.142  1.2814 -0.3034  0.1309
12644SOL    HW139939   6.626   5.410   3.183  0.5775  1.3126  1.3474
12644SOL    HW239940   6.496   5.333   3.193  1.0070  0.5459  1.0690
12645SOL     OW39941   4.109   4.052  10.278 -0.4347 -0.2591 -0.1263
12645SOL    HW139942   4.176   3.991  10.249 -0.2553 -1.0593  1.8563
12645SOL    HW239943   4.031   4.029  10.226 -0.3426 -2.1184  0.4908
12646SOL     OW39944   3.406   9.881   5.214  0.1152  0.4268 -0.2434
12646SOL    HW139945   3.394   9.813   5.149  0.2414  0.9738 -0.8493
12646SOL    HW239946   3.379   9.962   5.170  1.1112  0.9463  0.0535
12647SOL     OW39947   1.379  11.039   2.258  0.2263 -0.9213 -0.1028
12647SOL    HW139948   1.418  11.124   2.277  1.3844 -1.0581 -1.6514
12647SOL    HW239949   1.326  11.019   2.335  0.1377  1.0663  0.4050
12648SOL     OW39950   1.064   8.912   3.199  0.2664 -1.0179  0.0241
12648SOL    HW139951   1.029   8.998   3.177  0.5516 -1.4513 -2.4818
12648SOL    HW239952   1.010   8.882   3.272 -1.2757  0.3826 -0.4647
12649SOL     OW39953   5.212   2.212   5.469 -0.3800  0.4919  0.2715
12649SOL    HW139954   5.152   2.221   5.543 -0.4940  0.7726  0.1450
12649SOL    HW239955   5.287   2.267   5.492  0.1202 -0.3605  0.7222
12650SOL     OW39956   5.012   0.787   3.559  0.2874  0.2916  0.0172
12650SOL    HW139957   4.925   0.791   3.599  0.5375 -0.2411  0.6383
12650SOL    HW239958   4.998   0.812   3.468 -0.7955 -1.2874 -0.3003
12651SOL     OW39959   1.053   0.972   4.573 -0.1811 -0.0400  0.4804
12651SOL    HW139960   1.111   1.030   4.524  0.4982 -0.0605  1.2366
12651SOL    HW239961   1.044   0.894   4.518  0.1266  0.1597  0.1467
12652SOL     OW39962   7.473   7.715   4.667  0.1765  0.4357 -0.4946
12652SOL    HW139963   7.493   7.772   4.742  0.8623  1.3195 -1.3235
12652SOL    HW239964   7.388   7.747   4.635  0.2167  0.5168 -0.5209
12653SOL     OW39965  10.658   3.399   6.749 -0.0257  0.0080  0.1546
12653SOL    HW139966  10.643   3.420   6.657  2.2891 -0.8768 -0.5141
12653SOL    HW239967  10.613   3.315   6.762 -1.9314  1.0164  0.4109
12654SOL     OW39968   2.995  10.932   7.053  0.7797  0.9783 -0.4411
12654SOL    HW139969   2.949  10.885   6.984  0.5887  1.0698 -0.3777
12654SOL    HW239970   2.948  11.014   7.062  1.7814  1.6685 -1.3101
12655SOL     OW39971   2.147  10.108   9.582 -0.3070  0.3080  0.1621
12655SOL    HW139972   2.078  10.173   9.569 -1.2280 -0.6574  0.0590
12655SOL    HW239973   2.196  10.110   9.500 -1.2119 -0.1193 -0.4118
12656SOL     OW39974   3.582   9.845   4.820  0.0838  0.0060 -0.1624
12656SOL    HW139975   3.617   9.885   4.899  1.4815 -1.9014  0.2581
12656SOL    HW239976   3.649   9.781   4.794 -1.1247 -0.6194 -1.9067
12657SOL     OW39977   6.515   7.099   2.768 -0.3444 -0.1545 -0.9567
12657SOL    HW139978   6.475   7.015   2.748  0.9038 -1.0937  0.2383
12657SOL    HW239979   6.597   7.099   2.718  0.8488 -0.7864  0.8669
12658SOL     OW39980   2.887   6.523   3.542 -0.0329 -0.2909 -0.1948
12658SOL    HW139981   2.971   6.512   3.497  0.5457  0.2280  0.7132
12658SOL    HW239982   2.860   6.434   3.564  0.8485 -0.4108  0.4801
12659SOL     OW39983   8.402   7.835   4.570  0.4977 -0.0892 -0.0932
12659SOL    HW139984   8.458   7.898   4.525  0.6199  0.6335  1.0411
12659SOL    HW239985   8.423   7.751   4.529  1.2167  0.4148 -0.7928
12660SOL     OW39986   0.133   4.445   5.523 -0.0866 -0.5545  0.3872
12660SOL    HW139987   0.055   4.446   5.468  0.4347  1.2673 -0.3693
12660SOL    HW239988   0.106   4.397   5.602 -1.9703  0.0517  0.1519
12661SOL     OW39989   1.342   4.365   4.018  0.0731 -0.2256 -0.0369
12661SOL    HW139990   1.315   4.273   4.018  0.7096 -0.4134  0.2089
12661SOL    HW239991   1.296   4.402   3.942  0.6750 -1.0049 -0.8167
12662SOL     OW39992   0.574   8.678   9.457 -0.3855 -0.0946 -0.0988
12662SOL    HW139993   0.592   8.764   9.494  2.0455 -0.3127 -0.5806
12662SOL    HW239994   0.574   8.619   9.532  0.3651  0.0293  0.0136
12663SOL     OW39995   3.283   8.942   1.352 -0.1789  0.1114 -0.1470
12663SOL    HW139996   3.218   8.873   1.341  0.6018 -1.0425  1.9664
12663SOL    HW239997   3.249   8.998   1.422  1.1604 -0.6793  1.1972
12664SOL     OW39998   5.555   5.572   0.955 -0.3099 -0.2370  0.0820
12664SOL    HW139999   5.500   5.529   0.890 -2.6093  0.1139  1.6848
12664SOL    HW240000   5.569   5.506   1.023  0.1351  0.0992  0.3279
12665SOL     OW40001   9.854   9.111   7.480 -0.1637  0.0467 -0.2129
12665SOL    HW140002   9.927   9.169   7.501  0.3927 -1.1513  1.4082
12665SOL    HW240003   9.791   9.166   7.433  2.7191  0.5945 -3.8488
12666SOL     OW40004   6.193   1.582   9.459 -0.4911  0.4383  0.5640
12666SOL    HW140005   6.132   1.508   9.454 -0.1287  0.2160 -1.0965
12666SOL    HW240006   6.167   1.638   9.387  1.5687  0.0978 -0.4973
12667SOL     OW40007   1.570   0.723   3.775 -0.4797  0.2339  0.8390
12667SOL    HW140008   1.609   0.708   3.861  0.3461  2.1437  0.8576
12667SOL    HW240009   1.639   0.698   3.713 -1.2488 -1.6207  0.6646
12668SOL     OW40010   4.925   6.596   0.990  0.3260  0.2036 -0.2710
12668SOL    HW140011   4.925   6.684   0.952 -1.0059  0.3967  0.1018
12668SOL    HW240012   4.933   6.611   1.084 -0.3152 -0.0326 -0.1717
12669SOL     OW40013   8.195   5.805   1.607  0.4785 -0.4276 -0.6877
12669SOL    HW140014   8.147   5.801   1.525  0.7004  1.0346 -0.9100
12669SOL    HW240015   8.253   5.880   1.598  0.7033 -0.4031  0.6962
12670SOL     OW40016   6.309   9.337   1.024 -0.1153 -0.3501 -0.1571
12670SOL    HW140017   6.264   9.266   0.978 -0.1224  0.0305 -0.7518
12670SOL    HW240018   6.238   9.395   1.054 -0.0775 -0.2649 -0.2313
12671SOL     OW40019  10.557   1.896   1.268  0.2566  0.0519  0.3553
12671SOL    HW140020  10.478   1.943   1.295 -0.6509 -1.8028  1.1472
12671SOL    HW240021  10.622   1.921   1.333 -0.4300 -0.3470  1.2262
12672SOL     OW40022   4.669   8.425  10.489 -0.0509  0.1103 -0.8463
12672SOL    HW140023   4.688   8.332  10.501 -0.2507 -0.0801 -1.8760
12672SOL    HW240024   4.732   8.470  10.545  1.1686 -0.6150 -1.5846
12673SOL     OW40025   4.464   9.380   3.827 -0.1747 -0.2163 -0.0227
12673SOL    HW140026   4.439   9.376   3.735 -1.8847  0.7716  0.3438
12673SOL    HW240027   4.478   9.473   3.844 -1.7163 -0.1611  1.1331
12674SOL     OW40028   6.905  10.623   3.714 -0.4610  0.1109  0.0102
12674SOL    HW140029   6.975  10.612   3.650 -1.0905  1.5244 -0.9798
12674SOL    HW240030   6.916  10.550   3.775  2.4026  0.7925  0.4206
12675SOL     OW40031  10.045  10.793  10.149 -0.0239 -0.4618 -0.2614
12675SOL    HW140032   9.996  10.865  10.110  0.7428  0.6059  0.6917
12675SOL    HW240033   9.977  10.730  10.176 -0.6605 -0.4042 -1.6602
12676SOL     OW40034   5.561   1.347   5.261  0.3756 -0.0995 -0.2077
12676SOL    HW140035   5.587   1.381   5.176 -1.2347  1.8863  0.0089
12676SOL    HW240036   5.536   1.256   5.245  0.2809  0.1942 -1.8253
12677SOL     OW40037   2.399   0.845   3.835  0.1805 -0.0398  0.0544
12677SOL    HW140038   2.405   0.851   3.740  0.3033 -0.1286  0.0569
12677SOL    HW240039   2.488   0.826   3.864  0.1394 -0.0336  0.1854
12678SOL     OW40040   3.119   0.394   0.512 -0.0364 -0.1106  0.3113
12678SOL    HW140041   3.056   0.404   0.583 -0.9551  0.7914 -0.5951
12678SOL    HW240042   3.161   0.310   0.529  0.1137  0.3085  2.1649
12679SOL     OW40043   1.989   3.411   4.500 -0.8063 -0.0975 -0.0916
12679SOL    HW140044   1.931   3.476   4.460 -1.5676 -1.4456 -1.3133
12679SOL    HW240045   2.038   3.375   4.427  2.5157  1.7639  1.0306
12680SOL     OW40046   5.559   5.365   7.483  0.4033 -0.0603 -0.6038
12680SOL    HW140047   5.569   5.425   7.410  0.9562  0.2031 -0.3211
12680SOL    HW240048   5.647   5.360   7.522  0.2525 -0.6694 -0.3321
12681SOL     OW40049   2.836   7.986  10.376 -0.2642  0.4540  0.5302
12681SOL    HW140050   2.891   8.064  10.375  0.1300  0.1898  1.1651
12681SOL    HW240051   2.894   7.915  10.349 -0.7472  0.4513 -0.5418
12682SOL     OW40052   3.659   8.204   7.433  0.3527 -0.4760 -0.3727
12682SOL    HW140053   3.588   8.187   7.494 -0.7184 -1.1423 -1.7339
12682SOL    HW240054   3.618   8.194   7.346  0.9526  3.5341 -1.3454
12683SOL     OW40055  10.889   7.167   2.432 -0.3434  0.2418 -0.3443
12683SOL    HW140056  10.913   7.104   2.499 -0.3138  1.6558  1.0149
12683SOL    HW240057  10.855   7.242   2.480  0.1942  1.5242 -1.8833
12684SOL     OW40058   4.983   0.237   6.365 -1.2037 -0.1366 -0.4504
12684SOL    HW140059   4.960   0.194   6.282 -0.4479  0.9043 -1.2357
12684SOL    HW240060   5.045   0.305   6.339  0.2489 -0.7756  1.1557
12685SOL     OW40061  10.533   9.288   2.407 -0.4071  0.0819 -0.4806
12685SOL    HW140062  10.438   9.288   2.419 -0.7129  0.5681 -2.5398
12685SOL    HW240063  10.551   9.204   2.364 -0.2668  0.9591 -2.2295
12686SOL     OW40064   3.896   6.970   2.172 -0.1710 -0.1987 -0.4739
12686SOL    HW140065   3.936   6.962   2.086 -1.9151  0.3449 -1.3921
12686SOL    HW240066   3.846   7.051   2.168  0.3880  0.2828  1.3707
12687SOL     OW40067   5.644  10.166   9.800  0.6206  0.0381  0.2515
12687SOL    HW140068   5.716  10.224   9.774  0.8387 -0.7779 -1.0702
12687SOL    HW240069   5.626  10.114   9.722 -0.3028 -0.9214  1.0732
12688SOL     OW40070   1.759   9.849   3.790  0.1740  0.5366  0.1644
12688SOL    HW140071   1.699   9.869   3.718  1.4164  0.8753 -0.8002
12688SOL    HW240072   1.712   9.784   3.842 -0.9545  0.6583 -0.6544
12689SOL     OW40073   0.662   6.465   3.751 -0.4693  0.4130 -0.4570
12689SOL    HW140074   0.672   6.370   3.738 -1.2367  0.0311  1.4477
12689SOL    HW240075   0.606   6.493   3.679 -0.0814 -0.5431 -1.1514
12690SOL     OW40076  10.482   2.414   6.390  0.5558  0.4306 -0.3332
12690SOL    HW140077  10.543   2.460   6.447  2.1290 -0.2292 -1.4302
12690SOL    HW240078  10.399   2.461   6.401  0.8404  0.4485  2.2851
12691SOL     OW40079   4.493   4.855   0.870 -0.2543  1.3751 -0.2539
12691SOL    HW140080   4.558   4.800   0.827  1.6267  1.5605  2.1426
12691SOL    HW240081   4.410   4.827   0.833  0.9238 -0.8168 -1.4454
12692SOL     OW40082   0.375   5.203   6.577 -0.4526  0.1246  0.1702
12692SOL    HW140083   0.351   5.119   6.537  0.2424  0.9047 -2.0455
12692SOL    HW240084   0.463   5.188   6.613 -0.4262 -0.1779 -0.0142
12693SOL     OW40085   2.841   8.046   2.795 -0.0724 -0.0905 -0.2571
12693SOL    HW140086   2.815   7.984   2.726  2.5667 -0.0917 -1.3658
12693SOL    HW240087   2.784   8.121   2.782 -0.1984 -0.4200 -1.9710
12694SOL     OW40088   7.747   8.435   9.981  0.2420 -0.1130 -0.0495
12694SOL    HW140089   7.704   8.374  10.041  0.6952 -0.0924  0.3013
12694SOL    HW240090   7.764   8.383   9.902  2.1686 -0.9641  0.8563
12695SOL     OW40091   2.655   3.064   0.862  0.6261 -0.1029 -0.2182
12695SOL    HW140092   2.690   3.009   0.792  0.0121 -0.1732 -0.4685
12695SOL    HW240093   2.706   3.145   0.856  1.4328 -0.5719  0.0550
12696SOL     OW40094  10.306  10.236   4.233 -0.5176  0.5925  0.4363
12696SOL    HW140095  10.224  10.254   4.187 -0.9461  0.2502  1.0502
12696SOL    HW240096  10.284  10.167   4.295  1.1496 -2.4513 -2.0809
12697SOL     OW40097   1.179   7.539  10.990  0.4033  0.5990 -0.0137
12697SOL    HW140098   1.221   7.461  11.026 -0.1004  0.0986 -0.5070
12697SOL    HW240099   1.197   7.608  11.055 -0.5496 -0.2944  1.2350
12698SOL     OW40100  10.863   5.451   5.313 -0.4522  0.2512 -0.2968
12698SOL    HW140101  10.860   5.356   5.298  1.2675  0.1949 -0.4779
12698SOL    HW240102  10.772   5.477   5.320 -1.0473 -1.1100 -2.1934
12699SOL     OW40103   2.683   5.640   9.591  0.2938  0.6185  0.5933
12699SOL    HW140104   2.693   5.728   9.628 -0.2746  1.3678 -0.9566
12699SOL    HW240105   2.599   5.609   9.627 -1.0551  1.9776 -1.1960
12700SOL     OW40106   2.136   7.196  10.962  0.2521 -1.1008  0.3817
12700SOL    HW140107   2.121   7.179  11.055  0.1838  0.6895  0.7280
12700SOL    HW240108   2.048   7.202  10.924  0.1590  1.2024  0.8295
12701SOL     OW40109  10.363   8.786  11.069  0.0929  0.1319  0.0973
12701SOL    HW140110  10.382   8.714  11.129  1.4482 -1.2089 -1.8227
12701SOL    HW240111  10.449   8.819  11.042 -0.4862  2.2965  0.6559
12702SOL     OW40112   3.981   4.011   5.545  0.2697  0.3527 -0.1268
12702SOL    HW140113   3.932   4.081   5.501 -0.0988 -0.4712 -1.0535
12702SOL    HW240114   4.027   3.966   5.474  1.0784  0.1007  0.5494
12703SOL     OW40115   3.777   5.518   4.284  0.1616  0.4884 -0.7215
12703SOL    HW140116   3.862   5.550   4.255 -1.0018  2.5397 -2.1075
12703SOL    HW240117   3.733   5.490   4.204 -1.6609  2.5950 -0.5572
12704SOL     OW40118   3.777   6.691   3.261 -0.0704 -0.0658 -0.5315
12704SOL    HW140119   3.809   6.778   3.284  0.1085 -0.9048  2.9517
12704SOL    HW240120   3.701   6.677   3.318  0.5769 -2.5911 -0.1707
12705SOL     OW40121   9.104   0.661   4.459  0.5778  0.5672 -0.4241
12705SOL    HW140122   9.136   0.594   4.519  0.0107 -0.9894 -1.7797
12705SOL    HW240123   9.095   0.616   4.375 -2.4423  1.5914 -0.7789
12706SOL     OW40124   5.942   6.723   9.126  0.4203 -0.2927  0.2537
12706SOL    HW140125   5.895   6.756   9.203  1.0856  2.1288 -0.2657
12706SOL    HW240126   5.874   6.708   9.060  0.1680  1.9177 -0.0660
12707SOL     OW40127   4.203   9.666   2.389  0.1343  0.1114 -0.2194
12707SOL    HW140128   4.246   9.584   2.414 -0.0999 -0.0645 -0.3933
12707SOL    HW240129   4.110   9.646   2.393  0.0843  0.2539 -0.6494
12708SOL     OW40130   0.953   6.208   8.750  0.7859  0.3632 -0.4226
12708SOL    HW140131   0.896   6.139   8.717  0.9979 -0.0613  0.0757
12708SOL    HW240132   0.912   6.290   8.721 -0.5250  0.1094  0.5978
12709SOL     OW40133   7.034   8.169   7.084 -0.5885  0.5356 -0.1741
12709SOL    HW140134   7.103   8.233   7.098  1.1209 -1.1979 -0.3900
12709SOL    HW240135   7.028   8.161   6.989 -1.1656  0.7103 -0.1625
12710SOL     OW40136  10.298   5.732   3.293 -0.3610 -0.0557  0.5213
12710SOL    HW140137  10.367   5.673   3.324  0.7292  0.6064 -0.5870
12710SOL    HW240138  10.231   5.674   3.258 -0.6265 -0.7287  2.0770
12711SOL     OW40139   1.911   6.954   4.045 -0.6479 -0.5322 -0.0623
12711SOL    HW140140   1.996   6.909   4.046 -0.9138 -1.0356  0.9389
12711SOL    HW240141   1.915   7.015   4.119 -1.6740 -1.5908  0.9115
12712SOL     OW40142   0.912  10.172   0.081  0.0343  0.2224  0.1921
12712SOL    HW140143   0.853  10.099   0.062  0.4853 -0.3397  0.9344
12712SOL    HW240144   1.000  10.136   0.072  0.2600  0.5164  1.1517
12713SOL     OW40145   1.871   5.849   2.638  0.3331  0.1225 -0.1126
12713SOL    HW140146   1.853   5.829   2.730  1.8565 -0.3334  0.1193
12713SOL    HW240147   1.809   5.918   2.615 -0.2439  0.0500  1.1864
12714SOL     OW40148   0.422   2.357   4.635 -0.0769 -0.2316 -0.4000
12714SOL    HW140149   0.327   2.351   4.641 -0.2083  1.0026 -0.9311
12714SOL    HW240150   0.438   2.444   4.598  1.2852 -0.0906  0.4510
12715SOL     OW40151   7.238   7.965   5.395 -0.2867 -0.4136  0.0074
12715SOL    HW140152   7.252   7.916   5.476 -3.2973  0.4628  1.1784
12715SOL    HW240153   7.224   7.898   5.328  0.9307 -1.1270  0.4282
12716SOL     OW40154  10.799   5.242   3.698 -1.0176 -0.3547 -0.4944
12716SOL    HW140155  10.784   5.336   3.707  1.2846  0.0037  0.4367
12716SOL    HW240156  10.879   5.235   3.646 -1.0046 -1.7861 -0.3302
12717SOL     OW40157   1.596   4.122   1.629  0.2993  0.7741 -0.0635
12717SOL    HW140158   1.556   4.131   1.542  1.7069 -1.7334 -1.0666
12717SOL    HW240159   1.523   4.097   1.686 -0.1099 -1.1192 -1.3089
12718SOL     OW40160   6.783   7.973   8.584 -0.8686  0.3682 -0.1845
12718SOL    HW140161   6.696   7.990   8.622 -1.4992  0.8108 -1.7548
12718SOL    HW240162   6.818   7.902   8.638 -1.4865  1.2984  1.5290
12719SOL     OW40163   2.391   9.387  10.823  0.0711  0.0832  0.6725
12719SOL    HW140164   2.381   9.385  10.728  1.5064 -1.0218  0.5144
12719SOL    HW240165   2.455   9.457  10.839 -0.5290  0.5984  0.8888
12720SOL     OW40166   3.391   9.697   4.984 -0.3678  0.3808 -0.1242
12720SOL    HW140167   3.444   9.740   4.916  1.3878 -1.0105  0.3107
12720SOL    HW240168   3.387   9.606   4.957 -1.0218  0.1149  0.8271
12721SOL     OW40169   1.555  10.638   5.501  0.5076 -0.1363 -0.1137
12721SOL    HW140170   1.565  10.664   5.410  0.9405  0.2031  0.0303
12721SOL    HW240171   1.626  10.682   5.547 -1.5260  2.2906  0.9268
12722SOL     OW40172   6.345   0.468   5.228 -0.0520  0.1646 -0.1529
12722SOL    HW140173   6.335   0.484   5.322  1.3243  0.2391 -0.0063
12722SOL    HW240174   6.256   0.452   5.197 -0.5696  0.5624  1.0840
12723SOL     OW40175   7.665   6.207   6.541 -0.7359  0.0264 -0.8054
12723SOL    HW140176   7.749   6.161   6.541 -0.6542 -0.0153  2.5940
12723SOL    HW240177   7.618   6.169   6.466  2.4267  0.5969 -3.3316
12724SOL     OW40178   5.644   9.423   1.625 -0.2085  0.1702 -0.1764
12724SOL    HW140179   5.693   9.503   1.646 -0.8298  0.1791  1.4230
12724SOL    HW240180   5.691   9.354   1.672 -0.0329 -0.3264 -1.0580
12725SOL     OW40181   2.109   8.231   0.886 -0.0476  0.3920  0.5167
12725SOL    HW140182   2.090   8.220   0.979 -1.4854  0.4478  0.2572
12725SOL    HW240183   2.118   8.326   0.874  0.3876  0.3688  0.6323
12726SOL     OW40184   7.064   5.108   2.968 -0.2195  0.0226 -0.4326
12726SOL    HW140185   7.102   5.116   3.056  0.4339 -1.1002 -0.5818
12726SOL    HW240186   7.038   5.016   2.962  1.5959 -0.4635 -2.1030
12727SOL     OW40187  10.519   9.973   4.766 -0.7552 -0.3523 -0.1448
12727SOL    HW140188  10.559  10.025   4.695 -1.3936  1.3655  0.6935
12727SOL    HW240189  10.425   9.989   4.757 -0.9580 -1.2810  0.2370
12728SOL     OW40190   0.236   5.655   6.102  0.4829 -0.2373 -0.1384
12728SOL    HW140191   0.242   5.733   6.047 -0.3987 -0.6852 -0.8985
12728SOL    HW240192   0.269   5.683   6.187 -1.3072  1.4329  0.0785
12729SOL     OW40193   7.376   7.892   2.523  0.1424  0.3075  0.3169
12729SOL    HW140194   7.404   7.893   2.614  0.2425  0.7247  0.2854
12729SOL    HW240195   7.378   7.800   2.498  2.8891  0.3982 -0.1257
12730SOL     OW40196   9.229   3.969   9.031  0.1693 -0.2876  0.2653
12730SOL    HW140197   9.167   3.994   8.962  0.0391 -1.1608  0.0535
12730SOL    HW240198   9.315   3.987   8.994  0.1089 -0.9875 -0.2207
12731SOL     OW40199   8.160   9.706   6.306 -0.1985  0.0482 -0.2625
12731SOL    HW140200   8.226   9.700   6.237  0.3881 -0.2402  0.3149
12731SOL    HW240201   8.097   9.638   6.285  0.2623 -0.3955 -0.2127
12732SOL     OW40202   7.450   8.359   0.120 -0.1104  0.0561  0.0331
12732SOL    HW140203   7.453   8.369   0.025  2.2150  0.1749  0.0594
12732SOL    HW240204   7.450   8.449   0.153 -1.1393  0.0169  0.1638
12733SOL     OW40205   2.392   7.445   2.342 -0.6135 -0.4682 -0.1384
12733SOL    HW140206   2.305   7.486   2.335 -0.8401 -0.9930 -0.4253
12733SOL    HW240207   2.422   7.467   2.430 -0.5654  0.6461 -0.4135
12734SOL     OW40208   6.126   0.688   1.665 -0.0407 -0.7259  0.4998
12734SOL    HW140209   6.124   0.594   1.680  0.3725 -0.8731 -0.3221
12734SOL    HW240210   6.202   0.702   1.609  0.0870  0.1387  0.8736
12735SOL     OW40211   0.953   2.489   7.740  0.1759  0.2241 -0.7693
12735SOL    HW140212   0.919   2.556   7.681 -0.0092  0.4486 -0.4098
12735SOL    HW240213   0.956   2.531   7.825  0.1216 -0.2001 -0.5542
12736SOL     OW40214   2.340   1.928   7.556  0.0587  0.5431 -0.5900
12736SOL    HW140215   2.424   1.904   7.597 -0.1574 -1.3026 -1.1622
12736SOL    HW240216   2.352   2.020   7.531  1.3281  0.7973  0.7600
12737SOL     OW40217   1.953   6.263   3.233  0.0271 -0.3972  0.4560
12737SOL    HW140218   1.946   6.322   3.307  1.7421 -2.0781  2.0884
12737SOL    HW240219   1.990   6.183   3.270 -0.9839 -2.0542 -1.8693
12738SOL     OW40220   0.593   7.378   2.904  0.0101  0.2165  0.2735
12738SOL    HW140221   0.574   7.472   2.900  0.4475  0.2840 -0.6782
12738SOL    HW240222   0.518   7.340   2.949  0.3740  1.1601  1.7687
12739SOL     OW40223   5.886   0.653   3.392 -0.1766  0.3259 -0.2927
12739SOL    HW140224   5.962   0.670   3.449 -0.0105 -0.2195 -0.3458
12739SOL    HW240225   5.884   0.558   3.383 -2.3103  0.0945  1.6729
12740SOL     OW40226   1.727   9.096   6.774 -0.3230  0.4160  0.9569
12740SOL    HW140227   1.670   9.172   6.785 -1.8063 -0.5359  0.2157
12740SOL    HW240228   1.765   9.082   6.861 -0.2134  1.8315  1.1634
12741SOL     OW40229  10.481   5.748   0.178  0.2949 -0.2571 -0.5865
12741SOL    HW140230  10.520   5.767   0.093 -0.9866  1.8685 -0.7698
12741SOL    HW240231  10.537   5.794   0.241 -0.1435  0.2151 -0.5373
12742SOL     OW40232   4.248   9.948   2.775  0.3443 -0.4060  0.0971
12742SOL    HW140233   4.158   9.974   2.795 -0.3513 -1.6288 -1.2525
12742SOL    HW240234   4.241   9.857   2.745  1.9554 -0.3636 -0.5334
12743SOL     OW40235   7.821   5.872  10.080  0.2370 -0.3329  0.8588
12743SOL    HW140236   7.749   5.932  10.097  2.0111  2.3998 -0.4564
12743SOL    HW240237   7.897   5.913  10.121  1.7283 -1.1414 -0.9233
12744SOL     OW40238   3.142   1.628   0.201  0.1386  0.0352  0.0879
12744SOL    HW140239   3.212   1.563   0.201 -0.4584 -0.6306  0.6388
12744SOL    HW240240   3.165   1.690   0.270  1.2388  1.0333 -1.1122
12745SOL     OW40241   2.292   9.502   2.457 -0.4759 -0.5918  0.1519
12745SOL    HW140242   2.335   9.555   2.390 -2.2240 -0.1671 -0.7183
12745SOL    HW240243   2.356   9.436   2.482  1.4210  1.2795  0.5270
12746SOL     OW40244   6.045   4.657   9.690  0.4099  0.4128 -0.4341
12746SOL    HW140245   6.084   4.570   9.679  1.0553  0.7414 -0.8002
12746SOL    HW240246   5.959   4.640   9.730  1.2552 -0.2833  1.1941
12747SOL     OW40247   7.771   6.813   2.177 -0.2086  0.3874 -0.1103
12747SOL    HW140248   7.798   6.730   2.139  0.3671  1.0671 -1.2458
12747SOL    HW240249   7.815   6.817   2.262 -0.0563 -0.3444 -0.1476
12748SOL     OW40250   2.598   2.551   1.060 -0.8631  0.2886  0.0184
12748SOL    HW140251   2.524   2.611   1.070 -0.8011  0.4762 -0.5735
12748SOL    HW240252   2.629   2.567   0.971  0.1395  0.5072  0.3912
12749SOL     OW40253   4.696   6.600   3.284  0.0698 -0.2990 -0.0854
12749SOL    HW140254   4.744   6.625   3.363 -0.4824 -1.3943  0.6257
12749SOL    HW240255   4.636   6.531   3.314 -0.1272 -0.7480 -1.4679
12750SOL     OW40256   1.409   7.740   8.512 -0.1109 -0.0725 -0.2776
12750SOL    HW140257   1.439   7.665   8.460 -0.0758 -0.3337  0.1179
12750SOL    HW240258   1.484   7.799   8.515 -0.2547  0.1547 -0.9027
12751SOL     OW40259   6.991   5.905   4.064  0.7798  0.0138  0.4700
12751SOL    HW140260   6.916   5.964   4.074  0.3156 -0.0474 -1.9274
12751SOL    HW240261   7.067   5.959   4.085  0.2738  1.1453 -0.4910
12752SOL     OW40262   3.694   1.286   4.767  0.0880 -0.0680  0.0362
12752SOL    HW140263   3.717   1.305   4.858 -0.7909  0.7498  0.1038
12752SOL    HW240264   3.600   1.268   4.769 -0.1830  1.1004 -0.8632
12753SOL     OW40265  10.176   3.176   1.604 -0.0884 -0.0570  0.7760
12753SOL    HW140266  10.239   3.169   1.532 -0.7245 -1.5366  0.3280
12753SOL    HW240267  10.227   3.214   1.676  0.3754  2.1866 -0.6281
12754SOL     OW40268   5.634   9.447   0.153 -0.0017  0.0550 -0.4504
12754SOL    HW140269   5.564   9.500   0.113 -0.8312 -0.8866 -0.2988
12754SOL    HW240270   5.710   9.461   0.096 -0.6394  0.2064 -1.2888
12755SOL     OW40271   9.440  10.616   2.356 -0.2967  0.1311  0.7800
12755SOL    HW140272   9.392  10.669   2.292 -2.5512 -1.5440  0.9197
12755SOL    HW240273   9.529  10.613   2.322 -1.1747  0.1066 -1.8172
12756SOL     OW40274   6.275   4.426   6.119 -0.5277  0.6122 -0.0119
12756SOL    HW140275   6.331   4.484   6.170  0.3550 -1.2017  1.1901
12756SOL    HW240276   6.237   4.482   6.051  1.0231  2.3596  0.4944
12757SOL     OW40277   4.371   9.245   0.468 -0.0299  0.1507  0.0934
12757SOL    HW140278   4.332   9.287   0.545 -0.4246  1.0292 -0.5693
12757SOL    HW240279   4.299   9.237   0.406  0.1450 -1.0935  0.0095
12758SOL     OW40280   4.412   4.346   5.683 -0.6419  0.1824  0.3242
12758SOL    HW140281   4.386   4.413   5.620 -0.2969  1.4416  1.4758
12758SOL    HW240282   4.506   4.335   5.668 -0.4722  0.7942  0.8697
12759SOL     OW40283   6.184   5.190   2.717 -0.1534 -0.5002  0.5585
12759SOL    HW140284   6.153   5.145   2.796 -0.4735 -1.0780  0.1184
12759SOL    HW240285   6.279   5.188   2.724  0.0570 -4.2707 -0.9908
12760SOL     OW40286   8.727   9.053   9.080  0.0596 -0.4670 -0.5841
12760SOL    HW140287   8.650   9.058   9.023 -0.3007 -1.4571 -0.2055
12760SOL    HW240288   8.698   9.001   9.155  0.9104 -0.2933 -0.1219
12761SOL     OW40289   1.318   4.325   7.127 -0.1155 -0.2896 -0.0697
12761SOL    HW140290   1.314   4.405   7.075  0.4570  0.1727  0.5695
12761SOL    HW240291   1.406   4.292   7.113  0.0470 -0.1531  0.6016
12762SOL     OW40292   4.820   1.658   2.801 -0.2142  0.1630  0.4945
12762SOL    HW140293   4.884   1.713   2.848  0.5574 -0.9848  0.8205
12762SOL    HW240294   4.802   1.707   2.721  4.3193 -1.2663 -1.7350
12763SOL     OW40295   3.074   3.640   2.420 -0.2467 -0.1619  1.1829
12763SOL    HW140296   2.998   3.682   2.461 -0.4122 -0.1424  0.8611
12763SOL    HW240297   3.036   3.575   2.361 -0.0065 -0.2792  1.1577
12764SOL     OW40298   6.921  10.637  10.148 -0.1660  0.0841  0.0635
12764SOL    HW140299   6.976  10.712  10.170  0.6834 -0.8199  1.1365
12764SOL    HW240300   6.906  10.644  10.054 -0.1403  1.6052  0.1481
12765SOL     OW40301   8.413   9.754   5.393 -0.7242 -0.4406 -0.0148
12765SOL    HW140302   8.427   9.847   5.378 -0.2280 -0.2647  1.4081
12765SOL    HW240303   8.414   9.715   5.305  1.5553  0.5428 -0.5058
12766SOL     OW40304   7.545   6.931   2.061  0.1067 -0.1249 -0.0055
12766SOL    HW140305   7.532   6.864   1.994 -0.7471 -2.0368  1.9661
12766SOL    HW240306   7.591   6.886   2.132 -1.7110  0.9315  1.9669
12767SOL     OW40307   2.101   1.894   4.502  0.2417  0.1269 -0.0108
12767SOL    HW140308   2.170   1.955   4.478  0.9678 -0.2806  0.9919
12767SOL    HW240309   2.130   1.810   4.466 -0.0737  0.0918 -0.1871
12768SOL     OW40310   1.610   2.030   1.907 -0.3085  0.1145  0.1179
12768SOL    HW140311   1.703   2.040   1.925 -0.7214  1.0705  1.9855
12768SOL    HW240312   1.587   2.104   1.851  0.1901 -0.6022 -1.0709
12769SOL     OW40313  10.277   1.252   3.054  0.0462  0.3661  0.2088
12769SOL    HW140314  10.241   1.207   2.978  1.8811  0.4163 -0.7638
12769SOL    HW240315  10.256   1.344   3.041  0.0199  0.3230 -0.0453
12770SOL     OW40316  10.632   8.630   2.275  0.7898  0.2048  0.1030
12770SOL    HW140317  10.595   8.607   2.360 -3.0672  3.0837 -0.5224
12770SOL    HW240318  10.647   8.546   2.232 -0.0105 -1.2759  2.5090
12771SOL     OW40319   4.089   2.269   1.153 -0.0018  0.3512 -0.1662
12771SOL    HW140320   4.075   2.359   1.180 -0.9938  0.1360  0.0553
12771SOL    HW240321   4.012   2.247   1.101  0.4338 -0.2339 -0.5747
12772SOL     OW40322   2.624   9.689   1.294 -0.4315 -0.0661 -0.5167
12772SOL    HW140323   2.560   9.749   1.256 -1.1212  0.6862  1.6823
12772SOL    HW240324   2.626   9.614   1.233 -0.6514  1.4773 -2.5435
12773SOL     OW40325   4.566   3.929   5.725  0.2183 -0.1550  0.2850
12773SOL    HW140326   4.570   3.837   5.753  0.1918 -0.3102 -0.2005
12773SOL    HW240327   4.563   3.924   5.629  0.6070  0.3667  0.2418
12774SOL     OW40328   7.446   5.403   2.183  0.4396 -0.3076 -0.3674
12774SOL    HW140329   7.527   5.367   2.147  0.2750 -0.2358 -0.8197
12774SOL    HW240330   7.475   5.463   2.252  0.6965 -1.8153  0.8983
12775SOL     OW40331   7.370   8.111   9.563 -0.5351 -0.0819 -0.0803
12775SOL    HW140332   7.418   8.066   9.493  0.7164 -0.9095  1.2524
12775SOL    HW240333   7.280   8.078   9.555  0.1415 -2.1436  0.2593
12776SOL     OW40334   6.752   9.721   9.644  0.1481  0.0598 -0.4836
12776SOL    HW140335   6.775   9.754   9.558 -0.4245 -0.7753 -0.9748
12776SOL    HW240336   6.794   9.635   9.649  0.2527  0.1385  0.1107
12777SOL     OW40337   8.390   5.843   5.363  0.4069  0.3271  0.1490
12777SOL    HW140338   8.356   5.816   5.278 -0.6814  1.1473  0.2896
12777SOL    HW240339   8.433   5.765   5.398 -1.1757 -0.7432 -0.1536
12778SOL     OW40340   4.245   7.396   4.028  0.5097  0.0891 -0.3885
12778SOL    HW140341   4.254   7.405   4.123  0.1614  1.3094 -0.4479
12778SOL    HW240342   4.157   7.361   4.015  0.8742 -0.8992 -0.2366
12779SOL     OW40343   2.506   9.172  11.035 -0.2103 -0.2661 -0.2826
12779SOL    HW140344   2.588   9.125  11.050 -0.7641 -0.9451  0.7692
12779SOL    HW240345   2.514   9.207  10.946  2.0045  1.3099  0.4317
12780SOL     OW40346   8.304   8.140  10.054  0.8385  0.1155  0.3688
12780SOL    HW140347   8.314   8.234  10.041 -0.3042  0.1348 -0.4701
12780SOL    HW240348   8.352   8.100   9.982 -0.4831  0.1131 -0.5367
12781SOL     OW40349   0.252   5.164   5.172  0.2229  0.0346 -0.5443
12781SOL    HW140350   0.330   5.110   5.175  0.0532 -0.2791 -1.4817
12781SOL    HW240351   0.278   5.242   5.124  0.2184  0.3744 -0.0026
12782SOL     OW40352   0.041   5.332   4.392 -0.1148 -0.0796 -0.1281
12782SOL    HW140353  -0.052   5.327   4.415  0.2285 -1.4789  1.0571
12782SOL    HW240354   0.048   5.279   4.313 -0.2652 -0.2361 -0.0371
12783SOL     OW40355   2.683   1.128   0.119 -0.3191  0.2240  0.6133
12783SOL    HW140356   2.741   1.167   0.184  0.6922 -2.0620  1.1963
12783SOL    HW240357   2.609   1.096   0.169 -0.5556  0.3071  0.3221
12784SOL     OW40358   1.055   8.590  10.118 -0.5457 -0.8566  0.4557
12784SOL    HW140359   1.081   8.674  10.157 -1.4139 -1.6292  2.9169
12784SOL    HW240360   1.129   8.532  10.137 -0.6301 -1.0455  0.1998
12785SOL     OW40361   1.436   1.961   9.932  0.3979  0.4318 -0.2448
12785SOL    HW140362   1.484   1.914  10.001  0.4390  1.2151  0.2763
12785SOL    HW240363   1.434   2.052   9.962 -0.7903  0.5447 -0.6076
12786SOL     OW40364   1.222   9.590  10.999 -0.5461 -0.5407  0.8342
12786SOL    HW140365   1.212   9.650  11.072 -1.4105 -0.2648  0.4971
12786SOL    HW240366   1.220   9.645  10.921  0.8732 -0.7713  0.5943
12787SOL     OW40367   4.514   7.241   3.525 -0.3620 -0.0989  0.0774
12787SOL    HW140368   4.461   7.164   3.507 -1.3804  0.4717  0.5432
12787SOL    HW240369   4.588   7.235   3.464 -1.5562 -0.3091 -1.4086
12788SOL     OW40370   0.437   8.912   0.132 -0.0369 -0.1498 -0.1342
12788SOL    HW140371   0.379   8.987   0.119  0.8586  0.4865 -0.5080
12788SOL    HW240372   0.472   8.924   0.221  0.3435  0.0336 -0.3108
12789SOL     OW40373   3.000   6.003   3.495  0.9225  0.1163 -0.2973
12789SOL    HW140374   2.948   6.005   3.415  0.6625 -0.1184 -0.1348
12789SOL    HW240375   3.083   5.963   3.468  1.1855  0.8717 -0.6470
12790SOL     OW40376   3.929   1.609   3.567 -0.5023  0.2423 -0.1968
12790SOL    HW140377   4.016   1.624   3.604 -0.8055  0.3155  0.5186
12790SOL    HW240378   3.944   1.552   3.492  0.0468 -0.7349  0.6281
12791SOL     OW40379   2.274   0.656  10.355 -0.0948 -0.6831  0.1666
12791SOL    HW140380   2.249   0.708  10.279 -1.0983 -1.3090  0.0570
12791SOL    HW240381   2.351   0.701  10.390 -0.0216 -0.0091 -0.8203
12792SOL     OW40382   1.532   2.483   8.738  0.3171 -0.7008  0.0462
12792SOL    HW140383   1.557   2.406   8.789 -1.8865 -0.4849  1.6233
12792SOL    HW240384   1.438   2.492   8.755  0.3547  1.8322 -0.7868
12793SOL     OW40385   7.920   6.937   4.497 -0.3712  0.2106  0.1858
12793SOL    HW140386   7.829   6.942   4.527 -0.4735 -1.4220  0.2428
12793SOL    HW240387   7.970   6.914   4.575  0.0313  0.6280  0.0542
12794SOL     OW40388   1.123   7.874   2.715  0.3155 -0.8139  0.0181
12794SOL    HW140389   1.178   7.800   2.689 -0.6976 -1.3297 -0.7146
12794SOL    HW240390   1.081   7.903   2.634 -1.3862 -1.1754  0.7260
12795SOL     OW40391   6.403   5.383   2.505 -0.1843 -0.0679 -0.9952
12795SOL    HW140392   6.343   5.441   2.553  0.8030  0.5775 -0.5208
12795SOL    HW240393   6.476   5.369   2.564  1.1057  0.8214 -2.3205
12796SOL     OW40394   9.609   3.697   2.141 -0.1344 -0.1492  0.2080
12796SOL    HW140395   9.607   3.625   2.078  0.1291 -0.8697  0.9910
12796SOL    HW240396   9.519   3.707   2.170 -0.6142  1.5034 -1.6909
12797SOL     OW40397   4.749  10.526   0.427  0.0611  0.1334 -0.1086
12797SOL    HW140398   4.827  10.475   0.449  0.0764  0.2065  0.0097
12797SOL    HW240399   4.732  10.505   0.335  0.5554  0.5553 -0.3034
12798SOL     OW40400   7.711   2.238   9.965 -0.1922  0.2900  0.5256
12798SOL    HW140401   7.672   2.190   9.892 -0.6736 -0.0469  0.9924
12798SOL    HW240402   7.672   2.198  10.043 -1.9033  2.5034  0.9131
12799SOL     OW40403   9.997   9.768   5.565 -0.6583 -0.2048  0.0574
12799SOL    HW140404  10.016   9.727   5.480  0.6687 -1.2507  0.8151
12799SOL    HW240405  10.039   9.854   5.560  1.4104 -1.1321  0.4212
12800SOL     OW40406   1.367   9.703   1.086 -0.5369 -0.5085 -0.4080
12800SOL    HW140407   1.415   9.691   1.168 -0.0374 -2.0456 -0.8889
12800SOL    HW240408   1.421   9.763   1.035 -0.3016 -0.4136 -0.0527
12801SOL     OW40409   3.202   9.022  10.779  0.4763  0.0336 -0.0892
12801SOL    HW140410   3.261   9.096  10.794  0.1710  0.7799 -2.2215
12801SOL    HW240411   3.260   8.947  10.766  0.8133 -1.0918  5.5345
12802SOL     OW40412   3.234   0.611   3.885 -0.4191  0.1421 -0.3430
12802SOL    HW140413   3.289   0.686   3.862 -0.8082  0.4302 -0.3288
12802SOL    HW240414   3.243   0.603   3.980  3.4718 -2.7728 -0.6795
12803SOL     OW40415   6.865   9.495   4.709 -0.1788 -0.4294  0.3732
12803SOL    HW140416   6.903   9.544   4.636  1.7837 -1.8177  0.3953
12803SOL    HW240417   6.849   9.407   4.674  1.2035 -1.2518  1.6887
12804SOL     OW40418   1.423   7.164   6.788 -0.7119  0.3833  0.1184
12804SOL    HW140419   1.337   7.133   6.763  0.0362 -0.1892 -1.9023
12804SOL    HW240420   1.407   7.249   6.829 -2.1312  0.9600 -1.5241
12805SOL     OW40421   8.460   7.549   2.131  0.1294 -0.2491 -0.0477
12805SOL    HW140422   8.485   7.621   2.189  1.3283 -1.2877  0.7914
12805SOL    HW240423   8.543   7.505   2.110 -0.6073 -1.6780 -0.1064
12806SOL     OW40424   1.207   9.310   2.137 -0.0340  0.0863 -0.1330
12806SOL    HW140425   1.206   9.274   2.049 -1.8550  1.6829 -0.8390
12806SOL    HW240426   1.220   9.404   2.124  3.3739 -0.0006  1.5507
12807SOL     OW40427   1.139   9.917   0.866 -0.2227  0.0544 -0.3261
12807SOL    HW140428   1.066   9.886   0.812  1.3929 -1.7067 -1.6361
12807SOL    HW240429   1.216   9.870   0.832  1.5802  1.9950  0.8272
12808SOL     OW40430   4.562  10.448   2.824  0.1535 -0.4161  0.8773
12808SOL    HW140431   4.482  10.501   2.820  0.3717 -0.1360  0.1508
12808SOL    HW240432   4.620  10.496   2.884  0.5037  0.3992 -0.0805
12809SOL     OW40433   6.609  10.081   2.728 -0.4275 -0.1105  0.3147
12809SOL    HW140434   6.619  10.100   2.821 -1.4421  2.0030  0.0756
12809SOL    HW240435   6.651  10.156   2.684  0.4402 -1.2921 -0.9546
12810SOL     OW40436   1.146  10.981  10.952  0.5606 -0.2830 -0.7677
12810SOL    HW140437   1.141  10.896  10.995  0.8824  0.8719  1.7501
12810SOL    HW240438   1.235  10.985  10.916  1.5524  0.0108  1.5533
12811SOL     OW40439   1.692  10.718   2.160  0.0907 -0.0273  0.3027
12811SOL    HW140440   1.652  10.716   2.247 -1.7004 -0.1690 -0.4737
12811SOL    HW240441   1.732  10.631   2.150  1.2569  0.3576  1.3651
12812SOL     OW40442   0.600   8.778   5.358  0.2539 -0.0175  0.2864
12812SOL    HW140443   0.626   8.823   5.438 -3.1229  1.4098  0.7113
12812SOL    HW240444   0.642   8.828   5.288  1.4812 -0.0001  0.9935
12813SOL     OW40445   4.349  10.331   5.107 -0.1965  0.1240  0.2248
12813SOL    HW140446   4.358  10.314   5.014 -0.4887 -0.9689  0.3873
12813SOL    HW240447   4.439  10.343   5.138  0.0484 -1.1619  0.0849
12814SOL     OW40448   8.949  10.764  10.894 -0.1626 -0.1664  0.1470
12814SOL    HW140449   8.882  10.826  10.924 -0.3678  0.2455 -1.1207
12814SOL    HW240450   9.007  10.754  10.969 -1.2835 -0.0373  1.0574
12815SOL     OW40451   9.787   2.944   1.787  0.0385 -0.4651  0.4950
12815SOL    HW140452   9.790   2.933   1.882  1.6893  1.9110  0.8029
12815SOL    HW240453   9.859   2.890   1.754  1.7658  1.3774  1.0212
12816SOL     OW40454   1.754   8.071   1.567  0.0961 -0.6222  0.1527
12816SOL    HW140455   1.686   8.040   1.626 -1.0772  2.9477  0.8891
12816SOL    HW240456   1.744   8.017   1.488 -3.8370 -0.0785  0.1077
12817SOL     OW40457   0.540   8.306   1.688 -0.2727 -0.0534 -0.3357
12817SOL    HW140458   0.587   8.223   1.688 -1.4359 -0.8092  2.2083
12817SOL    HW240459   0.448   8.283   1.681 -0.7515  0.7891  1.9844
12818SOL     OW40460   2.642   6.485   1.818  0.1024 -0.2524  0.3212
12818SOL    HW140461   2.623   6.565   1.770 -3.2301 -0.9379  0.2462
12818SOL    HW240462   2.628   6.507   1.910  2.2302 -0.0482  0.6530
12819SOL     OW40463   6.821   7.581   3.723 -0.2918 -0.3655  0.2709
12819SOL    HW140464   6.796   7.494   3.754  0.9694 -0.9763 -0.3648
12819SOL    HW240465   6.909   7.570   3.688 -0.7782  0.7875 -1.4498
12820SOL     OW40466  11.042   3.470   3.389 -0.4617 -0.2835 -0.3911
12820SOL    HW140467  11.103   3.405   3.424 -2.2102 -2.0134 -0.3880
12820SOL    HW240468  11.015   3.521   3.466  0.2964 -0.0708 -0.2557
12821SOL     OW40469  10.182  10.064   9.457 -0.4211 -0.0601 -0.3419
12821SOL    HW140470  10.204  10.132   9.392 -1.3755  0.5592 -0.0406
12821SOL    HW240471  10.110  10.015   9.417  0.9450 -1.6073 -1.0115
12822SOL     OW40472   7.023  10.279   0.335 -0.3243  0.0617 -0.5118
12822SOL    HW140473   7.085  10.316   0.399 -0.0888 -1.1043 -0.0255
12822SOL    HW240474   7.042  10.185   0.337 -1.2726 -0.1519 -1.2882
12823SOL     OW40475   7.317   7.230   1.418  0.4513 -0.1508 -0.4836
12823SOL    HW140476   7.343   7.317   1.448  1.0529 -0.1856 -0.8803
12823SOL    HW240477   7.281   7.245   1.330 -0.0775 -0.2149 -0.2790
12824SOL     OW40478   3.866   5.720   5.032  0.1611  0.2574  0.5415
12824SOL    HW140479   3.951   5.702   5.072  0.1586  1.4172  1.0909
12824SOL    HW240480   3.865   5.814   5.019 -0.9263  0.2183  0.2437
12825SOL     OW40481   0.535   7.436   0.713  0.0956  0.3306 -0.0724
12825SOL    HW140482   0.588   7.433   0.634 -0.5214 -2.1927 -0.4586
12825SOL    HW240483   0.477   7.511   0.699  0.4842  0.3679 -1.6860
12826SOL     OW40484   6.985   1.329   1.742 -0.2823  0.1895  0.1598
12826SOL    HW140485   7.007   1.406   1.794 -0.2311 -0.1663  0.6670
12826SOL    HW240486   7.006   1.254   1.799 -1.6991 -0.1794  0.2215
12827SOL     OW40487   0.977   7.450  10.101  0.3688  0.2972  0.3284
12827SOL    HW140488   1.050   7.509  10.087  1.4504 -1.4213 -1.8082
12827SOL    HW240489   1.014   7.378  10.153  0.0918 -0.3375 -0.3329
12828SOL     OW40490  10.876   8.542   2.607  0.1831  0.0667 -0.1739
12828SOL    HW140491  10.842   8.585   2.685  0.8782 -1.5368  1.0718
12828SOL    HW240492  10.931   8.471   2.641 -0.7604 -1.6849 -2.1048
12829SOL     OW40493  10.051   8.082   7.845 -0.0087 -0.7274  0.5184
12829SOL    HW140494  10.090   8.005   7.886  0.5120 -1.1216 -0.6619
12829SOL    HW240495   9.978   8.047   7.794 -0.6968 -0.2389  1.1544
12830SOL     OW40496   0.677   6.764  10.321 -0.3030  0.1807  0.0513
12830SOL    HW140497   0.587   6.744  10.295 -0.3895 -0.3730  0.7642
12830SOL    HW240498   0.675   6.856  10.345 -0.5401  0.3293 -0.5310
12831SOL     OW40499   6.278   9.807   6.053  0.0926 -0.5449  0.8132
12831SOL    HW140500   6.297   9.713   6.045  0.9839 -0.3535  0.6499
12831SOL    HW240501   6.254   9.819   6.145 -1.7425 -1.2222  0.4825
12832SOL     OW40502   1.237  10.437  11.071 -0.3946 -0.2169  0.1424
12832SOL    HW140503   1.302  10.506  11.060  0.6364 -1.1852 -0.0499
12832SOL    HW240504   1.185  10.465  11.146  0.4361  0.4384  0.4881
12833SOL     OW40505   5.289   5.884   7.063 -0.3204 -0.3354 -0.2175
12833SOL    HW140506   5.368   5.938   7.069 -0.3335 -0.1319 -1.5379
12833SOL    HW240507   5.292   5.828   7.140  0.6300  0.3168  0.2388
12834SOL     OW40508   0.918   4.010   9.001  0.0232  0.4441 -0.3681
12834SOL    HW140509   0.895   4.066   8.927  0.4658  0.8739 -0.1769
12834SOL    HW240510   0.987   3.953   8.967 -0.8562 -0.4322 -0.7539
12835SOL     OW40511  10.364  10.760   1.512 -0.3583  0.1254 -0.4059
12835SOL    HW140512  10.385  10.815   1.437 -2.4863  0.8620 -0.5079
12835SOL    HW240513  10.450  10.736   1.548  0.6648  1.6492 -1.6833
12836SOL     OW40514   6.459   8.461   8.606  0.0588  0.2766  1.0594
12836SOL    HW140515   6.423   8.548   8.622  1.5091  1.4464 -1.3846
12836SOL    HW240516   6.401   8.423   8.540  0.0496 -0.1577  1.3201
12837SOL     OW40517   9.339  10.262   4.232  0.2537 -0.4190  0.3108
12837SOL    HW140518   9.272  10.242   4.297  0.6830  1.0728  1.2694
12837SOL    HW240519   9.332  10.192   4.167 -0.9587 -1.3127  1.3660
12838SOL     OW40520   3.624   1.187  10.181  0.1860 -0.4984 -0.5492
12838SOL    HW140521   3.604   1.262  10.126  1.0303 -0.6059 -1.0185
12838SOL    HW240522   3.719   1.185  10.186  0.1327 -0.1757  1.3707
12839SOL     OW40523   9.490   3.913   6.084 -0.2230 -0.7985  0.1805
12839SOL    HW140524   9.534   3.862   6.153  1.4267 -1.4253 -1.2666
12839SOL    HW240525   9.419   3.857   6.054 -0.2353 -1.0125  0.5985
12840SOL     OW40526   9.470   5.838   5.014  1.0361  0.1606 -0.0185
12840SOL    HW140527   9.495   5.879   4.931  1.6671 -1.6494 -0.7753
12840SOL    HW240528   9.433   5.754   4.989 -0.7658  0.4573  1.4415
12841SOL     OW40529   3.561   3.404   1.109 -0.2123  0.1242 -0.1129
12841SOL    HW140530   3.599   3.402   1.021  0.5035 -0.0892  0.1932
12841SOL    HW240531   3.499   3.331   1.110 -1.3055  1.0062 -0.9008
12842SOL     OW40532   5.352   9.537   5.554 -0.1553 -0.6519  0.5968
12842SOL    HW140533   5.301   9.570   5.628 -0.9644  2.5990 -1.1979
12842SOL    HW240534   5.439   9.576   5.567 -0.6092  0.8776 -0.6225
12843SOL     OW40535  10.657  10.060   3.920  0.2897 -0.1828 -0.5493
12843SOL    HW140536  10.573  10.061   3.965  0.9210  2.0070  0.7587
12843SOL    HW240537  10.635  10.043   3.829 -1.3953 -1.1718 -0.0107
12844SOL     OW40538   2.564  10.225  10.160  0.1356 -0.9786 -0.4178
12844SOL    HW140539   2.639  10.194  10.212  0.8526 -1.4956 -1.7177
12844SOL    HW240540   2.535  10.148  10.111 -0.1919 -0.3888 -1.1726
12845SOL     OW40541   0.100   9.292   6.420  0.3654  0.9723 -0.1870
12845SOL    HW140542   0.062   9.256   6.499  0.1628  0.4110 -0.5325
12845SOL    HW240543   0.064   9.239   6.349  0.6982  1.3348 -0.6392
12846SOL     OW40544   8.737   7.409   0.810  0.1034  0.4110 -0.3421
12846SOL    HW140545   8.786   7.327   0.814  0.3023  0.5720  1.2022
12846SOL    HW240546   8.776   7.456   0.737 -1.4548 -1.7237 -2.7013
12847SOL     OW40547   2.209   5.773   5.274  0.1273  0.2168  0.6928
12847SOL    HW140548   2.167   5.709   5.332  0.6046  0.8729  1.7849
12847SOL    HW240549   2.268   5.822   5.331 -0.9125  2.2796  0.0910
12848SOL     OW40550   6.071   7.410   5.642 -0.1392  0.8070  0.0011
12848SOL    HW140551   6.112   7.496   5.629  1.7318  0.1099  0.9616
12848SOL    HW240552   6.125   7.349   5.592 -0.0597 -0.1250  1.1734
12849SOL     OW40553   3.827   0.506   3.078 -0.7243  0.3227  0.0282
12849SOL    HW140554   3.784   0.449   3.142  1.8401 -0.5658  1.1194
12849SOL    HW240555   3.859   0.580   3.130 -0.2522  0.5399 -0.5586
12850SOL     OW40556   1.534   5.355   9.557 -0.3528  0.4450 -0.1957
12850SOL    HW140557   1.610   5.312   9.596 -0.9166  0.2774  0.7566
12850SOL    HW240558   1.485   5.285   9.515 -0.5018  0.3796  0.0795
12851SOL     OW40559   6.746   8.261   7.210 -0.2882 -0.2919 -0.4384
12851SOL    HW140560   6.777   8.266   7.300  0.1470 -3.3662 -0.2984
12851SOL    HW240561   6.825   8.244   7.158 -0.5871  1.0045 -1.3815
12852SOL     OW40562  11.004   5.327   7.626  0.1125 -0.5353 -0.1623
12852SOL    HW140563  10.940   5.389   7.592  0.4508  0.6154  1.1943
12852SOL    HW240564  11.005   5.342   7.720  3.1737  0.3217 -0.2304
12853SOL     OW40565   5.324  10.479   6.149 -0.2208 -0.1079  0.0050
12853SOL    HW140566   5.327  10.548   6.215 -1.7700 -0.6487  0.7028
12853SOL    HW240567   5.319  10.525   6.066 -1.2299  0.6350  0.4634
12854SOL     OW40568   2.821   8.764   4.576  0.5573 -0.1437  0.4207
12854SOL    HW140569   2.732   8.772   4.609  0.6772  1.1096  0.4817
12854SOL    HW240570   2.810   8.740   4.484  0.1934 -1.3700  0.7622
12855SOL     OW40571   6.998   1.932   6.053 -0.3108  0.4309 -0.1199
12855SOL    HW140572   7.014   1.941   6.147 -1.2943  0.0794  0.0936
12855SOL    HW240573   6.924   1.990   6.035 -1.2207 -0.7428 -0.3365
12856SOL     OW40574   3.308  11.043   5.726 -0.4289  0.1600  0.3154
12856SOL    HW140575   3.294  10.951   5.701 -1.1841  0.5222 -0.6371
12856SOL    HW240576   3.340  11.085   5.647 -0.6364  0.8488  0.5913
12857SOL     OW40577   2.802   2.295   2.413 -0.4118 -0.0376 -0.0401
12857SOL    HW140578   2.894   2.275   2.431 -0.8409  0.1912  2.8501
12857SOL    HW240579   2.754   2.216   2.440 -1.2941  1.0763  1.8059
12858SOL     OW40580   3.119   9.808   5.383 -0.0106 -0.2737  0.1801
12858SOL    HW140581   3.161   9.874   5.328 -1.3081  1.0767  0.7257
12858SOL    HW240582   3.025   9.820   5.368 -0.6744  1.9656  4.4179
12859SOL     OW40583   0.660  10.950   8.668 -0.0856  0.0066 -0.3097
12859SOL    HW140584   0.665  10.909   8.582  1.3906  0.1918 -0.3412
12859SOL    HW240585   0.715  11.028   8.661  0.7462 -0.4156  1.0129
12860SOL     OW40586   1.631   3.672   4.114  0.8491 -0.6184 -0.0770
12860SOL    HW140587   1.702   3.709   4.166  1.1619 -1.7467  0.3355
12860SOL    HW240588   1.559   3.661   4.176  0.5634 -0.1792 -0.3252
12861SOL     OW40589   9.711   8.235   0.887 -0.1972  0.1750  0.0233
12861SOL    HW140590   9.686   8.205   0.975 -0.9348  0.3824 -0.1106
12861SOL    HW240591   9.729   8.154   0.839 -0.3942  0.0326  0.1883
12862SOL     OW40592   4.304   1.586   0.441 -0.1603  0.0158 -0.2394
12862SOL    HW140593   4.294   1.657   0.377  2.3026  1.9822  1.3784
12862SOL    HW240594   4.292   1.628   0.526 -1.0629 -2.0596  0.7424
12863SOL     OW40595   2.860   5.943   6.785 -0.0064  0.2967 -0.3288
12863SOL    HW140596   2.910   5.982   6.714 -0.1628  0.8010 -0.1650
12863SOL    HW240597   2.815   5.868   6.745  0.0516  0.4710 -0.7146
12864SOL     OW40598   8.872   4.560   4.969  0.0834 -0.1143 -0.5517
12864SOL    HW140599   8.782   4.573   4.938  0.1089  2.4772  0.2133
12864SOL    HW240600   8.924   4.622   4.918  0.9932  0.3152  0.8446
12865SOL     OW40601   9.218   0.226   9.023 -0.6163 -0.5739  0.4096
12865SOL    HW140602   9.299   0.186   9.056 -0.2744 -0.5155 -0.3426
12865SOL    HW240603   9.240   0.255   8.935 -1.3145 -0.0923  0.3880
12866SOL     OW40604   6.707   3.577   9.222 -0.6983  0.1996 -0.4359
12866SOL    HW140605   6.699   3.556   9.129 -0.9204  0.1159 -0.3992
12866SOL    HW240606   6.768   3.651   9.225 -2.0436  1.3939 -0.8143
12867SOL     OW40607   1.957   3.323   7.701 -0.2435 -0.3458  0.7463
12867SOL    HW140608   1.999   3.361   7.624 -1.4726  1.1603  0.7596
12867SOL    HW240609   1.865   3.313   7.676 -1.1981  2.3641  2.6772
12868SOL     OW40610   0.938   5.878   1.519  0.1856  0.1689  0.4796
12868SOL    HW140611   0.912   5.937   1.590 -3.0254 -0.6146  0.1414
12868SOL    HW240612   0.982   5.935   1.456 -1.8379  2.0682  0.6463
12869SOL     OW40613   5.163   9.992   4.392 -0.0865 -0.0789 -0.3422
12869SOL    HW140614   5.199   9.905   4.375  0.0551 -0.1109  0.1194
12869SOL    HW240615   5.197  10.016   4.478 -1.2926 -0.1727  0.1798
12870SOL     OW40616   2.317  10.713   2.240 -0.0176  0.1238  0.0272
12870SOL    HW140617   2.297  10.763   2.161 -0.4376 -0.0327  0.0305
12870SOL    HW240618   2.232  10.701   2.283  0.0359 -0.8535 -0.1282
12871SOL     OW40619   5.779   1.938   2.175  0.0736 -0.3256 -0.0160
12871SOL    HW140620   5.824   1.922   2.257 -0.8886  0.2209  0.6332
12871SOL    HW240621   5.709   2.000   2.197 -1.9043 -2.1793 -0.6848
12872SOL     OW40622  10.941   2.734   0.085 -0.7709 -0.5080 -0.0688
12872SOL    HW140623  11.025   2.765   0.118 -1.2493  0.3038  0.4218
12872SOL    HW240624  10.929   2.783   0.003 -1.0453 -0.1643  0.1748
12873SOL     OW40625   2.814   6.852   5.339 -0.2516  0.2876  0.0747
12873SOL    HW140626   2.834   6.945   5.345 -0.0238  0.2129  0.4976
12873SOL    HW240627   2.759   6.835   5.415 -0.5233  0.1314 -0.1539
12874SOL     OW40628   5.658   7.697   6.907  0.3160  0.5844  0.1839
12874SOL    HW140629   5.631   7.757   6.978  0.5981 -0.4629  1.2048
12874SOL    HW240630   5.576   7.658   6.877  0.3745 -0.4788  1.3432
12875SOL     OW40631   2.049   2.603   7.589  0.2877  0.0049 -0.0488
12875SOL    HW140632   2.105   2.680   7.595 -0.4559  0.4582  2.0416
12875SOL    HW240633   1.965   2.636   7.557  0.2902 -0.1149 -0.1796
12876SOL     OW40634   0.810   6.009   3.524  0.3577 -0.1122  0.2463
12876SOL    HW140635   0.744   5.940   3.511  0.1008  0.1988 -0.0913
12876SOL    HW240636   0.759   6.088   3.542  0.5692  0.5436 -1.8602
12877SOL     OW40637   3.331   7.817   8.772  0.6114 -0.1144  0.1601
12877SOL    HW140638   3.410   7.831   8.719  0.0170  1.8952 -0.3040
12877SOL    HW240639   3.304   7.728   8.752  1.9833 -0.3586 -0.7561
12878SOL     OW40640   2.303   6.614   3.665 -0.5625 -0.6978 -0.4277
12878SOL    HW140641   2.285   6.596   3.573 -1.5183  0.2945 -0.4523
12878SOL    HW240642   2.324   6.707   3.668 -1.1921 -0.5673  0.4374
12879SOL     OW40643   3.377   9.641  10.014  0.7125 -0.1069 -0.3182
12879SOL    HW140644   3.437   9.643   9.940 -0.3421  2.2144 -1.2115
12879SOL    HW240645   3.300   9.594   9.981  1.0117 -0.8437  0.0015
12880SOL     OW40646   5.761  10.338   7.315 -0.3516  0.2025  0.3687
12880SOL    HW140647   5.728  10.405   7.375 -0.9258  2.3172 -2.1264
12880SOL    HW240648   5.683  10.290   7.287 -0.2414 -0.0320  0.4620
12881SOL     OW40649   2.602   7.609   7.193 -0.0297 -0.3483  0.0345
12881SOL    HW140650   2.665   7.568   7.135 -0.1454 -0.5102  0.0213
12881SOL    HW240651   2.606   7.702   7.172 -0.2895 -0.4422 -0.4423
12882SOL     OW40652   2.498   7.805   3.408 -0.0799 -0.7836  0.1371
12882SOL    HW140653   2.447   7.832   3.332  0.1995 -0.2321  0.1454
12882SOL    HW240654   2.494   7.879   3.468  1.7846 -0.1998 -0.3896
12883SOL     OW40655   8.496   0.689   8.904  0.4682 -0.0017  0.0466
12883SOL    HW140656   8.475   0.683   8.998  0.4007 -1.7189 -0.0514
12883SOL    HW240657   8.589   0.668   8.899  0.8571  1.6500 -0.1382
12884SOL     OW40658   3.556   9.635   6.980  0.1345  0.3377 -0.4114
12884SOL    HW140659   3.467   9.659   6.954 -0.3960  0.2633  1.2091
12884SOL    HW240660   3.555   9.540   6.986 -0.3719  0.4299  1.7716
12885SOL     OW40661   4.495   0.440   1.769  0.5265 -0.4902  0.3593
12885SOL    HW140662   4.438   0.494   1.715  1.7843  1.4089  0.8581
12885SOL    HW240663   4.544   0.386   1.706 -0.2940 -0.6305 -0.1774
12886SOL     OW40664   5.512   9.864   4.704  0.0205 -0.0069  0.0054
12886SOL    HW140665   5.515   9.786   4.761 -4.3272 -0.0784  0.4752
12886SOL    HW240666   5.556   9.932   4.755 -0.8552 -0.8820  2.0498
12887SOL     OW40667   0.395   4.626   2.756  0.4897 -0.3907 -0.2388
12887SOL    HW140668   0.333   4.667   2.817  0.5661 -0.6327  0.0010
12887SOL    HW240669   0.360   4.648   2.670  1.0997  1.1081 -0.1478
12888SOL     OW40670   4.914   7.658  11.045  0.2278  0.2039 -0.1719
12888SOL    HW140671   4.961   7.581  11.077 -0.0421  0.1266  0.0404
12888SOL    HW240672   4.921   7.653  10.950 -0.9372 -0.8151 -0.2246
12889SOL     OW40673   8.708   7.050   3.018  0.3472 -0.1778 -0.4880
12889SOL    HW140674   8.659   7.103   3.081  0.7071 -0.1669 -0.2115
12889SOL    HW240675   8.661   7.062   2.935 -0.0446 -0.0758 -0.2540
12890SOL     OW40676   0.444   2.446   5.695 -0.5739 -0.1505  0.0429
12890SOL    HW140677   0.461   2.434   5.789  0.3216  0.2968 -0.0577
12890SOL    HW240678   0.353   2.476   5.691 -0.1836  1.2254  0.8803
12891SOL     OW40679  10.874  10.626   8.800  0.3297 -0.0849  0.3324
12891SOL    HW140680  10.947  10.683   8.826  0.1345 -0.5689  2.0606
12891SOL    HW240681  10.889  10.545   8.849  0.3509 -1.4017 -1.7237
12892SOL     OW40682   1.925   9.566   4.826  0.0784  0.1686 -0.0736
12892SOL    HW140683   1.914   9.485   4.774 -1.4305  0.2595  0.0535
12892SOL    HW240684   1.943   9.633   4.761 -1.7634  0.2729 -0.5447
12893SOL     OW40685   0.449   8.895   0.662  0.0308  0.7484  0.0902
12893SOL    HW140686   0.421   8.861   0.577  1.2566  0.7322 -0.3296
12893SOL    HW240687   0.422   8.987   0.661 -0.2973  0.6531 -0.1520
12894SOL     OW40688   6.113   7.908  10.106  0.2475  0.2118 -0.2968
12894SOL    HW140689   6.200   7.926  10.140 -0.0665  2.6536 -0.5928
12894SOL    HW240690   6.069   7.993  10.107 -2.2246 -0.9983  0.0618
12895SOL     OW40691   2.832   0.304   3.565 -0.0258  0.3812  0.3223
12895SOL    HW140692   2.771   0.357   3.617  0.5533  0.5720  0.8170
12895SOL    HW240693   2.777   0.262   3.500 -0.5482  1.3779  0.0923
12896SOL     OW40694   5.607   7.311   6.626 -0.2090 -0.7716  0.6573
12896SOL    HW140695   5.629   7.353   6.543  1.3100 -1.3744  0.7189
12896SOL    HW240696   5.512   7.323   6.635 -0.3938 -0.6714 -1.1325
12897SOL     OW40697   0.914   4.096   3.851 -0.4078 -0.3735  0.0346
12897SOL    HW140698   0.996   4.105   3.802 -0.5317 -1.3430 -0.3806
12897SOL    HW240699   0.869   4.023   3.809 -0.1613 -1.8011  2.0591
12898SOL     OW40700   3.007   9.337   6.723 -0.3010  0.2117  0.2257
12898SOL    HW140701   2.999   9.386   6.641  0.5143  0.7594  0.4582
12898SOL    HW240702   3.099   9.310   6.726 -0.6685 -1.1188  0.2376
12899SOL     OW40703   0.263  10.957   7.579 -0.5630 -0.0559  0.4295
12899SOL    HW140704   0.280  10.874   7.535  0.3140  0.9201 -1.1577
12899SOL    HW240705   0.169  10.971   7.569 -0.9022 -1.2906  1.5700
12900SOL     OW40706   5.799   4.724   3.091  0.0684 -0.3811 -0.3075
12900SOL    HW140707   5.711   4.754   3.116 -0.0868 -0.5678 -0.6183
12900SOL    HW240708   5.783   4.655   3.026  0.4321 -0.8119  0.0538
12901SOL     OW40709   7.370   8.647   6.176 -0.0956 -0.0502 -0.0321
12901SOL    HW140710   7.390   8.698   6.255 -0.8372  0.6225 -0.2635
12901SOL    HW240711   7.289   8.601   6.198 -0.4605  0.3611 -0.4941
12902SOL     OW40712   7.258   0.621   2.930 -0.0212  0.2600 -0.0711
12902SOL    HW140713   7.353   0.617   2.918 -0.1610 -0.2581 -1.0689
12902SOL    HW240714   7.247   0.637   3.024  1.0407 -0.1459  0.1412
12903SOL     OW40715   2.815   3.291   6.088 -0.1012  0.2447 -0.7086
12903SOL    HW140716   2.796   3.382   6.113  0.3564  0.2129 -0.2210
12903SOL    HW240717   2.765   3.277   6.008  0.7802  1.3367 -1.4858
12904SOL     OW40718   7.184  10.570  10.697 -0.1155  0.2683 -0.9434
12904SOL    HW140719   7.221  10.566  10.785 -1.0330 -0.6995 -0.5792
12904SOL    HW240720   7.251  10.529  10.641  0.4832  0.9170 -0.7108
12905SOL     OW40721   5.379   2.618   7.044 -0.3867 -0.2526 -0.2676
12905SOL    HW140722   5.417   2.660   6.967  0.1372  0.1478  0.1966
12905SOL    HW240723   5.386   2.685   7.113 -1.7408 -0.2471 -0.1109
12906SOL     OW40724   8.709   7.725   6.529 -0.2300  0.4843  0.2450
12906SOL    HW140725   8.684   7.751   6.441  0.7769  0.2221 -0.1310
12906SOL    HW240726   8.733   7.633   6.521 -2.2089 -0.1790  1.2422
12907SOL     OW40727   5.969   9.755   6.190  0.1553  0.1028  0.3469
12907SOL    HW140728   6.033   9.710   6.245 -0.7965 -0.9005  0.6687
12907SOL    HW240729   5.892   9.765   6.245  0.1553  1.7233  0.1121
12908SOL     OW40730   1.021   0.473   3.767  0.3849  0.2112 -0.8377
12908SOL    HW140731   1.077   0.469   3.845 -1.3691  1.4996  0.6015
12908SOL    HW240732   1.044   0.395   3.717  2.8895  0.3035  0.0288
12909SOL     OW40733   3.303  10.228   5.122  0.5208  0.2237 -0.6515
12909SOL    HW140734   3.217  10.194   5.149  0.5367  0.6014 -0.1167
12909SOL    HW240735   3.336  10.162   5.061 -0.1216  0.0421 -0.8160
12910SOL     OW40736   3.914  10.541   3.675 -0.1477 -0.2598  0.1134
12910SOL    HW140737   3.931  10.449   3.660  2.7131  0.0950  0.6640
12910SOL    HW240738   3.957  10.561   3.759  0.5914  1.8618 -0.6922
12911SOL     OW40739   1.213   0.017   5.458 -0.0990  0.6049 -0.1897
12911SOL    HW140740   1.162   0.087   5.418 -0.5945  1.0424  1.1493
12911SOL    HW240741   1.217   0.040   5.550  1.2699 -0.2152 -0.0196
12912SOL     OW40742   9.023   5.051   3.166  0.1589 -0.0769 -0.1264
12912SOL    HW140743   8.947   5.096   3.203  0.3994  1.2332 -1.1643
12912SOL    HW240744   9.059   5.113   3.102  1.9840 -0.7446  0.1965
12913SOL     OW40745   3.199   3.818   0.965 -0.3410 -0.1513  0.3875
12913SOL    HW140746   3.262   3.763   0.918 -0.1995  0.2585  0.0956
12913SOL    HW240747   3.186   3.772   1.049 -0.2274 -0.6280  0.1478
12914SOL     OW40748   2.309  10.972   5.581 -0.6324 -0.7226  0.3183
12914SOL    HW140749   2.244  11.005   5.519  0.6216 -0.1225 -0.7273
12914SOL    HW240750   2.346  11.051   5.622  0.8119 -0.9182 -0.5552
12915SOL     OW40751   3.767   6.418   5.005  0.1675 -0.4080  0.3354
12915SOL    HW140752   3.710   6.408   4.930  2.6464 -1.1273 -1.5893
12915SOL    HW240753   3.723   6.370   5.076 -1.8734 -0.3444 -0.8367
12916SOL     OW40754  10.046   9.217   1.708  0.2992  0.5743 -0.0326
12916SOL    HW140755  10.115   9.277   1.679  0.9777 -0.3270 -0.3344
12916SOL    HW240756  10.003   9.189   1.627 -0.4186  1.1244  0.1552
12917SOL     OW40757   0.499   0.690   2.204 -0.2548 -0.1461  0.0763
12917SOL    HW140758   0.420   0.734   2.236 -0.2835  0.3886 -0.6935
12917SOL    HW240759   0.470   0.603   2.179 -0.2833 -0.4806  1.2382
12918SOL     OW40760   4.208   1.466  10.775  0.2055  0.5013  0.2319
12918SOL    HW140761   4.121   1.439  10.805  0.3588  0.1758  0.3918
12918SOL    HW240762   4.207   1.561  10.780  0.4112  0.4383  1.8169
12919SOL     OW40763   9.320  10.509   2.775  0.1939  0.3273  0.0114
12919SOL    HW140764   9.257  10.579   2.790  0.4872  0.7793 -0.8184
12919SOL    HW240765   9.356  10.490   2.861 -0.7601  0.3555  0.4291
12920SOL     OW40766   1.597   7.369   2.420  0.2516 -0.3792 -0.0508
12920SOL    HW140767   1.674   7.419   2.394  0.2132 -0.1976  0.1826
12920SOL    HW240768   1.544   7.431   2.470 -0.4249 -0.2680 -0.8870
12921SOL     OW40769   2.680  10.292   6.641  0.2987  0.2286 -0.1787
12921SOL    HW140770   2.669  10.241   6.561  0.4908  0.4801 -0.3647
12921SOL    HW240771   2.657  10.382   6.616 -0.0165  0.2407  0.1413
12922SOL     OW40772   4.313  10.514   1.419  0.4278 -0.0354 -0.4527
12922SOL    HW140773   4.266  10.553   1.493 -1.1125  1.6705 -2.2031
12922SOL    HW240774   4.376  10.581   1.393  2.0525 -1.2526  0.2338
12923SOL     OW40775   0.762  11.082   2.357 -0.2469  0.3333  0.2726
12923SOL    HW140776   0.686  11.117   2.403 -0.2069  0.6040  0.1393
12923SOL    HW240777   0.745  11.103   2.265 -0.2007  0.0360  0.1975
12924SOL     OW40778   4.037   3.427   2.593 -0.1208 -0.3679  0.4587
12924SOL    HW140779   4.102   3.489   2.561 -1.0011  0.0842 -0.5468
12924SOL    HW240780   4.060   3.412   2.684  1.0215  0.2425  0.2858
12925SOL     OW40781   1.292   0.541   5.128  0.0817  0.3623  0.4723
12925SOL    HW140782   1.282   0.630   5.161  0.9418  0.3904  0.6750
12925SOL    HW240783   1.345   0.496   5.194  0.2317 -0.1100  0.0418
12926SOL     OW40784   5.919   9.732   6.954  0.3710 -0.6670  0.5571
12926SOL    HW140785   5.999   9.729   6.902 -0.0426 -0.1194 -0.1405
12926SOL    HW240786   5.911   9.823   6.982 -0.3991 -0.5191 -0.0605
12927SOL     OW40787   5.670   8.133   3.264  0.2173  0.2614 -0.1667
12927SOL    HW140788   5.632   8.216   3.234 -0.6230  0.0976  0.4303
12927SOL    HW240789   5.623   8.066   3.214  0.1311  0.0867  0.1479
12928SOL     OW40790   3.332   1.040  10.579  0.4053  0.2194 -0.4062
12928SOL    HW140791   3.327   1.083  10.665  0.1102  1.4428 -1.0113
12928SOL    HW240792   3.247   0.996  10.570  0.4881 -0.0281 -0.0159
12929SOL     OW40793   2.274  10.238   7.097  0.1938 -0.1112  0.2372
12929SOL    HW140794   2.305  10.246   7.007  1.1200  0.4006  0.5875
12929SOL    HW240795   2.191  10.190   7.090 -0.6186  1.3896 -1.0298
12930SOL     OW40796   6.290   9.144   5.914  0.4218 -0.2223 -0.4549
12930SOL    HW140797   6.304   9.108   6.002  2.0644  0.5524 -0.3745
12930SOL    HW240798   6.338   9.084   5.856  2.8883  1.5346 -0.3538
12931SOL     OW40799   1.436   1.305   9.542  0.1093  0.1110  0.1351
12931SOL    HW140800   1.512   1.307   9.601 -0.2441 -3.0694  0.8810
12931SOL    HW240801   1.468   1.344   9.461  2.3941 -0.6346  0.5918
12932SOL     OW40802   1.453   1.285   2.343  0.6716  0.2741 -0.3932
12932SOL    HW140803   1.451   1.207   2.397  0.1548 -0.0308 -0.8381
12932SOL    HW240804   1.546   1.306   2.333  0.9277 -1.2248 -1.5936
12933SOL     OW40805   1.192   3.851   8.403  0.2139 -0.5513  0.2091
12933SOL    HW140806   1.164   3.764   8.375 -0.7390 -0.2397  0.1614
12933SOL    HW240807   1.130   3.875   8.473  1.4385 -0.5696  1.3459
12934SOL     OW40808   3.891   2.460   6.262 -0.0685  0.8252 -0.0892
12934SOL    HW140809   3.866   2.539   6.215 -2.2460  1.2003  1.5287
12934SOL    HW240810   3.872   2.389   6.200  0.0556  1.4568 -0.8738
12935SOL     OW40811   2.631   4.215   4.739  0.2460  0.0746  0.4420
12935SOL    HW140812   2.709   4.196   4.687  0.1037 -0.1154  0.2979
12935SOL    HW240813   2.594   4.129   4.759  0.7942  0.0881  1.6243
12936SOL     OW40814   5.527   5.403   8.521  0.7254 -0.2930  0.1525
12936SOL    HW140815   5.484   5.318   8.506  1.7100 -0.5710 -1.2839
12936SOL    HW240816   5.491   5.460   8.452  0.1884  0.4269  1.0120
12937SOL     OW40817   2.289   0.456  10.573 -0.1822  0.4936  0.4811
12937SOL    HW140818   2.286   0.482  10.481  1.2092  0.0580  0.3008
12937SOL    HW240819   2.300   0.538  10.621  1.1915  0.5501  0.1077
12938SOL     OW40820   8.424   3.599   6.419  0.4167  0.6066  0.3921
12938SOL    HW140821   8.339   3.641   6.405  0.7222  0.6922 -1.4780
12938SOL    HW240822   8.478   3.668   6.456 -0.1278  0.7446  0.9557
12939SOL     OW40823   2.481   8.762   4.982  0.5176 -0.2147 -0.5077
12939SOL    HW140824   2.408   8.816   5.012  0.7539  0.1489 -0.5790
12939SOL    HW240825   2.460   8.674   5.013  0.1874 -0.0588 -0.2857
12940SOL     OW40826  11.057   7.960  10.826 -0.3078  0.1080 -0.1800
12940SOL    HW140827  11.051   8.021  10.900  0.0222  0.5516 -0.5085
12940SOL    HW240828  11.026   8.011  10.751  0.4767  0.0580 -0.5571
12941SOL     OW40829   4.992   7.782  10.537 -0.5052 -0.1849  0.0675
12941SOL    HW140830   4.981   7.874  10.510  0.3466 -0.1825 -0.3074
12941SOL    HW240831   5.012   7.736  10.456 -0.2072 -0.5749  0.3619
12942SOL     OW40832   3.363   6.474  10.882  0.0120 -0.6040 -0.6566
12942SOL    HW140833   3.304   6.530  10.933 -0.3623 -1.5548 -0.0207
12942SOL    HW240834   3.442   6.467  10.935 -0.7687 -2.4438  0.3374
12943SOL     OW40835   4.466   7.156   7.494 -0.1230 -0.3983  1.0729
12943SOL    HW140836   4.550   7.188   7.459 -0.9282 -0.2275 -0.8280
12943SOL    HW240837   4.428   7.231   7.539 -0.5927  0.4641 -0.6821
12944SOL     OW40838   7.888   6.922   2.832 -0.3575 -0.0470  0.6729
12944SOL    HW140839   7.978   6.944   2.856 -0.5354 -1.2210  2.6055
12944SOL    HW240840   7.886   6.827   2.833 -2.0742 -0.0327  2.5392
12945SOL     OW40841   2.615   3.635   1.974  0.5858 -0.2497  0.1562
12945SOL    HW140842   2.613   3.623   1.879  1.1670 -1.3090  0.2621
12945SOL    HW240843   2.708   3.650   1.993  1.1664 -3.8609  0.9374
12946SOL     OW40844   9.612   0.290   7.476  0.0191 -0.7991  0.0294
12946SOL    HW140845   9.626   0.313   7.384 -1.2477 -0.8035 -0.1811
12946SOL    HW240846   9.690   0.239   7.500  1.2193  0.6937 -0.5086
12947SOL     OW40847   8.678   3.606   8.108  0.2764  0.2859 -1.0172
12947SOL    HW140848   8.585   3.628   8.110  0.4022  0.9488  1.5103
12947SOL    HW240849   8.697   3.586   8.016 -2.5077 -0.6093 -1.4666
12948SOL     OW40850   2.586   7.647   2.973 -0.1497  0.0574  0.5326
12948SOL    HW140851   2.551   7.613   3.055  0.4774  0.8756  1.1439
12948SOL    HW240852   2.660   7.702   2.998  0.4283 -0.1484 -0.6142
12949SOL     OW40853   2.252   9.803   7.507 -0.1357  0.5559  0.2882
12949SOL    HW140854   2.185   9.825   7.571 -2.5205 -0.8319 -1.5611
12949SOL    HW240855   2.241   9.710   7.491  1.4133  0.5458 -1.0090
12950SOL     OW40856   7.714   6.529   9.533  0.2485 -0.2198  0.1070
12950SOL    HW140857   7.642   6.588   9.554 -1.3840 -1.4515 -1.7738
12950SOL    HW240858   7.776   6.583   9.484  0.3195  0.6659  1.1312
12951SOL     OW40859   0.740   1.483   7.537 -0.0818  0.1159 -0.2065
12951SOL    HW140860   0.835   1.482   7.529  0.0204  3.1834 -0.5756
12951SOL    HW240861   0.720   1.411   7.598  2.4857 -0.2814  0.2724
12952SOL     OW40862   7.004   0.525   5.430 -0.3527  0.2705  0.5181
12952SOL    HW140863   6.984   0.572   5.349 -1.4159 -0.5359  0.2819
12952SOL    HW240864   6.977   0.584   5.500  1.4851  1.3777  0.3405
12953SOL     OW40865   5.502  10.783   5.169  0.1574  0.1471 -0.0405
12953SOL    HW140866   5.540  10.695   5.170 -0.2901 -0.1001 -1.3127
12953SOL    HW240867   5.560  10.833   5.112 -0.2728  0.3112 -0.3458
12954SOL     OW40868   3.872   6.807   4.368 -0.2104 -0.3978  0.2125
12954SOL    HW140869   3.794   6.774   4.413  0.1988 -0.1906  1.0872
12954SOL    HW240870   3.870   6.902   4.382 -0.0311 -0.3409 -0.1354
12955SOL     OW40871   1.797   3.758   1.955 -0.1900  0.5683 -0.0816
12955SOL    HW140872   1.858   3.687   1.932  0.6076  0.5503  1.9002
12955SOL    HW240873   1.851   3.837   1.954 -0.4695  0.7638  0.2742
12956SOL     OW40874   3.586  10.106   3.165  0.1291  0.2820  0.0449
12956SOL    HW140875   3.665  10.122   3.114  0.1231 -0.4326 -0.2074
12956SOL    HW240876   3.516  10.102   3.099  0.0219  0.0376  0.1714
12957SOL     OW40877   2.372   0.700   6.024 -0.0548 -0.2163  0.3448
12957SOL    HW140878   2.293   0.697   6.079 -0.6903  2.5793 -0.2124
12957SOL    HW240879   2.438   0.741   6.080  0.4332 -0.8161  0.2075
12958SOL     OW40880   8.329  10.883   9.897  0.4492 -0.3379 -0.0584
12958SOL    HW140881   8.261  10.829   9.935  1.4431 -1.2010  0.5531
12958SOL    HW240882   8.326  10.965   9.948  1.4915 -1.3162  1.7021
12959SOL     OW40883   0.058   2.132   6.508  0.5151 -0.0388 -0.1339
12959SOL    HW140884   0.078   2.205   6.567 -0.5862  0.8444 -0.8003
12959SOL    HW240885  -0.012   2.166   6.452 -0.7843 -1.9669  0.2296
12960SOL     OW40886  10.170   1.432   7.418 -0.4501  0.8104  0.5160
12960SOL    HW140887  10.152   1.357   7.474 -0.1254  0.6458  0.3984
12960SOL    HW240888  10.169   1.507   7.478 -1.2095  0.7738  0.5685
12961SOL     OW40889   1.294   9.324   3.623  0.1448  0.4288 -0.0877
12961SOL    HW140890   1.374   9.291   3.582 -0.8520 -0.1684 -1.6355
12961SOL    HW240891   1.224   9.299   3.563 -0.9852  2.8953  0.0594
12962SOL     OW40892   2.828   7.722   8.799  0.2633  0.3502 -0.6161
12962SOL    HW140893   2.840   7.735   8.705  0.3139  1.3088 -0.4841
12962SOL    HW240894   2.891   7.654   8.822 -0.6197 -0.7903 -1.4917
12963SOL     OW40895   3.595   2.300   4.563 -0.0321  0.4056  0.1529
12963SOL    HW140896   3.673   2.355   4.555  0.8806 -1.0660 -2.6956
12963SOL    HW240897   3.544   2.321   4.484 -0.8063 -1.0832  0.2390
12964SOL     OW40898   2.907   5.238   1.887 -0.7683  0.4213  0.2394
12964SOL    HW140899   2.940   5.256   1.799 -1.3218 -0.6630 -0.2098
12964SOL    HW240900   2.960   5.294   1.944  0.2818  0.4024 -0.6809
12965SOL     OW40901   2.911   6.838   3.936  0.3606  0.0778 -0.2694
12965SOL    HW140902   2.984   6.797   3.982  0.0910 -1.2106 -0.9491
12965SOL    HW240903   2.872   6.767   3.885 -2.1112  0.4134  1.0129
12966SOL     OW40904  10.057   6.705   4.268 -0.3563  0.4430  0.3592
12966SOL    HW140905  10.067   6.610   4.273  0.1224  0.5445  1.4238
12966SOL    HW240906  10.147   6.738   4.271 -0.3618  0.8771 -1.9604
12967SOL     OW40907   3.114   0.714   6.202 -0.5264  0.0546 -0.2156
12967SOL    HW140908   3.142   0.648   6.138 -0.1197  1.4447 -1.5318
12967SOL    HW240909   3.186   0.717   6.265 -1.2478 -1.8374  0.7836
12968SOL     OW40910   0.413   0.729   4.314  0.7936  0.3128  0.7170
12968SOL    HW140911   0.331   0.680   4.322  1.2655 -0.5537  0.3335
12968SOL    HW240912   0.481   0.662   4.309  1.2393  0.8419 -2.7908
12969SOL     OW40913   4.244   7.642   0.827  0.4921  0.1157  0.2888
12969SOL    HW140914   4.203   7.670   0.909  0.1719  0.7223 -0.0667
12969SOL    HW240915   4.171   7.629   0.767  0.7103 -0.5674  0.1699
12970SOL     OW40916   2.941   1.581   8.850  0.3304  0.1263 -0.1403
12970SOL    HW140917   2.865   1.638   8.843 -1.7104 -2.1161  1.8772
12970SOL    HW240918   2.966   1.564   8.759 -0.9479  1.6981 -0.8420
12971SOL     OW40919   7.974  10.603   4.682  0.3970 -0.0995 -0.0922
12971SOL    HW140920   7.996  10.682   4.631  0.5783  0.0992  0.2899
12971SOL    HW240921   7.959  10.636   4.771  3.0507 -0.7880  0.7109
12972SOL     OW40922   8.167   4.034   3.299  0.0512 -0.0844  0.1718
12972SOL    HW140923   8.177   4.116   3.251  0.7648  0.2432  0.8626
12972SOL    HW240924   8.189   4.056   3.389  0.6600 -1.1205  0.2870
12973SOL     OW40925   4.685   5.781  11.096 -0.0535  0.0690 -0.4454
12973SOL    HW140926   4.713   5.795  11.005  0.2680  2.0010 -0.0966
12973SOL    HW240927   4.709   5.863  11.141 -1.9062 -0.1125  0.9681
12974SOL     OW40928  11.014  11.033   4.118 -0.1676  0.1161 -0.3477
12974SOL    HW140929  11.068  10.992   4.186 -0.3568 -0.7449 -0.7016
12974SOL    HW240930  10.925  11.031   4.153 -0.1334  0.5020 -0.2387
12975SOL     OW40931   5.085   1.933   1.052  0.4126  0.2532  0.2434
12975SOL    HW140932   5.127   1.869   0.994 -0.9846 -0.7361  0.2772
12975SOL    HW240933   5.128   1.920   1.136  0.4624 -0.3216  0.1362
12976SOL     OW40934   3.208   8.415   0.993 -0.1117  0.5725  0.0847
12976SOL    HW140935   3.112   8.417   0.991 -0.1866  0.5478  1.9857
12976SOL    HW240936   3.232   8.491   1.046  1.0303  1.4955 -1.6528
12977SOL     OW40937   2.087   4.319   6.802  0.7101 -0.4681  0.0035
12977SOL    HW140938   2.094   4.387   6.869 -1.0275  1.3269 -1.4993
12977SOL    HW240939   2.073   4.367   6.720  0.3547 -2.6252 -1.2829
12978SOL     OW40940   0.144   5.900   3.433 -0.1649  0.6018 -0.0011
12978SOL    HW140941   0.060   5.878   3.392  0.9042 -1.6749 -1.1375
12978SOL    HW240942   0.160   5.990   3.406 -0.8528  0.1058 -2.3493
12979SOL     OW40943   0.845   1.350   3.401 -0.0887  0.4545  0.5167
12979SOL    HW140944   0.823   1.299   3.323 -1.9242  0.4167  0.9964
12979SOL    HW240945   0.768   1.341   3.457  1.2519  0.3666  2.4129
12980SOL     OW40946   2.144   8.879   4.087  0.0048  0.0173  0.4143
12980SOL    HW140947   2.211   8.944   4.068  0.4488 -0.2531  1.0324
12980SOL    HW240948   2.075   8.896   4.023 -0.4416  1.9134  1.3265
12981SOL     OW40949   6.132   2.394   7.123 -0.5295  0.2989  0.3074
12981SOL    HW140950   6.088   2.436   7.197 -1.3025  1.7753 -0.9370
12981SOL    HW240951   6.068   2.334   7.087 -0.7296  0.7849 -0.1469
12982SOL     OW40952   2.270  10.470   6.473  0.6820  0.0651 -0.2798
12982SOL    HW140953   2.340  10.519   6.516 -0.0681  0.5264  0.4315
12982SOL    HW240954   2.288  10.481   6.379  1.6485  0.0394 -0.1128
12983SOL     OW40955   9.821   9.505   9.031  0.4529 -0.4604  0.0318
12983SOL    HW140956   9.859   9.592   9.033 -1.0997  0.3749 -2.3595
12983SOL    HW240957   9.844   9.471   8.944 -1.3351 -1.2629 -0.1744
12984SOL     OW40958   5.744   9.338   5.616  0.4939 -0.2335  0.2086
12984SOL    HW140959   5.830   9.371   5.639  0.1919  1.5838 -1.0435
12984SOL    HW240960   5.745   9.333   5.520 -0.1372 -2.1524  0.2511
12985SOL     OW40961   9.617   6.524   1.298  1.0267  0.2053  0.5663
12985SOL    HW140962   9.563   6.596   1.265  0.6123 -0.5126 -0.3663
12985SOL    HW240963   9.644   6.552   1.386 -0.6149  0.7094  0.9348
12986SOL     OW40964   2.740   4.017   3.780  0.1247 -0.3820 -0.1461
12986SOL    HW140965   2.669   3.953   3.775 -0.9200  0.7143  0.4246
12986SOL    HW240966   2.708   4.093   3.732 -0.1299  1.0403  2.1183
12987SOL     OW40967   3.638   7.959   2.467  0.0647 -0.7919 -0.1599
12987SOL    HW140968   3.626   8.017   2.392 -0.6365 -1.0121 -0.2227
12987SOL    HW240969   3.555   7.913   2.476 -0.0760 -0.3436  1.1195
12988SOL     OW40970   9.595   4.010   0.677 -0.8092  0.5040 -0.0708
12988SOL    HW140971   9.666   3.947   0.686  0.6918  2.1738  0.4332
12988SOL    HW240972   9.537   3.993   0.752 -0.1600  0.0456  0.3302
12989SOL     OW40973   6.535   1.501   5.834  0.2365 -0.0984 -0.2495
12989SOL    HW140974   6.500   1.433   5.777  1.4912 -1.6236  0.7371
12989SOL    HW240975   6.590   1.555   5.776  0.3107 -0.7176 -0.7642
12990SOL     OW40976   2.837  11.086   4.432  0.5339 -0.1569 -0.2234
12990SOL    HW140977   2.873  10.998   4.432  0.3700 -0.2492  1.2131
12990SOL    HW240978   2.867  11.124   4.514  1.5630  1.5595 -1.3427
12991SOL     OW40979   1.641  10.344   7.863 -0.2516 -0.6199 -0.1140
12991SOL    HW140980   1.727  10.386   7.871 -0.7528  0.6518 -1.0485
12991SOL    HW240981   1.650  10.281   7.792 -0.0501 -0.5904 -0.1136
12992SOL     OW40982   3.086  10.532   2.595 -0.2359  0.6406  0.5048
12992SOL    HW140983   3.089  10.609   2.652  0.5975 -0.2706  1.7298
12992SOL    HW240984   3.132  10.464   2.644 -0.1152 -0.3776 -0.9675
12993SOL     OW40985   2.438   6.670  10.258  1.2076 -0.4173 -0.2460
12993SOL    HW140986   2.487   6.620  10.324  2.0060  0.3675 -0.2219
12993SOL    HW240987   2.468   6.635  10.174  0.4319 -1.1955 -0.2063
12994SOL     OW40988   4.931   7.965   3.924 -0.1442 -0.5681  0.2397
12994SOL    HW140989   4.885   7.897   3.876  1.3840 -1.3475 -0.2064
12994SOL    HW240990   4.925   8.042   3.868  1.2194 -1.3457 -1.0548
12995SOL     OW40991   8.963   2.622  10.953  0.5331 -0.2338 -0.2239
12995SOL    HW140992   8.904   2.548  10.944  1.5005 -0.9343 -1.1135
12995SOL    HW240993   8.913   2.688  11.002 -0.1679 -1.6400  1.0112
12996SOL     OW40994   3.796   9.174   6.679  0.2824 -0.3738  0.2463
12996SOL    HW140995   3.849   9.145   6.605  0.4176 -1.7051  0.8333
12996SOL    HW240996   3.818   9.113   6.750  1.3950  1.7864  1.9210
12997SOL     OW40997   1.619   6.453   8.582  0.3901  0.1719 -0.2544
12997SOL    HW140998   1.705   6.494   8.570 -0.2750  2.1889  1.2664
12997SOL    HW240999   1.637   6.372   8.630  1.4542  0.5368 -0.0115
12998SOL     OW41000   4.635   3.770   3.563  0.2112 -0.2842  0.2376
12998SOL    HW141001   4.719   3.727   3.574  0.5849  0.0051 -1.2638
12998SOL    HW241002   4.594   3.766   3.650  1.9647  0.0187  1.1116
12999SOL     OW41003   2.383   6.998   9.817  0.0580 -0.8262 -0.0493
12999SOL    HW141004   2.425   6.912   9.817  0.2343 -0.7425  0.8089
12999SOL    HW241005   2.314   6.992   9.883  0.0974 -0.2908  0.0455
13000SOL     OW41006   4.207   4.663   6.531  0.2178  0.0407  0.7585
13000SOL    HW141007   4.294   4.622   6.534 -0.3766 -1.3091 -0.1063
13000SOL    HW241008   4.151   4.604   6.580 -0.5347  0.1323  0.0179
13001SOL     OW41009   7.660   8.415   8.781  0.0459  0.0679 -0.1503
13001SOL    HW141010   7.725   8.349   8.757  1.1308  1.0441 -0.0107
13001SOL    HW241011   7.580   8.366   8.798  0.5788 -1.1053 -0.9532
13002SOL     OW41012   8.073   0.876   6.511  0.1243  0.2554  0.0296
13002SOL    HW141013   8.047   0.861   6.602 -0.1079 -1.8745 -0.3410
13002SOL    HW241014   8.135   0.806   6.491 -1.0094 -0.2796 -1.9071
13003SOL     OW41015   2.653  11.087   4.861 -0.7703  0.1724 -0.5496
13003SOL    HW141016   2.604  11.020   4.909  1.1815 -1.6582 -0.9423
13003SOL    HW241017   2.708  11.038   4.801  0.4096  2.1855 -1.2185
13004SOL     OW41018   2.508   5.034   3.845  0.0508  0.5868  0.5395
13004SOL    HW141019   2.565   5.095   3.891 -0.0038  0.2100  1.1189
13004SOL    HW241020   2.491   5.076   3.760  0.2792  1.2165  0.8006
13005SOL     OW41021   0.094   7.576   7.694 -0.6457  1.0877  0.3020
13005SOL    HW141022   0.054   7.500   7.654  1.5923  0.8907 -1.7365
13005SOL    HW241023   0.090   7.559   7.788 -0.0593 -1.6279 -0.1067
13006SOL     OW41024   6.401   0.150   4.678 -0.1686  0.6227  0.3931
13006SOL    HW141025   6.362   0.220   4.731 -1.6871  1.4102 -1.6361
13006SOL    HW241026   6.356   0.156   4.593  2.5532 -0.1351 -1.2418
13007SOL     OW41027   5.471   9.247   2.298 -0.3175  0.1635  0.2009
13007SOL    HW141028   5.476   9.340   2.322  1.7213  0.2747 -0.4607
13007SOL    HW241029   5.435   9.204   2.375  0.2117  1.3090  1.1165
13008SOL     OW41030   1.641   7.814   0.886  0.1441 -0.5240  0.3715
13008SOL    HW141031   1.684   7.897   0.908  1.1555 -1.1997  1.0354
13008SOL    HW241032   1.562   7.840   0.839  0.9428  0.7849 -0.3147
13009SOL     OW41033   1.510   2.751   4.099 -0.1106 -0.3709 -0.3127
13009SOL    HW141034   1.448   2.776   4.030  0.1376 -0.2308 -0.4851
13009SOL    HW241035   1.479   2.665   4.128 -0.6736 -0.0899 -0.0607
13010SOL     OW41036   5.430   3.969   7.756 -0.5199 -0.9358 -0.5311
13010SOL    HW141037   5.381   4.052   7.763 -0.2190 -0.8582  1.2216
13010SOL    HW241038   5.450   3.946   7.847  0.5679 -2.2549 -1.0752
13011SOL     OW41039   3.676   7.434   1.316 -0.5864  0.0577  0.2612
13011SOL    HW141040   3.583   7.419   1.335 -0.9029  1.6399  0.0975
13011SOL    HW241041   3.680   7.525   1.288  0.7909 -0.4258 -1.2565
13012SOL     OW41042   1.729   1.511   7.484  0.0150  0.1023  0.1830
13012SOL    HW141043   1.775   1.554   7.556 -1.0923  1.2570  0.2396
13012SOL    HW241044   1.721   1.578   7.417 -2.0666  0.1521  0.4057
13013SOL     OW41045   3.020   7.795  10.754  0.0429 -0.3040  0.0736
13013SOL    HW141046   2.943   7.739  10.768 -0.6999  1.2144  2.8582
13013SOL    HW241047   3.081   7.769  10.823  0.2223  1.3129  0.5766
13014SOL     OW41048   8.857   7.349   3.693  0.0259 -1.0322 -0.0794
13014SOL    HW141049   8.896   7.434   3.668 -0.6558 -1.2122 -1.9068
13014SOL    HW241050   8.772   7.372   3.731  0.1498 -0.8620  0.0992
13015SOL     OW41051   4.260   5.639   8.684 -0.0039 -0.2154  0.4514
13015SOL    HW141052   4.315   5.714   8.709  0.5157 -0.5216  0.2522
13015SOL    HW241053   4.263   5.581   8.760 -1.3274  0.4717  1.0459
13016SOL     OW41054   3.087   6.331   1.082  0.2539  0.5595  0.0902
13016SOL    HW141055   3.065   6.299   0.995 -0.5512 -0.3615  0.6033
13016SOL    HW241056   3.002   6.343   1.125  0.6561 -0.2455  1.1554
13017SOL     OW41057   7.839   7.589   2.721 -0.3539  0.1677  0.0337
13017SOL    HW141058   7.869   7.510   2.676 -0.1955  0.0478  0.3533
13017SOL    HW241059   7.746   7.573   2.739 -0.2399 -0.0795  0.3945
13018SOL     OW41060   9.566   4.519   6.781 -0.1494  0.0047  0.4111
13018SOL    HW141061   9.575   4.431   6.819 -0.1360 -0.1066  0.1567
13018SOL    HW241062   9.624   4.517   6.705  1.3859  0.8839  1.5183
13019SOL     OW41063   2.915  10.678   2.400 -0.0664  0.1647  0.3393
13019SOL    HW141064   2.901  10.727   2.481  1.0804 -0.3266  0.8573
13019SOL    HW241065   2.975  10.607   2.425 -1.3701 -1.2803 -0.4814
13020SOL     OW41066   9.952   9.951   6.517  0.2095 -0.0889  0.0917
13020SOL    HW141067   9.927   9.869   6.559 -1.9373  0.6960  0.4253
13020SOL    HW241068   9.970  10.011   6.589 -0.8006  0.4736 -0.1114
13021SOL     OW41069   9.736  10.623   5.400 -0.3169 -0.3291  0.1479
13021SOL    HW141070   9.661  10.566   5.415 -0.2193 -0.3066  0.7505
13021SOL    HW241071   9.736  10.683   5.474  0.0050 -0.0066 -0.1072
13022SOL     OW41072   9.361   9.105   7.736  0.0976  0.8435 -0.3241
13022SOL    HW141073   9.285   9.162   7.727 -1.4684 -0.9596  0.6796
13022SOL    HW241074   9.336   9.024   7.694  1.3263  0.0835  0.3383
13023SOL     OW41075   7.423   3.311   3.000  0.5631  0.0840  0.1761
13023SOL    HW141076   7.429   3.216   2.998 -2.5048 -0.2110  0.2183
13023SOL    HW241077   7.390   3.335   2.913 -0.9818  0.8229  0.9270
13024SOL     OW41078   3.879   1.125   2.943  0.2889 -0.2447  0.4040
13024SOL    HW141079   3.806   1.078   2.985  0.3863 -0.6621  0.1171
13024SOL    HW241080   3.891   1.079   2.860  0.8328 -0.1299  0.4174
13025SOL     OW41081   0.260   2.525   7.089  0.0817 -0.1435 -0.2155
13025SOL    HW141082   0.256   2.587   7.162 -1.9283 -3.1962  2.5413
13025SOL    HW241083   0.341   2.476   7.103  0.3728  0.1314 -0.8772
13026SOL     OW41084   5.898   8.165   0.918 -0.0934  0.1117 -0.2543
13026SOL    HW141085   5.946   8.115   0.984 -1.3279 -1.5243 -0.5339
13026SOL    HW241086   5.814   8.184   0.959 -0.2310  0.5672 -0.7422
13027SOL     OW41087   9.382   5.690   2.268  0.1763  0.5220 -0.1860
13027SOL    HW141088   9.294   5.658   2.251  0.4022  0.1772 -0.7320
13027SOL    HW241089   9.430   5.674   2.187  0.9582 -0.0593  0.3666
13028SOL     OW41090   6.291  10.207   4.786 -0.1624  0.5932 -0.3977
13028SOL    HW141091   6.326  10.149   4.853 -0.9548  0.9326  0.3270
13028SOL    HW241092   6.209  10.241   4.823  0.1449  1.9680 -0.8939
13029SOL     OW41093   4.799  10.183   9.408 -0.3059  0.3634  0.6629
13029SOL    HW141094   4.724  10.197   9.352  0.8479 -0.4118 -1.1698
13029SOL    HW241095   4.874  10.216   9.358  0.7613 -0.2316  1.7860
13030SOL     OW41096   3.206  10.653   5.175 -0.7990  0.0848 -0.1598
13030SOL    HW141097   3.113  10.651   5.149 -0.4320 -0.1942 -1.5114
13030SOL    HW241098   3.251  10.603   5.107  0.7079  2.5270 -1.0762
13031SOL     OW41099  10.782   6.916   2.113  0.6002 -0.1083  0.2417
13031SOL    HW141100  10.858   6.902   2.171  0.5080  0.9431  0.6321
13031SOL    HW241101  10.791   6.848   2.046  1.5462 -0.3992  0.6383
13032SOL     OW41102  10.992   5.802   3.342  0.3378 -0.2625  0.1802
13032SOL    HW141103  10.912   5.844   3.312  0.4889 -0.0464  0.0822
13032SOL    HW241104  11.040   5.782   3.262  0.5343 -0.0931  0.2561
13033SOL     OW41105   7.399   0.848   9.064  0.4713  0.3109  0.3616
13033SOL    HW141106   7.322   0.887   9.024 -0.2874 -0.1682  1.3156
13033SOL    HW241107   7.423   0.909   9.134  1.0923  0.5633 -0.0629
13034SOL     OW41108   2.716   4.221   2.028  0.1175 -0.4053  0.6565
13034SOL    HW141109   2.698   4.210   2.121 -0.0698 -1.4676  0.5064
13034SOL    HW241110   2.781   4.153   2.008  0.0864 -0.2456 -0.0053
13035SOL     OW41111   4.301   3.733   5.177  0.7661 -0.3373 -0.6916
13035SOL    HW141112   4.251   3.696   5.249  0.5039 -0.1578 -0.7825
13035SOL    HW241113   4.270   3.823   5.169  0.2374 -0.5878 -1.5372
13036SOL     OW41114   3.239   7.713   4.632 -0.1849 -0.2541  0.6576
13036SOL    HW141115   3.309   7.655   4.602 -0.0628  0.3622 -0.3180
13036SOL    HW241116   3.253   7.720   4.727  0.4861 -0.8982  0.6196
13037SOL     OW41117   0.314   9.263  10.878 -0.0904 -0.2451 -0.0352
13037SOL    HW141118   0.329   9.169  10.876  1.3781 -0.0176 -0.6862
13037SOL    HW241119   0.308   9.289  10.786 -0.3381  0.3193  0.1340
13038SOL     OW41120   1.184   1.146   8.666 -0.3201  0.7848  0.4487
13038SOL    HW141121   1.212   1.165   8.755  2.0301  2.7347 -0.5933
13038SOL    HW241122   1.255   1.093   8.629 -1.1448  0.2091 -0.3613
13039SOL     OW41123   5.524   5.434   8.976  0.2980  0.1133  0.1287
13039SOL    HW141124   5.496   5.410   8.887  0.8614 -1.3232  0.3132
13039SOL    HW241125   5.599   5.491   8.963 -0.2154  0.6975 -0.3230
13040SOL     OW41126   5.026   7.161   7.497  0.2469 -0.2916 -0.1091
13040SOL    HW141127   4.982   7.136   7.578 -0.1443 -0.1615 -0.2775
13040SOL    HW241128   4.955   7.186   7.438  0.5942  0.9619 -0.0374
13041SOL     OW41129  10.333   8.410   5.511  0.8813 -0.0650  0.0978
13041SOL    HW141130  10.249   8.455   5.508  1.9586  2.0413 -0.5718
13041SOL    HW241131  10.395   8.472   5.473  2.5134 -2.1037 -0.7664
13042SOL     OW41132   8.488   5.830   0.274 -0.1660  0.4005 -0.4258
13042SOL    HW141133   8.551   5.826   0.202 -0.2884  1.0376 -0.5746
13042SOL    HW241134   8.467   5.739   0.294  1.5911  0.1305  0.3253
13043SOL     OW41135   6.471   7.309   3.573 -0.8453 -0.3213 -0.3530
13043SOL    HW141136   6.553   7.266   3.549 -1.4212 -1.8603  0.2306
13043SOL    HW241137   6.496   7.375   3.638  0.0588  0.0729 -1.0949
13044SOL     OW41138   0.304   5.789   4.554 -0.1654  0.2515 -0.4232
13044SOL    HW141139   0.306   5.738   4.635 -0.4618 -1.8052 -1.6278
13044SOL    HW241140   0.393   5.820   4.542 -0.1916  0.8681  0.8325
13045SOL     OW41141   5.666  10.648   1.721 -0.6812  0.4132  0.0897
13045SOL    HW141142   5.659  10.712   1.650  2.5573 -1.1181 -1.8706
13045SOL    HW241143   5.615  10.573   1.689  1.1308 -0.4377 -0.9196
13046SOL     OW41144   5.319   0.839   7.081 -0.8138  0.4217  0.4765
13046SOL    HW141145   5.234   0.846   7.038  0.1667 -0.9407 -1.8467
13046SOL    HW241146   5.363   0.922   7.060 -0.9442  0.4346  0.2535
13047SOL     OW41147   1.621   7.427   5.502 -0.2189 -0.4100  0.3925
13047SOL    HW141148   1.555   7.382   5.556  1.4010 -2.8871  0.4725
13047SOL    HW241149   1.640   7.364   5.432 -0.0396  1.4917 -1.3391
13048SOL     OW41150   3.714   7.013  10.259  0.5553 -0.1839 -0.4902
13048SOL    HW141151   3.691   7.065  10.183  0.6493 -0.2465 -0.5621
13048SOL    HW241152   3.783   6.954  10.228  1.0246  0.2011 -0.2069
13049SOL     OW41153   4.105   8.443   9.532 -0.2005  0.2247 -0.0831
13049SOL    HW141154   4.176   8.505   9.518  0.9444 -0.7254  1.2968
13049SOL    HW241155   4.148   8.360   9.550 -1.6530 -0.3777  0.7898
13050SOL     OW41156   6.367   4.368  10.659 -0.2867  0.1544  0.4755
13050SOL    HW141157   6.344   4.286  10.615 -0.4025 -0.4053  1.5412
13050SOL    HW241158   6.360   4.348  10.753 -1.9424  1.8247  0.7827
13051SOL     OW41159   2.428   3.113   8.283 -0.0428  0.2282 -0.3168
13051SOL    HW141160   2.488   3.184   8.259  1.8274 -1.0349  0.3996
13051SOL    HW241161   2.463   3.035   8.240 -1.7589 -0.3896 -0.6755
13052SOL     OW41162   2.326   3.344   0.914 -0.1313  0.6856 -0.2146
13052SOL    HW141163   2.265   3.391   0.857 -0.4368  0.4143 -0.1152
13052SOL    HW241164   2.270   3.282   0.962  0.1752  0.6709  0.1205
13053SOL     OW41165   6.637   5.152   1.087  0.1629 -0.0227  0.2810
13053SOL    HW141166   6.643   5.164   1.182 -0.3622  0.8387  0.2196
13053SOL    HW241167   6.693   5.221   1.051  0.6754 -0.5976 -0.0344
13054SOL     OW41168   2.217   8.001   3.333 -0.2749 -0.0264  0.4722
13054SOL    HW141169   2.202   7.907   3.341 -1.9386  0.3216  2.3784
13054SOL    HW241170   2.294   8.009   3.277  1.5155 -2.6080  2.3557
13055SOL     OW41171   1.543   6.226   9.505 -0.5246  0.2915 -0.1998
13055SOL    HW141172   1.555   6.248   9.597 -2.4920 -0.0746  0.1875
13055SOL    HW241173   1.500   6.303   9.468  0.7669  0.6695 -0.9749
13056SOL     OW41174  10.785   1.542   2.259 -0.2717 -0.4671  0.0316
13056SOL    HW141175  10.835   1.492   2.195 -0.8017  0.5088 -1.1909
13056SOL    HW241176  10.847   1.560   2.330  1.1168  0.6309 -1.3892
13057SOL     OW41177   8.438   2.862   3.382 -1.0565 -0.0647 -0.0866
13057SOL    HW141178   8.371   2.930   3.392 -1.4311 -0.5759  1.0214
13057SOL    HW241179   8.454   2.831   3.471 -0.0381 -0.6248 -0.4494
13058SOL     OW41180   4.262   7.652   3.380 -0.0733  0.3424 -0.3971
13058SOL    HW141181   4.336   7.631   3.323  0.4870  0.4657  0.2623
13058SOL    HW241182   4.212   7.570   3.385  1.3347 -0.5110  1.0327
13059SOL     OW41183   3.258   5.295   7.803  0.0833  0.4692 -0.2913
13059SOL    HW141184   3.275   5.268   7.713  0.6776  0.2532 -0.1173
13059SOL    HW241185   3.173   5.340   7.799  0.5084  1.2252 -1.1089
13060SOL     OW41186   5.008   6.079   9.630  0.2905  0.0395 -0.0226
13060SOL    HW141187   4.938   6.065   9.567 -0.0274  2.7588 -0.3861
13060SOL    HW241188   5.087   6.088   9.578  0.0234  2.3179 -0.1295
13061SOL     OW41189   9.409   7.338   9.985 -0.0678 -0.5255  0.1525
13061SOL    HW141190   9.406   7.312   9.893  0.9168  1.0145 -0.3434
13061SOL    HW241191   9.329   7.300  10.023 -1.1787 -0.0794 -1.6273
13062SOL     OW41192   3.628   8.112   4.917  0.1221  0.0344 -0.1531
13062SOL    HW141193   3.713   8.152   4.901 -0.1941  1.3635  1.2129
13062SOL    HW241194   3.594   8.158   4.993 -0.9903 -1.7888  0.5311
13063SOL     OW41195   0.594   8.970   0.363 -0.7293 -0.1091 -0.6022
13063SOL    HW141196   0.670   9.028   0.370 -0.9735  0.0233  2.7044
13063SOL    HW241197   0.529   9.010   0.421 -2.0363 -2.0593 -0.6395
13064SOL     OW41198   9.041   3.801   4.632 -0.5515 -0.6210  0.6582
13064SOL    HW141199   9.062   3.794   4.539 -1.3302 -0.6702  0.4793
13064SOL    HW241200   8.949   3.829   4.634 -0.7871 -1.4116  1.4116
13065SOL     OW41201   9.293  10.045   6.892 -0.3242  0.1074  0.0457
13065SOL    HW141202   9.232   9.975   6.914 -0.1722 -0.4888 -1.3970
13065SOL    HW241203   9.379  10.011   6.917 -0.3932  0.3604  0.6663
13066SOL     OW41204   0.807   9.457   2.974 -0.7096  0.0404  0.5106
13066SOL    HW141205   0.771   9.517   2.909  0.1611 -0.2060 -0.2203
13066SOL    HW241206   0.747   9.382   2.973 -0.2010 -0.3738 -0.7026
13067SOL     OW41207   1.604   0.761   7.915  0.0388  0.3993  0.6823
13067SOL    HW141208   1.596   0.789   7.824 -0.6106  0.8854  0.8812
13067SOL    HW241209   1.586   0.840   7.966 -0.6462 -0.1044  1.2431
13068SOL     OW41210   1.307   8.739   6.977 -0.2656  0.2711 -0.0925
13068SOL    HW141211   1.343   8.816   6.933  0.4270  0.0016 -0.0121
13068SOL    HW241212   1.293   8.768   7.068  0.4389  0.1658  0.0519
13069SOL     OW41213   2.332   5.409   9.032 -0.0654  0.3055 -0.3348
13069SOL    HW141214   2.318   5.500   9.058 -0.3625  0.0047  0.5812
13069SOL    HW241215   2.426   5.404   9.014  0.0927  0.5973  0.3916
13070SOL     OW41216   1.293   5.792   9.502  0.0603  0.5101 -0.0892
13070SOL    HW141217   1.291   5.772   9.595  0.0554 -0.6258 -0.3179
13070SOL    HW241218   1.349   5.869   9.495 -0.3641  0.9177  0.9009
13071SOL     OW41219   1.965   4.493   3.045 -0.6499  0.3702 -0.3729
13071SOL    HW141220   2.059   4.508   3.049 -0.4524 -0.9056  1.6427
13071SOL    HW241221   1.926   4.570   3.087 -0.3259 -0.0147  0.6835
13072SOL     OW41222   1.981   7.791   5.882  0.7232  0.2363 -0.5503
13072SOL    HW141223   1.992   7.708   5.837  2.2210  0.4813 -0.6653
13072SOL    HW241224   2.022   7.777   5.968  1.9145  1.1504 -0.9468
13073SOL     OW41225   1.883   9.952   0.943  0.2175  0.4033 -0.0839
13073SOL    HW141226   1.911   9.981   0.857  1.4013 -1.7153 -0.4903
13073SOL    HW241227   1.960   9.963   0.999  0.0081  0.1291  0.2666
13074SOL     OW41228   4.421  10.404  10.960  0.1187  0.0538  0.1903
13074SOL    HW141229   4.387  10.397  11.049 -0.2007  1.3112  0.1958
13074SOL    HW241230   4.504  10.450  10.970  0.6458 -0.8342 -0.0581
13075SOL     OW41231   8.157  10.180   2.462  0.1887  0.3753  0.2363
13075SOL    HW141232   8.235  10.234   2.458  1.1199 -0.8580  0.9147
13075SOL    HW241233   8.105  10.206   2.386  0.6751  2.0579  0.4468
13076SOL     OW41234   3.838  10.713   0.986 -0.2578  0.1027 -0.1862
13076SOL    HW141235   3.800  10.795   1.019 -2.9630 -0.3634 -1.8201
13076SOL    HW241236   3.776  10.645   1.014  1.3274 -1.2759  0.1429
13077SOL     OW41237  10.881   9.281   8.688 -0.4399  0.5923  0.0049
13077SOL    HW141238  10.810   9.334   8.654  1.4766  3.5448  0.2457
13077SOL    HW241239  10.879   9.295   8.783 -0.9632 -1.3072  0.3315
13078SOL     OW41240   3.814   9.557   6.509  0.2804 -0.4998 -0.3691
13078SOL    HW141241   3.854   9.477   6.476  1.1163 -1.1135  1.9614
13078SOL    HW241242   3.720   9.541   6.502  0.4418 -1.6448 -0.1095
13079SOL     OW41243   4.794   1.895   3.193  0.0136 -0.2516  0.3989
13079SOL    HW141244   4.719   1.954   3.188  0.3936  0.3512  1.4792
13079SOL    HW241245   4.771   1.835   3.264  0.4740 -0.1815  0.6065
13080SOL     OW41246   4.699   7.960   4.444 -0.0127  0.5450  0.6245
13080SOL    HW141247   4.722   8.033   4.500 -0.3390  1.4457 -0.3742
13080SOL    HW241248   4.705   7.883   4.500 -0.8614  1.4635  2.0354
13081SOL     OW41249   9.638   9.767   8.479 -0.3346 -0.3916  0.3710
13081SOL    HW141250   9.579   9.838   8.452 -0.2791 -1.1566 -2.0403
13081SOL    HW241251   9.581   9.690   8.485 -0.1013 -0.5018  1.2157
13082SOL     OW41252  10.105   9.174   6.240 -0.0488  0.1014  0.3285
13082SOL    HW141253  10.071   9.090   6.211 -0.2231  0.2251  0.1719
13082SOL    HW241254  10.182   9.152   6.293 -0.0006 -0.1476  0.1561
13083SOL     OW41255   4.302   4.887  10.172  0.0369 -0.1545 -0.1890
13083SOL    HW141256   4.348   4.927  10.097 -0.1332  1.8666  0.7201
13083SOL    HW241257   4.345   4.802  10.183  1.7512  0.5447 -1.0462
13084SOL     OW41258  10.985   2.362   5.722  0.0773 -0.0955  0.1544
13084SOL    HW141259  10.897   2.352   5.760 -0.5369 -0.0004 -1.1961
13084SOL    HW241260  10.972   2.419   5.646  1.7807  2.3456  1.5683
13085SOL     OW41261   8.443   7.122   4.742 -0.0465 -0.1497 -0.1671
13085SOL    HW141262   8.525   7.169   4.726  0.4412 -0.7620  0.4979
13085SOL    HW241263   8.468   7.049   4.799 -1.0076 -0.5006 -0.1861
13086SOL     OW41264   5.247   2.607   8.472  0.3261  0.2978 -0.3462
13086SOL    HW141265   5.169   2.559   8.502  0.2892  0.0764 -0.7972
13086SOL    HW241266   5.306   2.539   8.440  0.2788  0.5498 -0.9809
13087SOL     OW41267   3.797   2.934   3.368 -0.1161 -0.2161  0.1118
13087SOL    HW141268   3.784   3.028   3.383  1.2651  0.2193 -1.1890
13087SOL    HW241269   3.767   2.893   3.450 -1.6530  1.2475  0.3534
13088SOL     OW41270   2.434   9.663   2.299  0.1997 -1.0132 -0.4883
13088SOL    HW141271   2.488   9.731   2.339 -1.1539 -0.0878 -0.1858
13088SOL    HW241272   2.491   9.624   2.232  1.3122 -0.2268 -0.0262
13089SOL     OW41273   2.259   5.389   2.971 -0.0446  0.3368 -0.1794
13089SOL    HW141274   2.229   5.471   3.010  0.9120 -0.2604  1.9844
13089SOL    HW241275   2.249   5.402   2.876 -2.2391  1.9834  0.1948
13090SOL     OW41276   1.408   9.140   5.353 -0.8849 -0.2371  0.0653
13090SOL    HW141277   1.348   9.185   5.293 -1.8806 -1.0902  0.3944
13090SOL    HW241278   1.467   9.209   5.384 -0.1455  0.2062 -2.0887
13091SOL     OW41279   4.595  10.427  10.301 -0.0385  0.4188  0.1042
13091SOL    HW141280   4.613  10.418  10.395 -1.3539 -0.4979  0.2894
13091SOL    HW241281   4.645  10.356  10.260 -1.8329 -1.1314  0.4615
13092SOL     OW41282   8.017   5.493   7.349 -0.2858  0.0374 -0.1962
13092SOL    HW141283   7.974   5.575   7.370  0.9773  0.0745  2.7780
13092SOL    HW241284   8.108   5.506   7.376  0.2651 -1.8846 -0.9434
13093SOL     OW41285   2.800   7.978   4.722  0.1137  0.6285 -0.4104
13093SOL    HW141286   2.735   7.915   4.755  0.6569 -0.4770 -1.3486
13093SOL    HW241287   2.883   7.930   4.725  0.5773  1.3707 -0.9631
13094SOL     OW41288   8.023   6.194  10.525  0.6335  0.2784 -0.2678
13094SOL    HW141289   7.993   6.184  10.615 -0.3283  2.3549 -0.3076
13094SOL    HW241290   8.108   6.150  10.523  0.8893  0.6126  1.7730
13095SOL     OW41291   2.536   8.752   6.619  0.2463 -0.9221 -0.0438
13095SOL    HW141292   2.610   8.803   6.587 -1.4605  2.0067  0.2917
13095SOL    HW241293   2.572   8.698   6.690  2.0090  0.6241  0.3150
13096SOL     OW41294   0.515   4.439   4.936  0.5327 -0.3191 -0.2071
13096SOL    HW141295   0.574   4.465   5.006  0.2472  0.1839 -0.1438
13096SOL    HW241296   0.570   4.438   4.857  0.9212 -1.1995  0.0711
13097SOL     OW41297   0.090   7.199   0.328 -0.4014 -0.1519 -0.0483
13097SOL    HW141298   0.017   7.211   0.387 -0.0747 -0.8598  0.5173
13097SOL    HW241299   0.126   7.287   0.315 -0.0899 -0.0575  1.3086
13098SOL     OW41300   4.382   4.759   4.229 -0.1461 -0.6270  0.3931
13098SOL    HW141301   4.470   4.775   4.194 -0.6502 -0.6710 -0.9588
13098SOL    HW241302   4.367   4.831   4.290  0.8940 -0.7275  0.8002
13099SOL     OW41303   3.674   7.955   4.259 -0.1621  0.5738 -0.2048
13099SOL    HW141304   3.730   7.953   4.336 -0.9128 -0.4223  0.3332
13099SOL    HW241305   3.586   7.970   4.293 -0.3192  1.5487 -0.9898
13100SOL     OW41306   6.025   1.683   5.354 -0.0639  0.5814 -0.1077
13100SOL    HW141307   6.087   1.739   5.308  0.5558  0.1540  0.1921
13100SOL    HW241308   6.061   1.595   5.346 -0.3984  0.3871  0.4454
13101SOL     OW41309  10.659   2.497   1.736 -0.5633  0.0998 -0.2621
13101SOL    HW141310  10.737   2.497   1.682 -1.0526 -0.4931 -0.9952
13101SOL    HW241311  10.605   2.569   1.702  0.1124  1.2122  0.9446
13102SOL     OW41312   0.402   9.905   6.101  0.1959 -0.8066 -0.2836
13102SOL    HW141313   0.341   9.945   6.162  4.1402  1.7728  2.4871
13102SOL    HW241314   0.472   9.869   6.157  3.3412  0.3791 -3.0936
13103SOL     OW41315   0.822   6.879   4.603  0.6594  0.1458 -0.1553
13103SOL    HW141316   0.830   6.835   4.688  1.6892 -0.5286 -0.5894
13103SOL    HW241317   0.874   6.959   4.612  0.1103  0.4840  0.0987
13104SOL     OW41318   3.159   9.077   6.537  0.0188 -0.6317  0.1613
13104SOL    HW141319   3.197   9.150   6.586 -1.4703 -0.4194  1.0456
13104SOL    HW241320   3.068   9.102   6.522 -0.6884 -2.5241  0.9931
13105SOL     OW41321   1.671   9.494   4.537 -0.7564 -0.0468 -0.1597
13105SOL    HW141322   1.756   9.456   4.560 -0.8727 -1.8032 -2.3350
13105SOL    HW241323   1.607   9.428   4.564 -1.1445 -0.3795 -1.7958
13106SOL     OW41324   6.102   8.438   9.339  0.2289  0.1317  0.1344
13106SOL    HW141325   6.133   8.358   9.381 -2.0092  0.0499  1.8196
13106SOL    HW241326   6.009   8.422   9.324  0.2578  1.4948 -1.8355
13107SOL     OW41327   3.856   9.964   4.508  0.0712 -0.0992 -0.2377
13107SOL    HW141328   3.855   9.892   4.571  2.7341 -0.4368 -0.4649
13107SOL    HW241329   3.783  10.020   4.534 -0.2551 -1.3562  1.7756
13108SOL     OW41330   4.431   9.228   4.792 -0.0489 -0.1059  0.0650
13108SOL    HW141331   4.396   9.288   4.725 -0.4855  0.4828  0.8061
13108SOL    HW241332   4.483   9.284   4.850  0.2369 -0.5946  0.2895
13109SOL     OW41333   1.750   5.228   9.688 -0.2155 -0.2368  0.0075
13109SOL    HW141334   1.841   5.200   9.693 -0.0194  0.4753  0.6036
13109SOL    HW241335   1.706   5.179   9.758 -0.3118 -0.6287 -0.3217
13110SOL     OW41336   3.745   9.069   4.239  0.1012 -0.0454  0.2347
13110SOL    HW141337   3.801   9.128   4.289 -0.9658  0.5244  0.8028
13110SOL    HW241338   3.736   8.992   4.296 -0.0771  0.0680  0.3619
13111SOL     OW41339   3.902  10.726  10.056  0.3402 -0.4402  0.4308
13111SOL    HW141340   3.820  10.736  10.104  0.8227 -0.2010  1.2096
13111SOL    HW241341   3.887  10.771   9.973  1.0001  3.1846  2.1148
13112SOL     OW41342   5.493   4.753   9.146  0.1577  0.3551 -0.1923
13112SOL    HW141343   5.536   4.798   9.073  0.1252  0.7033 -0.0038
13112SOL    HW241344   5.455   4.824   9.198 -0.4445  0.0636 -0.2318
13113SOL     OW41345   4.401   8.857  11.098 -0.5917 -0.4549 -0.3385
13113SOL    HW141346   4.374   8.771  11.064 -1.4335 -0.1805 -0.3694
13113SOL    HW241347   4.325   8.889  11.146 -0.5537  0.6021 -0.9580
13114SOL     OW41348   1.969   7.871   2.679  0.9431 -0.1176 -0.0225
13114SOL    HW141349   2.024   7.948   2.696  1.8152 -0.7752  0.2092
13114SOL    HW241350   1.922   7.856   2.762  1.7911 -0.6250  0.3818
13115SOL     OW41351   0.696   7.380   9.556  0.1535  0.3236 -0.3564
13115SOL    HW141352   0.698   7.284   9.557 -0.1799  0.3134  0.6603
13115SOL    HW241353   0.638   7.402   9.483  1.1781 -0.2160 -1.3522
13116SOL     OW41354   2.920  10.852  10.787  0.5019 -0.6744 -0.6681
13116SOL    HW141355   2.934  10.773  10.839  0.3109  0.6100  1.4808
13116SOL    HW241356   3.002  10.900  10.793 -0.2408  0.5591  0.4855
13117SOL     OW41357   4.460  10.835   7.758 -0.4761  0.0682 -0.1625
13117SOL    HW141358   4.530  10.820   7.822  0.0187  0.1188 -0.6875
13117SOL    HW241359   4.505  10.862   7.678 -1.1943  1.9192  0.0048
13118SOL     OW41360   9.298   1.219   0.112  0.1963  0.5682  0.0720
13118SOL    HW141361   9.337   1.237   0.197 -1.5285 -0.1656  1.0781
13118SOL    HW241362   9.338   1.137   0.084 -1.2306 -0.7057  1.5554
13119SOL     OW41363   8.256   8.819   3.999 -0.0271 -0.6391  0.1643
13119SOL    HW141364   8.231   8.911   4.005  0.6345 -0.4529  0.1113
13119SOL    HW241365   8.336   8.812   4.050  0.6501 -0.9065 -0.8893
13120SOL     OW41366   2.749   6.132   5.210 -0.3908  0.3040  0.0019
13120SOL    HW141367   2.769   6.173   5.294  2.7010 -1.7881  0.4718
13120SOL    HW241368   2.835   6.113   5.172 -1.6690 -1.8059 -2.0965
13121SOL     OW41369   3.421   7.912   4.353  0.1662  0.1047  0.1521
13121SOL    HW141370   3.458   7.880   4.436  0.7437 -2.8830 -1.1241
13121SOL    HW241371   3.362   7.842   4.325 -0.3570  1.2457 -1.7624
13122SOL     OW41372   7.213   8.194   1.529 -0.2731  0.4064  0.4519
13122SOL    HW141373   7.282   8.231   1.473  0.1202 -0.9846 -0.0074
13122SOL    HW241374   7.188   8.267   1.586  0.6303  1.3233 -0.2771
13123SOL     OW41375   1.013   8.854   3.544 -0.2196 -0.5833 -0.2509
13123SOL    HW141376   0.948   8.918   3.516 -0.7653 -1.6102 -1.4651
13123SOL    HW241377   1.097   8.899   3.536 -0.6931  0.4270  0.3259
13124SOL     OW41378   2.385   8.987   7.199  0.5594  0.0642  0.7093
13124SOL    HW141379   2.394   8.930   7.123  1.5086  1.0563  0.0522
13124SOL    HW241380   2.392   8.928   7.274  3.6762 -0.5079  0.1114
13125SOL     OW41381  10.439  10.821   4.163  0.2772  0.0979  0.3088
13125SOL    HW141382  10.460  10.792   4.251 -2.5934  0.3824  1.2100
13125SOL    HW241383  10.381  10.896   4.177 -2.0972 -1.2184 -1.7169
13126SOL     OW41384   2.017   1.134  10.412  0.5241 -0.0837  0.5471
13126SOL    HW141385   1.961   1.120  10.336 -1.3338  1.0236  1.6625
13126SOL    HW241386   1.987   1.070  10.476  1.2725 -0.1977  0.7940
13127SOL     OW41387   3.401   7.158   5.120 -0.1585  0.4789  0.3285
13127SOL    HW141388   3.464   7.213   5.169  0.8622  0.6485 -1.1012
13127SOL    HW241389   3.316   7.180   5.158  0.6004  0.3850  2.2082
13128SOL     OW41390  10.920  11.055   5.241 -0.3425 -0.0326 -0.3717
13128SOL    HW141391  10.830  11.029   5.259 -0.8755  1.4412 -0.7560
13128SOL    HW241392  10.942  11.117   5.311  0.9219 -1.4913  0.5792
13129SOL     OW41393   5.865   0.142   6.971  0.8902  0.2214  0.2742
13129SOL    HW141394   5.961   0.145   6.977  0.8431  1.4939  0.5479
13129SOL    HW241395   5.846   0.051   6.949  2.1028 -0.3535  1.4460
13130SOL     OW41396   3.395   7.034  10.892  0.8540  0.1344  0.2531
13130SOL    HW141397   3.384   7.123  10.859  2.9133  0.5213  0.4461
13130SOL    HW241398   3.442   6.988  10.822  0.6330 -0.5463  0.5382
13131SOL     OW41399   1.312  10.134   5.031 -0.2778 -0.4698 -0.1874
13131SOL    HW141400   1.221  10.138   5.004 -0.8472  0.5374  1.7006
13131SOL    HW241401   1.312  10.165   5.121  1.9663 -0.2687 -0.1908
13132SOL     OW41402   1.608   9.716   6.612  0.2885 -0.5104 -0.2624
13132SOL    HW141403   1.651   9.633   6.589  1.7867 -0.3384  1.6893
13132SOL    HW241404   1.680   9.772   6.641 -0.7614  1.3667 -1.1659
13133SOL     OW41405   0.286   8.830   6.937  0.7305 -0.1332 -0.0504
13133SOL    HW141406   0.203   8.810   6.981 -0.4263  1.8986 -1.1861
13133SOL    HW241407   0.307   8.750   6.889 -0.9901 -0.4590 -0.3364
13134SOL     OW41408   2.486   0.134   2.729  0.2116 -0.2449 -0.4774
13134SOL    HW141409   2.566   0.127   2.677 -0.6171 -2.2267 -1.6369
13134SOL    HW241410   2.488   0.222   2.766  2.3597  0.1387 -1.3808
13135SOL     OW41411   1.332   3.517   9.207  0.3275  0.2249  0.1597
13135SOL    HW141412   1.264   3.519   9.274  2.2167  0.6402  2.2159
13135SOL    HW241413   1.406   3.562   9.248  2.2504 -1.2832 -1.4377
13136SOL     OW41414   9.157   0.311  10.788  0.0714  0.1159 -0.1476
13136SOL    HW141415   9.140   0.218  10.773 -1.2813  0.1592  0.9515
13136SOL    HW241416   9.102   0.357  10.725 -0.3852  0.1766  0.2844
13137SOL     OW41417   9.678   0.351   9.860 -0.1711 -0.2717  0.0110
13137SOL    HW141418   9.745   0.420   9.865  1.3165 -1.5730 -0.7652
13137SOL    HW241419   9.704   0.299   9.783 -1.9920 -0.9453 -0.1932
13138SOL     OW41420   2.515   8.580  10.818 -0.1704  0.2529 -0.3203
13138SOL    HW141421   2.502   8.670  10.847  2.3254  0.6888 -0.3731
13138SOL    HW241422   2.527   8.587  10.723 -2.6721 -0.5245 -0.7832
13139SOL     OW41423   2.163   3.353   1.915 -0.0213 -0.6744  0.1314
13139SOL    HW141424   2.251   3.381   1.889 -0.5231  0.4520 -0.4297
13139SOL    HW241425   2.155   3.265   1.879  0.3396 -0.2184 -1.1326
13140SOL     OW41426   2.016   4.223   8.441 -0.8187 -0.1880  0.0413
13140SOL    HW141427   1.997   4.143   8.490 -0.5494  0.0715  0.5731
13140SOL    HW241428   1.946   4.284   8.464 -1.4252 -0.4990 -0.9148
13141SOL     OW41429   3.591   4.281   5.383 -0.1154 -0.4255  0.2107
13141SOL    HW141430   3.596   4.325   5.469  0.2837 -0.4628  0.2055
13141SOL    HW241431   3.531   4.336   5.333 -0.0005 -0.1520  0.3673
13142SOL     OW41432   4.479   7.102  10.580  0.3538  0.2210  0.5083
13142SOL    HW141433   4.397   7.135  10.544  0.6891 -0.9083 -1.4671
13142SOL    HW241434   4.478   7.008  10.560  2.3516  0.2821 -0.1262
13143SOL     OW41435   1.982   2.268   4.568  0.4255  0.2907  0.1230
13143SOL    HW141436   1.988   2.277   4.473 -0.3846  0.6420  0.1078
13143SOL    HW241437   2.068   2.297   4.600  0.9855 -0.5753 -0.5461
13144SOL     OW41438   5.820  10.914   5.300  0.5537 -0.5411 -0.2790
13144SOL    HW141439   5.767  10.971   5.244 -0.4268 -1.2121 -0.0724
13144SOL    HW241440   5.890  10.882   5.243  0.3568 -0.1454 -0.7475
13145SOL     OW41441   1.616   8.494   3.715 -0.0257 -0.3901 -0.3253
13145SOL    HW141442   1.652   8.432   3.652 -0.7334 -1.3699  0.2034
13145SOL    HW241443   1.638   8.457   3.800  0.8977  0.9071  0.0311
13146SOL     OW41444   4.350   9.042  10.089 -0.0323  0.4131  0.2666
13146SOL    HW141445   4.304   9.124  10.072 -1.7974 -0.8344 -1.3747
13146SOL    HW241446   4.280   8.976  10.095  1.3278 -1.0042  1.4622
13147SOL     OW41447   1.718   1.366   3.157 -0.1597  0.1350  0.1666
13147SOL    HW141448   1.739   1.302   3.225 -1.4844  0.9742  1.3988
13147SOL    HW241449   1.738   1.320   3.075 -0.5069 -1.6422  1.0210
13148SOL     OW41450   4.038   4.949   7.890 -0.4995  0.0678 -0.1000
13148SOL    HW141451   4.004   4.986   7.971  0.7502  0.7493  0.1433
13148SOL    HW241452   4.133   4.961   7.896 -0.3682  0.0009 -1.5986
13149SOL     OW41453   4.307   8.392   1.705 -0.6075 -0.1069  0.1675
13149SOL    HW141454   4.361   8.456   1.751  0.5819 -0.5780 -0.5082
13149SOL    HW241455   4.286   8.433   1.621  0.1123 -0.5582 -0.2448
13150SOL     OW41456   1.165   4.522   2.438 -0.0469 -0.1935  0.6475
13150SOL    HW141457   1.219   4.582   2.489  1.7679 -0.5557 -0.7785
13150SOL    HW241458   1.109   4.479   2.503  2.4351 -0.9261  2.4237
13151SOL     OW41459   7.311   7.690   8.506  0.2272 -0.5694 -0.0280
13151SOL    HW141460   7.236   7.748   8.523  1.0410  0.2714  0.8344
13151SOL    HW241461   7.275   7.619   8.454 -1.0915  0.0243  0.0293
13152SOL     OW41462   2.222   9.521   1.702 -0.0203 -0.5401 -0.1408
13152SOL    HW141463   2.300   9.472   1.676 -0.7538 -1.9499  0.2582
13152SOL    HW241464   2.225   9.521   1.798  0.9611  1.8812 -0.0712
13153SOL     OW41465   5.627   8.188   9.190  0.1028 -0.0797 -0.3034
13153SOL    HW141466   5.568   8.264   9.196  0.6364  0.4831 -1.6851
13153SOL    HW241467   5.696   8.206   9.253  0.9356  1.2737 -1.5444
13154SOL     OW41468   1.897   3.908   7.175  0.4442 -0.6485  0.8651
13154SOL    HW141469   1.906   4.002   7.159 -1.9458 -0.3082  1.1535
13154SOL    HW241470   1.962   3.889   7.242  2.9689  0.1599 -1.1924
13155SOL     OW41471   0.113   1.390   1.036 -1.1100 -0.3650  0.5546
13155SOL    HW141472   0.102   1.463   1.096 -1.3091 -1.7409  2.3004
13155SOL    HW241473   0.066   1.317   1.079  0.3086 -1.8827 -0.3573
13156SOL     OW41474   2.459  10.984   9.267 -0.2547  0.1370  0.1480
13156SOL    HW141475   2.444  10.994   9.173  0.3663  0.0620  0.0358
13156SOL    HW241476   2.418  10.900   9.288 -0.2780  0.0890 -0.0813
13157SOL     OW41477   3.264   0.416   4.837  0.2279  0.3730  0.2216
13157SOL    HW141478   3.215   0.355   4.781 -0.9640  1.7170 -0.2894
13157SOL    HW241479   3.348   0.427   4.792 -0.5899  1.1853 -1.1948
13158SOL     OW41480   8.674  10.291   5.489  0.2977  0.2953  0.5270
13158SOL    HW141481   8.650  10.326   5.403  0.7208 -1.4074 -0.3410
13158SOL    HW241482   8.687  10.368   5.544 -1.1276  1.4096 -0.6060
13159SOL     OW41483  10.660   7.505   5.999  0.3819 -0.2921  0.0895
13159SOL    HW141484  10.709   7.482   6.079 -0.5282  0.6303  0.9414
13159SOL    HW241485  10.595   7.435   5.989 -0.8756  0.6430  1.3717
13160SOL     OW41486   1.079   3.958   7.171 -0.1060  0.5711  0.2056
13160SOL    HW141487   1.072   4.012   7.092  1.1153 -0.9507 -0.9996
13160SOL    HW241488   1.143   3.891   7.148  0.1095 -0.0463  2.4360
13161SOL     OW41489  10.726   4.173   6.983 -0.2115 -1.0762  0.3001
13161SOL    HW141490  10.637   4.171   6.950 -0.1383 -0.3298  0.0220
13161SOL    HW241491  10.763   4.089   6.958 -0.6084 -1.0936 -0.2511
13162SOL     OW41492   3.059   8.414   9.367  0.1637  0.5818 -0.3871
13162SOL    HW141493   2.982   8.464   9.338 -1.6982 -1.8172  0.1386
13162SOL    HW241494   3.087   8.365   9.290  0.4512  0.5632 -0.2724
13163SOL     OW41495  10.847   5.422   8.760 -1.1200 -0.5612 -0.0720
13163SOL    HW141496  10.805   5.443   8.677  0.8168  1.2586 -0.6791
13163SOL    HW241497  10.911   5.355   8.738  0.4037  0.9328 -0.4300
13164SOL     OW41498  10.843   2.779   5.887  0.1574 -0.2417 -0.2067
13164SOL    HW141499  10.773   2.841   5.868  1.4517  0.7479 -2.0353
13164SOL    HW241500  10.813   2.696   5.850  1.0395  0.8095 -3.6206
13165SOL     OW41501   9.279   8.908   1.795 -0.0710  0.1514 -0.4123
13165SOL    HW141502   9.308   8.879   1.881  0.3831  1.6057 -0.0407
13165SOL    HW241503   9.229   8.834   1.760  0.6211 -0.8548  0.6515
13166SOL     OW41504   9.907   7.792   2.490  0.2166  0.1535  0.1951
13166SOL    HW141505   9.980   7.773   2.431 -0.4763 -0.8262 -0.3491
13166SOL    HW241506   9.852   7.853   2.441  0.7224  1.0255  0.6703
13167SOL     OW41507   1.260   1.260   7.395  0.5331  0.6405  0.1167
13167SOL    HW141508   1.234   1.248   7.487 -1.1396  3.5945  0.1623
13167SOL    HW241509   1.344   1.306   7.400  2.0410 -1.9623  0.0521
13168SOL     OW41510   4.059   0.992   9.462 -0.4424 -0.6819 -0.0577
13168SOL    HW141511   3.985   0.944   9.497 -1.6542  1.6425  0.7888
13168SOL    HW241512   4.128   0.982   9.528 -1.2143  0.0039  0.8776
13169SOL     OW41513   3.171   2.901   8.475 -0.3370 -0.2662  0.7903
13169SOL    HW141514   3.199   2.982   8.432  0.1564 -0.7614  0.1598
13169SOL    HW241515   3.230   2.891   8.549  0.1273 -0.4629  0.3985
13170SOL     OW41516   3.242   4.684   3.315  0.1401 -0.2087  0.4276
13170SOL    HW141517   3.305   4.743   3.357  1.1991 -1.3138  0.4414
13170SOL    HW241518   3.259   4.692   3.222 -0.9546  0.8433  0.2908
13171SOL     OW41519   4.291  10.635   2.757  0.1435 -0.1269 -0.2197
13171SOL    HW141520   4.272  10.697   2.687  2.8320  0.0218 -0.9522
13171SOL    HW241521   4.308  10.690   2.834 -0.6425 -0.1620 -0.0162
13172SOL     OW41522   4.730   2.038   2.723  0.3182 -0.2320 -0.4348
13172SOL    HW141523   4.822   2.021   2.741 -0.0209 -0.5489  1.1579
13172SOL    HW241524   4.686   2.023   2.807 -1.4744 -2.2375 -1.6203
13173SOL     OW41525   1.587   6.771   7.157  0.4378  0.1251  0.4447
13173SOL    HW141526   1.592   6.799   7.066 -1.5651  1.7890  0.7527
13173SOL    HW241527   1.570   6.677   7.153 -0.1630  0.2716 -0.9023
13174SOL     OW41528   3.917   6.902   0.688  0.3105  0.0721 -0.3281
13174SOL    HW141529   3.909   6.897   0.784 -0.5667 -1.4723 -0.4437
13174SOL    HW241530   3.961   6.986   0.672 -2.1377  1.8198  1.2849
13175SOL     OW41531   2.971   8.543   4.773  0.1592 -0.0784 -0.2560
13175SOL    HW141532   3.009   8.486   4.840  0.2473  0.7847  0.4378
13175SOL    HW241533   2.879   8.517   4.769  0.1243 -0.0459  0.3020
13176SOL     OW41534   4.510   8.477   9.562 -0.2931 -0.2980 -0.7101
13176SOL    HW141535   4.422   8.513   9.550 -0.3848 -0.6074 -0.9546
13176SOL    HW241536   4.565   8.530   9.504  0.0004  1.1143  0.7775
13177SOL     OW41537   6.136   0.572   7.633  0.1486 -0.0569 -0.1083
13177SOL    HW141538   6.136   0.668   7.628 -0.2291  0.0077  0.8531
13177SOL    HW241539   6.094   0.553   7.717  3.5921 -0.9558  1.6216
13178SOL     OW41540   9.687   7.560   7.604  0.3670 -0.3249 -0.2469
13178SOL    HW141541   9.703   7.527   7.692  1.6673 -0.9438 -0.6868
13178SOL    HW241542   9.596   7.538   7.586 -0.1012  0.3657  1.1620
13179SOL     OW41543   4.317   3.888   7.264 -0.3210 -0.0084 -0.0140
13179SOL    HW141544   4.356   3.967   7.302 -0.4707 -0.1414  0.4195
13179SOL    HW241545   4.223   3.897   7.282 -0.4735  0.2105 -0.8697
13180SOL     OW41546   7.754   1.096   9.621 -0.4007  0.0409 -0.3766
13180SOL    HW141547   7.780   1.055   9.538  1.5870 -0.3904  0.4157
13180SOL    HW241548   7.773   1.189   9.609  0.7504 -0.1518 -0.1001
13181SOL     OW41549   5.130   8.011   4.970  0.0067  0.1245 -0.1445
13181SOL    HW141550   5.175   7.959   5.036 -0.0802  1.9041  1.3994
13181SOL    HW241551   5.128   8.099   5.006  0.1264  1.2386 -2.6285
13182SOL     OW41552   1.375   3.418   5.919  0.6341 -0.0885 -0.7458
13182SOL    HW141553   1.289   3.376   5.911  0.1973  0.8545 -1.1739
13182SOL    HW241554   1.356   3.502   5.962  1.9271 -1.7844  3.7719
13183SOL     OW41555   2.961   8.841   3.926 -0.4028 -0.7213 -0.1232
13183SOL    HW141556   2.974   8.760   3.974  0.1233 -0.5230  0.0743
13183SOL    HW241557   3.047   8.882   3.922 -0.7134 -0.0213  0.0589
13184SOL     OW41558   9.901   4.101   2.186  0.1116  0.4442 -0.1071
13184SOL    HW141559   9.866   4.032   2.131  0.2513  1.1112 -1.0710
13184SOL    HW241560   9.827   4.160   2.200  0.2037  0.5375 -0.0150
13185SOL     OW41561   2.099   0.368   5.310  0.0551 -0.4691 -0.1999
13185SOL    HW141562   2.080   0.383   5.403  0.4360  1.3157 -0.3922
13185SOL    HW241563   2.141   0.281   5.309 -2.8726 -2.0485  0.8705
13186SOL     OW41564   2.158   9.089   6.176  0.5001  0.5325  0.1689
13186SOL    HW141565   2.229   9.057   6.121  2.2154  3.9220  0.1653
13186SOL    HW241566   2.093   9.122   6.115  0.5771  0.6840  0.1682
13187SOL     OW41567   5.773   5.865   1.937 -0.0599  0.2185  0.0371
13187SOL    HW141568   5.794   5.872   1.844  0.8598  0.0497  0.2289
13187SOL    HW241569   5.808   5.781   1.964 -1.4249 -0.3124  0.2671
13188SOL     OW41570   3.039   9.159   3.054  0.4811  0.6755 -0.2621
13188SOL    HW141571   3.044   9.237   3.000 -1.2422  2.9520  2.5753
13188SOL    HW241572   3.089   9.181   3.133 -0.2197 -0.9909  0.7014
13189SOL     OW41573   1.146   4.628   1.932 -0.0752  0.2697  0.2752
13189SOL    HW141574   1.168   4.542   1.967  0.1110  0.1149 -0.2133
13189SOL    HW241575   1.167   4.689   2.003  2.4041  0.1773 -0.2795
13190SOL     OW41576  10.436   9.388   9.513 -0.1332  0.1828  0.3239
13190SOL    HW141577  10.420   9.335   9.590  0.0334  1.8026  1.5358
13190SOL    HW241578  10.458   9.475   9.548 -0.0862  0.9723 -1.5415
13191SOL     OW41579   6.267   7.872   4.389  0.2248  0.1974 -0.1379
13191SOL    HW141580   6.185   7.826   4.406  0.8214 -0.4259  1.1688
13191SOL    HW241581   6.299   7.835   4.307 -0.4574 -0.0300 -0.3073
13192SOL     OW41582   5.261   4.844   5.987  0.3947 -0.2087  0.4178
13192SOL    HW141583   5.281   4.785   6.060 -1.2746 -1.1544  0.1403
13192SOL    HW241584   5.187   4.804   5.943  1.5345  0.1902 -2.0103
13193SOL     OW41585   5.176   5.328   7.814 -0.1464  0.2112 -0.6892
13193SOL    HW141586   5.121   5.254   7.838  1.5006 -1.7536 -2.6031
13193SOL    HW241587   5.115   5.392   7.776 -1.3776 -0.9083 -0.6554
13194SOL     OW41588   0.375   1.001   4.395  0.3187  0.0828  0.7355
13194SOL    HW141589   0.292   1.044   4.375 -1.0199 -2.7542 -0.3920
13194SOL    HW241590   0.376   0.924   4.339  3.1451 -0.7020  1.6910
13195SOL     OW41591   1.313   2.879   3.496 -0.4805 -0.3744 -0.5485
13195SOL    HW141592   1.318   2.790   3.530  2.6157  0.0989  0.5747
13195SOL    HW241593   1.285   2.932   3.570 -1.1055 -0.2483 -0.8699
13196SOL     OW41594   8.122   3.194   8.620  0.6894  0.0717  0.0236
13196SOL    HW141595   8.184   3.257   8.657 -0.1518 -0.0515  1.7340
13196SOL    HW241596   8.056   3.248   8.577  0.8195  0.2983  0.1083
13197SOL     OW41597  10.661   8.405   6.358  0.1855 -0.0021  0.4816
13197SOL    HW141598  10.586   8.465   6.349 -0.8590 -1.4673 -1.2947
13197SOL    HW241599  10.712   8.421   6.279  0.4267 -0.7531  0.4887
13198SOL     OW41600   3.532   3.509   4.859  0.3621  0.0684  0.2612
13198SOL    HW141601   3.537   3.417   4.832 -1.9967  0.0878 -0.3838
13198SOL    HW241602   3.513   3.557   4.778 -2.1025  0.6745  1.1420
13199SOL     OW41603   9.606  10.853   3.177  0.2014 -0.5803 -0.8914
13199SOL    HW141604   9.587  10.817   3.090 -1.0150  0.4882 -1.1027
13199SOL    HW241605   9.522  10.855   3.222  0.3660  1.0836 -0.5611
13200SOL     OW41606   5.858   9.110   6.407 -0.4152  0.3709  0.3924
13200SOL    HW141607   5.873   9.029   6.455 -1.2497 -0.0135  0.0253
13200SOL    HW241608   5.771   9.139   6.435  0.1696  1.5459  1.0790
13201SOL     OW41609   6.238   9.112   9.724 -0.1623  0.3714  0.1756
13201SOL    HW141610   6.245   9.191   9.669  0.0062 -0.3086 -0.8049
13201SOL    HW241611   6.305   9.124   9.791  1.6759 -0.1150 -1.5004
13202SOL     OW41612   0.865  10.416   4.314  0.0403  0.0067 -0.3841
13202SOL    HW141613   0.782  10.441   4.354  0.4725  0.3156  0.3379
13202SOL    HW241614   0.897  10.345   4.369 -0.6527 -1.4406 -1.7833
13203SOL     OW41615   0.973  10.573   9.032  0.1435  0.1946 -0.5361
13203SOL    HW141616   1.028  10.585   8.955  0.5322  0.3640 -0.2348
13203SOL    HW241617   1.034  10.580   9.106 -0.3033  0.4991 -0.1969
13204SOL     OW41618   0.241   7.813   1.464 -0.0217  0.4741 -0.2387
13204SOL    HW141619   0.207   7.736   1.419  1.1791  1.1089 -2.3412
13204SOL    HW241620   0.165   7.848   1.512 -0.9116 -1.2255 -0.3325
13205SOL     OW41621   6.059   9.896   8.757  0.1793  0.1332  0.2786
13205SOL    HW141622   6.142   9.927   8.720  0.4111  0.7551  1.2807
13205SOL    HW241623   6.057   9.802   8.735  1.4304 -0.0213  0.7446
13206SOL     OW41624   0.717   9.607   4.782  0.8267 -0.4427  0.2962
13206SOL    HW141625   0.781   9.541   4.756 -1.5052 -2.4959 -0.6681
13206SOL    HW241626   0.707   9.594   4.877  2.8980  1.0071  0.7817
13207SOL     OW41627   3.390   3.127   3.654  0.5065  0.4695 -0.1739
13207SOL    HW141628   3.346   3.205   3.686  1.0048  0.1842  1.3096
13207SOL    HW241629   3.469   3.160   3.611  1.0188  0.7879  0.9618
13208SOL     OW41630   3.161   7.203   2.626  0.4304 -0.0370  0.1172
13208SOL    HW141631   3.209   7.245   2.696  0.2814  2.3214 -1.1086
13208SOL    HW241632   3.211   7.123   2.608  3.2289  1.6431 -0.2270
13209SOL     OW41633   1.144   8.215   5.609  0.0140 -0.0771  0.0526
13209SOL    HW141634   1.235   8.187   5.619  0.1739  0.2494 -0.4463
13209SOL    HW241635   1.093   8.144   5.648  0.4514 -0.6114 -0.3364
13210SOL     OW41636   2.297   5.677   9.088  0.2249 -0.0205  0.0304
13210SOL    HW141637   2.327   5.766   9.070 -0.9193  0.2934 -0.4229
13210SOL    HW241638   2.206   5.688   9.116  0.0415 -1.0557 -0.1270
13211SOL     OW41639   0.215   0.884  10.970  0.4669  0.1541  0.5350
13211SOL    HW141640   0.196   0.898  11.063  2.3870  0.8106  0.8876
13211SOL    HW241641   0.311   0.876  10.967  0.5320  1.1380 -1.5004
13212SOL     OW41642  10.446   7.658   2.859  0.1975 -0.4552  0.2497
13212SOL    HW141643  10.399   7.736   2.887 -0.3487 -1.0308  0.9561
13212SOL    HW241644  10.378   7.593   2.843  0.7356 -1.2555  1.1309
13213SOL     OW41645   5.186   8.143   0.749 -0.3100 -0.0334  0.2338
13213SOL    HW141646   5.107   8.195   0.765  0.7321  1.6477  0.0996
13213SOL    HW241647   5.257   8.196   0.784  1.0555 -0.2811 -2.0234
13214SOL     OW41648  10.320   8.242   4.258 -0.4639 -0.0047 -0.0968
13214SOL    HW141649  10.354   8.325   4.226 -0.4684 -0.7020 -1.9966
13214SOL    HW241650  10.382   8.176   4.228 -1.0552 -0.8186  0.4070
13215SOL     OW41651   3.630   2.593   4.978 -0.2864 -0.6286 -0.1318
13215SOL    HW141652   3.644   2.596   4.883  0.8585 -2.6839 -0.0926
13215SOL    HW241653   3.694   2.655   5.013  0.2212 -0.8497 -0.6414
13216SOL     OW41654   4.680   9.269   8.818 -0.1260  0.0811  0.2476
13216SOL    HW141655   4.657   9.245   8.907  0.1083  2.4048  0.9914
13216SOL    HW241656   4.718   9.190   8.781 -2.8272 -1.8091  1.2279
13217SOL     OW41657   8.026   9.856   8.669  0.6226 -0.4427  0.2528
13217SOL    HW141658   8.061   9.925   8.611 -0.8961 -2.5250 -3.5015
13217SOL    HW241659   8.091   9.786   8.664 -0.2728 -1.2517 -0.2603
13218SOL     OW41660   3.137   5.614   7.405  0.6725 -0.1739  0.6179
13218SOL    HW141661   3.180   5.577   7.482 -0.6049  0.7710  1.8244
13218SOL    HW241662   3.083   5.686   7.439  0.2446  0.4105 -1.1832
13219SOL     OW41663   1.815   1.716   3.684 -0.0201 -0.2851  0.2619
13219SOL    HW141664   1.811   1.765   3.601 -1.0238 -1.0325 -0.1387
13219SOL    HW241665   1.858   1.634   3.661  0.6611 -0.0710  0.7182
13220SOL     OW41666   4.040   5.360  10.274 -0.1952  0.4801 -0.6676
13220SOL    HW141667   4.076   5.345  10.362 -1.9680  0.9233  0.1779
13220SOL    HW241668   4.117   5.363  10.217  1.0355  0.5485  0.9155
13221SOL     OW41669   1.556  10.308   0.858 -0.0682 -0.4755 -0.8836
13221SOL    HW141670   1.617  10.313   0.785  0.6494  0.6419 -0.2206
13221SOL    HW241671   1.608  10.275   0.931 -0.9154 -2.1442 -0.9911
13222SOL     OW41672   9.147   7.981  10.992 -0.2746  0.2479 -0.1652
13222SOL    HW141673   9.108   8.061  11.027 -1.7626 -1.2906  1.9788
13222SOL    HW241674   9.238   7.982  11.022  0.2209  1.8725 -1.5963
13223SOL     OW41675   6.368  10.697   5.261  0.1416 -0.3153  0.1723
13223SOL    HW141676   6.347  10.625   5.320  0.2964 -0.0664  0.5374
13223SOL    HW241677   6.367  10.775   5.316 -2.5901  0.3604 -0.6834
13224SOL     OW41678  10.595   6.842   7.912  0.1806  0.0742 -0.1617
13224SOL    HW141679  10.610   6.931   7.945  0.2571  0.2818 -0.7433
13224SOL    HW241680  10.595   6.787   7.991 -2.1033  0.8614  0.4692
13225SOL     OW41681   3.128   7.219   0.324 -0.2757 -0.1238  0.2226
13225SOL    HW141682   3.213   7.243   0.287  0.0397 -1.1624  0.2668
13225SOL    HW241683   3.102   7.297   0.375  1.4245 -0.3777  1.5812
13226SOL     OW41684   2.608   5.894   9.014 -0.5006 -0.6031  0.0234
13226SOL    HW141685   2.652   5.840   9.080  0.0031  0.7015  0.7914
13226SOL    HW241686   2.637   5.857   8.931  0.8608 -0.7427  0.5170
13227SOL     OW41687   9.152   8.605   3.396 -0.3948 -0.1077 -0.0060
13227SOL    HW141688   9.057   8.595   3.385 -0.7268  1.6865  0.9200
13227SOL    HW241689   9.163   8.633   3.487  1.1693 -1.6326  0.3247
13228SOL     OW41690   4.564   8.674   0.974 -0.6835  0.1439 -0.0448
13228SOL    HW141691   4.498   8.712   0.917 -0.2159 -0.6766 -1.1655
13228SOL    HW241692   4.533   8.585   0.992 -0.3686  0.0826  0.2116
13229SOL     OW41693   9.218   6.919  10.885  0.2386  0.4391 -0.4776
13229SOL    HW141694   9.245   6.861  10.814 -0.1235 -0.1908 -0.1094
13229SOL    HW241695   9.125   6.935  10.870 -0.5331 -1.8733  1.2998
13230SOL     OW41696  10.862   3.355   1.001  0.3793  0.2458  0.8626
13230SOL    HW141697  10.898   3.267   0.988  0.4379  0.4502 -0.5898
13230SOL    HW241698  10.844   3.361   1.095 -0.0354 -1.4685  0.9177
13231SOL     OW41699   8.878   8.892  10.211  0.4873 -0.2319  0.1324
13231SOL    HW141700   8.807   8.931  10.160  1.2656  1.7916  0.5068
13231SOL    HW241701   8.949   8.956  10.205  1.9290 -1.7323  0.6158
13232SOL     OW41702   0.669   0.038   4.873 -0.4672 -0.2540  0.0945
13232SOL    HW141703   0.654   0.128   4.903 -0.9335  0.3714 -1.8737
13232SOL    HW241704   0.618  -0.016   4.933  1.7440  0.4685  2.9003
13233SOL     OW41705  10.442   5.566   3.624 -0.1870  0.2907 -0.3096
13233SOL    HW141706  10.516   5.593   3.677  0.5137 -1.8461 -0.1121
13233SOL    HW241707  10.473   5.572   3.534 -0.3254  0.9147 -0.3196
13234SOL     OW41708   9.318   8.335   8.088  0.4766  0.3311  0.1158
13234SOL    HW141709   9.293   8.250   8.125  0.7871 -0.4222 -1.3344
13234SOL    HW241710   9.375   8.313   8.015 -1.6937  1.6250 -2.1261
13235SOL     OW41711   4.997   6.836   2.814  0.1940 -0.2009  0.3349
13235SOL    HW141712   5.084   6.828   2.853  0.6842 -0.3146 -0.7582
13235SOL    HW241713   5.006   6.799   2.727 -0.4737  1.4463 -0.4834
13236SOL     OW41714  10.456   4.576   9.600 -0.3563  0.5273 -0.5888
13236SOL    HW141715  10.394   4.504   9.588 -0.0287 -0.0234  0.8539
13236SOL    HW241716  10.460   4.618   9.514 -0.7412 -1.0146 -1.4010
13237SOL     OW41717   5.437   5.984   1.129 -0.4365  0.4368 -0.0393
13237SOL    HW141718   5.506   5.992   1.195 -2.0487  1.7591  1.5810
13237SOL    HW241719   5.472   6.030   1.052  1.1864 -0.5075  0.0866
13238SOL     OW41720   2.230   4.073   7.667 -0.6514  0.2829 -0.3012
13238SOL    HW141721   2.181   4.153   7.682 -0.2110  0.0864  2.9302
13238SOL    HW241722   2.205   4.015   7.739  1.8127 -1.0527 -0.3986
13239SOL     OW41723   8.813   1.162   6.104 -0.3658  0.0852 -0.0017
13239SOL    HW141724   8.726   1.125   6.121  0.0857 -1.4589 -0.8487
13239SOL    HW241725   8.874   1.097   6.139  0.4765  1.4112  1.0919
13240SOL     OW41726  10.030   2.830  11.000 -0.1679  0.4069 -0.1583
13240SOL    HW141727   9.934   2.829  10.990 -0.3077 -0.7860  1.1261
13240SOL    HW241728  10.062   2.785  10.922 -0.7043 -0.0738 -0.1089
13241SOL     OW41729   5.080   0.349   7.936 -0.2599  0.0433 -0.0154
13241SOL    HW141730   5.009   0.398   7.978  0.3384  1.7583 -0.9368
13241SOL    HW241731   5.143   0.415   7.910  0.6435 -1.2464 -1.2371
13242SOL     OW41732   2.487   5.938   2.756  0.4898 -0.0584 -0.7188
13242SOL    HW141733   2.504   5.946   2.663 -0.3441 -1.0293 -0.9751
13242SOL    HW241734   2.417   5.872   2.762 -0.8560  1.4019  0.4545
13243SOL     OW41735   2.386   8.793   6.960  0.1463  0.4528 -0.0152
13243SOL    HW141736   2.421   8.704   6.955 -0.2064  0.3012  0.1762
13243SOL    HW241737   2.459   8.849   6.936  1.0654  0.2585  2.1008
13244SOL     OW41738   1.825  10.980  10.790  0.2560 -0.1025  0.5971
13244SOL    HW141739   1.862  11.064  10.817 -0.9552  0.5823  0.1969
13244SOL    HW241740   1.895  10.939  10.739  0.6909  0.8979  0.3505
13245SOL     OW41741   3.951   3.368  10.640 -0.6719  0.1054 -0.7848
13245SOL    HW141742   4.035   3.392  10.679 -0.1783 -0.7128 -1.3177
13245SOL    HW241743   3.898   3.337  10.714 -1.1389  2.2262 -0.1739
13246SOL     OW41744  10.737   1.975  10.042 -0.3247  0.0445 -0.0436
13246SOL    HW141745  10.823   1.956  10.079  0.2927  1.4593 -0.6851
13246SOL    HW241746  10.707   2.053  10.089 -1.5934 -0.8175  0.6576
13247SOL     OW41747   2.357   3.927   7.414  0.1626 -0.2792  0.0711
13247SOL    HW141748   2.351   4.023   7.419  2.9738 -0.0177 -0.1573
13247SOL    HW241749   2.383   3.900   7.502  2.4179 -0.4577 -0.5855
13248SOL     OW41750  10.958   8.945  10.251  0.0911  0.3689 -0.1056
13248SOL    HW141751  10.964   9.022  10.307 -2.4629  1.7298 -1.5077
13248SOL    HW241752  11.019   8.963  10.179 -0.1778  0.9078 -0.2041
13249SOL     OW41753   3.074   1.146   9.429  0.7301 -0.2248 -0.0442
13249SOL    HW141754   3.131   1.088   9.379  0.1468  0.7727 -1.9744
13249SOL    HW241755   2.986   1.130   9.394  0.3377  0.6969  0.4713
13250SOL     OW41756   3.133   9.899   0.542  0.0209 -0.2162 -0.6892
13250SOL    HW141757   3.153   9.861   0.628  0.9526 -1.3340 -1.3624
13250SOL    HW241758   3.197   9.970   0.532  0.0828 -0.2520 -0.5597
13251SOL     OW41759   5.816   7.095   8.199 -0.5092  0.3024  0.1836
13251SOL    HW141760   5.850   7.046   8.125 -0.9808  1.8263 -1.0850
13251SOL    HW241761   5.727   7.120   8.173 -0.5304  1.2278  1.0690
13252SOL     OW41762   4.934  10.714   6.726 -0.6280 -0.8898  0.5572
13252SOL    HW141763   4.943  10.793   6.672  1.9644 -0.2120  1.8160
13252SOL    HW241764   4.909  10.645   6.664 -0.0675  0.3163 -1.0807
13253SOL     OW41765   3.079   9.762   9.937 -0.3576 -0.6535 -0.0651
13253SOL    HW141766   3.113   9.697   9.875  0.7300 -1.5680  1.4264
13253SOL    HW241767   3.107   9.846   9.901  1.1351 -1.2206 -0.3316
13254SOL     OW41768   8.948   8.725   6.497 -0.6729 -0.1552  0.0799
13254SOL    HW141769   8.887   8.693   6.431  0.1602  0.9748 -1.3225
13254SOL    HW241770   8.929   8.674   6.575 -2.2035 -1.0340 -0.8210
13255SOL     OW41771   4.246   7.965   7.949 -0.3428  0.1606  0.6599
13255SOL    HW141772   4.193   7.886   7.955 -0.7871  0.4732  0.9528
13255SOL    HW241773   4.225   8.001   7.863 -0.8987  0.4764  0.9179
13256SOL     OW41774   1.821   1.106   9.100  0.0257 -0.3591  0.6769
13256SOL    HW141775   1.874   1.034   9.133  0.2768  0.0626  1.2014
13256SOL    HW241776   1.754   1.119   9.166 -0.4137 -0.5356  0.2730
13257SOL     OW41777   0.010   9.450   0.472 -0.0935  0.0612  0.3265
13257SOL    HW141778  -0.017   9.362   0.446 -0.8338  0.4945 -0.4165
13257SOL    HW241779  -0.066   9.506   0.453  0.0471  0.7318  1.6090
13258SOL     OW41780   2.204   7.194   0.133  0.1927  0.0938 -0.3621
13258SOL    HW141781   2.246   7.274   0.164 -0.4196 -0.1153  1.0910
13258SOL    HW241782   2.263   7.124   0.158 -0.2895 -0.0752  0.3383
13259SOL     OW41783   6.789   3.447   0.215  0.3040 -0.0558  0.4840
13259SOL    HW141784   6.848   3.453   0.290  0.4438  2.3146  0.2536
13259SOL    HW241785   6.723   3.383   0.241  1.3724 -0.6253  1.8836
13260SOL     OW41786   3.659  10.468  10.585  0.1767 -0.5115 -0.8623
13260SOL    HW141787   3.617  10.437  10.505  4.2339 -2.1775 -2.6384
13260SOL    HW241788   3.677  10.561  10.569 -0.2393 -0.5078 -1.3102
13261SOL     OW41789   5.532   7.410   9.604 -0.4149 -0.1153 -0.1902
13261SOL    HW141790   5.481   7.362   9.539  0.2738  0.5926 -1.2900
13261SOL    HW241791   5.471   7.474   9.640 -0.4586  0.4143 -1.1613
13262SOL     OW41792   8.657   0.245   5.612  0.0129 -0.1454 -0.4439
13262SOL    HW141793   8.746   0.262   5.641  0.2764  0.5436 -1.6009
13262SOL    HW241794   8.627   0.173   5.667  0.4445  1.1288  1.5713
13263SOL     OW41795   7.679   3.308   3.777 -0.4229 -0.7637 -0.4327
13263SOL    HW141796   7.674   3.403   3.782 -0.6528 -0.7503 -0.8276
13263SOL    HW241797   7.711   3.280   3.863 -0.2898 -0.3271 -0.3403
13264SOL     OW41798   2.095   8.208   3.452  0.6381  0.0407 -0.6357
13264SOL    HW141799   2.013   8.166   3.479  1.0440  0.4191  1.3355
13264SOL    HW241800   2.137   8.143   3.395 -0.1117 -1.0069 -0.0325
13265SOL     OW41801   5.559  10.128  10.419  0.5811  0.1069  0.7224
13265SOL    HW141802   5.596  10.066  10.356  0.7792  0.3263  0.6222
13265SOL    HW241803   5.618  10.203  10.416  0.1596  0.4374  0.6023
13266SOL     OW41804   3.712   6.739   2.176 -0.3632 -0.1862 -0.4403
13266SOL    HW141805   3.744   6.649   2.186 -1.3121 -0.4026  1.1536
13266SOL    HW241806   3.789   6.794   2.190 -0.3139 -0.7174  1.8089
13267SOL     OW41807   4.837   6.437   6.133  0.4389  0.3353  0.4807
13267SOL    HW141808   4.873   6.523   6.155  2.2988  0.2819 -1.9234
13267SOL    HW241809   4.892   6.374   6.181  0.3715  0.4076  0.6545
13268SOL     OW41810   5.079   7.581   5.004  0.4754  0.4612  0.2740
13268SOL    HW141811   4.995   7.594   4.960  0.3504  0.7861  0.6067
13268SOL    HW241812   5.120   7.509   4.956 -0.0890  0.1526  0.2539
13269SOL     OW41813   2.391  11.042   6.495  0.0140 -0.3451 -0.7088
13269SOL    HW141814   2.462  11.084   6.544 -0.3224 -2.1005  1.4440
13269SOL    HW241815   2.331  11.113   6.473  1.3105  0.8215 -0.5601
13270SOL     OW41816   4.997   3.751   6.750  0.6777  0.0597 -0.2270
13270SOL    HW141817   4.998   3.784   6.840 -0.3033  2.0525 -0.8712
13270SOL    HW241818   5.089   3.755   6.722  0.9125 -0.0501  0.5111
13271SOL     OW41819   2.726   0.068   8.940 -0.7908 -0.1598  0.2108
13271SOL    HW141820   2.734   0.027   8.854 -0.8595 -3.1667  1.5115
13271SOL    HW241821   2.662   0.138   8.927 -2.8099 -2.1856 -1.7003
13272SOL     OW41822   1.299   0.560   1.096  0.0684  0.3119 -0.0481
13272SOL    HW141823   1.213   0.561   1.140 -0.7416  0.1058 -1.5703
13272SOL    HW241824   1.307   0.648   1.058  0.8047  0.5177  0.5699
13273SOL     OW41825   2.249   8.671   1.395  0.1506  0.6593  0.1497
13273SOL    HW141826   2.177   8.730   1.418 -0.4090  0.5615 -1.2296
13273SOL    HW241827   2.208   8.602   1.343  1.1649  0.3157 -0.2259
13274SOL     OW41828   9.077   5.867  10.343  0.0136  0.1259 -0.2029
13274SOL    HW141829   9.129   5.820  10.408  1.2502  1.2303 -0.3491
13274SOL    HW241830   9.133   5.939  10.315 -1.6201  1.4181 -0.3371
13275SOL     OW41831   8.059   8.374   0.025 -0.2500 -0.2090 -0.2957
13275SOL    HW141832   8.132   8.427  -0.007 -1.9675  3.3214  1.0031
13275SOL    HW241833   7.994   8.378  -0.046 -0.5052 -0.3064 -0.0701
13276SOL     OW41834   4.209   5.532  10.086 -0.0163 -0.2287  0.2878
13276SOL    HW141835   4.145   5.574  10.029  0.8156 -1.5999 -1.7681
13276SOL    HW241836   4.228   5.448  10.044  0.1141 -1.6746  3.0111
13277SOL     OW41837  10.598   6.060   1.590 -0.2495  0.2404 -0.0406
13277SOL    HW141838  10.551   5.978   1.575 -0.6936  0.6011 -0.7089
13277SOL    HW241839  10.552   6.124   1.535 -0.3461  1.0887  0.9976
13278SOL     OW41840   2.436   6.168   9.267 -0.3323 -0.4140 -0.7987
13278SOL    HW141841   2.377   6.097   9.293  1.1529 -1.4375 -0.1337
13278SOL    HW241842   2.518   6.125   9.246  0.3527  1.0392 -1.2266
13279SOL     OW41843   4.990   4.682   0.221  0.4890 -0.2326 -0.6325
13279SOL    HW141844   5.007   4.596   0.181  0.4692 -0.8603  0.6708
13279SOL    HW241845   4.901   4.674   0.257  0.2008  0.5932 -1.1453
13280SOL     OW41846   1.042   6.386   2.426 -0.0859 -0.2516 -0.3032
13280SOL    HW141847   1.078   6.397   2.338  0.3526 -1.0162 -0.2324
13280SOL    HW241848   1.114   6.349   2.477 -0.6734 -0.8694  0.0916
13281SOL     OW41849   3.342   7.774   2.772 -0.6489  0.1504  0.0015
13281SOL    HW141850   3.422   7.720   2.774  1.2225  2.6953  2.4875
13281SOL    HW241851   3.285   7.734   2.837  0.4962  0.7284  1.4269
13282SOL     OW41852   0.720   1.326   2.236  0.0125 -0.4930 -0.2350
13282SOL    HW141853   0.658   1.393   2.263  1.8605  0.9926  0.5421
13282SOL    HW241854   0.746   1.283   2.317  1.0689 -0.0843 -0.3298
13283SOL     OW41855   7.337   8.648   8.770 -0.8648  0.8583  0.3040
13283SOL    HW141856   7.279   8.605   8.708  0.4043  0.4493 -0.6416
13283SOL    HW241857   7.391   8.707   8.717  0.3645  0.3834  0.9613
13284SOL     OW41858   2.080   6.575   0.048 -0.3419 -0.2244 -0.3223
13284SOL    HW141859   2.065   6.594  -0.045 -1.8155 -1.6967 -0.4407
13284SOL    HW241860   2.029   6.640   0.095 -0.8787 -0.4375 -0.5965
13285SOL     OW41861   1.062   8.328   4.157  0.2982 -0.4139  0.5494
13285SOL    HW141862   1.145   8.297   4.119  0.9936  0.5808  1.2112
13285SOL    HW241863   1.043   8.265   4.227  0.8551 -0.2859  0.8251
13286SOL     OW41864   2.004   6.682   6.584  0.2443 -0.3425  0.3112
13286SOL    HW141865   2.063   6.711   6.515  0.8977 -0.9524  0.5981
13286SOL    HW241866   2.015   6.587   6.587 -1.1153 -0.5241  0.0484
13287SOL     OW41867   2.795   2.025   5.671 -0.3797 -0.0428  0.1835
13287SOL    HW141868   2.833   1.967   5.605  0.0102  1.4596 -0.9799
13287SOL    HW241869   2.727   1.973   5.713  0.8096 -1.7505  0.0899
13288SOL     OW41870  10.728   9.410  10.451 -0.1847  0.2088 -0.2388
13288SOL    HW141871  10.736   9.326  10.407  0.9857  0.6191 -0.8458
13288SOL    HW241872  10.810   9.419  10.500 -0.9479  0.3142  1.0609
13289SOL     OW41873   5.453   0.689   5.376  0.1280 -0.1970  0.2832
13289SOL    HW141874   5.477   0.770   5.330  1.2230 -0.7223 -0.1052
13289SOL    HW241875   5.463   0.712   5.469  2.1177 -0.3314  0.1538
13290SOL     OW41876   6.609   4.244   6.730  0.6403 -0.0316 -0.1141
13290SOL    HW141877   6.688   4.239   6.783  0.8923 -0.6146 -0.5410
13290SOL    HW241878   6.540   4.268   6.792  0.5984 -2.4162  0.8391
13291SOL     OW41879   6.917   6.732   8.506  0.1155 -0.1336 -0.1650
13291SOL    HW141880   6.911   6.700   8.416 -0.3982  1.8704 -0.9120
13291SOL    HW241881   7.010   6.726   8.527  0.1552 -1.2141 -0.5858
13292SOL     OW41882  10.121   1.619   7.656  0.0935  0.7552  0.5728
13292SOL    HW141883  10.188   1.678   7.623  0.4005  1.3016  2.1057
13292SOL    HW241884  10.122   1.631   7.751 -1.1599 -0.3107  0.7587
13293SOL     OW41885   4.202   0.217   2.674  1.0386  0.3433  0.3497
13293SOL    HW141886   4.136   0.166   2.720 -0.5735  1.5441 -0.5436
13293SOL    HW241887   4.229   0.284   2.737  1.8603 -0.4722  0.9027
13294SOL     OW41888   0.108   4.686  10.668  0.4210 -0.0767 -0.1487
13294SOL    HW141889   0.103   4.618  10.735 -1.3144  0.1413 -0.0080
13294SOL    HW241890   0.018   4.694  10.636  0.9632  0.8024 -1.5253
13295SOL     OW41891   8.287   2.889   7.573 -0.2824 -0.5662 -0.3119
13295SOL    HW141892   8.316   2.972   7.611 -1.3080 -0.6450  0.6738
13295SOL    HW241893   8.192   2.899   7.561  0.0722  0.0063 -4.2307
13296SOL     OW41894   5.885   5.292   5.474 -0.1942  0.0511 -0.2817
13296SOL    HW141895   5.849   5.285   5.562  1.1666 -0.1958  0.2833
13296SOL    HW241896   5.811   5.275   5.416 -0.8338 -1.1952  0.8419
13297SOL     OW41897  11.016   2.814   9.016  0.3127 -1.0965  0.1081
13297SOL    HW141898  11.102   2.824   8.977  0.0428  0.4614 -0.1460
13297SOL    HW241899  10.960   2.875   8.967 -0.5210 -0.7364  1.4669
13298SOL     OW41900   2.906   6.046   1.946  0.2702  0.6311 -0.1138
13298SOL    HW141901   2.987   6.049   1.998  0.4873  0.8414 -0.4581
13298SOL    HW241902   2.866   5.963   1.970  0.1225  0.9336  0.7540
13299SOL     OW41903  11.053   9.643   1.841  0.0324 -0.2965 -0.3310
13299SOL    HW141904  11.036   9.686   1.925  0.9816 -0.4244 -0.0570
13299SOL    HW241905  11.133   9.685   1.809  0.3478 -1.0835 -0.5935
13300SOL     OW41906   5.616   1.552   4.302 -0.2406 -0.1912  0.1924
13300SOL    HW141907   5.523   1.570   4.287  0.1702  1.4287 -0.6544
13300SOL    HW241908   5.649   1.630   4.348  0.7039 -0.7467  0.5005
13301SOL     OW41909   3.000   3.661   9.143 -0.3916  0.2299 -0.1038
13301SOL    HW141910   3.044   3.735   9.102  0.0520  0.2517  0.3938
13301SOL    HW241911   2.992   3.686   9.235  1.9136 -1.2720  0.6216
13302SOL     OW41912   1.277   7.952   4.649 -0.4197 -0.1514  0.4390
13302SOL    HW141913   1.362   7.919   4.677  0.3959  0.7375 -0.9132
13302SOL    HW241914   1.292   8.044   4.629 -1.2965 -0.3631 -1.3746
13303SOL     OW41915   7.517   4.041   3.187 -0.3416 -0.2264 -0.3598
13303SOL    HW141916   7.518   4.131   3.155 -1.3373  0.4847  1.4908
13303SOL    HW241917   7.430   4.031   3.226  0.1458 -1.6526  0.4063
13304SOL     OW41918   5.702   3.277   5.996  0.0304  0.1266  0.2374
13304SOL    HW141919   5.616   3.310   6.023 -0.2425  1.1343 -1.6570
13304SOL    HW241920   5.762   3.350   6.012  0.2278  0.0011  0.0792
13305SOL     OW41921   5.775   9.679   0.393  0.1864 -0.1761 -0.1771
13305SOL    HW141922   5.770   9.627   0.474 -0.3596  0.0580 -0.0534
13305SOL    HW241923   5.684   9.696   0.370  0.3268 -0.5757 -1.0637
13306SOL     OW41924   4.394   6.081  10.209 -0.4759 -0.5216 -0.0324
13306SOL    HW141925   4.468   6.021  10.196 -0.3300 -0.2778 -0.3454
13306SOL    HW241926   4.355   6.090  10.122  0.0693  0.5598 -0.1843
13307SOL     OW41927   7.633   4.611   9.270  0.3824 -0.1557 -0.4294
13307SOL    HW141928   7.539   4.620   9.285  0.5359  0.6068  0.1510
13307SOL    HW241929   7.640   4.576   9.181 -0.4443 -0.0294 -0.5487
13308SOL     OW41930  10.202   3.850   7.833  0.1418  0.0592 -0.0201
13308SOL    HW141931  10.245   3.936   7.831  2.3896 -1.0093 -0.4976
13308SOL    HW241932  10.177   3.834   7.742 -2.5925  1.2211  0.4308
13309SOL     OW41933   4.554   7.703   6.476 -0.5087 -0.1123  0.5514
13309SOL    HW141934   4.575   7.789   6.511  0.3453 -0.3060  0.5400
13309SOL    HW241935   4.546   7.646   6.553 -1.8278  0.1176  0.6092
13310SOL     OW41936   4.400   7.007   3.467 -0.0889  0.4473 -0.2608
13310SOL    HW141937   4.448   6.985   3.547 -2.3858  0.7235  1.2951
13310SOL    HW241938   4.361   6.925   3.439 -0.8119  0.6981 -0.0058
13311SOL     OW41939   9.487   0.393   9.613  0.2786 -0.1318 -0.5216
13311SOL    HW141940   9.465   0.468   9.667 -0.1834 -1.1170  0.6972
13311SOL    HW241941   9.578   0.409   9.585 -0.1026  1.2875 -1.0269
13312SOL     OW41942   7.850   7.714   7.752 -0.8678  0.1849 -0.3147
13312SOL    HW141943   7.824   7.789   7.700 -1.1857  0.1307 -0.2373
13312SOL    HW241944   7.945   7.717   7.753 -0.8593  0.1642 -0.9284
13313SOL     OW41945   3.705  10.240   9.325  0.3964  0.1780  0.5522
13313SOL    HW141946   3.754  10.205   9.250 -0.0483  1.8395 -0.5878
13313SOL    HW241947   3.716  10.335   9.317 -1.1484  0.4658  1.5657
13314SOL     OW41948   5.770   3.558   4.782 -0.4902 -0.3034 -0.2891
13314SOL    HW141949   5.791   3.641   4.825  1.6348 -1.0627  0.2448
13314SOL    HW241950   5.717   3.510   4.846 -1.9942  0.7028 -0.7151
13315SOL     OW41951   7.989   0.204   5.973  0.3576 -0.1640  0.3446
13315SOL    HW141952   7.994   0.298   5.994  0.8650  0.0145 -0.5117
13315SOL    HW241953   8.001   0.160   6.057 -2.0071  0.5362  1.1274
13316SOL     OW41954   2.813   7.324   1.485  0.5152  0.0821  0.4195
13316SOL    HW141955   2.781   7.317   1.395 -0.5583  1.5852  0.6361
13316SOL    HW241956   2.903   7.355   1.476  0.4158  0.2288 -0.1479
13317SOL     OW41957   4.097   3.959  10.553 -0.0616  0.4284 -0.6385
13317SOL    HW141958   4.130   4.001  10.474 -1.6266  1.5647 -0.7488
13317SOL    HW241959   4.067   4.032  10.607  0.3292 -0.3787  0.7026
13318SOL     OW41960   9.358   9.091   8.007  0.3831  0.0032  0.0814
13318SOL    HW141961   9.376   9.109   7.915 -2.1071 -0.2266 -0.5279
13318SOL    HW241962   9.343   8.997   8.011  1.7582 -0.1998  1.0027
13319SOL     OW41963   8.860   0.481   1.614 -0.3223  0.5196  0.7601
13319SOL    HW141964   8.838   0.483   1.521 -1.3103  3.8845  0.9594
13319SOL    HW241965   8.869   0.387   1.634 -2.1027 -0.4282 -2.2211
13320SOL     OW41966   3.170   6.460   0.636 -0.1842  0.1113 -0.4235
13320SOL    HW141967   3.197   6.455   0.544  3.1022 -0.1539  0.4547
13320SOL    HW241968   3.234   6.408   0.683 -1.3918  0.7965  2.1418
13321SOL     OW41969   1.478   6.424  10.080  1.0519 -0.3498 -0.0251
13321SOL    HW141970   1.433   6.465  10.153 -0.5112 -0.2720 -0.9972
13321SOL    HW241971   1.548   6.485  10.058 -0.3938  1.1813 -0.5822
13322SOL     OW41972   1.143   7.943   5.762  0.0697  0.1546  0.4738
13322SOL    HW141973   1.088   7.868   5.740  1.8413 -0.5769 -1.8073
13322SOL    HW241974   1.230   7.906   5.778  0.5812  1.5482  1.0902
13323SOL     OW41975  10.568   8.068   6.087 -0.3964  0.0452 -0.7963
13323SOL    HW141976  10.577   8.097   6.178 -0.1476  1.5686 -1.2837
13323SOL    HW241977  10.483   8.103   6.059 -0.7012 -0.8418 -1.0094
13324SOL     OW41978   3.765   2.514   9.987  0.9120 -0.3699 -0.0985
13324SOL    HW141979   3.776   2.511  10.082 -0.7052  2.1724  0.2688
13324SOL    HW241980   3.729   2.427   9.965 -0.7752 -0.2857  1.9730
13325SOL     OW41981   2.894   1.078   9.638 -0.1309 -0.0786  0.0167
13325SOL    HW141982   2.875   0.987   9.616  0.0484  0.3420 -2.0027
13325SOL    HW241983   2.971   1.101   9.587 -0.2461  1.2477  0.3881
13326SOL     OW41984   6.991   7.102   5.834  0.1916  0.5656  0.2963
13326SOL    HW141985   7.060   7.161   5.803 -0.8060  0.4392 -2.3948
13326SOL    HW241986   6.988   7.032   5.769 -1.9074  0.1318  0.7950
13327SOL     OW41987   7.220   0.294  10.236 -0.1662  0.1846 -0.8101
13327SOL    HW141988   7.291   0.253  10.285  0.5525  1.0785 -1.0746
13327SOL    HW241989   7.261   0.368  10.191 -1.3931  1.1603 -0.3991
13328SOL     OW41990  10.861  10.228   8.156 -0.5622 -0.5047 -0.6663
13328SOL    HW141991  10.918  10.169   8.207 -0.0653  1.0362  0.6591
13328SOL    HW241992  10.917  10.262   8.087 -0.9140 -1.7016 -1.5820
13329SOL     OW41993   0.873   0.138   2.687  0.5438  0.1949  0.0116
13329SOL    HW141994   0.947   0.105   2.635 -0.4429  0.3721 -1.5573
13329SOL    HW241995   0.842   0.215   2.639 -1.4294 -0.5853 -0.0236
13330SOL     OW41996   9.991   1.912   2.171  0.2141 -0.3346 -0.0063
13330SOL    HW141997  10.021   2.003   2.179 -0.1988 -0.2182  0.2535
13330SOL    HW241998   9.905   1.911   2.214  1.0398 -1.2835  1.7153
13331SOL     OW41999   3.230  10.559   9.598 -0.3184 -0.2879 -0.0149
13331SOL    HW142000   3.314  10.523   9.625  0.3471 -0.1657 -1.8078
13331SOL    HW242001   3.249  10.649   9.571 -1.2906  0.2121  0.8667
13332SOL     OW42002   7.334  10.446   4.658  0.1466 -0.3171 -0.8451
13332SOL    HW142003   7.317  10.449   4.564  2.2039 -0.9506 -1.2719
13332SOL    HW242004   7.359  10.536   4.680 -1.1635  0.0419 -0.6791
13333SOL     OW42005   7.047   7.976   8.860  0.2477  0.3645  0.5055
13333SOL    HW142006   7.049   8.049   8.921  3.6784 -1.2331  2.6171
13333SOL    HW242007   7.140   7.958   8.840 -0.5148 -2.3044 -1.2807
13334SOL     OW42008   1.996   9.097   7.189 -0.0990 -0.2235  0.0606
13334SOL    HW142009   2.011   9.191   7.198 -0.7981 -0.2524  1.9079
13334SOL    HW242010   2.069   9.057   7.238 -0.1235 -0.6366 -0.2346
13335SOL     OW42011   1.158   9.846   8.663 -0.2250 -0.2090 -0.3288
13335SOL    HW142012   1.074   9.801   8.661 -1.7337  2.4267 -0.8000
13335SOL    HW242013   1.174   9.865   8.756 -1.1429  0.9103 -0.3753
13336SOL     OW42014   1.834   1.097  10.904 -0.8412  0.1563 -0.0618
13336SOL    HW142015   1.752   1.051  10.891 -0.7560  0.0813 -0.3477
13336SOL    HW242016   1.881   1.044  10.969  0.0447 -1.2243 -1.7357
13337SOL     OW42017   5.313   8.116   8.995  0.4382 -0.0905  0.4609
13337SOL    HW142018   5.219   8.132   9.008  0.3706  0.1960 -0.3652
13337SOL    HW242019   5.356   8.191   9.036  0.2824  0.1167  0.2448
13338SOL     OW42020   0.171   8.105   8.274  0.3084 -0.3532 -0.3938
13338SOL    HW142021   0.096   8.164   8.261  0.9490  0.2725 -1.3490
13338SOL    HW242022   0.207   8.091   8.187  0.9330 -1.1563 -0.0215
13339SOL     OW42023   4.830   9.249   1.779  0.2156 -0.0942 -0.3129
13339SOL    HW142024   4.883   9.281   1.706 -1.1774 -0.2784 -1.4512
13339SOL    HW242025   4.740   9.252   1.747 -0.2670 -2.1893  0.6308
13340SOL     OW42026   7.256   1.079   0.597  0.7234 -0.2838  0.3997
13340SOL    HW142027   7.202   1.067   0.519 -2.6163 -1.1549  2.6448
13340SOL    HW242028   7.216   1.153   0.643  0.6605 -1.6161  2.6711
13341SOL     OW42029   7.033   8.231   9.783 -0.3098  0.2408 -0.3078
13341SOL    HW142030   7.116   8.206   9.744  1.1060  0.4368  2.3102
13341SOL    HW242031   6.988   8.280   9.715  2.3254  1.3216 -1.4105
13342SOL     OW42032   2.245   3.207   3.243 -0.1903 -0.1559 -0.6682
13342SOL    HW142033   2.209   3.134   3.293 -0.4675  0.7968  0.5533
13342SOL    HW242034   2.178   3.276   3.248  1.2591  1.2365  0.6768
13343SOL     OW42035   6.309   8.545   5.166 -0.1111  0.2887  0.2853
13343SOL    HW142036   6.375   8.520   5.102 -0.9893 -1.0647 -0.1321
13343SOL    HW242037   6.317   8.480   5.236 -0.5791  0.4822  0.5251
13344SOL     OW42038   1.859   8.849   9.581 -0.2644 -0.0785 -0.2124
13344SOL    HW142039   1.938   8.824   9.533  0.0310 -1.2339  0.8329
13344SOL    HW242040   1.888   8.918   9.641  0.2164 -1.2085  0.8966
13345SOL     OW42041   3.962   4.985   7.639  0.1883 -1.0110 -0.5018
13345SOL    HW142042   3.988   4.993   7.731  1.2024  0.6734 -0.8914
13345SOL    HW242043   3.964   5.075   7.606  0.7038 -1.6741 -2.3998
13346SOL     OW42044  10.747   9.247  10.724 -0.4049  0.6311  0.1642
13346SOL    HW142045  10.712   9.199  10.648 -0.3203 -0.3582  0.7369
13346SOL    HW242046  10.792   9.181  10.776 -1.3781  1.0857  1.6425
13347SOL     OW42047   9.234   1.086  10.869  0.0383 -0.0407 -0.6036
13347SOL    HW142048   9.228   0.994  10.842  0.2246 -0.4881  0.8100
13347SOL    HW242049   9.181   1.133  10.805 -1.8947 -1.4039 -0.1095
13348SOL     OW42050   2.870   2.762  10.734  0.0269  0.2914  0.1107
13348SOL    HW142051   2.910   2.675  10.734  0.1538  0.3494  0.2976
13348SOL    HW242052   2.905   2.805  10.655  0.4925  0.4129  0.3777
13349SOL     OW42053   9.398   9.018   3.506  0.0898 -0.3450  0.4288
13349SOL    HW142054   9.455   9.075   3.558 -0.8517  0.2190  0.8725
13349SOL    HW242055   9.457   8.955   3.466  0.8569 -0.7618  2.1451
13350SOL     OW42056   5.218   4.934   8.968 -0.1165  0.0861  0.0130
13350SOL    HW142057   5.311   4.924   8.950 -0.3991  0.2904 -1.8119
13350SOL    HW242058   5.213   4.971   9.056  1.4733 -0.8960  0.5460
13351SOL     OW42059  10.813   3.763   5.072  0.4075 -0.2375  0.0859
13351SOL    HW142060  10.718   3.750   5.073  0.3209  0.3803  0.7354
13351SOL    HW242061  10.825   3.855   5.098  1.1712 -0.2258 -0.2803
13352SOL     OW42062   9.741   2.900   1.176 -0.0469 -0.5951 -0.5437
13352SOL    HW142063   9.654   2.862   1.189 -0.1630 -0.1603 -0.0068
13352SOL    HW242064   9.756   2.952   1.254  0.2363  0.2090 -1.1183
13353SOL     OW42065   2.937   9.716   9.368  0.4511  0.0049  0.4037
13353SOL    HW142066   2.990   9.637   9.369  0.8493  0.2696  0.2476
13353SOL    HW242067   2.992   9.782   9.325 -0.5359 -0.0946 -1.0945
13354SOL     OW42068   4.258   5.169   6.917  0.7921  0.2798 -0.2749
13354SOL    HW142069   4.180   5.199   6.870  0.9478 -0.0016 -0.7167
13354SOL    HW242070   4.316   5.246   6.919  1.1951  0.0322 -1.4148
13355SOL     OW42071   2.336   3.666   8.167 -0.1939  0.5006  0.4382
13355SOL    HW142072   2.321   3.579   8.205  1.0543  1.1233  2.5393
13355SOL    HW242073   2.376   3.648   8.082 -0.9529 -0.9786  0.3642
13356SOL     OW42074   0.814   8.878   8.678 -0.3776 -0.0992  0.3036
13356SOL    HW142075   0.741   8.817   8.688 -1.0303  0.6181  0.0175
13356SOL    HW242076   0.890   8.822   8.659 -0.5539 -0.9660  1.9352
13357SOL     OW42077   3.674   1.321   8.872  0.4453  0.2506  0.6873
13357SOL    HW142078   3.601   1.286   8.923  1.0444 -0.7645  0.8653
13357SOL    HW242079   3.684   1.261   8.798  1.0056  0.4509  0.5914
13358SOL     OW42080   1.033   3.386  10.744 -0.4467  0.0534  0.0728
13358SOL    HW142081   0.966   3.368  10.810  0.8834  1.8065  1.9997
13358SOL    HW242082   1.091   3.310  10.747 -1.1970 -0.5403 -0.1499
13359SOL     OW42083  10.322  10.226   9.644 -0.0207  0.7699 -0.1253
13359SOL    HW142084  10.289  10.190   9.562 -1.8752 -0.1273  0.9383
13359SOL    HW242085  10.415  10.202   9.645 -0.2905 -0.4447 -1.3049
13360SOL     OW42086   7.709   4.323   0.348  0.2087  0.0754 -0.2810
13360SOL    HW142087   7.690   4.272   0.269  0.3999 -1.4292  0.5993
13360SOL    HW242088   7.664   4.406   0.335 -0.1421 -0.3268 -1.7675
13361SOL     OW42089   5.359   2.270   7.889  0.2795  0.0974 -0.0249
13361SOL    HW142090   5.317   2.319   7.960  1.6292  1.6432 -0.2301
13361SOL    HW242091   5.397   2.194   7.932 -0.1320  0.2678  0.6555
13362SOL     OW42092   0.742   4.136   7.435 -0.3704 -0.1300  0.0059
13362SOL    HW142093   0.709   4.063   7.487  0.7708 -1.1838 -0.7051
13362SOL    HW242094   0.836   4.121   7.429 -0.1125  1.3839 -0.2026
13363SOL     OW42095   3.453   6.560   5.701 -0.2254 -0.1511 -0.8168
13363SOL    HW142096   3.480   6.652   5.701 -0.7988  0.0311  0.2053
13363SOL    HW242097   3.492   6.523   5.780 -1.4390 -0.3325 -0.2768
13364SOL     OW42098   7.628   9.142   3.715  0.1643 -0.3693  0.5626
13364SOL    HW142099   7.552   9.129   3.659 -2.1985  0.3727  3.3448
13364SOL    HW242100   7.667   9.055   3.724 -1.9539 -1.3301  1.1015
13365SOL     OW42101   4.886   0.086  10.864 -0.3824 -0.2451 -0.0536
13365SOL    HW142102   4.925   0.001  10.845  0.0939 -0.0417  0.0042
13365SOL    HW242103   4.819   0.097  10.797 -0.3755 -0.6171 -0.1246
13366SOL     OW42104   4.606  10.173   9.864 -0.0007  0.2154 -0.7010
13366SOL    HW142105   4.552  10.229   9.809  1.1209  2.4637  0.3901
13366SOL    HW242106   4.680  10.148   9.807 -0.0292  0.6036 -0.9076
13367SOL     OW42107   3.917   9.996  10.261 -0.0066  0.1192 -0.1846
13367SOL    HW142108   3.977  10.056  10.218  0.5407 -0.1752  0.1456
13367SOL    HW242109   3.860  10.052  10.313 -1.0227  0.5202 -1.6760
13368SOL     OW42110   1.294   0.401   5.468  0.0842  0.3635  0.3002
13368SOL    HW142111   1.333   0.445   5.544 -0.2240  0.3408  0.4729
13368SOL    HW242112   1.357   0.415   5.398  0.9931 -0.7146  0.8728
13369SOL     OW42113   1.454   5.994   7.535 -0.0420  0.0877 -0.1729
13369SOL    HW142114   1.408   5.913   7.513  0.5790 -0.6223  0.9852
13369SOL    HW242115   1.539   5.986   7.491  1.0805 -1.1931  2.0214
13370SOL     OW42116   4.373  10.425   7.631 -0.2910 -0.0429  0.4030
13370SOL    HW142117   4.452  10.371   7.622  0.1309  0.7796 -1.2529
13370SOL    HW242118   4.301  10.362   7.625  0.2032 -0.5639 -0.3525
13371SOL     OW42119   0.941   7.708   8.510 -0.4037  0.5286 -0.0222
13371SOL    HW142120   1.006   7.772   8.541  1.0543 -0.9335  0.1376
13371SOL    HW242121   0.894   7.683   8.589  0.3322  0.0154  0.2637
13372SOL     OW42122   0.875   8.137   1.046 -0.2084 -0.0454  0.1369
13372SOL    HW142123   0.832   8.094   0.972 -1.3150 -0.0563  0.7787
13372SOL    HW242124   0.930   8.204   1.005 -0.5241 -0.2907 -0.7186
13373SOL     OW42125   4.531   8.937   8.601 -0.3144  0.7068  0.7307
13373SOL    HW142126   4.610   8.982   8.632 -0.1645  0.3280  0.9057
13373SOL    HW242127   4.485   9.002   8.547  0.0508  0.9694  0.7364
13374SOL     OW42128   0.253   1.227  10.260  0.0572  0.1611  0.5223
13374SOL    HW142129   0.279   1.250  10.171  1.7464  0.8206  1.1451
13374SOL    HW242130   0.268   1.133  10.267 -1.1072 -0.0909 -0.1989
13375SOL     OW42131  10.809   0.172   8.690  0.1256  0.1532 -0.0389
13375SOL    HW142132  10.796   0.151   8.597 -0.3544  0.5422 -0.0642
13375SOL    HW242133  10.884   0.231   8.691 -1.9025  2.9066 -0.5615
13376SOL     OW42134   7.872   4.593   5.337 -0.1936 -0.1433  0.1039
13376SOL    HW142135   7.856   4.685   5.357  0.6719 -0.0571  0.4339
13376SOL    HW242136   7.855   4.586   5.243  1.1874  0.6987 -0.2364
13377SOL     OW42137   5.514   1.800   5.579  0.5174 -0.1180 -0.2746
13377SOL    HW142138   5.553   1.878   5.619 -0.7641  0.3190  0.1762
13377SOL    HW242139   5.426   1.828   5.554  0.7593 -0.8254 -2.0468
13378SOL     OW42140   8.487   0.139   7.614 -0.3880 -0.3633 -0.4007
13378SOL    HW142141   8.404   0.175   7.644  0.4737 -0.7952  2.9076
13378SOL    HW242142   8.480   0.045   7.628  1.0164 -0.2927  1.1052
13379SOL     OW42143   9.959   7.738   3.522  0.0813 -0.1035 -0.4461
13379SOL    HW142144   9.930   7.753   3.612  2.0198  0.6136  0.1207
13379SOL    HW242145   9.958   7.825   3.482  0.5878 -0.1898 -0.6580
13380SOL     OW42146   2.656  10.570   1.716  0.7482  0.3607 -0.0450
13380SOL    HW142147   2.657  10.666   1.725 -0.6619  0.5449 -1.5715
13380SOL    HW242148   2.633  10.539   1.804 -0.4561  1.5081  0.0864
13381SOL     OW42149   3.723  10.458   6.395  0.4262 -0.5465 -0.2153
13381SOL    HW142150   3.654  10.455   6.328  0.1269 -1.2389  0.1147
13381SOL    HW242151   3.801  10.487   6.348  0.0770 -0.4271 -0.7348
13382SOL     OW42152  10.052   5.299   0.209  0.0577  0.1410  0.1069
13382SOL    HW142153  10.121   5.250   0.253 -0.2423 -0.9563 -0.6091
13382SOL    HW242154   9.985   5.234   0.188 -0.5375  0.9228 -0.5149
13383SOL     OW42155   3.123   8.082   4.682 -0.4278 -0.1629  0.2073
13383SOL    HW142156   3.096   8.000   4.723  0.2086 -0.6845 -0.4017
13383SOL    HW242157   3.214   8.093   4.707 -0.3330  0.0498 -0.2194
13384SOL     OW42158   5.619   1.398   9.941  0.0783  0.1744 -0.4471
13384SOL    HW142159   5.683   1.334   9.972  0.7374  0.5876 -0.9519
13384SOL    HW242160   5.567   1.351   9.876 -0.9289 -0.5232  0.8084
13385SOL     OW42161   9.582   9.478   9.233 -0.1209  0.4795 -0.3925
13385SOL    HW142162   9.568   9.547   9.298 -2.6249 -0.7945  0.5551
13385SOL    HW242163   9.543   9.512   9.152 -1.3284  0.2317  0.0675
13386SOL     OW42164   6.428   4.343   7.668 -0.0677  0.3940 -0.2399
13386SOL    HW142165   6.414   4.253   7.698 -3.0718  1.0797  0.7864
13386SOL    HW242166   6.341   4.374   7.644  0.8342  3.1193 -0.3790
13387SOL     OW42167   3.691   2.156   0.377  0.7054  0.2400  0.1528
13387SOL    HW142168   3.762   2.196   0.427 -0.1339  1.0513  0.7126
13387SOL    HW242169   3.733   2.126   0.296  2.1180 -1.2641  1.3606
13388SOL     OW42170   8.057   7.531   3.959  0.4491  0.1376  0.0515
13388SOL    HW142171   8.057   7.449   3.911  0.3732 -0.3717  0.9050
13388SOL    HW242172   8.069   7.506   4.051 -1.5400  0.8959  0.5757
13389SOL     OW42173   3.077   7.837   8.352 -0.3304 -0.2543 -0.4062
13389SOL    HW142174   3.172   7.839   8.360 -0.4478 -0.2403  1.1294
13389SOL    HW242175   3.055   7.917   8.304  0.4952 -0.8544 -1.8638
13390SOL     OW42176   1.240  10.879   3.455 -0.1462 -0.2723 -0.5071
13390SOL    HW142177   1.270  10.909   3.540 -0.7135 -0.5798 -0.1925
13390SOL    HW242178   1.317  10.885   3.399 -0.0687  1.0713 -0.2848
13391SOL     OW42179   1.618  11.078   3.301  0.1473  0.5505 -0.2902
13391SOL    HW142180   1.613  11.156   3.246 -0.8370  3.4720  3.4803
13391SOL    HW242181   1.705  11.081   3.340 -0.2739  0.4067  0.6878
13392SOL     OW42182   1.819   0.962   0.694 -0.0454 -0.3621 -0.5787
13392SOL    HW142183   1.884   1.032   0.701 -0.9053  0.6748 -2.1913
13392SOL    HW242184   1.754   0.983   0.762  1.0297 -1.1548  0.7393
13393SOL     OW42185   7.955   2.335   5.652 -1.2353 -0.2071 -0.2783
13393SOL    HW142186   7.970   2.384   5.571 -0.9221  1.2871  0.6360
13393SOL    HW242187   7.877   2.376   5.690 -0.5005  0.1459  0.9035
13394SOL     OW42188   3.340   1.130   4.598 -0.1556  1.1343  0.1792
13394SOL    HW142189   3.268   1.159   4.654 -0.9602  0.7456 -0.6414
13394SOL    HW242190   3.408   1.102   4.660 -0.4749  2.0385  0.9655
13395SOL     OW42191  10.792   5.399  10.180  0.2689 -0.1948 -0.1745
13395SOL    HW142192  10.879   5.423  10.146  1.0134  1.0047  2.2888
13395SOL    HW242193  10.776   5.312  10.146  2.7787 -0.7458 -0.1618
13396SOL     OW42194   3.391   9.315   5.862  0.3539  0.0449 -0.0748
13396SOL    HW142195   3.456   9.281   5.923  2.5974  0.9823 -1.7962
13396SOL    HW242196   3.395   9.256   5.787 -0.9101  0.0456 -0.1533
13397SOL     OW42197   7.914   2.052   9.471 -0.3017  0.1541  0.4331
13397SOL    HW142198   7.869   2.136   9.466  0.2339  0.3965 -0.5292
13397SOL    HW242199   8.006   2.073   9.458 -0.0547 -0.4851  1.0862
13398SOL     OW42200   0.705   9.081   7.277  0.4374 -0.2817  0.4185
13398SOL    HW142201   0.685   8.990   7.254 -2.0157  0.1057  0.7433
13398SOL    HW242202   0.691   9.130   7.196  0.6345 -0.0421  0.5274
13399SOL     OW42203   1.425   1.574   7.196  0.5933 -0.3232  0.0628
13399SOL    HW142204   1.464   1.502   7.147  1.0219 -1.1814  1.5953
13399SOL    HW242205   1.385   1.532   7.272  1.6554  1.0970  1.4836
13400SOL     OW42206   9.779   9.488   0.989 -0.4597 -0.9349  0.7076
13400SOL    HW142207   9.771   9.452   0.901  0.4441 -0.8077  0.5677
13400SOL    HW242208   9.846   9.433   1.031 -0.8914 -1.0078  1.3291
13401SOL     OW42209   9.472   2.631   3.126 -0.1214  0.3087  0.0903
13401SOL    HW142210   9.511   2.628   3.213 -0.8842  0.5801  0.4469
13401SOL    HW242211   9.479   2.723   3.100 -0.6468  0.3882  0.2185
13402SOL     OW42212   2.057   3.210   5.902 -0.8537 -0.1332 -0.0003
13402SOL    HW142213   1.998   3.153   5.854 -0.7797  1.4595 -2.1401
13402SOL    HW242214   2.136   3.158   5.917 -0.7965 -0.6332 -1.8733
13403SOL     OW42215   1.112  10.433   9.467  0.4022 -0.3263  0.3148
13403SOL    HW142216   1.067  10.510   9.503 -1.1109 -1.5466  1.1358
13403SOL    HW242217   1.112  10.369   9.538  0.3503 -1.6093 -0.8027
13404SOL     OW42218   9.196   9.138   5.048 -0.7685 -0.6746 -0.2273
13404SOL    HW142219   9.249   9.072   5.093 -2.2815 -0.7157  1.6099
13404SOL    HW242220   9.180   9.100   4.962 -1.6403 -2.7831  0.7974
13405SOL     OW42221   4.155   5.156   8.213 -0.0459  0.0399  0.3853
13405SOL    HW142222   4.137   5.068   8.182 -1.8323  0.7173 -0.6103
13405SOL    HW242223   4.213   5.143   8.288  0.9756 -1.8668 -0.6622
13406SOL     OW42224   9.790   0.128   9.054  0.0802 -0.8072 -0.4699
13406SOL    HW142225   9.765   0.198   9.113  1.3582 -0.8193  0.1250
13406SOL    HW242226   9.747   0.149   8.971 -1.0107 -0.3081  0.2070
13407SOL     OW42227  10.134   1.235  10.537 -0.3406 -0.3256 -0.2405
13407SOL    HW142228  10.081   1.156  10.523 -1.6587  0.5004 -0.0454
13407SOL    HW242229  10.133   1.280  10.453  0.4588 -0.5152 -0.3672
13408SOL     OW42230   9.449   0.279  10.820  0.4971 -0.5570  0.1419
13408SOL    HW142231   9.357   0.300  10.806  0.4451 -0.1473  1.0758
13408SOL    HW242232   9.458   0.188  10.789 -0.5099 -1.0367  1.1968
13409SOL     OW42233   0.245   2.839   9.279  0.7069 -0.3275  0.0586
13409SOL    HW142234   0.204   2.887   9.350 -0.5680 -1.6478  0.2677
13409SOL    HW242235   0.227   2.890   9.201 -1.4093 -0.8640  0.1505
13410SOL     OW42236   3.809   0.717   8.342 -0.4818 -0.1138 -0.3530
13410SOL    HW142237   3.795   0.808   8.368 -0.5717  0.3077 -1.8427
13410SOL    HW242238   3.742   0.668   8.392  0.3563  0.4321  1.4045
13411SOL     OW42239   6.073   6.008   9.243 -0.1207 -0.2044  0.5594
13411SOL    HW142240   6.167   6.005   9.225  0.2630  0.5297  2.2247
13411SOL    HW242241   6.053   5.922   9.280  0.0470 -0.1284  0.8305
13412SOL     OW42242   9.189   3.263   1.208 -0.5117  0.1939 -0.1447
13412SOL    HW142243   9.127   3.212   1.260 -1.1405 -0.3282 -1.3856
13412SOL    HW242244   9.204   3.342   1.260 -1.3748 -0.1633  0.6751
13413SOL     OW42245   6.990   9.947   0.550 -0.4632  0.1876 -0.0474
13413SOL    HW142246   7.001   9.852   0.542  0.9292  0.4302 -1.3751
13413SOL    HW242247   6.904   9.965   0.512  0.6258 -0.2144 -2.8741
13414SOL     OW42248   7.620   3.816   9.755 -0.6135 -0.3134  0.4410
13414SOL    HW142249   7.676   3.740   9.766  0.7016  0.6925  1.0731
13414SOL    HW242250   7.535   3.789   9.791 -0.2369 -1.5294  0.4578
13415SOL     OW42251   9.720   9.547   7.815  0.5331 -0.1621  0.2796
13415SOL    HW142252   9.722   9.626   7.761  0.6422 -1.1578 -1.2664
13415SOL    HW242253   9.656   9.566   7.884  0.5491  1.2554 -0.0631
13416SOL     OW42254   3.698  10.665   2.298  0.1948 -0.6343 -0.5876
13416SOL    HW142255   3.649  10.673   2.217 -0.2056  1.1459 -0.2105
13416SOL    HW242256   3.642  10.613   2.355 -0.7209  0.3237 -0.5831
13417SOL     OW42257   2.430   9.398   9.429 -0.0240 -0.3442  0.7216
13417SOL    HW142258   2.334   9.399   9.424 -0.0314  0.5782  0.8846
13417SOL    HW242259   2.449   9.368   9.518 -0.1842  0.3532  0.9970
13418SOL     OW42260   0.035   8.751   8.605  0.2681 -0.1891 -0.5036
13418SOL    HW142261   0.118   8.750   8.556  0.4715  0.2693 -0.1812
13418SOL    HW242262  -0.021   8.688   8.560  1.0179 -0.9983 -0.3459
13419SOL     OW42263  10.548   6.235   5.167  0.3295 -0.1946  0.0263
13419SOL    HW142264  10.547   6.161   5.106 -0.9103  0.2881 -0.5633
13419SOL    HW242265  10.512   6.201   5.248 -4.8887  0.7308 -1.5360
13420SOL     OW42266   5.751   6.995   9.362  0.2606  0.0339  0.2891
13420SOL    HW142267   5.660   6.986   9.393  0.2649 -0.3254  0.2042
13420SOL    HW242268   5.804   6.989   9.442  0.1882  0.6916  0.3911
13421SOL     OW42269   5.568   2.099   8.403  0.1042 -0.9224 -0.1172
13421SOL    HW142270   5.605   2.140   8.481  0.3647 -2.2835  0.5014
13421SOL    HW242271   5.475   2.092   8.423  0.1790 -1.3168  0.0902
13422SOL     OW42272   4.959   7.497   7.989 -0.4225 -0.2208  0.1985
13422SOL    HW142273   4.890   7.553   8.023 -0.6169  0.2536 -0.9556
13422SOL    HW242274   4.918   7.446   7.920  0.8591  1.7210 -2.1318
13423SOL     OW42275   1.059   6.035   8.281 -0.4509  0.0124 -0.0170
13423SOL    HW142276   0.975   6.079   8.276 -0.8789 -0.8813 -1.6952
13423SOL    HW242277   1.057   5.988   8.364 -2.1223 -0.9160 -0.5392
13424SOL     OW42278   3.040   4.442   2.018  0.1268 -0.6963 -0.0743
13424SOL    HW142279   2.951   4.475   2.031 -0.7795 -2.3983 -1.5883
13424SOL    HW242280   3.090   4.517   1.986 -1.2742 -0.1966 -1.1435
13425SOL     OW42281   7.986   4.819  10.252  0.4991  0.0354 -0.3117
13425SOL    HW142282   8.072   4.777  10.242  0.7965  0.4226  0.5295
13425SOL    HW242283   7.941   4.766  10.318  1.7382  2.2309  2.5396
13426SOL     OW42284   4.353   8.086   9.957 -0.2963  0.7934 -0.1978
13426SOL    HW142285   4.354   8.142  10.034 -1.8937  0.3548  0.1686
13426SOL    HW242286   4.429   8.115   9.905 -0.3967  2.4748  0.5485
13427SOL     OW42287   4.979   7.895   8.742  0.0675 -0.6833  0.1737
13427SOL    HW142288   5.066   7.886   8.703  0.6586  0.6217  1.1207
13427SOL    HW242289   4.919   7.859   8.676  1.1329  0.4194 -1.4570
13428SOL     OW42290   6.649   1.831   5.373  0.2200  0.4536  0.7846
13428SOL    HW142291   6.665   1.925   5.378  0.5414  0.5375 -1.1615
13428SOL    HW242292   6.736   1.792   5.370  0.0831  0.1109  1.1555
13429SOL     OW42293   2.732   6.811   6.900 -0.3726 -0.1969 -0.5249
13429SOL    HW142294   2.809   6.827   6.845 -0.4406  1.9278 -0.0820
13429SOL    HW242295   2.684   6.894   6.899 -0.4575 -0.0839  2.5673
13430SOL     OW42296   1.933   4.946   4.183 -0.0989 -0.6054  0.2784
13430SOL    HW142297   1.999   4.970   4.117 -1.0717  1.2771 -0.0772
13430SOL    HW242298   1.960   4.859   4.213  0.7075 -1.2843 -2.1863
13431SOL     OW42299   7.212   0.818   2.463 -0.1816  0.3739 -0.0053
13431SOL    HW142300   7.154   0.869   2.407 -0.9873  0.4617  0.8897
13431SOL    HW242301   7.300   0.852   2.444 -0.2859 -0.3547 -2.0040
13432SOL     OW42302   7.304  10.149  10.961 -0.1130  0.2391 -0.1704
13432SOL    HW142303   7.387  10.135  10.916 -0.0177 -3.4134  0.8399
13432SOL    HW242304   7.241  10.093  10.915 -1.3681  0.7975  0.7721
13433SOL     OW42305   5.453   2.198  10.250 -0.1565  0.3118  0.2544
13433SOL    HW142306   5.530   2.228  10.201 -1.0747  0.5374 -1.1293
13433SOL    HW242307   5.485   2.123  10.301  0.6473 -0.6725 -1.5837
13434SOL     OW42308  10.077   1.172   0.925 -0.0656  0.4256  0.2451
13434SOL    HW142309  10.111   1.137   0.843 -1.3086 -2.2062  0.7689
13434SOL    HW242310   9.993   1.212   0.900 -1.2916 -1.9066  0.4169
13435SOL     OW42311  10.713   3.177   2.730 -0.3231  0.0390 -0.0871
13435SOL    HW142312  10.762   3.148   2.807 -0.2610  0.0567 -0.1198
13435SOL    HW242313  10.622   3.178   2.758 -0.3083 -0.0305 -0.0367
13436SOL     OW42314   5.062   2.934   9.521 -0.4889 -0.2547  0.4227
13436SOL    HW142315   5.136   2.913   9.464  0.8224 -0.0405  1.9539
13436SOL    HW242316   4.985   2.925   9.466  0.6506 -0.9383 -1.1185
13437SOL     OW42317   9.922   7.431   9.344 -0.2287  0.4717  0.1567
13437SOL    HW142318   9.863   7.360   9.371  0.2528 -0.9033 -2.1547
13437SOL    HW242319   9.915   7.496   9.414 -3.1369 -0.4236  0.8317
13438SOL     OW42320   6.806   9.410   0.801  0.0971 -0.3221 -0.4467
13438SOL    HW142321   6.718   9.432   0.770  0.6549  1.5813 -0.7985
13438SOL    HW242322   6.829   9.482   0.859  1.1141 -1.2443  0.3475
13439SOL     OW42323  11.083   8.360   9.367  0.0416 -0.5339  0.1389
13439SOL    HW142324  11.153   8.340   9.429 -1.0582 -1.4897  1.1063
13439SOL    HW242325  11.114   8.438   9.321  1.8703 -1.1090  0.3235
13440SOL     OW42326   0.377   4.679  10.633 -0.2766 -0.0137  0.1307
13440SOL    HW142327   0.383   4.622  10.556 -0.5379  0.0011  0.1000
13440SOL    HW242328   0.285   4.679  10.656 -0.0295 -0.9705  1.1699
13441SOL     OW42329   8.460   0.590   8.613 -0.1165 -0.6405 -0.5467
13441SOL    HW142330   8.446   0.680   8.640  1.6692 -0.0486 -1.4140
13441SOL    HW242331   8.527   0.557   8.673  0.0021 -1.0291 -0.8844
13442SOL     OW42332   6.145   8.129   8.000  0.5548  0.3937 -0.6732
13442SOL    HW142333   6.117   8.073   7.928 -0.1068  2.1055 -1.8173
13442SOL    HW242334   6.074   8.193   8.010  1.4181  1.2371  0.3403
13443SOL     OW42335   4.318  10.292   1.268 -0.3773  0.1048 -0.8581
13443SOL    HW142336   4.236  10.242   1.270  0.1065 -0.6962  0.7366
13443SOL    HW242337   4.312  10.352   1.342  1.0116 -0.9238  0.1532
13444SOL     OW42338  10.579   6.492   5.502  0.1140 -0.4681 -0.3818
13444SOL    HW142339  10.603   6.516   5.412  0.6468 -0.8870 -0.3563
13444SOL    HW242340  10.651   6.437   5.532  1.0275  1.3734  1.0649
13445SOL     OW42341   3.011   2.515   5.906 -0.5206 -0.3124  0.8493
13445SOL    HW142342   3.077   2.579   5.931  0.1855  0.2567 -2.1571
13445SOL    HW242343   3.055   2.458   5.843 -1.9186 -2.1733  1.4469
13446SOL     OW42344   5.724   9.990   8.143  0.1832  0.2402 -0.0892
13446SOL    HW142345   5.755   9.997   8.233  0.2825 -0.3712 -0.0768
13446SOL    HW242346   5.636  10.029   8.145  0.0389 -0.0964  0.3457
13447SOL     OW42347   6.682   9.514   8.599 -0.2964  0.4398 -0.1996
13447SOL    HW142348   6.591   9.490   8.578 -0.0410 -1.6700  0.8854
13447SOL    HW242349   6.720   9.434   8.635  2.0905  1.2143 -0.8371
13448SOL     OW42350   7.315   2.608   0.742  0.1331 -0.0025 -0.3068
13448SOL    HW142351   7.371   2.538   0.773  0.3381  0.5683  0.6681
13448SOL    HW242352   7.317   2.601   0.647  0.9884 -0.6550 -0.2471
13449SOL     OW42353   1.818   0.191   3.079  0.0909 -0.0173  0.4544
13449SOL    HW142354   1.838   0.281   3.056 -0.5400 -0.3884 -1.8033
13449SOL    HW242355   1.738   0.196   3.131 -1.5360  0.6600 -1.9032
13450SOL     OW42356   5.581   2.546   0.072  0.2391  0.0151 -0.3648
13450SOL    HW142357   5.549   2.458   0.092  4.1826 -1.6211 -0.3311
13450SOL    HW242358   5.553   2.562  -0.018 -1.2132 -0.8897 -0.1136
13451SOL     OW42359   7.499   3.833  10.506  0.6322 -0.8224  0.2561
13451SOL    HW142360   7.558   3.778  10.454  2.0135 -0.0250  0.9258
13451SOL    HW242361   7.557   3.881  10.565 -0.4411  1.7310 -0.6315
13452SOL     OW42362   9.584   9.159   1.234 -0.3622 -0.5709  0.3130
13452SOL    HW142363   9.491   9.139   1.245 -0.3152 -0.8786  0.1647
13452SOL    HW242364   9.629   9.090   1.283 -0.1914 -0.9880 -0.4139
13453SOL     OW42365   9.068   4.596   6.806 -0.4090  0.1778  0.2055
13453SOL    HW142366   9.093   4.599   6.714  0.2721 -0.6107  0.3490
13453SOL    HW242367   9.145   4.560   6.850 -1.6772 -2.1260  0.7024
13454SOL     OW42368   0.409   8.621   5.781  0.3219  0.1570  0.5381
13454SOL    HW142369   0.480   8.588   5.725 -0.0391  0.4282 -0.0885
13454SOL    HW242370   0.340   8.555   5.772 -0.0502  0.6077  0.0052
13455SOL     OW42371   5.309   6.723  10.251 -0.3996  0.5132  0.0063
13455SOL    HW142372   5.279   6.768  10.172  2.3676  1.8290 -0.3918
13455SOL    HW242373   5.404   6.724  10.245 -0.1525 -1.3225  2.3167
13456SOL     OW42374   8.231   0.092  10.767  0.0138  0.1005 -0.2770
13456SOL    HW142375   8.283   0.115  10.690 -1.6547  0.5195 -1.3283
13456SOL    HW242376   8.141   0.115  10.743 -0.9762 -2.3563  0.7190
13457SOL     OW42377   4.765   1.188   8.794  0.1653 -0.1620 -0.1402
13457SOL    HW142378   4.844   1.186   8.739 -0.6986  0.4864 -1.4408
13457SOL    HW242379   4.722   1.104   8.778  0.1119 -0.1339 -0.1435
13458SOL     OW42380   2.900   9.985   8.120 -0.3149  0.0961  0.1154
13458SOL    HW142381   2.851   9.902   8.121  0.4552 -0.4029 -0.9441
13458SOL    HW242382   2.856  10.037   8.053 -1.4660  0.9980  1.5282
13459SOL     OW42383   8.321   1.763   7.816 -0.6490 -0.4359 -0.4224
13459SOL    HW142384   8.355   1.688   7.864  0.3769  0.0675 -0.3366
13459SOL    HW242385   8.363   1.839   7.856 -0.7464  0.0927 -1.2914
13460SOL     OW42386   3.911   3.778   7.654 -0.3852  0.0853 -0.2426
13460SOL    HW142387   4.006   3.770   7.664 -0.3218  0.0556 -0.8634
13460SOL    HW242388   3.897   3.870   7.631 -0.2824 -0.4164 -2.5299
13461SOL     OW42389   7.187   0.274   6.248 -0.2913 -0.3401 -0.6337
13461SOL    HW142390   7.103   0.311   6.274  0.3032  0.4868  0.1475
13461SOL    HW242391   7.191   0.189   6.293  1.0269  1.3505  2.7362
13462SOL     OW42392   5.501   6.902   8.433 -0.3246 -0.1568 -0.5897
13462SOL    HW142393   5.494   6.967   8.363 -0.3956  0.8548  0.3245
13462SOL    HW242394   5.544   6.827   8.391  2.0534  1.3711 -1.1425
13463SOL     OW42395   1.621   7.738   9.242  0.9342 -0.2224 -0.3335
13463SOL    HW142396   1.644   7.817   9.192 -0.8967 -0.4447 -1.6529
13463SOL    HW242397   1.634   7.666   9.181  2.0065 -0.9300  0.6745
13464SOL     OW42398   1.485   8.684   2.717 -0.0806 -0.3833  0.2959
13464SOL    HW142399   1.518   8.744   2.650 -2.4256  0.8117  0.0942
13464SOL    HW242400   1.529   8.601   2.700 -0.3447 -0.0312 -2.5560
13465SOL     OW42401   6.896  10.859  10.369  0.5650 -0.2677 -0.0748
13465SOL    HW142402   6.957  10.831  10.438  0.0742 -0.5083  0.2732
13465SOL    HW242403   6.838  10.784  10.358 -0.7435  0.5737  0.8261
13466SOL     OW42404   2.530   5.350   1.732  0.1082  0.6097  0.7238
13466SOL    HW142405   2.439   5.320   1.736 -0.7720  2.9346 -0.3454
13466SOL    HW242406   2.540   5.409   1.807  0.4529  1.0621  0.3309
13467SOL     OW42407   5.511   7.511   7.432 -0.4706 -0.7333  0.0302
13467SOL    HW142408   5.479   7.446   7.495 -0.8883 -1.4114 -0.8507
13467SOL    HW242409   5.476   7.594   7.463 -0.1959 -0.9685  1.0056
13468SOL     OW42410   9.476   5.070  10.579 -0.4092 -0.5548 -0.1247
13468SOL    HW142411   9.565   5.081  10.545  1.6207 -0.8751  4.4422
13468SOL    HW242412   9.467   4.976  10.594 -1.1864 -0.4151  0.3572
13469SOL     OW42413   0.813   5.188   9.724 -0.2212 -0.2610 -0.3100
13469SOL    HW142414   0.876   5.256   9.748  1.1372 -1.9925  1.3453
13469SOL    HW242415   0.772   5.164   9.807 -0.7959 -1.3463 -0.8944
13470SOL     OW42416   3.635   5.640   5.651  0.0007 -0.7503  0.0714
13470SOL    HW142417   3.614   5.718   5.702  0.0280 -0.5956 -0.1524
13470SOL    HW242418   3.612   5.567   5.708  2.8361 -0.6323  1.5417
13471SOL     OW42419   0.077   0.086   6.053  0.3505 -0.2430 -0.4345
13471SOL    HW142420  -0.015   0.075   6.030  0.3716 -1.7577  0.0702
13471SOL    HW242421   0.112  -0.003   6.054  1.8088  0.3043 -0.5406
13472SOL     OW42422  10.737   0.143   9.149 -0.2108 -0.5593 -0.4933
13472SOL    HW142423  10.792   0.101   9.084  0.2233 -1.5825  0.4990
13472SOL    HW242424  10.785   0.133   9.232 -0.8885  0.4210  0.0385
13473SOL     OW42425   2.009   9.861   9.090 -0.2469  0.1194 -0.1325
13473SOL    HW142426   2.050   9.892   9.010  0.1946 -0.1577 -0.0207
13473SOL    HW242427   1.970   9.939   9.130 -2.3405 -0.0524 -1.6581
13474SOL     OW42428   4.553   5.809   9.167 -0.2678 -0.3067 -0.3486
13474SOL    HW142429   4.526   5.833   9.255  0.0603 -1.1843  0.0017
13474SOL    HW242430   4.472   5.790   9.121 -0.4293 -0.0054 -0.1867
13475SOL     OW42431   3.850   4.932   3.908  0.0689  0.2413 -0.2820
13475SOL    HW142432   3.882   4.891   3.989  0.9521 -1.3504 -1.3824
13475SOL    HW242433   3.924   4.984   3.877  0.0560  0.0918 -0.5607
13476SOL     OW42434   1.513   3.582  10.769 -0.0468  0.1227 -0.0016
13476SOL    HW142435   1.536   3.513  10.832  0.7503  0.7715  0.4370
13476SOL    HW242436   1.431   3.618  10.802 -0.0800 -0.1127  0.1800
13477SOL     OW42437   8.939   6.935   0.245  0.0000 -0.1546 -0.2435
13477SOL    HW142438   8.907   6.943   0.155 -0.8324 -0.3165  0.0274
13477SOL    HW242439   9.035   6.939   0.237 -0.0779  2.2016 -0.9014
13478SOL     OW42440   7.936   5.944   3.444 -0.2992 -0.2340 -0.0289
13478SOL    HW142441   7.841   5.950   3.432 -0.2908  1.7560  0.4670
13478SOL    HW242442   7.968   6.031   3.420  1.1602 -0.2311  1.7087
13479SOL     OW42443   8.178   7.108   5.368  0.4214 -0.3433  0.1117
13479SOL    HW142444   8.242   7.173   5.398  1.7752 -1.6472  0.1507
13479SOL    HW242445   8.175   7.121   5.273  2.0484 -1.3639 -0.1160
13480SOL     OW42446   6.788   0.538   8.436  0.2689 -0.4323  0.0427
13480SOL    HW142447   6.869   0.589   8.437 -0.6419  1.0881  1.6804
13480SOL    HW242448   6.799   0.477   8.363  2.0355  1.0770 -1.0320
13481SOL     OW42449   1.228   9.514   0.339  0.4954 -0.9668 -0.2822
13481SOL    HW142450   1.134   9.529   0.335  0.5853 -0.5226 -0.7145
13481SOL    HW242451   1.236   9.419   0.353 -0.0003 -1.1168 -0.9589
13482SOL     OW42452   1.739  10.007   6.305  0.1925 -0.2079  0.4450
13482SOL    HW142453   1.658   9.955   6.306  1.1410 -1.7861 -0.2335
13482SOL    HW242454   1.728  10.066   6.230 -0.5758  0.0098  0.7232
13483SOL     OW42455   9.146   3.998   6.712 -0.0895 -0.4817  0.4885
13483SOL    HW142456   9.235   4.001   6.747  0.3310 -0.7823 -0.5155
13483SOL    HW242457   9.135   3.908   6.683  0.3984  0.2106 -2.1201
13484SOL     OW42458   0.139   6.796   3.043 -0.1416 -0.3593 -0.2444
13484SOL    HW142459   0.213   6.740   3.019 -1.1113 -1.9539  0.3463
13484SOL    HW242460   0.174   6.855   3.109  0.8071 -0.5415 -0.5678
13485SOL     OW42461   0.236   9.232   8.071 -0.0924  0.3457 -0.5490
13485SOL    HW142462   0.199   9.172   8.136 -1.3794  0.3080 -1.2946
13485SOL    HW242463   0.198   9.317   8.093 -0.9635  0.2344 -1.5638
13486SOL     OW42464   4.186   2.466   1.606  0.1729  0.2850 -0.7219
13486SOL    HW142465   4.141   2.465   1.691  1.0874  1.0065 -0.2023
13486SOL    HW242466   4.161   2.384   1.564  1.8368 -1.4674  1.4044
13487SOL     OW42467   5.774   4.030   0.387  0.4230  0.0552 -0.3785
13487SOL    HW142468   5.724   4.063   0.462  0.4076  0.3002 -0.4937
13487SOL    HW242469   5.830   4.104   0.362  0.0772  0.1385 -0.9104
13488SOL     OW42470   4.661   2.318   2.116 -0.2414  0.1047 -0.5866
13488SOL    HW142471   4.643   2.412   2.117  0.9769  0.3452 -0.0442
13488SOL    HW242472   4.589   2.280   2.168 -0.5517  0.7631 -0.5184
13489SOL     OW42473   0.393   8.555   9.125  0.3566  0.3371  0.1222
13489SOL    HW142474   0.374   8.469   9.090  0.9361  0.6951 -1.1381
13489SOL    HW242475   0.309   8.589   9.155  0.4577 -1.6964  3.2325
13490SOL     OW42476   3.742   0.198  10.530 -0.3419  0.0072  0.0498
13490SOL    HW142477   3.781   0.112  10.515  1.2032  0.5776  0.5021
13490SOL    HW242478   3.783   0.254  10.463 -2.1325  0.1976 -0.9358
13491SOL     OW42479   1.829   6.066   4.058  0.1742 -0.0336  0.1373
13491SOL    HW142480   1.778   5.990   4.029 -0.1986 -1.6026  4.1644
13491SOL    HW242481   1.916   6.030   4.077  0.1569  0.5864  1.5459
13492SOL     OW42482   9.644   5.656   1.295 -0.2186 -0.5376  0.2330
13492SOL    HW142483   9.576   5.591   1.313 -0.7103  0.4378  2.2494
13492SOL    HW242484   9.617   5.697   1.213 -0.0004 -2.6543 -0.9876
13493SOL     OW42485   3.882   8.528   5.295  0.3765  0.0614  0.5405
13493SOL    HW142486   3.966   8.574   5.290 -0.3384  1.5706  1.5166
13493SOL    HW242487   3.832   8.579   5.359 -0.9851 -1.2937  0.5868
13494SOL     OW42488   6.528   2.834   0.438 -0.1377 -0.4155 -0.3204
13494SOL    HW142489   6.433   2.847   0.444  0.3189  3.4550  1.9079
13494SOL    HW242490   6.553   2.804   0.526  0.8215 -0.1505 -0.4990
13495SOL     OW42491   6.210   1.931   5.945 -0.5875 -0.1882  0.2960
13495SOL    HW142492   6.123   1.967   5.931 -0.7213 -0.8890 -0.8299
13495SOL    HW242493   6.267   1.986   5.891 -0.8446 -1.7829 -1.7465
13496SOL     OW42494   7.381   8.684  10.500 -0.1013  0.2110 -0.2959
13496SOL    HW142495   7.335   8.600  10.490  0.0085  0.1711 -0.4727
13496SOL    HW242496   7.418   8.701  10.414  1.6120 -0.5857  0.2219
13497SOL     OW42497   1.761   8.223   5.970 -0.0899 -0.0997 -0.2935
13497SOL    HW142498   1.812   8.241   6.049 -2.1130  0.7450  0.9030
13497SOL    HW242499   1.710   8.303   5.956 -2.1129 -1.3582 -0.5608
13498SOL     OW42500   0.971   0.481   0.512  0.1926  0.2589  0.3126
13498SOL    HW142501   1.036   0.413   0.495 -0.9362 -0.4933 -1.1675
13498SOL    HW242502   0.948   0.470   0.604  3.3369  1.6497  1.4314
13499SOL     OW42503   1.041   5.493  10.964  0.3772  0.0550 -0.2742
13499SOL    HW142504   0.947   5.481  10.981  0.0020  3.0861  0.3488
13499SOL    HW242505   1.050   5.586  10.943  3.1567 -0.3222 -1.1506
13500SOL     OW42506   0.915   6.021   9.532 -0.5533  0.3228 -0.0328
13500SOL    HW142507   0.947   6.039   9.621  0.8038  0.8575 -0.6022
13500SOL    HW242508   0.902   6.108   9.493  0.3113  0.1018 -0.8437
13501SOL     OW42509   0.843   9.655   8.259  0.3230  0.0986 -0.3789
13501SOL    HW142510   0.822   9.577   8.309  0.6247 -0.0257 -0.4454
13501SOL    HW242511   0.871   9.622   8.173  2.8701  0.1353  0.3762
13502SOL     OW42512   4.807   4.318  11.021 -0.1355 -0.1044 -0.0958
13502SOL    HW142513   4.810   4.401  10.973  1.6767  0.2548  0.5460
13502SOL    HW242514   4.793   4.344  11.112 -0.1786 -0.5586  0.0270
13503SOL     OW42515   6.123   9.762  10.569 -0.0421 -0.3775  0.2273
13503SOL    HW142516   6.199   9.807  10.606 -0.0507  0.1222 -0.3450
13503SOL    HW242517   6.142   9.757  10.475 -0.8288 -0.0228  0.0439
13504SOL     OW42518   3.184   5.377   1.694 -0.5441  0.2060 -0.2565
13504SOL    HW142519   3.154   5.324   1.621  1.2426 -0.7945 -0.3281
13504SOL    HW242520   3.194   5.465   1.658 -2.2012  0.3229 -0.4990
13505SOL     OW42521   0.114   2.753  10.564 -0.0817 -0.0503 -0.0734
13505SOL    HW142522   0.041   2.743  10.503  0.5931  1.1299 -1.1325
13505SOL    HW242523   0.097   2.837  10.608 -0.4066 -0.7467  1.1833
13506SOL     OW42524   6.100   7.778  10.379 -0.1331  0.2589 -0.0649
13506SOL    HW142525   6.168   7.779  10.312  0.1928 -1.6614  0.1690
13506SOL    HW242526   6.067   7.688  10.378 -2.1936  0.9481  0.3164
13507SOL     OW42527  11.039   5.618   7.123  0.4375  0.1014 -0.6301
13507SOL    HW142528  11.076   5.551   7.180  0.4632  1.0476  0.4895
13507SOL    HW242529  11.106   5.687   7.119 -1.6850  2.7035  2.8784
13508SOL     OW42530   7.913   5.251   7.376 -0.3708  0.1167 -0.4854
13508SOL    HW142531   7.942   5.340   7.393  0.5115 -0.2283 -0.0931
13508SOL    HW242532   7.989   5.196   7.398 -0.8445 -0.7182 -0.8590
13509SOL     OW42533   2.774   4.081   7.618  0.0658  0.0338  0.0886
13509SOL    HW142534   2.811   4.169   7.626 -0.9999  0.5097 -0.0050
13509SOL    HW242535   2.680   4.094   7.627 -0.4087 -0.7012 -2.7689
13510SOL     OW42536   4.822   8.081   2.978  0.0379 -0.5298 -0.5379
13510SOL    HW142537   4.850   8.111   3.065  0.3165  1.5309 -1.2895
13510SOL    HW242538   4.900   8.039   2.941  0.1853 -0.6144 -0.1320
13511SOL     OW42539   5.149   6.910   3.152 -0.3463  0.6902  0.4640
13511SOL    HW142540   5.226   6.935   3.204  0.2245  0.0452 -0.0629
13511SOL    HW242541   5.165   6.949   3.066  0.2289 -0.8458 -0.1639
13512SOL     OW42542   3.779   7.117   8.383 -0.3558  0.4757 -0.6185
13512SOL    HW142543   3.805   7.199   8.423 -0.4607  0.9673 -1.5337
13512SOL    HW242544   3.714   7.142   8.317  1.2405 -0.0612 -2.4799
13513SOL     OW42545   5.211   4.234   7.397  0.4517 -0.7590  0.3265
13513SOL    HW142546   5.301   4.254   7.370  0.1712 -0.8634 -0.7187
13513SOL    HW242547   5.190   4.302   7.461  1.9232 -1.8213  2.0558
13514SOL     OW42548  10.424   5.046  10.528 -0.2838  0.2315 -0.2323
13514SOL    HW142549  10.426   4.961  10.571  2.1881 -0.2236 -1.1111
13514SOL    HW242550  10.332   5.057  10.502 -0.5071 -2.6325 -0.9789
13515SOL     OW42551   3.177   7.495   6.381  0.5159  0.3529 -0.3455
13515SOL    HW142552   3.136   7.526   6.462  0.5395 -1.8486  0.5773
13515SOL    HW242553   3.146   7.556   6.314 -1.5051  0.7972  0.9025
13516SOL     OW42554   3.921   9.804   3.356  0.1668 -0.0131  0.6026
13516SOL    HW142555   3.992   9.859   3.388  0.2571  0.2382 -0.0342
13516SOL    HW242556   3.850   9.865   3.336 -0.0138 -0.2047  0.6457
13517SOL     OW42557   6.481   8.012   9.006 -0.2891 -0.0093  0.1706
13517SOL    HW142558   6.405   7.955   9.014 -0.0497 -0.5729 -1.2762
13517SOL    HW242559   6.508   8.004   8.914  2.2890 -0.8177  0.9077
13518SOL     OW42560   1.513   0.055   4.233  0.3089  0.1783  0.1978
13518SOL    HW142561   1.510   0.092   4.145 -1.4943 -0.6594 -0.1455
13518SOL    HW242562   1.458   0.114   4.285 -1.3392 -1.0947 -0.0173
13519SOL     OW42563   7.990   6.565   3.764  0.4672 -0.3072  0.1983
13519SOL    HW142564   8.034   6.494   3.809  1.7472  0.0018 -0.5084
13519SOL    HW242565   7.982   6.635   3.830  1.0547 -0.3675  0.3382
13520SOL     OW42566   6.760   3.343   9.002 -0.1723  0.1950 -0.1565
13520SOL    HW142567   6.822   3.409   8.974  1.9113 -1.5830  0.0134
13520SOL    HW242568   6.787   3.319   9.090 -1.8489  0.1899  0.3947
13521SOL     OW42569   8.405   6.160   2.260 -0.1435 -0.4795 -0.2943
13521SOL    HW142570   8.456   6.151   2.180 -1.3984  0.7724 -1.2997
13521SOL    HW242571   8.402   6.254   2.276  0.6172 -0.7521  1.6054
13522SOL     OW42572   9.696   6.562   1.573 -0.3597  0.8255 -0.3593
13522SOL    HW142573   9.666   6.645   1.611  1.4840  1.8583 -1.0830
13522SOL    HW242574   9.644   6.495   1.619 -3.3124  2.4162 -1.1181
13523SOL     OW42575  10.830   7.253   8.817 -0.1088 -0.1174 -0.4610
13523SOL    HW142576  10.822   7.303   8.899 -0.6135  1.6110 -1.5019
13523SOL    HW242577  10.924   7.236   8.809  0.3442  2.1713 -0.8476
13524SOL     OW42578  10.519   9.105   9.452 -0.2685 -0.2220 -0.3320
13524SOL    HW142579  10.477   9.103   9.538 -0.6690 -2.3399 -0.5209
13524SOL    HW242580  10.479   9.179   9.407 -0.9035  0.2057  0.8925
13525SOL     OW42581   1.385   6.568   4.481 -0.3172 -0.2359  0.6616
13525SOL    HW142582   1.299   6.574   4.439  0.4653  0.9627 -0.8340
13525SOL    HW242583   1.438   6.517   4.421  0.4082  0.2088  0.9092
13526SOL     OW42584   1.327   8.667   7.885  0.1879  0.0051  0.0789
13526SOL    HW142585   1.318   8.583   7.930 -1.9062  0.8718  1.4224
13526SOL    HW242586   1.409   8.659   7.836 -0.1946 -3.0020 -0.2900
13527SOL     OW42587   5.659   0.833   8.631  0.1943  0.1242 -0.3151
13527SOL    HW142588   5.675   0.850   8.724 -3.5475  2.5436  0.1170
13527SOL    HW242589   5.597   0.760   8.630  0.3268  0.0172 -0.9231
13528SOL     OW42590   9.191   7.532   9.346 -0.2204 -0.1001 -0.1129
13528SOL    HW142591   9.134   7.593   9.392 -0.0288 -0.1155  0.1487
13528SOL    HW242592   9.211   7.464   9.411  0.6457  0.2639  0.0102
13529SOL     OW42593   1.396   7.850   5.805 -0.3233  0.0447 -0.2185
13529SOL    HW142594   1.468   7.787   5.800 -0.2247  0.0687  0.7375
13529SOL    HW242595   1.431   7.922   5.857 -0.4705  0.8543 -1.1968
13530SOL     OW42596   1.259   8.260   7.851  0.6465  0.1621  0.1847
13530SOL    HW142597   1.296   8.246   7.763  0.3738  0.2798  0.0487
13530SOL    HW242598   1.335   8.282   7.905  0.6762  1.3913 -0.3071
13531SOL     OW42599   7.019   9.523   7.893 -0.3214  0.3188 -0.5168
13531SOL    HW142600   7.102   9.509   7.937 -0.1608 -0.6781 -1.0956
13531SOL    HW242601   7.039   9.585   7.822 -0.4245  1.3220  0.3009
13532SOL     OW42602   4.160   0.319   4.201  0.1598  0.4612  0.3102
13532SOL    HW142603   4.114   0.271   4.269  0.0114 -0.1497 -0.2104
13532SOL    HW242604   4.234   0.360   4.246 -0.4615  0.8443  1.0072
13533SOL     OW42605   5.532  11.067  10.805  0.4086  0.1798  0.2981
13533SOL    HW142606   5.481  10.994  10.840 -1.3743  0.8968 -0.6813
13533SOL    HW242607   5.539  11.129  10.878 -0.0905  0.0394  0.4708
13534SOL     OW42608   3.339  10.804   3.170 -0.5500  0.6724  0.0300
13534SOL    HW142609   3.362  10.744   3.099 -3.1339  0.7407 -1.0069
13534SOL    HW242610   3.350  10.752   3.250  1.5888  0.3180 -0.4343
13535SOL     OW42611   8.900   7.565   8.320  0.3480  0.0521 -0.4692
13535SOL    HW142612   8.980   7.574   8.371 -0.3515  1.5820  0.4420
13535SOL    HW242613   8.922   7.600   8.234  0.7697  0.0885 -0.3494
13536SOL     OW42614   9.179   7.117   7.472  0.1437  0.8503 -0.1363
13536SOL    HW142615   9.144   7.181   7.411 -0.6431  1.1220  0.5811
13536SOL    HW242616   9.104   7.094   7.528  1.2235  1.8212  1.7657
13537SOL     OW42617   5.114   1.377   7.865  0.2148 -0.5085 -0.2494
13537SOL    HW142618   5.180   1.315   7.896 -0.5879  0.1186  3.1125
13537SOL    HW242619   5.151   1.463   7.885 -1.1706 -0.1317  0.8543
13538SOL     OW42620   6.592   0.920   8.472  0.4744 -0.3501  0.4242
13538SOL    HW142621   6.591   0.825   8.467 -1.0469 -0.3530 -3.6079
13538SOL    HW242622   6.659   0.947   8.409  0.5590  1.2510  1.1384
13539SOL     OW42623  11.088   9.277  10.969 -0.1441 -0.3193  0.1208
13539SOL    HW142624  11.116   9.306  11.056  1.0607  0.1977 -0.4195
13539SOL    HW242625  11.093   9.181  10.974  0.9909 -0.2749  0.3101
13540SOL     OW42626   8.721   3.860   7.309  0.1781  0.1081  0.0984
13540SOL    HW142627   8.676   3.944   7.310  1.2712  0.7128 -0.5003
13540SOL    HW242628   8.675   3.809   7.242 -0.6714  0.1023  0.6636
13541SOL     OW42629   0.558   0.623  10.234 -0.2904  0.5305 -0.7357
13541SOL    HW142630   0.492   0.553  10.233 -1.1841  1.3121  0.5372
13541SOL    HW242631   0.609   0.606  10.314 -2.1882  2.7454  1.0948
13542SOL     OW42632  11.013   3.097   6.833  0.3836 -0.2297 -0.3006
13542SOL    HW142633  11.048   3.173   6.880  0.8947 -0.6585  0.0225
13542SOL    HW242634  10.919   3.114   6.827  0.3604 -0.0062  0.5928
13543SOL     OW42635   8.767   0.747   9.968 -0.4055 -0.1181 -0.1245
13543SOL    HW142636   8.701   0.757   9.899 -0.4526 -0.0209 -0.0648
13543SOL    HW242637   8.827   0.680   9.934 -0.8423 -0.6054  0.0575
13544SOL     OW42638  10.230   8.025   7.295 -0.0826 -0.3588 -0.4181
13544SOL    HW142639  10.207   7.996   7.383  2.1046  1.2122  0.7728
13544SOL    HW242640  10.326   8.018   7.292  0.1050  1.8808 -1.8016
13545SOL     OW42641   2.601   6.894   0.414 -0.0453 -0.3684  0.1642
13545SOL    HW142642   2.654   6.901   0.493  0.5533  0.9349 -0.3223
13545SOL    HW242643   2.567   6.805   0.416  1.4374 -0.9548  0.9571
13546SOL     OW42644   8.686   9.009   9.827  0.4389 -0.3335  0.3587
13546SOL    HW142645   8.648   9.086   9.785 -0.6494  0.0740  1.9842
13546SOL    HW242646   8.638   8.935   9.789 -1.1672  0.0891  1.4443
13547SOL     OW42647   9.105   5.247   1.421  0.6397  0.1098  0.3242
13547SOL    HW142648   9.072   5.321   1.472  2.7410  0.5876  1.1048
13547SOL    HW242649   9.196   5.238   1.448  0.4133 -2.9637  0.4855
13548SOL     OW42650   3.557   3.410   5.983 -0.2761 -0.4816  0.1653
13548SOL    HW142651   3.535   3.469   6.055  1.9384  1.2639 -0.4498
13548SOL    HW242652   3.482   3.351   5.975 -3.0392  2.7310  0.3243
13549SOL     OW42653   2.086   7.615   9.816 -0.1213 -0.8016 -0.2495
13549SOL    HW142654   2.108   7.704   9.840 -2.7580  0.0911 -0.7686
13549SOL    HW242655   2.133   7.560   9.879  0.4479  1.0049  0.9704
13550SOL     OW42656   1.656   4.930   9.555 -0.7844  0.9389  0.7334
13550SOL    HW142657   1.705   4.893   9.629 -0.9809  0.0480  0.4229
13550SOL    HW242658   1.602   4.999   9.595  0.6287  1.8744  1.0946
13551SOL     OW42659   7.631   1.371   7.786  0.0737 -0.4062  0.6078
13551SOL    HW142660   7.576   1.443   7.753  2.3884  0.9496 -0.5427
13551SOL    HW242661   7.706   1.415   7.826  0.2082 -2.1971  2.4760
13552SOL     OW42662   1.397   7.922   0.468 -0.0985  0.7765  0.0880
13552SOL    HW142663   1.419   7.959   0.554 -0.1736 -0.5923  0.7273
13552SOL    HW242664   1.303   7.938   0.458  0.1499  2.0941 -0.3489
13553SOL     OW42665   5.205  10.198   1.092 -0.4719  0.0737 -0.1100
13553SOL    HW142666   5.294  10.169   1.073 -0.4576  0.2023 -0.2405
13553SOL    HW242667   5.204  10.215   1.186  0.1935  1.9573 -0.3928
13554SOL     OW42668   0.681   4.117   3.069 -0.4259  0.0451  0.7588
13554SOL    HW142669   0.601   4.169   3.066  0.1174  0.8857  0.6270
13554SOL    HW242670   0.667   4.057   3.142 -1.4560 -0.2978  0.3113
13555SOL     OW42671  10.983   2.483   9.737 -0.4733  0.1227  0.0725
13555SOL    HW142672  11.021   2.398   9.758  1.2491  0.2416 -2.2003
13555SOL    HW242673  10.910   2.492   9.798  0.4731 -2.1004  1.6724
13556SOL     OW42674   0.525  11.032   4.208 -0.4390  0.2465 -0.2098
13556SOL    HW142675   0.460  11.065   4.271  0.6576  2.2889 -0.0706
13556SOL    HW242676   0.606  11.076   4.232  0.1697  0.6135 -2.6843
13557SOL     OW42677   0.681   8.087   1.721 -0.3992  0.1223 -0.0898
13557SOL    HW142678   0.652   8.005   1.762  0.7409 -0.3548 -0.1959
13557SOL    HW242679   0.763   8.108   1.765 -1.0267  1.6067  0.4283
13558SOL     OW42680   0.096   5.158   9.863  0.5854  0.0484 -0.1135
13558SOL    HW142681   0.161   5.191   9.925 -0.1277 -1.5823  1.5788
13558SOL    HW242682   0.015   5.153   9.914 -0.0791 -1.1254 -1.2430
13559SOL     OW42683   0.109  10.430   2.756  0.3928 -0.2157 -0.1186
13559SOL    HW142684   0.193  10.475   2.746  0.3377 -0.2298 -0.6496
13559SOL    HW242685   0.082  10.408   2.667  1.0021 -2.3570  0.1612
13560SOL     OW42686   2.237   6.292   0.601 -0.1157  0.3457 -0.2959
13560SOL    HW142687   2.207   6.287   0.692  0.7700  0.7305  0.0253
13560SOL    HW242688   2.293   6.215   0.591  1.2838  1.2745  0.0642
13561SOL     OW42689   0.016   4.147   1.783 -0.3426  0.3417  0.0828
13561SOL    HW142690  -0.051   4.214   1.774 -0.4896  0.3271  0.9664
13561SOL    HW242691   0.085   4.172   1.721 -0.4180  1.2787  0.3714
13562SOL     OW42692   1.129   0.853  10.687 -0.3052  0.0610  0.7058
13562SOL    HW142693   1.181   0.772  10.679  1.2209  1.0885 -0.3969
13562SOL    HW242694   1.066   0.848  10.615 -1.4212 -0.9410  1.7170
13563SOL     OW42695   4.893   1.478   9.202  0.0267 -0.1605 -0.2459
13563SOL    HW142696   4.832   1.404   9.199  0.1034 -0.2337 -0.0308
13563SOL    HW242697   4.941   1.466   9.284 -0.5959  0.6330  0.2579
13564SOL     OW42698  10.979  10.353   5.881  0.1396  0.7915  0.2478
13564SOL    HW142699  10.996  10.405   5.960 -1.5191 -0.2359  1.3607
13564SOL    HW242700  10.883  10.345   5.878  0.2133  0.2137 -1.4931
13565SOL     OW42701   9.748   7.506   0.058 -0.1682  0.3451  0.4330
13565SOL    HW142702   9.742   7.552   0.142 -2.9110 -0.4471  0.7635
13565SOL    HW242703   9.801   7.429   0.076 -0.8647  0.0939  1.5324
13566SOL     OW42704   7.503   7.729   6.070 -0.6753 -0.0691 -0.0934
13566SOL    HW142705   7.530   7.821   6.071 -0.2125 -0.1751 -1.1097
13566SOL    HW242706   7.541   7.692   6.149  0.8060  0.1747 -0.6591
13567SOL     OW42707   7.313   9.770   7.494 -0.5038  0.0659 -0.1198
13567SOL    HW142708   7.357   9.771   7.409 -0.4158 -0.1845 -0.0781
13567SOL    HW242709   7.321   9.860   7.526 -1.7808  0.5187 -1.0096
13568SOL     OW42710   1.309   4.588   9.341 -0.7180  0.1722  0.1989
13568SOL    HW142711   1.226   4.541   9.331 -1.4691  1.4862  0.0189
13568SOL    HW242712   1.285   4.670   9.383  0.0949  1.7046 -2.1437
13569SOL     OW42713   2.321   8.901   9.571 -0.3363 -0.1313  0.5560
13569SOL    HW142714   2.276   8.822   9.602 -0.1235 -0.2632  0.5263
13569SOL    HW242715   2.394   8.913   9.632 -0.5817  0.2491  0.7792
13570SOL     OW42716   5.326   8.933   8.931 -0.1885  0.2974 -0.1539
13570SOL    HW142717   5.298   8.843   8.951 -0.5255  0.2921 -0.6101
13570SOL    HW242718   5.355   8.928   8.840 -2.2519  1.0866 -0.9244
13571SOL     OW42719  10.018   9.184   9.566 -0.4425 -0.3012  0.0578
13571SOL    HW142720   9.947   9.129   9.601 -1.0645  0.4864  0.0645
13571SOL    HW242721  10.093   9.164   9.622 -0.4708 -1.6224 -0.3441
13572SOL     OW42722   9.912   4.159   3.308 -0.4958 -0.2778  0.5712
13572SOL    HW142723   9.982   4.194   3.362 -1.0204  0.6845  0.6640
13572SOL    HW242724   9.910   4.217   3.231 -0.0194 -1.3798 -0.2982
13573SOL     OW42725   3.848  10.574   2.834  0.0407  0.6881  0.1469
13573SOL    HW142726   3.916  10.526   2.881  1.3400  0.6477 -1.6960
13573SOL    HW242727   3.865  10.557   2.742 -2.0969  1.2170 -0.4019
13574SOL     OW42728   8.472   7.462   5.740 -0.6487  0.2602  0.2963
13574SOL    HW142729   8.485   7.471   5.834  0.5756  2.0433 -0.0044
13574SOL    HW242730   8.544   7.406   5.711 -0.5527  0.3854  0.2952
13575SOL     OW42731   4.251   5.246   0.862  0.0338 -0.1123 -0.4937
13575SOL    HW142732   4.306   5.221   0.787  1.8348  0.6946  0.5111
13575SOL    HW242733   4.233   5.339   0.849 -1.8451 -0.5191 -1.2199
13576SOL     OW42734   5.801   9.901   1.596 -0.4557 -0.1807  0.3653
13576SOL    HW142735   5.727   9.957   1.619 -0.6723  0.3700 -1.5151
13576SOL    HW242736   5.873   9.932   1.651 -1.4950 -0.5570  2.0365
13577SOL     OW42737   5.190   0.877  10.195  0.4095 -0.3335  0.1227
13577SOL    HW142738   5.203   0.946  10.260 -0.4201  1.0443 -1.0856
13577SOL    HW242739   5.264   0.817  10.207  1.3666  0.9724  0.9888
13578SOL     OW42740   0.097   9.049   7.228  0.4546  0.4773  0.5881
13578SOL    HW142741   0.099   9.119   7.293 -0.6464 -1.6460  3.0855
13578SOL    HW242742   0.189   9.022   7.219  0.5580  0.3447  1.8459
13579SOL     OW42743   1.922   9.240   6.046 -0.1685  0.4107 -0.0977
13579SOL    HW142744   1.960   9.239   5.958 -1.0680 -0.2624 -0.5009
13579SOL    HW242745   1.836   9.281   6.034  0.0185  1.0134  0.6051
13580SOL     OW42746   1.266   5.964   4.478  0.3646 -0.2489 -0.2253
13580SOL    HW142747   1.351   5.999   4.504  0.1932 -0.1377  0.1879
13580SOL    HW242748   1.285   5.905   4.405  0.9277 -1.0774  0.5817
13581SOL     OW42749   4.457   0.214   0.809 -0.5275 -0.4238  0.6175
13581SOL    HW142750   4.482   0.230   0.718 -0.0296  1.5240  1.0473
13581SOL    HW242751   4.460   0.119   0.819  2.0894 -0.5477 -0.6718
13582SOL     OW42752  11.093   7.960   1.831 -0.2491  0.3795  0.3429
13582SOL    HW142753  11.177   7.997   1.806  1.0168 -3.2825 -1.6777
13582SOL    HW242754  11.084   7.981   1.924  2.1844  2.0986  0.2849
13583SOL     OW42755   4.057   7.062   8.326 -0.2758 -0.3379  0.1839
13583SOL    HW142756   4.068   6.991   8.263 -1.7010 -0.7028  0.3121
13583SOL    HW242757   3.963   7.070   8.337 -0.1398  1.4176  0.3758
13584SOL     OW42758  10.853   5.893  10.429 -0.4819 -0.1515 -0.5321
13584SOL    HW142759  10.895   5.963  10.479 -0.6798 -0.3503 -0.0821
13584SOL    HW242760  10.873   5.913  10.337  0.4797 -0.1600 -0.3348
13585SOL     OW42761  10.996  10.120   0.821  0.2739  0.0650 -0.3759
13585SOL    HW142762  11.003  10.076   0.736 -1.5769  3.0822 -2.2946
13585SOL    HW242763  10.902  10.124   0.838  0.4387  2.0093  0.3482
13586SOL     OW42764   4.089  10.248   5.077 -0.0657  0.4603 -0.3683
13586SOL    HW142765   4.173  10.279   5.109  0.4392 -0.8160 -0.4010
13586SOL    HW242766   4.051  10.324   5.031  0.6060  1.3362  0.4984
13587SOL     OW42767   4.775   4.523  10.035  0.3820  0.3963 -0.4362
13587SOL    HW142768   4.867   4.548  10.041  0.9913 -1.5498 -0.9233
13587SOL    HW242769   4.775   4.447   9.977 -1.4012 -0.3095  0.4245
13588SOL     OW42770   2.088   8.866   0.745  0.3264 -0.1302  0.2639
13588SOL    HW142771   2.044   8.790   0.707 -0.9589  0.5172  0.4051
13588SOL    HW242772   2.138   8.830   0.819  0.7987 -1.0174 -0.4744
13589SOL     OW42773   6.933   7.942   1.781 -0.4156  0.5527 -0.1559
13589SOL    HW142774   6.954   7.849   1.794 -2.3252  0.2271  1.1156
13589SOL    HW242775   6.949   7.982   1.867 -1.8839  0.8682  0.0064
13590SOL     OW42776   4.004   9.682   9.929  0.2102 -0.1494  0.6629
13590SOL    HW142777   3.958   9.695  10.012 -1.5180 -0.8197 -0.1507
13590SOL    HW242778   3.957   9.611   9.886  1.8221 -0.6441 -0.3963
13591SOL     OW42779   3.033   4.438   0.156  0.2947  0.0924  0.5928
13591SOL    HW142780   3.066   4.444   0.246  0.8666 -2.1683  0.5958
13591SOL    HW242781   3.051   4.348   0.130 -0.6343  0.4557 -1.5117
13592SOL     OW42782   5.443   8.882   9.632  0.3493  0.0016  0.2377
13592SOL    HW142783   5.476   8.849   9.715 -0.6793  1.3350  1.2223
13592SOL    HW242784   5.517   8.930   9.594  0.6318 -0.0710  0.6906
13593SOL     OW42785   5.651   6.442   1.635 -0.0241  0.1631  0.2689
13593SOL    HW142786   5.637   6.374   1.568  0.5239 -0.3278  0.6368
13593SOL    HW242787   5.658   6.523   1.586  0.3192 -0.1863 -0.2696
13594SOL     OW42788   2.041   1.996   9.643 -0.4902  0.1772 -0.8017
13594SOL    HW142789   2.046   2.091   9.635 -3.8365  0.6045  0.5920
13594SOL    HW242790   2.066   1.978   9.733  0.2274 -0.3118 -1.0891
13595SOL     OW42791   5.442   6.207  10.113 -0.2868  0.7623  0.3694
13595SOL    HW142792   5.367   6.156  10.083  0.3053  0.4537 -0.6201
13595SOL    HW242793   5.517   6.171  10.065  0.8785 -0.3731  2.8459
13596SOL     OW42794   2.207   6.884   6.119 -0.0754  0.4503  0.4075
13596SOL    HW142795   2.201   6.911   6.027 -0.3443  0.6318  0.4774
13596SOL    HW242796   2.301   6.871   6.134  0.1800  2.2975  0.6295
13597SOL     OW42797   5.463   7.722   6.625 -0.1535 -0.1564  0.0402
13597SOL    HW142798   5.455   7.639   6.578 -0.3848 -0.6694  0.9580
13597SOL    HW242799   5.464   7.697   6.718 -0.7398  0.8942  0.3502
13598SOL     OW42800   3.099   6.048   6.329 -0.5348  0.4606  0.2463
13598SOL    HW142801   3.175   6.105   6.345 -0.4343  0.5774 -0.5954
13598SOL    HW242802   3.135   5.960   6.334 -0.5366  0.4882  0.7944
13599SOL     OW42803   8.078  10.040   8.447 -0.0770  0.0943  0.2843
13599SOL    HW142804   8.031  10.064   8.367  0.9579 -0.3794 -0.4814
13599SOL    HW242805   8.167  10.070   8.433  0.0115  0.4542  1.4797
13600SOL     OW42806   2.166   7.918   1.821  0.0962 -0.0650  0.4176
13600SOL    HW142807   2.140   7.830   1.849  0.2934 -0.4658 -0.6359
13600SOL    HW242808   2.208   7.905   1.736 -0.7971  1.1651 -0.2410
13601SOL     OW42809   1.622   9.081   0.544  0.2725 -0.3946  0.4778
13601SOL    HW142810   1.674   9.085   0.624 -1.2406 -1.4733  1.5933
13601SOL    HW242811   1.677   9.036   0.481  1.2743 -0.0699  1.0993
13602SOL     OW42812   9.717   4.571   5.670 -0.0526 -0.0570 -0.3265
13602SOL    HW142813   9.752   4.659   5.682 -0.4695  0.3105 -1.6389
13602SOL    HW242814   9.652   4.580   5.599  2.1538 -1.9377 -2.8120
13603SOL     OW42815   9.501   4.197   1.067 -0.2019 -0.5910 -0.0148
13603SOL    HW142816   9.481   4.128   1.004 -1.8467  0.1099 -0.3307
13603SOL    HW242817   9.416   4.239   1.084  0.4431  0.1873  1.5462
13604SOL     OW42818   6.227   7.724   9.255 -0.0306  0.2094  0.3057
13604SOL    HW142819   6.174   7.650   9.226 -1.1126  0.9202  0.3954
13604SOL    HW242820   6.172   7.768   9.321  1.0788  0.4169  1.1223
13605SOL     OW42821   4.328   0.869   9.308  0.3523  0.0567 -0.0827
13605SOL    HW142822   4.297   0.795   9.359 -4.3389  0.7415 -1.4653
13605SOL    HW242823   4.346   0.937   9.373  1.3156 -1.1742  0.9889
13606SOL     OW42824   2.095   0.267   7.629  0.8737 -0.1497 -0.0076
13606SOL    HW142825   2.123   0.176   7.638 -1.6860 -1.0181  0.0244
13606SOL    HW242826   2.073   0.294   7.718  0.0677 -0.0849 -0.2171
13607SOL     OW42827   7.330   9.222   6.645  0.2845 -0.3975  0.3765
13607SOL    HW142828   7.300   9.193   6.559 -1.0102  1.4221  0.1546
13607SOL    HW242829   7.404   9.165   6.665  0.5951 -0.9050 -1.9113
13608SOL     OW42830   2.662   5.646   0.673 -0.0939 -0.3276  0.2617
13608SOL    HW142831   2.623   5.627   0.587  1.3748  0.9841 -0.7497
13608SOL    HW242832   2.696   5.735   0.664  0.1166 -0.1700  2.2299
13609SOL     OW42833   7.056   8.230   4.448  0.5881 -0.1555 -0.0263
13609SOL    HW142834   7.104   8.283   4.511  1.6052 -0.1450 -0.7784
13609SOL    HW242835   7.035   8.290   4.376  0.4319 -0.4249 -0.2090
13610SOL     OW42836   2.891   1.714   8.533 -0.2272 -0.0425  0.0644
13610SOL    HW142837   2.821   1.771   8.566 -0.3061 -0.1428  0.0722
13610SOL    HW242838   2.871   1.701   8.441  1.6103  2.6463 -0.8321
13611SOL     OW42839   5.005   3.867   8.277  0.3074  0.0519  0.2785
13611SOL    HW142840   5.044   3.846   8.192  0.0514  0.5629  0.0325
13611SOL    HW242841   4.983   3.960   8.271 -1.2020 -0.2710  0.2974
13612SOL     OW42842   4.360   8.765   4.626 -0.4153 -0.2904  0.1458
13612SOL    HW142843   4.381   8.729   4.712 -0.5583 -1.0091 -0.1116
13612SOL    HW242844   4.290   8.709   4.593 -0.2005 -0.1698 -0.5375
13613SOL     OW42845   0.120   7.861   6.749  0.3542 -0.8726  0.0911
13613SOL    HW142846   0.064   7.849   6.672  0.1541 -2.0994  0.4110
13613SOL    HW242847   0.063   7.844   6.824  0.7463 -0.4575  0.4937
13614SOL     OW42848   2.808   6.362   1.119 -0.0139 -0.1495 -0.2774
13614SOL    HW142849   2.722   6.379   1.158  0.0149 -0.3670 -0.1164
13614SOL    HW242850   2.789   6.308   1.042 -0.0171 -0.2833 -0.1854
13615SOL     OW42851   6.221   7.260   4.072 -0.3297 -0.0710  0.5288
13615SOL    HW142852   6.279   7.315   4.124 -0.7895  0.7774  0.1783
13615SOL    HW242853   6.164   7.218   4.135  0.0310 -0.1495  0.8052
13616SOL     OW42854   9.051   0.974   1.940 -0.1848 -0.0156 -0.9027
13616SOL    HW142855   9.039   1.027   1.861  0.2835 -1.0863 -1.7234
13616SOL    HW242856   8.995   1.016   2.005 -0.5466  0.9320 -1.7811
13617SOL     OW42857   0.589   3.823   4.243  0.1413  0.1335 -0.3441
13617SOL    HW142858   0.581   3.802   4.336 -0.1665 -1.3811 -0.6828
13617SOL    HW242859   0.640   3.903   4.241  0.1134  0.2182  1.1328
13618SOL     OW42860   7.428   3.173   9.224 -0.3911 -0.1357  0.4315
13618SOL    HW142861   7.384   3.097   9.262  1.0023 -2.1285 -1.6514
13618SOL    HW242862   7.506   3.185   9.278  0.3509 -1.4441 -0.2895
13619SOL     OW42863   8.835   7.395   5.240 -0.2219  0.1743  0.4630
13619SOL    HW142864   8.800   7.483   5.251  0.4086  0.4505  0.2888
13619SOL    HW242865   8.822   7.375   5.148  1.4343  0.8835  0.0410
13620SOL     OW42866   3.367   6.032   6.751 -0.3354 -0.0072 -0.5157
13620SOL    HW142867   3.453   6.000   6.775  0.1145  2.2803  1.2839
13620SOL    HW242868   3.379   6.126   6.736 -1.9454 -0.1157 -3.4429
13621SOL     OW42869   2.341   7.040   0.861 -0.1155 -0.2759 -0.1354
13621SOL    HW142870   2.343   7.126   0.818 -1.4812  0.0148  0.3389
13621SOL    HW242871   2.389   6.982   0.801 -0.4315  0.4997 -1.1678
13622SOL     OW42872   9.405   3.509   6.137 -0.1472  0.0668 -0.3596
13622SOL    HW142873   9.346   3.481   6.207  1.5127 -1.4274  0.4962
13622SOL    HW242874   9.346   3.541   6.068 -1.8776  0.0276  1.0363
13623SOL     OW42875  10.165   8.539   4.632 -0.0415  0.1959 -0.2005
13623SOL    HW142876  10.148   8.475   4.563 -1.2898 -0.1561  0.4063
13623SOL    HW242877  10.097   8.605   4.622 -1.8988 -1.1778  2.2117
13624SOL     OW42878   5.297   8.675   0.709  0.3006  0.2793 -0.0769
13624SOL    HW142879   5.292   8.765   0.679 -0.6226 -0.5007 -2.5224
13624SOL    HW242880   5.270   8.678   0.801  0.1523  2.4488 -0.1582
13625SOL     OW42881   0.051   9.890   7.665  0.2307 -0.1799 -0.3247
13625SOL    HW142882   0.081   9.908   7.576  1.0558  0.2262  0.0171
13625SOL    HW242883   0.048   9.976   7.707  1.3408 -0.5030  0.4692
13626SOL     OW42884   3.367   4.822  10.806 -0.1675  0.0978  0.0810
13626SOL    HW142885   3.286   4.865  10.832 -0.1896  0.5436 -0.6793
13626SOL    HW242886   3.407   4.882  10.744  0.5083 -0.3392  0.0804
13627SOL     OW42887   6.209   3.546  10.900  0.3643 -0.1374  0.2092
13627SOL    HW142888   6.131   3.555  10.954  0.5644  0.0575  0.4677
13627SOL    HW242889   6.228   3.635  10.870 -0.3399 -0.3877 -1.0294
13628SOL     OW42890   1.593   9.380   0.893  0.1193 -0.6439  0.6909
13628SOL    HW142891   1.614   9.305   0.837  0.5912 -0.0664  0.0639
13628SOL    HW242892   1.500   9.397   0.876  0.1168 -0.8288  0.5093
13629SOL     OW42893   8.680   8.342   1.807  0.8222  0.2796  0.4323
13629SOL    HW142894   8.625   8.294   1.868 -0.0453  1.9589  1.0360
13629SOL    HW242895   8.652   8.433   1.815  1.1832  0.6805 -1.9274
13630SOL     OW42896   7.890   6.525   1.691  0.4665 -0.7614 -0.3720
13630SOL    HW142897   7.939   6.534   1.773  2.1265 -0.9750 -1.2935
13630SOL    HW242898   7.872   6.615   1.665  0.7268 -0.6580 -0.2111
13631SOL     OW42899   3.869   9.682   7.487  0.0263 -0.0155 -0.5122
13631SOL    HW142900   3.811   9.690   7.563 -0.5088  0.6926 -0.9807
13631SOL    HW242901   3.956   9.669   7.525 -0.1701  0.7470  0.2356
13632SOL     OW42902   4.903   7.348   2.385  0.1552  0.1497  0.0180
13632SOL    HW142903   4.992   7.317   2.398  0.1637  0.8207  2.0602
13632SOL    HW242904   4.894   7.419   2.449 -1.5413  0.7056 -0.7963
13633SOL     OW42905   4.617   7.628   5.095  0.4177  0.5103 -0.4310
13633SOL    HW142906   4.622   7.712   5.140  1.1081  0.0298  0.4167
13633SOL    HW242907   4.586   7.567   5.162 -2.1587  0.4406 -1.5473
13634SOL     OW42908   4.672   1.107   8.476  0.0273 -0.2850  0.2784
13634SOL    HW142909   4.620   1.100   8.396  0.3392 -1.9039  0.1762
13634SOL    HW242910   4.754   1.060   8.456  0.3634 -0.1885  1.3366
13635SOL     OW42911   4.778   5.355   9.754  0.3567 -0.1736  0.7673
13635SOL    HW142912   4.860   5.392   9.788  0.5347  1.6144 -1.4063
13635SOL    HW242913   4.800   5.326   9.665 -1.5851  1.4542 -0.3307
13636SOL     OW42914   7.935   4.388   1.894 -0.2697  0.2249  0.1040
13636SOL    HW142915   8.015   4.360   1.939 -0.9740  0.2154  1.3748
13636SOL    HW242916   7.966   4.423   1.810  0.9679 -0.7913  0.1128
13637SOL     OW42917   6.127   4.725   1.381 -0.2620  0.0791  0.3118
13637SOL    HW142918   6.125   4.633   1.355  1.0093  0.0149  0.4019
13637SOL    HW242919   6.218   4.743   1.401 -0.2842  1.6475 -0.7547
13638SOL     OW42920   0.808   2.993   3.337  0.0516  0.0317 -0.2350
13638SOL    HW142921   0.870   2.996   3.264 -0.1582 -1.2119 -0.4978
13638SOL    HW242922   0.735   3.047   3.309  0.4088  0.3698 -0.5231
13639SOL     OW42923   9.938   6.085   0.417 -0.1350 -0.3637  0.3361
13639SOL    HW142924   9.866   6.090   0.479  0.1072  2.0114  0.4947
13639SOL    HW242925  10.014   6.061   0.471 -0.6960 -2.7135  0.1894
13640SOL     OW42926   5.717   9.569  10.193 -0.3431  0.0678  0.1003
13640SOL    HW142927   5.669   9.545  10.113 -0.3817  2.0754 -0.5342
13640SOL    HW242928   5.808   9.550  10.173 -0.4077  0.1056 -0.2324
13641SOL     OW42929   0.517   9.782  11.030 -0.0506 -0.4182 -0.1586
13641SOL    HW142930   0.528   9.792  10.935  2.2541 -0.8900 -0.0169
13641SOL    HW242931   0.461   9.705  11.040  0.4586 -0.9518 -1.1724
13642SOL     OW42932   1.472  10.970   0.809  0.6446 -0.1216 -0.5249
13642SOL    HW142933   1.497  10.975   0.901 -0.3263 -0.1334 -0.2530
13642SOL    HW242934   1.390  10.921   0.809  0.5020  0.1076 -1.3666
13643SOL     OW42935   6.828   1.689   8.321 -0.1574 -0.5413 -0.3808
13643SOL    HW142936   6.886   1.763   8.337  1.9493 -2.3318  0.8961
13643SOL    HW242937   6.845   1.629   8.394 -0.1070 -3.2406 -2.4584
13644SOL     OW42938   9.955   3.231   1.221 -0.5545 -0.3211 -1.2520
13644SOL    HW142939  10.046   3.202   1.212 -0.9554 -2.3112  0.3459
13644SOL    HW242940   9.946   3.301   1.157  2.0640 -0.1393 -1.5357
13645SOL     OW42941   5.261   7.830   1.622 -0.3923 -0.2278 -0.2012
13645SOL    HW142942   5.285   7.853   1.532 -2.1148  0.2281 -0.5787
13645SOL    HW242943   5.205   7.753   1.613 -0.3967 -0.3160  0.5157
13646SOL     OW42944   7.033   4.857   1.095  0.1109  0.1933  0.2291
13646SOL    HW142945   7.114   4.816   1.063 -0.3009  0.6907 -1.5072
13646SOL    HW242946   7.057   4.948   1.111 -0.5355  0.8493 -2.2053
13647SOL     OW42947   3.571   1.778   9.694  0.3009  0.6664  0.0883
13647SOL    HW142948   3.629   1.722   9.642 -0.3354  1.3486 -1.3926
13647SOL    HW242949   3.493   1.725   9.708 -0.3283  1.1777 -1.3694
13648SOL     OW42950   4.933   2.016   4.232 -0.4406  0.7031  0.5290
13648SOL    HW142951   4.860   2.077   4.234 -0.8528  0.2217  0.3967
13648SOL    HW242952   4.984   2.036   4.310 -0.6342  1.1398  0.5424
13649SOL     OW42953   1.776   8.473   1.532  0.3076  0.4429  0.3104
13649SOL    HW142954   1.817   8.549   1.573  0.3981  0.9431 -0.6865
13649SOL    HW242955   1.830   8.399   1.559  0.1293  0.6962  1.4243
13650SOL     OW42956   3.204   8.792   1.094  0.1254  0.2590 -0.4020
13650SOL    HW142957   3.220   8.752   1.009 -1.6656  0.0620 -0.6986
13650SOL    HW242958   3.245   8.733   1.157  0.0585 -0.4723 -1.0316
13651SOL     OW42959   2.983   0.309   9.593 -0.5200 -0.9785  0.0652
13651SOL    HW142960   2.981   0.383   9.653  0.3839 -1.9803  1.3943
13651SOL    HW242961   2.959   0.234   9.647 -2.6551 -1.5310 -1.5352
13652SOL     OW42962   8.358   7.239   5.514  0.1065  0.5636 -0.2644
13652SOL    HW142963   8.411   7.307   5.471 -1.1673  1.4651 -0.4528
13652SOL    HW242964   8.343   7.272   5.602  1.2510 -0.4861  0.3547
13653SOL     OW42965   0.333   6.081   1.001 -0.5484 -0.2829 -0.0849
13653SOL    HW142966   0.298   6.075   1.090  0.1922  0.4984  0.2729
13653SOL    HW242967   0.427   6.095   1.013 -0.5815  0.8128 -0.9799
13654SOL     OW42968   1.410   9.564   2.728 -0.0161 -0.1271  0.0259
13654SOL    HW142969   1.409   9.564   2.632  0.8119  1.1815 -0.0086
13654SOL    HW242970   1.418   9.656   2.752  4.2032 -0.5775  1.2195
13655SOL     OW42971   7.395  10.917   9.953  0.7201  0.2652 -0.1258
13655SOL    HW142972   7.456  10.860   9.906  1.0522  1.5342 -1.2556
13655SOL    HW242973   7.314  10.914   9.902  0.9855  1.4076 -0.6321
13656SOL     OW42974   6.511  10.264   1.432 -0.2080 -0.8687  0.6497
13656SOL    HW142975   6.605  10.273   1.449 -0.3759 -0.6594  1.5012
13656SOL    HW242976   6.473  10.240   1.517 -0.8896 -1.2321  0.2494
13657SOL     OW42977   1.541   6.723   3.861 -0.7137 -0.2876 -0.0039
13657SOL    HW142978   1.575   6.806   3.827 -1.3698  0.7022  1.6260
13657SOL    HW242979   1.616   6.684   3.906 -0.4375 -0.5390 -0.6648
13658SOL     OW42980  10.403   0.406   3.219 -0.5155 -0.7317 -0.4436
13658SOL    HW142981  10.410   0.490   3.173 -0.2457 -0.1655  0.6080
13658SOL    HW242982  10.310   0.399   3.242 -0.9863 -1.7831 -2.4353
13659SOL     OW42983  10.352   0.470   0.192 -0.5247  0.0553 -0.2104
13659SOL    HW142984  10.373   0.560   0.217  0.6176  0.3793 -2.1302
13659SOL    HW242985  10.350   0.471   0.097  1.0851 -2.2484 -0.3504
13660SOL     OW42986   2.862   7.410   0.181 -0.1820 -0.3064  0.5394
13660SOL    HW142987   2.783   7.463   0.173  0.2364  0.0299 -2.3461
13660SOL    HW242988   2.928   7.470   0.216 -0.3774  0.3442 -0.1926
13661SOL     OW42989   5.951   8.592   0.818 -0.8618 -0.3120  0.0082
13661SOL    HW142990   5.960   8.515   0.763 -0.8850 -0.3208  0.0167
13661SOL    HW242991   5.987   8.565   0.903 -1.4478 -0.5095  0.1958
13662SOL     OW42992   5.638   8.144   8.936 -0.2938 -0.2188 -0.5395
13662SOL    HW142993   5.654   8.234   8.907 -0.9857  0.2617  0.5135
13662SOL    HW242994   5.621   8.152   9.030  0.4934 -1.5599 -0.2554
13663SOL     OW42995   2.715  10.701   0.093 -0.0870 -0.0911 -0.1244
13663SOL    HW142996   2.728  10.749   0.010 -1.1581  0.9745  0.2971
13663SOL    HW242997   2.628  10.663   0.085 -0.8633  1.3298  1.1134
13664SOL     OW42998   3.136   9.266   1.201 -0.2145 -0.2436  0.0457
13664SOL    HW142999   3.123   9.354   1.168 -0.8882 -1.0529 -1.9989
13664SOL    HW243000   3.206   9.274   1.266  0.8535  1.5323 -1.2615
13665SOL     OW43001   2.657   0.262   6.903  0.2512  0.2176 -0.6687
13665SOL    HW143002   2.741   0.276   6.861 -0.4110 -1.0303 -2.5581
13665SOL    HW243003   2.600   0.329   6.866  0.5663  1.6113  1.2452
13666SOL     OW43004   3.664   0.745   0.188 -0.0817  0.0260 -0.3055
13666SOL    HW143005   3.653   0.657   0.152 -1.8548  0.3714 -0.7116
13666SOL    HW243006   3.743   0.740   0.241  0.2473 -1.6189 -0.9074
13667SOL     OW43007   3.706   3.281   1.940 -0.1206  0.0642  0.2931
13667SOL    HW143008   3.617   3.288   1.907 -0.7297  0.3353  1.8876
13667SOL    HW243009   3.741   3.202   1.898 -1.0150  0.0888 -0.5253
13668SOL     OW43010  10.682   9.576   7.444  0.3177  0.0997 -0.0379
13668SOL    HW143011  10.710   9.568   7.352  0.5255 -2.6862  0.1864
13668SOL    HW243012  10.678   9.671   7.459  1.1885  0.6470 -2.6312
13669SOL     OW43013   2.809   3.500  10.111  0.4336  0.2423 -0.3910
13669SOL    HW143014   2.752   3.553  10.166  0.7740  0.4583 -0.2413
13669SOL    HW243015   2.776   3.410  10.121  0.9702  0.1574  0.7895
13670SOL     OW43016   2.368   3.135   1.638  0.6817 -1.1493  0.3381
13670SOL    HW143017   2.445   3.124   1.582 -0.5082  0.1976 -1.7136
13670SOL    HW243018   2.351   3.230   1.636 -0.9592 -1.4066  0.8216
13671SOL     OW43019   8.083   4.832   9.505  0.1947 -0.7853 -0.1829
13671SOL    HW143020   8.016   4.792   9.560  0.2949  0.6248  1.0361
13671SOL    HW243021   8.158   4.843   9.564  0.9251 -0.8174 -1.0830
13672SOL     OW43022   2.657   2.944   0.581  0.3121 -0.0742 -0.2054
13672SOL    HW143023   2.633   3.028   0.542  0.8864 -0.0521 -0.5197
13672SOL    HW243024   2.751   2.938   0.569  0.4095 -0.3501  0.6452
13673SOL     OW43025  10.702   9.823   6.874  0.0097 -0.3824 -0.2707
13673SOL    HW143026  10.722   9.828   6.781  1.9109  1.1736  0.1610
13673SOL    HW243027  10.633   9.888   6.888 -0.4223 -0.7618 -0.6043
13674SOL     OW43028   2.462   7.828   9.322  0.5522  0.2892 -0.4240
13674SOL    HW143029   2.368   7.812   9.308  1.0619 -2.0950 -1.9253
13674SOL    HW243030   2.466   7.887   9.396 -2.1895  2.1654 -1.5919
13675SOL     OW43031   2.124   2.023  10.155  0.4961 -0.0636  0.4228
13675SOL    HW143032   2.160   1.990  10.237  1.3690  3.1288  1.4722
13675SOL    HW243033   2.151   2.115  10.153 -3.6256  1.3085 -1.0444
13676SOL     OW43034   5.412   7.456   2.325  0.6330 -0.4153 -0.4376
13676SOL    HW143035   5.432   7.472   2.417  0.7362 -0.1154 -0.5123
13676SOL    HW243036   5.492   7.417   2.290  1.0923  0.7599 -0.7303
13677SOL     OW43037   2.012   0.207   9.352  0.0370  0.4141 -0.0617
13677SOL    HW143038   1.923   0.185   9.379 -1.0364  2.0779 -2.0130
13677SOL    HW243039   2.033   0.288   9.399  0.5131  0.0692  0.3348
13678SOL     OW43040   0.485   3.676   1.896  0.2093 -0.3433 -0.3696
13678SOL    HW143041   0.448   3.746   1.951  0.3450 -0.2923 -0.3437
13678SOL    HW243042   0.491   3.601   1.955 -1.2238 -0.7833 -0.7458
13679SOL     OW43043   1.154   2.330   4.167 -0.1718  0.3279  0.6855
13679SOL    HW143044   1.063   2.321   4.197 -0.1753  4.0717  2.2972
13679SOL    HW243045   1.204   2.343   4.247  1.5717 -0.0185 -0.3085
13680SOL     OW43046   3.071   0.815   9.432  0.1143  0.0483  0.4112
13680SOL    HW143047   3.142   0.870   9.400 -0.2593 -0.4957 -1.4599
13680SOL    HW243048   3.110   0.764   9.504  0.7065  2.0280  1.5801
13681SOL     OW43049   2.944   6.084   7.787  0.6288 -0.0198 -0.1603
13681SOL    HW143050   3.015   6.125   7.836 -0.5607  1.7196  0.1977
13681SOL    HW243051   2.896   6.033   7.852  0.6189  0.1172 -0.0596
13682SOL     OW43052   2.565   5.081   0.284  0.3273 -0.7116 -0.0731
13682SOL    HW143053   2.635   5.019   0.266 -0.3470 -1.3328 -0.6257
13682SOL    HW243054   2.486   5.026   0.289 -0.2664  0.0932 -0.5025
13683SOL     OW43055   6.177   4.549   2.585  0.1130 -0.0899 -0.1163
13683SOL    HW143056   6.146   4.610   2.652  0.1986 -1.5350  1.3113
13683SOL    HW243057   6.158   4.462   2.622  0.2135 -0.9395 -1.9592
13684SOL     OW43058   9.602   4.312   9.259  0.2872  0.9715  0.3290
13684SOL    HW143059   9.596   4.399   9.299 -1.4280 -0.0121  2.4237
13684SOL    HW243060   9.511   4.288   9.240  0.8419  0.1346 -1.4341
13685SOL     OW43061  10.246   9.673   8.435  0.6519  0.2992  0.3282
13685SOL    HW143062  10.273   9.667   8.527  0.6566  0.2079  0.3205
13685SOL    HW243063  10.187   9.749   8.433  0.0513 -0.1475  0.5563
13686SOL     OW43064   5.609   9.615   1.875  0.4311  0.1852  0.3243
13686SOL    HW143065   5.566   9.563   1.807  0.1621  0.6549  0.1225
13686SOL    HW243066   5.689   9.648   1.833 -0.4481  1.6704 -0.2764
13687SOL     OW43067  10.306   2.677   3.319  0.1558 -0.5176  0.0613
13687SOL    HW143068  10.233   2.616   3.314  1.0384 -1.8243  2.0129
13687SOL    HW243069  10.267   2.762   3.299 -1.7295 -1.2842  0.2481
13688SOL     OW43070   5.477   7.026   0.621  0.0858 -0.1948 -0.1649
13688SOL    HW143071   5.544   7.028   0.689  0.0541  0.4529 -0.1500
13688SOL    HW243072   5.415   7.095   0.646 -1.3430 -1.6539  0.5924
13689SOL     OW43073   9.525   5.902   5.418 -0.1301  0.3047 -0.0664
13689SOL    HW143074   9.554   5.839   5.352 -0.6227 -1.5082  1.3639
13689SOL    HW243075   9.432   5.886   5.427 -0.0848  0.5945  0.9979
13690SOL     OW43076  10.281   9.588   3.247  0.0790 -0.5799  0.1775
13690SOL    HW143077  10.307   9.676   3.273  2.2781 -0.8039 -1.0292
13690SOL    HW243078  10.249   9.598   3.157  0.7392 -1.0564 -0.1189
13691SOL     OW43079   8.730   5.323   4.811  0.7868 -0.6731 -0.1603
13691SOL    HW143080   8.719   5.269   4.733  0.8354 -1.2502  0.2242
13691SOL    HW243081   8.793   5.275   4.864 -0.7487 -1.3463  1.1546
13692SOL     OW43082   7.986   9.439   8.482 -0.3535  0.2465 -0.5985
13692SOL    HW143083   8.020   9.511   8.429  0.1953 -0.9981 -2.0068
13692SOL    HW243084   8.009   9.462   8.572  1.0755  1.1380 -1.1634
13693SOL     OW43085   1.654   1.928   3.802 -0.2067  0.2354  0.2504
13693SOL    HW143086   1.719   1.885   3.857  1.1661 -0.9142 -2.1427
13693SOL    HW243087   1.586   1.862   3.789 -0.2295  0.2969  0.0639
13694SOL     OW43088   1.297   8.909  10.660  0.3196 -0.2819 -0.1683
13694SOL    HW143089   1.317   8.816  10.672 -1.5170 -0.6684  0.2356
13694SOL    HW243090   1.247   8.933  10.738  1.0748  1.1676 -0.0982
13695SOL     OW43091   5.249   2.739   8.216  0.7023  0.1024  0.3595
13695SOL    HW143092   5.180   2.786   8.168  0.5397  2.2399  2.4742
13695SOL    HW243093   5.201   2.681   8.276  0.8747 -1.2238 -0.7358
13696SOL     OW43094   9.797   4.884   2.404  0.2359  0.1931  0.0256
13696SOL    HW143095   9.730   4.902   2.470 -0.8936 -0.5501 -0.8806
13696SOL    HW243096   9.778   4.944   2.332  2.3458  2.0365  0.8936
13697SOL     OW43097   2.887   5.618   8.049 -0.2303 -0.7168  0.0389
13697SOL    HW143098   2.975   5.601   8.080  0.1879 -0.0112 -0.7280
13697SOL    HW243099   2.836   5.634   8.128  0.3101 -1.1776  0.4869
13698SOL     OW43100   4.209  10.563   0.111 -0.0866  0.2635 -0.1154
13698SOL    HW143101   4.303  10.549   0.101 -0.1634 -1.7373  1.3857
13698SOL    HW243102   4.187  10.626   0.042  1.9795 -0.7550 -1.8288
13699SOL     OW43103   5.519   5.658   2.869 -0.2611 -0.1917 -0.6029
13699SOL    HW143104   5.547   5.748   2.886  1.2152 -0.6962 -0.2214
13699SOL    HW243105   5.543   5.610   2.948  2.5358 -1.6642 -2.1562
13700SOL     OW43106  10.093   8.202   8.864  0.4398 -0.0070  0.1655
13700SOL    HW143107  10.042   8.283   8.856  2.2597  1.2251  0.4280
13700SOL    HW243108  10.149   8.202   8.787  2.9187  0.8576  1.8490
13701SOL     OW43109   7.157   0.080  10.977 -1.0260  0.0049  0.0784
13701SOL    HW143110   7.155   0.005  10.917  3.4395 -0.7709  0.5686
13701SOL    HW243111   7.162   0.042  11.064  3.0544  0.5743  0.2694
13702SOL     OW43112   8.098   8.114   8.442 -0.4283 -0.2933 -0.3147
13702SOL    HW143113   8.125   8.140   8.354 -1.3070 -0.1696 -0.5550
13702SOL    HW243114   8.041   8.184   8.472  0.4923  0.0519  0.6829
13703SOL     OW43115   1.344   4.486   4.907  0.1089 -0.2845  0.0522
13703SOL    HW143116   1.414   4.542   4.873 -1.5085  0.5482 -2.1563
13703SOL    HW243117   1.357   4.402   4.863  0.8459 -0.7885  1.1809
13704SOL     OW43118   5.040   1.843   0.194  0.6478 -0.1863 -0.1316
13704SOL    HW143119   5.134   1.857   0.201  0.6018 -0.1248  0.4540
13704SOL    HW243120   5.010   1.913   0.136  0.8295  0.4130  0.4798
13705SOL     OW43121   7.622   0.685   9.044 -0.4719  0.3948  0.0226
13705SOL    HW143122   7.549   0.746   9.056 -0.4565  0.3773  0.1981
13705SOL    HW243123   7.592   0.604   9.085 -0.3081  0.4211  0.1915
13706SOL     OW43124   1.633   8.967   1.920  0.0488  0.3117  0.4656
13706SOL    HW143125   1.617   8.916   1.841  0.3392  1.4863 -0.3733
13706SOL    HW243126   1.709   8.926   1.960 -0.3165 -0.5091  0.3425
13707SOL     OW43127   8.364   5.986   6.691  0.0867 -0.2279 -0.4105
13707SOL    HW143128   8.458   5.993   6.705  0.3270 -2.6655 -0.3635
13707SOL    HW243129   8.356   5.957   6.600 -0.7397  1.5710 -0.9510
13708SOL     OW43130   6.030   1.877   9.583 -0.0833 -0.1713 -0.0279
13708SOL    HW143131   5.988   1.959   9.555  0.1880 -0.1835 -0.4970
13708SOL    HW243132   5.972   1.808   9.550 -0.4069 -0.1634  0.5297
13709SOL     OW43133  11.055   2.918   9.597  0.3685  0.4716  0.2850
13709SOL    HW143134  10.963   2.943   9.589  0.3817 -0.0188 -3.2637
13709SOL    HW243135  11.055   2.822   9.599  0.7881  0.3735 -1.9401
13710SOL     OW43136   0.082   9.763   5.166 -0.2835 -0.0312  0.4588
13710SOL    HW143137   0.048   9.818   5.236 -1.6954 -0.3105  0.0312
13710SOL    HW243138   0.138   9.821   5.114 -0.7856  0.6725  0.6990
13711SOL     OW43139   0.668  10.741  10.680  0.0191 -0.4224 -0.4424
13711SOL    HW143140   0.657  10.664  10.624  1.7017 -0.6376 -0.5366
13711SOL    HW243141   0.736  10.716  10.743 -1.0347  0.2086  1.0095
13712SOL     OW43142   3.162   0.516   7.866  0.1945 -0.2717  0.4633
13712SOL    HW143143   3.195   0.487   7.951 -0.4781  0.5914  1.0388
13712SOL    HW243144   3.155   0.436   7.814 -2.2780 -1.2936  2.2031
13713SOL     OW43145   0.420   6.991   8.435  0.0145  0.2369  0.4505
13713SOL    HW143146   0.483   7.056   8.403 -0.2338 -0.4494 -1.5587
13713SOL    HW243147   0.457   6.962   8.518  1.6227  0.8672  0.0036
13714SOL     OW43148   5.312  10.235   0.572 -0.0946  0.9523 -0.4840
13714SOL    HW143149   5.264  10.307   0.532  0.6627  2.1586  0.6769
13714SOL    HW243150   5.245  10.182   0.615 -0.6021  1.3172 -0.8195
13715SOL     OW43151   3.372   4.731   2.201  0.0668  0.1455 -0.4484
13715SOL    HW143152   3.295   4.749   2.255 -0.1465 -1.3910 -0.1733
13715SOL    HW243153   3.438   4.794   2.230 -0.9878  1.2700 -0.4671
13716SOL     OW43154   2.068   7.780   1.424  0.0218 -0.6559 -0.0205
13716SOL    HW143155   2.067   7.752   1.333  0.7681 -1.7089  0.2663
13716SOL    HW243156   2.160   7.802   1.442 -0.3232  0.7831  0.1402
13717SOL     OW43157   4.921   1.676   0.930  0.0922 -0.3469 -0.1311
13717SOL    HW143158   4.866   1.598   0.940  1.8867 -1.6025  0.6828
13717SOL    HW243159   5.005   1.650   0.968  1.2259  1.4900 -1.2383
13718SOL     OW43160   7.578   0.011   2.275  0.5349  0.0214 -0.1343
13718SOL    HW143161   7.573   0.099   2.312  1.7274  0.3292 -0.6586
13718SOL    HW243162   7.491  -0.004   2.236  0.3997  1.0639 -0.2539
13719SOL     OW43163  10.424   7.200   9.402 -0.1265  0.0823  0.2801
13719SOL    HW143164  10.501   7.177   9.351 -0.4215 -1.4713  0.4915
13719SOL    HW243165  10.351   7.160   9.354 -0.5265 -0.4695  1.3117
13720SOL     OW43166   9.905   4.599   5.340 -0.1541 -0.3131 -0.2370
13720SOL    HW143167   9.840   4.669   5.345 -2.4624 -2.3358  0.3931
13720SOL    HW243168   9.987   4.640   5.365 -1.6501  1.8660  1.5076
13721SOL     OW43169   4.497   9.526   0.200  0.2710 -0.5488 -0.0854
13721SOL    HW143170   4.412   9.510   0.241 -0.3387 -1.6920 -1.7126
13721SOL    HW243171   4.544   9.443   0.210  1.1313  0.0032  0.6004
13722SOL     OW43172   3.961   7.381   6.071  0.5688 -0.0653 -0.3141
13722SOL    HW143173   4.033   7.359   6.131  0.5688 -1.0221 -0.6442
13722SOL    HW243174   3.885   7.391   6.127  0.7684  0.0116 -0.0554
13723SOL     OW43175   3.855   9.172  10.335 -0.3377  0.2709  0.0176
13723SOL    HW143176   3.766   9.179  10.300 -0.2620  1.5229  0.0446
13723SOL    HW243177   3.907   9.135  10.263 -0.6862  0.4485 -0.3256
13724SOL     OW43178   0.399   9.523  10.908  0.0462  0.3291  0.5924
13724SOL    HW143179   0.344   9.444  10.906 -1.4457  1.3314 -0.0813
13724SOL    HW243180   0.444   9.523  10.824  0.8588 -0.3359  1.0188
13725SOL     OW43181   2.123   9.743   6.983  0.0125 -0.0598 -0.3819
13725SOL    HW143182   2.171   9.682   7.040  0.4345 -0.4060 -1.0863
13725SOL    HW243183   2.190   9.799   6.946 -0.2697  0.2252 -0.4647
13726SOL     OW43184   6.443   1.345   9.012  0.3545  0.0101  0.2516
13726SOL    HW143185   6.533   1.313   9.016  1.4494  2.7982  0.6215
13726SOL    HW243186   6.444   1.410   8.942 -1.2953  0.3695  0.5136
13727SOL     OW43187   4.647   9.139   7.550 -0.2331  0.2820  0.1032
13727SOL    HW143188   4.622   9.069   7.490  0.5341  0.8990 -0.9595
13727SOL    HW243189   4.732   9.112   7.584 -0.0532  0.5831 -0.1100
13728SOL     OW43190   2.120  10.037   1.972 -0.1146 -0.1427  0.4411
13728SOL    HW143191   2.138  10.052   1.879 -0.3138  0.5526  0.5131
13728SOL    HW243192   2.190  10.082   2.018 -0.7730  0.6686  0.6593
13729SOL     OW43193  10.456   3.596   1.353  0.1306 -0.0416 -0.1436
13729SOL    HW143194  10.490   3.679   1.319  1.9694 -1.2262 -1.3469
13729SOL    HW243195  10.379   3.578   1.299  1.4772 -0.5683 -1.9795
13730SOL     OW43196   2.897   0.984   0.031 -0.6589  0.4699  0.2720
13730SOL    HW143197   2.940   0.985   0.117  1.0187  2.9723 -0.4654
13730SOL    HW243198   2.805   1.004   0.050 -0.3210  0.9677  1.5122
13731SOL     OW43199   6.042   4.988   4.046  0.2018  0.1500  1.0138
13731SOL    HW143200   6.110   4.979   3.980 -0.3107  0.0431  0.4896
13731SOL    HW243201   5.971   5.035   4.001  0.5729  1.7516  2.0270
13732SOL     OW43202   2.565   7.593   3.251  0.4348  0.2460 -0.6024
13732SOL    HW143203   2.643   7.548   3.285 -0.7484 -0.5013  1.2625
13732SOL    HW243204   2.561   7.675   3.299  0.9562  1.0719 -1.9063
13733SOL     OW43205   4.516   8.693   7.597 -0.4293 -0.3278 -0.1531
13733SOL    HW143206   4.438   8.696   7.651  0.0846 -1.4577  0.6831
13733SOL    HW243207   4.564   8.616   7.627  0.1988 -0.6073 -1.7707
13734SOL     OW43208   1.920   6.360   4.148 -0.0533 -0.3007  0.1871
13734SOL    HW143209   1.996   6.302   4.141  0.3984  0.1747  0.9828
13734SOL    HW243210   1.955   6.447   4.131 -0.4313 -0.0855  0.5101
13735SOL     OW43211   0.755   0.199   8.953 -1.0259 -0.4418 -0.0187
13735SOL    HW143212   0.668   0.208   8.913 -0.5750  2.2822 -0.5615
13735SOL    HW243213   0.787   0.288   8.962  2.3912 -1.3848 -1.2971
13736SOL     OW43214   3.294  10.611   0.874  0.2723  0.3683 -0.1349
13736SOL    HW143215   3.328  10.649   0.955 -0.3594 -0.9866  0.8023
13736SOL    HW243216   3.345  10.652   0.805  1.4234  0.9194  1.0082
13737SOL     OW43217   0.180   8.636   0.306  0.3299  0.6948 -0.3050
13737SOL    HW143218   0.274   8.653   0.319  0.2997  0.5263  0.1431
13737SOL    HW243219   0.174   8.542   0.291  0.1243  0.5228  0.7626
13738SOL     OW43220   4.854   4.979  10.835  0.6735  0.3991 -0.2107
13738SOL    HW143221   4.839   4.919  10.762 -1.0885 -1.8904  1.8502
13738SOL    HW243222   4.772   5.028  10.843  0.1347 -0.6685  1.2645
13739SOL     OW43223   4.809   8.090   0.901 -0.2461  0.5396  0.6222
13739SOL    HW143224   4.729   8.062   0.856 -0.8980  1.0277  1.4500
13739SOL    HW243225   4.798   8.060   0.991  0.8517 -0.0389  0.5828
13740SOL     OW43226   3.502   3.787  10.925  0.0967  0.2249 -0.0679
13740SOL    HW143227   3.422   3.783  10.977  0.4898  0.2505  0.5413
13740SOL    HW243228   3.573   3.789  10.989  0.5904  0.1667 -0.6035
13741SOL     OW43229   2.507   0.514   2.829 -0.2737 -0.1335 -0.2091
13741SOL    HW143230   2.530   0.432   2.873 -0.7180  0.5381  1.3126
13741SOL    HW243231   2.457   0.486   2.752 -1.2149 -1.2670  0.7788
13742SOL     OW43232   2.454   8.844  10.889 -0.0599  0.0144 -0.3795
13742SOL    HW143233   2.403   8.902  10.832  0.6866  0.8949 -0.1711
13742SOL    HW243234   2.535   8.892  10.906  0.4760 -0.9936 -0.0019
13743SOL     OW43235   1.581   2.773   8.902 -0.3936  0.3756  0.0404
13743SOL    HW143236   1.614   2.729   8.824 -1.5059 -0.9239  0.2610
13743SOL    HW243237   1.611   2.719   8.976  0.4165  1.4376  0.5108
13744SOL     OW43238   9.818   9.020   0.246 -0.2182 -0.6779 -0.0248
13744SOL    HW143239   9.784   8.977   0.167  0.4772 -1.8060  0.2739
13744SOL    HW243240   9.897   9.066   0.216 -0.6060 -0.1213 -0.2129
13745SOL     OW43241   4.580   0.682   7.463  0.6049  0.7214 -0.2732
13745SOL    HW143242   4.637   0.753   7.434  0.5525  0.7250 -0.3655
13745SOL    HW243243   4.553   0.638   7.383 -0.1156  1.1735 -0.2873
13746SOL     OW43244   7.782   0.602   2.274 -0.6550 -0.2229  0.4267
13746SOL    HW143245   7.765   0.695   2.259 -1.3885 -0.4393 -0.1282
13746SOL    HW243246   7.877   0.597   2.285 -0.4262  0.3940 -1.0138
13747SOL     OW43247   7.980   8.871   8.237 -0.2114  0.7130 -0.4598
13747SOL    HW143248   7.958   8.962   8.215 -2.0554  0.6895  1.0318
13747SOL    HW243249   8.055   8.878   8.296 -0.6677  1.3309  0.0693
13748SOL     OW43250   5.769   5.359   2.264  0.3658  0.6305  0.1628
13748SOL    HW143251   5.859   5.393   2.263  0.5740  0.4097  2.8374
13748SOL    HW243252   5.731   5.395   2.344 -1.8970  0.5459 -0.8095
13749SOL     OW43253   5.541   8.379  10.005 -0.1571 -0.4164  0.2497
13749SOL    HW143254   5.538   8.473   9.989  2.0434 -0.1846  0.8267
13749SOL    HW243255   5.466   8.361  10.061 -1.3915  0.7349 -0.9756
13750SOL     OW43256   1.858   7.511   2.626  0.0064  0.2055  0.6785
13750SOL    HW143257   1.865   7.589   2.681  0.4345  0.5996  0.0863
13750SOL    HW243258   1.948   7.482   2.614 -0.0259  0.4352 -0.2292
13751SOL     OW43259   5.069   7.318   3.161 -0.0809 -0.5265 -0.5038
13751SOL    HW143260   4.982   7.295   3.130  0.7564 -0.6485 -2.9804
13751SOL    HW243261   5.060   7.406   3.197 -1.1719 -0.4426 -0.9459
13752SOL     OW43262   8.087   7.745   1.499 -0.2173 -0.2057 -0.3464
13752SOL    HW143263   8.081   7.749   1.404  0.0585  1.0224 -0.3268
13752SOL    HW243264   8.055   7.657   1.522  0.6255 -0.8752 -1.6343
13753SOL     OW43265   3.587   2.790   9.692 -0.2136 -0.6767  0.4129
13753SOL    HW143266   3.617   2.755   9.608  0.5449 -0.5523  0.6305
13753SOL    HW243267   3.522   2.856   9.669 -1.7094 -2.2246 -0.0177
13754SOL     OW43268   4.042   7.364   1.787  0.8385  0.4000 -0.4035
13754SOL    HW143269   4.034   7.270   1.769  1.1062  0.2822  0.0988
13754SOL    HW243270   4.136   7.379   1.797  0.7427  0.5886  0.2375
13755SOL     OW43271   9.676   8.707   7.361 -0.2712 -0.2042 -0.0216
13755SOL    HW143272   9.628   8.635   7.320 -1.1034  0.0502  0.4913
13755SOL    HW243273   9.608   8.770   7.387  0.2208 -0.3307  1.6832
13756SOL     OW43274   3.099  10.130   0.901  0.7003  0.0714  0.3470
13756SOL    HW143275   3.033  10.081   0.851  1.0967  0.4688 -0.5907
13756SOL    HW243276   3.119  10.206   0.847  1.7236  0.1065  0.7435
13757SOL     OW43277   8.546   7.514   3.466 -0.2106 -0.3966 -0.2178
13757SOL    HW143278   8.500   7.572   3.406 -1.0724 -0.9262 -0.0807
13757SOL    HW243279   8.577   7.571   3.536  1.6103  0.3857 -1.5880
13758SOL     OW43280   9.179   7.550   9.060  0.0696 -0.4563 -0.5176
13758SOL    HW143281   9.221   7.464   9.059 -1.2752 -1.1451  0.0407
13758SOL    HW243282   9.142   7.558   9.148  0.5957  0.9265 -0.3897
13759SOL     OW43283   7.740  10.407   1.470 -0.0271  0.5306  0.4179
13759SOL    HW143284   7.774  10.389   1.383  0.0210 -0.0471  0.5520
13759SOL    HW243285   7.816  10.441   1.518 -0.5011  2.8433 -0.3129
13760SOL     OW43286   4.291   1.738   0.903 -0.2712 -0.4700  0.4802
13760SOL    HW143287   4.208   1.756   0.948 -1.2783 -1.7760 -0.7603
13760SOL    HW243288   4.350   1.711   0.973 -0.8883  0.4464  1.3873
13761SOL     OW43289   1.618   8.384   7.385 -0.2234  0.0721  0.1710
13761SOL    HW143290   1.622   8.399   7.480 -1.1564  0.0207  0.2309
13761SOL    HW243291   1.582   8.465   7.349  0.2822  0.1508 -0.1576
13762SOL     OW43292  10.056   0.066   1.760 -0.2779 -0.0226  0.2076
13762SOL    HW143293  10.062  -0.030   1.755  0.8563  0.0596 -3.2646
13762SOL    HW243294  10.135   0.093   1.808  1.5143 -0.8184 -2.0675
13763SOL     OW43295   8.648   5.851   1.712 -0.6986  0.1116 -0.0230
13763SOL    HW143296   8.678   5.898   1.790  0.3196 -1.6187  0.6969
13763SOL    HW243297   8.562   5.818   1.735  0.2028 -1.6804  1.0299
13764SOL     OW43298   4.780   1.436   9.516  0.4122 -0.5762  1.1328
13764SOL    HW143299   4.757   1.346   9.494 -1.0060  0.1143 -0.4850
13764SOL    HW243300   4.695   1.481   9.524  1.1061  0.8143  0.9808
13765SOL     OW43301   1.788   8.030   2.481 -0.2411  0.5471  0.9889
13765SOL    HW143302   1.878   8.038   2.450 -0.0433  1.1320  1.6860
13765SOL    HW243303   1.741   8.101   2.437 -0.4984 -0.1077  0.1839
13766SOL     OW43304   0.377   0.828   4.911 -0.0684 -0.1081  0.0961
13766SOL    HW143305   0.380   0.843   4.816  0.7064 -0.3225  0.0810
13766SOL    HW243306   0.354   0.735   4.920 -1.2463  0.1751  0.1417
13767SOL     OW43307   7.107   9.184  10.534 -0.3964 -0.2042  0.1332
13767SOL    HW143308   7.127   9.106  10.585  0.8622 -0.5311 -0.8033
13767SOL    HW243309   7.186   9.238  10.541 -0.6456  0.2630 -0.5190
13768SOL     OW43310   2.597   0.673   6.543  0.1091  0.1098  0.1481
13768SOL    HW143311   2.662   0.734   6.578  0.9577  0.1247 -1.3475
13768SOL    HW243312   2.523   0.729   6.518  0.5203  0.4297 -0.3862
13769SOL     OW43313   6.866   0.630  10.147  0.9161 -0.1013 -0.1958
13769SOL    HW143314   6.932   0.692  10.177  2.4317 -1.6014 -0.2452
13769SOL    HW243315   6.916   0.564  10.098 -0.9129 -0.1189 -2.1985
13770SOL     OW43316   0.798   5.567   7.206 -0.0069 -0.2892  0.3868
13770SOL    HW143317   0.711   5.595   7.234 -0.3048 -0.9929  0.1652
13770SOL    HW243318   0.854   5.583   7.283 -0.6823 -1.5702  1.1728
13771SOL     OW43319   1.143   5.854   3.639 -0.0511  0.1058  0.4410
13771SOL    HW143320   1.223   5.905   3.646 -0.8656  1.3158  1.2701
13771SOL    HW243321   1.080   5.913   3.598 -1.3939  0.2791  2.5989
13772SOL     OW43322   6.766   1.526   2.866 -0.4251 -0.6406  0.3588
13772SOL    HW143323   6.741   1.608   2.909 -1.3801 -0.6334 -0.1871
13772SOL    HW243324   6.781   1.551   2.775  1.2542 -0.7143  0.5903
13773SOL     OW43325   3.402   6.751   4.142 -0.1621 -0.4170  0.2492
13773SOL    HW143326   3.494   6.735   4.119  0.4313  0.9061  1.5209
13773SOL    HW243327   3.389   6.845   4.124 -1.1390 -0.5006  0.4780
13774SOL     OW43328   2.390   9.382   4.302  0.0687  0.6298  0.5915
13774SOL    HW143329   2.374   9.395   4.396  0.3862  1.2999  0.5544
13774SOL    HW243330   2.482   9.359   4.297 -0.4127 -1.5734  0.6394
13775SOL     OW43331   3.003   3.490   8.393  0.0209 -0.0499 -0.5733
13775SOL    HW143332   2.973   3.515   8.305 -0.2173 -0.7293 -0.6870
13775SOL    HW243333   2.965   3.404   8.408 -0.3847  0.2952  0.4280
13776SOL     OW43334   6.856   0.335   9.619 -0.0714  0.5267 -0.1200
13776SOL    HW143335   6.804   0.267   9.577  0.0939 -0.7914  1.6547
13776SOL    HW243336   6.792   0.386   9.670  0.1693 -0.4364  1.2149
13777SOL     OW43337   4.890   3.609   6.008  0.3456  0.4033  0.1891
13777SOL    HW143338   4.855   3.682   5.957  1.2889  0.8918  0.2128
13777SOL    HW243339   4.983   3.607   5.986 -0.0390 -2.3686 -1.7364
13778SOL     OW43340   8.767   0.583   8.934 -0.5719 -0.0703 -0.0799
13778SOL    HW143341   8.767   0.519   8.862  0.2833  0.2866 -0.4102
13778SOL    HW243342   8.813   0.538   9.005  1.2339  0.6177 -0.7509
13779SOL     OW43343  10.351   7.855   1.997  0.2171  0.3928  0.2877
13779SOL    HW143344  10.364   7.780   2.056  2.0056 -0.6927 -1.3792
13779SOL    HW243345  10.423   7.914   2.018 -0.7143  1.3046  1.0165
13780SOL     OW43346   3.259   0.763   4.855 -0.2756  0.2403  0.7173
13780SOL    HW143347   3.223   0.674   4.858  0.6565 -0.2249 -0.9310
13780SOL    HW243348   3.349   0.753   4.885  0.3493  0.3129 -1.0577
13781SOL     OW43349   5.285   7.120   2.328  0.0634 -0.0038  0.4124
13781SOL    HW143350   5.377   7.101   2.311  0.8788  0.5313  3.6700
13781SOL    HW243351   5.241   7.099   2.245  2.8519 -1.7992 -0.7687
13782SOL     OW43352   3.287   7.262   9.849 -0.2361 -0.4760  0.0144
13782SOL    HW143353   3.374   7.288   9.817 -0.5227  2.3826  1.2265
13782SOL    HW243354   3.295   7.168   9.866  2.2665 -0.5217 -0.9425
13783SOL     OW43355  10.494   1.727   9.678  0.3630 -0.1595 -0.0963
13783SOL    HW143356  10.485   1.806   9.624 -1.4600  2.0955  3.1369
13783SOL    HW243357  10.564   1.749   9.740  1.0191 -1.8366 -0.1934
13784SOL     OW43358   8.048   8.474   9.999 -0.3888 -0.0766  0.0415
13784SOL    HW143359   7.955   8.478   9.975 -0.0536  0.1694 -1.2773
13784SOL    HW243360   8.067   8.381  10.006 -0.4866 -0.1637 -0.7429
13785SOL     OW43361   1.781   3.959   1.224 -0.5434 -0.7452  0.0277
13785SOL    HW143362   1.686   3.948   1.232 -0.9664  1.3525 -1.3668
13785SOL    HW243363   1.799   3.948   1.131  0.7435 -1.8712  0.3695
13786SOL     OW43364   4.077   0.053   7.222 -0.3176 -0.2401 -0.1430
13786SOL    HW143365   4.159   0.031   7.266  0.3399  1.4885 -0.4488
13786SOL    HW243366   4.056   0.141   7.252 -1.3249 -0.1088 -1.1500
13787SOL     OW43367   5.099   0.286   4.418  0.2292  0.0488 -0.5250
13787SOL    HW143368   5.046   0.255   4.344 -0.4451 -3.1012  1.1014
13787SOL    HW243369   5.036   0.301   4.488  1.1472 -0.2520  0.3909
13788SOL     OW43370   1.009   5.693   8.193 -0.1117  0.0763 -0.0404
13788SOL    HW143371   0.938   5.740   8.150  1.1702  1.6726 -0.5106
13788SOL    HW243372   1.085   5.750   8.183  0.9895 -1.0569  1.4418
13789SOL     OW43373   4.039   1.189   1.551 -0.3358  0.2542 -0.5225
13789SOL    HW143374   4.111   1.244   1.584  0.1106 -0.9690  0.6139
13789SOL    HW243375   4.060   1.177   1.458 -0.1934  1.5844 -0.6909
13790SOL     OW43376   5.056   3.025  11.038 -0.2178 -0.2337 -0.0700
13790SOL    HW143377   5.008   3.075  10.972 -0.8980 -1.5947 -0.6511
13790SOL    HW243378   5.148   3.044  11.021 -0.3941 -0.3772 -1.2712
13791SOL     OW43379   4.032   1.259   3.498 -0.7594 -0.2711 -0.1584
13791SOL    HW143380   4.125   1.250   3.519 -1.1628 -0.1722  1.7969
13791SOL    HW243381   4.009   1.177   3.454  0.0331 -0.6684  0.1527
13792SOL     OW43382  10.252   4.214   8.670  0.3951  0.0404 -0.0189
13792SOL    HW143383  10.244   4.210   8.575 -1.1206 -0.3129  0.0897
13792SOL    HW243384  10.198   4.289   8.695  0.0575 -0.4114  0.6274
13793SOL     OW43385   6.244   7.879   9.018 -0.7667 -0.4406  0.1347
13793SOL    HW143386   6.220   7.813   8.953  1.0653 -1.7638  0.6965
13793SOL    HW243387   6.240   7.832   9.102 -0.7840  0.5673  0.7117
13794SOL     OW43388   1.428   9.963  10.250  0.3242 -0.2340  0.3703
13794SOL    HW143389   1.462   9.874  10.243 -0.0947 -0.2702 -2.0120
13794SOL    HW243390   1.471  10.011  10.179  0.0717  1.3246  1.2193
13795SOL     OW43391   0.413   7.333   8.679  0.0327 -0.0935 -0.0313
13795SOL    HW143392   0.496   7.320   8.726  0.2123 -0.4971 -0.4462
13795SOL    HW243393   0.424   7.418   8.635 -0.1269  0.2730  0.6252
13796SOL     OW43394   4.541   5.725   5.099 -0.1846  0.1947 -0.0760
13796SOL    HW143395   4.567   5.646   5.051  1.8726  0.5688  0.3385
13796SOL    HW243396   4.561   5.797   5.040  2.3372  0.6588  1.2288
13797SOL     OW43397   6.597   2.310   1.468  0.4179  0.0769  0.2519
13797SOL    HW143398   6.643   2.345   1.544  0.3112 -0.5170  0.6008
13797SOL    HW243399   6.512   2.282   1.503  0.8527 -1.3916  0.1893
13798SOL     OW43400   0.395   4.563   3.440  0.4770  0.4410 -0.0839
13798SOL    HW143401   0.305   4.571   3.409 -0.0686  1.4949  1.6428
13798SOL    HW243402   0.406   4.635   3.501  1.8930 -0.7706  1.1749
13799SOL     OW43403   4.697   5.574   9.234  0.1966  0.0074  0.1957
13799SOL    HW143404   4.635   5.640   9.203  0.9592  0.5670 -0.1729
13799SOL    HW243405   4.643   5.512   9.283 -0.6945  0.3301 -0.3430
13800SOL     OW43406   3.358   6.023   0.881  0.1678 -0.0931 -0.2484
13800SOL    HW143407   3.286   6.002   0.940 -0.3858  1.8481 -0.1930
13800SOL    HW243408   3.398   5.938   0.862 -1.0559 -1.0136  1.0786
13801SOL     OW43409   2.703   8.142   6.449  0.3399  0.0354  0.1260
13801SOL    HW143410   2.759   8.189   6.387  0.2978  0.1424  0.1689
13801SOL    HW243411   2.655   8.211   6.496 -1.4112 -0.0921 -1.3699
13802SOL     OW43412   7.467  10.581   3.299  0.4597 -0.1432  0.3323
13802SOL    HW143413   7.543  10.587   3.356 -0.5275 -2.2570  2.0341
13802SOL    HW243414   7.494  10.519   3.230  0.3746 -0.7532  0.8345
13803SOL     OW43415   2.042   3.100   1.401  0.3011 -0.0448 -0.3774
13803SOL    HW143416   2.110   3.034   1.405 -0.0687 -0.3719  1.0223
13803SOL    HW243417   1.969   3.063   1.451 -0.7741  0.4486 -1.5331
13804SOL     OW43418   5.836   5.300   3.588 -0.4017  0.2375 -0.0926
13804SOL    HW143419   5.877   5.381   3.558  2.5141 -1.0734 -0.0086
13804SOL    HW243420   5.861   5.292   3.680 -0.4329 -0.8398 -0.1585
13805SOL     OW43421  10.096   9.891   8.374 -0.0696 -0.0684  0.0511
13805SOL    HW143422  10.014   9.877   8.326  0.1285 -0.0671 -0.2933
13805SOL    HW243423  10.099   9.985   8.390 -1.1569 -0.2956  1.9187
13806SOL     OW43424   0.128   6.792   6.947  0.6079  0.4758  0.2454
13806SOL    HW143425   0.207   6.757   6.989  0.9398 -0.2523 -0.9129
13806SOL    HW243426   0.141   6.887   6.947  1.0398  0.4229  0.9028
13807SOL     OW43427   9.079   4.633   8.759 -0.4940 -0.7122 -0.3132
13807SOL    HW143428   9.155   4.614   8.704 -0.0801  0.1488 -0.0643
13807SOL    HW243429   9.117   4.671   8.839 -1.0496 -2.3698  0.7838
13808SOL     OW43430   4.411   2.769   4.025 -0.1525 -0.1507 -0.3131
13808SOL    HW143431   4.451   2.707   3.963  3.4924  0.3152  1.2915
13808SOL    HW243432   4.455   2.852   4.007 -1.8764  0.9573  0.3675
13809SOL     OW43433   0.351   2.479   8.276  0.2534  0.3213  0.3979
13809SOL    HW143434   0.353   2.412   8.208 -0.5264 -0.3530  1.0236
13809SOL    HW243435   0.421   2.540   8.252  1.0937 -0.8008 -0.0799
13810SOL     OW43436   7.795   0.076   6.404 -0.1680 -0.1708  0.3444
13810SOL    HW143437   7.866   0.054   6.343  2.0075  1.7346  1.9684
13810SOL    HW243438   7.829   0.152   6.452 -2.9841  0.2248  1.8789
13811SOL     OW43439   0.489   6.286   2.816 -0.0765 -0.4677 -0.4954
13811SOL    HW143440   0.521   6.341   2.887  0.5671 -1.1481 -0.2423
13811SOL    HW243441   0.439   6.217   2.859 -1.0013 -0.0158 -0.8194
13812SOL     OW43442   7.394   6.380   0.943 -0.3465 -0.1193 -0.4284
13812SOL    HW143443   7.373   6.355   0.853 -2.0693 -0.1366 -0.0708
13812SOL    HW243444   7.390   6.298   0.992 -1.8749  0.1909  0.0415
13813SOL     OW43445   4.014   5.950   9.830  0.2010  0.1519 -0.1700
13813SOL    HW143446   3.962   5.928   9.753  0.7913 -0.5807 -0.3678
13813SOL    HW243447   3.980   6.035   9.858 -1.5040 -0.5550  0.0546
13814SOL     OW43448   0.024   4.458   1.977  0.0850  0.0724 -0.0427
13814SOL    HW143449  -0.032   4.440   2.053 -1.4887  1.5683 -0.7714
13814SOL    HW243450  -0.002   4.392   1.912  0.2823 -0.1974  0.1491
13815SOL     OW43451   7.378   6.829   8.806 -0.2360 -0.2846  0.0419
13815SOL    HW143452   7.433   6.782   8.743  0.0409 -0.4652  0.4156
13815SOL    HW243453   7.395   6.921   8.787 -1.1011 -0.3249 -0.9718
13816SOL     OW43454   4.032  10.505   7.655 -0.3528 -0.7864  0.3862
13816SOL    HW143455   4.044  10.417   7.691  1.4272 -0.2401  1.2152
13816SOL    HW243456   4.083  10.506   7.575  1.2608  0.0574  1.3859
13817SOL     OW43457   1.821   7.949   4.831 -0.7897 -0.3651  0.1126
13817SOL    HW143458   1.828   7.854   4.834  0.3207 -0.2913  0.3693
13817SOL    HW243459   1.727   7.966   4.832 -1.0018 -1.4554  0.1270
13818SOL     OW43460   8.925   7.883   2.141 -0.3785 -0.3424  0.6402
13818SOL    HW143461   8.872   7.950   2.183 -1.3774 -0.2151 -0.7740
13818SOL    HW243462   8.977   7.930   2.075  0.7385 -0.6172  1.2920
13819SOL     OW43463   9.670   8.005   3.986  0.6538  0.2574  0.2273
13819SOL    HW143464   9.668   8.099   4.005 -2.4978  0.6527 -1.3404
13819SOL    HW243465   9.704   8.000   3.896 -1.6288  0.2366 -0.6940
13820SOL     OW43466   0.061   8.322   1.719  0.4561 -0.2787  0.3008
13820SOL    HW143467   0.127   8.325   1.650  1.2703 -0.3775  1.0620
13820SOL    HW243468   0.103   8.363   1.795 -0.0693 -1.0664  1.0361
13821SOL     OW43469   9.007   8.225   1.000  0.0856 -0.3333  0.7765
13821SOL    HW143470   8.999   8.190   0.912 -0.5373  0.1382  0.6351
13821SOL    HW243471   8.945   8.175   1.053  2.2862 -2.4305  1.5695
13822SOL     OW43472   1.578   7.951   4.193 -0.0427 -0.3435  0.1534
13822SOL    HW143473   1.643   7.996   4.139 -0.3327 -1.0585 -0.8260
13822SOL    HW243474   1.610   7.962   4.283  0.9143  0.1364 -0.2286
13823SOL     OW43475   6.536   4.407   8.779  0.0993  0.1559  0.1534
13823SOL    HW143476   6.459   4.460   8.756  0.7980  0.6811 -1.0995
13823SOL    HW243477   6.514   4.319   8.748  0.2151  0.4314 -0.7596
13824SOL     OW43478   2.341  10.763   4.123 -0.2284 -0.0924 -0.1277
13824SOL    HW143479   2.329  10.846   4.078  2.8906 -0.1144 -1.1673
13824SOL    HW243480   2.301  10.698   4.065  1.1294  0.2295 -1.4883
13825SOL     OW43481   8.325   0.529   1.841 -0.3614  0.1117  0.1228
13825SOL    HW143482   8.337   0.524   1.746 -0.6062 -0.8388  0.1244
13825SOL    HW243483   8.235   0.500   1.856 -0.8952  1.8932  0.5319
13826SOL     OW43484   0.231   8.119   9.478 -0.2029  0.1041  0.1790
13826SOL    HW143485   0.249   8.207   9.446 -0.6571  0.0067 -0.3642
13826SOL    HW243486   0.136   8.109   9.471 -0.2727 -0.0716  1.1875
13827SOL     OW43487   8.807   8.071   2.296  0.1447 -0.0062  0.4597
13827SOL    HW143488   8.838   8.155   2.261  1.9107 -1.0552 -0.6109
13827SOL    HW243489   8.718   8.063   2.261  0.3080  0.9824 -0.2430
13828SOL     OW43490  10.541   2.274   5.438 -0.3145 -0.4529  0.0250
13828SOL    HW143491  10.600   2.206   5.471  0.0009  0.7754  2.1623
13828SOL    HW243492  10.473   2.226   5.391  2.0600 -1.9597 -2.1660
13829SOL     OW43493   6.152   8.470   2.976 -0.1432 -0.3372  0.2797
13829SOL    HW143494   6.085   8.496   3.040 -0.2868 -0.0327  0.0083
13829SOL    HW243495   6.228   8.446   3.029  0.1178  0.9821  0.5226
13830SOL     OW43496   5.859   0.817   9.645 -0.3946 -0.2835  0.7755
13830SOL    HW143497   5.896   0.824   9.733  0.9109  0.4493  0.2042
13830SOL    HW243498   5.882   0.729   9.615  2.1011  0.5300 -0.0210
13831SOL     OW43499   5.045   2.130  10.672  0.4735  0.4423  0.1527
13831SOL    HW143500   4.963   2.108  10.716  0.8200  0.0286  0.6092
13831SOL    HW243501   5.019   2.187  10.599 -0.1794  0.5714  0.4793
13832SOL     OW43502   3.822   4.185   9.915 -0.0651  0.0549 -0.5655
13832SOL    HW143503   3.763   4.167   9.988  0.7097  1.2947  0.4240
13832SOL    HW243504   3.906   4.205   9.957 -0.0759  2.7902 -1.6054
13833SOL     OW43505   1.315   2.269   5.995  0.5071  0.5423  0.0150
13833SOL    HW143506   1.241   2.309   5.950  0.3879 -0.0069 -0.2833
13833SOL    HW243507   1.347   2.338   6.054 -0.7621  0.5034  0.7712
13834SOL     OW43508   2.483   7.343   9.916 -0.0341 -0.5833 -0.4622
13834SOL    HW143509   2.546   7.271   9.910  1.4393  0.6375 -0.4409
13834SOL    HW243510   2.513   7.406   9.850 -1.9594 -0.4664 -1.2733
13835SOL     OW43511   8.426   8.147   1.544  1.1109 -0.6023 -0.4761
13835SOL    HW143512   8.382   8.120   1.624 -0.5612 -1.0519 -1.4815
13835SOL    HW243513   8.401   8.239   1.532  2.5091 -0.1042  0.2144
13836SOL     OW43514   2.174  10.084   0.086 -0.4300  0.3709 -0.0018
13836SOL    HW143515   2.143  10.033   0.012 -2.7010 -1.4280  2.0167
13836SOL    HW243516   2.128  10.167   0.080 -1.2739 -0.1030 -0.1373
13837SOL     OW43517  10.396   9.627   2.583 -0.0772 -0.2219  0.4296
13837SOL    HW143518  10.490   9.626   2.598 -0.0153  0.4795  0.0862
13837SOL    HW243519  10.371   9.719   2.585 -0.4020 -0.2108 -1.5936
13838SOL     OW43520   9.739   5.372   9.926 -0.5604  0.6937  0.7219
13838SOL    HW143521   9.700   5.458   9.909 -1.7679 -0.0017 -0.1745
13838SOL    HW243522   9.805   5.389   9.993  0.3527  2.5853 -0.5812
13839SOL     OW43523   3.356  10.378   7.347 -0.3489 -0.1848  0.3828
13839SOL    HW143524   3.444  10.414   7.359 -0.5317 -0.1496  1.8052
13839SOL    HW243525   3.313  10.442   7.289  0.0500  0.6883  1.0170
13840SOL     OW43526   7.657   0.758   0.889  0.2066  0.1900  0.0136
13840SOL    HW143527   7.640   0.668   0.859 -0.0576  0.3358 -0.2754
13840SOL    HW243528   7.734   0.785   0.840  2.7888 -1.2575  2.8944
13841SOL     OW43529   9.383   5.200   1.542  0.1059  0.1159  0.2096
13841SOL    HW143530   9.380   5.138   1.615  1.8660  1.0161  1.1204
13841SOL    HW243531   9.427   5.277   1.578 -1.3987  1.6685 -1.0633
13842SOL     OW43532   4.401   9.027   4.551  0.0953 -0.1158 -0.3343
13842SOL    HW143533   4.404   9.085   4.628  0.4644  1.2399 -1.3340
13842SOL    HW243534   4.363   8.946   4.584  0.3038  0.4082  1.2999
13843SOL     OW43535   5.551   7.126  10.448 -0.4025  0.1253  0.3154
13843SOL    HW143536   5.617   7.063  10.477  1.5513 -0.2095 -4.0622
13843SOL    HW243537   5.594   7.211  10.452  0.2524 -0.0263 -2.0255
13844SOL     OW43538  10.367   2.562   0.082 -0.1268  0.2636  0.2079
13844SOL    HW143539  10.447   2.509   0.073 -0.0041  0.0991  1.7949
13844SOL    HW243540  10.357   2.573   0.177 -1.0715  1.7036 -0.0221
13845SOL     OW43541   4.888   9.912   1.006 -0.0013  0.7155 -0.1528
13845SOL    HW143542   4.802   9.920   1.045  0.7489  1.0923  1.5268
13845SOL    HW243543   4.947   9.952   1.070  2.0848 -3.9402  1.2894
13846SOL     OW43544   5.170   3.102   0.765  0.8243  0.0279 -0.2702
13846SOL    HW143545   5.123   3.024   0.733  1.2513 -0.5800  0.5494
13846SOL    HW243546   5.157   3.101   0.859  1.3845  0.5913 -0.1803
13847SOL     OW43547   9.465   8.602   2.412 -0.8991  0.4197  0.2784
13847SOL    HW143548   9.448   8.610   2.506 -2.6379  1.4386 -0.0809
13847SOL    HW243549   9.498   8.688   2.386  1.5914 -0.4438  0.2598
13848SOL     OW43550   8.792   0.109   4.660 -0.5144 -0.1780 -0.3137
13848SOL    HW143551   8.730   0.037   4.650 -1.0012  0.0557  0.9265
13848SOL    HW243552   8.829   0.097   4.748 -1.4776  1.7585  0.3926
13849SOL     OW43553   5.720   8.429   8.835 -0.0449  0.1706 -0.2280
13849SOL    HW143554   5.774   8.449   8.911 -0.3191  0.6877 -0.1691
13849SOL    HW243555   5.779   8.381   8.776  0.1706 -0.2222  0.2966
13850SOL     OW43556   5.322   0.668   3.220 -0.0291  0.1287  0.5446
13850SOL    HW143557   5.312   0.700   3.310 -1.4991  0.0423  0.4366
13850SOL    HW243558   5.353   0.578   3.229  0.7706  0.4316  0.9267
13851SOL     OW43559   8.689   2.819   6.615  0.0078 -0.3493 -0.0259
13851SOL    HW143560   8.654   2.753   6.555 -1.4091  1.2338 -1.0449
13851SOL    HW243561   8.632   2.814   6.692  0.7981 -1.2506  0.5231
13852SOL     OW43562  10.240   7.828   3.007 -0.4161  0.2742  0.3013
13852SOL    HW143563  10.191   7.910   2.996 -0.0600  0.4679  0.1250
13852SOL    HW243564  10.176   7.760   2.988 -1.1080  0.4453  1.8885
13853SOL     OW43565   1.211   2.974   2.989  0.0018  0.3678  0.3369
13853SOL    HW143566   1.239   2.909   2.925 -0.6626  0.3057  0.1102
13853SOL    HW243567   1.222   2.931   3.074  0.6226  0.3559  0.2608
13854SOL     OW43568   6.162   0.099   0.480  0.3029 -0.0991 -0.0701
13854SOL    HW143569   6.100   0.097   0.408 -0.8427  1.8290  0.7738
13854SOL    HW243570   6.194   0.009   0.487 -1.2437 -0.8188 -1.5042
13855SOL     OW43571   1.228   0.468  10.018  0.4802 -0.1203 -0.0631
13855SOL    HW143572   1.230   0.533   9.949 -0.0421  0.3226  0.3280
13855SOL    HW243573   1.272   0.510  10.092 -0.5098  0.0855  0.4274
13856SOL     OW43574   3.746   9.595   0.555  0.3370  0.9184  0.1355
13856SOL    HW143575   3.787   9.676   0.526 -0.2212  0.0997 -3.3310
13856SOL    HW243576   3.770   9.530   0.488  0.8677 -1.8852  2.8043
13857SOL     OW43577   2.076  10.675   2.324  0.0200 -0.3050 -0.1444
13857SOL    HW143578   2.033  10.627   2.253 -0.3497 -1.1161  0.6060
13857SOL    HW243579   2.004  10.701   2.382  0.1895  1.4066 -0.6709
13858SOL     OW43580   1.078   2.000   9.164 -0.4308  0.1325 -0.3511
13858SOL    HW143581   0.990   1.984   9.131 -0.3234  0.0978 -0.6169
13858SOL    HW243582   1.102   1.919   9.208  0.1009 -0.4342 -1.6691
13859SOL     OW43583   5.277   8.274   4.754 -0.1770  0.9483 -0.2459
13859SOL    HW143584   5.324   8.344   4.709  1.0173  0.6814  0.5347
13859SOL    HW243585   5.309   8.278   4.844 -1.3154  0.4329  0.2045
13860SOL     OW43586   3.430   3.824   5.781 -0.2973 -0.7084  0.1097
13860SOL    HW143587   3.350   3.773   5.792 -0.1193 -0.8940  0.5652
13860SOL    HW243588   3.453   3.852   5.869 -1.0778  1.2267 -0.2401
13861SOL     OW43589   3.002   9.945   3.041 -0.3749  0.3010  0.5372
13861SOL    HW143590   3.045  10.031   3.041  0.3006 -0.0159 -0.4729
13861SOL    HW243591   2.972   9.933   2.951 -1.5251 -0.0158  0.9557
13862SOL     OW43592   2.905   7.563   9.714 -0.0319  0.1284 -0.2482
13862SOL    HW143593   2.925   7.479   9.673  0.5167  0.5721 -0.9086
13862SOL    HW243594   2.897   7.624   9.640 -2.3505  0.2952  0.0630
13863SOL     OW43595   7.657   5.669   9.664  0.1272  0.1624  0.1538
13863SOL    HW143596   7.751   5.673   9.681  0.8487 -1.9508 -2.5126
13863SOL    HW243597   7.645   5.586   9.617 -2.6190  1.5497 -1.9150
13864SOL     OW43598   0.024   5.483   9.537  0.4303 -0.1546 -0.9579
13864SOL    HW143599   0.112   5.452   9.559  0.1235 -0.8032 -0.6197
13864SOL    HW243600   0.012   5.461   9.444  0.4286 -0.5301 -0.8672
13865SOL     OW43601   6.234   0.463   1.322 -0.2467  0.1824 -0.0240
13865SOL    HW143602   6.240   0.558   1.320 -1.0548  0.2562  0.4874
13865SOL    HW243603   6.187   0.444   1.404  0.5721 -0.6896  0.2606
13866SOL     OW43604   5.309   9.250   7.816 -0.0159 -0.0125  0.4312
13866SOL    HW143605   5.252   9.327   7.813 -1.3122 -0.9415 -0.2731
13866SOL    HW243606   5.391   9.279   7.776 -0.9439  0.6632 -1.0851
13867SOL     OW43607  10.568   9.404   4.597  0.1847  0.0599  0.3563
13867SOL    HW143608  10.594   9.315   4.620 -0.0660  0.5892  3.1066
13867SOL    HW243609  10.636   9.459   4.635 -0.2093  1.0788 -0.3892
13868SOL     OW43610   5.658   4.380   0.490  0.3648  0.1009  0.1145
13868SOL    HW143611   5.724   4.448   0.506 -0.8270  0.7504  2.8285
13868SOL    HW243612   5.667   4.320   0.563 -0.0555 -1.5255 -1.1073
13869SOL     OW43613   7.643   7.674  10.669 -0.2400 -0.0634 -0.0405
13869SOL    HW143614   7.715   7.722  10.629  0.3457  0.3663  1.4648
13869SOL    HW243615   7.671   7.659  10.759 -1.5214 -0.9692  0.2364
13870SOL     OW43616   0.176   5.018   4.938 -0.2194  0.1224  0.0489
13870SOL    HW143617   0.155   5.071   5.015 -1.2952 -1.1258  0.6633
13870SOL    HW243618   0.149   5.072   4.864 -0.7304  0.6830  0.6284
13871SOL     OW43619   5.306   7.179   1.332  0.0439  0.5087 -0.1277
13871SOL    HW143620   5.335   7.250   1.274 -1.3568  1.4829  0.2994
13871SOL    HW243621   5.326   7.211   1.420 -3.0826  1.7337  0.2779
13872SOL     OW43622  10.923   9.182   0.997  0.2920  0.5776  0.3286
13872SOL    HW143623  10.839   9.225   1.010 -0.5064 -1.2545  1.6272
13872SOL    HW243624  10.948   9.205   0.908 -2.4220 -0.2258 -0.7293
13873SOL     OW43625   5.497   9.862   3.243 -0.5394  0.1643 -1.0097
13873SOL    HW143626   5.472   9.906   3.162 -0.4481  2.0828 -0.0762
13873SOL    HW243627   5.519   9.934   3.303  1.4983 -1.2499  0.0463
13874SOL     OW43628   6.829   9.436   0.264  0.1209 -0.0737  0.4593
13874SOL    HW143629   6.882   9.435   0.184  1.0770  0.5129  1.0688
13874SOL    HW243630   6.869   9.370   0.320 -0.2503 -0.1445  0.6390
13875SOL     OW43631   7.945   4.980   2.245  0.2292  0.1934 -0.5566
13875SOL    HW143632   7.892   5.015   2.173 -1.4615  0.3626  0.7008
13875SOL    HW243633   7.889   4.990   2.322  2.0176  0.1056  0.8082
13876SOL     OW43634   9.192   0.869   4.164 -0.0825 -0.4545 -0.0515
13876SOL    HW143635   9.186   0.777   4.189 -1.1606 -0.2637  0.4619
13876SOL    HW243636   9.202   0.867   4.068  0.0441 -1.1076 -0.0297
13877SOL     OW43637   9.003   8.395  10.820 -0.2063  0.0397  0.0270
13877SOL    HW143638   8.925   8.444  10.796 -0.7215 -0.9981 -0.4853
13877SOL    HW243639   9.067   8.414  10.751  0.0783  1.0552  0.5593
13878SOL     OW43640   3.222   9.287   9.657 -0.1815 -0.2992  0.1348
13878SOL    HW143641   3.304   9.306   9.612 -0.3180  2.4794  0.8580
13878SOL    HW243642   3.154   9.319   9.598 -0.5097  0.6616  1.0015
13879SOL     OW43643  10.789   2.547   4.399  0.0722  0.3530 -0.2962
13879SOL    HW143644  10.741   2.580   4.475 -0.3575 -2.4557  0.7774
13879SOL    HW243645  10.724   2.496   4.350  0.6428  1.1462 -1.9646
13880SOL     OW43646   3.004   1.663   6.016  0.0540 -0.3004 -0.1680
13880SOL    HW143647   2.987   1.748   6.056 -0.7807  1.1262 -3.2382
13880SOL    HW243648   3.099   1.661   6.006 -0.0086  1.0843 -1.5069
13881SOL     OW43649   6.995   0.573   9.847 -0.0003 -0.2810 -0.6715
13881SOL    HW143650   7.011   0.504   9.911  0.1310  0.6447  0.3138
13881SOL    HW243651   6.903   0.562   9.822 -1.1834  1.4797  2.3648
13882SOL     OW43652   0.681   2.282   9.461 -0.3762 -0.1140  0.2976
13882SOL    HW143653   0.664   2.377   9.459 -0.9395 -0.2058 -1.3872
13882SOL    HW243654   0.624   2.249   9.530 -0.4864  0.7155  0.6220
13883SOL     OW43655   2.228   6.876   0.381 -0.2735  0.0493  0.4192
13883SOL    HW143656   2.231   6.916   0.295 -0.4547  0.6862  0.7033
13883SOL    HW243657   2.266   6.789   0.369  2.4661  1.1566  0.2645
13884SOL     OW43658   0.420   5.528   3.560 -0.4762 -0.1191 -0.2838
13884SOL    HW143659   0.494   5.524   3.620 -1.5688  1.2559  1.2566
13884SOL    HW243660   0.358   5.587   3.603 -1.9273 -0.2253 -2.1167
13885SOL     OW43661   4.388   3.029   8.617  0.3582  0.0142  0.2617
13885SOL    HW143662   4.481   3.017   8.639  0.2338  0.1012  0.8574
13885SOL    HW243663   4.344   2.954   8.656  0.0431  0.5287  0.9129
13886SOL     OW43664   7.093   3.248  10.793 -0.0955  0.2783 -0.4145
13886SOL    HW143665   7.038   3.296  10.730  0.4980 -0.9368 -1.9349
13886SOL    HW243666   7.058   3.159  10.792  1.1064 -0.2028 -0.4568
13887SOL     OW43667   4.363  10.542   9.510  0.0461  0.0166 -0.0495
13887SOL    HW143668   4.315  10.461   9.492  1.6199 -0.7235 -1.0643
13887SOL    HW243669   4.450  10.514   9.537 -0.0193  1.3423  1.7122
13888SOL     OW43670   0.868   2.597  10.781  0.2445 -0.3374 -0.2822
13888SOL    HW143671   0.891   2.505  10.794  0.9479  0.0065  1.0448
13888SOL    HW243672   0.889   2.640  10.864  0.1901  1.0803 -0.9597
13889SOL     OW43673   8.948   2.488   2.422  0.0466 -0.6907  0.1435
13889SOL    HW143674   8.998   2.512   2.500 -0.8022 -0.3470  0.6056
13889SOL    HW243675   8.858   2.511   2.445 -0.1626 -0.2583 -1.0719
13890SOL     OW43676   9.286   5.047   4.331  0.0442 -0.5662 -0.3399
13890SOL    HW143677   9.203   5.084   4.300  0.2011 -0.2165 -0.3450
13890SOL    HW243678   9.351   5.113   4.307  0.2050 -0.4282  0.4692
13891SOL     OW43679   4.204   2.603   9.387  0.2821  0.2111  0.6329
13891SOL    HW143680   4.211   2.508   9.401  0.0532  0.0748 -0.1261
13891SOL    HW243681   4.113   2.616   9.358  0.8426  0.4028 -1.1376
13892SOL     OW43682   9.583   0.602   4.319  0.0735 -0.1868  0.2647
13892SOL    HW143683   9.552   0.558   4.398  1.1361 -1.0856  0.2143
13892SOL    HW243684   9.533   0.562   4.247 -0.0599 -0.2155  0.3741
13893SOL     OW43685   0.600   4.741   4.555 -0.2226  0.2439  0.3263
13893SOL    HW143686   0.539   4.812   4.535 -0.9951 -0.1138  1.3469
13893SOL    HW243687   0.595   4.731   4.650  0.7046 -0.4493  0.3130
13894SOL     OW43688   0.639   7.803   9.542 -0.3949  0.4005 -0.7634
13894SOL    HW143689   0.582   7.846   9.479  1.6442  1.3410 -2.0505
13894SOL    HW243690   0.716   7.859   9.549  0.5088 -0.9046  0.7513
13895SOL     OW43691   5.776   1.495   1.262 -0.4854  0.5285 -0.3221
13895SOL    HW143692   5.795   1.404   1.286  1.1385  0.3260 -2.1387
13895SOL    HW243693   5.780   1.543   1.345  0.8988 -0.7324  0.3944
13896SOL     OW43694   1.887   1.297   6.264  0.1566  0.1861 -0.1874
13896SOL    HW143695   1.899   1.226   6.201  1.8309  0.1481  0.1264
13896SOL    HW243696   1.847   1.255   6.340 -0.8947  0.0228 -0.8215
13897SOL     OW43697   7.300   7.480   0.034 -0.2984  0.4731 -0.4054
13897SOL    HW143698   7.389   7.487   0.067 -0.7728  1.4352  0.7539
13897SOL    HW243699   7.266   7.570   0.035 -0.7387  0.4025 -2.4968
13898SOL     OW43700  11.090   3.587   4.598  0.0259 -0.0929 -0.0275
13898SOL    HW143701  11.034   3.649   4.645 -0.0105  0.9466 -1.4044
13898SOL    HW243702  11.176   3.629   4.595  0.7503 -1.3502  1.4038
13899SOL     OW43703   3.455   2.816   0.650 -0.1228 -0.1939 -0.6873
13899SOL    HW143704   3.391   2.749   0.676 -0.4672 -0.2038 -1.5217
13899SOL    HW243705   3.540   2.777   0.671 -0.3152 -0.9362 -1.2329
13900SOL     OW43706   6.409   0.354   7.493  0.0226 -0.0286  0.1050
13900SOL    HW143707   6.433   0.445   7.475  1.8713 -0.3737  0.6364
13900SOL    HW243708   6.486   0.317   7.538 -0.8136 -1.7642  0.1864
13901SOL     OW43709  10.984   8.574  10.973 -0.0767  0.4382  0.4469
13901SOL    HW143710  11.017   8.649  10.923  0.7344  0.8101  1.5041
13901SOL    HW243711  11.034   8.500  10.941  0.5541  0.7013  0.8077
13902SOL     OW43712   2.861   2.306   8.318 -0.0512  0.1682  0.0292
13902SOL    HW143713   2.804   2.364   8.268  0.8702  1.0042 -0.0957
13902SOL    HW243714   2.934   2.288   8.259 -0.5875 -1.6252 -0.1568
13903SOL     OW43715   5.360   2.025   8.976 -0.1316  0.5170  0.4708
13903SOL    HW143716   5.270   2.042   9.003 -0.2090  0.3977  0.2911
13903SOL    HW243717   5.368   2.069   8.891 -0.4922 -0.7784 -0.2517
13904SOL     OW43718   2.127   9.086   2.212 -0.2197  0.3307 -0.1082
13904SOL    HW143719   2.192   9.036   2.163 -0.0021  1.5560 -1.1257
13904SOL    HW243720   2.061   9.021   2.237 -0.0397 -0.4528 -1.5430
13905SOL     OW43721   2.395   0.396   2.145  0.2812  0.6613  0.3148
13905SOL    HW143722   2.324   0.460   2.138  1.4970  2.1031  0.8130
13905SOL    HW243723   2.450   0.428   2.217  0.8272 -1.0548  0.7034
13906SOL     OW43724   1.203  10.676   1.163 -0.0388  0.2501 -0.4971
13906SOL    HW143725   1.230  10.684   1.254  1.0941 -1.0080 -0.6891
13906SOL    HW243726   1.112  10.645   1.168 -0.1773  0.7422  0.1872
13907SOL     OW43727   1.572  10.672   6.277  0.2453 -0.1091  0.8570
13907SOL    HW143728   1.663  10.695   6.292  0.0073  0.8708  0.8430
13907SOL    HW243729   1.559  10.592   6.329  1.7803 -1.7948 -1.1849
13908SOL     OW43730   1.628   6.571   5.441  0.0708  0.4644 -0.2117
13908SOL    HW143731   1.712   6.537   5.472 -0.5589 -0.3827  0.5682
13908SOL    HW243732   1.565   6.502   5.459 -0.5965  0.5629 -1.9809
13909SOL     OW43733   2.778   0.872   1.253 -0.2200 -0.1933  0.4873
13909SOL    HW143734   2.811   0.783   1.266 -0.7151 -0.7330 -1.5083
13909SOL    HW243735   2.692   0.859   1.212 -0.1862  1.1851 -0.0720
13910SOL     OW43736   0.726   5.640   4.649 -0.5177 -0.2019  0.1910
13910SOL    HW143737   0.697   5.729   4.629  0.4309  0.3609  1.1779
13910SOL    HW243738   0.813   5.634   4.609 -1.1671 -1.2266 -1.1579
13911SOL     OW43739   4.501  10.066   1.696  0.1375  0.1242  0.0276
13911SOL    HW143740   4.541   9.984   1.669 -1.3837 -1.3626  1.9991
13911SOL    HW243741   4.550  10.092   1.774 -0.7353 -0.0617  0.6465
13912SOL     OW43742   7.343   9.337   6.344  0.1963 -0.0192 -0.0868
13912SOL    HW143743   7.301   9.270   6.290 -0.2929  0.1430  0.0841
13912SOL    HW243744   7.423   9.360   6.296 -1.5359  2.0991 -2.2278
13913SOL     OW43745   8.096   8.279  10.692 -0.0776  0.1368 -0.1455
13913SOL    HW143746   8.013   8.236  10.713 -0.4885  0.9916  0.0457
13913SOL    HW243747   8.121   8.243  10.607 -0.9970  0.3549 -0.5279
13914SOL     OW43748   3.879   8.780   3.034  0.1980 -0.0428 -0.2046
13914SOL    HW143749   3.788   8.751   3.030 -0.1683  0.8911  0.9134
13914SOL    HW243750   3.906   8.762   3.124  0.9642  0.1476 -0.3957
13915SOL     OW43751   9.273   4.388   0.149  0.0304  0.8589  0.8674
13915SOL    HW143752   9.189   4.387   0.195 -0.9421  0.8804 -0.8415
13915SOL    HW243753   9.265   4.459   0.085  0.5340 -0.4632 -0.7294
13916SOL     OW43754   1.188   3.478   6.629  0.0330 -0.5929  0.7899
13916SOL    HW143755   1.241   3.456   6.553  2.0295  0.3930  1.8030
13916SOL    HW243756   1.107   3.429   6.618 -0.3399  0.5611 -2.6280
13917SOL     OW43757   8.898   9.733   4.291  0.0737  0.6201 -0.0794
13917SOL    HW143758   8.972   9.717   4.233  0.1325 -1.3043  0.4558
13917SOL    HW243759   8.936   9.737   4.379 -0.3769  0.0281  0.1554
13918SOL     OW43760   2.246   8.142  11.069 -0.1762 -0.1314  0.1425
13918SOL    HW143761   2.221   8.052  11.088 -0.2586 -0.3979 -1.1348
13918SOL    HW243762   2.214   8.157  10.980  1.8209  0.4155 -0.5299
13919SOL     OW43763   7.473   1.579   0.509 -0.2033  0.7083  0.7719
13919SOL    HW143764   7.534   1.583   0.435 -1.4719  1.4922 -0.2852
13919SOL    HW243765   7.528   1.556   0.584  0.9276 -1.6643 -0.6487
13920SOL     OW43766   1.973   6.091  10.080  0.2909 -0.3222  0.3694
13920SOL    HW143767   1.973   6.056   9.991 -2.2240 -0.7397  0.4706
13920SOL    HW243768   1.931   6.176  10.072 -0.7883 -0.7591  1.2774
13921SOL     OW43769   2.836  10.277   8.735 -0.7277  0.6055 -0.1142
13921SOL    HW143770   2.761  10.247   8.786 -0.2991  0.7315  0.6092
13921SOL    HW243771   2.823  10.371   8.726 -1.1970  0.4773 -0.9198
13922SOL     OW43772   8.792  10.719   3.010  0.1589 -0.5475 -0.3481
13922SOL    HW143773   8.742  10.797   2.986 -0.7053 -0.8851  0.3116
13922SOL    HW243774   8.786  10.663   2.932 -3.7747 -2.2140  0.9002
13923SOL     OW43775   3.917   5.906   0.265  0.0906  0.1250 -0.3989
13923SOL    HW143776   3.881   5.826   0.227  1.0763  0.3890 -1.9517
13923SOL    HW243777   3.987   5.932   0.206  1.2365  0.9575  1.2511
13924SOL     OW43778  10.833   6.137   0.341 -0.6182 -0.5927  0.0079
13924SOL    HW143779  10.879   6.213   0.304  1.2746 -1.5450  0.2853
13924SOL    HW243780  10.792   6.170   0.421  0.8797 -0.0217  0.5695
13925SOL     OW43781   1.309  10.347   1.641 -0.1549  0.1863  0.2947
13925SOL    HW143782   1.399  10.321   1.660 -0.5904  0.0047  2.3581
13925SOL    HW243783   1.275  10.275   1.587  0.5872 -0.3171  0.4768
13926SOL     OW43784   2.350  10.864   8.152 -0.4053  0.5441  0.3905
13926SOL    HW143785   2.425  10.861   8.092 -0.6091 -1.7573  0.1552
13926SOL    HW243786   2.376  10.927   8.219  0.9475  1.1877 -0.6758
13927SOL     OW43787   0.902   0.733   2.766  0.2807  0.1736 -0.2147
13927SOL    HW143788   0.982   0.690   2.796  0.9213  0.4577 -1.4570
13927SOL    HW243789   0.932   0.812   2.722 -0.6274 -0.1120 -1.4019
13928SOL     OW43790   6.583   9.213   7.823  0.2789 -1.0066 -0.2668
13928SOL    HW143791   6.592   9.213   7.728  3.9903  0.6067 -0.1027
13928SOL    HW243792   6.495   9.246   7.840 -0.3968 -1.1226 -3.0955
13929SOL     OW43793   3.660   4.593   4.589 -0.2534  0.0111  0.1725
13929SOL    HW143794   3.657   4.513   4.537 -0.9316 -0.3804  0.7950
13929SOL    HW243795   3.722   4.649   4.543  0.6381 -1.0699  0.0080
13930SOL     OW43796   1.245   6.887   3.118 -0.6966 -0.7323 -0.3219
13930SOL    HW143797   1.228   6.891   3.024  0.2009 -0.3584 -0.4744
13930SOL    HW243798   1.177   6.941   3.158 -1.0550 -0.8648 -0.7509
13931SOL     OW43799   7.855   1.422   9.228 -0.4895  0.0558 -0.4434
13931SOL    HW143800   7.913   1.442   9.155 -0.6547 -0.5060 -0.7372
13931SOL    HW243801   7.767   1.434   9.192 -0.5635  0.3557 -0.1644
13932SOL     OW43802   7.807   9.783   3.948 -0.2637 -0.2789  0.0475
13932SOL    HW143803   7.797   9.768   3.854 -0.9472 -1.1356  0.2409
13932SOL    HW243804   7.720   9.770   3.984 -0.4465  2.0663  0.5695
13933SOL     OW43805   0.502   3.260   3.394 -0.3936  0.1164 -0.3346
13933SOL    HW143806   0.464   3.333   3.344  1.7069  0.6195 -1.3251
13933SOL    HW243807   0.559   3.216   3.331 -0.0610 -1.1491  0.8185
13934SOL     OW43808  11.055   0.657   4.221  0.4390  0.0929  0.0243
13934SOL    HW143809  11.072   0.661   4.127  0.0445  0.4996 -0.0328
13934SOL    HW243810  11.004   0.576   4.232  0.8185 -0.1622 -0.0502
13935SOL     OW43811   1.443   0.024   1.756  0.4643 -0.2656  0.1517
13935SOL    HW143812   1.419  -0.058   1.800 -0.5888 -1.4444 -2.3979
13935SOL    HW243813   1.503   0.067   1.817 -0.4119 -2.0079  2.4252
13936SOL     OW43814   2.772   1.437   7.581  0.7550  0.4413 -0.0564
13936SOL    HW143815   2.816   1.369   7.631  0.3502  0.5102  0.3986
13936SOL    HW243816   2.686   1.446   7.621  0.2661  0.2191 -1.0170
13937SOL     OW43817   0.764   9.194   0.349  0.3117 -0.8400  0.2234
13937SOL    HW143818   0.835   9.163   0.405  1.6908 -1.4033 -1.7221
13937SOL    HW243819   0.739   9.278   0.386  0.6476 -1.5196  2.0873
13938SOL     OW43820   1.879  10.644   8.276  0.0535  0.4754 -0.2435
13938SOL    HW143821   1.790  10.618   8.252  0.0188 -0.8027  1.1561
13938SOL    HW243822   1.906  10.581   8.342  2.2767  0.4211 -1.1056
13939SOL     OW43823   8.176   9.518   2.552  0.4619  0.9360  0.6073
13939SOL    HW143824   8.185   9.607   2.588  1.2701  0.4945  1.5477
13939SOL    HW243825   8.232   9.464   2.608 -1.5932 -0.5494  1.3435
13940SOL     OW43826   2.114   5.857   0.683 -0.4704  0.4704  0.0424
13940SOL    HW143827   2.156   5.935   0.649 -0.6770 -0.4850 -2.6293
13940SOL    HW243828   2.181   5.789   0.676 -1.0414 -0.0988  0.0383
13941SOL     OW43829   2.049   8.454   9.814  0.0028 -0.5324  0.1495
13941SOL    HW143830   1.970   8.464   9.867 -0.9374  3.0386 -1.6106
13941SOL    HW243831   2.119   8.486   9.870 -0.1432 -1.3728  0.8476
13942SOL     OW43832   5.071  10.557   5.604  0.1160 -0.4963  0.5088
13942SOL    HW143833   5.116  10.629   5.560 -4.6858  2.1245 -0.7261
13942SOL    HW243834   5.062  10.489   5.537 -0.9001  0.5178 -0.4285
13943SOL     OW43835   4.135   8.182   9.797 -0.3735 -0.2192 -0.4923
13943SOL    HW143836   4.217   8.168   9.844 -0.2560 -1.3766 -1.0306
13943SOL    HW243837   4.159   8.184   9.705 -0.9704 -0.7300 -0.6654
13944SOL     OW43838   4.421   4.754   9.687 -0.2333  0.1149 -0.2960
13944SOL    HW143839   4.459   4.836   9.655  0.9390  0.3380  1.5074
13944SOL    HW243840   4.491   4.714   9.740 -1.2768 -1.3300  0.0600
13945SOL     OW43841   5.471   7.622   4.858  0.4677 -0.5742 -0.1269
13945SOL    HW143842   5.517   7.634   4.941 -0.0835 -0.7661  0.2151
13945SOL    HW243843   5.513   7.683   4.798  0.6435 -0.1800  0.3908
13946SOL     OW43844  10.491   7.876   0.795 -0.0556  0.4271 -0.0120
13946SOL    HW143845  10.521   7.835   0.714 -1.3807  1.6634 -1.2015
13946SOL    HW243846  10.497   7.807   0.861 -0.8739 -1.2498 -1.6005
13947SOL     OW43847   0.686   0.195   0.093 -0.0061 -0.4953  0.0911
13947SOL    HW143848   0.684   0.190  -0.002  0.2374 -0.3231  0.0759
13947SOL    HW243849   0.603   0.156   0.121  0.3293 -1.3977 -0.1481
13948SOL     OW43850   1.254   7.789   9.086  0.1724 -0.1707  0.1251
13948SOL    HW143851   1.286   7.782   9.176 -0.7954  0.7412  0.5642
13948SOL    HW243852   1.264   7.881   9.063  0.4144 -0.3929 -0.7099
13949SOL     OW43853   5.252   1.057   7.465  0.3519  0.0592 -0.3943
13949SOL    HW143854   5.195   1.095   7.398 -1.5207 -1.8477 -0.0032
13949SOL    HW243855   5.287   1.132   7.512 -1.0439  1.3605 -1.3219
13950SOL     OW43856  10.569   8.698   2.015 -0.4709  0.1856 -0.0657
13950SOL    HW143857  10.600   8.695   2.105  0.0644 -1.0123 -0.2662
13950SOL    HW243858  10.495   8.637   2.012 -1.8481  1.8029  0.0296
13951SOL     OW43859   9.367   6.889   5.663 -0.0493  0.1047 -0.1424
13951SOL    HW143860   9.442   6.886   5.721 -0.7274  0.8315  0.7950
13951SOL    HW243861   9.404   6.882   5.575  1.1559  1.0633  0.2749
13952SOL     OW43862   2.720   7.109   5.598  0.2388 -0.0497  0.6032
13952SOL    HW143863   2.697   7.173   5.531 -0.3552  0.5536  1.3721
13952SOL    HW243864   2.812   7.127   5.619  0.6024 -0.6113 -0.4377
13953SOL     OW43865   9.262   3.206  10.824  0.4457 -0.0888 -0.1375
13953SOL    HW143866   9.186   3.152  10.845  0.8244 -0.1430  1.2244
13953SOL    HW243867   9.302   3.163  10.748  0.0257 -0.9958  0.1424
13954SOL     OW43868   3.403  10.779   0.695 -0.0645 -0.4143  0.1013
13954SOL    HW143869   3.460  10.847   0.731  0.1108 -0.4604 -0.0838
13954SOL    HW243870   3.324  10.826   0.669  0.2160 -0.2085 -0.3979
13955SOL     OW43871   1.993   2.632   8.275 -0.5831 -0.3962  0.0769
13955SOL    HW143872   1.941   2.562   8.235  0.0820 -0.6699 -0.3350
13955SOL    HW243873   2.082   2.596   8.278 -0.3983  0.0978  0.6784
13956SOL     OW43874   6.351   6.345   2.298  0.5939  0.1985 -0.0966
13956SOL    HW143875   6.308   6.381   2.376 -0.0874  0.5214 -0.6143
13956SOL    HW243876   6.279   6.319   2.240  1.0769  1.4272 -1.2932
13957SOL     OW43877   3.706   2.408   7.149 -0.6445 -0.1363 -0.1301
13957SOL    HW143878   3.698   2.503   7.144 -0.3204 -0.1708 -1.8274
13957SOL    HW243879   3.783   2.387   7.096 -0.9101 -1.3759 -0.0640
13958SOL     OW43880   4.744   6.140   1.033 -0.0416  0.1531 -0.1875
13958SOL    HW143881   4.698   6.089   0.965  0.0038  0.1398 -0.2080
13958SOL    HW243882   4.836   6.119   1.020 -0.0209  0.2583 -0.2101
13959SOL     OW43883   7.819   2.798   2.842  0.6535 -0.4103  0.2505
13959SOL    HW143884   7.848   2.784   2.932 -0.6133  0.7640  0.8716
13959SOL    HW243885   7.813   2.893   2.833 -0.4698 -0.5465 -0.6662
13960SOL     OW43886   2.548   8.470   4.187  0.3304  0.0746 -0.0174
13960SOL    HW143887   2.607   8.446   4.259  0.6196  1.4895  0.2520
13960SOL    HW243888   2.501   8.547   4.219  0.3698  0.6542 -1.2887
13961SOL     OW43889   9.688   3.619   3.283  0.0054  0.4464  0.5253
13961SOL    HW143890   9.627   3.551   3.309  0.3723 -0.0124  0.2067
13961SOL    HW243891   9.750   3.625   3.356  0.3444 -0.0157  0.2848
13962SOL     OW43892   0.403   5.125   4.181 -0.4769 -0.3166 -0.6348
13962SOL    HW143893   0.496   5.147   4.192 -0.4821 -0.8067  0.4724
13962SOL    HW243894   0.373   5.183   4.111  0.6146 -0.0150 -0.8710
13963SOL     OW43895   0.923   2.079   5.517 -0.0500  0.1087  0.7128
13963SOL    HW143896   1.006   2.073   5.469 -0.7350  0.9534 -0.6503
13963SOL    HW243897   0.939   2.033   5.599  2.0986  1.1551  0.9510
13964SOL     OW43898   1.964   1.486   5.693  0.3122  0.0749 -0.0416
13964SOL    HW143899   1.878   1.528   5.698  1.0961  1.6160  0.9142
13964SOL    HW243900   2.011   1.534   5.625  1.0502  0.4570  0.7199
13965SOL     OW43901   1.543   7.626   4.303  0.0270 -0.3484 -0.1063
13965SOL    HW143902   1.472   7.647   4.363  0.0761  1.7724 -0.7043
13965SOL    HW243903   1.617   7.679   4.334 -0.0677  1.1609 -2.2068
13966SOL     OW43904   7.157   0.812   0.472  0.0765  0.0579 -0.0700
13966SOL    HW143905   7.121   0.770   0.394 -0.1979 -0.1855  0.1831
13966SOL    HW243906   7.239   0.851   0.442  1.3657 -2.3145  0.0752
13967SOL     OW43907   8.616   1.509  10.722 -0.3783  0.1025 -0.5811
13967SOL    HW143908   8.643   1.590  10.679 -1.0600  1.1931  0.9661
13967SOL    HW243909   8.666   1.441  10.678  1.4715  1.5412 -0.8075
13968SOL     OW43910   5.913   8.653   6.735  0.6768 -0.2352  0.1081
13968SOL    HW143911   5.894   8.600   6.658  1.0325  1.0356 -0.8695
13968SOL    HW243912   5.843   8.631   6.797 -0.4120 -0.2290 -1.0965
13969SOL     OW43913   9.819   9.699   4.710 -0.3880  0.5124 -0.1238
13969SOL    HW143914   9.847   9.704   4.802 -2.3200  0.3665  0.5175
13969SOL    HW243915   9.887   9.746   4.662  1.0120  0.0386  1.2864
13970SOL     OW43916   3.276   2.641   8.793  0.1983  0.0089 -0.0045
13970SOL    HW143917   3.266   2.591   8.873  0.8421  0.6289  0.4788
13970SOL    HW243918   3.301   2.577   8.727  0.6868 -0.3634  0.5288
13971SOL     OW43919   3.309   1.844   9.284  0.1081  0.2123  0.2505
13971SOL    HW143920   3.280   1.753   9.283  1.4048 -0.3010  2.1044
13971SOL    HW243921   3.314   1.866   9.377  1.8659  1.4507 -0.0772
13972SOL     OW43922   4.904   7.101   1.926  0.1943 -0.0647  0.3173
13972SOL    HW143923   4.820   7.068   1.959  1.1078 -1.0810  1.7853
13972SOL    HW243924   4.930   7.039   1.858 -0.4717  0.5480 -0.5084
13973SOL     OW43925   2.971  10.765   6.335  0.2808 -0.3036  0.3020
13973SOL    HW143926   3.066  10.777   6.341  0.4262  0.0544 -1.7996
13973SOL    HW243927   2.952  10.691   6.392  1.4718  0.9775  2.4929
13974SOL     OW43928  10.680   7.585   2.781 -0.0154  0.1095 -0.1998
13974SOL    HW143929  10.658   7.605   2.690  0.3940  3.3173  0.2775
13974SOL    HW243930  10.597   7.593   2.828 -0.3096 -1.9808 -0.2996
13975SOL     OW43931   3.916   9.098   5.985 -0.3468 -0.5368 -0.0218
13975SOL    HW143932   3.932   9.146   6.066 -2.0465 -0.2801  0.1974
13975SOL    HW243933   3.859   9.026   6.012 -1.5701 -0.0026 -1.1034
13976SOL     OW43934   6.985   5.688   8.775 -0.3251  0.2062  0.5021
13976SOL    HW143935   6.989   5.683   8.679  0.2211 -1.0238  0.5656
13976SOL    HW243936   7.013   5.778   8.795  2.1960 -0.2972 -0.3954
13977SOL     OW43937   0.810   0.395   9.361  0.4605  0.1419  0.2530
13977SOL    HW143938   0.796   0.478   9.316  2.3772  2.0043  2.7984
13977SOL    HW243939   0.864   0.344   9.300  2.3184  2.2535 -0.0131
13978SOL     OW43940   2.840   5.912   2.980  0.9267  0.0209  0.4973
13978SOL    HW143941   2.762   5.968   2.986  0.8340 -0.0957  0.3819
13978SOL    HW243942   2.807   5.828   2.947  1.3574  0.5229 -1.3314
13979SOL     OW43943   0.665   9.347   9.024  0.4154  0.0788  0.2190
13979SOL    HW143944   0.634   9.315   8.940  0.0389  0.3540  0.2516
13979SOL    HW243945   0.719   9.423   9.002  2.2728 -1.2293  0.0468
13980SOL     OW43946   7.580   4.676  10.808  0.3940  0.2225 -0.5142
13980SOL    HW143947   7.551   4.744  10.747 -0.1924  0.8546  0.4436
13980SOL    HW243948   7.551   4.707  10.894 -0.4727 -1.5517 -0.1318
13981SOL     OW43949   9.869   9.939   5.292 -0.5432  0.0749  0.0678
13981SOL    HW143950   9.923   9.907   5.220 -0.1678  0.4864  0.1630
13981SOL    HW243951   9.927   9.943   5.367 -0.1195  2.5055 -0.3134
13982SOL     OW43952   3.395   2.468   0.490  0.2605  0.4946 -0.0508
13982SOL    HW143953   3.349   2.403   0.437  0.1090  1.0568 -0.6310
13982SOL    HW243954   3.326   2.513   0.538  0.2671  0.8207 -0.3369
13983SOL     OW43955   7.878   7.909   5.568  0.0312  0.1022 -0.4141
13983SOL    HW143956   7.850   7.873   5.484  0.0143 -0.1332 -0.3084
13983SOL    HW243957   7.879   7.834   5.627 -0.0284  0.2812 -0.1847
13984SOL     OW43958   7.231   6.042   3.752 -0.3454  0.3232 -0.0652
13984SOL    HW143959   7.232   5.966   3.809 -0.3493  0.0388 -0.4425
13984SOL    HW243960   7.140   6.049   3.722 -0.3504  0.4900 -0.0145
13985SOL     OW43961   3.462   7.360   6.218 -0.3205  0.1474 -0.3794
13985SOL    HW143962   3.492   7.425   6.282  0.6396  0.1694 -0.8309
13985SOL    HW243963   3.539   7.305   6.201 -0.4556  0.3396 -1.7525
13986SOL     OW43964   2.770   8.488   2.367 -0.0353 -0.1390  0.3208
13986SOL    HW143965   2.747   8.505   2.275  1.9153  0.7581 -0.0680
13986SOL    HW243966   2.713   8.416   2.393 -1.1311  0.0466 -1.3823
13987SOL     OW43967   5.599   7.222   5.338  0.4893 -0.8095  0.0712
13987SOL    HW143968   5.689   7.190   5.348  0.7271 -0.8400 -1.8864
13987SOL    HW243969   5.545   7.143   5.336  0.4542 -0.8112  0.7134
13988SOL     OW43970   3.168   1.353   3.226  0.4854  0.1742 -0.4854
13988SOL    HW143971   3.209   1.312   3.149  1.3898  0.6350 -0.2657
13988SOL    HW243972   3.212   1.438   3.233 -1.1412  1.0765 -0.7583
13989SOL     OW43973   8.391   4.074   1.621 -0.5053 -0.3529 -0.3367
13989SOL    HW143974   8.433   4.000   1.663  1.1778  0.2494 -0.8830
13989SOL    HW243975   8.304   4.079   1.662  0.7619 -0.2193  2.5715
13990SOL     OW43976   2.115   4.537   0.218  0.1181 -0.0861 -0.0278
13990SOL    HW143977   2.211   4.533   0.218  0.0787 -1.3012 -0.3352
13990SOL    HW243978   2.093   4.589   0.141  0.5554  1.5286  0.8907
13991SOL     OW43979   4.584   0.153  10.893 -0.0744  0.3008  0.1504
13991SOL    HW143980   4.493   0.181  10.897 -0.8038 -1.5195 -1.8895
13991SOL    HW243981   4.598   0.103  10.973 -1.2317 -0.3129 -0.0142
13992SOL     OW43982   1.929   7.210   5.370  0.3504 -0.0306  0.2498
13992SOL    HW143983   1.928   7.182   5.462  1.2952 -0.7090  0.0743
13992SOL    HW243984   1.906   7.131   5.321 -0.9288  0.5237 -0.0726
13993SOL     OW43985   2.669   9.379   8.026 -0.4110  0.0329 -0.5350
13993SOL    HW143986   2.748   9.370   8.079 -1.7000 -1.4562  1.2540
13993SOL    HW243987   2.674   9.469   7.992  2.4955 -0.3213 -1.3405
13994SOL     OW43988   2.417   2.120   0.939  0.4815 -0.2738  0.3116
13994SOL    HW143989   2.347   2.129   1.003 -0.5218  0.6243 -0.8745
13994SOL    HW243990   2.492   2.165   0.978 -0.0137 -0.0447  1.0033
13995SOL     OW43991   4.205   4.933   5.847 -0.0374  0.1677 -0.2446
13995SOL    HW143992   4.207   4.861   5.910 -1.4647  0.1946 -0.1363
13995SOL    HW243993   4.266   4.998   5.882  2.0905 -1.3690 -0.8773
13996SOL     OW43994   8.658   6.660   1.202 -0.6555  0.3249  0.3219
13996SOL    HW143995   8.743   6.700   1.187 -1.1922  1.4912  0.3225
13996SOL    HW243996   8.649   6.658   1.297 -0.2914 -0.5543  0.3486
13997SOL     OW43997   2.641   5.343   5.772 -0.3022  0.3810 -0.6643
13997SOL    HW143998   2.644   5.305   5.860  1.7271 -0.6488 -1.1335
13997SOL    HW243999   2.681   5.277   5.715 -0.3652  1.5703 -2.1607
13998SOL     OW44000   6.949   5.062   2.086  0.5577  0.0201  0.0472
13998SOL    HW144001   7.000   5.046   2.165  4.0661  2.5541 -1.4621
13998SOL    HW244002   6.874   5.113   2.116  0.6838 -0.8247  1.9351
13999SOL     OW44003   8.295   8.035   4.345 -0.8002 -0.4936  0.6300
13999SOL    HW144004   8.304   8.081   4.261 -0.8900 -2.3745 -0.4672
13999SOL    HW244005   8.383   8.033   4.381 -0.6147 -0.3681  0.1944
14000SOL     OW44006   1.687   7.768   7.551  0.3040 -0.2599 -0.6266
14000SOL    HW144007   1.595   7.772   7.576  0.0618 -1.1381 -1.3076
14000SOL    HW244008   1.686   7.771   7.455  0.8375 -2.0036 -0.7294
14001SOL     OW44009   4.071  10.013   3.420  0.5470 -0.7089 -0.3124
14001SOL    HW144010   4.015   9.994   3.496 -0.7184 -1.1165 -1.3091
14001SOL    HW244011   4.114  10.095   3.442 -0.4051 -0.4096  0.5245
14002SOL     OW44012   2.008   1.350   4.881  0.3914  0.9180 -0.1430
14002SOL    HW144013   2.093   1.357   4.837  0.5248  0.8522  0.0977
14002SOL    HW244014   2.019   1.274   4.939  0.4562  1.4307  0.5219
14003SOL     OW44015   9.422  10.682   6.131 -0.2086 -0.1435  0.3862
14003SOL    HW144016   9.429  10.590   6.105  1.4331 -0.0169  0.2559
14003SOL    HW244017   9.329  10.697   6.144 -0.6248 -1.4919 -0.8244
14004SOL     OW44018   9.870  10.223   6.824  0.2785  0.2320 -0.2383
14004SOL    HW144019   9.845  10.131   6.822 -0.1386  0.3422 -0.3072
14004SOL    HW244020   9.805  10.264   6.882  0.5633  0.4509 -0.0707
14005SOL     OW44021   4.468   3.299   8.454  0.0590  0.4723  0.3772
14005SOL    HW144022   4.525   3.277   8.528  1.5985 -0.0528 -0.8905
14005SOL    HW244023   4.407   3.225   8.448  2.7169 -1.8073 -1.4545
14006SOL     OW44024   4.390   3.651   1.579 -0.1446  0.0069 -0.4181
14006SOL    HW144025   4.310   3.658   1.528 -0.3582 -0.7091 -0.2032
14006SOL    HW244026   4.373   3.579   1.640 -0.6037  2.0158  1.9658
14007SOL     OW44027   6.593  10.101   4.329  0.3053 -0.4895 -0.0395
14007SOL    HW144028   6.566  10.179   4.281  1.2893 -0.3391 -0.3747
14007SOL    HW244029   6.512  10.058   4.354 -0.2996  1.2374  1.1489
14008SOL     OW44030   0.121  10.449   3.228 -0.5849  0.0799 -0.1917
14008SOL    HW144031   0.212  10.475   3.209 -0.9564  1.5362 -0.0993
14008SOL    HW244032   0.080  10.443   3.142 -0.7663  0.8833 -0.1693
14009SOL     OW44033   1.714   3.648   0.829 -0.2726 -0.0363 -0.2393
14009SOL    HW144034   1.660   3.683   0.899  0.9409 -0.0134  0.7253
14009SOL    HW244035   1.664   3.665   0.749 -0.5859  2.1809  0.3654
14010SOL     OW44036   8.330   2.131   4.038 -0.7525  0.2318 -0.2720
14010SOL    HW144037   8.297   2.217   4.063 -4.5580 -1.0670 -0.2688
14010SOL    HW244038   8.357   2.091   4.121 -0.3117  0.8860 -0.0949
14011SOL     OW44039   1.814   5.003   3.757 -0.5010 -0.6489  0.2300
14011SOL    HW144040   1.781   4.942   3.691 -2.9633 -0.4266  1.1600
14011SOL    HW244041   1.791   4.964   3.841  0.5872  0.1442  0.9344
14012SOL     OW44042   1.960   8.263  10.502 -0.6712 -0.0016  0.4998
14012SOL    HW144043   1.988   8.176  10.473  0.2292  0.5763 -0.4646
14012SOL    HW244044   1.889   8.286  10.442 -0.0333  0.4458 -0.1021
14013SOL     OW44045   2.357   0.995   0.546  0.3136  0.2041 -0.0698
14013SOL    HW144046   2.318   0.930   0.603 -2.1070  0.5704 -1.1609
14013SOL    HW244047   2.328   1.079   0.581 -0.1716  0.4827 -1.0986
14014SOL     OW44048   9.345  10.789   2.163  0.1417 -0.2791  0.3167
14014SOL    HW144049   9.258  10.772   2.126  0.0004 -0.8518  0.8868
14014SOL    HW244050   9.398  10.815   2.089 -0.3331 -0.6483 -0.1623
14015SOL     OW44051  10.417  11.021  10.314 -0.1358  0.0617  0.1125
14015SOL    HW144052  10.506  10.990  10.298 -0.1622  0.0420 -0.0005
14015SOL    HW244053  10.427  11.109  10.349  0.1172 -1.2488  3.7916
14016SOL     OW44054   4.157   2.107  10.675  0.9852 -0.0804  0.4501
14016SOL    HW144055   4.216   2.035  10.652 -1.6773 -1.7234 -1.9714
14016SOL    HW244056   4.142   2.153  10.593 -1.0958  0.1845  0.9045
14017SOL     OW44057   2.600   0.406   4.323  0.0331  0.5253  0.2635
14017SOL    HW144058   2.618   0.392   4.230 -0.9628 -1.0564  0.2645
14017SOL    HW244059   2.560   0.493   4.327  0.5637  0.8275 -0.7083
14018SOL     OW44060   0.065   7.943   2.817  0.3581  0.1564 -0.1931
14018SOL    HW144061   0.040   7.964   2.908  4.6459 -1.3087  1.5788
14018SOL    HW244062   0.042   7.851   2.807 -1.5049  0.6924 -1.2556
14019SOL     OW44063   2.750   3.133   5.021 -0.0514 -0.1394 -0.4143
14019SOL    HW144064   2.830   3.114   5.070 -0.7851  0.0715  0.9000
14019SOL    HW244065   2.774   3.117   4.930  1.0749 -1.4834  0.0800
14020SOL     OW44066   0.997   9.525   0.997  0.3947  0.3911 -0.4368
14020SOL    HW144067   1.086   9.536   0.965  0.6024 -1.3563 -0.5156
14020SOL    HW244068   0.965   9.445   0.955 -1.0526  0.7243 -0.0480
14021SOL     OW44069   7.740   2.824   8.354 -0.7692 -0.4096 -0.4515
14021SOL    HW144070   7.707   2.877   8.426 -0.5126 -1.2785  0.3171
14021SOL    HW244071   7.834   2.843   8.351 -0.7069 -0.6941 -0.2853
14022SOL     OW44072   0.996   0.423   2.279 -0.2532  0.4731  0.0919
14022SOL    HW144073   0.991   0.340   2.231 -0.1043  0.7017 -0.3263
14022SOL    HW244074   0.993   0.490   2.211  0.7617  0.7920  0.3326
14023SOL     OW44075   3.377  10.033   4.397 -0.4326  0.6747 -0.0978
14023SOL    HW144076   3.307   9.968   4.396 -1.3381  1.5592  1.7992
14023SOL    HW244077   3.345  10.103   4.341 -1.3019  1.2785  1.1247
14024SOL     OW44078   0.829   0.874   3.596  0.7514  0.2640  0.3083
14024SOL    HW144079   0.856   0.933   3.526 -0.6218 -0.3071 -0.7596
14024SOL    HW244080   0.899   0.809   3.602  0.9350  0.3828 -0.4714
14025SOL     OW44081  10.862   0.128   5.919 -0.5461 -0.1802  0.2566
14025SOL    HW144082  10.770   0.105   5.933 -0.9474  0.6396 -0.8500
14025SOL    HW244083  10.887   0.080   5.840  0.3673 -1.3502  1.2146
14026SOL     OW44084   3.417  10.526   6.446 -0.0827  0.7499 -0.1281
14026SOL    HW144085   3.474  10.583   6.497 -0.4874  1.3129 -0.2970
14026SOL    HW244086   3.405  10.449   6.501 -1.7357  1.9692  1.3218
14027SOL     OW44087   0.889   7.776   4.839  0.2441  0.0925 -0.2092
14027SOL    HW144088   0.881   7.702   4.778  0.6484  0.7507 -1.0787
14027SOL    HW244089   0.983   7.787   4.850  0.1797 -0.6411  1.3344
14028SOL     OW44090   2.302   2.736   2.117 -0.0307  0.4503  0.0028
14028SOL    HW144091   2.390   2.730   2.155  1.2215 -0.9192 -2.8067
14028SOL    HW244092   2.254   2.663   2.156  0.4820  0.4435  0.6319
14029SOL     OW44093   6.688  10.477   6.893 -0.3701 -0.8413 -0.4495
14029SOL    HW144094   6.611  10.437   6.933 -1.8329  1.8881 -0.3207
14029SOL    HW244095   6.751  10.405   6.886 -2.1652 -2.7257  1.3138
14030SOL     OW44096   2.775   6.382   5.827 -0.1685 -0.1398  0.5319
14030SOL    HW144097   2.832   6.458   5.831  0.4251 -0.5832  0.6093
14030SOL    HW244098   2.799   6.330   5.904 -0.7898 -0.2510  0.6573
14031SOL     OW44099   2.900  10.849   1.916 -0.1112  0.3210  0.1842
14031SOL    HW144100   2.949  10.767   1.923  0.8582  0.9029  0.4326
14031SOL    HW244101   2.833  10.844   1.984  1.3723  0.6761  1.7267
14032SOL     OW44102   3.875   4.876   2.934  0.0977  0.1353  0.1961
14032SOL    HW144103   3.896   4.925   3.014  1.4184 -3.0455  1.9868
14032SOL    HW244104   3.791   4.834   2.953  0.0245 -0.0156 -0.4348
14033SOL     OW44105   9.439   3.424   2.322  0.4969  0.4373  0.2474
14033SOL    HW144106   9.531   3.434   2.345  0.7725 -2.0537  0.5081
14033SOL    HW244107   9.395   3.413   2.406  0.1577  0.3188  0.0555
14034SOL     OW44108   2.779   5.994   4.459  0.2681 -0.0306  0.2787
14034SOL    HW144109   2.738   5.919   4.504  2.6784 -0.8881  1.2143
14034SOL    HW244110   2.751   6.070   4.510 -1.3221 -0.3929 -0.0054
14035SOL     OW44111   0.683   7.871   5.532 -0.6137 -0.2340  0.4942
14035SOL    HW144112   0.709   7.821   5.609 -0.2709  0.6481  0.9740
14035SOL    HW244113   0.625   7.939   5.567 -1.3110 -0.4683 -0.1854
14036SOL     OW44114   4.329   8.417   2.380 -0.0169  0.4168 -0.5414
14036SOL    HW144115   4.350   8.503   2.416  0.6175  0.3445 -0.7351
14036SOL    HW244116   4.253   8.388   2.431  2.7362 -1.1183  3.1763
14037SOL     OW44117  10.394   2.164   8.630 -0.0327 -0.4737  0.1032
14037SOL    HW144118  10.483   2.183   8.600 -0.3403  3.4893  1.1699
14037SOL    HW244119  10.397   2.179   8.725 -1.9223  0.2022  0.1001
14038SOL     OW44120   4.173   1.665   9.761 -0.0439 -0.2189  0.2348
14038SOL    HW144121   4.187   1.659   9.855 -1.0064  0.4417  0.4395
14038SOL    HW244122   4.104   1.602   9.742  1.0668 -1.3136 -0.2623
14039SOL     OW44123   8.178   1.750   6.015  0.4564  0.4491 -0.4468
14039SOL    HW144124   8.097   1.748   6.067  0.9954 -3.0090  0.5240
14039SOL    HW244125   8.160   1.692   5.942  2.1525 -0.7682  0.0373
14040SOL     OW44126   8.030   2.592   8.239  0.6144  0.2249  0.1412
14040SOL    HW144127   7.983   2.602   8.322  0.9539  0.9626  0.2569
14040SOL    HW244128   8.002   2.507   8.206 -0.1487  0.2790  0.6146
14041SOL     OW44129   4.985   8.282   7.082  0.0000 -0.0060 -0.4397
14041SOL    HW144130   5.028   8.206   7.122 -1.7574 -0.2136  1.2223
14041SOL    HW244131   4.900   8.250   7.055 -0.0823  0.9687 -1.3839
14042SOL     OW44132   7.878   5.465   2.679  0.0113  0.0891  0.1273
14042SOL    HW144133   7.957   5.513   2.704 -1.0735  2.6927 -1.0802
14042SOL    HW244134   7.883   5.459   2.583  0.1167 -2.3682  0.2265
14043SOL     OW44135   6.046   2.657   7.667 -0.0347  0.1115 -0.2042
14043SOL    HW144136   6.069   2.738   7.711 -0.5059  0.1227  0.0300
14043SOL    HW244137   5.955   2.670   7.639 -0.7294 -0.9708  1.3642
14044SOL     OW44138   6.485   9.172   6.513  0.0075  0.1626 -0.2934
14044SOL    HW144139   6.461   9.081   6.532  0.9510 -0.3321 -1.3079
14044SOL    HW244140   6.579   9.176   6.531 -0.5202  1.7731  2.6339
14045SOL     OW44141  10.991   1.859   7.018 -0.4570  0.3099  0.0657
14045SOL    HW144142  10.963   1.829   6.932 -1.9581  0.3076  0.5256
14045SOL    HW244143  10.930   1.818   7.079 -0.7310  1.9486  0.9541
14046SOL     OW44144   5.448   9.254   5.557  0.2760 -0.7121 -0.4646
14046SOL    HW144145   5.392   9.331   5.563  0.4559 -0.5819 -0.4762
14046SOL    HW244146   5.521   9.272   5.616  1.5674  0.1562 -2.2561
14047SOL     OW44147   4.019  10.402   2.954 -0.1868 -0.3561  0.0772
14047SOL    HW144148   4.064  10.364   2.879 -0.6555 -0.8825  0.0519
14047SOL    HW244149   3.963  10.331   2.986 -1.3419  0.4160 -0.1783
14048SOL     OW44150   8.124   0.116   8.995 -0.1327 -0.3423 -0.2108
14048SOL    HW144151   8.086   0.074   9.072 -0.5342 -1.3611 -0.9376
14048SOL    HW244152   8.053   0.171   8.961 -0.1991 -0.4595 -0.2636
14049SOL     OW44153   4.450  10.665   0.408  0.3024  0.0118 -0.5653
14049SOL    HW144154   4.516  10.608   0.445 -0.3664  0.5982  1.7238
14049SOL    HW244155   4.395  10.608   0.355  2.0692 -0.6304 -1.7753
14050SOL     OW44156   2.067   9.298   0.716  0.3054 -0.1191  0.1366
14050SOL    HW144157   1.987   9.349   0.701  0.5143  0.4549  0.9154
14050SOL    HW244158   2.138   9.360   0.705  0.8715 -1.1951 -3.2841
14051SOL     OW44159   8.557   1.232   4.185 -0.7506  0.7781  0.7565
14051SOL    HW144160   8.607   1.313   4.171  0.6751 -0.3212 -0.9076
14051SOL    HW244161   8.582   1.204   4.273  2.3443 -0.1541 -0.3008
14052SOL     OW44162   3.271   9.565   1.591  0.5323 -0.2000 -0.0545
14052SOL    HW144163   3.324   9.492   1.559 -1.1797 -1.0470 -1.1065
14052SOL    HW244164   3.305   9.642   1.545 -0.5084 -1.0651 -2.3825
14053SOL     OW44165   0.123   0.657   7.494 -0.2264 -0.0860 -0.3014
14053SOL    HW144166   0.063   0.718   7.538 -0.0004  0.5615 -0.8787
14053SOL    HW244167   0.200   0.654   7.552 -1.0756 -1.4787  0.8174
14054SOL     OW44168   4.879   1.099   5.947 -0.4722  0.0941  0.0146
14054SOL    HW144169   4.967   1.102   5.984  0.2130 -1.8549 -1.3028
14054SOL    HW244170   4.854   1.007   5.953 -2.0785  0.4789 -0.4205
14055SOL     OW44171  10.891   2.603  10.791 -0.4631 -0.1829  0.7541
14055SOL    HW144172  10.902   2.513  10.760 -0.4689  0.3374 -0.8535
14055SOL    HW244173  10.975   2.625  10.832 -0.2460 -0.7068  0.5959
14056SOL     OW44174   4.125  10.362   6.272  0.3004  0.4572 -0.0152
14056SOL    HW144175   4.055  10.426   6.278 -0.9290 -0.9250  0.9390
14056SOL    HW244176   4.100  10.306   6.199 -0.4568 -1.0043  1.3176
14057SOL     OW44177   2.102   4.093   5.266 -0.2142  0.3665 -0.7231
14057SOL    HW144178   2.195   4.072   5.259 -0.4007 -0.8690  0.2124
14057SOL    HW244179   2.099   4.188   5.268  1.0354  0.4204 -0.7396
14058SOL     OW44180   5.416   2.088   4.142  0.3867 -0.8455 -0.3251
14058SOL    HW144181   5.504   2.073   4.108  1.6459  0.8984  1.8444
14058SOL    HW244182   5.416   2.045   4.228 -0.8716 -0.8246 -0.2951
14059SOL     OW44183   6.067  10.479   8.904 -0.2902 -0.3474  0.2007
14059SOL    HW144184   6.006  10.407   8.890  0.2640 -0.7336 -0.2799
14059SOL    HW244185   6.151  10.436   8.921 -0.2303  0.1669  1.3025
14060SOL     OW44186   8.601   9.678   4.535  0.0401  0.4927 -0.1127
14060SOL    HW144187   8.612   9.665   4.441  2.7567  0.5959  0.1138
14060SOL    HW244188   8.516   9.638   4.555 -0.1650 -0.3869 -2.4222
14061SOL     OW44189   8.647   4.570   4.845  0.4534  0.9636 -0.3048
14061SOL    HW144190   8.629   4.560   4.751 -0.5629  0.7585 -0.1023
14061SOL    HW244191   8.578   4.520   4.888  1.0656  0.8442  0.5560
14062SOL     OW44192   3.902   4.539   7.101  0.3350  0.3636  0.0977
14062SOL    HW144193   3.850   4.478   7.049  1.8456 -0.8655 -0.0512
14062SOL    HW244194   3.975   4.563   7.044 -0.3357  2.5812  0.0573
14063SOL     OW44195   3.976   1.483   5.532  0.0697 -0.7740  0.1123
14063SOL    HW144196   3.981   1.465   5.438  1.7633 -1.6192  0.3326
14063SOL    HW244197   3.956   1.577   5.538 -1.5791 -1.0031 -1.0561
14064SOL     OW44198   3.250   1.589   9.310  0.7306 -0.2153  0.7200
14064SOL    HW144199   3.242   1.558   9.220 -1.0393  0.8867  0.4598
14064SOL    HW244200   3.264   1.509   9.361 -1.7677 -1.3000 -0.1363
14065SOL     OW44201   8.672   1.834   1.350  1.2798 -0.0635 -0.2678
14065SOL    HW144202   8.687   1.912   1.297  0.1970 -0.2244 -0.8403
14065SOL    HW244203   8.577   1.830   1.361  1.4708  0.1953  2.0543
14066SOL     OW44204   0.333   5.887   3.191 -0.0298 -0.0569  0.1366
14066SOL    HW144205   0.346   5.830   3.115 -1.8592  0.6448 -0.7728
14066SOL    HW244206   0.279   5.836   3.251  1.5685 -0.6807  1.1132
14067SOL     OW44207   0.685  10.492   1.153 -0.4037  0.4524 -0.2862
14067SOL    HW144208   0.669  10.402   1.124  0.7025  0.0424  0.2924
14067SOL    HW244209   0.604  10.539   1.134 -0.6341 -0.4167 -1.5587
14068SOL     OW44210   3.234   4.143   7.025 -0.1008 -0.1246  0.3233
14068SOL    HW144211   3.279   4.163   6.943  1.1404 -1.0089  0.7630
14068SOL    HW244212   3.226   4.228   7.069 -0.7272  0.3496 -0.6660
14069SOL     OW44213  10.086   1.263   7.648 -0.7263  0.5780  0.0842
14069SOL    HW144214  10.035   1.312   7.712 -0.8472  0.7842 -0.1674
14069SOL    HW244215  10.153   1.217   7.700 -0.7304  0.8594  0.3399
14070SOL     OW44216   2.195  10.565   3.455  0.2505 -0.0347  0.3512
14070SOL    HW144217   2.182  10.471   3.444  0.1495 -0.0941  0.9297
14070SOL    HW244218   2.275  10.584   3.407 -0.8109 -0.0352 -1.5110
14071SOL     OW44219   9.757   2.234   2.474  0.5280  0.6457  0.5189
14071SOL    HW144220   9.831   2.215   2.532  1.4670  0.4568 -0.7083
14071SOL    HW244221   9.782   2.316   2.430  0.1436  0.4245 -0.1174
14072SOL     OW44222   2.111   9.410  10.458 -0.2479  0.4659 -0.2291
14072SOL    HW144223   2.129   9.490  10.409  1.0333  0.6349  0.4785
14072SOL    HW244224   2.025   9.382  10.427  0.1785  0.9800 -1.9816
14073SOL     OW44225   4.615   6.663   1.059 -0.3384 -0.3556 -0.6342
14073SOL    HW144226   4.605   6.619   0.974  0.1908  0.7315 -1.2808
14073SOL    HW244227   4.654   6.596   1.115 -0.3210 -0.9713 -1.3545
14074SOL     OW44228   4.342   9.259   5.641  0.1756 -0.0025  0.1194
14074SOL    HW144229   4.300   9.288   5.722 -1.9801 -2.8329  0.1500
14074SOL    HW244230   4.289   9.297   5.571 -0.5231 -0.9269  0.1275
14075SOL     OW44231   2.119   9.319   9.420  0.5358  0.2587  0.4051
14075SOL    HW144232   2.165   9.267   9.486  0.7327 -2.0654 -1.4227
14075SOL    HW244233   2.034   9.277   9.412  0.0338  1.3093  0.0841
14076SOL     OW44234   7.907   9.045   4.219  0.4264  0.6554 -0.1139
14076SOL    HW144235   7.848   9.023   4.147 -0.6008 -0.0397  0.9042
14076SOL    HW244236   7.894   8.975   4.283  1.1312  1.3800  0.8619
14077SOL     OW44237   5.807   1.993   8.300 -0.6754  0.0728  0.4513
14077SOL    HW144238   5.715   2.014   8.316 -0.2417  3.0925 -0.2600
14077SOL    HW244239   5.833   1.940   8.375 -2.8081 -0.2828  1.0085
14078SOL     OW44240   2.760  10.659   4.300  0.8668  0.0420  0.4665
14078SOL    HW144241   2.729  10.569   4.315 -0.1145 -0.0396 -1.6140
14078SOL    HW244242   2.680  10.711   4.295  1.3795  0.8646  0.6054
14079SOL     OW44243   5.782   9.777   3.048 -0.2019  0.1571 -0.1984
14079SOL    HW144244   5.702   9.811   3.007 -0.1726 -0.2832 -0.6275
14079SOL    HW244245   5.853   9.815   2.996 -0.1335  0.4183  0.0827
14080SOL     OW44246   1.536   1.704   8.436  0.5168 -0.5435  0.2245
14080SOL    HW144247   1.516   1.619   8.397  0.0696 -0.1944 -0.3357
14080SOL    HW244248   1.618   1.730   8.395 -0.4512  0.2757 -1.3004
14081SOL     OW44249   7.310   9.287   1.980  0.4472  0.0216  0.8492
14081SOL    HW144250   7.376   9.223   2.005  1.8180  1.2830  0.6039
14081SOL    HW244251   7.342   9.370   2.015 -1.3943  0.5612  1.3624
14082SOL     OW44252   8.203   0.268   2.008  0.1033  0.1746  0.0241
14082SOL    HW144253   8.181   0.233   1.921 -0.0443  0.5651 -0.1001
14082SOL    HW244254   8.119   0.298   2.043  0.1126 -0.2798  0.4409
14083SOL     OW44255   9.578   1.954   4.055 -0.8009  0.3297 -0.5182
14083SOL    HW144256   9.658   2.005   4.042  0.3154 -1.3050 -0.3291
14083SOL    HW244257   9.580   1.889   3.985 -1.1336 -0.7274  0.4272
14084SOL     OW44258   6.336   0.581   0.461  0.1730  0.0851  0.7799
14084SOL    HW144259   6.361   0.504   0.512  0.3803 -0.2331  0.2069
14084SOL    HW244260   6.253   0.557   0.420 -0.1727  0.4718  1.2457
14085SOL     OW44261   3.130   8.371  10.936 -0.3105  0.0421  0.0267
14085SOL    HW144262   3.079   8.450  10.954 -0.1509 -0.2599  2.0381
14085SOL    HW244263   3.066   8.300  10.945 -0.2852 -0.1175 -0.9976
14086SOL     OW44264   2.372  10.694   3.093  0.3733 -0.1699 -0.2520
14086SOL    HW144265   2.411  10.651   3.169  1.7512 -0.3653 -1.0290
14086SOL    HW244266   2.416  10.654   3.018 -0.4320  0.5350 -1.1266
14087SOL     OW44267   8.422   1.088   5.432 -0.1421  0.2284  0.3627
14087SOL    HW144268   8.484   1.136   5.377 -2.3921  1.9210 -0.8278
14087SOL    HW244269   8.469   1.074   5.514  2.4118 -0.1393 -1.0503
14088SOL     OW44270   1.281   5.353   9.199  0.0412 -0.3946  0.2415
14088SOL    HW144271   1.271   5.273   9.250  1.1033 -0.7986 -0.1644
14088SOL    HW244272   1.336   5.409   9.252  2.0754 -1.2408 -0.8688
14089SOL     OW44273   2.278   7.220   4.170  0.0667 -0.2184 -0.1151
14089SOL    HW144274   2.190   7.234   4.134  0.0935  1.0658  0.2931
14089SOL    HW244275   2.278   7.268   4.253  1.8284  1.6594 -1.1186
14090SOL     OW44276   6.799   3.660   1.112  0.0016 -0.3781  0.3700
14090SOL    HW144277   6.797   3.698   1.200 -1.7793  0.9953 -0.1829
14090SOL    HW244278   6.887   3.678   1.080 -0.2003  1.7970  0.8344
14091SOL     OW44279   2.725   8.730   4.070 -0.0434  0.2286 -0.2536
14091SOL    HW144280   2.667   8.675   4.016  0.7952 -0.7814 -0.1588
14091SOL    HW244281   2.775   8.781   4.006 -0.5010  0.5582 -0.3572
14092SOL     OW44282   1.878  10.552   8.832 -0.1846 -0.0629 -0.2597
14092SOL    HW144283   1.946  10.491   8.861 -0.2971  0.1237  0.4196
14092SOL    HW244284   1.859  10.526   8.742  1.0085  0.0885 -0.5751
14093SOL     OW44285   1.424  11.087   2.542  0.6244  0.5714  0.5272
14093SOL    HW144286   1.424  11.068   2.636 -0.5700 -1.6354  0.1502
14093SOL    HW244287   1.384  11.173   2.535 -0.8130  0.0886  1.9786
14094SOL     OW44288   1.444   7.278   8.007  0.2121 -0.3918 -0.9777
14094SOL    HW144289   1.458   7.331   8.085 -1.0986  0.4559 -1.2978
14094SOL    HW244290   1.523   7.290   7.954  0.8382 -0.4853 -0.0825
14095SOL     OW44291   4.289  10.405   8.991  0.0488 -0.2434  0.2956
14095SOL    HW144292   4.327  10.465   9.055  1.0800 -0.3401 -0.2076
14095SOL    HW244293   4.308  10.445   8.906 -0.1325 -0.7895 -0.0085
14096SOL     OW44294   6.227   6.626   4.458  0.0681 -0.5337 -0.1410
14096SOL    HW144295   6.294   6.631   4.389 -0.7722  2.0600 -0.8715
14096SOL    HW244296   6.274   6.589   4.534  1.8908 -0.3204 -1.1036
14097SOL     OW44297  10.105   0.145   3.625  0.5297 -0.2444  0.0149
14097SOL    HW144298  10.094   0.232   3.663  0.6559 -0.2150 -0.0164
14097SOL    HW244299  10.139   0.162   3.537 -0.2284 -0.2876 -0.2975
14098SOL     OW44300   8.431  10.337  10.077  0.2655 -0.3272 -0.0907
14098SOL    HW144301   8.431  10.249  10.040 -2.1735 -0.1063 -0.8377
14098SOL    HW244302   8.353  10.340  10.133  2.2900  0.2689  2.9037
14099SOL     OW44303   1.120   9.026   3.803  0.2175 -0.5031  0.0001
14099SOL    HW144304   1.162   9.034   3.718  0.2734  0.3528  0.1011
14099SOL    HW244305   1.192   9.030   3.866  0.3505 -2.6203  0.0709
14100SOL     OW44306   6.595   1.941   7.948  0.0371  0.1197  0.8077
14100SOL    HW144307   6.591   1.856   7.991 -1.1467  0.4372  1.3723
14100SOL    HW244308   6.641   1.924   7.865 -1.6048 -1.4071  0.1454
14101SOL     OW44309   3.640   3.675   3.330 -0.0080  0.4852  0.0207
14101SOL    HW144310   3.716   3.651   3.384  0.0633  3.0247  1.1958
14101SOL    HW244311   3.568   3.686   3.392 -1.4661 -1.9681 -1.0841
14102SOL     OW44312   2.563   5.849   6.816  0.2317  0.1535 -0.0447
14102SOL    HW144313   2.592   5.938   6.836  1.2413 -0.0863 -0.3899
14102SOL    HW244314   2.503   5.826   6.887 -2.4397  2.1997 -1.4572
14103SOL     OW44315   2.297  10.995   3.561  0.0933 -0.2411  0.1989
14103SOL    HW144316   2.328  11.082   3.587  0.9248 -0.7171  0.8637
14103SOL    HW244317   2.363  10.965   3.498 -0.4192 -0.2280 -0.3496
14104SOL     OW44318   3.533   4.381   2.716  0.3775 -0.0592 -0.6835
14104SOL    HW144319   3.546   4.468   2.679  1.7545  0.2787  0.5009
14104SOL    HW244320   3.460   4.392   2.777 -0.2761 -0.0443 -1.4578
14105SOL     OW44321   1.828   4.382   9.162 -0.4400  0.0531  0.2704
14105SOL    HW144322   1.864   4.370   9.250  1.5527 -1.7651 -0.6977
14105SOL    HW244323   1.760   4.316   9.155  0.3372 -0.7345  0.0087
14106SOL     OW44324   4.815   8.084   4.139  0.0869  0.0832 -0.2015
14106SOL    HW144325   4.854   8.172   4.142  0.3830 -0.0440 -0.2858
14106SOL    HW244326   4.872   8.036   4.079  0.3993 -0.4048  0.4809
14107SOL     OW44327   1.508   9.742   5.503 -0.0551  0.1426  0.3522
14107SOL    HW144328   1.438   9.804   5.485 -0.6271 -0.1597  1.4990
14107SOL    HW244329   1.588   9.794   5.496 -0.3099  0.3519 -1.6030
14108SOL     OW44330   6.436   3.219   7.710 -0.5229 -0.1777  0.0251
14108SOL    HW144331   6.480   3.157   7.652  1.3253  0.3010  0.8609
14108SOL    HW244332   6.448   3.182   7.798 -0.7614  0.5862  0.3869
14109SOL     OW44333   5.888   7.894   6.906  0.5489  0.1737  0.8853
14109SOL    HW144334   5.802   7.859   6.930  1.3953 -1.6672  1.4073
14109SOL    HW244335   5.951   7.830   6.939  2.1144  1.1581 -0.0160
14110SOL     OW44336   8.638  10.841   8.730  0.0802 -0.8515 -0.3371
14110SOL    HW144337   8.698  10.860   8.802 -0.1867  1.7105 -0.6956
14110SOL    HW244338   8.643  10.918   8.674 -1.4931 -1.7699 -1.8437
14111SOL     OW44339   8.382   0.006   3.313 -0.4348 -0.0580  0.3919
14111SOL    HW144340   8.374  -0.068   3.253 -0.4664  1.0458 -1.0361
14111SOL    HW244341   8.323  -0.014   3.385 -0.6153 -1.3074 -0.0828
14112SOL     OW44342   1.637   0.405   5.862 -0.0948  0.1240 -0.2496
14112SOL    HW144343   1.715   0.388   5.809  0.8366  1.2927  0.7006
14112SOL    HW244344   1.568   0.424   5.797  0.3783 -0.9657 -1.0981
14113SOL     OW44345   5.555   0.502   5.190  0.1292  0.6009  0.5820
14113SOL    HW144346   5.507   0.564   5.245 -1.5796 -2.0054  2.2138
14113SOL    HW244347   5.514   0.509   5.104 -0.5342  1.2027  0.9384
14114SOL     OW44348   9.984   1.989  10.509 -0.8239 -0.2075  0.0514
14114SOL    HW144349   9.993   1.981  10.604 -0.4878  1.0402  0.1417
14114SOL    HW244350   9.902   1.943  10.489 -2.3123  1.7142  1.3167
14115SOL     OW44351   2.578   9.105   8.064  0.4646 -0.9990  0.3252
14115SOL    HW144352   2.653   9.058   8.099 -0.3548 -0.8933  2.4005
14115SOL    HW244353   2.605   9.197   8.066  0.0865 -0.8943  1.7237
14116SOL     OW44354   5.128   2.053   4.478 -0.4038  0.2841 -0.2774
14116SOL    HW144355   5.073   2.073   4.554  1.5354 -0.5495  1.4504
14116SOL    HW244356   5.140   2.137   4.435 -2.5825  0.5668 -0.4563
14117SOL     OW44357   6.497  10.216   9.656 -0.1303  0.1065 -0.0334
14117SOL    HW144358   6.467  10.220   9.747 -0.0872  0.8433 -0.0438
14117SOL    HW244359   6.573  10.274   9.653  1.4617 -1.8645  0.0381
14118SOL     OW44360   9.685   9.411   1.323  0.5452 -0.0444 -0.5197
14118SOL    HW144361   9.637   9.338   1.284 -0.3389  1.1505 -1.7561
14118SOL    HW244362   9.642   9.489   1.288  2.5205  1.0791 -0.5705
14119SOL     OW44363   1.267   1.669   4.517  0.2336 -0.0148 -0.2768
14119SOL    HW144364   1.333   1.736   4.537 -0.1348  0.4553 -0.6345
14119SOL    HW244365   1.208   1.670   4.593  1.0289 -0.9400  0.3839
14120SOL     OW44366   8.730   1.192   2.510 -0.0291 -0.3924  0.5226
14120SOL    HW144367   8.711   1.129   2.580  0.5765 -1.1087  0.0577
14120SOL    HW244368   8.686   1.273   2.537  0.8271 -0.4175  2.1289
14121SOL     OW44369   5.058   8.576  10.852 -0.2614 -0.3293 -0.0910
14121SOL    HW144370   5.028   8.625  10.775  2.8003 -0.0301 -1.2344
14121SOL    HW244371   5.152   8.593  10.856  0.1275 -2.4387  2.2222
14122SOL     OW44372   6.176   2.628   2.819  0.1847  0.5555 -0.3845
14122SOL    HW144373   6.255   2.584   2.851 -0.1932 -1.2658 -1.8106
14122SOL    HW244374   6.104   2.583   2.863 -0.1490  0.8254 -0.6480
14123SOL     OW44375   5.987   8.830   2.791 -0.1698 -0.6757 -0.7160
14123SOL    HW144376   5.953   8.871   2.711  2.7759  0.9498 -1.2713
14123SOL    HW244377   6.040   8.757   2.760 -0.5904 -1.2492 -0.0997
14124SOL     OW44378   2.105   1.535   6.488 -0.6372 -0.0677 -0.0378
14124SOL    HW144379   2.164   1.508   6.418 -0.9712 -0.6685 -0.1032
14124SOL    HW244380   2.061   1.453   6.514 -0.9617  0.2563  0.4488
14125SOL     OW44381   3.933   8.711   2.692 -0.0350  0.0977 -0.0369
14125SOL    HW144382   3.932   8.654   2.769 -0.3892 -2.4545 -1.8015
14125SOL    HW244383   3.910   8.654   2.619  1.5825  2.0856 -2.2731
14126SOL     OW44384   5.736   9.770   5.819  0.1797 -0.7707 -0.1079
14126SOL    HW144385   5.828   9.743   5.823  1.0251  1.7085 -0.6210
14126SOL    HW244386   5.730   9.843   5.880 -0.9517  0.3277 -1.4451
14127SOL     OW44387   4.248  10.857   5.008  0.0920  0.0850 -0.2941
14127SOL    HW144388   4.294  10.937   4.983 -1.1387  1.1002  0.5317
14127SOL    HW244389   4.220  10.873   5.099 -0.5770 -1.0845 -0.2775
14128SOL     OW44390   6.489   1.574   7.071  0.1969  0.8252  0.2083
14128SOL    HW144391   6.434   1.630   7.127  0.9523 -0.7167  2.6535
14128SOL    HW244392   6.575   1.614   7.074  0.3271  0.5279  0.4813
14129SOL     OW44393   8.965   3.179   7.217 -0.0980  1.1346  0.4323
14129SOL    HW144394   8.889   3.121   7.226  0.8300 -0.1551  0.2316
14129SOL    HW244395   8.980   3.184   7.122  1.1693 -0.1427  0.5360
14130SOL     OW44396   5.495   7.505  10.388 -0.3405  0.4513 -0.2028
14130SOL    HW144397   5.533   7.457  10.462  0.2002  1.8566  0.4787
14130SOL    HW244398   5.570   7.552  10.350 -0.9538  1.2623 -0.4280
14131SOL     OW44399   2.979   8.594  10.967 -0.3726 -0.2417  0.0640
14131SOL    HW144400   3.015   8.663  10.911 -0.7932 -0.7998 -0.9064
14131SOL    HW244401   2.894   8.574  10.929 -0.1543 -1.4686  0.2012
14132SOL     OW44402   4.830   4.653   6.096  0.2073  0.2756 -0.0239
14132SOL    HW144403   4.914   4.686   6.128 -0.2627 -0.1849  1.7996
14132SOL    HW244404   4.854   4.586   6.032  1.2813 -0.6608  1.2993
14133SOL     OW44405   5.311   1.333  10.825 -0.1977  0.2101  0.5626
14133SOL    HW144406   5.228   1.295  10.856 -0.1665 -2.1380 -1.8214
14133SOL    HW244407   5.288   1.372  10.741  0.3475  3.4662  1.7972
14134SOL     OW44408   2.859   1.783   7.076  0.6134  0.2015  0.0658
14134SOL    HW144409   2.801   1.860   7.079 -1.7073 -1.3542 -1.1807
14134SOL    HW244410   2.914   1.791   7.154  0.3520  3.0033  0.0705
14135SOL     OW44411   9.068   4.377   8.948 -0.1533 -0.1802  0.0974
14135SOL    HW144412   9.022   4.428   8.882  1.1377  0.5594 -0.2499
14135SOL    HW244413   9.139   4.434   8.978 -0.6673 -0.5098  2.0849
14136SOL     OW44414   5.723   1.007   6.895 -0.1349  0.4487  0.0445
14136SOL    HW144415   5.730   0.927   6.842  0.3496  0.9125 -0.5995
14136SOL    HW244416   5.776   1.071   6.849 -0.6704  1.2049  0.4632
14137SOL     OW44417   4.960   3.862   0.802  0.4460 -0.0367  0.7584
14137SOL    HW144418   5.001   3.813   0.730 -1.0379  1.0103 -0.8808
14137SOL    HW244419   5.026   3.926   0.828  0.0795  1.4279 -1.6321
14138SOL     OW44420   0.719   9.158   4.946  0.3448  0.3870  0.0583
14138SOL    HW144421   0.638   9.185   4.989 -0.3392 -1.1635 -0.1822
14138SOL    HW244422   0.789   9.199   4.997 -0.5833  2.0743  0.0290
14139SOL     OW44423   0.158   3.287   5.728 -0.0402 -0.1625 -0.5923
14139SOL    HW144424   0.185   3.239   5.650 -0.6927 -1.9143  0.2001
14139SOL    HW244425   0.065   3.266   5.739  0.0665 -0.0567  0.7167
14140SOL     OW44426  10.833   3.612   2.828 -0.5287 -0.4570 -0.0706
14140SOL    HW144427  10.834   3.577   2.739 -0.8085  1.1200 -0.7293
14140SOL    HW244428  10.746   3.650   2.838  0.8566  3.3377 -0.8165
14141SOL     OW44429  10.764   3.362   1.253 -0.2906 -0.2702 -0.0437
14141SOL    HW144430  10.733   3.374   1.343  0.2665 -0.8227  0.2261
14141SOL    HW244431  10.713   3.288   1.220  0.6042 -1.0937  0.3564
14142SOL     OW44432   1.742   7.444   1.286  0.5899  0.0620 -0.2703
14142SOL    HW144433   1.757   7.530   1.245 -0.6280  0.0786 -0.7028
14142SOL    HW244434   1.709   7.389   1.215  0.3418 -0.4631  0.2516
14143SOL     OW44435   9.372   2.519   1.730  0.3748 -0.5876 -0.3119
14143SOL    HW144436   9.447   2.573   1.755 -1.1289  1.8944 -0.8630
14143SOL    HW244437   9.305   2.538   1.796 -0.6882 -0.6608 -1.3333
14144SOL     OW44438   0.848   3.240   8.583  0.1293  0.1533 -0.5935
14144SOL    HW144439   0.785   3.197   8.641 -0.9535  1.1387 -1.0135
14144SOL    HW244440   0.931   3.233   8.629  0.5965 -4.5137 -1.6450
14145SOL     OW44441   3.328   1.370   7.235 -0.1808  0.2971 -0.1407
14145SOL    HW144442   3.284   1.454   7.218 -0.7771  0.1487  0.6103
14145SOL    HW244443   3.355   1.376   7.327 -1.6251 -0.9443  0.4036
14146SOL     OW44444   1.571   5.494   3.356 -0.6448 -0.5279  0.0220
14146SOL    HW144445   1.561   5.424   3.420 -0.3756  0.7199  1.4847
14146SOL    HW244446   1.553   5.574   3.405 -2.4515  0.3641 -1.9551
14147SOL     OW44447   8.796   4.039   2.657  0.7029  0.2789 -0.2581
14147SOL    HW144448   8.843   4.007   2.580 -0.4842  1.5570 -1.5879
14147SOL    HW244449   8.711   4.067   2.622 -0.4883 -0.5622  1.7944
14148SOL     OW44450   0.939   9.178   9.485 -0.3088 -0.3417  0.1891
14148SOL    HW144451   0.977   9.178   9.397  0.4815  2.1581  0.4477
14148SOL    HW244452   0.872   9.110   9.483 -2.1556  1.3590 -3.1680
14149SOL     OW44453   5.885   9.913   4.880  0.1838  0.1086  0.6141
14149SOL    HW144454   5.969   9.936   4.920  0.1501  0.1095  0.6838
14149SOL    HW244455   5.872   9.821   4.900  0.4221 -0.0300  0.1516
14150SOL     OW44456   2.024   3.678   6.325 -0.1971  0.5488 -0.2617
14150SOL    HW144457   1.989   3.742   6.263 -0.4072  0.2622 -0.4429
14150SOL    HW244458   2.018   3.721   6.410  0.4601  1.1035 -0.4836
14151SOL     OW44459   0.501   4.756   8.497 -0.1218 -0.3392 -0.0523
14151SOL    HW144460   0.448   4.788   8.571 -0.6051 -1.4582  0.1042
14151SOL    HW244461   0.460   4.673   8.472 -0.3701  0.3253 -2.0191
14152SOL     OW44462   4.220   7.268  10.725  0.3821 -0.1627  0.4839
14152SOL    HW144463   4.211   7.292  10.632 -0.9204  0.0510  0.6506
14152SOL    HW244464   4.138   7.225  10.747  0.8143 -0.5106  1.4622
14153SOL     OW44465   4.170   9.961   1.252  0.5724 -0.3120 -0.2022
14153SOL    HW144466   4.175   9.865   1.255 -0.3530 -0.3473  0.8568
14153SOL    HW244467   4.086   9.979   1.208  0.2334 -0.0178  0.5390
14154SOL     OW44468  10.447   0.526   4.015  0.3430  0.0306 -0.1723
14154SOL    HW144469  10.493   0.527   3.931  1.3267 -1.1124  0.3172
14154SOL    HW244470  10.509   0.485   4.076  0.5822  2.8035  1.6620
14155SOL     OW44471   7.059   6.494   5.024 -0.1346  0.1140 -0.2852
14155SOL    HW144472   6.979   6.444   5.006 -0.9351  0.9784  0.7375
14155SOL    HW244473   7.033   6.585   5.012  0.4206  0.4662  1.0596
14156SOL     OW44474   5.331   0.540   4.984 -1.0420  0.1658 -0.1240
14156SOL    HW144475   5.249   0.490   4.983 -0.8287 -0.2122 -1.5113
14156SOL    HW244476   5.378   0.510   4.906 -0.6248  2.0971 -0.6550
14157SOL     OW44477   8.308   1.869   6.217 -0.7757 -0.3839 -0.4258
14157SOL    HW144478   8.266   1.821   6.145 -0.6369 -0.0970 -0.7031
14157SOL    HW244479   8.240   1.878   6.283 -1.2543  0.3757 -1.0144
14158SOL     OW44480   4.140   4.077   5.758 -0.5855 -0.5570 -0.4624
14158SOL    HW144481   4.063   4.046   5.709  0.4723 -2.0846 -1.2412
14158SOL    HW244482   4.204   4.100   5.691  0.0550 -0.4027  0.1868
14159SOL     OW44483   3.702   7.716   1.287 -0.5785  0.4953 -0.0842
14159SOL    HW144484   3.741   7.737   1.371 -1.0292 -1.1460  0.5644
14159SOL    HW244485   3.719   7.793   1.233  3.6950 -0.1528  0.0415
14160SOL     OW44486   3.358   8.724   0.474 -0.5382 -0.7959  0.3954
14160SOL    HW144487   3.421   8.734   0.545  0.7821  0.1410 -0.8235
14160SOL    HW244488   3.407   8.679   0.405 -0.9979  0.4410 -0.7850
14161SOL     OW44489   8.097   1.128   6.411 -0.4123  0.2055 -0.5127
14161SOL    HW144490   8.096   1.032   6.406 -0.7786  0.2499 -1.3561
14161SOL    HW244491   8.173   1.148   6.465 -1.4347 -0.6276  1.3578
14162SOL     OW44492   0.287  10.424   9.587  0.3770  0.7283  0.2026
14162SOL    HW144493   0.259  10.379   9.667  0.4018 -0.1457 -0.2667
14162SOL    HW244494   0.205  10.448   9.543  0.3448 -0.1065 -0.2204
14163SOL     OW44495   1.812   8.721   7.015  0.0407 -0.6567 -0.1889
14163SOL    HW144496   1.873   8.706   6.943  1.7388  0.6815  0.9223
14163SOL    HW244497   1.785   8.812   7.005 -0.6686 -0.8193  0.1780
14164SOL     OW44498   5.652   1.562  10.149  0.3749  0.1772  0.1111
14164SOL    HW144499   5.744   1.552  10.173  0.0297 -0.3337  1.2774
14164SOL    HW244500   5.641   1.506  10.072  0.8628 -0.3071  0.3935
14165SOL     OW44501   1.141   3.154   8.610 -0.0227 -0.2908  0.2153
14165SOL    HW144502   1.156   3.093   8.682 -0.3148 -0.1268  0.4191
14165SOL    HW244503   1.114   3.099   8.537 -2.5669 -0.2572  1.0244
14166SOL     OW44504   0.923   7.972   4.036  0.1055  0.4800  0.0113
14166SOL    HW144505   0.907   7.973   4.130 -0.4317 -0.5806 -0.0580
14166SOL    HW244506   1.002   7.919   4.025  1.1255  1.9343 -0.0271
14167SOL     OW44507   7.629   9.619   6.326  0.1308  0.2422 -0.0533
14167SOL    HW144508   7.674   9.537   6.306  0.2544  0.3463 -0.2141
14167SOL    HW244509   7.589   9.605   6.412  0.6054  0.2025  0.1655
14168SOL     OW44510  10.661   9.574   6.496  0.2783  0.2581  0.1920
14168SOL    HW144511  10.573   9.591   6.529  0.3434  0.1948  0.3986
14168SOL    HW244512  10.648   9.558   6.402 -0.2975 -2.2738  0.6212
14169SOL     OW44513   6.606   8.840   0.619  0.1396  0.2672  0.4210
14169SOL    HW144514   6.611   8.935   0.631 -0.9211  0.3770  0.1152
14169SOL    HW244515   6.685   8.818   0.570  0.9588  0.8187  1.4531
14170SOL     OW44516   1.115  10.384   2.022 -0.3332 -0.0699  0.2998
14170SOL    HW144517   1.082  10.365   1.934 -0.5140 -1.0984  0.5736
14170SOL    HW244518   1.210  10.390   2.012 -0.3194 -0.6084  0.1041
14171SOL     OW44519  10.161   5.775   6.234 -0.0939 -0.2980 -0.3199
14171SOL    HW144520  10.172   5.853   6.180 -2.5744  0.1574 -0.2849
14171SOL    HW244521  10.120   5.710   6.176  1.3776 -1.4028 -0.1847
14172SOL     OW44522   2.628   1.659   0.693  0.3584 -0.4776 -0.0984
14172SOL    HW144523   2.615   1.600   0.767  0.6039 -0.2416  0.1316
14172SOL    HW244524   2.550   1.715   0.693  0.7253  0.0302  0.4475
14173SOL     OW44525  10.229   6.757   7.910  0.3037  0.0119 -0.5684
14173SOL    HW144526  10.246   6.846   7.882  1.9857  0.2174  0.9581
14173SOL    HW244527  10.303   6.706   7.878  1.5329 -0.0064  2.0571
14174SOL     OW44528  10.102  10.238   5.559 -0.1442 -0.1559 -0.0594
14174SOL    HW144529  10.174  10.258   5.619  1.0721 -0.1721 -1.4705
14174SOL    HW244530  10.125  10.282   5.478 -0.8036 -1.6799 -1.1200
14175SOL     OW44531   1.912   7.290   2.146 -0.3004  0.7938 -0.5237
14175SOL    HW144532   1.870   7.349   2.209  0.8657  2.0709 -0.9034
14175SOL    HW244533   1.979   7.244   2.197 -0.1809  0.9259 -0.5612
14176SOL     OW44534   2.571   1.381  10.550 -0.0256 -0.1568  0.1244
14176SOL    HW144535   2.564   1.465  10.596  1.5849 -0.0120  0.1771
14176SOL    HW244536   2.643   1.395  10.488  0.0298 -1.3901 -0.1005
14177SOL     OW44537   4.393   2.990   9.011  0.0745 -0.6480 -0.6221
14177SOL    HW144538   4.468   3.033   8.970  1.1835 -1.7935  0.1144
14177SOL    HW244539   4.431   2.912   9.053 -1.1752 -0.1433  1.5806
14178SOL     OW44540   8.501  10.704   2.852 -0.1087 -0.1515  0.3144
14178SOL    HW144541   8.442  10.737   2.785 -0.6690  0.2797  1.0174
14178SOL    HW244542   8.455  10.628   2.890 -0.3468  0.3523  1.0512
14179SOL     OW44543   5.260   0.024   4.962 -0.3514 -0.8055 -0.1307
14179SOL    HW144544   5.183   0.081   4.966  0.2911  0.0982 -0.3220
14179SOL    HW244545   5.330   0.077   4.999  0.2818 -1.4482 -0.3985
14180SOL     OW44546   9.288   6.277   5.553  0.1861  0.4917  0.1616
14180SOL    HW144547   9.210   6.252   5.503  0.8556 -1.3977 -0.0415
14180SOL    HW244548   9.275   6.237   5.639  0.9971 -0.0458  0.0540
14181SOL     OW44549   2.330   8.032  10.685  0.0135  0.0679 -0.5932
14181SOL    HW144550   2.238   8.053  10.699 -0.5492 -1.5124 -1.6086
14181SOL    HW244551   2.373   8.117  10.673 -1.6709  0.7876 -2.0832
14182SOL     OW44552   9.947   1.299   3.054  0.4171 -0.1125 -0.2688
14182SOL    HW144553  10.023   1.330   3.003  2.4310  1.0716  3.1530
14182SOL    HW244554   9.942   1.206   3.034  1.4953  0.1537 -2.0903
14183SOL     OW44555   9.635   0.027   8.711 -0.1962 -0.2674 -0.3385
14183SOL    HW144556   9.726   0.055   8.699  0.4540 -1.1526  2.0326
14183SOL    HW244557   9.642  -0.063   8.744 -1.8110  0.3352  1.8380
14184SOL     OW44558   1.616   0.511   0.296 -0.0981  0.0654 -0.2665
14184SOL    HW144559   1.625   0.522   0.390  0.9467  1.8477 -0.5366
14184SOL    HW244560   1.682   0.445   0.274 -0.1453 -0.1410  0.1870
14185SOL     OW44561   8.690   2.754   2.227  0.4157  0.4153  0.2557
14185SOL    HW144562   8.668   2.664   2.202  0.7139 -0.4569  2.8201
14185SOL    HW244563   8.643   2.768   2.310  2.1819  1.7913  1.0913
14186SOL     OW44564  10.769   8.641   1.470  0.4898  0.0531  0.1667
14186SOL    HW144565  10.718   8.721   1.463  0.2173 -0.2038 -0.9221
14186SOL    HW244566  10.843   8.664   1.527  0.6613  1.2016 -0.4997
14187SOL     OW44567   5.741   3.570   1.776  0.3369  0.1956 -0.2601
14187SOL    HW144568   5.830   3.597   1.755  0.7813 -0.9081  0.1823
14187SOL    HW244569   5.736   3.574   1.871  0.6966 -2.0466 -0.0950
14188SOL     OW44570  10.067   8.157   8.230  0.5512  0.0714  0.0588
14188SOL    HW144571  10.141   8.096   8.230  0.2595 -0.2845  0.0215
14188SOL    HW244572  10.097   8.231   8.177  0.9741  0.0450  0.2544
14189SOL     OW44573   0.465   0.455   4.306 -0.3606 -0.2398  0.5292
14189SOL    HW144574   0.557   0.431   4.295  0.0097  0.7822  1.2468
14189SOL    HW244575   0.419   0.400   4.242  0.8713  0.1426 -0.7532
14190SOL     OW44576   2.617   4.886   6.016  0.0238 -0.0335 -0.0668
14190SOL    HW144577   2.594   4.940   5.939 -0.6694 -1.5452 -0.9602
14190SOL    HW244578   2.696   4.928   6.051  0.2889  0.7773 -1.5238
14191SOL     OW44579   5.404   5.695   2.025  0.3758  0.7837 -0.2700
14191SOL    HW144580   5.346   5.642   2.079  0.6482 -0.8339 -1.4693
14191SOL    HW244581   5.490   5.687   2.067  0.4827 -0.0437 -0.6139
14192SOL     OW44582   7.955   2.104   7.576  0.4195  0.2171  0.6991
14192SOL    HW144583   7.889   2.170   7.555  0.6181  0.4536  0.8185
14192SOL    HW244584   7.919   2.022   7.541  0.4500  0.4950  0.0171
14193SOL     OW44585   4.402   7.379   7.685 -0.1419  0.1353  0.0862
14193SOL    HW144586   4.310   7.351   7.682  0.2866 -1.4141  0.2226
14193SOL    HW244587   4.409   7.433   7.763 -0.5174 -1.5224  1.3325
14194SOL     OW44588   8.063   8.982   4.701 -0.2783  0.2599  0.1028
14194SOL    HW144589   8.055   9.077   4.714 -2.4885  0.2765 -0.9235
14194SOL    HW244590   8.151   8.970   4.666 -0.5191  2.1770 -1.3690
14195SOL     OW44591   4.520  11.017   6.358  0.1714  0.3272 -0.8509
14195SOL    HW144592   4.603  10.992   6.317 -0.9450 -3.3488 -1.1892
14195SOL    HW244593   4.454  10.964   6.314 -1.8794  0.5288  1.7423
14196SOL     OW44594   3.724  10.936   4.081  0.2418  0.2018  0.3349
14196SOL    HW144595   3.712  10.858   4.135  0.2120  1.2611  1.9144
14196SOL    HW244596   3.637  10.955   4.046  0.2596 -0.4781 -0.1060
14197SOL     OW44597   3.353   0.899   3.919 -0.2018  0.0240 -0.2467
14197SOL    HW144598   3.351   0.911   3.824 -0.8031 -0.5538 -0.3147
14197SOL    HW244599   3.362   0.987   3.955 -0.2443  0.2676 -0.8304
14198SOL     OW44600   0.775   8.511   0.831 -0.1597 -0.8022  0.1410
14198SOL    HW144601   0.710   8.581   0.822 -0.6797 -1.1008  1.4421
14198SOL    HW244602   0.835   8.542   0.898 -1.3224 -2.2506  1.9402
14199SOL     OW44603   0.157   1.831   0.932 -0.1542 -0.3227  0.2207
14199SOL    HW144604   0.073   1.790   0.910  0.8355 -1.7818 -1.0260
14199SOL    HW244605   0.161   1.908   0.875 -1.4393  0.8732  1.6426
14200SOL     OW44606   2.375   3.339   5.440  0.1572  0.0365 -0.2126
14200SOL    HW144607   2.437   3.403   5.403 -0.6422  1.3037  0.5691
14200SOL    HW244608   2.348   3.286   5.365  1.7588 -0.1977 -0.6680
14201SOL     OW44609   0.835   0.240   5.172 -0.0588  0.3920  0.2566
14201SOL    HW144610   0.831   0.303   5.245 -1.8406  1.3637 -0.6219
14201SOL    HW244611   0.780   0.168   5.199 -0.2139  0.4643  0.1341
14202SOL     OW44612   3.177   6.411   8.009 -0.3214  0.0287  0.0026
14202SOL    HW144613   3.107   6.456   8.057  1.6118  1.7795  1.3771
14202SOL    HW244614   3.206   6.342   8.068 -0.2662 -0.0818 -0.1536
14203SOL     OW44615   4.773   2.391   7.866 -0.1301 -0.4625 -0.1881
14203SOL    HW144616   4.848   2.332   7.865 -0.0887 -0.4240 -1.5028
14203SOL    HW244617   4.730   2.375   7.950  1.3388 -0.4903  0.5903
14204SOL     OW44618   5.903   2.835   9.594  0.4053  1.0463 -0.1709
14204SOL    HW144619   5.879   2.852   9.503  0.1884  0.7189 -0.1792
14204SOL    HW244620   5.832   2.779   9.627  0.7397  0.7442  0.0480
14205SOL     OW44621   2.064  10.236   5.523  0.0292 -0.0705  0.3271
14205SOL    HW144622   2.050  10.236   5.428  2.0287  0.7848 -0.0300
14205SOL    HW244623   2.044  10.325   5.551  1.3285  0.2442  0.3383
14206SOL     OW44624  10.101   3.156   4.533 -0.5044 -0.1385 -0.3203
14206SOL    HW144625  10.011   3.125   4.546 -0.0434 -0.6983  1.9939
14206SOL    HW244626  10.129   3.116   4.451 -1.8470 -1.2552 -0.2682
14207SOL     OW44627  10.931   9.247   4.644  0.4237  0.3640  0.1023
14207SOL    HW144628  10.992   9.318   4.663  1.2990  0.4338 -2.4819
14207SOL    HW244629  10.965   9.208   4.563 -1.2393 -1.6229  0.2837
14208SOL     OW44630   9.850   2.254   1.476 -0.2411  0.5020 -0.0153
14208SOL    HW144631   9.843   2.211   1.562 -0.9646  1.0827  0.2260
14208SOL    HW244632   9.884   2.186   1.418 -0.2809 -0.0623  0.6134
14209SOL     OW44633   6.118   5.065   2.948  0.2473 -0.4466 -0.2695
14209SOL    HW144634   6.112   4.999   3.018  0.4009  2.3496  2.5735
14209SOL    HW244635   6.036   5.114   2.954 -0.2308 -0.7813 -2.8874
14210SOL     OW44636   2.102   6.278   7.161  0.2722 -0.1806 -0.4152
14210SOL    HW144637   2.079   6.297   7.070  2.1749  1.1711 -0.6646
14210SOL    HW244638   2.034   6.322   7.213  0.9953  1.9260 -1.1483
14211SOL     OW44639   0.146   5.981   4.428 -0.5022 -0.1374 -0.0911
14211SOL    HW144640   0.198   5.921   4.482  0.4270  0.4717 -0.2793
14211SOL    HW244641   0.055   5.955   4.443 -0.1743 -0.8701  0.6858
14212SOL     OW44642   7.449   9.525   8.383 -0.5753 -0.3176 -0.4599
14212SOL    HW144643   7.539   9.549   8.364 -0.2693  0.8820  2.0564
14212SOL    HW244644   7.435   9.442   8.337  2.8122 -2.1546  1.4570
14213SOL     OW44645   1.940   5.181   8.734  0.3395  0.0800 -0.2525
14213SOL    HW144646   1.988   5.194   8.652 -0.0761  1.1409 -0.3499
14213SOL    HW244647   1.937   5.268   8.774 -0.8758 -0.1007  0.0965
14214SOL     OW44648   4.884   8.126   5.127  0.3855  0.4305  0.1202
14214SOL    HW144649   4.808   8.168   5.086 -1.4179 -2.5241  0.0699
14214SOL    HW244650   4.952   8.192   5.127 -1.2763  2.3214 -2.5558
14215SOL     OW44651   5.411   8.089  10.557 -0.3061  0.2205 -0.5765
14215SOL    HW144652   5.430   8.103  10.650 -0.2031  0.3314 -0.6149
14215SOL    HW244653   5.459   8.158  10.512 -0.6192  0.3626 -0.6898
14216SOL     OW44654   7.107   1.193   7.936  0.0196  0.0920 -0.6149
14216SOL    HW144655   7.090   1.198   8.030 -2.1715  0.2063 -0.9472
14216SOL    HW244656   7.176   1.257   7.920 -0.3938  0.9267  0.7570
14217SOL     OW44657   7.432   2.433   3.182 -0.3341 -0.2484  0.0341
14217SOL    HW144658   7.400   2.410   3.270  0.3147 -0.1036  0.3166
14217SOL    HW244659   7.476   2.354   3.151  3.1483  0.8535  1.5802
14218SOL     OW44660  10.443   4.200   3.003  0.3375 -0.2055  0.1772
14218SOL    HW144661  10.419   4.281   3.048 -1.4077 -0.4481 -0.2072
14218SOL    HW244662  10.458   4.227   2.912  1.5096 -0.0672  0.4022
14219SOL     OW44663   5.339   8.483   6.591 -0.0389 -0.7931 -0.4931
14219SOL    HW144664   5.359   8.457   6.681 -0.5801  0.3017 -0.0435
14219SOL    HW244665   5.324   8.400   6.545  0.2267 -1.3627  0.4203
14220SOL     OW44666   0.814   2.202   2.042 -0.0443 -0.5199 -0.2194
14220SOL    HW144667   0.829   2.110   2.065 -1.2016 -0.7976 -0.5213
14220SOL    HW244668   0.754   2.235   2.109 -1.1173 -0.5217 -1.1454
14221SOL     OW44669  10.298   3.285   7.217 -0.2349  0.1363 -0.0137
14221SOL    HW144670  10.336   3.369   7.241 -1.2593  0.3840  0.8127
14221SOL    HW244671  10.320   3.274   7.125  1.0367  0.6798  0.2040
14222SOL     OW44672   4.928   9.699   8.108  0.1331  0.2271  0.0648
14222SOL    HW144673   4.998   9.755   8.143  0.9862 -2.2423  2.7442
14222SOL    HW244674   4.861   9.698   8.176 -0.5502 -0.7559 -0.5881
14223SOL     OW44675   1.473   0.073   9.677 -0.0002 -0.0649 -0.3535
14223SOL    HW144676   1.483   0.002   9.614 -0.8220  0.3367 -0.9738
14223SOL    HW244677   1.387   0.057   9.717  0.1496  0.1434  0.0509
14224SOL     OW44678   5.932   0.774   1.312  0.2496  0.0705  0.5495
14224SOL    HW144679   6.013   0.741   1.273  0.3195  0.2456  0.5482
14224SOL    HW244680   5.913   0.854   1.265  1.4377  1.4009  2.1997
14225SOL     OW44681   2.521   3.308   7.949 -0.2310  0.7194 -0.2563
14225SOL    HW144682   2.428   3.305   7.968  0.0900 -0.3913  1.2996
14225SOL    HW244683   2.557   3.372   8.010  0.2416  0.0054  0.2316
14226SOL     OW44684   2.269   8.487   8.412  0.1683 -0.0138 -0.4588
14226SOL    HW144685   2.266   8.495   8.507 -0.7677  0.6000 -0.5229
14226SOL    HW244686   2.246   8.395   8.395 -1.5457  0.3298 -0.1504
14227SOL     OW44687   3.961   9.795   3.080  0.3541  0.3983 -0.0678
14227SOL    HW144688   3.911   9.861   3.032 -2.3250 -0.9337  0.6744
14227SOL    HW244689   3.944   9.814   3.172 -0.0685 -0.9912  0.1699
14228SOL     OW44690   6.102   2.034   5.196 -0.1067  0.5156  0.4893
14228SOL    HW144691   6.172   1.982   5.236 -0.3103  0.5457  0.8851
14228SOL    HW244692   6.140   2.120   5.182  0.2785  0.2287 -0.2941
14229SOL     OW44693   9.761   5.311   8.981 -0.4295 -0.2752 -0.0644
14229SOL    HW144694   9.834   5.250   8.989  1.1994  1.5830  0.3359
14229SOL    HW244695   9.769   5.346   8.892 -0.2002  0.6148  0.2841
14230SOL     OW44696   0.578   7.563   1.455 -0.0317  0.7671 -0.5039
14230SOL    HW144697   0.663   7.589   1.488  0.9877 -0.9970 -1.5489
14230SOL    HW244698   0.523   7.553   1.533  1.1201  0.6109  0.3029
14231SOL     OW44699   7.960   3.542   3.191  0.3669 -0.5011 -0.3293
14231SOL    HW144700   7.912   3.495   3.259  0.0941 -0.6423 -0.6179
14231SOL    HW244701   7.935   3.634   3.204 -0.7320 -0.6838 -1.0733
14232SOL     OW44702   9.965   6.470   2.019 -0.5884 -0.7823 -0.0729
14232SOL    HW144703   9.924   6.463   2.105  0.9903 -0.2610  0.7629
14232SOL    HW244704   9.942   6.389   1.975  1.3695 -2.6748  2.1362
14233SOL     OW44705   4.136   5.804   4.729 -0.1732  0.5113  0.4630
14233SOL    HW144706   4.092   5.722   4.752 -0.6476  0.6566  0.0841
14233SOL    HW244707   4.208   5.776   4.672 -0.5944  0.3847 -0.0236
14234SOL     OW44708   3.348   5.460   3.398  0.1602  0.3996  0.1647
14234SOL    HW144709   3.350   5.397   3.326  0.9982 -1.4431  1.7304
14234SOL    HW244710   3.330   5.408   3.476  0.0265  2.2261  1.4193
14235SOL     OW44711  11.032  10.002   3.242  0.3823 -0.3040 -0.4567
14235SOL    HW144712  11.027   9.937   3.171 -0.1366  0.4560 -1.1312
14235SOL    HW244713  11.126  10.017   3.253  0.4426  1.0996 -2.4477
14236SOL     OW44714   3.782   1.020  10.958  0.3598  0.6074  0.0409
14236SOL    HW144715   3.689   1.008  10.941 -0.1558  0.5345  2.5095
14236SOL    HW244716   3.793   1.115  10.962  0.1191  0.6110  0.8770
14237SOL     OW44717   6.593   3.699   7.845  0.4207 -0.3564  0.0559
14237SOL    HW144718   6.609   3.761   7.774 -0.0769  1.6378  1.5864
14237SOL    HW244719   6.581   3.615   7.802  1.4256  0.5417 -2.0984
14238SOL     OW44720   1.642   6.583   4.148 -0.3752  0.0909  0.3317
14238SOL    HW144721   1.578   6.534   4.199 -0.8323 -2.2629 -2.2602
14238SOL    HW244722   1.609   6.672   4.146 -2.6052 -0.6826  0.5854
14239SOL     OW44723   0.014   5.122   6.759  0.2529 -0.9384  0.5849
14239SOL    HW144724   0.085   5.094   6.701 -0.1493  1.4599 -1.2312
14239SOL    HW244725  -0.063   5.128   6.702  0.1853  3.0836  0.7781
14240SOL     OW44726   7.769   0.148   2.648  0.1906  0.3495  0.0827
14240SOL    HW144727   7.733   0.138   2.736 -1.1117 -0.3030 -0.4951
14240SOL    HW244728   7.863   0.155   2.661  0.0429 -0.0558  1.5096
14241SOL     OW44729   9.405   7.771  10.977  0.0422 -0.1704 -0.2805
14241SOL    HW144730   9.498   7.759  10.960  0.1653  1.4553 -0.9298
14241SOL    HW244731   9.402   7.823  11.058 -0.3090 -0.5713 -0.0340
14242SOL     OW44732   9.106   2.290   7.813  0.2180  0.5090  0.7707
14242SOL    HW144733   9.018   2.275   7.848  0.2416  0.3543  0.7676
14242SOL    HW244734   9.114   2.229   7.740  0.7966 -0.4290  1.5790
14243SOL     OW44735   0.212   8.366   7.283  0.5868  0.3844 -0.1810
14243SOL    HW144736   0.126   8.387   7.318  0.0056  0.0969 -1.3994
14243SOL    HW244737   0.245   8.449   7.248 -0.1166  0.1049 -1.6044
14244SOL     OW44738   3.022   7.362   9.261 -0.1806 -0.3016 -0.0958
14244SOL    HW144739   3.026   7.311   9.180  1.5265 -2.1673  1.0696
14244SOL    HW244740   2.968   7.308   9.320 -0.2665  0.3599  0.4406
14245SOL     OW44741   8.031   8.058   5.090 -0.2763  0.2466  0.3873
14245SOL    HW144742   8.102   8.069   5.027 -0.9074 -0.8830 -0.5728
14245SOL    HW244743   8.068   8.000   5.157 -0.4135 -0.7896 -0.3929
14246SOL     OW44744   9.777   9.670   0.618  0.2100  0.6168  0.5423
14246SOL    HW144745   9.765   9.581   0.649 -1.7389  0.7923  0.4250
14246SOL    HW244746   9.858   9.700   0.661  0.4201 -0.8927  1.2626
14247SOL     OW44747   5.206   3.983   0.466  0.0315  0.0583 -0.1839
14247SOL    HW144748   5.119   4.000   0.502 -0.0888 -1.5333  0.3806
14247SOL    HW244749   5.266   4.024   0.528 -0.3002  1.3085 -0.6661
14248SOL     OW44750   5.272   1.593   6.520 -0.3574 -0.0176  0.1541
14248SOL    HW144751   5.269   1.665   6.457 -0.8306  0.7790  1.0584
14248SOL    HW244752   5.301   1.517   6.469 -2.6521  0.1180 -1.4632
14249SOL     OW44753   2.808   3.223   6.939  0.0397  0.1825  0.2572
14249SOL    HW144754   2.775   3.283   6.872 -0.8137 -0.0306  0.4773
14249SOL    HW244755   2.815   3.276   7.018  0.9423  0.4070  0.0384
14250SOL     OW44756   4.960   7.716   3.640  0.0678  0.4405 -0.3448
14250SOL    HW144757   4.968   7.626   3.611 -0.1898  0.2850  0.0517
14250SOL    HW244758   5.047   7.739   3.673 -0.2910 -0.2711  1.2341
14251SOL     OW44759  10.154   8.939  10.095  0.2124  0.0608  0.2662
14251SOL    HW144760  10.075   8.885  10.089  1.7477 -2.3287  0.4095
14251SOL    HW244761  10.222   8.879  10.123  2.3910  1.7629 -1.0487
14252SOL     OW44762   3.644   9.461   3.976  0.0918  0.0643 -0.3136
14252SOL    HW144763   3.654   9.366   3.980  1.3712  0.2032  3.1512
14252SOL    HW244764   3.550   9.476   3.981 -0.2853 -0.9611 -2.9051
14253SOL     OW44765   7.382   0.243   5.371  0.1470  0.2582 -0.1368
14253SOL    HW144766   7.311   0.221   5.311 -0.5380 -1.2573  1.1415
14253SOL    HW244767   7.443   0.169   5.364 -0.0656 -0.0667  1.1561
14254SOL     OW44768   4.275   6.560   1.498  0.2446 -0.8808 -0.3241
14254SOL    HW144769   4.341   6.605   1.445 -0.4425  0.4060 -0.1198
14254SOL    HW244770   4.250   6.623   1.565 -0.7118 -1.5933  0.0187
14255SOL     OW44771   6.064   0.444   5.147 -0.0417  0.8892 -0.1715
14255SOL    HW144772   6.056   0.538   5.163  0.7698  0.5341  3.0601
14255SOL    HW244773   5.982   0.407   5.177  1.3382  0.2216  3.1568
14256SOL     OW44774   8.580   0.960   5.587  0.2710  0.4002  0.1239
14256SOL    HW144775   8.673   0.974   5.569  0.7047 -2.0289  0.1971
14256SOL    HW244776   8.559   0.878   5.544 -1.7347  0.6255  0.5751
14257SOL     OW44777   3.443   0.542   6.702 -0.3364  0.5351 -0.5713
14257SOL    HW144778   3.475   0.566   6.615  1.3307 -1.2165 -0.5109
14257SOL    HW244779   3.498   0.468   6.728 -1.6437  0.1982  1.4500
14258SOL     OW44780   6.963   1.536   4.784  0.3852 -0.4837  0.5839
14258SOL    HW144781   6.883   1.581   4.810  0.9747 -0.4461  2.4718
14258SOL    HW244782   7.029   1.606   4.781  0.9259 -0.9038  1.8226
14259SOL     OW44783   8.801   1.524   9.682  0.1147  0.1818 -0.8042
14259SOL    HW144784   8.747   1.599   9.707  0.3405 -0.6607  2.7218
14259SOL    HW244785   8.869   1.520   9.749  2.2613 -1.1507 -2.8834
14260SOL     OW44786   7.745  10.298   6.426 -0.3967 -0.5953  0.0008
14260SOL    HW144787   7.808  10.361   6.459 -0.2799 -1.0081  0.5805
14260SOL    HW244788   7.662  10.325   6.464 -0.7133  0.3381 -1.2809
14261SOL     OW44789   9.457   7.640   7.375  0.3667  0.4736 -0.0610
14261SOL    HW144790   9.494   7.553   7.390  1.2477  0.8967  0.2935
14261SOL    HW244791   9.368   7.623   7.345  1.5832 -0.6807 -3.4062
14262SOL     OW44792   9.138   0.370   1.813 -0.0732  0.4046  0.1935
14262SOL    HW144793   9.210   0.372   1.750  0.4959  0.6379  0.8379
14262SOL    HW244794   9.098   0.456   1.806 -1.2804 -0.2301 -1.2640
14263SOL     OW44795   3.516   9.812   5.635  0.3112 -0.1024  0.1715
14263SOL    HW144796   3.443   9.866   5.604 -0.1076 -0.2554  0.8792
14263SOL    HW244797   3.550   9.859   5.711  0.9830 -0.0157 -0.1709
14264SOL     OW44798   9.594   0.194   0.339  0.2900 -0.4757 -0.8260
14264SOL    HW144799   9.650   0.220   0.412 -0.7396 -0.9248  0.1671
14264SOL    HW244800   9.582   0.273   0.288  0.7137 -0.0468 -0.2725
14265SOL     OW44801   8.331   2.995  10.330  0.5703  0.0397 -0.2966
14265SOL    HW144802   8.268   2.923  10.321 -0.8157  0.9980  1.0805
14265SOL    HW244803   8.280   3.074  10.307  1.4041  0.7829  0.3279
14266SOL     OW44804   0.625   9.800   3.136 -0.2529 -0.3123 -0.2304
14266SOL    HW144805   0.562   9.825   3.204 -0.9766 -0.6720 -0.7515
14266SOL    HW244806   0.671   9.725   3.173  1.2435  1.1208  0.9361
14267SOL     OW44807   0.677   4.127   1.755  0.2791  0.0360 -0.0446
14267SOL    HW144808   0.587   4.125   1.723 -0.7879  2.3654  2.3933
14267SOL    HW244809   0.682   4.054   1.818  0.2792 -0.4032 -0.5476
14268SOL     OW44810   0.827   8.084   6.904  0.6803  0.3411  0.0562
14268SOL    HW144811   0.814   8.031   6.983 -1.2721  2.9409  1.6339
14268SOL    HW244812   0.742   8.083   6.861  1.1615  0.6514 -0.9222
14269SOL     OW44813   7.281   7.825   1.930 -0.4601 -0.4324  0.0564
14269SOL    HW144814   7.203   7.771   1.943 -0.4874 -0.2047  0.8761
14269SOL    HW244815   7.278   7.890   2.001  0.4041 -0.3427  0.0236
14270SOL     OW44816   1.703  10.555   4.238 -0.1148 -0.2860 -0.1323
14270SOL    HW144817   1.744  10.473   4.211  0.5105  0.2606 -0.9041
14270SOL    HW244818   1.623  10.560   4.185  0.1395 -0.1281 -0.5044
14271SOL     OW44819   5.710   0.150   9.863  0.4116  0.0815  0.2027
14271SOL    HW144820   5.629   0.188   9.829  0.1000 -0.8299 -0.1071
14271SOL    HW244821   5.692   0.057   9.870  1.5706 -0.2074 -0.2952
14272SOL     OW44822   8.624   0.001   7.093  1.0013  0.6824  0.4234
14272SOL    HW144823   8.565  -0.067   7.124 -0.4140  1.1216 -1.1380
14272SOL    HW244824   8.678   0.022   7.168  0.0009 -0.6314  1.5606
14273SOL     OW44825   9.080   4.068   3.640 -0.2905  0.0760 -0.6050
14273SOL    HW144826   9.088   4.113   3.724 -1.9096 -1.7585  0.6232
14273SOL    HW244827   9.155   4.008   3.638 -1.9292 -2.1973  1.1414
14274SOL     OW44828   7.162  10.808   0.640  0.0223 -0.3546  0.4961
14274SOL    HW144829   7.101  10.755   0.691 -0.6963 -0.5753 -0.5721
14274SOL    HW244830   7.244  10.803   0.689 -0.8376  0.1166  2.0666
14275SOL     OW44831   2.753  10.130  10.374  0.0812  0.0176  0.5769
14275SOL    HW144832   2.795  10.053  10.411  0.5591  0.3166  0.6722
14275SOL    HW244833   2.826  10.190  10.356 -0.1676 -0.0129 -0.5841
14276SOL     OW44834   2.611   6.633   8.257 -0.2362 -0.3523 -0.4215
14276SOL    HW144835   2.593   6.684   8.178 -0.6442 -0.2480 -0.2633
14276SOL    HW244836   2.578   6.687   8.328  1.1387  0.0742 -0.0652
14277SOL     OW44837   0.575   6.122  10.434 -0.7005  0.5162 -0.0550
14277SOL    HW144838   0.536   6.098  10.350  1.0343  0.2027 -0.8071
14277SOL    HW244839   0.529   6.203  10.459 -1.9522  0.0609 -0.7840
14278SOL     OW44840  10.689   1.190   5.996 -0.5724 -0.5435  0.1990
14278SOL    HW144841  10.756   1.135   5.957  4.1541  1.9741  3.7228
14278SOL    HW244842  10.670   1.150   6.081  1.2213  1.7271  1.8070
14279SOL     OW44843   0.741   9.257   4.440 -0.7346  0.1046 -0.1786
14279SOL    HW144844   0.819   9.310   4.457 -0.5478 -0.7801  2.1641
14279SOL    HW244845   0.753   9.179   4.495 -2.3857 -0.9586 -1.2295
14280SOL     OW44846   0.952  10.707   0.379  0.3580 -0.3027  0.3927
14280SOL    HW144847   0.918  10.660   0.454  0.3169 -1.2478 -0.1944
14280SOL    HW244848   0.875  10.732   0.329  0.2330  2.2844  1.7409
14281SOL     OW44849   9.774   2.096   3.028 -0.0789  0.2701 -0.0903
14281SOL    HW144850   9.814   2.180   3.053 -1.3839  0.7052  0.6312
14281SOL    HW244851   9.829   2.063   2.957  0.1599  1.9797 -0.7286
14282SOL     OW44852   6.298  11.040   1.793  0.7668  0.1110  0.6556
14282SOL    HW144853   6.376  11.058   1.741  0.0693  0.4470 -0.3032
14282SOL    HW244854   6.227  11.031   1.729  0.3463 -2.2190  1.3513
14283SOL     OW44855   9.248   9.802   2.587 -0.8800 -0.3022  0.2299
14283SOL    HW144856   9.209   9.856   2.655 -0.9343  0.8188 -0.6715
14283SOL    HW244857   9.325   9.851   2.557 -1.0351 -0.6186 -0.7354
14284SOL     OW44858   8.836   8.389   2.112  0.3469  0.3996 -0.0773
14284SOL    HW144859   8.819   8.405   2.205  0.0357  1.5727 -0.3218
14284SOL    HW244860   8.762   8.336   2.083  0.6295 -0.2791  0.4187
14285SOL     OW44861   3.974   0.815  10.880  0.1807  0.1609  0.3334
14285SOL    HW144862   4.022   0.888  10.840  0.4257 -0.2855 -0.2034
14285SOL    HW244863   3.889   0.852  10.903  0.8781  1.0440  1.5872
14286SOL     OW44864  10.163   4.612   7.900  0.6174  0.5907  0.2495
14286SOL    HW144865  10.182   4.529   7.855  0.2608  0.5441  0.1840
14286SOL    HW244866  10.097   4.589   7.965  0.1108  0.9365 -0.1440
14287SOL     OW44867  10.971   0.337   4.481  0.0888 -0.1054  0.0567
14287SOL    HW144868  11.031   0.305   4.549 -1.4212 -1.2568  0.9046
14287SOL    HW244869  10.931   0.415   4.519 -2.0076 -1.6825  1.2818
14288SOL     OW44870   8.126  11.064   8.717  0.2872  0.0153 -0.2061
14288SOL    HW144871   8.108  11.128   8.786  0.6463  1.4118 -1.3464
14288SOL    HW244872   8.072  10.989   8.739  1.2847 -0.0784  2.2560
14289SOL     OW44873   7.176   1.682   6.839 -0.1374 -0.1888  0.0392
14289SOL    HW144874   7.211   1.724   6.761 -0.1195 -0.8059 -0.2868
14289SOL    HW244875   7.236   1.709   6.909 -1.0460  1.6675  0.1655
14290SOL     OW44876   5.301  10.905   4.801 -0.3341  0.0226 -0.0442
14290SOL    HW144877   5.272  10.983   4.849 -1.7675 -1.1876  1.1343
14290SOL    HW244878   5.285  10.832   4.860 -0.3991 -1.3353 -1.6497
14291SOL     OW44879   5.198   9.633   5.754  0.0615 -0.2398  0.0091
14291SOL    HW144880   5.230   9.571   5.819 -2.9077 -2.6110 -0.6018
14291SOL    HW244881   5.131   9.684   5.799 -0.6014 -0.5218 -0.6261
14292SOL     OW44882   4.321   7.700   5.831  0.1461 -0.9358 -0.5458
14292SOL    HW144883   4.346   7.777   5.779 -0.0720 -1.1036 -0.8992
14292SOL    HW244884   4.251   7.732   5.889  0.2506 -0.8010 -0.4906
14293SOL     OW44885   7.188   8.267   9.179 -0.2970 -0.0624  0.6563
14293SOL    HW144886   7.183   8.327   9.253  2.2146  0.3462  0.5928
14293SOL    HW244887   7.149   8.186   9.211 -1.7324  0.9016  1.4722
14294SOL     OW44888   0.683   1.930   5.406 -0.0357  0.5170 -0.3491
14294SOL    HW144889   0.714   2.017   5.431  0.6216  0.7146 -1.7443
14294SOL    HW244890   0.612   1.911   5.468  1.8111  0.7189  1.9436
14295SOL     OW44891   5.022   2.619   3.793  0.0170 -0.1848 -0.1812
14295SOL    HW144892   5.079   2.545   3.771 -0.6111 -0.0697 -2.3562
14295SOL    HW244893   4.935   2.581   3.802 -0.2560  0.2112 -1.0087
14296SOL     OW44894   1.532   4.180  10.450  0.3729  0.3943  0.0532
14296SOL    HW144895   1.583   4.207  10.527 -0.1322  0.4872  0.3637
14296SOL    HW244896   1.496   4.262  10.416  2.4782  0.6816 -1.6961
14297SOL     OW44897   5.931   5.710   2.868 -0.0257 -0.2084  0.2056
14297SOL    HW144898   5.940   5.778   2.934 -0.5775  1.9848 -1.8385
14297SOL    HW244899   5.923   5.758   2.785 -0.3218 -2.7768 -1.3594
14298SOL     OW44900   7.929   2.945   1.346 -0.1216  0.0561 -0.9340
14298SOL    HW144901   7.900   2.991   1.425 -0.4959  0.0826 -1.0837
14298SOL    HW244902   7.881   2.862   1.347  0.5093 -0.3076 -0.6954
14299SOL     OW44903   2.442  10.745   9.890 -0.2837  0.4455 -0.8045
14299SOL    HW144904   2.482  10.822   9.848  2.2328 -0.0265  0.5266
14299SOL    HW244905   2.470  10.672   9.835 -1.2701  0.2882 -1.1184
14300SOL     OW44906   8.851   4.458   8.765 -0.3361 -0.5149 -0.3610
14300SOL    HW144907   8.922   4.522   8.760 -0.6847 -0.1113 -0.2143
14300SOL    HW244908   8.779   4.498   8.716 -0.7593 -0.5214  0.2411
14301SOL     OW44909   9.742  10.066   3.158  0.0877  0.1022 -0.5538
14301SOL    HW144910   9.660  10.064   3.209  0.9830 -0.6003  0.9484
14301SOL    HW244911   9.733  10.143   3.101 -0.1235  2.3213  2.2277
14302SOL     OW44912   3.418   2.114   0.423  0.4406 -0.0008  0.1288
14302SOL    HW144913   3.358   2.180   0.387  1.3484 -0.3775 -2.3088
14302SOL    HW244914   3.505   2.148   0.403  0.9478 -1.2142  0.2002
14303SOL     OW44915   1.209   7.321   0.680  0.1898  0.3302 -0.3126
14303SOL    HW144916   1.149   7.249   0.700  1.8533 -1.2154 -0.6814
14303SOL    HW244917   1.238   7.352   0.766 -0.8509  0.8603 -0.1419
14304SOL     OW44918  11.032   3.098   1.210  0.6596  0.0825  0.0520
14304SOL    HW144919  11.056   3.124   1.121  1.6924  1.0498  0.5931
14304SOL    HW244920  10.941   3.067   1.202  0.0462  1.9945 -0.9959
14305SOL     OW44921   5.043   7.598   3.144  0.1810  0.0781 -0.3951
14305SOL    HW144922   4.973   7.663   3.146  1.7895  1.9282 -1.0588
14305SOL    HW244923   5.058   7.583   3.051  0.1150 -0.9850 -0.2511
14306SOL     OW44924   8.419   4.137   4.489  0.3834  0.5562 -0.0683
14306SOL    HW144925   8.369   4.056   4.495 -0.7160  1.1093 -1.2930
14306SOL    HW244926   8.353   4.206   4.482  1.2038  1.8632  3.2467
14307SOL     OW44927   7.449   9.464   5.660  0.1187  0.1527 -0.0482
14307SOL    HW144928   7.530   9.419   5.684 -0.5339 -1.2712 -0.4429
14307SOL    HW244929   7.415   9.414   5.586 -1.3454  0.4861  0.3807
14308SOL     OW44930   2.625   2.776   4.345  0.2038  0.6727  0.5040
14308SOL    HW144931   2.621   2.849   4.407  0.1898  0.2234  1.0434
14308SOL    HW244932   2.534   2.746   4.338  0.1820  0.8148  0.1461
14309SOL     OW44933   2.185   2.765   3.151 -0.3382  0.1939  0.0316
14309SOL    HW144934   2.140   2.842   3.116  1.2034  0.2421 -2.0150
14309SOL    HW244935   2.147   2.692   3.104  0.0657 -0.0259  0.0496
14310SOL     OW44936   2.629   8.998   3.855  0.0298  0.3218 -0.2939
14310SOL    HW144937   2.720   9.018   3.877 -0.7789  2.6436  1.2772
14310SOL    HW244938   2.623   9.017   3.761  1.2838 -0.4290 -0.5447
14311SOL     OW44939  10.569  10.324   7.706  0.0254  0.1510  0.5719
14311SOL    HW144940  10.592  10.353   7.617  1.1785  1.4775  1.2696
14311SOL    HW244941  10.554  10.405   7.754 -1.1792 -0.5739  1.4704
14312SOL     OW44942   2.109   1.935   9.898  0.3443 -0.4632  0.1918
14312SOL    HW144943   2.087   1.843   9.901 -0.4184 -0.3002 -0.3352
14312SOL    HW244944   2.112   1.962   9.990  0.6546 -1.0217  0.3504
14313SOL     OW44945   9.565  10.795   1.599 -0.6678  0.3771  0.7927
14313SOL    HW144946   9.557  10.889   1.580 -1.2234  0.5407  1.7413
14313SOL    HW244947   9.493  10.777   1.660 -0.7290 -0.7319  0.4063
14314SOL     OW44948   6.517  10.661   3.242  0.2515  0.0987 -0.0014
14314SOL    HW144949   6.555  10.732   3.191 -0.9892  1.3131  0.6752
14314SOL    HW244950   6.423  10.681   3.245  0.2054 -0.1798  2.2938
14315SOL     OW44951  10.801  11.073   3.719  0.3355  0.2113  0.4163
14315SOL    HW144952  10.710  11.056   3.743  0.5910 -0.9981  0.5588
14315SOL    HW244953  10.833  10.990   3.684  1.1002  0.8857 -0.5492
14316SOL     OW44954   8.706   0.916   7.053 -0.1828 -0.4208  0.0607
14316SOL    HW144955   8.624   0.965   7.051  0.4211  0.6125 -0.1565
14316SOL    HW244956   8.744   0.936   7.139  0.5394  0.3168 -0.4158
14317SOL     OW44957   1.633   0.972  10.418 -0.2935 -0.0387 -0.3392
14317SOL    HW144958   1.708   0.985  10.360 -0.1294 -0.7121 -0.2835
14317SOL    HW244959   1.661   0.905  10.480  0.6311  2.6614  2.4276
14318SOL     OW44960  10.276   1.316   2.204 -0.0173 -0.0412 -0.2475
14318SOL    HW144961  10.291   1.243   2.144  1.2410  0.4917 -0.6083
14318SOL    HW244962  10.360   1.360   2.210 -0.6810  1.2111  0.2095
14319SOL     OW44963   0.860   1.453   1.341 -0.1058  0.3921  0.0330
14319SOL    HW144964   0.805   1.448   1.263  1.2744 -1.1376 -0.8948
14319SOL    HW244965   0.903   1.368   1.346  1.9868  1.4229  0.8306
14320SOL     OW44966   1.746   7.516   4.615 -0.3131 -0.0359  0.3661
14320SOL    HW144967   1.792   7.589   4.573 -2.1914  0.6722 -0.5872
14320SOL    HW244968   1.790   7.438   4.581  0.6599  0.5993  0.0996
14321SOL     OW44969   3.308   2.004  11.038 -0.3796 -0.4508  0.5841
14321SOL    HW144970   3.364   2.031  11.111 -0.3655  0.1572  0.3549
14321SOL    HW244971   3.369   1.979  10.969 -0.3032  1.9328 -0.3227
14322SOL     OW44972   6.064   8.898   4.229 -0.3030 -0.7977 -0.2511
14322SOL    HW144973   6.055   8.968   4.165  2.7362 -0.6130 -0.6533
14322SOL    HW244974   6.042   8.818   4.181  0.3835 -0.4977 -1.1003
14323SOL     OW44975   6.578   4.237   9.161 -0.6924  0.1646  0.1634
14323SOL    HW144976   6.557   4.184   9.237 -1.0397  0.1412  0.0530
14323SOL    HW244977   6.644   4.186   9.113 -1.3902 -0.4035 -0.2044
14324SOL     OW44978   4.465   3.241   5.063 -0.0920  0.3779  0.1668
14324SOL    HW144979   4.456   3.321   5.116  0.7167  0.9484 -0.5434
14324SOL    HW244980   4.516   3.268   4.987 -1.7243 -0.2852 -1.2320
14325SOL     OW44981   5.977   8.315  11.018 -0.2707  0.3783  0.3909
14325SOL    HW144982   5.923   8.366  11.078 -0.9383  0.8997 -0.6223
14325SOL    HW244983   6.056   8.368  11.005 -0.2663  0.4122  0.5597
14326SOL     OW44984   8.732   4.986   6.578  0.3545  0.1827 -0.2351
14326SOL    HW144985   8.824   4.962   6.580  0.6685  1.2113 -1.3552
14326SOL    HW244986   8.695   4.933   6.508  0.4830  0.9923 -0.9351
14327SOL     OW44987   2.950   0.229   1.463 -0.4941 -0.3017  0.1461
14327SOL    HW144988   2.889   0.302   1.471 -0.8244 -0.7655  3.2372
14327SOL    HW244989   2.899   0.152   1.487  0.4790 -1.2039 -0.5788
14328SOL     OW44990   1.813   5.160   6.386 -0.3552  0.1835 -0.1096
14328SOL    HW144991   1.782   5.220   6.317 -1.2737 -0.1055  0.0497
14328SOL    HW244992   1.863   5.217   6.445 -1.4021  0.8470  0.1613
14329SOL     OW44993   7.323   6.745   6.537  0.2178 -0.0770 -0.7725
14329SOL    HW144994   7.408   6.789   6.545 -0.2658  0.7100  0.2155
14329SOL    HW244995   7.341   6.669   6.481  1.3346  0.6693 -1.4717
14330SOL     OW44996   2.699   0.894   9.489 -0.5830  0.8470 -0.1887
14330SOL    HW144997   2.670   0.986   9.496  0.7378  1.3617 -1.1632
14330SOL    HW244998   2.707   0.879   9.395 -0.9083 -0.3299 -0.0389
14331SOL     OW44999   9.549   7.219   0.031  0.4461 -0.5863  0.0583
14331SOL    HW145000   9.536   7.296   0.086  1.7122 -0.7729  0.6349
14331SOL    HW245001   9.463   7.176   0.030 -0.2000  0.6617 -0.0496
14332SOL     OW45002  10.891   4.799   8.076 -0.0479 -0.1415  0.2246
14332SOL    HW145003  10.896   4.804   7.980 -0.4641 -1.3893  0.1212
14332SOL    HW245004  10.913   4.708   8.096  1.8831  0.5308  1.4659
14333SOL     OW45005   2.842   2.570   7.412 -0.0271 -0.0656  0.4586
14333SOL    HW145006   2.782   2.642   7.394  0.1701 -0.2587 -1.1389
14333SOL    HW245007   2.860   2.577   7.506 -0.7193  1.3986  0.5204
14334SOL     OW45008   2.067   1.289   2.006 -0.2758 -0.4171  0.0831
14334SOL    HW145009   2.126   1.240   2.064  0.2130 -0.2146 -0.2372
14334SOL    HW245010   2.014   1.221   1.964 -3.1650 -0.4848  3.3238
14335SOL     OW45011   0.909   8.741   3.049 -0.4320  0.0902 -0.3945
14335SOL    HW145012   0.961   8.808   3.094 -0.5583  0.1757 -0.3781
14335SOL    HW245013   0.929   8.753   2.957 -1.0671  0.6666 -0.4611
14336SOL     OW45014   8.590   6.657  10.644 -0.3974  0.3151  0.5675
14336SOL    HW145015   8.589   6.745  10.682 -0.7661 -0.2441  1.9088
14336SOL    HW245016   8.500   6.641  10.618 -0.1145  0.7628 -0.7638
14337SOL     OW45017   9.337   5.077   2.826  0.2042  0.2133  0.8332
14337SOL    HW145018   9.425   5.062   2.860  1.1061  1.6391 -0.7097
14337SOL    HW245019   9.312   5.163   2.862  0.7055  1.2023 -1.0730
14338SOL     OW45020   5.547   7.266   5.827 -0.0397 -0.1491  0.3167
14338SOL    HW145021   5.591   7.319   5.894  1.6938 -0.8017 -0.2508
14338SOL    HW245022   5.569   7.308   5.744 -0.7214 -0.3515  0.0217
14339SOL     OW45023   0.924  11.046   6.476  0.0496 -0.0107  0.2626
14339SOL    HW145024   0.994  10.991   6.442  0.4632  0.2409  0.6925
14339SOL    HW245025   0.855  10.985   6.500  0.3208 -0.3019  0.3020
14340SOL     OW45026   1.307   5.470   5.554  0.0230  0.2098  0.3791
14340SOL    HW145027   1.274   5.383   5.529 -2.3998  1.5611 -1.5783
14340SOL    HW245028   1.261   5.490   5.636  0.4913 -0.2665  0.7671
14341SOL     OW45029   3.527   0.090   4.203 -0.0090 -0.4306  0.3939
14341SOL    HW145030   3.518   0.031   4.128  0.3235  0.5335 -0.4339
14341SOL    HW245031   3.486   0.172   4.174  0.6212  0.1350  1.0589
14342SOL     OW45032   3.784   7.738   3.888 -0.0959  0.2598 -0.2107
14342SOL    HW145033   3.773   7.681   3.964  0.1698  0.4450 -0.0318
14342SOL    HW245034   3.696   7.749   3.854 -0.6459  2.3428  1.6532
14343SOL     OW45035   2.802   9.288   7.701  0.7367  0.0086 -0.2279
14343SOL    HW145036   2.784   9.278   7.608 -0.5425 -0.1944  0.0253
14343SOL    HW245037   2.754   9.367   7.727  1.5094  0.3673  0.1638
14344SOL     OW45038   9.409   2.577  10.321  0.0607 -0.5623 -0.6530
14344SOL    HW145039   9.414   2.621  10.406 -1.2549  0.4958 -1.0857
14344SOL    HW245040   9.405   2.484  10.342  0.9023 -0.3848  0.3773
14345SOL     OW45041  10.009   8.466   9.671  0.7631  0.1564  0.0849
14345SOL    HW145042   9.937   8.415   9.635  1.1499  0.0131 -0.5083
14345SOL    HW245043  10.080   8.455   9.607  0.9100  1.2754  0.0357
14346SOL     OW45044   0.773   9.935  11.087  0.2290 -0.9816 -0.6601
14346SOL    HW145045   0.789   9.847  11.054 -1.5664 -0.8487 -2.0531
14346SOL    HW245046   0.678   9.945  11.083  0.1466  0.0475  2.1439
14347SOL     OW45047   6.723   8.258   2.734  1.0294 -0.3997  0.0747
14347SOL    HW145048   6.752   8.179   2.688  0.4440  0.8016 -2.5211
14347SOL    HW245049   6.628   8.257   2.724  0.9685  0.3548  0.5225
14348SOL     OW45050   7.038   8.335   3.133  0.1679 -0.0135  0.1399
14348SOL    HW145051   6.958   8.313   3.179  0.3564  1.5845  1.3378
14348SOL    HW245052   7.090   8.255   3.134 -1.4166 -1.1110 -0.7759
14349SOL     OW45053   3.764   9.299   7.307 -0.0688  0.4539  0.5651
14349SOL    HW145054   3.800   9.235   7.246 -1.9244  1.0356 -1.2827
14349SOL    HW245055   3.752   9.252   7.389  0.8952 -0.8425 -0.0089
14350SOL     OW45056   3.899  10.784   5.797  0.6152  0.5808  0.4891
14350SOL    HW145057   3.876  10.739   5.716  3.2362  0.7768 -0.4284
14350SOL    HW245058   3.817  10.824   5.825 -0.7171 -0.7968 -1.1868
14351SOL     OW45059   8.125   4.323   6.524 -0.1307  0.3951 -0.0372
14351SOL    HW145060   8.106   4.347   6.433  1.5995 -1.2651 -0.8908
14351SOL    HW245061   8.216   4.349   6.537  0.4566 -1.6975  0.3469
14352SOL     OW45062   4.495   0.466   6.454  0.2081  0.6062 -0.0774
14352SOL    HW145063   4.562   0.398   6.455  0.3701  0.7710  0.3064
14352SOL    HW245064   4.459   0.466   6.543 -0.6782  0.1473 -0.4260
14353SOL     OW45065   5.657   2.668   9.724 -0.1792 -0.1836  0.1156
14353SOL    HW145066   5.711   2.722   9.782 -0.6116 -1.3366  1.6890
14353SOL    HW245067   5.568   2.675   9.759 -0.5299 -0.6088 -0.6487
14354SOL     OW45068  10.508   2.767   6.706 -0.5460 -0.3899  0.0878
14354SOL    HW145069  10.465   2.731   6.628 -1.0634  0.8978 -0.2409
14354SOL    HW245070  10.437   2.792   6.764 -0.1529 -2.4133  1.5223
14355SOL     OW45071   2.215   8.340   0.157  0.3709  0.3257 -0.4241
14355SOL    HW145072   2.234   8.271   0.093 -0.1130 -1.2405  1.0508
14355SOL    HW245073   2.203   8.293   0.240  1.1385  2.2923  0.8678
14356SOL     OW45074   5.321   2.151   3.392 -0.5773  0.1037  0.5975
14356SOL    HW145075   5.413   2.137   3.411 -0.8608  0.0464  2.0616
14356SOL    HW245076   5.288   2.065   3.367 -0.5822 -0.2202  1.6975
14357SOL     OW45077   3.018   9.630   7.636  0.3885  0.1040 -0.0473
14357SOL    HW145078   3.031   9.540   7.664 -1.1390 -0.2660 -0.4123
14357SOL    HW245079   3.036   9.683   7.714  3.4959 -0.2752 -0.3780
14358SOL     OW45080   4.163   5.482   8.489  0.2840  0.1272  0.5478
14358SOL    HW145081   4.244   5.463   8.440 -0.9952  1.4014 -2.2769
14358SOL    HW245082   4.190   5.545   8.555  1.3506  2.0533 -1.5908
14359SOL     OW45083  10.944   3.726  10.341  0.1822 -0.7047  0.0478
14359SOL    HW145084  10.977   3.814  10.357 -0.2935 -0.5367  0.1212
14359SOL    HW245085  10.964   3.709  10.249  1.6262 -1.1106  0.4209
14360SOL     OW45086   6.623   6.642   6.784 -0.2127  0.6330  0.0333
14360SOL    HW145087   6.659   6.569   6.834 -0.1798  0.1573 -0.6606
14360SOL    HW245088   6.656   6.628   6.695 -0.4216  1.3509 -0.1635
14361SOL     OW45089   2.254  10.818   6.483 -0.0540  0.4746 -0.4016
14361SOL    HW145090   2.290  10.906   6.491 -0.6294  0.6297  0.6018
14361SOL    HW245091   2.195  10.822   6.408 -1.2973  1.3854  0.5864
14362SOL     OW45092   3.867   1.948   6.461 -0.1971  0.3779  0.3525
14362SOL    HW145093   3.915   1.926   6.381 -0.1441 -1.0092  0.7355
14362SOL    HW245094   3.779   1.912   6.447 -0.5500  1.1960  0.4343
14363SOL     OW45095   7.553  10.041  10.820 -0.0286  0.1463  0.0391
14363SOL    HW145096   7.603  10.047  10.739 -2.0436 -0.3269 -1.2929
14363SOL    HW245097   7.549   9.947  10.839 -1.4364  0.0581 -0.5760
14364SOL     OW45098   9.360   5.311   4.820 -0.0541  0.0600  0.1161
14364SOL    HW145099   9.309   5.371   4.766 -0.1204  0.7691  0.9470
14364SOL    HW245100   9.415   5.264   4.758 -1.6750 -0.7074 -0.8073
14365SOL     OW45101   3.436   9.955   9.748 -0.2019  0.2460 -0.4975
14365SOL    HW145102   3.439   9.942   9.654 -0.3301 -2.2394 -0.2090
14365SOL    HW245103   3.520   9.922   9.780  0.0985  1.6210  0.2492
14366SOL     OW45104   5.023  11.052  10.252 -0.4622  0.2384 -0.2352
14366SOL    HW145105   4.952  11.008  10.298 -0.2945  2.2451  2.1540
14366SOL    HW245106   5.101  11.034  10.304 -0.3022  2.7303  0.5338
14367SOL     OW45107   4.153   9.983   0.525  0.1140  0.0304  0.3833
14367SOL    HW145108   4.169   9.932   0.446  0.1408 -0.0996  0.4731
14367SOL    HW245109   4.125  10.069   0.492 -1.5339 -0.5275  0.2091
14368SOL     OW45110   3.473   9.356   5.585 -0.1710 -0.2245  0.6710
14368SOL    HW145111   3.489   9.280   5.529 -0.2875 -0.1618  0.5521
14368SOL    HW245112   3.556   9.369   5.631  0.7875  1.2291 -1.2978
14369SOL     OW45113   1.136   1.507   6.344  0.4811 -0.2522  0.0478
14369SOL    HW145114   1.060   1.521   6.288  0.8061  0.7321 -0.1588
14369SOL    HW245115   1.211   1.525   6.287  0.8104  2.0147  1.0815
14370SOL     OW45116   2.112   7.734   8.020 -0.0917  0.1659  0.1774
14370SOL    HW145117   2.043   7.708   8.081 -0.1337  0.2063  0.1470
14370SOL    HW245118   2.083   7.818   7.985  1.2855  1.6101  2.2828
14371SOL     OW45119   2.114   7.259   8.191 -0.5066 -0.3412 -0.9502
14371SOL    HW145120   2.051   7.240   8.121 -0.3807 -1.3512 -0.8032
14371SOL    HW245121   2.198   7.231   8.156 -0.4064 -0.6236 -0.4901
14372SOL     OW45122   9.659  10.252   6.035 -0.3265 -0.1709  0.3213
14372SOL    HW145123   9.635  10.160   6.038  0.0712 -0.3812 -1.6579
14372SOL    HW245124   9.690  10.272   6.124 -1.4776 -1.6194  1.0847
14373SOL     OW45125   8.779   2.075   3.685  0.2891 -0.3945  0.2425
14373SOL    HW145126   8.829   2.051   3.763 -0.4983 -1.0517  0.5614
14373SOL    HW245127   8.688   2.055   3.707 -0.2363  1.4770 -0.0582
14374SOL     OW45128   9.383  11.031   8.210 -0.2210 -0.2364 -0.1881
14374SOL    HW145129   9.369  11.050   8.303 -0.8168  2.1225 -0.7074
14374SOL    HW245130   9.477  11.044   8.197  0.0043 -1.3626  0.2251
14375SOL     OW45131   6.834   5.105   9.903  0.2384 -0.0227 -0.1309
14375SOL    HW145132   6.922   5.070   9.915  0.4739  0.6149  0.0098
14375SOL    HW245133   6.832   5.185   9.955 -1.0535 -1.0365  1.4639
14376SOL     OW45134   8.063   6.266   9.960 -0.4994  0.1122  0.2826
14376SOL    HW145135   8.133   6.281   9.896  0.1142 -1.0643  0.6425
14376SOL    HW245136   8.002   6.338   9.946  1.0926  1.5592  0.3721
14377SOL     OW45137   3.873  10.215   7.790 -0.2489  0.2564  0.7266
14377SOL    HW145138   3.911  10.258   7.866 -2.0536  0.6222  1.4946
14377SOL    HW245139   3.803  10.274   7.762  2.1649  1.6233 -3.1185
14378SOL     OW45140  11.088   7.750   5.523  0.4006 -0.7018 -0.0403
14378SOL    HW145141  11.053   7.687   5.460 -1.8827 -0.6188  1.0500
14378SOL    HW245142  11.128   7.696   5.591 -0.8244 -0.9767  0.4821
14379SOL     OW45143   6.094   7.922  10.787 -0.0162 -0.2388  0.0298
14379SOL    HW145144   6.143   7.841  10.770 -0.6757 -0.6437  0.0247
14379SOL    HW245145   6.159   7.983  10.821  0.5925 -0.6045 -0.4556
14380SOL     OW45146   9.419   7.719   7.728  0.0834  0.1386  0.3180
14380SOL    HW145147   9.349   7.716   7.663  1.3190  2.3189 -1.2483
14380SOL    HW245148   9.437   7.627   7.748 -0.9512 -0.5873 -1.7821
14381SOL     OW45149   0.192   8.214   2.290 -1.1017 -0.0339 -0.0769
14381SOL    HW145150   0.131   8.189   2.359  2.2027 -1.8743  2.4359
14381SOL    HW245151   0.246   8.283   2.329  0.2390 -0.4528 -1.1129
14382SOL     OW45152   5.680   1.325   2.659  0.4632  0.4397 -0.2878
14382SOL    HW145153   5.683   1.230   2.667  1.9219  0.4868 -0.0453
14382SOL    HW245154   5.701   1.343   2.567  2.2027  0.5627  0.0882
14383SOL     OW45155   4.714   1.100   6.854  0.2099  0.1305  0.4047
14383SOL    HW145156   4.736   1.039   6.784  1.2040  0.6982  0.2031
14383SOL    HW245157   4.641   1.059   6.900 -1.2926  0.2838 -1.6970
14384SOL     OW45158   4.087   5.017   9.025  0.2596  0.7233  0.4163
14384SOL    HW145159   4.160   4.990   8.969 -0.0609  1.1819 -0.2387
14384SOL    HW245160   4.009   5.002   8.972 -0.0218  1.5465  0.5825
14385SOL     OW45161   3.884  10.844   2.844 -0.4010  0.2261  0.2324
14385SOL    HW145162   3.809  10.892   2.811 -0.3457  1.0049  1.1774
14385SOL    HW245163   3.865  10.753   2.824 -1.8499  0.3496  0.9117
14386SOL     OW45164   0.802   8.799   2.785  0.2484  0.5503 -0.3472
14386SOL    HW145165   0.746   8.744   2.840  0.2457  0.6309 -0.2692
14386SOL    HW245166   0.751   8.813   2.705 -0.4079  1.7415  0.2698
14387SOL     OW45167   3.156   0.250   4.588  1.0111 -0.2263 -0.0622
14387SOL    HW145168   3.233   0.193   4.584  0.8558 -0.3556 -2.6710
14387SOL    HW245169   3.135   0.269   4.497 -0.2851  2.2386  0.6438
14388SOL     OW45170  10.914   6.193   4.205  0.3652 -0.0600 -0.1153
14388SOL    HW145171  10.993   6.158   4.163  0.3438  0.1799 -0.3537
14388SOL    HW245172  10.875   6.251   4.140 -1.4671 -2.1895 -1.0541
14389SOL     OW45173   8.858  10.764   6.514 -0.3606  0.5733 -0.3585
14389SOL    HW145174   8.951  10.745   6.505 -0.6159 -0.8393 -0.2337
14389SOL    HW245175   8.843  10.840   6.458  1.2720  2.2190  1.2625
14390SOL     OW45176   5.382   2.908   0.652  0.6661 -0.5105  0.8904
14390SOL    HW145177   5.326   2.836   0.681  0.6456 -0.9038 -0.0824
14390SOL    HW245178   5.371   2.976   0.719 -1.4631 -0.3307  0.4315
14391SOL     OW45179   2.802   0.749   5.400 -0.5983  0.1118  0.2394
14391SOL    HW145180   2.813   0.685   5.471 -0.5374 -0.0527  0.0832
14391SOL    HW245181   2.758   0.700   5.331  1.1099 -0.3178 -0.6097
14392SOL     OW45182   3.612  10.187   9.983  0.1606 -0.2973 -0.4525
14392SOL    HW145183   3.558  10.114  10.015  0.6489 -0.1150  0.8414
14392SOL    HW245184   3.587  10.196   9.891 -1.0333 -1.0899 -0.2371
14393SOL     OW45185   5.722   6.063   8.276 -0.6084 -0.5774  0.6511
14393SOL    HW145186   5.804   6.027   8.243 -0.9340 -0.4933 -0.2895
14393SOL    HW245187   5.727   6.156   8.255 -0.9412 -0.5730  0.5911
14394SOL     OW45188   0.962   9.505   8.054 -0.3902 -0.3849  0.1524
14394SOL    HW145189   0.994   9.417   8.031  0.7747  0.3544 -1.2247
14394SOL    HW245190   1.023   9.564   8.011 -2.3123  1.1222 -0.6526
14395SOL     OW45191   5.092   5.539  10.529  0.1362 -0.0818 -0.4201
14395SOL    HW145192   5.173   5.577  10.563  0.9033 -1.6065 -0.4674
14395SOL    HW245193   5.108   5.445  10.528 -1.8831 -0.4877  0.2059
14396SOL     OW45194   0.719  10.857   6.502  0.3165  0.2253  0.0549
14396SOL    HW145195   0.754  10.772   6.529  3.1022  1.5245  0.9127
14396SOL    HW245196   0.696  10.846   6.410  0.8989 -1.3540  0.0762
14397SOL     OW45197   3.103   1.638   5.199  0.2480 -0.0004 -0.1798
14397SOL    HW145198   3.093   1.552   5.239 -1.5026  0.4189  0.3375
14397SOL    HW245199   3.061   1.699   5.260  0.3752  1.0720 -1.1241
14398SOL     OW45200   4.794   3.049   8.414  0.6325  0.9730  0.0772
14398SOL    HW145201   4.869   3.087   8.369  2.1157 -0.6683  1.0272
14398SOL    HW245202   4.775   2.968   8.366 -0.3724  1.2260  0.0137
14399SOL     OW45203   5.882   7.531   3.750 -0.2345 -0.1448  0.7047
14399SOL    HW145204   5.966   7.563   3.716 -1.3211  0.8990 -1.1273
14399SOL    HW245205   5.894   7.530   3.845  1.1792  2.0367  0.6197
14400SOL     OW45206   4.907   9.640   8.483 -0.3531 -0.2115  0.3533
14400SOL    HW145207   4.901   9.699   8.558 -1.0673 -0.5754  0.5952
14400SOL    HW245208   4.833   9.664   8.427  1.6848  1.8890 -1.6203
14401SOL     OW45209   9.253   0.649  10.589 -0.4752 -0.4219 -0.0847
14401SOL    HW145210   9.222   0.560  10.605  1.5906 -1.2165 -0.2203
14401SOL    HW245211   9.218   0.672  10.503 -0.7350 -1.2411 -0.1989
14402SOL     OW45212   5.443   7.635   4.288  0.0141 -0.2832 -0.1724
14402SOL    HW145213   5.406   7.576   4.354 -2.1505 -0.1363 -1.1740
14402SOL    HW245214   5.405   7.606   4.206  0.0628  1.5770 -0.8925
14403SOL     OW45215   2.676   1.761   7.944 -0.1409 -0.1529  0.0122
14403SOL    HW145216   2.668   1.847   7.984  1.4230 -0.1475  0.3960
14403SOL    HW245217   2.603   1.711   7.980  0.1277  0.4212  1.4125
14404SOL     OW45218   7.002  10.901   2.559  0.3530  0.0458  0.0673
14404SOL    HW145219   7.075  10.865   2.507 -1.1429 -0.8641 -1.4939
14404SOL    HW245220   7.010  10.995   2.549  1.3982 -0.0281  0.0500
14405SOL     OW45221   8.952   1.622   7.014 -0.1312 -0.5542 -0.4981
14405SOL    HW145222   8.996   1.690   6.964  0.1199  0.8547  1.4798
14405SOL    HW245223   8.981   1.637   7.104 -1.1390 -2.4592  0.1921
14406SOL     OW45224   2.347   7.205   2.592 -0.6003  0.3477 -0.2044
14406SOL    HW145225   2.404   7.150   2.646 -0.4389  0.3188 -0.4038
14406SOL    HW245226   2.390   7.290   2.590 -1.1242  0.6361  0.5452
14407SOL     OW45227   9.158   7.388   6.553 -0.3455 -0.6544  0.0801
14407SOL    HW145228   9.177   7.298   6.528  0.3593 -0.3388 -0.5300
14407SOL    HW245229   9.069   7.384   6.588 -0.3749 -1.5605 -0.0719
14408SOL     OW45230   2.338   9.905   6.931  0.5618  0.1376 -0.0845
14408SOL    HW145231   2.356   9.973   6.996  0.1830  0.7512 -0.6184
14408SOL    HW245232   2.346   9.949   6.846  0.6995 -0.5729 -0.4532
14409SOL     OW45233   3.387  10.622   1.325  0.6125  0.0180 -0.2517
14409SOL    HW145234   3.313  10.661   1.279  0.3742 -0.6816 -0.4856
14409SOL    HW245235   3.365  10.529   1.331 -0.1439  0.2993  2.7588
14410SOL     OW45236   1.297   0.998   1.538 -0.3101 -0.6112  0.0822
14410SOL    HW145237   1.243   0.975   1.614 -1.8032 -0.0827 -0.7878
14410SOL    HW245238   1.276   0.932   1.473 -1.0560  0.4291 -0.7718
14411SOL     OW45239   5.483   3.915   8.031 -0.5063 -0.1487  0.2270
14411SOL    HW145240   5.461   3.943   8.120 -0.5552  0.3929  0.0439
14411SOL    HW245241   5.525   3.829   8.043  1.5363  0.8949  0.9749
14412SOL     OW45242   7.915   0.972   6.136 -0.6510 -0.5862 -0.0334
14412SOL    HW145243   7.879   1.031   6.071  1.1491  1.1422  0.4490
14412SOL    HW245244   7.947   0.897   6.086  0.9507  0.8291 -1.2298
14413SOL     OW45245   8.888   9.325   1.375  0.0503  0.0249  0.6836
14413SOL    HW145246   8.912   9.351   1.464 -0.1972  2.4016  0.1323
14413SOL    HW245247   8.855   9.406   1.335 -0.3160 -1.0971 -1.4071
14414SOL     OW45248  10.716   2.033  10.949 -0.4285  0.3145  0.3854
14414SOL    HW145249  10.672   1.969  10.893 -0.4772  0.1695  0.5936
14414SOL    HW245250  10.647   2.094  10.975 -0.3151  0.6763 -0.1192
14415SOL     OW45251   9.775   9.276   8.665 -0.3512  0.5934 -0.5149
14415SOL    HW145252   9.744   9.186   8.655 -0.9121  0.7855 -0.5606
14415SOL    HW245253   9.778   9.310   8.575 -0.3015  0.6733 -0.4835
14416SOL     OW45254   3.654   6.625   1.265  0.2300  0.6668 -0.0313
14416SOL    HW145255   3.574   6.605   1.313  0.6240 -0.2481  0.2581
14416SOL    HW245256   3.646   6.718   1.243 -0.4310  0.8394  0.9021
14417SOL     OW45257   8.828  10.123   8.366 -0.0708  0.1150 -0.3534
14417SOL    HW145258   8.871  10.161   8.290 -0.7930  0.6454 -0.5053
14417SOL    HW245259   8.871  10.164   8.441 -0.0873  0.3961 -0.4968
14418SOL     OW45260   9.969   8.600   5.932  0.1503  0.1314  0.5191
14418SOL    HW145261  10.020   8.672   5.893 -1.9959  0.9655 -0.9316
14418SOL    HW245262  10.013   8.521   5.901  0.6552  0.8154 -0.5961
14419SOL     OW45263   2.033   2.683   6.736  0.0822 -0.1989 -0.3720
14419SOL    HW145264   2.094   2.737   6.687 -0.7017  0.0655 -1.0844
14419SOL    HW245265   1.950   2.692   6.689 -0.9671  0.8675  1.5288
14420SOL     OW45266   7.465   8.719  10.226  0.2068 -0.0339  0.4993
14420SOL    HW145267   7.393   8.679  10.177  1.0618 -1.1757  0.1317
14420SOL    HW245268   7.529   8.744  10.159  0.9199 -0.6404  0.9392
14421SOL     OW45269   3.744   6.556   9.878  0.8487 -0.0224  0.3743
14421SOL    HW145270   3.801   6.556   9.801  0.4235 -0.0922  0.0608
14421SOL    HW245271   3.793   6.505   9.943  2.5419  2.3721  1.1544
14422SOL     OW45272  10.181   5.120   8.128 -0.2288  0.0046  0.3426
14422SOL    HW145273  10.261   5.081   8.092  0.2483  1.5910 -0.4029
14422SOL    HW245274  10.115   5.051   8.120  0.5304 -0.5905 -1.1029
14423SOL     OW45275   3.829   3.177   7.676  0.4165  0.4555 -0.0895
14423SOL    HW145276   3.809   3.227   7.755  1.2774 -0.3307  0.6494
14423SOL    HW245277   3.925   3.180   7.669  0.5447 -1.6112  0.3400
14424SOL     OW45278   0.671   0.902  10.737 -0.6365 -0.3617  0.5775
14424SOL    HW145279   0.653   0.870  10.649  0.0392 -1.0870  0.6918
14424SOL    HW245280   0.650   0.995  10.733  1.8638  0.2328 -1.1268
14425SOL     OW45281   2.343   8.950   4.651  0.1845  0.1659 -0.3045
14425SOL    HW145282   2.284   9.012   4.694  0.1108  0.1499 -0.3829
14425SOL    HW245283   2.316   8.950   4.559  1.7394  1.8703 -0.8222
14426SOL     OW45284   1.669   7.542   0.712  0.6617  0.2418 -0.4545
14426SOL    HW145285   1.648   7.450   0.694  0.2722 -0.0060  1.1208
14426SOL    HW245286   1.596   7.591   0.674  0.1008 -0.2187  0.0069
14427SOL     OW45287   0.380   5.342   6.325  0.4345  0.2824 -0.4426
14427SOL    HW145288   0.381   5.295   6.408  0.0040 -0.0449 -0.6174
14427SOL    HW245289   0.347   5.429   6.346  1.1098  0.4715 -0.1384
14428SOL     OW45290   6.051   8.780   6.917  0.2175  0.0798  0.1344
14428SOL    HW145291   6.090   8.713   6.975  0.9906  0.8328  0.5082
14428SOL    HW245292   6.006   8.729   6.849  1.0366 -0.8291  0.2447
14429SOL     OW45293   7.307   8.435   4.097 -0.6984  0.0603 -0.0784
14429SOL    HW145294   7.384   8.388   4.130 -0.8710  0.1715  0.4883
14429SOL    HW245295   7.293   8.506   4.160 -1.9458 -0.6259  0.4532
14430SOL     OW45296   9.508   2.059   6.903  0.7939 -0.2826 -0.3939
14430SOL    HW145297   9.418   2.049   6.933  0.3625  1.7453 -0.8054
14430SOL    HW245298   9.506   2.034   6.810  0.0003  2.1603 -1.1150
14431SOL     OW45299   5.473   9.077   5.339 -0.0990  0.2554  0.3798
14431SOL    HW145300   5.484   9.148   5.402  2.2845 -0.8205  1.3063
14431SOL    HW245301   5.456   9.000   5.394 -0.0587 -0.3321 -0.4265
14432SOL     OW45302   6.452   1.271   7.094  0.1732 -0.0249  0.1210
14432SOL    HW145303   6.456   1.360   7.058 -0.3669 -0.8398 -2.1435
14432SOL    HW245304   6.412   1.219   7.024 -2.3171 -1.5244  2.4625
14433SOL     OW45305   8.524   2.269   8.711 -0.2926  0.2432  0.5015
14433SOL    HW145306   8.483   2.306   8.789 -0.4702  1.1744 -0.0284
14433SOL    HW245307   8.451   2.251   8.652 -0.2537 -1.2819  0.8554
14434SOL     OW45308   9.871  10.573   7.527 -0.1311  0.3516 -0.2775
14434SOL    HW145309   9.838  10.518   7.599  0.9364 -0.1298 -0.1418
14434SOL    HW245310   9.896  10.655   7.570 -1.1686  0.7410 -0.3895
14435SOL     OW45311   3.610   0.227   9.105  0.6188 -0.2372  0.4610
14435SOL    HW145312   3.532   0.214   9.051  0.8371  1.2146 -0.2694
14435SOL    HW245313   3.616   0.148   9.158 -0.0677 -1.3572 -1.0546
14436SOL     OW45314   4.245  10.024   5.961 -0.3154 -0.3203  0.1124
14436SOL    HW145315   4.264   9.968   6.036  0.5119 -0.3402 -0.0985
14436SOL    HW245316   4.296   9.986   5.889 -0.4096  0.2027 -0.2383
14437SOL     OW45317   0.961   0.656   0.966  0.5272 -0.6389  1.0872
14437SOL    HW145318   1.007   0.592   0.912  0.0166 -1.2669  1.3869
14437SOL    HW245319   0.949   0.612   1.050  0.6631  0.0599  1.4778
14438SOL     OW45320   9.096   0.100   4.515  0.3663 -0.3965 -0.1251
14438SOL    HW145321   9.021   0.127   4.462 -0.2305 -1.2451  0.2710
14438SOL    HW245322   9.059   0.045   4.583  1.1541  0.4712  1.0376
14439SOL     OW45323  10.837   5.574   9.796 -0.3505  0.0310  0.3042
14439SOL    HW145324  10.920   5.608   9.831 -0.7667  0.4905  0.8617
14439SOL    HW245325  10.781   5.651   9.790 -0.3390 -0.0582 -1.2832
14440SOL     OW45326  11.100  10.624   0.466  0.4697 -0.3595 -0.4417
14440SOL    HW145327  11.186  10.664   0.468 -0.3679  1.4976  1.1687
14440SOL    HW245328  11.087  10.590   0.554  0.0345 -1.7663 -1.0160
14441SOL     OW45329   8.285   4.553   0.548 -0.2054 -0.2382  0.0505
14441SOL    HW145330   8.359   4.513   0.502  0.1619 -0.6052  0.9316
14441SOL    HW245331   8.276   4.502   0.629 -0.8669  0.3453  0.3611
14442SOL     OW45332   0.945   1.040   2.344 -0.3734 -0.3105  0.2455
14442SOL    HW145333   0.891   0.967   2.311  2.1100 -2.0544 -0.2311
14442SOL    HW245334   0.998   1.066   2.268 -0.6709  1.5262  0.6286
14443SOL     OW45335   4.062   3.925   7.314 -0.7882  0.1173 -0.2304
14443SOL    HW145336   3.987   3.870   7.335 -0.4304 -0.0587  0.6171
14443SOL    HW245337   4.032   4.014   7.329 -0.8053  0.0423  0.1764
14444SOL     OW45338   8.491   4.342   1.511  0.5258 -0.0683 -0.2507
14444SOL    HW145339   8.580   4.376   1.513  0.6281 -0.3369 -0.2412
14444SOL    HW245340   8.500   4.248   1.527  0.2877 -0.1822 -0.7562
14445SOL     OW45341  10.887  10.206   4.485 -0.1019  0.1558  0.2516
14445SOL    HW145342  10.867  10.294   4.453 -0.0630 -0.2184 -0.8508
14445SOL    HW245343  10.945  10.220   4.560 -0.2284  1.0734  0.1873
14446SOL     OW45344   9.061   4.871   6.437 -0.2973 -0.5969  0.3988
14446SOL    HW145345   9.099   4.784   6.449  0.0758 -0.2188  2.3029
14446SOL    HW245346   9.104   4.926   6.502 -2.9252  0.2143  1.6181
14447SOL     OW45347   4.598   9.115   1.433  0.4767 -0.3350  0.4733
14447SOL    HW145348   4.534   9.132   1.503  1.1074  3.2521  0.3786
14447SOL    HW245349   4.678   9.091   1.480  0.2455 -0.3618  0.8631
14448SOL     OW45350   1.739  10.524   1.229  0.1870 -0.5371 -0.1203
14448SOL    HW145351   1.734  10.614   1.262 -0.1668 -0.3930 -0.5636
14448SOL    HW245352   1.749  10.470   1.308 -3.0666 -0.4230  0.4944
14449SOL     OW45353  10.210   4.497   9.965  0.1278 -0.3404  0.6787
14449SOL    HW145354  10.160   4.443  10.025  0.2425 -1.1839  0.0228
14449SOL    HW245355  10.301   4.490   9.996 -0.0139  0.4022  1.2779
14450SOL     OW45356   0.422   2.204   5.010  0.0685 -0.0095 -0.0454
14450SOL    HW145357   0.410   2.260   4.933  0.6606  0.5411  0.2464
14450SOL    HW245358   0.389   2.119   4.983 -4.8923  1.2990  0.7833
14451SOL     OW45359   4.572  10.002   2.702 -0.2526 -0.0041 -0.4183
14451SOL    HW145360   4.491   9.991   2.652 -1.0560 -1.6840  1.1487
14451SOL    HW245361   4.612   9.916   2.702  0.4064  0.2885  0.7031
14452SOL     OW45362   5.325   2.157   9.976  0.0707  0.0470 -0.0504
14452SOL    HW145363   5.410   2.154   9.933  0.2560 -1.3140  0.3359
14452SOL    HW245364   5.345   2.170  10.069 -0.2879  2.2516 -0.2441
14453SOL     OW45365   3.617   1.361   7.729  0.0510  0.3014  0.0811
14453SOL    HW145366   3.576   1.330   7.810 -0.2480 -0.1008 -0.2230
14453SOL    HW245367   3.674   1.433   7.757  0.2559 -0.0952  0.7026
14454SOL     OW45368   7.147   3.312  10.435 -0.4812  0.1491  0.1372
14454SOL    HW145369   7.187   3.369  10.370  0.2256 -0.4309  0.0612
14454SOL    HW245370   7.153   3.224  10.398 -1.6229  0.0110  0.2222
14455SOL     OW45371   8.970   0.855   7.301 -0.3142 -0.1438 -0.5839
14455SOL    HW145372   8.878   0.868   7.322 -0.9193 -2.0536 -1.7445
14455SOL    HW245373   8.992   0.927   7.243 -0.6621  1.0678  0.7321
14456SOL     OW45374  10.622   4.108  10.312 -0.1515  0.0885 -0.1980
14456SOL    HW145375  10.648   4.034  10.256 -2.4468 -0.0960 -1.1250
14456SOL    HW245376  10.700   4.164  10.316  1.1544 -1.6123 -0.7222
14457SOL     OW45377   7.854   2.076   5.742  0.1582 -0.1333  0.2508
14457SOL    HW145378   7.770   2.068   5.696  0.0448  1.4966  0.0954
14457SOL    HW245379   7.882   2.166   5.724  1.4328 -0.3182  1.1726
14458SOL     OW45380  10.482   2.347   8.125  0.0573 -0.2219  0.6894
14458SOL    HW145381  10.460   2.427   8.174 -2.9026 -0.7417  0.4047
14458SOL    HW245382  10.462   2.276   8.186  0.5363 -0.8073  0.1763
14459SOL     OW45383   6.560   4.332   7.423 -0.3137  0.2159  0.1896
14459SOL    HW145384   6.499   4.341   7.496 -1.0119  0.6236 -0.4293
14459SOL    HW245385   6.535   4.402   7.362 -0.4687 -0.7921 -0.9449
14460SOL     OW45386   4.476   1.261   3.306  0.8708  0.7978 -0.2761
14460SOL    HW145387   4.436   1.349   3.309 -1.1752 -0.0980  1.1938
14460SOL    HW245388   4.508   1.253   3.216 -3.0742  1.3795 -1.9477
14461SOL     OW45389   6.224   9.962   6.956  0.2977  0.0735 -0.2652
14461SOL    HW145390   6.138   9.999   6.933  0.2839  1.2360  1.5161
14461SOL    HW245391   6.286  10.008   6.899 -0.0751  0.4719 -0.3521
14462SOL     OW45392   4.025   7.140   0.673 -0.6019 -0.2450  0.0370
14462SOL    HW145393   4.038   7.207   0.606  0.8809 -0.7712 -0.2452
14462SOL    HW245394   4.067   7.177   0.751 -3.9721  1.2345  1.3793
14463SOL     OW45395   7.591   7.133   3.074  0.0041 -0.4622 -0.3279
14463SOL    HW145396   7.520   7.080   3.111  0.2164 -1.2758 -1.0689
14463SOL    HW245397   7.561   7.157   2.987 -0.2571  1.0020  0.1348
14464SOL     OW45398   4.917   7.431   9.991  0.1080 -0.0973  0.5624
14464SOL    HW145399   4.918   7.340   9.961 -0.3383  0.0229  0.1725
14464SOL    HW245400   4.898   7.482   9.912  1.8152  0.4589  0.4755
14465SOL     OW45401   7.746   8.430   5.151  0.5013 -0.0112 -0.3949
14465SOL    HW145402   7.839   8.408   5.149  0.3812 -0.5375 -1.3694
14465SOL    HW245403   7.731   8.479   5.070 -0.5095 -2.0003 -1.4997
14466SOL     OW45404   6.206   0.933   5.326  0.0741 -0.9875 -0.3932
14466SOL    HW145405   6.279   0.877   5.355  0.2292 -0.8139 -0.4507
14466SOL    HW245406   6.246   1.019   5.312 -0.3664 -0.5707  0.7683
14467SOL     OW45407   4.552   9.838   3.460  0.2890  0.3696 -0.0971
14467SOL    HW145408   4.642   9.866   3.478  0.2418 -0.4618  1.6242
14467SOL    HW245409   4.546   9.837   3.365  2.0255  0.6774 -0.2458
14468SOL     OW45410   8.726   3.694   0.461 -0.3618  0.6714 -0.0123
14468SOL    HW145411   8.638   3.729   0.472 -0.6803 -0.1696  0.0953
14468SOL    HW245412   8.737   3.685   0.366 -1.7847 -2.6915  0.0215
14469SOL     OW45413   2.538  10.726   2.401  0.1536  0.2242  0.6297
14469SOL    HW145414   2.452  10.755   2.372  0.1801  0.6484  0.9606
14469SOL    HW245415   2.524  10.694   2.491  0.3553  0.3882  0.7214
14470SOL     OW45416   5.621   5.793   7.197 -0.3038 -0.2916 -0.0410
14470SOL    HW145417   5.606   5.841   7.116  0.7166 -1.0067 -0.6770
14470SOL    HW245418   5.691   5.842   7.241  1.0528 -1.3764 -0.8997
14471SOL     OW45419   3.520  10.988   6.068 -0.2039  0.3417 -0.0057
14471SOL    HW145420   3.452  10.975   6.135 -1.2193  0.3839 -0.9873
14471SOL    HW245421   3.600  11.005   6.117 -0.7941 -0.2333  1.1992
14472SOL     OW45422   8.595   9.385  10.223 -0.5626 -0.1617 -0.7134
14472SOL    HW145423   8.587   9.438  10.144 -0.2945 -0.8359 -1.1950
14472SOL    HW245424   8.514   9.334  10.226 -0.7815  0.2003 -0.2944
14473SOL     OW45425   5.838   0.833   8.401  0.3291  0.0458  0.8439
14473SOL    HW145426   5.908   0.806   8.460  1.0910  1.3107  0.5781
14473SOL    HW245427   5.764   0.852   8.458  0.8169  0.5138  1.3345
14474SOL     OW45428   3.323   3.063   4.966  0.0845 -0.0264 -0.3714
14474SOL    HW145429   3.273   3.104   4.895  0.2083  0.2881 -0.2829
14474SOL    HW245430   3.378   3.134   5.000 -1.1669  0.2707  1.1328
14475SOL     OW45431   0.461   2.633   8.666 -0.1985  0.0174 -0.4026
14475SOL    HW145432   0.383   2.583   8.640  0.5881 -1.1344 -0.6200
14475SOL    HW245433   0.468   2.702   8.600 -0.5401 -0.3976 -0.8776
14476SOL     OW45434  10.312  10.229   0.160 -0.2367 -0.0620 -0.3812
14476SOL    HW145435  10.309  10.136   0.137 -0.3106  0.2817 -1.8703
14476SOL    HW245436  10.352  10.271   0.084 -1.1793  1.2602 -0.1864
14477SOL     OW45437   4.945   4.722   8.248 -0.4100 -0.0131  0.4138
14477SOL    HW145438   4.953   4.750   8.157 -0.7622  0.8120  0.6235
14477SOL    HW245439   5.033   4.695   8.273  0.0507  1.3652  0.3281
14478SOL     OW45440   4.394   5.076   9.058 -0.1081 -0.1057 -0.1018
14478SOL    HW145441   4.349   5.027   8.989 -3.6219  0.2548  1.6714
14478SOL    HW245442   4.324   5.103   9.118  2.5064  1.0140  2.7644
14479SOL     OW45443   8.937   2.886   8.930 -0.4189 -0.2478  0.6507
14479SOL    HW145444   8.854   2.874   8.883  0.8597 -0.9799 -1.5966
14479SOL    HW245445   8.996   2.822   8.889  1.7051  1.3909  0.9980
14480SOL     OW45446   3.725   8.951   7.921  0.2001  0.3889  0.8333
14480SOL    HW145447   3.716   8.993   7.835  0.3652  2.8201  1.9140
14480SOL    HW245448   3.760   8.864   7.901  0.1857  0.8445 -1.5523
14481SOL     OW45449   3.984   8.439   7.629  0.4564  0.1576  0.2263
14481SOL    HW145450   3.983   8.369   7.694  1.1867  1.8950  2.1809
14481SOL    HW245451   3.931   8.509   7.667  1.5546  1.5380 -0.6809
14482SOL     OW45452   8.064   2.225   0.152 -0.4005  0.2928 -0.0357
14482SOL    HW145453   8.108   2.206   0.069 -0.4414 -1.8194  0.3565
14482SOL    HW245454   8.049   2.139   0.190  1.1914  1.2326  3.0037
14483SOL     OW45455   5.524   2.029  10.815  0.2495 -0.1954  0.1334
14483SOL    HW145456   5.450   1.982  10.775  0.4120 -0.8224  0.5570
14483SOL    HW245457   5.483   2.096  10.869  0.0212  1.6165 -2.1138
14484SOL     OW45458   6.145   6.005  10.672  0.7993  0.2982  0.2506
14484SOL    HW145459   6.194   6.087  10.677  1.4240 -0.1093  1.6640
14484SOL    HW245460   6.204   5.944  10.628  0.1490  0.7133 -1.2269
14485SOL     OW45461   1.590   0.855   9.705 -0.1782  0.2856 -0.6119
14485SOL    HW145462   1.519   0.896   9.656 -0.0478 -0.6997 -1.6812
14485SOL    HW245463   1.655   0.833   9.638  0.3693 -0.3774  0.1182
14486SOL     OW45464   0.887   1.709   9.239  0.8026 -0.2669  0.1733
14486SOL    HW145465   0.854   1.641   9.298 -0.1804  0.8075  0.9078
14486SOL    HW245466   0.979   1.717   9.261  1.3117 -2.4017 -0.9803
14487SOL     OW45467   8.297  10.239  10.482 -0.3379 -0.4660 -0.3679
14487SOL    HW145468   8.315  10.247  10.576 -1.3486  2.6187 -0.3381
14487SOL    HW245469   8.384  10.232  10.442  0.2393  0.5595  0.6559
14488SOL     OW45470   2.534   4.834   5.546 -0.1292 -0.0587  0.2244
14488SOL    HW145471   2.482   4.900   5.500  0.1174 -1.5610 -2.3810
14488SOL    HW245472   2.470   4.783   5.595 -0.9139 -0.7186 -1.4440
14489SOL     OW45473  10.840   8.755   0.040 -0.8802  0.1695  0.4776
14489SOL    HW145474  10.890   8.691  -0.010 -1.5740  0.3550 -0.4776
14489SOL    HW245475  10.901   8.786   0.108  0.0183 -0.2102 -0.1423
14490SOL     OW45476  10.775   0.705   6.924 -0.2519  0.1639 -0.2828
14490SOL    HW145477  10.683   0.681   6.913 -0.4676 -0.2058  1.8511
14490SOL    HW245478  10.774   0.796   6.954  0.0546  0.0758  0.0096
14491SOL     OW45479   0.229   1.511   5.171  0.4825 -0.5630 -0.7586
14491SOL    HW145480   0.171   1.435   5.171 -1.3197  0.5860  2.8624
14491SOL    HW245481   0.172   1.585   5.150  0.5792  0.5037  2.2275
14492SOL     OW45482   1.846   6.056   4.667  0.2726  0.3669  0.6178
14492SOL    HW145483   1.858   6.151   4.672  0.3328  0.3917  0.1123
14492SOL    HW245484   1.831   6.029   4.757  2.1082  0.6056  1.0330
14493SOL     OW45485   3.170   0.977   7.558  0.1705 -1.2258 -0.0420
14493SOL    HW145486   3.182   0.883   7.572 -1.3204 -1.2889  1.0728
14493SOL    HW245487   3.141   1.010   7.643  1.1887  0.3516 -0.2694
14494SOL     OW45488   1.503   9.321   8.938  0.5056 -0.0028 -0.3039
14494SOL    HW145489   1.471   9.411   8.952 -0.2499 -0.5961  2.2941
14494SOL    HW245490   1.572   9.331   8.873 -1.2602  2.0888 -2.0544
14495SOL     OW45491   3.458   2.568   6.129  0.4103 -0.3592 -0.4653
14495SOL    HW145492   3.501   2.527   6.054 -0.9271 -3.1862  0.1651
14495SOL    HW245493   3.530   2.596   6.186  1.4670  2.1205 -2.7773
14496SOL     OW45494   2.155   6.083   9.457  0.2487  0.4100  0.1465
14496SOL    HW145495   2.206   6.161   9.435  0.9605  0.3350  1.4310
14496SOL    HW245496   2.070   6.118   9.484 -1.0237  0.4546 -3.4507
14497SOL     OW45497   1.301   0.752   9.950 -0.8168  0.9136  0.1436
14497SOL    HW145498   1.357   0.729  10.024 -1.3326 -0.3871  0.1626
14497SOL    HW245499   1.335   0.701   9.877 -1.5304  0.6543 -0.0166
14498SOL     OW45500   4.176   9.446   5.464  0.3023 -0.3046 -0.0647
14498SOL    HW145501   4.143   9.532   5.490  2.8295  0.4095  1.0780
14498SOL    HW245502   4.189   9.454   5.369 -2.1662 -0.4684 -0.4838
14499SOL     OW45503   3.425  10.050   4.986 -0.4284 -0.1683  0.6786
14499SOL    HW145504   3.518  10.060   5.004 -0.3816  0.4769  0.1118
14499SOL    HW245505   3.416  10.072   4.893 -0.7662 -2.6465  0.0495
14500SOL     OW45506   2.969   4.168   9.968  0.2641  0.6360  0.0894
14500SOL    HW145507   3.057   4.152   9.936  0.8541  0.5561  1.6660
14500SOL    HW245508   2.945   4.089  10.016 -0.3997  0.9049  0.2167
14501SOL     OW45509   5.000   7.199   8.023  0.3897  0.1988 -0.0032
14501SOL    HW145510   5.076   7.234   8.070  1.8407 -2.0948 -0.4772
14501SOL    HW245511   4.967   7.129   8.080 -1.3546  1.0550  0.1294
14502SOL     OW45512   1.194   6.061  10.321 -0.2907  0.0334 -0.2097
14502SOL    HW145513   1.167   6.153  10.318  0.5216  0.3720  1.6199
14502SOL    HW245514   1.204   6.042  10.414  1.2761 -1.4012 -0.6214
14503SOL     OW45515  10.926   8.821   6.207  0.0254  0.1954 -0.0344
14503SOL    HW145516  10.993   8.852   6.146 -0.9641  2.2680 -0.1567
14503SOL    HW245517  10.871   8.897   6.223 -0.2089 -0.4649  2.8779
14504SOL     OW45518   0.781   4.261   4.446  0.6083 -0.8725 -0.1739
14504SOL    HW145519   0.849   4.327   4.432  0.1025 -0.4792 -0.8984
14504SOL    HW245520   0.700   4.306   4.421  0.1322 -1.4469  0.3256
14505SOL     OW45521   5.507  10.845   6.920  0.4623  0.0856 -0.0472
14505SOL    HW145522   5.447  10.916   6.897 -0.4691 -0.5902  0.1886
14505SOL    HW245523   5.579  10.852   6.858  0.2980  1.1203 -0.1351
14506SOL     OW45524   4.509   0.109   5.128 -0.0848  0.4550  0.3371
14506SOL    HW145525   4.433   0.102   5.072 -0.2595 -1.1720  0.7443
14506SOL    HW245526   4.558   0.184   5.093 -1.4081  0.9730 -0.4576
14507SOL     OW45527   0.207  10.032   8.544  0.2986  0.3647 -0.2485
14507SOL    HW145528   0.182  10.117   8.580  1.1760  0.5033  0.0511
14507SOL    HW245529   0.199  10.044   8.449  4.3762  2.1731 -0.5689
14508SOL     OW45530   4.079   0.487   6.027  0.4808  0.0396 -0.3226
14508SOL    HW145531   3.991   0.459   6.003  0.1235 -0.0457  1.0184
14508SOL    HW245532   4.134   0.460   5.953 -0.6911  0.6199 -1.4399
14509SOL     OW45533   9.244   3.463   0.519 -0.4500  0.8564 -0.7913
14509SOL    HW145534   9.215   3.442   0.607 -1.0354  2.7773 -0.4790
14509SOL    HW245535   9.191   3.407   0.462 -0.5446  0.0896  0.0371
14510SOL     OW45536   2.468   3.846   9.021 -0.2938  0.8483  0.3375
14510SOL    HW145537   2.466   3.922   9.079  1.9979  1.7750 -0.6875
14510SOL    HW245538   2.557   3.811   9.029 -0.5696 -0.2785 -1.0296
14511SOL     OW45539   2.040   1.295   6.591  0.5648 -0.9286  0.4487
14511SOL    HW145540   2.101   1.235   6.632  1.0774  0.0597  1.1737
14511SOL    HW245541   2.012   1.250   6.511  0.4079 -2.3961  1.3092
14512SOL     OW45542   3.013   5.703   2.285  0.7481  0.1062  0.5826
14512SOL    HW145543   2.966   5.620   2.278  2.6954 -0.9371 -1.3307
14512SOL    HW245544   2.949   5.764   2.323 -1.9516 -1.3214 -1.3571
14513SOL     OW45545   9.684   6.503  10.746  0.2071 -0.4840  0.4818
14513SOL    HW145546   9.733   6.422  10.760 -0.0730 -0.9958 -1.2297
14513SOL    HW245547   9.723   6.540  10.667 -0.0170  0.8002  0.9584
14514SOL     OW45548   3.745   1.091   2.544 -0.1457  0.0704 -0.1646
14514SOL    HW145549   3.691   1.121   2.617  0.8735  1.0009  0.2333
14514SOL    HW245550   3.696   1.117   2.466  0.2184  1.9417  0.1765
14515SOL     OW45551   2.388   9.818  10.367  0.2378 -0.3502 -0.1834
14515SOL    HW145552   2.310   9.782  10.326  1.5878  0.7051 -4.1329
14515SOL    HW245553   2.358   9.897  10.411 -1.1336 -0.7064 -0.4381
14516SOL     OW45554   6.292   2.629  10.317  0.8942 -0.2477 -0.1214
14516SOL    HW145555   6.207   2.639  10.361  0.2303 -1.8486 -0.9640
14516SOL    HW245556   6.326   2.546  10.349  1.2645 -0.5274 -1.2189
14517SOL     OW45557   3.476   9.167   4.385 -0.2696  0.3618 -0.2719
14517SOL    HW145558   3.442   9.200   4.468  1.4569 -0.0020  0.6408
14517SOL    HW245559   3.542   9.232   4.360  1.3241 -1.0006  0.2134
14518SOL     OW45560   6.877   8.186   8.758 -0.8527 -0.0184  0.5507
14518SOL    HW145561   6.952   8.239   8.729 -1.2622  0.2642 -0.0085
14518SOL    HW245562   6.869   8.118   8.691 -1.7295  0.5627  0.0406
14519SOL     OW45563   9.602   6.334   2.391  0.7076 -0.0007 -0.0917
14519SOL    HW145564   9.691   6.347   2.422  0.8236 -2.2465  0.6595
14519SOL    HW245565   9.571   6.423   2.371  2.6979  0.9356  0.6810
14520SOL     OW45566   5.716   6.705   2.793 -0.7890  0.0644  0.2547
14520SOL    HW145567   5.760   6.733   2.873 -0.4363 -0.3485  0.2116
14520SOL    HW245568   5.766   6.628   2.764 -1.0016  0.1242 -0.2817
14521SOL     OW45569   0.683  10.238   4.481 -0.8635  0.2919  0.0062
14521SOL    HW145570   0.739  10.233   4.559 -0.0975 -1.1132 -0.5898
14521SOL    HW245571   0.713  10.165   4.426 -1.7032  0.9704 -1.3942
14522SOL     OW45572   0.556   1.741   3.597  0.0961 -0.4589  0.5477
14522SOL    HW145573   0.632   1.698   3.559 -0.0176 -0.3212  0.1588
14522SOL    HW245574   0.591   1.822   3.636  0.1862 -0.5112  0.5745
14523SOL     OW45575   0.504   0.509   8.715  0.2307  0.1054 -0.3870
14523SOL    HW145576   0.575   0.472   8.662 -0.2316  0.3556 -1.1989
14523SOL    HW245577   0.470   0.581   8.662  1.2772  1.8968  1.2618
14524SOL     OW45578   3.716   9.343   5.713 -0.5059 -0.9972  0.4836
14524SOL    HW145579   3.806   9.374   5.715 -1.4969  2.2917 -0.5239
14524SOL    HW245580   3.711   9.281   5.787  2.5706 -1.5110  0.3947
14525SOL     OW45581   1.455   0.279  10.177 -0.2983  0.0213 -0.1868
14525SOL    HW145582   1.460   0.186  10.155  0.7163  0.1180 -0.4080
14525SOL    HW245583   1.475   0.324  10.095 -1.3650  0.4522 -0.2244
14526SOL     OW45584   4.762   9.504   9.706  0.3238  0.3347 -0.2144
14526SOL    HW145585   4.734   9.479   9.618 -0.1723 -1.2684  0.3645
14526SOL    HW245586   4.853   9.532   9.695  1.1900 -2.4057 -0.9041
14527SOL     OW45587   0.596  10.178   6.928 -0.1595 -0.1160 -0.2170
14527SOL    HW145588   0.670  10.213   6.977 -1.7631  2.4441  0.5729
14527SOL    HW245589   0.627  10.172   6.838  1.1865  0.2858  0.2088
14528SOL     OW45590   0.138   1.326   1.682  0.0392  0.4865 -0.3175
14528SOL    HW145591   0.210   1.383   1.712  0.2710  0.1730 -0.2776
14528SOL    HW245592   0.145   1.247   1.736  0.3350  0.0008 -1.0552
14529SOL     OW45593   6.413   7.757  11.091 -0.0514  0.0134 -0.0716
14529SOL    HW145594   6.393   7.820  11.160 -0.5633  0.0204 -0.2237
14529SOL    HW245595   6.497   7.718  11.118 -0.1191  0.1979  0.4216
14530SOL     OW45596   2.665  10.814   1.236  0.1182 -0.1860  0.5271
14530SOL    HW145597   2.707  10.738   1.277  0.0394  0.0682  1.0892
14530SOL    HW245598   2.584  10.779   1.199  0.7732 -0.6676 -0.4976
14531SOL     OW45599   6.116   3.510   7.423 -0.0632 -0.1456 -0.3133
14531SOL    HW145600   6.066   3.429   7.412 -0.2978  0.1963 -1.9575
14531SOL    HW245601   6.054   3.570   7.464 -0.3637 -0.3338 -0.4898
14532SOL     OW45602   2.072   4.155   2.917 -0.0174 -0.4611 -0.3942
14532SOL    HW145603   2.002   4.215   2.890  0.8985  1.4858  1.2430
14532SOL    HW245604   2.039   4.113   2.997  0.4380  0.0633  0.0811
14533SOL     OW45605   0.945   1.248   5.612  0.0724 -0.7983 -0.5679
14533SOL    HW145606   0.887   1.309   5.566 -0.0583 -1.4362 -1.2638
14533SOL    HW245607   0.989   1.303   5.677 -1.3787 -0.3145  0.0622
14534SOL     OW45608   4.735   4.925   2.635  0.3563 -0.2138  0.2636
14534SOL    HW145609   4.756   5.005   2.587  0.9888 -1.1456 -1.0830
14534SOL    HW245610   4.807   4.914   2.696 -0.3517  0.8716  1.3478
14535SOL     OW45611   2.088  10.665   6.933 -0.0379  0.2928  0.0661
14535SOL    HW145612   2.067  10.604   6.862  0.2463  1.1798 -0.8109
14535SOL    HW245613   2.096  10.610   7.011 -3.1119 -0.4253  0.0216
14536SOL     OW45614   0.960   7.174   9.924  0.2035  0.4814  0.3860
14536SOL    HW145615   0.992   7.253   9.880  2.2274 -0.9624 -0.9498
14536SOL    HW245616   0.995   7.102   9.871 -0.3644 -1.3422  2.3604
14537SOL     OW45617   7.651  10.697   8.863  0.2114 -0.3445  0.1038
14537SOL    HW145618   7.605  10.638   8.804  2.5234  0.0704 -2.3347
14537SOL    HW245619   7.708  10.639   8.914  1.1604 -0.4500 -1.0180
14538SOL     OW45620   3.175   4.992   0.061 -0.0479  0.5099  0.1053
14538SOL    HW145621   3.241   5.055   0.089  1.5142 -0.2438 -1.6892
14538SOL    HW245622   3.185   4.987  -0.034 -0.9398 -1.5535  0.0667
14539SOL     OW45623   4.087  10.930   3.682 -0.3715  0.3181 -0.1919
14539SOL    HW145624   4.031  10.947   3.757 -0.8453 -1.7707 -0.0066
14539SOL    HW245625   4.129  11.014   3.664 -0.7787  1.0429  1.9437
14540SOL     OW45626  11.081   2.807   2.779 -0.0560 -0.1532  0.1425
14540SOL    HW145627  11.041   2.721   2.763  0.0876  0.0430 -1.4469
14540SOL    HW245628  11.054   2.829   2.868 -1.8497 -0.9155 -0.1579
14541SOL     OW45629   7.822   4.296  10.669 -0.0653  0.3673  0.2827
14541SOL    HW145630   7.787   4.292  10.759 -0.4903 -0.1918  0.1032
14541SOL    HW245631   7.882   4.221  10.664 -0.3983  0.1166 -0.0387
14542SOL     OW45632   0.681   1.688   7.696 -0.3615  0.2710  0.0863
14542SOL    HW145633   0.586   1.689   7.705 -0.2700 -0.1144  1.3258
14542SOL    HW245634   0.700   1.620   7.632 -0.8531 -0.7967  1.0479
14543SOL     OW45635   3.865   4.494   0.863  0.6992 -0.0397 -0.6581
14543SOL    HW145636   3.819   4.418   0.827 -0.3177  0.1305  0.2306
14543SOL    HW245637   3.958   4.475   0.848  0.4796 -1.5454 -0.2910
14544SOL     OW45638   4.798   9.828  10.963 -0.0154  0.3227  0.1167
14544SOL    HW145639   4.738   9.835  11.037  1.3501  0.4852  1.2664
14544SOL    HW245640   4.785   9.909  10.913  0.6104  1.2913  1.4529
14545SOL     OW45641  10.563   1.688   7.748  0.1908 -0.0313  1.0615
14545SOL    HW145642  10.615   1.608   7.752  0.5224 -0.0745 -1.8368
14545SOL    HW245643  10.615   1.748   7.695 -0.9063  1.4216  1.5513
14546SOL     OW45644   4.215   9.290  10.273 -0.1141 -0.9647 -0.0901
14546SOL    HW145645   4.178   9.355  10.333  1.7170  0.2837 -0.2448
14546SOL    HW245646   4.207   9.207  10.321  1.1813 -0.0181  1.8955
14547SOL     OW45647   3.906   9.922   6.460 -0.1886  0.4338  0.0358
14547SOL    HW145648   3.835   9.858   6.457  1.4898 -1.4515 -0.7971
14547SOL    HW245649   3.872   9.997   6.410 -2.4809  0.6005  1.6826
14548SOL     OW45650   9.478   9.856   8.000  0.1533  0.0452 -0.1245
14548SOL    HW145651   9.461   9.878   7.908 -0.4459 -0.3299 -0.1078
14548SOL    HW245652   9.395   9.870   8.045  0.4592  0.2814  0.3758
14549SOL     OW45653   7.724   2.790   7.937  0.3369 -0.2172 -0.4152
14549SOL    HW145654   7.669   2.802   7.859  0.9402 -0.8041 -0.9503
14549SOL    HW245655   7.721   2.874   7.981 -2.0900 -0.5979  0.3293
14550SOL     OW45656   2.264   0.448   4.505  0.0807 -0.5497 -0.3289
14550SOL    HW145657   2.291   0.364   4.540 -0.9746 -0.9176 -0.3554
14550SOL    HW245658   2.180   0.466   4.546  1.1809  1.4746  1.2208
14551SOL     OW45659   5.092  10.009   3.070  0.6948 -0.1977  0.4773
14551SOL    HW145660   5.064  10.006   3.161 -1.7310  1.0492 -0.1325
14551SOL    HW245661   5.077   9.921   3.037 -1.1033  0.0106  0.6290
14552SOL     OW45662   2.255  10.958  10.275  0.0240 -0.6447 -0.0863
14552SOL    HW145663   2.269  10.869  10.243  0.8615 -0.5418 -0.0305
14552SOL    HW245664   2.167  10.956  10.312 -0.0465 -1.3937 -0.2628
14553SOL     OW45665   6.719   0.453   9.823  0.0583 -0.3219  0.2115
14553SOL    HW145666   6.672   0.392   9.880  0.7794  0.0465  1.2392
14553SOL    HW245667   6.665   0.532   9.823 -0.3015 -0.5661 -0.1968
14554SOL     OW45668   2.771   5.038   1.165  0.3212  0.8729  0.3479
14554SOL    HW145669   2.819   5.011   1.087  0.3450 -0.0424  0.6647
14554SOL    HW245670   2.680   5.018   1.145  0.3531  0.4351  0.6339
14555SOL     OW45671   4.252   7.946   3.340 -0.3551  0.7957 -0.1532
14555SOL    HW145672   4.199   7.976   3.266  1.7200  0.1830 -1.9589
14555SOL    HW245673   4.240   7.851   3.341 -0.0273  0.7569  0.0438
14556SOL     OW45674   5.492   8.689   6.461  0.4486 -0.0625  0.2392
14556SOL    HW145675   5.464   8.609   6.503  0.9883 -0.1814  0.3868
14556SOL    HW245676   5.444   8.759   6.506  0.6865 -0.2249  0.7505
14557SOL     OW45677   8.470   8.933  10.858  0.1932 -0.2424  0.2607
14557SOL    HW145678   8.461   8.858  10.799  0.6096  0.6374 -0.9693
14557SOL    HW245679   8.383   8.972  10.861 -0.1485 -1.0416  1.3075
14558SOL     OW45680  11.013   8.422   4.874 -0.1216 -0.1361  0.5814
14558SOL    HW145681  10.994   8.342   4.825 -0.4269 -0.0544  0.5713
14558SOL    HW245682  10.968   8.491   4.826  2.3497  0.5160 -1.0474
14559SOL     OW45683   4.089   6.089   3.353 -0.2801  0.1663 -0.6367
14559SOL    HW145684   4.078   6.009   3.405 -0.4205  0.6437  0.0794
14559SOL    HW245685   4.114   6.156   3.417  0.4174  0.5679 -1.3176
14560SOL     OW45686   0.305   3.054   0.098 -0.0658  0.6258 -0.0012
14560SOL    HW145687   0.384   3.050   0.043  0.3246  0.4990  0.5635
14560SOL    HW245688   0.337   3.040   0.187 -0.7677  0.2582  0.2002
14561SOL     OW45689   1.421   8.537   0.589  0.2413 -0.2131  0.2062
14561SOL    HW145690   1.419   8.625   0.627  2.2222  0.6033 -1.4255
14561SOL    HW245691   1.508   8.503   0.609  0.7310 -0.4319 -1.9948
14562SOL     OW45692   8.384   6.298  10.634 -0.1821  0.3031 -0.0694
14562SOL    HW145693   8.333   6.227  10.595 -1.6726  0.9407  0.6760
14562SOL    HW245694   8.475   6.271  10.621 -0.6748 -0.7533 -1.6296
14563SOL     OW45695   6.031  10.501   2.328 -0.0121 -0.1523 -0.5652
14563SOL    HW145696   5.981  10.465   2.402  0.8835  0.2122  0.2492
14563SOL    HW245697   6.047  10.425   2.271 -1.7295 -0.2157 -1.0112
14564SOL     OW45698   7.138   0.187   2.855 -0.0639  0.2935 -0.0222
14564SOL    HW145699   7.100   0.101   2.837 -2.1135  1.1954 -0.2729
14564SOL    HW245700   7.158   0.223   2.769  2.7763 -0.6597  0.1019
14565SOL     OW45701   6.768   3.967   7.388  0.1450 -0.1354 -0.8869
14565SOL    HW145702   6.809   4.053   7.381  0.4157 -0.1858  0.0259
14565SOL    HW245703   6.834   3.911   7.428 -1.1920  0.1033  1.8679
14566SOL     OW45704   3.848  10.506   0.147  0.0766  0.3131  0.0661
14566SOL    HW145705   3.759  10.539   0.134  0.1216  0.0252 -1.0493
14566SOL    HW245706   3.884  10.498   0.059  0.7008 -0.9516  0.4090
14567SOL     OW45707   5.131   5.246  10.546 -0.1850 -0.2004  0.2065
14567SOL    HW145708   5.134   5.178  10.614 -0.8896 -0.7539 -0.3088
14567SOL    HW245709   5.211   5.232  10.495 -0.3344 -0.6605  0.0919
14568SOL     OW45710  11.035   7.205   0.838  0.0032  0.0085  0.5039
14568SOL    HW145711  11.112   7.184   0.784  0.0235  0.8324  0.1830
14568SOL    HW245712  11.064   7.276   0.894 -0.0436 -0.8031  1.5772
14569SOL     OW45713   1.303   8.631  10.308 -0.6817  0.3858  0.0113
14569SOL    HW145714   1.356   8.710  10.321  1.3715 -1.0795  1.1363
14569SOL    HW245715   1.331   8.571  10.378 -1.5147 -1.6964 -1.3330
14570SOL     OW45716   3.843   1.506   3.813  0.5834 -0.1151 -0.2618
14570SOL    HW145717   3.851   1.529   3.720  2.9770 -2.1537 -0.6724
14570SOL    HW245718   3.751   1.480   3.823  0.1411  0.6595 -1.9171
14571SOL     OW45719   5.611   8.067  10.243  0.0415 -0.3974 -0.0596
14571SOL    HW145720   5.649   8.049  10.329  0.1972 -1.4650 -0.3348
14571SOL    HW245721   5.531   8.118  10.262  0.4727  0.0320  0.6553
14572SOL     OW45722   2.125   7.510   7.308  0.1427 -0.0050  0.1650
14572SOL    HW145723   2.076   7.432   7.333 -1.5030  1.0589  0.3579
14572SOL    HW245724   2.070   7.584   7.334 -0.0143  1.2220 -3.2149
14573SOL     OW45725   0.742   0.032   8.072 -0.1816 -0.2202  0.2851
14573SOL    HW145726   0.746   0.123   8.041 -1.3220 -0.5111 -0.7655
14573SOL    HW245727   0.814  -0.011   8.026  0.3248  0.1334  0.7369
14574SOL     OW45728   0.718   2.445   5.736 -0.5082  0.1185 -0.0646
14574SOL    HW145729   0.631   2.471   5.703 -0.1367  1.1723 -0.2679
14574SOL    HW245730   0.705   2.432   5.830 -1.1417 -0.9130 -0.2863
14575SOL     OW45731   8.080  10.046   9.794 -0.2969 -0.1030 -0.2041
14575SOL    HW145732   8.117   9.982   9.734  2.9154  2.7122 -1.5217
14575SOL    HW245733   8.061  10.123   9.739 -0.5253  1.3826  1.8394
14576SOL     OW45734   3.463   9.043   3.623  0.1508 -0.3622  0.3876
14576SOL    HW145735   3.427   9.105   3.687 -0.8069 -0.7945  0.2858
14576SOL    HW245736   3.536   9.002   3.668  0.1502  0.0973  0.8232
14577SOL     OW45737   3.480   5.194   2.869  0.3693 -0.6797 -0.6419
14577SOL    HW145738   3.472   5.164   2.959  0.3954 -0.4845 -0.5749
14577SOL    HW245739   3.492   5.288   2.876 -0.0343 -0.6068 -0.8629
14578SOL     OW45740   8.894   9.051  10.960  0.1402  0.6477  0.1168
14578SOL    HW145741   8.950   9.129  10.961  0.6377  0.3956 -2.3009
14578SOL    HW245742   8.923   9.000  11.036  0.4293  2.3760  1.2124
14579SOL     OW45743  10.520   2.833   3.340 -0.0502  0.1508 -0.1774
14579SOL    HW145744  10.444   2.780   3.317 -2.3607  3.1991 -0.2994
14579SOL    HW245745  10.558   2.790   3.416 -2.4800 -1.0436  0.4475
14580SOL     OW45746   1.016   0.366   8.688 -0.4874  0.2867 -0.4986
14580SOL    HW145747   1.075   0.408   8.626 -0.0264  0.5346  0.1008
14580SOL    HW245748   0.964   0.438   8.724 -1.0518  0.0931 -0.8910
14581SOL     OW45749  10.010   1.808   9.629  0.1193 -0.4113  0.2584
14581SOL    HW145750  10.090   1.854   9.605  0.3585 -1.4097 -1.0319
14581SOL    HW245751   9.955   1.874   9.672  0.7479  0.8560 -0.8133
14582SOL     OW45752   6.307   2.558   7.577 -0.1592  0.1459  0.1487
14582SOL    HW145753   6.224   2.600   7.601 -0.8233 -1.1394  0.2214
14582SOL    HW245754   6.317   2.487   7.640  0.6766 -0.0949 -0.2457
14583SOL     OW45755  10.386   7.025   8.479 -0.0837  0.1035 -0.3412
14583SOL    HW145756  10.334   6.960   8.525 -0.5833 -0.9464 -2.2846
14583SOL    HW245757  10.419   7.083   8.548 -1.5249 -0.8366  1.2060
14584SOL     OW45758   6.343   4.892   8.738 -0.0984  0.3397  0.3777
14584SOL    HW145759   6.256   4.913   8.770 -0.6930 -1.0017 -0.2556
14584SOL    HW245760   6.402   4.919   8.808 -1.1818 -0.4943  1.6592
14585SOL     OW45761   0.588   5.905   0.671 -0.1492 -0.1916 -0.3207
14585SOL    HW145762   0.673   5.873   0.641 -0.3154 -0.5196 -0.4399
14585SOL    HW245763   0.572   5.858   0.752  0.0587  0.3134  0.0212
14586SOL     OW45764   9.317   2.964   8.207  0.1539  0.0281  0.1087
14586SOL    HW145765   9.345   3.026   8.140  0.9135 -0.5944 -0.1660
14586SOL    HW245766   9.280   2.891   8.157 -1.5118  0.5956  0.4517
14587SOL     OW45767   6.044   9.656   0.605 -0.0346  0.4375 -0.3459
14587SOL    HW145768   6.044   9.561   0.597  1.6525  0.4696 -1.3603
14587SOL    HW245769   5.977   9.675   0.670 -0.7409 -1.4026 -0.4700
14588SOL     OW45770   2.126   7.240  10.102 -0.1405 -0.4691  0.3251
14588SOL    HW145771   2.125   7.157  10.054  1.9961  0.2540 -1.1279
14588SOL    HW245772   2.185   7.224  10.175 -0.3518 -0.4552  0.4988
14589SOL     OW45773   6.413   7.495   0.517 -0.3711 -0.3693 -0.7539
14589SOL    HW145774   6.384   7.517   0.429  0.4279 -0.4201 -1.0359
14589SOL    HW245775   6.472   7.566   0.542  1.7669 -1.7993 -1.4510
14590SOL     OW45776  10.980   6.382   0.222  0.3511  0.5098 -0.1254
14590SOL    HW145777  11.015   6.402   0.308  1.1972  0.0748 -0.3490
14590SOL    HW245778  11.042   6.318   0.186 -0.3974  0.1279 -0.7564
14591SOL     OW45779   1.991   5.487   5.000 -0.5711  0.2394 -0.3256
14591SOL    HW145780   2.075   5.532   5.005  0.0907 -0.6612 -2.2745
14591SOL    HW245781   1.964   5.476   5.091  2.5276 -1.4666  0.5382
14592SOL     OW45782   0.714   9.784   9.966  0.0911 -0.0696 -0.6286
14592SOL    HW145783   0.791   9.749  10.012 -0.3340  0.0314  0.1861
14592SOL    HW245784   0.719   9.879   9.980 -1.0381 -0.1916  0.8406
14593SOL     OW45785   9.578  10.944   0.475 -0.3336 -0.0616  0.0996
14593SOL    HW145786   9.654  10.963   0.421  0.7525 -4.4032 -0.2628
14593SOL    HW245787   9.614  10.918   0.560 -1.7770  1.9933  1.4420
14594SOL     OW45788   1.932  10.336   3.260  0.7392  0.4624  0.4495
14594SOL    HW145789   1.985  10.303   3.332 -0.9483 -1.6620  0.8005
14594SOL    HW245790   1.860  10.384   3.301  0.1921 -0.1017  0.1726
14595SOL     OW45791   8.411   4.293   6.201 -0.2297  0.5791 -0.3889
14595SOL    HW145792   8.330   4.291   6.252 -1.4728 -2.0523 -2.2471
14595SOL    HW245793   8.415   4.382   6.166 -0.3591  1.8564  2.5533
14596SOL     OW45794   0.967   2.740   3.336 -0.3954 -0.0746 -0.7767
14596SOL    HW145795   0.910   2.804   3.381  0.0696 -0.6974  0.7815
14596SOL    HW245796   0.943   2.656   3.375  1.0629 -0.4447 -0.6390
14597SOL     OW45797  10.771   0.547   0.691  0.4969 -0.3516  0.6721
14597SOL    HW145798  10.782   0.606   0.616 -0.3738  1.6366  2.0363
14597SOL    HW245799  10.749   0.462   0.651  0.3418  0.5644 -1.3121
14598SOL     OW45800   7.199   3.201   3.538  0.0467 -0.1639 -0.1738
14598SOL    HW145801   7.199   3.296   3.524 -0.6483  0.1901  1.8066
14598SOL    HW245802   7.287   3.174   3.515  0.0247  0.8268 -1.5387
14599SOL     OW45803   4.263   4.868   3.579  0.3673 -0.2408  0.0102
14599SOL    HW145804   4.319   4.944   3.595  0.3848 -0.1447 -0.4999
14599SOL    HW245805   4.322   4.793   3.584  0.7383 -0.0786 -1.4451
14600SOL     OW45806   3.090   3.775   5.960 -0.4176  0.1388 -0.0159
14600SOL    HW145807   3.169   3.800   6.008  0.6289  2.1519 -2.5333
14600SOL    HW245808   3.106   3.685   5.932  0.5859  0.2169  0.2686
14601SOL     OW45809   5.054   3.685   9.479  0.3823  0.4567 -0.0796
14601SOL    HW145810   5.056   3.779   9.459 -3.7215  0.5959 -0.6443
14601SOL    HW245811   5.020   3.644   9.400  0.1620 -1.2462  0.8401
14602SOL     OW45812   5.528  10.776   3.698  0.1143  0.5532 -0.3980
14602SOL    HW145813   5.607  10.830   3.710  1.2818 -0.9323 -1.1608
14602SOL    HW245814   5.525  10.720   3.776  1.0489 -0.8744 -1.3501
14603SOL     OW45815   6.009  10.811   9.959  0.2864  0.2301 -0.8405
14603SOL    HW145816   6.063  10.787   9.884  0.7047  0.9881 -0.7898
14603SOL    HW245817   5.927  10.765   9.945  0.9776 -1.0597 -0.8507
14604SOL     OW45818   9.861   9.722   3.813  0.0197  0.3134  0.7020
14604SOL    HW145819   9.849   9.810   3.777 -1.3570  0.3129  1.0789
14604SOL    HW245820   9.788   9.671   3.777  0.7131 -0.6421  0.6109
14605SOL     OW45821   2.849   1.001   0.482  0.0677 -0.0898  0.6541
14605SOL    HW145822   2.761   1.010   0.516  0.1760  0.7692  0.7105
14605SOL    HW245823   2.859   1.072   0.418  0.1980 -1.0846 -0.4832
14606SOL     OW45824   3.956   7.288  10.432 -0.1730  0.0891  0.4682
14606SOL    HW145825   3.872   7.243  10.446  0.5604 -2.3143 -1.9496
14606SOL    HW245826   3.931   7.379  10.414 -2.3047 -0.5459 -0.1304
14607SOL     OW45827   3.079  10.635   1.966 -0.1042 -0.4923 -0.3557
14607SOL    HW145828   3.134  10.692   2.021  0.0516 -0.0089 -1.0040
14607SOL    HW245829   3.122  10.635   1.881 -0.7838 -0.6039 -0.7057
14608SOL     OW45830   9.380  11.096  10.793  0.1195 -0.1189 -0.0748
14608SOL    HW145831   9.470  11.075  10.818 -0.1959 -0.1369  1.1326
14608SOL    HW245832   9.328  11.020  10.821 -0.2442 -0.2241 -0.9978
14609SOL     OW45833   7.574  10.513   4.218 -0.4313 -0.7055 -0.6111
14609SOL    HW145834   7.605  10.514   4.128  0.0664 -3.0979 -0.5125
14609SOL    HW245835   7.487  10.554   4.213 -0.0367  0.0577 -1.9780
14610SOL     OW45836   2.309   5.803   2.469  0.2913  0.0588  0.0860
14610SOL    HW145837   2.254   5.856   2.525  0.6310  0.5739 -0.0616
14610SOL    HW245838   2.300   5.714   2.503  0.3667  0.3418  0.8540
14611SOL     OW45839   4.419   1.127   1.638  0.0906  0.1142  0.2748
14611SOL    HW145840   4.372   1.048   1.664 -0.3232  0.6399  1.1682
14611SOL    HW245841   4.465   1.102   1.558  0.7749 -1.3351  1.0778
14612SOL     OW45842   1.570   5.610   7.702 -0.1325 -0.0697 -0.1082
14612SOL    HW145843   1.634   5.542   7.722  1.0614  0.4870 -1.7901
14612SOL    HW245844   1.591   5.637   7.613 -0.1998  2.8510  0.6383
14613SOL     OW45845  10.985   1.392   3.987 -0.0647 -0.5305  0.0764
14613SOL    HW145846  10.923   1.463   4.003 -0.3488 -0.4042 -1.4386
14613SOL    HW245847  11.020   1.372   4.073  0.0976  1.5194  0.5563
14614SOL     OW45848   1.567   9.575   9.982 -0.2388 -0.4967  0.8565
14614SOL    HW145849   1.651   9.619   9.964 -0.5760 -0.1124  0.1754
14614SOL    HW245850   1.574   9.491   9.938 -0.4049 -0.2498  0.3455
14615SOL     OW45851   1.608   0.225  10.825 -0.6252 -0.3595  0.4807
14615SOL    HW145852   1.674   0.276  10.872 -1.8954  1.1012  0.7636
14615SOL    HW245853   1.594   0.147  10.878  0.7324 -0.6043  0.5003
14616SOL     OW45854   0.052   6.687   8.050 -0.4807 -0.0188 -0.3259
14616SOL    HW145855   0.053   6.629   7.974 -0.3646 -0.7395  0.2180
14616SOL    HW245856   0.095   6.767   8.020 -0.5303 -0.2569 -1.0463
14617SOL     OW45857   9.679   9.113  11.057 -0.7366  0.0556 -0.2312
14617SOL    HW145858   9.617   9.042  11.072 -1.7082  0.8672 -0.3050
14617SOL    HW245859   9.735   9.082  10.985 -0.3293 -1.1327  0.5669
14618SOL     OW45860   3.326   8.016   0.398  0.3179 -0.0122  0.7061
14618SOL    HW145861   3.291   8.021   0.487  2.3701  0.3598  1.5453
14618SOL    HW245862   3.379   8.095   0.388  1.9201 -1.1190 -0.0112
14619SOL     OW45863   9.856  10.381   5.903  0.1588 -0.6503  0.2399
14619SOL    HW145864   9.784  10.342   5.953 -0.8182  0.7416 -0.0231
14619SOL    HW245865   9.848  10.340   5.816  0.9084 -1.9259  0.7443
14620SOL     OW45866   3.678   2.738  10.172  0.0643 -0.8809 -0.3644
14620SOL    HW145867   3.699   2.770  10.084  0.1594  0.5657  0.1469
14620SOL    HW245868   3.719   2.802  10.230 -2.8251  0.1457  0.7088
14621SOL     OW45869   1.216   1.618   0.663 -0.5776 -0.1097 -0.0984
14621SOL    HW145870   1.209   1.709   0.694 -1.1763 -0.0124 -0.5136
14621SOL    HW245871   1.143   1.573   0.705 -0.6850 -0.2458 -0.4320
14622SOL     OW45872   2.963   5.953   8.936  0.2985  0.2739  0.1863
14622SOL    HW145873   3.039   5.986   8.984  1.4588 -1.5981 -0.2624
14622SOL    HW245874   2.941   5.871   8.980  1.1724 -1.3200 -2.1607
14623SOL     OW45875   9.962   2.131  11.021 -0.0152  0.2010  0.2277
14623SOL    HW145876  10.053   2.120  11.050 -0.2439 -0.8107  0.5951
14623SOL    HW245877   9.962   2.214  10.973  1.0853  0.2527  0.2946
14624SOL     OW45878   1.985   1.928   7.616 -0.4071  0.8246  0.3565
14624SOL    HW145879   2.001   1.987   7.690 -0.5816  1.1165  0.1634
14624SOL    HW245880   1.976   1.841   7.656 -1.8853  1.1614  0.8349
14625SOL     OW45881   8.623   8.234   4.785  0.3187 -0.3633  0.1702
14625SOL    HW145882   8.562   8.161   4.795  0.6124 -0.8882 -1.4426
14625SOL    HW245883   8.593   8.280   4.707  0.7561  0.6351  0.5706
14626SOL     OW45884   5.463   9.597   5.319  0.4223  0.1690  0.1671
14626SOL    HW145885   5.416   9.557   5.393 -1.2427  0.2875 -0.7819
14626SOL    HW245886   5.550   9.616   5.354 -0.3025  0.1871  2.0951
14627SOL     OW45887   7.155   9.970   8.265  0.1986  0.1004 -0.6887
14627SOL    HW145888   7.208   9.893   8.287  0.0301 -0.0672 -0.8600
14627SOL    HW245889   7.215  10.028   8.219 -0.0078 -0.5330 -1.8085
14628SOL     OW45890   6.644   6.611   2.460 -0.2779  0.7283  0.6597
14628SOL    HW145891   6.565   6.665   2.459 -0.4700  0.4881 -1.7227
14628SOL    HW245892   6.615   6.526   2.426  1.2625  1.1324 -1.9198
14629SOL     OW45893   8.659  10.701  10.565  0.1779  0.1944 -0.5931
14629SOL    HW145894   8.699  10.642  10.501  0.7287  0.8919 -0.9058
14629SOL    HW245895   8.651  10.648  10.645 -2.9629 -1.5785 -1.8934
14630SOL     OW45896  11.098   2.919   1.525  0.0916 -0.4241  0.4769
14630SOL    HW145897  11.008   2.897   1.500  0.8393 -2.1213 -0.9327
14630SOL    HW245898  11.105   3.013   1.508 -0.9946 -0.5410 -0.7869
14631SOL     OW45899   1.810   9.924   5.627 -0.4487 -0.1241  0.2212
14631SOL    HW145900   1.766   9.975   5.558  2.5115  1.0407 -0.9733
14631SOL    HW245901   1.841   9.845   5.583  0.6201  0.1687  0.4120
14632SOL     OW45902  10.260   3.783  10.197  0.1711  0.0624 -0.4592
14632SOL    HW145903  10.305   3.739  10.269  0.7928 -2.0896 -2.0582
14632SOL    HW245904  10.212   3.713  10.152 -0.7529  1.4528 -1.7261
14633SOL     OW45905   2.196  10.723   0.142 -0.4588  0.2593  0.0039
14633SOL    HW145906   2.273  10.666   0.149 -0.2829  0.6711  3.0460
14633SOL    HW245907   2.216  10.782   0.069  0.6379 -1.6595 -1.3430
14634SOL     OW45908   2.166   9.312   6.885 -0.3635  0.3632  0.1039
14634SOL    HW145909   2.216   9.321   6.804  0.1566  1.7646  0.5453
14634SOL    HW245910   2.078   9.341   6.862  0.2211  2.5747  0.4234
14635SOL     OW45911   6.594   7.046   7.596  0.3766  0.9406 -0.1946
14635SOL    HW145912   6.540   7.084   7.526 -0.5319 -0.7859 -0.4918
14635SOL    HW245913   6.539   7.051   7.674  1.2149  2.4404  0.3460
14636SOL     OW45914   1.075   9.338   7.661  0.2417  0.2984  0.6686
14636SOL    HW145915   1.070   9.431   7.642  0.4540  0.2767  0.5072
14636SOL    HW245916   1.047   9.331   7.752  1.2213  0.6467  1.0124
14637SOL     OW45917   8.516   2.631   2.960 -0.1169  0.6925  0.6644
14637SOL    HW145918   8.505   2.544   2.999  1.9040  0.8109  1.6692
14637SOL    HW245919   8.460   2.688   3.013 -1.2543  0.0666  0.1643
14638SOL     OW45920   9.517   9.262   9.862 -0.3396  0.0475 -0.2102
14638SOL    HW145921   9.492   9.298   9.947 -0.6797  0.6340 -0.5554
14638SOL    HW245922   9.444   9.284   9.804 -0.7428 -1.5306 -0.3442
14639SOL     OW45923   8.107   0.441   4.386 -0.5734  0.2542  0.6709
14639SOL    HW145924   8.039   0.494   4.345  0.7501  0.3337 -1.6135
14639SOL    HW245925   8.189   0.486   4.363  0.3746 -0.9073  1.6509
14640SOL     OW45926   6.279   9.370   0.164  0.4340 -0.2352 -0.4232
14640SOL    HW145927   6.364   9.387   0.205 -0.2219 -1.1005  1.3724
14640SOL    HW245928   6.269   9.275   0.169  0.3270 -0.4100 -2.6880
14641SOL     OW45929   8.623   7.072  10.411 -0.3608  0.2604 -0.1278
14641SOL    HW145930   8.626   7.107  10.500  1.7738  0.2160 -0.1200
14641SOL    HW245931   8.635   6.978  10.421 -2.2137 -0.0297 -0.3719
14642SOL     OW45932   1.333   4.231   6.762 -0.3553  0.4570 -0.2258
14642SOL    HW145933   1.257   4.197   6.809 -1.5098  1.6244 -1.1673
14642SOL    HW245934   1.408   4.197   6.810 -1.4646 -0.6605  0.7877
14643SOL     OW45935   1.243   0.116   9.330 -0.2350  0.1431 -0.0962
14643SOL    HW145936   1.190   0.191   9.301 -1.4320 -0.5631  0.2046
14643SOL    HW245937   1.274   0.076   9.249  1.6228  1.7592 -0.2539
14644SOL     OW45938   3.599   7.021   6.020  0.0651 -0.2107 -0.3069
14644SOL    HW145939   3.667   6.979   5.967  1.1872 -0.2759  1.1252
14644SOL    HW245940   3.587   6.963   6.095  0.3952  1.1300  0.8256
14645SOL     OW45941   9.769   1.191   3.951 -0.1883 -0.0278  0.0156
14645SOL    HW145942   9.694   1.148   3.992  0.0030 -1.3289 -0.9326
14645SOL    HW245943   9.731   1.242   3.879 -0.5818  2.6589  1.9921
14646SOL     OW45944   6.967  10.007   9.267  0.0997 -0.2200 -0.4451
14646SOL    HW145945   6.942  10.099   9.263  0.1281 -0.2333 -1.1605
14646SOL    HW245946   6.885   9.959   9.266  0.0638 -0.2713 -3.0488
14647SOL     OW45947  10.538   7.392   3.629  0.3894 -0.2022  0.1938
14647SOL    HW145948  10.544   7.321   3.565 -0.0300 -0.5018  0.4741
14647SOL    HW245949  10.453   7.377   3.672  0.8847 -0.2980  1.1580
14648SOL     OW45950   6.729  10.640  10.657 -0.5775 -0.2675  0.0359
14648SOL    HW145951   6.820  10.659  10.631 -0.0044 -2.8025 -0.0508
14648SOL    HW245952   6.730  10.547  10.681 -3.2756 -0.4932 -0.4385
14649SOL     OW45953   2.993   3.699   3.928 -0.1804 -1.2939  0.3172
14649SOL    HW145954   3.011   3.605   3.929 -0.1223 -1.2857  1.7047
14649SOL    HW245955   2.898   3.705   3.928 -0.1858 -1.3419  0.0178
14650SOL     OW45956   4.155   7.176   2.147  0.3198 -0.0080 -0.4487
14650SOL    HW145957   4.130   7.128   2.226 -1.2621  0.6297 -0.5256
14650SOL    HW245958   4.152   7.268   2.172  0.3123  0.1812 -1.1064
14651SOL     OW45959   2.562   9.620  10.470  0.1941  0.3624 -0.3633
14651SOL    HW145960   2.485   9.564  10.460  0.9561 -0.4093 -2.4536
14651SOL    HW245961   2.535   9.704  10.434 -0.7945  1.3272  2.3408
14652SOL     OW45962   4.513   8.285   1.475  0.2636 -0.5894 -0.9974
14652SOL    HW145963   4.480   8.195   1.465 -0.9833 -0.0673 -1.8204
14652SOL    HW245964   4.434   8.340   1.471  1.0102  0.5447 -0.4854
14653SOL     OW45965  11.077   9.111   6.721  0.0677  0.1339  0.1188
14653SOL    HW145966  11.073   9.078   6.631  0.2753 -0.2973  0.2620
14653SOL    HW245967  11.170   9.103   6.745  0.3841  2.1147 -0.3032
14654SOL     OW45968   0.996   7.079  10.163 -0.5074  0.4688 -0.2284
14654SOL    HW145969   0.982   7.132  10.085  0.8807  1.2687  0.0237
14654SOL    HW245970   1.090   7.063  10.164 -0.5363  0.2726  1.1527
14655SOL     OW45971   1.204   8.467   2.212  0.5548 -0.1120  0.3712
14655SOL    HW145972   1.168   8.455   2.124  1.3047  0.8326 -0.0784
14655SOL    HW245973   1.233   8.379   2.238  1.1903 -0.2488 -0.7212
14656SOL     OW45974   1.296  10.722   9.046  0.3366 -0.0307 -0.4725
14656SOL    HW145975   1.256  10.665   8.980  1.2995  0.4194 -1.4714
14656SOL    HW245976   1.286  10.673   9.128 -1.1796 -0.4511 -0.8757
14657SOL     OW45977   9.230   2.933   7.545 -0.2828 -0.3617 -0.2937
14657SOL    HW145978   9.275   2.950   7.462  0.4234 -1.4614 -0.1610
14657SOL    HW245979   9.197   2.844   7.536 -0.5310 -0.3506  0.4706
14658SOL     OW45980   7.555  10.656   3.674  0.5738  0.2319  0.7863
14658SOL    HW145981   7.544  10.692   3.586  0.7571 -0.8771  0.2956
14658SOL    HW245982   7.471  10.671   3.717  0.5683  1.0119  0.5096
14659SOL     OW45983   7.580   7.524   7.318  0.6694 -0.3520  0.4317
14659SOL    HW145984   7.637   7.485   7.384 -0.1006 -0.7365  0.8961
14659SOL    HW245985   7.636   7.540   7.243  1.6263  0.3135  1.2662
14660SOL     OW45986   9.951   0.716  10.114 -0.3464 -0.6101  0.1532
14660SOL    HW145987   9.886   0.647  10.130 -0.1882 -0.8207 -0.0964
14660SOL    HW245988  10.019   0.672  10.064 -0.3257 -0.2234 -0.1530
14661SOL     OW45989   5.236   8.961   2.302  0.0621 -0.3056  0.1711
14661SOL    HW145990   5.163   8.918   2.346  0.5456 -1.3887 -0.0397
14661SOL    HW245991   5.281   9.009   2.372  0.1797 -1.0945  0.6454
14662SOL     OW45992   9.989   8.829   5.473 -0.2156  0.1867  0.3719
14662SOL    HW145993  10.044   8.903   5.449 -0.0918 -0.0073  0.0383
14662SOL    HW245994   9.915   8.867   5.520 -0.3293  0.5524 -0.0999
14663SOL     OW45995   0.143   6.955   0.444  0.3129  0.2014 -0.5215
14663SOL    HW145996   0.128   7.022   0.378 -0.3490 -0.1545 -0.7393
14663SOL    HW245997   0.057   6.942   0.485  0.2554 -1.0321 -0.9835
14664SOL     OW45998   3.435   2.099   8.033  0.3855  0.3195 -0.3580
14664SOL    HW145999   3.487   2.176   8.008  0.5664 -0.2669 -1.8261
14664SOL    HW246000   3.445   2.038   7.960 -1.3768 -0.3057 -0.1078
14665SOL     OW46001   3.059   1.792   1.960  0.6411  0.1608 -0.0033
14665SOL    HW146002   3.018   1.731   1.899  2.4334 -0.5243 -0.5992
14665SOL    HW246003   3.126   1.836   1.908  0.4178  1.5134  0.8204
14666SOL     OW46004   2.877   9.741   0.058 -0.0235  0.1996 -0.5900
14666SOL    HW146005   2.823   9.673   0.098 -0.0424  0.3811 -0.3063
14666SOL    HW246006   2.822   9.819   0.060 -0.0506  0.1965 -1.0335
14667SOL     OW46007   2.969  10.322   0.166  0.6657  0.2698  0.1168
14667SOL    HW146008   3.052  10.302   0.210  0.3034  1.8356  1.6036
14667SOL    HW246009   2.944  10.408   0.198 -1.4422 -0.0578 -0.4642
14668SOL     OW46010   4.866  10.628   7.261 -0.3558 -0.3697  0.1768
14668SOL    HW146011   4.905  10.650   7.177 -1.0718  0.0060 -0.0717
14668SOL    HW246012   4.772  10.646   7.249 -0.5882 -1.1256  0.7802
14669SOL     OW46013   8.451   0.901   2.657  0.3935 -0.4704 -0.5850
14669SOL    HW146014   8.523   0.840   2.672 -0.6953 -1.7600 -0.5038
14669SOL    HW246015   8.373   0.847   2.652 -0.8616  1.0381  1.1873
14670SOL     OW46016   0.260  10.917   1.634  0.3634 -0.5322 -1.2088
14670SOL    HW146017   0.333  10.968   1.600 -0.1824 -0.0435 -1.6773
14670SOL    HW246018   0.202  10.982   1.674  0.2981 -0.9417 -0.6238
14671SOL     OW46019   6.007   9.475   4.750 -0.8310  0.1653  0.0099
14671SOL    HW146020   5.950   9.402   4.773 -1.1181  0.6590  0.8917
14671SOL    HW246021   5.982   9.497   4.660 -2.9858  1.2091  0.7765
14672SOL     OW46022   2.811   1.986   9.451  0.5868  0.0779 -0.6353
14672SOL    HW146023   2.853   1.962   9.368  0.9221  1.3192 -0.8385
14672SOL    HW246024   2.737   2.040   9.426  0.4615  0.1430 -0.1388
14673SOL     OW46025   5.725   9.589   1.038  0.1820  0.1718 -0.4374
14673SOL    HW146026   5.726   9.565   1.131 -2.7914 -1.4842 -0.6945
14673SOL    HW246027   5.816   9.583   1.011  0.8942 -1.2145  1.9485
14674SOL     OW46028  11.099  10.647   9.077  0.5920  0.2936 -0.1762
14674SOL    HW146029  11.028  10.587   9.100  0.6346  0.9488  1.7891
14674SOL    HW246030  11.152  10.597   9.014 -1.1145 -0.5109 -1.0473
14675SOL     OW46031  10.101   9.518   9.915 -0.1746  0.2840  0.1120
14675SOL    HW146032  10.047   9.439   9.922  1.0935 -0.6866 -0.7215
14675SOL    HW246033  10.132   9.534  10.004  2.4207 -2.2777 -0.1889
14676SOL     OW46034   1.804   1.391   8.661  0.0080  0.0522 -0.3030
14676SOL    HW146035   1.717   1.415   8.692  0.3623  0.0716  0.7288
14676SOL    HW246036   1.843   1.474   8.632 -0.2444  0.0730 -0.5842
14677SOL     OW46037   8.451   3.568  10.855 -0.0780  0.3235  0.5512
14677SOL    HW146038   8.407   3.570  10.940  0.9777  4.4245  1.2092
14677SOL    HW246039   8.537   3.529  10.873 -0.9048 -1.5739  0.6350
14678SOL     OW46040   6.541   7.880   7.419  0.2824 -0.4250  0.1356
14678SOL    HW146041   6.529   7.948   7.352  1.4844  1.9176  2.0946
14678SOL    HW246042   6.472   7.817   7.402 -1.6063  1.8208 -1.2479
14679SOL     OW46043   0.207  10.224   7.977 -0.2568 -0.4838 -0.1691
14679SOL    HW146044   0.255  10.166   7.917 -0.0768  0.0745 -0.5761
14679SOL    HW246045   0.196  10.172   8.056  0.7375 -0.7455 -0.1876
14680SOL     OW46046   6.659   4.750   1.657  0.1852  0.0313  0.3389
14680SOL    HW146047   6.740   4.712   1.624 -0.1813 -0.9752  0.5602
14680SOL    HW246048   6.633   4.814   1.590  0.8630 -0.0313  0.0076
14681SOL     OW46049   1.570   8.980   6.528 -0.4207 -1.1435 -0.7703
14681SOL    HW146050   1.606   9.065   6.553 -0.2792 -0.6550 -2.5054
14681SOL    HW246051   1.610   8.918   6.589 -1.0811  0.0911  1.0068
14682SOL     OW46052   7.704   9.805  10.968  0.2050 -0.2735  0.3870
14682SOL    HW146053   7.678   9.843  11.052 -1.2465  0.5884 -0.4018
14682SOL    HW246054   7.632   9.747  10.944  0.2224  0.1027 -0.6251
14683SOL     OW46055   1.016   7.393   3.072  0.1004  0.2682  0.5497
14683SOL    HW146056   0.992   7.350   3.155 -1.0879  2.2719  1.3399
14683SOL    HW246057   0.988   7.484   3.084  1.2979  0.9718 -1.5107
14684SOL     OW46058   1.154   5.329   6.585  0.2104  0.3284 -0.2397
14684SOL    HW146059   1.087   5.279   6.630 -0.0873 -0.3909 -1.4485
14684SOL    HW246060   1.148   5.417   6.623 -1.2067  0.1972 -0.1223
14685SOL     OW46061   6.831   9.291   8.702 -0.5249  0.2301  1.0340
14685SOL    HW146062   6.920   9.300   8.737 -0.4716  0.6300  0.8109
14685SOL    HW246063   6.781   9.252   8.773 -0.6436  1.9419  1.9477
14686SOL     OW46064   4.554   9.284   8.282 -0.1617 -0.2269  0.4772
14686SOL    HW146065   4.546   9.193   8.255 -0.0480  0.3716 -1.7836
14686SOL    HW246066   4.646   9.293   8.306 -0.5017 -1.0414  2.2353
14687SOL     OW46067   0.586  10.565   8.706  0.5617  0.3816 -0.0964
14687SOL    HW146068   0.679  10.562   8.684  0.5329  1.2903 -0.3765
14687SOL    HW246069   0.545  10.501   8.648  1.0913 -0.5349  0.5055
14688SOL     OW46070   3.377   7.398   0.738  0.5393 -0.9769 -0.4098
14688SOL    HW146071   3.419   7.368   0.819 -1.6016 -0.9264  0.8031
14688SOL    HW246072   3.437   7.371   0.669  2.5785 -0.7838  1.1949
14689SOL     OW46073   5.914   9.046   7.190  0.5119 -0.2105 -0.1493
14689SOL    HW146074   5.943   9.134   7.214  1.1166 -1.1162  2.8329
14689SOL    HW246075   5.832   9.060   7.143 -0.1853  1.9117  1.5284
14690SOL     OW46076   1.945   0.869   9.154 -0.1673  0.4480 -0.3148
14690SOL    HW146077   1.954   0.789   9.101 -2.7601 -0.3750  0.3546
14690SOL    HW246078   1.968   0.841   9.242  0.8126  0.9704 -0.3880
14691SOL     OW46079   3.887   8.608   1.528 -0.1467  0.1913 -0.2840
14691SOL    HW146080   3.823   8.540   1.505  1.1657 -0.7537 -1.2789
14691SOL    HW246081   3.892   8.605   1.624 -1.2144 -0.0572 -0.2254
14692SOL     OW46082   9.252   1.501   8.609 -0.2320 -0.5116  0.2777
14692SOL    HW146083   9.296   1.423   8.643 -1.2829 -1.0710  0.3854
14692SOL    HW246084   9.193   1.468   8.541 -1.0760  0.1080  0.6833
14693SOL     OW46085   9.016   1.379   6.451  0.8875 -0.1669  0.1975
14693SOL    HW146086   9.065   1.304   6.484  1.8244  1.0104  1.6368
14693SOL    HW246087   9.052   1.454   6.499  1.1461  1.4615 -2.3308
14694SOL     OW46088   9.184   2.740   9.204  0.4677  0.5102  0.0078
14694SOL    HW146089   9.131   2.667   9.170 -0.4205  0.8896  0.5339
14694SOL    HW246090   9.173   2.736   9.299  1.7859  0.3159  0.1700
14695SOL     OW46091   5.646   9.415   6.397 -0.1244  0.2001  0.0062
14695SOL    HW146092   5.739   9.396   6.404 -0.2308 -0.6651 -0.6604
14695SOL    HW246093   5.633   9.496   6.447  1.0259  0.4773 -0.1225
14696SOL     OW46094   9.724   8.997   1.421 -0.2235  0.0293  0.1215
14696SOL    HW146095   9.746   9.077   1.468 -0.4683 -0.0893  0.4359
14696SOL    HW246096   9.682   8.941   1.486 -1.2593  0.1595 -0.4150
14697SOL     OW46097   7.179   3.423   1.120 -0.2257  0.1845 -0.5395
14697SOL    HW146098   7.091   3.439   1.084 -1.0222 -1.0730  0.7636
14697SOL    HW246099   7.188   3.489   1.190 -0.7838 -0.6506  0.3467
14698SOL     OW46100   2.301   9.332   0.119 -0.3702  0.5581  0.7444
14698SOL    HW146101   2.224   9.298   0.163 -1.2263  1.2935 -0.1307
14698SOL    HW246102   2.311   9.275   0.042  1.1517 -0.7630  1.8580
14699SOL     OW46103  10.888   9.503   9.315  0.1396 -0.1080  0.4557
14699SOL    HW146104  10.918   9.581   9.270 -2.3771  0.7209  0.0774
14699SOL    HW246105  10.793   9.506   9.308 -0.3176 -0.8593  4.3221
14700SOL     OW46106   7.986   9.486   7.927  0.4021  0.4054 -0.5808
14700SOL    HW146107   7.974   9.396   7.896 -1.1815  0.2815  0.2576
14700SOL    HW246108   8.081   9.496   7.936  0.5938 -1.6846  0.6640
14701SOL     OW46109   9.454   6.315   6.705  0.1051 -0.4059  0.3570
14701SOL    HW146110   9.369   6.352   6.682 -1.1046 -1.4477  2.7469
14701SOL    HW246111   9.465   6.242   6.645 -1.4333 -1.1502  0.9201
14702SOL     OW46112   9.385   5.686   4.040 -0.1772 -0.3941  0.3299
14702SOL    HW146113   9.428   5.650   3.963 -0.9102  0.4265 -0.4814
14702SOL    HW246114   9.323   5.750   4.006 -0.4899  0.0189  1.6031
14703SOL     OW46115   1.525   7.236   7.460  0.3652 -0.0453 -0.0415
14703SOL    HW146116   1.540   7.331   7.461  0.9693 -0.0726  3.0788
14703SOL    HW246117   1.432   7.227   7.440 -0.3194  1.4114  2.1832
14704SOL     OW46118   3.271   0.287   3.360 -0.5010 -0.6871 -0.0294
14704SOL    HW146119   3.192   0.339   3.371 -0.4558 -1.0754  3.1788
14704SOL    HW246120   3.245   0.197   3.380  0.3182 -1.1941 -1.1203
14705SOL     OW46121   3.500   3.606   4.592 -0.2295  0.0061  0.3501
14705SOL    HW146122   3.425   3.648   4.634  0.1639  0.7615  0.3192
14705SOL    HW246123   3.539   3.675   4.538 -0.1097 -0.6639 -0.4288
14706SOL     OW46124   5.035   4.140  10.263  0.2062 -0.0913  0.2398
14706SOL    HW146125   5.025   4.176  10.351 -1.2229  0.5649 -0.1542
14706SOL    HW246126   4.953   4.094  10.247 -0.8464  2.2153 -1.7848
14707SOL     OW46127   0.453   8.899   9.724 -0.0424 -0.1982 -0.4114
14707SOL    HW146128   0.468   8.809   9.754 -0.5052 -1.0959 -2.6820
14707SOL    HW246129   0.539   8.939   9.722  0.4258 -1.2030 -1.1063
14708SOL     OW46130   7.708   0.898   0.510  0.4959 -0.8866 -0.4260
14708SOL    HW146131   7.782   0.954   0.487  0.7958 -1.3702 -0.6644
14708SOL    HW246132   7.743   0.840   0.578  0.1963 -0.8028 -0.2004
14709SOL     OW46133   0.874   7.608   0.532 -0.6860  0.2762  0.6580
14709SOL    HW146134   0.826   7.594   0.450 -0.7518 -0.5275  0.8235
14709SOL    HW246135   0.965   7.615   0.505 -0.7933  0.8399  0.4351
14710SOL     OW46136   5.537   8.768  11.080 -0.1744  0.3908 -0.5029
14710SOL    HW146137   5.479   8.815  11.139 -0.1419  0.9151 -0.8770
14710SOL    HW246138   5.489   8.765  10.997 -1.4755 -2.8184  0.2254
14711SOL     OW46139   4.204   4.635   8.898 -0.2832 -0.4478  0.2365
14711SOL    HW146140   4.114   4.665   8.885  0.7017  2.1072 -1.5298
14711SOL    HW246141   4.220   4.574   8.825 -0.4474 -0.6343  0.3537
14712SOL     OW46142   9.459  10.264  10.882 -0.2517 -0.4031 -0.0363
14712SOL    HW146143   9.547  10.295  10.902 -0.4664  0.0698  0.1996
14712SOL    HW246144   9.402  10.313  10.942 -0.8043  0.2409 -1.0709
14713SOL     OW46145   3.174  10.762   6.667  0.1521  0.1730  0.3037
14713SOL    HW146146   3.097  10.716   6.700  0.6378  0.6725  2.2634
14713SOL    HW246147   3.239  10.755   6.737  2.2130 -0.8740 -1.5682
14714SOL     OW46148   4.184   0.184   0.570 -0.4192 -0.3078 -0.2386
14714SOL    HW146149   4.181   0.177   0.665  0.3936  3.0741  0.1672
14714SOL    HW246150   4.093   0.198   0.544 -0.7173 -1.7734 -0.0842
14715SOL     OW46151   6.092   8.007  10.519 -0.3345 -0.0478 -0.2778
14715SOL    HW146152   6.085   7.991  10.613 -0.6344  1.5129 -0.0093
14715SOL    HW246153   6.060   7.927  10.479 -2.0265 -0.0477  0.9647
14716SOL     OW46154   1.086   5.922   8.545  0.2401 -0.0005  0.5722
14716SOL    HW146155   1.102   5.858   8.615  2.6626 -1.5590 -1.2149
14716SOL    HW246156   1.128   6.002   8.576 -0.6786  0.0357  1.8052
14717SOL     OW46157   1.397  11.022   2.814  0.4862 -0.0973 -0.0979
14717SOL    HW146158   1.491  11.029   2.825  0.6573 -2.0522  0.0132
14717SOL    HW246159   1.385  10.945   2.757 -0.9927  0.8180 -1.0981
14718SOL     OW46160   6.494   2.741  10.483  0.0477 -0.0717  0.0681
14718SOL    HW146161   6.467   2.783  10.565  1.5705  2.0620 -0.4268
14718SOL    HW246162   6.412   2.724  10.437 -0.7272  0.7592  1.0845
14719SOL     OW46163   1.117   2.670   4.436 -0.2463 -0.6010 -0.4048
14719SOL    HW146164   1.076   2.689   4.521  0.1918  0.2531 -0.3705
14719SOL    HW246165   1.109   2.575   4.426 -2.4578 -0.4477 -0.5302
14720SOL     OW46166   0.384  11.088   9.322  0.0167 -0.1253  0.0257
14720SOL    HW146167   0.336  11.069   9.242  2.4255 -1.1652 -1.2658
14720SOL    HW246168   0.419  11.176   9.309  0.0398 -0.1223  0.1070
14721SOL     OW46169   1.381   5.465  10.695  0.2203 -0.4152 -0.2950
14721SOL    HW146170   1.333   5.546  10.709  0.3463 -0.2919 -0.5600
14721SOL    HW246171   1.473   5.491  10.700  0.2967 -0.2057 -2.1034
14722SOL     OW46172   4.280   0.587   1.115  0.4426 -0.8130  0.3486
14722SOL    HW146173   4.310   0.547   1.033  0.5969 -2.1638  1.0349
14722SOL    HW246174   4.326   0.671   1.119  0.7062 -0.8879 -0.7660
14723SOL     OW46175   7.941   9.698   0.436 -0.5630 -0.6097  0.3667
14723SOL    HW146176   7.994   9.629   0.478 -0.8092  0.0300  1.7830
14723SOL    HW246177   8.005   9.752   0.391 -0.2159 -0.9748  0.4117
14724SOL     OW46178  10.057   3.791   1.992 -0.6301  0.2114  0.2793
14724SOL    HW146179  10.023   3.765   1.906  0.6820  0.8203 -0.4526
14724SOL    HW246180  10.075   3.709   2.037  1.0910 -0.1777 -1.0363
14725SOL     OW46181   6.824   9.909   1.981  0.5939 -0.0995  0.4480
14725SOL    HW146182   6.877   9.862   2.045  0.2367  1.3746  1.8839
14725SOL    HW246183   6.743   9.929   2.027 -0.3265 -0.3984 -0.9998
14726SOL     OW46184   1.210   6.622   3.174  0.0644  0.2693  0.4749
14726SOL    HW146185   1.120   6.634   3.145 -0.0348  0.1153  0.7167
14726SOL    HW246186   1.254   6.704   3.150 -0.2555  0.5378  0.7886
14727SOL     OW46187  10.412   3.551   0.554 -0.3653  0.6267  0.2160
14727SOL    HW146188  10.419   3.627   0.497  1.2310  0.3075 -0.0627
14727SOL    HW246189  10.361   3.488   0.503  2.2846 -0.2442 -1.6477
14728SOL     OW46190   4.161   3.732   7.779  0.3431  0.0386  0.4634
14728SOL    HW146191   4.156   3.649   7.731  2.4103 -0.1456  0.4950
14728SOL    HW246192   4.139   3.709   7.869 -1.5496  0.0219  0.0459
14729SOL     OW46193   9.809   8.765   3.219  0.2447  0.3640 -0.3508
14729SOL    HW146194   9.772   8.815   3.146  0.3852  0.6369 -0.2397
14729SOL    HW246195   9.871   8.705   3.178  0.5285  0.7083 -0.4372
14730SOL     OW46196   2.134  10.774   1.916  0.3169  0.1661  0.2978
14730SOL    HW146197   2.182  10.841   1.965 -0.0192 -1.6401  3.3748
14730SOL    HW246198   2.199  10.708   1.896 -0.3186 -1.3505  2.7331
14731SOL     OW46199   2.355   0.830   9.632  0.7844  0.2527 -0.2339
14731SOL    HW146200   2.416   0.834   9.706  0.4398 -0.1677  0.0738
14731SOL    HW246201   2.365   0.742   9.597  0.4593  0.2315 -0.2743
14732SOL     OW46202   0.559   0.098   6.539 -0.2876 -0.5247 -0.1430
14732SOL    HW146203   0.585   0.041   6.611 -0.5857  1.4332  1.6292
14732SOL    HW246204   0.465   0.082   6.528 -0.7171  0.6058  1.4021
14733SOL     OW46205   5.147   9.007   7.205 -0.5943 -0.5360  0.1925
14733SOL    HW146206   5.099   8.930   7.175  1.4487 -0.7509 -3.0210
14733SOL    HW246207   5.236   8.977   7.219  0.4021  1.2489 -1.7104
14734SOL     OW46208   4.678   2.942   9.722  0.1438 -0.0791 -0.6812
14734SOL    HW146209   4.667   2.978   9.809 -2.8253  0.3363 -1.1223
14734SOL    HW246210   4.768   2.965   9.697  2.2674 -2.7995  3.3044
14735SOL     OW46211   2.753   7.536   8.306 -0.1512  0.2164 -0.2253
14735SOL    HW146212   2.698   7.460   8.284  0.8285 -0.7973  0.6962
14735SOL    HW246213   2.693   7.597   8.347 -0.6876 -0.7275  0.4459
14736SOL     OW46214   5.375   6.534   6.999  0.8026 -0.2598 -0.1372
14736SOL    HW146215   5.357   6.603   6.934 -0.5712 -0.4216  0.0402
14736SOL    HW246216   5.289   6.514   7.037  0.9795 -2.8148 -0.9025
14737SOL     OW46217   4.761   0.417  11.049  0.3206  0.2208 -0.0634
14737SOL    HW146218   4.817   0.476  11.100  1.9549  1.5778 -3.1632
14737SOL    HW246219   4.677   0.463  11.042  0.3692  0.4258  0.6146
14738SOL     OW46220   9.910   5.375  10.825  0.3514  0.3608 -0.7862
14738SOL    HW146221   9.924   5.449  10.884 -0.7496  0.1756 -0.2641
14738SOL    HW246222   9.857   5.314  10.876  2.7247 -1.6243 -0.5535
14739SOL     OW46223   9.955   0.147   1.504  0.7690 -0.1598 -0.1290
14739SOL    HW146224   9.936   0.072   1.560 -1.4759  3.3651  4.5526
14739SOL    HW246225   9.872   0.165   1.459  0.2908  1.1647  1.2058
14740SOL     OW46226  10.932   5.735   7.764 -0.4438  0.1664  0.2494
14740SOL    HW146227  10.954   5.801   7.830 -1.3942  0.5853  0.1607
14740SOL    HW246228  10.967   5.770   7.683  2.4784 -1.2476  0.7689
14741SOL     OW46229   2.396   8.296  10.646  0.1861  0.6618 -0.1197
14741SOL    HW146230   2.383   8.354  10.721 -0.6260 -1.0964  1.1876
14741SOL    HW246231   2.320   8.312  10.590 -0.3539  0.4545  0.5351
14742SOL     OW46232   7.080   5.242  10.734  0.2248  0.2065  0.1071
14742SOL    HW146233   7.068   5.173  10.669  0.2790  1.0729 -0.8500
14742SOL    HW246234   7.168   5.227  10.769  0.3171 -0.0887 -0.2515
14743SOL     OW46235   4.528   0.664  10.297 -0.1356 -0.2384  0.0944
14743SOL    HW146236   4.444   0.618  10.289 -0.3788  0.1432  0.4163
14743SOL    HW246237   4.566   0.630  10.378 -0.7218  0.7521  0.8170
14744SOL     OW46238   4.846   0.007   3.274 -0.0773  0.3183 -0.6416
14744SOL    HW146239   4.777  -0.033   3.223 -1.7080 -0.3283  1.8710
14744SOL    HW246240   4.916  -0.058   3.276 -0.1700  0.1821 -1.6537
14745SOL     OW46241   2.731  10.390   3.545 -0.5384 -0.3889 -0.0461
14745SOL    HW146242   2.827  10.393   3.543 -0.5445  2.1993 -0.4328
14745SOL    HW246243   2.710  10.297   3.548  1.9790 -1.0310  0.1449
14746SOL     OW46244  10.340   2.348   8.884  0.4610  0.1705  0.1109
14746SOL    HW146245  10.249   2.372   8.867  0.1999 -0.8132  0.0784
14746SOL    HW246246  10.335   2.262   8.927  1.3311  0.4901  0.8978
14747SOL     OW46247   8.709   2.238   2.263  0.3086 -0.3068 -0.1818
14747SOL    HW146248   8.717   2.151   2.223  0.6869 -1.3689  2.0874
14747SOL    HW246249   8.799   2.265   2.278  0.1661 -0.6223  1.3424
14748SOL     OW46250   1.734  10.154   8.602 -0.1862 -0.8514 -0.6681
14748SOL    HW146251   1.821  10.144   8.641  0.3100 -0.6590 -1.7023
14748SOL    HW246252   1.690  10.218   8.659  0.4572 -0.7051 -0.3236
14749SOL     OW46253   6.559   0.574   7.146 -0.4663 -0.2819 -0.1304
14749SOL    HW146254   6.643   0.530   7.133 -1.0718 -1.5586  0.0909
14749SOL    HW246255   6.546   0.572   7.241 -0.9589 -0.5319 -0.1985
14750SOL     OW46256   6.377   3.815  10.143  0.7779 -0.5474 -0.0827
14750SOL    HW146257   6.315   3.881  10.112  0.4212 -0.4816  0.7563
14750SOL    HW246258   6.325   3.735  10.150  0.8752 -0.5788  0.2729
14751SOL     OW46259   0.034   4.272   5.706  0.3107 -0.6479  0.1863
14751SOL    HW146260  -0.049   4.269   5.754 -0.6383 -1.2070 -1.4134
14751SOL    HW246261   0.075   4.187   5.724  0.0837 -0.7539  0.2097
14752SOL     OW46262   8.807   1.242  10.199  0.4010 -0.0110 -0.5151
14752SOL    HW146263   8.736   1.179  10.183 -0.6391  0.6134  1.3515
14752SOL    HW246264   8.879   1.211  10.143 -0.2521 -2.5371 -0.0809
14753SOL     OW46265   4.604   0.799   9.271  0.5008 -0.0497  0.1052
14753SOL    HW146266   4.629   0.774   9.360 -0.1347 -2.4405 -0.3171
14753SOL    HW246267   4.516   0.763   9.260  0.0626  1.3117 -1.0856
14754SOL     OW46268   2.466   9.408   1.643  0.6308  0.1339  0.9251
14754SOL    HW146269   2.527   9.480   1.629 -0.0094  0.7231  1.0880
14754SOL    HW246270   2.483   9.379   1.733  2.6875 -1.6793  0.0333
14755SOL     OW46271   3.113   1.755   6.561  0.0310  0.1024 -0.3020
14755SOL    HW146272   3.155   1.736   6.645  0.7219 -0.9523 -0.8655
14755SOL    HW246273   3.029   1.794   6.585 -0.8783 -2.3999  0.9682
14756SOL     OW46274   6.739   1.946  10.216 -0.5408 -0.3050 -0.0730
14756SOL    HW146275   6.726   1.851  10.222 -0.5789 -0.4919 -2.2275
14756SOL    HW246276   6.652   1.983  10.233 -0.7408 -0.7161 -0.1711
14757SOL     OW46277   7.525   4.102   6.159  0.6138  0.2943 -0.0850
14757SOL    HW146278   7.526   4.166   6.088  0.9323 -0.8463 -1.1506
14757SOL    HW246279   7.435   4.103   6.191  1.1504  3.0195  1.6233
14758SOL     OW46280   3.336   3.782   9.679  0.2314  0.4275  0.0573
14758SOL    HW146281   3.386   3.701   9.686 -0.4390 -0.1221 -1.2434
14758SOL    HW246282   3.327   3.813   9.769 -0.1373 -1.3228  0.6521
14759SOL     OW46283   7.233   7.051   3.521  0.6189 -0.1651  0.1509
14759SOL    HW146284   7.327   7.042   3.536  0.6793 -0.0414 -0.1487
14759SOL    HW246285   7.226   7.121   3.456  0.3275 -0.2592  0.0821
14760SOL     OW46286   6.718   4.270   6.057 -0.4926  0.0444  0.1189
14760SOL    HW146287   6.708   4.175   6.052 -0.3824 -0.0345  1.2466
14760SOL    HW246288   6.742   4.287   6.148 -0.1799  1.1264 -0.1558
14761SOL     OW46289  10.558   3.706   5.155  0.0443 -0.6583 -0.0744
14761SOL    HW146290  10.507   3.778   5.194 -2.2334 -1.4283 -1.4121
14761SOL    HW246291  10.506   3.628   5.175  1.3482 -1.6599 -0.5103
14762SOL     OW46292   0.855   5.600   3.775  0.0375  0.0716 -0.1790
14762SOL    HW146293   0.908   5.539   3.724 -1.0109 -0.8232 -0.2672
14762SOL    HW246294   0.839   5.553   3.858  0.1462  0.7078  0.2064
14763SOL     OW46295   9.622   3.705   8.406 -0.2092  0.2062  0.0839
14763SOL    HW146296   9.683   3.703   8.333 -0.4248  2.8892 -0.2657
14763SOL    HW246297   9.539   3.732   8.367 -0.3830  1.4336  1.2306
14764SOL     OW46298   0.361   8.423   3.989 -0.7125 -0.0568 -0.6943
14764SOL    HW146299   0.342   8.330   3.991 -1.2190  0.0048 -1.7759
14764SOL    HW246300   0.456   8.429   3.981 -0.3715 -0.4166  2.0965
14765SOL     OW46301   4.107   1.244   6.551  0.5028 -0.3128  0.1275
14765SOL    HW146302   4.137   1.247   6.460  1.6271  0.2363  0.4891
14765SOL    HW246303   4.024   1.291   6.550  0.3881 -0.5084 -0.6522
14766SOL     OW46304   8.881   5.257   4.137  0.2566 -0.1793  0.1100
14766SOL    HW146305   8.871   5.280   4.045  1.3259 -0.6481 -0.1496
14766SOL    HW246306   8.976   5.257   4.151  0.0777  1.5355  1.6608
14767SOL     OW46307   0.721   0.525   2.807 -0.0994 -0.4003  0.5101
14767SOL    HW146308   0.637   0.570   2.808 -0.1516 -0.4950  1.4287
14767SOL    HW246309   0.781   0.587   2.764 -0.5147 -0.1099  0.3464
14768SOL     OW46310   2.937   7.337   7.298  0.2407  0.0116  0.5458
14768SOL    HW146311   2.918   7.289   7.218 -0.0879 -0.1292  0.7028
14768SOL    HW246312   2.851   7.362   7.332  0.3039 -0.9388  1.4688
14769SOL     OW46313   6.437   2.393   6.875 -0.2748  0.1075 -0.4587
14769SOL    HW146314   6.397   2.309   6.852 -1.2063  0.2488  0.5432
14769SOL    HW246315   6.465   2.383   6.966 -1.1569  1.1375 -0.0466
14770SOL     OW46316  10.597   1.078   1.445  0.3390  0.3770 -0.5167
14770SOL    HW146317  10.631   1.167   1.455  1.3454 -0.0661  0.3396
14770SOL    HW246318  10.654   1.038   1.379  0.3712  0.1565 -0.3581
14771SOL     OW46319   1.624   1.491  10.728 -0.2150  0.2675  0.0826
14771SOL    HW146320   1.710   1.533  10.726  0.1638 -0.3935  1.4468
14771SOL    HW246321   1.640   1.404  10.691 -0.3506  0.2391  0.0908
14772SOL     OW46322   9.184   4.434   1.481 -0.0866 -0.3337 -0.4209
14772SOL    HW146323   9.268   4.389   1.475  0.1382 -0.0119  0.1714
14772SOL    HW246324   9.118   4.365   1.472  0.2444 -0.6789 -0.2238
14773SOL     OW46325   5.232   1.723   0.874  0.1042 -0.0312  0.0026
14773SOL    HW146326   5.200   1.649   0.925 -0.3495  0.3893  0.3372
14773SOL    HW246327   5.267   1.683   0.794 -0.9515 -0.5400 -0.2282
14774SOL     OW46328   1.613   0.266  10.535  0.1129  0.1782  0.5698
14774SOL    HW146329   1.613   0.251  10.630 -0.8463  1.8585  0.8823
14774SOL    HW246330   1.632   0.181  10.497 -0.5792 -0.7736  2.2444
14775SOL     OW46331   4.467   2.786   9.657 -0.0874  0.4214  0.2432
14775SOL    HW146332   4.435   2.875   9.670 -1.8904 -0.3684  1.6497
14775SOL    HW246333   4.559   2.790   9.684  0.4666  2.2262 -1.6029
14776SOL     OW46334   3.911   0.616   9.624 -0.1998 -0.3454  0.3836
14776SOL    HW146335   3.946   0.705   9.629 -1.1023 -0.0080  1.0512
14776SOL    HW246336   3.962   0.573   9.555 -1.8112  1.6168 -2.1708
14777SOL     OW46337   0.752   3.286   9.551 -0.0959  0.1148 -0.6931
14777SOL    HW146338   0.708   3.233   9.618  1.3009 -0.4822 -0.2208
14777SOL    HW246339   0.806   3.224   9.504  0.9155  0.9756 -0.6947
14778SOL     OW46340   1.160   8.486   5.602  0.5748 -0.2971 -0.0612
14778SOL    HW146341   1.174   8.391   5.611  2.8937  0.0108  0.1789
14778SOL    HW246342   1.193   8.507   5.515 -3.4120 -0.1733 -1.7826
14779SOL     OW46343   0.508   7.727   0.054  0.5008 -0.0441 -0.7480
14779SOL    HW146344   0.525   7.802  -0.002  0.1449  0.2064 -0.5239
14779SOL    HW246345   0.416   7.735   0.078  0.5172 -0.4314 -0.5431
14780SOL     OW46346   7.946   0.987  10.064 -0.6090  0.2197 -0.0670
14780SOL    HW146347   8.023   0.934  10.044  0.5891  0.5172  3.1060
14780SOL    HW246348   7.879   0.957  10.003  1.6235 -0.9430 -2.1179
14781SOL     OW46349   5.453   9.549   8.375  0.6033  0.2247 -0.3350
14781SOL    HW146350   5.453   9.499   8.456  0.0156  0.7984  0.0223
14781SOL    HW246351   5.361   9.562   8.354  0.7475  0.0778 -1.1041
14782SOL     OW46352   3.527   9.402   0.856  0.0551 -0.2458 -0.5531
14782SOL    HW146353   3.547   9.368   0.943  0.0506  0.4743 -0.2667
14782SOL    HW246354   3.587   9.475   0.844 -1.3256  0.9753 -0.3052
14783SOL     OW46355   4.368   9.275   5.272 -0.0296 -0.0076 -0.3084
14783SOL    HW146356   4.304   9.240   5.211  0.3199 -0.7756 -0.2573
14783SOL    HW246357   4.364   9.370   5.261 -0.9666 -0.0631 -0.5039
14784SOL     OW46358   3.418   5.890   0.288 -0.3424  0.2443 -0.6107
14784SOL    HW146359   3.325   5.868   0.297 -0.6389  0.3120 -2.8965
14784SOL    HW246360   3.457   5.814   0.244  0.5724  0.4903 -0.2595
14785SOL     OW46361   4.832   0.013   0.759  0.0286 -0.6421 -0.0811
14785SOL    HW146362   4.795   0.022   0.671  0.3520  0.1771 -0.1449
14785SOL    HW246363   4.923   0.043   0.750 -0.1051  0.0408  0.6458
14786SOL     OW46364   8.589  11.086   0.289  0.0600  0.2590  0.1185
14786SOL    HW146365   8.532  11.033   0.233  2.4629 -1.7711 -0.6183
14786SOL    HW246366   8.644  11.134   0.227 -1.4661  3.0296  0.7973
14787SOL     OW46367   3.111   7.978   7.579  0.2825 -0.7119 -1.0918
14787SOL    HW146368   3.141   7.892   7.608  0.3917 -1.0790 -2.2366
14787SOL    HW246369   3.152   7.990   7.494  1.2579  1.0280 -0.4092
14788SOL     OW46370   5.896   5.089  10.574  0.0162  0.5854  0.1420
14788SOL    HW146371   5.969   5.030  10.556 -1.5400 -2.3961  2.5898
14788SOL    HW246372   5.922   5.136  10.653 -0.3247  0.1448  0.5249
14789SOL     OW46373   7.802   4.820   9.307 -0.6484  0.3484 -0.0282
14789SOL    HW146374   7.759   4.736   9.323  1.0366 -0.3401  1.2259
14789SOL    HW246375   7.781   4.872   9.385  1.0247 -0.1407  0.7977
14790SOL     OW46376   6.108  10.854   9.673  0.4773  0.0481  0.2414
14790SOL    HW146377   6.116  10.947   9.691  2.3600  0.0883 -0.6238
14790SOL    HW246378   6.196  10.819   9.681  0.3655 -1.0782 -2.3910
14791SOL     OW46379   7.632   0.645   3.839 -0.2499 -0.4146 -0.7930
14791SOL    HW146380   7.661   0.627   3.750 -0.7314 -1.4034 -0.7642
14791SOL    HW246381   7.584   0.728   3.832 -0.5944 -0.6668 -1.5241
14792SOL     OW46382   1.274   8.045   3.685  0.0079  0.1139 -0.0771
14792SOL    HW146383   1.183   8.018   3.699  0.2050 -0.1278  0.8097
14792SOL    HW246384   1.292   8.020   3.595 -1.2175  1.3906 -0.7165
14793SOL     OW46385   5.547   8.002   5.924  0.2644  0.5671 -0.5051
14793SOL    HW146386   5.571   7.920   5.881  0.1583  0.0923  0.3278
14793SOL    HW246387   5.556   7.984   6.018 -1.0590  1.0901 -0.2536
14794SOL     OW46388   5.196  10.208   2.040 -0.1778  0.0084 -0.4830
14794SOL    HW146389   5.193  10.276   2.107  2.9499 -0.8407  0.7312
14794SOL    HW246390   5.250  10.246   1.971 -2.4857  0.4667 -2.1393
14795SOL     OW46391   0.529   8.128   3.713  0.0106  0.2990  0.4169
14795SOL    HW146392   0.555   8.215   3.684  1.5560  0.1501  1.2557
14795SOL    HW246393   0.610   8.087   3.743 -0.4325 -1.9250 -1.1561
14796SOL     OW46394   6.287   4.165   9.293  0.6856  0.8121 -0.3100
14796SOL    HW146395   6.271   4.213   9.212  0.2206 -0.6708 -1.1308
14796SOL    HW246396   6.236   4.084   9.284  2.8911 -0.7173  0.1745
14797SOL     OW46397   7.831   1.729   3.137 -0.4027 -0.1535  1.3581
14797SOL    HW146398   7.852   1.714   3.045  0.2408  0.1731  1.4493
14797SOL    HW246399   7.792   1.646   3.166 -1.7868  0.1439  0.4787
14798SOL     OW46400  10.231   6.680   4.585 -0.6065  0.2667  0.1293
14798SOL    HW146401  10.137   6.672   4.602 -0.4004 -0.6748  0.9164
14798SOL    HW246402  10.262   6.745   4.649 -0.4231 -0.7777  1.1371
14799SOL     OW46403   9.383  10.172   3.773 -0.3951  0.1384 -0.2719
14799SOL    HW146404   9.394  10.249   3.717  1.2158 -1.5879 -2.5021
14799SOL    HW246405   9.353  10.103   3.714  1.3438 -1.7603  0.9120
14800SOL     OW46406   4.741  10.135   1.852 -0.3926  0.8207  0.1706
14800SOL    HW146407   4.732  10.226   1.878  1.1439  0.3236  2.8810
14800SOL    HW246408   4.801  10.098   1.917 -0.6519 -2.0301 -1.0728
14801SOL     OW46409   4.306   6.487   8.237  0.3039  0.4609  0.3855
14801SOL    HW146410   4.308   6.405   8.187 -0.5581  1.0158 -0.6151
14801SOL    HW246411   4.278   6.461   8.325  0.4116 -0.3610  0.1835
14802SOL     OW46412   3.600   0.361   1.170  0.1890 -0.0872 -0.1191
14802SOL    HW146413   3.687   0.394   1.149 -0.2559  0.9795 -0.3647
14802SOL    HW246414   3.597   0.359   1.265  0.6646 -0.6762 -0.1068
14803SOL     OW46415   4.889   9.844   8.720  0.1088  0.3244 -0.4061
14803SOL    HW146416   4.837   9.921   8.696 -2.1088 -0.0623  2.6401
14803SOL    HW246417   4.824   9.775   8.732  1.8166 -1.3787 -0.6404
14804SOL     OW46418   1.294   7.794   1.132  0.4928 -0.1838 -0.1615
14804SOL    HW146419   1.215   7.847   1.143  0.1004 -1.0142  1.3343
14804SOL    HW246420   1.365   7.857   1.128  0.1803  0.5171  2.7338
14805SOL     OW46421   8.637  10.011   8.911  0.0314  0.1810  0.8461
14805SOL    HW146422   8.703   9.966   8.858 -0.1545  0.5465  0.3008
14805SOL    HW246423   8.687  10.065   8.972  0.2703  2.0782 -0.9328
14806SOL     OW46424   4.822   7.394  10.685 -0.4393  0.6650  0.0720
14806SOL    HW146425   4.824   7.298  10.678 -0.6816  0.7105 -0.8453
14806SOL    HW246426   4.876   7.414  10.761  1.9936 -0.0697 -1.3583
14807SOL     OW46427   6.284   4.291   1.966  0.4219 -0.4130 -0.2017
14807SOL    HW146428   6.353   4.346   1.929 -0.1021  0.2051 -0.2741
14807SOL    HW246429   6.263   4.229   1.896 -0.3594  0.5665 -0.8536
14808SOL     OW46430   8.310   4.791  11.058  0.4407  0.3320 -0.2904
14808SOL    HW146431   8.323   4.782  10.963  1.4010  0.2484 -0.1599
14808SOL    HW246432   8.356   4.872  11.080  0.4941  0.1796  0.1582
14809SOL     OW46433   5.564   4.760   7.559  0.1357  0.6331 -0.0797
14809SOL    HW146434   5.644   4.731   7.603 -0.4027 -0.0703  0.4435
14809SOL    HW246435   5.583   4.851   7.534  0.9311  0.6237  0.4437
14810SOL     OW46436   8.325   1.253   9.541  0.0298  0.0640 -0.1978
14810SOL    HW146437   8.243   1.292   9.572  0.3931  0.9406 -0.3129
14810SOL    HW246438   8.393   1.315   9.568  0.7097 -0.8539  0.2618
14811SOL     OW46439  10.453   3.526   5.941  0.6354 -0.2268  0.1573
14811SOL    HW146440  10.414   3.545   6.026 -0.0495 -1.0032  0.0299
14811SOL    HW246441  10.380   3.531   5.879  0.9987 -0.3489 -0.2889
14812SOL     OW46442   9.894   5.693   8.883  0.3701 -0.5090 -0.3200
14812SOL    HW146443   9.883   5.660   8.972 -1.9812 -2.3804 -1.1764
14812SOL    HW246444   9.932   5.619   8.835 -3.0338 -1.4845 -1.8397
14813SOL     OW46445   0.949  10.265   1.011  0.0169 -0.2042  0.3450
14813SOL    HW146446   1.031  10.309   1.034  0.1684 -0.3422  0.0644
14813SOL    HW246447   0.968  10.219   0.930  0.2839 -1.9584  1.3502
14814SOL     OW46448   4.307   5.874   3.090  0.2329  0.5568  0.7275
14814SOL    HW146449   4.264   5.951   3.054 -1.3829  0.6707  2.7445
14814SOL    HW246450   4.237   5.824   3.133  1.5423 -1.0862  1.0724
14815SOL     OW46451   1.882  10.726   0.606  0.4765 -0.8226 -0.1056
14815SOL    HW146452   1.881  10.819   0.582 -0.4241 -1.3636 -2.4934
14815SOL    HW246453   1.802  10.713   0.657 -0.6738 -0.7029 -1.7981
14816SOL     OW46454   0.450  10.445  10.062 -0.0844  0.1260  0.1663
14816SOL    HW146455   0.531  10.450  10.114  1.5272  0.0248 -2.1828
14816SOL    HW246456   0.450  10.526  10.010 -1.4433  0.0493  0.0094
14817SOL     OW46457   7.699   8.410   1.905 -0.2785 -0.3735  0.0665
14817SOL    HW146458   7.703   8.482   1.842 -2.3272 -0.9039 -0.7448
14817SOL    HW246459   7.623   8.431   1.960 -1.1542 -2.0481 -0.4216
14818SOL     OW46460   2.322  10.984   7.428 -0.4236 -0.2594 -0.4004
14818SOL    HW146461   2.330  10.894   7.457  0.7001 -0.1081 -0.2184
14818SOL    HW246462   2.277  11.029   7.500 -1.7474 -0.8221 -0.8347
14819SOL     OW46463   9.938   2.542   9.799 -0.4631  0.0567  0.1854
14819SOL    HW146464   9.941   2.517   9.892 -2.8029  0.3877  0.4230
14819SOL    HW246465   9.862   2.495   9.765 -0.5972  1.1936 -1.1599
14820SOL     OW46466   8.692   7.618   5.266 -0.0602 -0.9869  0.3318
14820SOL    HW146467   8.723   7.681   5.201 -1.7839 -1.7452 -1.3437
14820SOL    HW246468   8.657   7.672   5.337 -1.5852  0.0268 -1.1109
14821SOL     OW46469   2.818  10.389  10.989  0.4596 -0.3432  0.4706
14821SOL    HW146470   2.878  10.463  10.988  0.1047  0.0046  2.0399
14821SOL    HW246471   2.803  10.372  11.082 -2.0974 -0.2121  0.1504
14822SOL     OW46472   0.675   9.047   9.770 -0.3907  0.1638  0.1890
14822SOL    HW146473   0.658   9.035   9.863 -1.0078  1.8065  0.3190
14822SOL    HW246474   0.734   9.122   9.766 -2.5211  1.8976 -0.8188
14823SOL     OW46475   1.140   3.607   5.262 -0.1082 -0.5091 -0.2011
14823SOL    HW146476   1.138   3.703   5.258  2.1622 -0.4454 -1.9622
14823SOL    HW246477   1.093   3.578   5.184  0.7009 -0.7694 -0.5985
14824SOL     OW46478   6.892   0.594   7.169  0.7524  0.6151 -0.3651
14824SOL    HW146479   6.852   0.517   7.210  1.2848 -0.0616 -1.0576
14824SOL    HW246480   6.986   0.577   7.174  0.8385  0.6474 -1.5739
14825SOL     OW46481   9.879   7.741   9.229  0.4511  0.2825  0.2520
14825SOL    HW146482   9.862   7.725   9.321 -0.1960  0.6260  0.2004
14825SOL    HW246483   9.820   7.813   9.206  1.4961  1.0351 -0.1286
14826SOL     OW46484   4.215  10.215   8.499  0.0785 -0.1539 -0.2675
14826SOL    HW146485   4.289  10.275   8.507  1.1075 -1.0081 -2.5360
14826SOL    HW246486   4.253  10.128   8.505 -1.0508 -0.6241  0.4974
14827SOL     OW46487   5.655   5.893   9.370  0.5314  0.0126  0.1578
14827SOL    HW146488   5.749   5.894   9.386  0.7831  0.2047 -1.2750
14827SOL    HW246489   5.627   5.805   9.396  0.8302  0.4186  1.9839
14828SOL     OW46490   2.428   2.355   3.412  0.1946 -0.0108 -0.1286
14828SOL    HW146491   2.518   2.372   3.384  0.4556  2.4076  1.9018
14828SOL    HW246492   2.429   2.368   3.507 -1.8415 -2.2780  0.3244
14829SOL     OW46493   7.091   0.751  10.224  0.1269 -0.0361 -0.0159
14829SOL    HW146494   7.075   0.796  10.306  0.5987 -1.7088  1.0523
14829SOL    HW246495   7.160   0.802  10.182 -0.2960  0.9821  0.4924
14830SOL     OW46496   7.506   1.014   1.480 -0.1972  0.6688 -0.1482
14830SOL    HW146497   7.572   1.045   1.417 -1.8503  1.3294 -1.6533
14830SOL    HW246498   7.511   0.919   1.475  1.3490  0.6725  0.5877
14831SOL     OW46499   9.515   5.011   8.357 -0.0177  0.0919  0.0615
14831SOL    HW146500   9.534   5.095   8.316  1.1266 -0.4793 -0.6186
14831SOL    HW246501   9.454   4.968   8.297 -0.2910  0.2587  0.2147
14832SOL     OW46502   4.141   3.725   0.776  0.9743  0.0297  0.2553
14832SOL    HW146503   4.158   3.789   0.707 -3.7242  1.7938  0.4030
14832SOL    HW246504   4.113   3.777   0.851 -0.8264 -2.0426  1.1383
14833SOL     OW46505   6.976  10.379   2.275 -0.0938  0.2194  0.0906
14833SOL    HW146506   6.950  10.342   2.191  0.4188  2.1778 -0.9973
14833SOL    HW246507   6.921  10.457   2.285  0.4723  0.5004  1.1469
14834SOL     OW46508   7.863   0.777   0.701 -0.0485 -0.5947  0.1934
14834SOL    HW146509   7.922   0.707   0.730  0.3795 -0.0243  0.7238
14834SOL    HW246510   7.920   0.852   0.687 -0.8323  0.6134  2.7853
14835SOL     OW46511   4.561   6.636   4.836  0.4368  0.7992 -0.1762
14835SOL    HW146512   4.502   6.587   4.779  1.7985  0.2987 -1.1902
14835SOL    HW246513   4.550   6.596   4.922  0.8477 -0.6945 -0.7913
14836SOL     OW46514   6.419   9.878   3.451 -0.4746  0.3920  0.1758
14836SOL    HW146515   6.367   9.954   3.475 -0.2653  0.4746  0.3773
14836SOL    HW246516   6.509   9.901   3.476 -0.2470  0.4672 -0.6649
14837SOL     OW46517   4.408   3.794   2.616 -0.7486  0.2211 -0.4506
14837SOL    HW146518   4.375   3.869   2.567 -0.9344 -0.2042 -0.9857
14837SOL    HW246519   4.341   3.726   2.605 -2.2766  1.0404  2.8622
14838SOL     OW46520   6.812   0.347   8.243 -0.1538  0.2463 -0.6204
14838SOL    HW146521   6.904   0.332   8.223  0.4363  3.6773 -1.1151
14838SOL    HW246522   6.777   0.389   8.164 -1.1429  2.3719  0.8656
14839SOL     OW46523   4.482   5.518   4.161 -0.8514 -0.0796 -0.3184
14839SOL    HW146524   4.500   5.606   4.195  1.6355 -0.8960  0.7806
14839SOL    HW246525   4.391   5.501   4.186 -0.8625  1.5474  0.9561
14840SOL     OW46526   6.314  10.983   4.326 -0.0536 -0.6101 -0.5954
14840SOL    HW146527   6.219  10.983   4.340 -0.1571 -2.3696 -1.0476
14840SOL    HW246528   6.344  10.903   4.368  1.0976 -0.5613 -1.3002
14841SOL     OW46529   5.841   9.254   0.858 -0.1552 -0.3670 -0.5748
14841SOL    HW146530   5.750   9.232   0.841  0.0855  0.0115 -2.6021
14841SOL    HW246531   5.891   9.184   0.817  0.4813  0.5779 -1.4744
14842SOL     OW46532   3.699   3.435   4.491  0.0049 -1.0199  0.5086
14842SOL    HW146533   3.672   3.376   4.562 -1.4243 -1.3485 -0.2832
14842SOL    HW246534   3.625   3.494   4.479  1.4515  1.1227  1.3947
14843SOL     OW46535   9.964   9.280   5.561 -0.0878  0.5575 -0.2018
14843SOL    HW146536  10.042   9.311   5.517  0.1699 -0.4210 -0.4708
14843SOL    HW246537   9.969   9.184   5.554 -1.2021  0.4687 -0.0516
14844SOL     OW46538   3.907   9.913   2.394  0.3721 -0.2475  0.6000
14844SOL    HW146539   3.927   9.837   2.450  0.0934 -0.2676  0.6765
14844SOL    HW246540   3.963   9.902   2.318 -0.0906 -0.8475  0.3390
14845SOL     OW46541   4.635   5.919  10.166 -0.1803 -0.1305 -0.7154
14845SOL    HW146542   4.620   5.827  10.146  0.0894 -0.3327 -0.0049
14845SOL    HW246543   4.730   5.929  10.162 -0.2574  0.3443 -1.7407
14846SOL     OW46544   0.127   2.189   8.793 -0.3604 -0.0386  0.2085
14846SOL    HW146545   0.178   2.188   8.874  0.4955 -0.3720 -0.3180
14846SOL    HW246546   0.066   2.261   8.804 -1.9686 -1.5949  2.1726
14847SOL     OW46547   5.443   4.420   0.274  0.4994 -0.5281 -0.2163
14847SOL    HW146548   5.499   4.367   0.330 -0.3417 -0.2269  0.9603
14847SOL    HW246549   5.376   4.455   0.333  0.6551  1.3286 -1.0643
14848SOL     OW46550   3.064   4.454  10.087  0.7699  0.2089 -0.2033
14848SOL    HW146551   3.050   4.537  10.131  0.5764  0.3027 -0.4378
14848SOL    HW246552   2.976   4.422  10.067  0.8607  0.3344 -0.8268
14849SOL     OW46553   4.181   9.304   2.063 -1.1280  0.0083 -0.2475
14849SOL    HW146554   4.241   9.233   2.084  0.0573  1.2470  0.7011
14849SOL    HW246555   4.146   9.281   1.977  0.9965 -0.5653 -1.0220
14850SOL     OW46556   4.135   6.197   1.753 -0.3571 -0.3515 -0.2072
14850SOL    HW146557   4.058   6.167   1.706 -0.6084 -0.2702  0.1471
14850SOL    HW246558   4.100   6.243   1.830  0.0225  0.4202 -0.4820
14851SOL     OW46559   4.168   4.004   9.010 -0.4181  0.1427 -0.4887
14851SOL    HW146560   4.142   3.916   8.984 -0.1193  0.2074 -1.0318
14851SOL    HW246561   4.092   4.040   9.055  0.1424 -1.1285  1.6016
14852SOL     OW46562   0.804   1.546   9.450  0.0421 -0.2912  0.4282
14852SOL    HW146563   0.717   1.526   9.486  0.4307 -2.3192  0.3423
14852SOL    HW246564   0.859   1.559   9.527  0.2933 -1.9855  0.5573
14853SOL     OW46565   3.558   2.623   4.661 -0.3866  0.4213  0.2131
14853SOL    HW146566   3.481   2.633   4.605  0.9724 -0.1394 -1.8610
14853SOL    HW246567   3.608   2.552   4.620  1.3517  0.9310  1.3681
14854SOL     OW46568  10.803   1.080   2.351 -0.5335  0.4492 -0.1680
14854SOL    HW146569  10.886   1.126   2.363 -0.8765  0.7006  1.5659
14854SOL    HW246570  10.826   0.999   2.307  0.6843  0.3926  0.5310
14855SOL     OW46571   9.699   6.118   3.197 -0.1257 -0.6666 -0.2717
14855SOL    HW146572   9.750   6.199   3.193 -1.5214  0.5269  2.5789
14855SOL    HW246573   9.763   6.049   3.215  0.7261  0.5191  1.5386
14856SOL     OW46574   4.465  11.045   0.842  0.3749 -0.1938 -0.3537
14856SOL    HW146575   4.481  11.002   0.926 -1.5031  1.3310  0.8803
14856SOL    HW246576   4.396  10.992   0.801 -0.3725  0.3512  0.1670
14857SOL     OW46577   4.917   5.456   1.653  0.3405 -0.1957  0.0161
14857SOL    HW146578   4.832   5.451   1.608  0.5188 -0.7407 -0.2702
14857SOL    HW246579   4.968   5.518   1.602  0.0310  0.3193  0.3294
14858SOL     OW46580   8.078  10.323   0.631 -0.0238  0.0509 -0.1516
14858SOL    HW146581   7.999  10.269   0.640  1.1036 -1.5834  0.2654
14858SOL    HW246582   8.103  10.343   0.721  0.0070  0.6132 -0.2856
14859SOL     OW46583   6.552   3.156   2.543 -0.1588 -0.1867 -0.6440
14859SOL    HW146584   6.507   3.222   2.489  0.6419 -0.8012 -2.0994
14859SOL    HW246585   6.616   3.117   2.485  0.9839 -0.6530  0.8745
14860SOL     OW46586   8.763   0.245   8.493 -0.1167  0.4387 -0.3474
14860SOL    HW146587   8.727   0.283   8.413  0.0268  1.5961  0.1237
14860SOL    HW246588   8.852   0.219   8.468  0.4947  2.2359 -0.1825
14861SOL     OW46589   8.249   3.832   2.069  0.5858 -0.2839  0.0084
14861SOL    HW146590   8.189   3.761   2.090 -1.3679  1.1927 -0.3498
14861SOL    HW246591   8.229   3.900   2.133  1.0279  0.7192 -0.8934
14862SOL     OW46592   2.924   1.661   4.200  0.0494  0.3592 -0.1768
14862SOL    HW146593   2.991   1.729   4.206 -0.7815  1.1462  0.4759
14862SOL    HW246594   2.843   1.704   4.229 -0.3993 -1.0436  0.7772
14863SOL     OW46595   2.111   9.312   2.723  0.3117 -0.0466 -0.0390
14863SOL    HW146596   2.047   9.310   2.794  0.7359 -0.6926  0.3350
14863SOL    HW246597   2.062   9.287   2.645  0.0183 -0.1437  0.1778
14864SOL     OW46598   0.335  10.469   3.751  0.0649 -0.4761 -0.2302
14864SOL    HW146599   0.402  10.403   3.732  0.5943 -0.1144  0.3672
14864SOL    HW246600   0.362  10.546   3.701  0.3801 -0.1631  0.4180
14865SOL     OW46601   5.413   6.323   4.231 -0.3342 -0.2849  0.4926
14865SOL    HW146602   5.346   6.390   4.245  0.3598  0.5304  0.0557
14865SOL    HW246603   5.483   6.369   4.185  0.1795 -1.3145  0.2146
14866SOL     OW46604   0.303   1.037   2.980 -0.2818 -0.1372  0.4635
14866SOL    HW146605   0.348   0.995   3.053 -3.9832 -1.0847  2.4397
14866SOL    HW246606   0.260   1.113   3.018  0.1084  1.1067 -1.4501
14867SOL     OW46607   3.949   9.700   8.224  0.0565  0.3525 -0.0170
14867SOL    HW146608   3.972   9.760   8.296  1.9878  0.6260 -0.7792
14867SOL    HW246609   4.031   9.691   8.175 -0.7589 -1.2627 -1.1409
14868SOL     OW46610   7.055   7.957   8.234  0.7828 -0.8976 -0.0920
14868SOL    HW146611   7.136   7.951   8.183  1.0200 -0.9899  0.2937
14868SOL    HW246612   7.002   8.020   8.186  1.4862 -0.0684  0.1845
14869SOL     OW46613   2.806   3.691   0.516 -0.0775 -0.1443 -0.2615
14869SOL    HW146614   2.901   3.698   0.504  0.0758 -1.2940  0.1636
14869SOL    HW246615   2.771   3.692   0.427  0.2554  1.1474 -0.3913
14870SOL     OW46616   6.654   9.395  10.271  0.3766 -0.1976 -0.2624
14870SOL    HW146617   6.663   9.471  10.328  1.7397  1.5311 -2.5949
14870SOL    HW246618   6.736   9.347  10.282 -0.0500 -0.8079  0.4096
14871SOL     OW46619   7.549   9.218   4.000  0.1754  0.0148 -0.2315
14871SOL    HW146620   7.526   9.266   4.079 -0.5762 -0.1604 -0.3339
14871SOL    HW246621   7.539   9.282   3.929 -0.7478 -0.2557 -0.3586
14872SOL     OW46622   3.526   1.460   1.164  0.4455  0.1939 -0.2726
14872SOL    HW146623   3.503   1.469   1.256 -0.6522  1.1208 -0.6136
14872SOL    HW246624   3.496   1.373   1.140 -1.5205  0.8320 -0.3330
14873SOL     OW46625   5.914   9.777   1.368 -0.1282 -0.9826 -0.5015
14873SOL    HW146626   5.863   9.830   1.429 -0.2724 -2.7196  0.9753
14873SOL    HW246627   5.999   9.821   1.364 -0.7853  0.3151 -0.7047
14874SOL     OW46628   3.525   9.887   7.346 -0.2274  0.2534  0.5278
14874SOL    HW146629   3.486   9.933   7.272 -1.4952 -0.4065  0.7417
14874SOL    HW246630   3.562   9.956   7.401 -2.0457  1.0609  0.8223
14875SOL     OW46631   9.925   0.951   2.576 -0.1253  0.3787 -0.4460
14875SOL    HW146632   9.863   1.024   2.571  0.5130  0.9274 -0.6745
14875SOL    HW246633   9.871   0.873   2.578 -0.9162  0.8966  1.5912
14876SOL     OW46634   7.496   2.188  10.154 -1.0469 -0.1768  0.1172
14876SOL    HW146635   7.451   2.272  10.142 -0.4826 -0.1852 -2.6147
14876SOL    HW246636   7.448   2.127  10.098  1.0529 -0.6585 -1.2595
14877SOL     OW46637   1.785   4.647   8.495 -0.3629 -0.2129  0.8537
14877SOL    HW146638   1.834   4.730   8.494  0.2098 -0.5172  1.8265
14877SOL    HW246639   1.777   4.626   8.588 -0.9148 -1.0189  0.6304
14878SOL     OW46640   1.709   7.353   7.903  0.3145  0.6410  0.2503
14878SOL    HW146641   1.787   7.316   7.944  0.6762  1.0985 -0.0122
14878SOL    HW246642   1.684   7.290   7.836 -0.7429 -0.5073  1.6463
14879SOL     OW46643   0.587   3.000   4.659  0.2531  0.1055 -0.6689
14879SOL    HW146644   0.613   2.908   4.665 -1.6442 -0.6043 -2.2952
14879SOL    HW246645   0.598   3.033   4.748 -0.5777 -2.1503  0.3681
14880SOL     OW46646   8.722   4.371  10.308 -0.2854 -0.1866  0.0892
14880SOL    HW146647   8.784   4.380  10.235 -0.6793 -0.9503 -0.3545
14880SOL    HW246648   8.684   4.285  10.296 -0.4236 -0.2856  1.1653
14881SOL     OW46649   3.908   4.737  10.545 -0.0884 -0.5997  0.2393
14881SOL    HW146650   3.968   4.803  10.580  0.4364 -0.9482  0.0092
14881SOL    HW246651   3.906   4.755  10.451  0.4111 -1.1837  0.1078
14882SOL     OW46652   6.724   5.844  10.881  0.3655 -0.2417 -0.4507
14882SOL    HW146653   6.754   5.931  10.908  0.6962 -0.2176 -0.8943
14882SOL    HW246654   6.735   5.789  10.959 -0.9866  0.3855  0.2162
14883SOL     OW46655   8.564   2.773   4.838 -0.4391  0.6602 -0.4135
14883SOL    HW146656   8.623   2.778   4.763 -2.1155  1.7534 -1.7331
14883SOL    HW246657   8.621   2.754   4.913  1.4270  0.7154 -1.7676
14884SOL     OW46658   4.512   4.021   3.978  0.0372  0.0663 -0.1259
14884SOL    HW146659   4.420   3.992   3.978 -0.1060  0.4947 -1.2330
14884SOL    HW246660   4.507   4.113   4.004  0.1918 -0.0011  0.1443
14885SOL     OW46661   2.623   0.898   3.231 -0.5818 -0.0816  0.6799
14885SOL    HW146662   2.688   0.951   3.277 -0.7211 -0.9418  1.9179
14885SOL    HW246663   2.572   0.856   3.301 -1.5788 -0.5015 -0.2632
14886SOL     OW46664   4.238   4.622   9.550 -0.0441  0.1922 -0.4566
14886SOL    HW146665   4.267   4.536   9.580 -0.5334  0.5063  0.9428
14886SOL    HW246666   4.296   4.684   9.594 -0.5840  0.6553 -0.3892
14887SOL     OW46667   9.519   7.775   2.289  0.3411 -0.3534 -0.1408
14887SOL    HW146668   9.514   7.710   2.359 -0.7994 -0.1528 -0.0162
14887SOL    HW246669   9.594   7.830   2.312 -0.6869  0.4096  1.5509
14888SOL     OW46670   9.256   9.704   0.383  0.5500  0.3715  0.1617
14888SOL    HW146671   9.335   9.650   0.382 -1.8753 -3.5367 -0.6751
14888SOL    HW246672   9.197   9.659   0.442 -1.5131  2.5052 -0.1298
14889SOL     OW46673   4.840   3.800  10.356  0.0330 -0.0591  0.2076
14889SOL    HW146674   4.785   3.748  10.297 -0.2065 -0.3256  0.6619
14889SOL    HW246675   4.924   3.756  10.358  0.0668 -0.0037  0.0017
14890SOL     OW46676   5.641   9.787   7.984 -0.0326  0.3856  0.0910
14890SOL    HW146677   5.663   9.865   8.036 -1.2249  0.1415  1.0198
14890SOL    HW246678   5.652   9.714   8.045  1.5690 -0.2674 -0.9141
14891SOL     OW46679   6.259   6.437  10.772  0.0658  0.4846 -0.8023
14891SOL    HW146680   6.185   6.495  10.759 -0.5161 -0.0966 -0.1646
14891SOL    HW246681   6.336   6.492  10.755 -0.4857  1.3001 -0.7147
14892SOL     OW46682   3.699   1.084   8.686  0.4082  0.4490  0.2748
14892SOL    HW146683   3.780   1.054   8.728  0.1868 -0.8912 -0.1925
14892SOL    HW246684   3.672   1.010   8.630 -0.0002  1.6704 -1.2228
14893SOL     OW46685   2.877   8.756   8.824 -0.5079 -0.1848  0.1946
14893SOL    HW146686   2.957   8.731   8.778 -1.4084  0.2492 -1.7388
14893SOL    HW246687   2.903   8.827   8.881  0.8922 -1.5053  1.2648
14894SOL     OW46688   3.708   1.542   2.772  0.1829  0.0878 -0.1940
14894SOL    HW146689   3.759   1.520   2.693  1.2667  0.5807  0.3425
14894SOL    HW246690   3.771   1.533   2.844 -1.4450 -3.0886  1.0260
14895SOL     OW46691   4.466   1.125   7.411  0.6779 -0.5232 -0.1295
14895SOL    HW146692   4.382   1.135   7.367  0.2067  0.7081  0.9702
14895SOL    HW246693   4.531   1.148   7.346  0.0020  1.2116 -0.2350
14896SOL     OW46694   7.742   0.556   3.604 -0.2136 -0.2380  0.3299
14896SOL    HW146695   7.817   0.550   3.663  1.1385  0.3465 -1.2546
14896SOL    HW246696   7.772   0.516   3.522 -1.5920  0.1140 -0.3881
14897SOL     OW46697   0.952   0.055   3.414  0.0616 -0.5532  0.2695
14897SOL    HW146698   0.886   0.087   3.353 -1.9089 -0.8796  2.0849
14897SOL    HW246699   0.979   0.133   3.463  0.2070 -0.6053  0.2740
14898SOL     OW46700   2.224   6.555   2.519 -0.4475  0.7564 -0.5894
14898SOL    HW146701   2.225   6.576   2.426 -0.7356 -0.3499 -0.8611
14898SOL    HW246702   2.234   6.460   2.522 -1.0317  0.7113  0.4856
14899SOL     OW46703   1.777   1.119   3.525 -0.7378 -0.1401  0.0663
14899SOL    HW146704   1.763   1.089   3.615  1.9301 -0.7209  0.3829
14899SOL    HW246705   1.827   1.048   3.484  0.2386  1.1782 -1.0955
14900SOL     OW46706   7.638   8.116   9.212  0.6503 -0.2316 -0.1245
14900SOL    HW146707   7.565   8.147   9.159  1.2010  1.0048 -0.1994
14900SOL    HW246708   7.601   8.048   9.267 -0.1998 -0.7459 -1.2842
14901SOL     OW46709   3.529   4.274   9.371  0.3830 -0.8029  0.6087
14901SOL    HW146710   3.506   4.186   9.401  0.4033 -0.8110  0.6011
14901SOL    HW246711   3.622   4.282   9.392  0.8458 -1.4630 -1.0109
14902SOL     OW46712  10.309   6.668   2.188  0.1749  0.1348 -0.1746
14902SOL    HW146713  10.281   6.683   2.098 -1.6329  0.0872  0.3511
14902SOL    HW246714  10.265   6.737   2.238  0.7591 -0.1462  0.7492
14903SOL     OW46715   5.333   6.121  10.492  0.2384  0.5267 -0.0390
14903SOL    HW146716   5.305   6.086  10.577  0.8022  1.4935  0.5580
14903SOL    HW246717   5.422   6.152  10.507  0.1497  1.1908 -0.8422
14904SOL     OW46718   3.043   1.954   6.800  0.1890 -0.1556  0.7830
14904SOL    HW146719   3.024   2.002   6.880  0.4275 -0.9911  1.3554
14904SOL    HW246720   2.964   1.964   6.746  0.0471  0.4429  1.1041
14905SOL     OW46721   4.338   2.729  10.354  0.3359 -0.2494 -0.4752
14905SOL    HW146722   4.302   2.651  10.396 -0.8022  0.1290 -0.6994
14905SOL    HW246723   4.395   2.768  10.420  0.5690 -1.0208 -0.2044
14906SOL     OW46724   0.297   3.431   7.466 -0.1243 -0.3860 -0.0500
14906SOL    HW146725   0.259   3.389   7.390  0.3016 -1.5765  0.3684
14906SOL    HW246726   0.237   3.411   7.538  0.2042 -0.4772  0.2009
14907SOL     OW46727   5.921   2.929   1.876 -0.6227 -0.6589 -0.0466
14907SOL    HW146728   5.940   2.923   1.782 -1.8929  0.3889 -0.4014
14907SOL    HW246729   5.867   3.008   1.884 -0.3192 -0.5876  1.6084
14908SOL     OW46730   0.009   9.807   8.807  0.7243  0.3564  0.5540
14908SOL    HW146731   0.089   9.756   8.800 -0.3576 -1.4188  0.5568
14908SOL    HW246732  -0.012   9.832   8.717  0.3558 -0.6937  0.3367
14909SOL     OW46733   7.432  10.429   4.934 -0.5961 -0.0497  0.3602
14909SOL    HW146734   7.389  10.450   4.851  2.2973  1.3189 -0.9402
14909SOL    HW246735   7.501  10.367   4.910  0.7544  0.9132  1.5966
14910SOL     OW46736   3.760   4.874   3.549  0.3533  0.0415  0.6692
14910SOL    HW146737   3.719   4.906   3.629  0.1730 -1.3969  1.1740
14910SOL    HW246738   3.778   4.782   3.566 -0.2691 -0.4712 -1.1726
14911SOL     OW46739   9.542   0.705   6.406 -0.3499  0.0513 -0.2344
14911SOL    HW146740   9.557   0.694   6.312  0.5612 -2.5991  0.1429
14911SOL    HW246741   9.451   0.680   6.418 -0.2069 -0.5064 -0.2969
14912SOL     OW46742   9.002  10.791   1.539  0.2716 -0.3468 -0.1787
14912SOL    HW146743   8.931  10.734   1.567 -1.1564  1.1741 -0.5070
14912SOL    HW246744   9.034  10.831   1.619 -1.2376  1.1266 -0.2560
14913SOL     OW46745   7.341   7.075   9.926 -0.0831  0.0726  0.4078
14913SOL    HW146746   7.259   7.107   9.962 -0.1655  1.8938 -1.2218
14913SOL    HW246747   7.394   7.051  10.002 -1.6956 -0.0966  1.5197
14914SOL     OW46748   5.217   0.619   8.224  0.5476  0.1788  0.2137
14914SOL    HW146749   5.190   0.652   8.138 -0.6626  0.4146  0.6633
14914SOL    HW246750   5.148   0.558   8.249 -0.3001  1.7425  1.9591
14915SOL     OW46751   1.759   9.500   0.216  0.0244  0.9995  0.2534
14915SOL    HW146752   1.717   9.454   0.288 -2.1666  1.5095 -0.6029
14915SOL    HW246753   1.824   9.438   0.182 -0.2041  0.0523  1.4749
14916SOL     OW46754   9.452   9.946   8.368 -0.0042 -0.4679 -0.1898
14916SOL    HW146755   9.476   9.998   8.292 -0.9862  0.4239  0.0792
14916SOL    HW246756   9.358   9.930   8.356 -0.6209  1.3048  1.7341
14917SOL     OW46757   2.224   6.121   8.379  0.1828  0.4109  0.0015
14917SOL    HW146758   2.245   6.048   8.438 -0.0557 -0.1381 -0.5857
14917SOL    HW246759   2.307   6.168   8.369  1.2731 -1.7624 -2.3424
14918SOL     OW46760   4.137   6.498   1.038 -0.1231  0.0811 -0.1169
14918SOL    HW146761   4.166   6.497   1.129  0.1066 -0.0194 -0.1931
14918SOL    HW246762   4.098   6.411   1.025  0.3865 -0.1212 -0.2941
14919SOL     OW46763   1.266   9.614   8.507  0.6046 -0.3898 -0.3847
14919SOL    HW146764   1.190   9.654   8.464  0.0429 -2.0507 -0.9840
14919SOL    HW246765   1.268   9.656   8.593 -1.8945 -1.3331  0.2276
14920SOL     OW46766   4.336   3.817   4.410  0.7880  0.0401 -0.2247
14920SOL    HW146767   4.426   3.849   4.407  0.7662  0.0493 -0.7817
14920SOL    HW246768   4.330   3.752   4.340  0.2847  0.2479 -0.3812
14921SOL     OW46769   4.112   5.073   4.252  0.0214 -0.0771  0.0772
14921SOL    HW146770   4.168   5.087   4.329 -0.5280  0.2717  0.4147
14921SOL    HW246771   4.117   5.155   4.203 -0.3261  0.0179  0.1969
14922SOL     OW46772   5.766   9.979  10.267  0.3653  0.0008 -0.3532
14922SOL    HW146773   5.840   9.990  10.207  0.8110  0.5604  0.2850
14922SOL    HW246774   5.768  10.057  10.323  1.1257 -1.3458  1.6141
14923SOL     OW46775   1.625   0.419   1.646  0.5807 -0.2249 -0.1161
14923SOL    HW146776   1.684   0.345   1.633 -0.5210 -0.8008 -2.2932
14923SOL    HW246777   1.680   0.496   1.633  1.6289 -0.6083  1.6797
14924SOL     OW46778  10.719  10.949   7.949 -0.3064 -0.1819  0.1634
14924SOL    HW146779  10.746  10.886   7.882  1.9779 -0.6197  1.3816
14924SOL    HW246780  10.670  10.898   8.013 -0.4922 -0.2369 -0.0219
14925SOL     OW46781   0.490   9.788   2.004 -0.3979 -0.1276  0.4508
14925SOL    HW146782   0.455   9.725   2.067  0.4123 -0.5532  0.4764
14925SOL    HW246783   0.475   9.748   1.918 -2.0843  0.7327  0.2946
14926SOL     OW46784  10.399   7.889   7.675 -0.2965  0.0133 -0.1886
14926SOL    HW146785  10.369   7.969   7.718  0.3743  0.5097 -0.6074
14926SOL    HW246786  10.320   7.851   7.637 -0.7546  0.0318  0.7225
14927SOL     OW46787   4.541   1.848   3.584 -0.0433  0.3908  0.1232
14927SOL    HW146788   4.540   1.769   3.636  1.6205 -0.6707 -1.3349
14927SOL    HW246789   4.507   1.916   3.642 -0.2857 -1.1231  1.8287
14928SOL     OW46790   4.539   0.873   0.466  0.6605  0.1321 -0.5716
14928SOL    HW146791   4.574   0.879   0.555  1.1585  0.8783 -0.8014
14928SOL    HW246792   4.530   0.964   0.438  1.3005 -0.0966 -1.5801
14929SOL     OW46793   0.382   2.311   2.957  0.2950  0.5455  0.3984
14929SOL    HW146794   0.389   2.216   2.956 -1.1136  0.4197 -0.0813
14929SOL    HW246795   0.415   2.337   3.043  0.0121 -0.4446  0.8162
14930SOL     OW46796   7.597   0.406   0.167 -0.4188 -0.0681 -0.0283
14930SOL    HW146797   7.502   0.394   0.172 -0.4521 -1.3448 -2.3670
14930SOL    HW246798   7.633   0.318   0.161  1.2462  0.2010  3.5213
14931SOL     OW46799   9.169   0.674   1.871 -0.6629 -0.4612 -0.3222
14931SOL    HW146800   9.100   0.712   1.925  0.3783  1.2709 -0.1289
14931SOL    HW246801   9.169   0.728   1.792 -0.3365 -1.2247 -0.8556
14932SOL     OW46802   3.041   5.422   4.139  0.4646  0.3809  0.8698
14932SOL    HW146803   3.010   5.414   4.049  1.5255 -1.8415  0.6357
14932SOL    HW246804   3.107   5.492   4.136  0.3365  0.4755 -0.0242
14933SOL     OW46805   1.980   9.690   0.826  0.5523  0.4672  0.0449
14933SOL    HW146806   1.939   9.772   0.855  0.9640  0.8334 -0.4031
14933SOL    HW246807   2.035   9.715   0.753 -0.3084 -0.4146 -0.9470
14934SOL     OW46808   8.679  10.744   7.508  0.5968 -1.0082 -0.7631
14934SOL    HW146809   8.607  10.776   7.562  1.7782 -2.3746  1.7711
14934SOL    HW246810   8.641  10.670   7.461 -0.8823  1.1239 -3.2339
14935SOL     OW46811  10.440   3.432   2.697 -0.5673 -0.0305  0.7375
14935SOL    HW146812  10.401   3.487   2.629  0.1114 -0.1056  0.2778
14935SOL    HW246813  10.402   3.464   2.779 -0.2689  1.0686  0.4704
14936SOL     OW46814   4.826   3.053   0.928 -0.6111  0.3273 -0.4115
14936SOL    HW146815   4.758   2.995   0.963  0.1273  0.0753  0.6530
14936SOL    HW246816   4.840   3.117   0.998  2.2157 -1.2771  0.6358
14937SOL     OW46817   4.672   8.715   2.607 -0.6077  0.2938 -0.2805
14937SOL    HW146818   4.750   8.680   2.563 -0.6884 -0.1574 -0.0678
14937SOL    HW246819   4.707   8.764   2.681 -0.3410  2.7294 -1.8920
14938SOL     OW46820  10.478   1.713   6.117  0.1508  0.6554  0.4719
14938SOL    HW146821  10.416   1.737   6.049  1.1877  1.1327 -0.3410
14938SOL    HW246822  10.532   1.644   6.077  1.2103  1.4115  0.5389
14939SOL     OW46823   9.513  11.094   7.282  0.2925 -0.2332  0.2111
14939SOL    HW146824   9.439  11.154   7.273 -0.0678 -0.9092 -2.0307
14939SOL    HW246825   9.474  11.014   7.318  0.3686  0.1317  1.1284
14940SOL     OW46826   4.845   2.670   0.537  0.2342 -0.0827  0.6094
14940SOL    HW146827   4.893   2.603   0.585 -0.1013 -0.0399  1.0231
14940SOL    HW246828   4.878   2.666   0.448 -0.5791 -1.5785  0.3410
14941SOL     OW46829   9.633   7.530   1.548 -0.7989  0.2334  0.9212
14941SOL    HW146830   9.588   7.580   1.480 -1.2046  0.1151  1.0996
14941SOL    HW246831   9.702   7.483   1.502 -2.1646 -1.2312  0.2958
14942SOL     OW46832   4.307  10.594   7.810  0.1237  0.0888  0.3470
14942SOL    HW146833   4.334  10.681   7.780  0.3176  0.0596  0.4387
14942SOL    HW246834   4.351  10.534   7.751 -0.7623  0.0746 -0.3223
14943SOL     OW46835   2.454   8.112   6.152  0.4161 -0.5296 -0.2079
14943SOL    HW146836   2.370   8.136   6.112 -0.4042 -0.6065  1.3903
14943SOL    HW246837   2.495   8.054   6.087  0.3385  1.3533 -2.0512
14944SOL     OW46838  10.647   2.253   8.540 -0.2463 -0.2212  0.2848
14944SOL    HW146839  10.683   2.326   8.490  1.2916 -0.2482  1.2833
14944SOL    HW246840  10.661   2.277   8.631  0.5155 -1.8277  0.6481
14945SOL     OW46841   7.257   6.369  10.394 -0.4231 -0.4981 -0.2080
14945SOL    HW146842   7.326   6.354  10.330 -0.5603 -0.2222 -0.4248
14945SOL    HW246843   7.220   6.282  10.410 -1.0650 -0.4393 -1.2792
14946SOL     OW46844   4.792   8.951   9.328  0.6095  0.2230 -0.2951
14946SOL    HW146845   4.852   8.985   9.395  0.2848 -1.3902  0.8609
14946SOL    HW246846   4.845   8.949   9.248  2.0444 -0.8500  0.6155
14947SOL     OW46847   1.871   7.785   5.233 -0.4054  0.1431  0.0177
14947SOL    HW146848   1.794   7.768   5.178  0.0269  0.5597 -0.7297
14947SOL    HW246849   1.933   7.716   5.211  0.1342  0.8423 -0.7295
14948SOL     OW46850   0.945   0.847   3.924 -0.1359  0.3038  0.5409
14948SOL    HW146851   0.951   0.926   3.870  0.6786  0.9783  1.5757
14948SOL    HW246852   1.032   0.839   3.964  0.5373 -2.3115 -1.1464
14949SOL     OW46853   1.940   1.872   0.748 -0.2069  0.1680 -0.0491
14949SOL    HW146854   1.899   1.879   0.834  0.0783 -2.1836  0.3322
14949SOL    HW246855   1.869   1.845   0.689  0.2939 -1.9291  0.2278
14950SOL     OW46856   8.460   2.354   6.435 -0.1624 -0.4611 -0.2178
14950SOL    HW146857   8.519   2.295   6.480  0.2888  0.5613  0.5821
14950SOL    HW246858   8.381   2.355   6.489  0.4326  0.8755  0.6830
14951SOL     OW46859   7.358   4.179   0.188  0.1180  0.1081  0.0722
14951SOL    HW146860   7.383   4.114   0.254  0.6365 -1.5385 -1.6445
14951SOL    HW246861   7.285   4.138   0.141  0.2080  0.9381 -0.8225
14952SOL     OW46862   7.222   4.546   1.368  0.0726  0.0665 -0.0576
14952SOL    HW146863   7.173   4.629   1.366 -2.1706 -1.0737  2.2393
14952SOL    HW246864   7.167   4.485   1.319 -0.1232 -0.8997  1.3236
14953SOL     OW46865   5.290   7.541   0.421 -0.0149 -0.0863 -0.0006
14953SOL    HW146866   5.386   7.547   0.416  0.1009 -1.0556  0.6242
14953SOL    HW246867   5.269   7.573   0.509 -0.6552  3.5395 -1.2877
14954SOL     OW46868   1.173   9.239  10.557 -0.0313  0.1512 -0.1012
14954SOL    HW146869   1.263   9.229  10.587  0.0707  1.0867 -0.0589
14954SOL    HW246870   1.153   9.331  10.573 -1.5828 -0.4198  1.5092
14955SOL     OW46871   3.243   0.861  10.294  0.4748 -0.4844 -0.5132
14955SOL    HW146872   3.298   0.931  10.258  0.1531 -0.9304 -1.9508
14955SOL    HW246873   3.184   0.838  10.223 -1.2341 -0.3880  0.8221
14956SOL     OW46874   3.780  10.727  10.947  0.1018  0.1877 -0.0071
14956SOL    HW146875   3.843  10.761  10.883 -0.4111  0.0102 -0.6203
14956SOL    HW246876   3.773  10.634  10.926 -0.9425  0.3538 -0.4635
14957SOL     OW46877   5.421   6.503  10.051 -1.0834 -0.3385 -0.4128
14957SOL    HW146878   5.425   6.414  10.018  2.3911 -0.6926  0.5535
14957SOL    HW246879   5.367   6.498  10.129 -1.9840 -1.2804 -1.0733
14958SOL     OW46880   5.543  10.868  10.569 -0.0294 -0.3932  0.0002
14958SOL    HW146881   5.635  10.885  10.552  0.0071 -0.9471 -0.3941
14958SOL    HW246882   5.543  10.802  10.639 -0.1411  0.1314  0.5011
14959SOL     OW46883   0.463   6.735   3.660 -0.5853 -0.4344 -0.1386
14959SOL    HW146884   0.461   6.643   3.632 -0.4456 -1.4069  2.6566
14959SOL    HW246885   0.556   6.754   3.670 -0.5947  0.2021 -1.2162
14960SOL     OW46886  10.856   1.926   3.163 -0.1122 -0.6673  0.6976
14960SOL    HW146887  10.804   1.991   3.210  0.1008  0.1701 -0.1971
14960SOL    HW246888  10.792   1.867   3.123 -0.4319  0.6389 -0.7976
14961SOL     OW46889  10.645   9.068   8.877  0.2890 -0.0695  0.3232
14961SOL    HW146890  10.693   9.051   8.958 -0.1135  0.3977  0.6739
14961SOL    HW246891  10.631   9.163   8.877 -0.0888 -0.1180 -0.0795
14962SOL     OW46892   5.811   0.178   8.929 -0.4360 -0.0260  0.4185
14962SOL    HW146893   5.728   0.215   8.900  0.1175  0.6293 -0.3640
14962SOL    HW246894   5.870   0.188   8.854  0.3199 -0.5940  0.9149
14963SOL     OW46895   7.108   9.041   2.370  0.2097 -0.2269  0.1049
14963SOL    HW146896   7.028   9.062   2.419 -0.5044  1.7485 -1.7266
14963SOL    HW246897   7.104   9.098   2.293  3.3579 -0.1209 -0.1058
14964SOL     OW46898  10.293   7.266   1.452 -0.3349 -0.6141 -0.3476
14964SOL    HW146899  10.356   7.317   1.401 -2.2668  0.8057 -1.4551
14964SOL    HW246900  10.272   7.322   1.527 -1.2889 -0.4328 -0.7337
14965SOL     OW46901   4.228   4.500  10.341  0.1738  0.5348 -0.1950
14965SOL    HW146902   4.229   4.531  10.432  1.2583  1.6700 -0.5679
14965SOL    HW246903   4.140   4.524  10.310 -0.0175  0.6277  0.3860
14966SOL     OW46904   4.215   2.753   3.453  0.1734 -0.2954  0.3041
14966SOL    HW146905   4.184   2.762   3.543 -0.5990  0.9238 -0.0542
14966SOL    HW246906   4.179   2.829   3.408  1.0697 -0.5504 -0.8960
14967SOL     OW46907   6.351   7.781   5.061  0.1066 -0.4600 -0.3401
14967SOL    HW146908   6.359   7.693   5.024 -0.2284 -0.2965 -0.8169
14967SOL    HW246909   6.401   7.837   5.000  3.6269 -0.7882  1.9312
14968SOL     OW46910  10.816   6.200   3.439  0.3915 -0.2897 -0.1621
14968SOL    HW146911  10.739   6.177   3.387 -0.1729  1.0091  0.0725
14968SOL    HW246912  10.889   6.159   3.392 -0.4628 -1.9563 -0.1199
14969SOL     OW46913   5.906   2.374   8.706 -0.0102  0.3130  0.1490
14969SOL    HW146914   5.942   2.370   8.618  2.2046  2.3206  0.8601
14969SOL    HW246915   5.894   2.467   8.723 -0.2313 -0.0152  2.0185
14970SOL     OW46916   0.912   5.733   1.132  0.1147 -0.0145 -0.1921
14970SOL    HW146917   0.963   5.687   1.198  1.2716  0.5402 -0.6614
14970SOL    HW246918   0.821   5.724   1.160  0.4585 -1.1404  0.6013
14971SOL     OW46919   6.682   6.579   6.506 -0.1191  0.5621 -0.0065
14971SOL    HW146920   6.704   6.552   6.417  0.2102 -0.6199  0.4078
14971SOL    HW246921   6.587   6.566   6.512 -0.1239  0.5269 -0.1567
14972SOL     OW46922   7.340  10.883   7.543  0.5534  0.4413 -0.1065
14972SOL    HW146923   7.309  10.931   7.619  0.3456  0.6628 -0.3318
14972SOL    HW246924   7.263  10.836   7.511  0.9080 -0.6324  0.5421
14973SOL     OW46925   3.228   1.745   9.688 -0.0979  0.0077  0.3175
14973SOL    HW146926   3.276   1.818   9.648  2.3894 -1.7983 -0.2012
14973SOL    HW246927   3.174   1.710   9.617 -1.3335  1.2882  0.5770
14974SOL     OW46928   6.302   2.372   0.027 -0.2849 -0.0380 -0.0972
14974SOL    HW146929   6.304   2.299  -0.035  0.5923  1.5408 -2.0341
14974SOL    HW246930   6.302   2.451  -0.028 -0.4487  1.4486  1.9146
14975SOL     OW46931   5.795  10.275  10.416 -0.5196 -0.0060 -0.4564
14975SOL    HW146932   5.791  10.320  10.500 -0.7409  0.2800 -0.6140
14975SOL    HW246933   5.886  10.248  10.406 -0.1122  1.4300 -0.8781
14976SOL     OW46934   9.679   4.064   3.424  0.3574 -0.2261  0.0882
14976SOL    HW146935   9.747   4.119   3.385 -1.3635  1.5799 -0.5232
14976SOL    HW246936   9.663   3.996   3.359  2.4352 -1.4834  0.8056
14977SOL     OW46937   6.445   6.749   0.826 -0.0088  0.3125 -0.6284
14977SOL    HW146938   6.482   6.832   0.857 -0.4214 -0.0369  0.8300
14977SOL    HW246939   6.514   6.712   0.771  0.5992  1.1135 -0.4345
14978SOL     OW46940   0.569   2.889   4.269  0.1321 -0.0081 -0.4500
14978SOL    HW146941   0.515   2.948   4.322  0.3470 -0.2054 -0.0042
14978SOL    HW246942   0.655   2.931   4.266 -0.3322  0.8946 -2.1417
14979SOL     OW46943   9.164   0.336   9.517  0.1808  0.4336  0.2901
14979SOL    HW146944   9.136   0.378   9.435 -0.9656  2.5514  1.6384
14979SOL    HW246945   9.242   0.287   9.494 -0.9270 -0.2760 -2.3569
14980SOL     OW46946   5.670   3.075  10.705 -0.1230  0.4109  0.2570
14980SOL    HW146947   5.670   3.002  10.643  1.7947 -0.4188  1.1777
14980SOL    HW246948   5.668   3.034  10.791  1.4339  1.4068  0.8052
14981SOL     OW46949   3.170   4.778  10.566  0.1298 -0.5078  0.0830
14981SOL    HW146950   3.253   4.734  10.585 -0.7553 -3.1461 -1.7244
14981SOL    HW246951   3.174   4.798  10.473  0.2284  2.9615  0.6815
14982SOL     OW46952   5.143   3.311   7.462  0.9829  0.1496  0.1626
14982SOL    HW146953   5.191   3.290   7.542  0.0649 -0.1930  0.6431
14982SOL    HW246954   5.192   3.382   7.422  2.0362 -0.3776  0.4860
14983SOL     OW46955   2.920   5.695  10.397  0.3264  0.0221  0.2020
14983SOL    HW146956   2.835   5.695  10.441 -1.3589 -1.1239 -2.7190
14983SOL    HW246957   2.964   5.617  10.428  0.2397  0.4990  1.5765
14984SOL     OW46958   2.643   9.053   4.556  0.7082  0.2690 -0.4174
14984SOL    HW146959   2.681   9.084   4.638 -0.1334  1.1933 -0.3643
14984SOL    HW246960   2.564   9.006   4.582  1.1389 -0.5965 -0.6186
14985SOL     OW46961   6.167   5.564   9.183 -0.3770  0.2056  0.5302
14985SOL    HW146962   6.100   5.498   9.201  0.4632 -0.9274 -0.3683
14985SOL    HW246963   6.241   5.538   9.237  0.3002 -0.1760 -0.5501
14986SOL     OW46964   1.506  10.488   3.208 -0.0080  0.1144 -0.5047
14986SOL    HW146965   1.499  10.438   3.289 -1.1122 -2.0203 -1.8166
14986SOL    HW246966   1.600  10.507   3.199  0.1042  0.6109  1.3443
14987SOL     OW46967   6.328   2.607   7.323 -0.6211  0.1206  0.0334
14987SOL    HW146968   6.421   2.585   7.317 -0.1625  2.2105 -1.8027
14987SOL    HW246969   6.304   2.584   7.412  1.3231 -1.6322  0.1815
14988SOL     OW46970   7.828   2.703   1.264 -0.2497 -0.4983  0.1475
14988SOL    HW146971   7.875   2.620   1.256  1.2086  0.3398 -0.2467
14988SOL    HW246972   7.772   2.691   1.341  1.0871 -1.3074  1.0347
14989SOL     OW46973   6.093   9.846   2.293 -0.4658 -0.0890 -0.0841
14989SOL    HW146974   6.076   9.756   2.266 -1.8614  0.2889 -0.5207
14989SOL    HW246975   6.125   9.889   2.213  1.3486 -0.4504  0.3985
14990SOL     OW46976   2.215   3.715   6.073 -0.1197 -0.0300 -0.2372
14990SOL    HW146977   2.289   3.746   6.125 -1.3240  0.5562  1.2033
14990SOL    HW246978   2.140   3.763   6.107 -1.4295 -1.7282 -0.6022
14991SOL     OW46979   7.685  10.883  10.874  0.0431  0.6365 -0.4765
14991SOL    HW146980   7.739  10.858  10.798  0.8325 -1.2639  0.6437
14991SOL    HW246981   7.611  10.930  10.836  0.6041  0.0763 -2.3909
14992SOL     OW46982  10.557   2.302   4.373 -0.0955 -0.1791  0.1117
14992SOL    HW146983  10.560   2.246   4.295 -1.7620  1.1978 -1.0259
14992SOL    HW246984  10.592   2.247   4.443 -0.5331 -2.2268 -1.1687
14993SOL     OW46985  10.044   0.606   3.127  0.2889 -0.6646 -0.4647
14993SOL    HW146986  10.085   0.575   3.047  1.6372  1.6688 -0.7652
14993SOL    HW246987  10.009   0.693   3.105  0.1343 -0.2372  1.2838
14994SOL     OW46988   3.785   9.336   3.332  0.3795 -0.0089 -0.4562
14994SOL    HW146989   3.780   9.253   3.379  0.0203 -0.1550 -0.7533
14994SOL    HW246990   3.741   9.320   3.249 -0.9324  0.8774  0.0381
14995SOL     OW46991   7.967   3.703   0.951 -0.2531  0.4139 -0.0445
14995SOL    HW146992   7.879   3.733   0.976 -0.1300  0.6512  0.1077
14995SOL    HW246993   8.021   3.781   0.955  0.1320  0.1213  0.6355
14996SOL     OW46994   6.445   1.557  10.736 -0.2024  0.4216 -0.2530
14996SOL    HW146995   6.409   1.645  10.739 -1.2794 -0.0228  1.5888
14996SOL    HW246996   6.532   1.568  10.698 -0.9934  1.9906 -1.7201
14997SOL     OW46997   4.204  10.924   8.809  0.3133 -0.3993 -0.0213
14997SOL    HW146998   4.210  11.020   8.807 -0.7138 -0.2914  0.9822
14997SOL    HW246999   4.173  10.904   8.897  0.4290 -1.6603 -0.2517
14998SOL     OW47000  10.786   7.930   2.246 -0.0084  0.2123  0.2019
14998SOL    HW147001  10.832   7.888   2.174 -0.6711  0.1231 -0.1745
14998SOL    HW247002  10.854   7.945   2.312  0.8947  1.5712 -0.9799
14999SOL     OW47003  10.910  10.209   4.135  0.0385  0.0029  0.0245
14999SOL    HW147004  10.965  10.150   4.185  0.0544 -0.1241 -0.1428
14999SOL    HW247005  10.822  10.197   4.172  0.1486  0.3281  0.4041
15000SOL     OW47006   5.760   9.177   3.828  0.0346 -0.3605  0.0183
15000SOL    HW147007   5.761   9.255   3.773  0.6923 -0.0476  0.4535
15000SOL    HW247008   5.747   9.210   3.917 -0.2017 -0.7895  0.1481
15001SOL     OW47009   3.348   2.482   5.845 -0.3940 -0.2720 -0.3010
15001SOL    HW147010   3.441   2.487   5.865 -0.0838 -0.5300 -1.5785
15001SOL    HW247011   3.344   2.433   5.763 -1.3291  3.2290 -2.5744
15002SOL     OW47012   3.662   2.690   0.224  0.0766  0.0764 -0.1200
15002SOL    HW147013   3.690   2.774   0.261 -0.5022  0.7317 -1.1073
15002SOL    HW247014   3.686   2.695   0.132 -1.5284 -0.1120 -0.5752
15003SOL     OW47015   0.517   9.718  10.754 -0.4863  0.2430  0.4049
15003SOL    HW147016   0.453   9.756  10.694 -0.5894  2.4699  1.8043
15003SOL    HW247017   0.574   9.665  10.698 -0.7895  1.9098 -1.6060
15004SOL     OW47018  11.049   2.052   2.602 -0.4462 -0.0036 -0.3004
15004SOL    HW147019  11.105   2.113   2.650 -1.0538 -0.1686  0.6656
15004SOL    HW247020  10.985   2.023   2.668  0.0588 -1.9594 -0.6300
15005SOL     OW47021   5.639   6.226   9.199  0.1445  0.0535  0.4264
15005SOL    HW147022   5.727   6.189   9.188  1.1266  2.4122 -0.3904
15005SOL    HW247023   5.642   6.308   9.149 -2.4099  0.4016  0.7375
15006SOL     OW47024   0.139   0.349   2.035  0.2284 -0.0014 -0.1612
15006SOL    HW147025   0.150   0.286   1.963  0.8205 -0.0813 -0.0008
15006SOL    HW247026   0.046   0.341   2.058  0.2938 -0.8267 -0.1351
15007SOL     OW47027   9.376   6.529  10.435 -0.3190  0.1321  0.0279
15007SOL    HW147028   9.425   6.608  10.458 -0.8242 -0.0728  1.9898
15007SOL    HW247029   9.386   6.472  10.512 -2.3656 -0.5139 -0.1387
15008SOL     OW47030   0.887   8.716   5.748 -0.5191 -0.3179  0.3194
15008SOL    HW147031   0.859   8.624   5.740  0.9338 -0.6263 -2.2333
15008SOL    HW247032   0.809   8.767   5.727 -1.3968 -0.9088  1.9531
15009SOL     OW47033   0.685  10.479   2.608  0.4703 -0.7791  0.0439
15009SOL    HW147034   0.714  10.401   2.654 -1.3835 -1.7315 -0.3028
15009SOL    HW247035   0.618  10.517   2.665  0.7878  0.1065 -0.1631
15010SOL     OW47036   1.859  10.751   2.485  0.5798  0.8014 -0.1698
15010SOL    HW147037   1.766  10.738   2.467  0.2936  0.8888  1.1047
15010SOL    HW247038   1.862  10.829   2.541  1.4443  0.9281 -0.3720
15011SOL     OW47039   3.694  10.924   1.744 -0.2067  0.2961 -0.1228
15011SOL    HW147040   3.670  10.954   1.656 -1.4102 -0.7393 -0.1774
15011SOL    HW247041   3.667  10.995   1.802 -0.1520  0.6384 -0.5110
15012SOL     OW47042   4.555   4.257   3.032  0.5876  0.0843 -0.4108
15012SOL    HW147043   4.571   4.163   3.026 -0.6175 -0.2245  0.7503
15012SOL    HW247044   4.465   4.268   3.002  0.1086  0.6030  1.1146
15013SOL     OW47045   6.975   0.233   7.006 -0.1548  0.4506  0.3552
15013SOL    HW147046   6.910   0.211   6.939 -0.3933 -0.1409  0.7648
15013SOL    HW247047   7.031   0.156   7.010 -0.4018  0.3023  1.1295
15014SOL     OW47048   4.425   0.193   2.509 -0.4666  0.3104  0.2026
15014SOL    HW147049   4.348   0.202   2.566 -0.1441 -1.9067  1.0997
15014SOL    HW247050   4.422   0.102   2.479  0.8579  0.6811 -1.1983
15015SOL     OW47051   4.730  10.553   5.004 -0.2541  0.3179 -0.0141
15015SOL    HW147052   4.762  10.569   4.915 -0.6845  0.0382 -0.2168
15015SOL    HW247053   4.635  10.552   4.996 -0.2948  0.2944  0.4531
15016SOL     OW47054  10.975   5.613   1.764  0.6726  0.1586 -0.8849
15016SOL    HW147055  10.883   5.622   1.789  0.5755 -1.3874 -0.5760
15016SOL    HW247056  11.024   5.653   1.836  0.2567  0.1235 -0.5816
15017SOL     OW47057   5.586   8.938   3.118 -0.3281 -0.8097 -0.2451
15017SOL    HW147058   5.678   8.962   3.116 -0.7446  0.8975 -0.5928
15017SOL    HW247059   5.548   8.979   3.040 -0.9468 -3.6207 -1.5816
15018SOL     OW47060   5.898   0.151   5.345  0.3262  0.4261 -0.6368
15018SOL    HW147061   5.830   0.087   5.322 -0.2087  0.1269  1.5098
15018SOL    HW247062   5.900   0.211   5.271 -2.2098  0.3504 -0.8798
15019SOL     OW47063   7.451   4.293   8.703  0.7660  0.5168  0.3238
15019SOL    HW147064   7.395   4.338   8.639 -0.0733  0.5869  1.0953
15019SOL    HW247065   7.529   4.270   8.653  0.0202  0.3374 -0.8048
15020SOL     OW47066   2.780   0.584   4.956 -0.1151  0.1727 -0.1980
15020SOL    HW147067   2.698   0.574   4.908 -0.8692  1.4479  0.7810
15020SOL    HW247068   2.834   0.510   4.927 -1.8954 -1.1571 -0.2485
15021SOL     OW47069   6.600   3.274   0.319 -0.5615  0.0590  0.1170
15021SOL    HW147070   6.625   3.245   0.407  1.7027 -1.7976 -1.0190
15021SOL    HW247071   6.544   3.203   0.286  1.4651 -1.0521 -1.1280
15022SOL     OW47072   1.528   2.014   0.995  0.4716 -0.3883 -0.3975
15022SOL    HW147073   1.539   1.982   1.084  0.8577 -0.1536 -0.3605
15022SOL    HW247074   1.498   1.937   0.946  2.6354 -1.1735 -0.5934
15023SOL     OW47075   2.591   8.522   0.106 -0.4239 -0.7231  0.2865
15023SOL    HW147076   2.665   8.499   0.163 -0.0074  1.2911  0.6284
15023SOL    HW247077   2.620   8.500   0.018 -0.3478 -2.1125  0.6338
15024SOL     OW47078   9.231  10.270   6.776 -0.3611 -0.1791  0.1309
15024SOL    HW147079   9.164  10.286   6.843 -0.5278 -0.2121 -0.0272
15024SOL    HW247080   9.278  10.193   6.807  1.6779  1.6274  1.8727
15025SOL     OW47081   6.401   8.663   6.182  0.1331  0.4958 -0.2177
15025SOL    HW147082   6.428   8.731   6.244 -0.7641  0.3556  0.3567
15025SOL    HW247083   6.318   8.695   6.147 -1.0505 -0.9189  1.1348
15026SOL     OW47084   5.958   1.157   4.142 -0.0706  0.4923  0.3708
15026SOL    HW147085   5.931   1.176   4.232 -0.7486 -0.8179  0.4731
15026SOL    HW247086   5.899   1.087   4.114  0.9925 -0.0335 -0.6406
15027SOL     OW47087   0.391   1.259   8.542 -0.4578 -0.6739 -0.1727
15027SOL    HW147088   0.365   1.201   8.471  1.4259 -1.2527 -0.4451
15027SOL    HW247089   0.418   1.340   8.498 -1.1827 -0.3055  0.0501
15028SOL     OW47090   6.244   2.651   1.311  0.1466  0.1897  0.2831
15028SOL    HW147091   6.161   2.699   1.312 -0.3523 -0.5450  2.8592
15028SOL    HW247092   6.220   2.562   1.284  0.1372  0.0679  0.6818
15029SOL     OW47093   1.784   8.039   0.493 -0.2817  0.5436 -0.1689
15029SOL    HW147094   1.727   8.018   0.419 -0.2568 -0.1410 -0.0001
15029SOL    HW247095   1.725   8.071   0.561 -0.1407  2.7614 -1.0311
15030SOL     OW47096   5.508  10.835   4.625  0.1015  0.2379 -0.1791
15030SOL    HW147097   5.437  10.855   4.686  0.3564 -0.0020  0.1992
15030SOL    HW247098   5.487  10.749   4.591  0.4019  0.0088  0.2111
15031SOL     OW47099   3.182   9.866   6.947 -0.4586 -0.0287 -0.5324
15031SOL    HW147100   3.248   9.897   7.009 -1.5717  1.3729  0.0087
15031SOL    HW247101   3.163   9.776   6.974  0.3611 -0.0370  0.0428
15032SOL     OW47102   2.518   7.540   4.151 -0.1271 -0.3946  0.3241
15032SOL    HW147103   2.510   7.448   4.179  0.3095 -0.6692 -0.4155
15032SOL    HW247104   2.521   7.535   4.056  2.1761  0.1744  0.2932
15033SOL     OW47105   7.947  11.053   1.493  0.1397 -0.5740 -0.5635
15033SOL    HW147106   8.001  11.052   1.571 -1.1523  0.6345  0.4017
15033SOL    HW247107   7.893  10.974   1.499  0.8788 -1.1061 -0.8655
15034SOL     OW47108  10.781   4.313   9.641 -0.3476 -0.1741  0.3352
15034SOL    HW147109  10.819   4.249   9.580 -0.2336  0.9866 -0.8614
15034SOL    HW247110  10.810   4.398   9.607 -0.9722  0.5505  1.5592
15035SOL     OW47111   0.055   9.793   4.870  0.0472  0.4245 -0.6126
15035SOL    HW147112   0.043   9.747   4.953  1.2571  0.6774 -0.2807
15035SOL    HW247113  -0.023   9.772   4.819 -0.3471 -0.3596  0.2956
15036SOL     OW47114   6.698   5.491   3.409  0.0258  0.1428 -0.0060
15036SOL    HW147115   6.762   5.443   3.357  0.4988  0.6462  0.1049
15036SOL    HW247116   6.746   5.518   3.487 -0.2681  0.6805 -0.0063
15037SOL     OW47117   6.105  10.298   3.107 -0.4376  0.7158  0.4912
15037SOL    HW147118   6.104  10.204   3.124  1.2323  0.7444  0.8438
15037SOL    HW247119   6.112  10.338   3.194  1.2847  1.0665  0.2298
15038SOL     OW47120   5.113   0.029  10.534 -0.0254  0.5136 -0.4925
15038SOL    HW147121   5.123  -0.053  10.582  1.3447  1.4247  0.8416
15038SOL    HW247122   5.022   0.054  10.548  0.1601  0.4032  1.0843
15039SOL     OW47123   6.474   0.856   5.090 -0.0140  0.0472 -0.2583
15039SOL    HW147124   6.418   0.782   5.114 -0.7832  0.5107 -0.5861
15039SOL    HW247125   6.511   0.833   5.005 -1.7255  0.8117 -1.2654
15040SOL     OW47126   6.515   5.145   4.818 -0.4153  0.0656  0.0771
15040SOL    HW147127   6.521   5.100   4.902 -0.3199  0.2265  0.1579
15040SOL    HW247128   6.480   5.080   4.757 -0.3352 -0.0976  0.2069
15041SOL     OW47129   3.284   1.939   4.486  0.1678 -0.5292  0.0091
15041SOL    HW147130   3.370   1.925   4.525 -0.0265 -2.9072 -0.2996
15041SOL    HW247131   3.222   1.923   4.557 -0.0718 -0.8006 -0.2581
15042SOL     OW47132   2.753   8.386   3.117 -0.4161 -0.1037 -0.8261
15042SOL    HW147133   2.699   8.307   3.124  1.9427 -1.8513 -0.9731
15042SOL    HW247134   2.780   8.404   3.207 -1.8559  1.2890 -0.6316
15043SOL     OW47135   8.246   7.904   9.520  0.0495 -0.8687 -0.8462
15043SOL    HW147136   8.273   7.822   9.478  0.1277 -1.1684 -0.2321
15043SOL    HW247137   8.289   7.901   9.606 -1.8416 -1.3002  0.1292
15044SOL     OW47138   0.596   3.603   9.601 -0.3942  0.1188  0.0277
15044SOL    HW147139   0.603   3.508   9.612 -1.1098  0.1427  0.8114
15044SOL    HW247140   0.549   3.632   9.679 -1.5012  0.9335 -0.9221
15045SOL     OW47141   1.892   0.504   3.049  0.3654  0.3262 -0.0029
15045SOL    HW147142   1.903   0.577   2.988  0.2328  0.3473 -0.0012
15045SOL    HW247143   1.891   0.545   3.136  0.8997  0.2622  0.0351
15046SOL     OW47144   2.684   3.285   9.087 -0.0562  0.2418  0.0849
15046SOL    HW147145   2.729   3.316   9.165 -0.4446  2.4651 -0.4874
15046SOL    HW247146   2.612   3.347   9.075 -1.5877 -1.5673 -0.6042
15047SOL     OW47147   6.743   3.249   8.628 -0.4737 -0.0966  0.1677
15047SOL    HW147148   6.679   3.205   8.572 -1.2597  0.1249  0.8754
15047SOL    HW247149   6.717   3.226   8.717  0.1130  0.4360  0.4840
15048SOL     OW47150   3.038   3.369   0.651 -0.1720 -0.6575  0.2830
15048SOL    HW147151   3.083   3.446   0.686 -1.8258 -0.1236  1.3439
15048SOL    HW247152   3.027   3.389   0.558  0.8420 -0.3583  0.2103
15049SOL     OW47153   6.809   3.462   2.414 -0.1304  0.0176 -0.4721
15049SOL    HW147154   6.827   3.368   2.421 -0.5722  0.0327  1.3849
15049SOL    HW247155   6.840   3.499   2.497 -0.9289  1.3464 -0.7278
15050SOL     OW47156   0.046   1.538   0.813  0.2430  0.1221 -0.0967
15050SOL    HW147157   0.072   1.480   0.885  2.1593 -0.4808 -1.2037
15050SOL    HW247158   0.015   1.479   0.745  0.1334  0.5582 -0.4288
15051SOL     OW47159   1.828   3.053   4.298 -0.0990 -0.2967  0.6588
15051SOL    HW147160   1.890   3.007   4.356  0.1322 -3.2393 -1.6336
15051SOL    HW247161   1.751   2.996   4.296 -1.9731  2.0746  1.5415
15052SOL     OW47162   1.833   6.492   6.287  0.5608  0.2530  0.1374
15052SOL    HW147163   1.763   6.449   6.336  0.4452  1.2257  0.8486
15052SOL    HW247164   1.788   6.552   6.227  0.7736  0.7163  0.4359
15053SOL     OW47165   9.483   8.901   7.394  0.2413 -0.3679 -0.5107
15053SOL    HW147166   9.473   8.987   7.353 -0.4750  0.0451  0.4888
15053SOL    HW247167   9.394   8.867   7.399  0.4015 -0.7239  0.0152
15054SOL     OW47168   2.071   6.030   9.198  0.5235  0.3294  0.3811
15054SOL    HW147169   2.042   6.059   9.285  2.8721  1.5433  0.8444
15054SOL    HW247170   2.142   5.969   9.216 -1.2982 -2.3158 -0.7056
15055SOL     OW47171   3.578   0.429  10.936 -0.0039  0.7714 -0.3406
15055SOL    HW147172   3.542   0.343  10.957 -0.5148  0.2923 -2.8721
15055SOL    HW247173   3.638   0.413  10.864  0.5432  2.4473 -0.3007
15056SOL     OW47174   6.657   0.442   5.682 -0.7264 -0.4738 -0.3713
15056SOL    HW147175   6.620   0.440   5.594 -1.8692  0.8877  0.0396
15056SOL    HW247176   6.644   0.352   5.715 -0.1019 -1.0481 -1.6334
15057SOL     OW47177  10.415   0.530   2.689  0.7489  0.1469  0.2715
15057SOL    HW147178  10.480   0.487   2.633  0.7695  0.0406  0.3768
15057SOL    HW247179  10.422   0.484   2.773 -0.5916 -0.9516 -0.1884
15058SOL     OW47180  11.041   7.069   2.233 -0.3506  0.2643 -0.7722
15058SOL    HW147181  11.122   7.119   2.223  0.2407 -0.5647 -0.2639
15058SOL    HW247182  10.994   7.113   2.303  0.1912  0.0888 -0.2919
15059SOL     OW47183   5.644   3.035   1.584 -0.0033 -0.2035  0.7806
15059SOL    HW147184   5.564   3.087   1.594  0.5830  1.0507 -0.6001
15059SOL    HW247185   5.715   3.098   1.595  0.7294 -0.6490 -1.0516
15060SOL     OW47186   4.485   5.901   8.383  0.5910 -0.2325 -0.0616
15060SOL    HW147187   4.568   5.941   8.409 -0.5717  1.2597  1.6316
15060SOL    HW247188   4.428   5.914   8.459 -1.1698 -1.3220 -1.1270
15061SOL     OW47189   4.233   3.598   2.485 -0.6538 -0.1258 -0.2287
15061SOL    HW147190   4.239   3.571   2.394  0.4217  3.6675 -1.4809
15061SOL    HW247191   4.167   3.668   2.485  0.5047  1.0533  1.5649
15062SOL     OW47192   4.957   7.893   7.824  0.5855 -0.2491 -0.0935
15062SOL    HW147193   4.865   7.874   7.842 -0.2319  1.3000 -2.2104
15062SOL    HW247194   4.961   7.903   7.729  2.6654  1.0656  0.0785
15063SOL     OW47195   1.336  10.126   2.402 -0.0656 -0.2451  0.0112
15063SOL    HW147196   1.369  10.212   2.377 -0.4706 -0.6012 -1.8596
15063SOL    HW247197   1.315  10.083   2.320  0.1435 -2.1602  0.8992
15064SOL     OW47198   2.748   7.952   6.242 -0.5012  0.7100  0.1455
15064SOL    HW147199   2.793   8.005   6.177 -0.9151 -2.5864 -3.1832
15064SOL    HW247200   2.659   7.942   6.208 -1.3407  0.4331  2.2745
15065SOL     OW47201   6.064   7.839   9.739 -0.1246 -0.0026 -0.2477
15065SOL    HW147202   6.068   7.822   9.645 -0.6442  0.8267 -0.4333
15065SOL    HW247203   5.992   7.902   9.748  0.6716  0.8039  0.5654
15066SOL     OW47204   6.124  10.877   1.075 -0.1812 -0.2920  0.1606
15066SOL    HW147205   6.215  10.884   1.047 -0.5459  2.0463 -0.6549
15066SOL    HW247206   6.076  10.853   0.995 -0.6225  1.6517 -0.2159
15067SOL     OW47207   9.730   1.462   3.583 -0.1140  0.9062  0.2064
15067SOL    HW147208   9.740   1.414   3.501 -3.3588  0.2653  0.0524
15067SOL    HW247209   9.687   1.401   3.642 -1.5635  2.5969  1.0040
15068SOL     OW47210   4.066   1.932   8.729 -0.6076  0.7921  0.9007
15068SOL    HW147211   4.069   1.930   8.633 -0.2031 -0.4549  0.9243
15068SOL    HW247212   4.017   2.012   8.749  2.9947  3.5589 -0.2386
15069SOL     OW47213   4.231   9.461   0.641  0.2772  0.0558  0.3154
15069SOL    HW147214   4.208   9.527   0.576  2.7347  1.1650  0.4899
15069SOL    HW247215   4.284   9.507   0.705 -0.3552 -1.4877  2.0303
15070SOL     OW47216   5.537   9.073   3.742  0.3729  0.0795 -0.0142
15070SOL    HW147217   5.618   9.104   3.783  1.0154 -1.5083  0.0028
15070SOL    HW247218   5.558   9.070   3.648 -0.4016  1.7051 -0.2646
15071SOL     OW47219   3.487   7.777   8.978  0.3872  0.1058 -0.2753
15071SOL    HW147220   3.542   7.701   8.961  0.4340  0.4944 -2.0885
15071SOL    HW247221   3.424   7.778   8.906 -1.0347  0.5505  0.9056
15072SOL     OW47222   9.694   7.259   4.915  0.1440 -0.5517  0.4160
15072SOL    HW147223   9.707   7.277   5.008  0.8534  2.2119 -0.1308
15072SOL    HW247224   9.601   7.239   4.908 -0.3708  1.1849  1.5078
15073SOL     OW47225   4.790  10.688   7.669  0.5861  0.0136  0.3319
15073SOL    HW147226   4.864  10.706   7.612 -1.3708 -0.9635 -2.7379
15073SOL    HW247227   4.715  10.728   7.625 -0.9341  0.0800  2.7722
15074SOL     OW47228   6.314   6.988  10.004 -0.0030 -0.1338 -0.4136
15074SOL    HW147229   6.264   6.976   9.924  0.4893 -0.4720 -0.6771
15074SOL    HW247230   6.305   6.905  10.051  0.6256 -0.3390 -0.6464
15075SOL     OW47231   6.751   0.983   4.801  0.0363 -0.6451  0.6077
15075SOL    HW147232   6.773   0.966   4.893 -0.5487 -0.9281  0.6954
15075SOL    HW247233   6.656   0.990   4.800  0.0149 -0.9714 -0.0343
15076SOL     OW47234  10.546   9.848   2.054  0.0024 -0.2988  0.2787
15076SOL    HW147235  10.525   9.927   2.103 -2.1545 -0.1805 -0.7097
15076SOL    HW247236  10.513   9.776   2.109 -1.1222 -0.2530 -0.2973
15077SOL     OW47237   0.286   4.024   7.485  0.1372  0.1301 -0.2490
15077SOL    HW147238   0.289   3.928   7.478 -0.1861 -0.1217  2.2120
15077SOL    HW247239   0.355   4.054   7.426  1.0674 -1.7041 -0.1703
15078SOL     OW47240  10.324  10.494   9.599 -0.7526  0.1648 -0.4459
15078SOL    HW147241  10.349  10.403   9.614  2.6779  0.7680 -1.5547
15078SOL    HW247242  10.269  10.516   9.674  0.7756 -2.0068  1.4804
15079SOL     OW47243   2.098   5.299   0.634 -0.6329  0.0910  0.1253
15079SOL    HW147244   2.047   5.369   0.594 -0.8981 -0.0143  0.2747
15079SOL    HW247245   2.153   5.343   0.699  0.4131  0.3749 -0.9115
15080SOL     OW47246   4.359   5.918   2.503  0.5386 -0.5199  0.1697
15080SOL    HW147247   4.327   5.828   2.513 -0.8504 -0.0202  0.4559
15080SOL    HW247248   4.284   5.973   2.524  1.6514  0.7431  1.0979
15081SOL     OW47249   0.926   7.826   2.059 -0.0920  0.8877  0.4471
15081SOL    HW147250   0.863   7.822   2.131 -1.1340 -2.6278 -0.4394
15081SOL    HW247251   1.006   7.790   2.096  0.0024  1.0481  0.3960
15082SOL     OW47252   0.613   6.072   1.888  0.5365 -0.3638  0.2794
15082SOL    HW147253   0.597   6.051   1.796 -1.0090  0.5759  0.3047
15082SOL    HW247254   0.704   6.047   1.902  0.9841 -0.0115 -1.6551
15083SOL     OW47255   6.483  11.009   6.789 -0.1811  0.1347  0.1275
15083SOL    HW147256   6.528  11.038   6.869 -0.3912  0.5889  0.0832
15083SOL    HW247257   6.390  11.015   6.811 -0.2354 -0.7987  0.2174
15084SOL     OW47258   2.795   3.598   3.072 -0.8495  0.8151 -0.4225
15084SOL    HW147259   2.781   3.578   3.164 -1.0067 -1.3667 -0.8689
15084SOL    HW247260   2.707   3.597   3.034 -0.7720  1.5538 -0.6265
15085SOL     OW47261   3.477   2.338   4.316  0.0925 -0.1548  0.2498
15085SOL    HW147262   3.556   2.342   4.261  0.5195  0.8039  0.9161
15085SOL    HW247263   3.435   2.256   4.290  0.0745  0.4463 -1.7878
15086SOL     OW47264  10.317  10.574   3.480 -0.3944 -0.1392 -0.4964
15086SOL    HW147265  10.274  10.497   3.443 -0.3051 -1.1537  1.4071
15086SOL    HW247266  10.303  10.643   3.415 -1.0987 -1.5632 -1.9105
15087SOL     OW47267   8.990   8.502   3.032 -0.2216  0.0504  0.1222
15087SOL    HW147268   8.914   8.538   3.080  0.5546  0.2182  1.2753
15087SOL    HW247269   8.956   8.422   2.991 -1.0458  0.1494  0.5756
15088SOL     OW47270   7.593   3.380   3.461 -0.0415 -0.3189 -0.1725
15088SOL    HW147271   7.672   3.337   3.493  0.4149  0.6431  0.0220
15088SOL    HW247272   7.549   3.312   3.409  2.7377  0.0845 -3.3905
15089SOL     OW47273   6.150   2.114   1.401 -0.0600 -0.4609  0.0310
15089SOL    HW147274   6.207   2.170   1.349  1.6908 -2.8252 -0.7573
15089SOL    HW247275   6.067   2.113   1.353  0.7464 -0.6392 -1.4042
15090SOL     OW47276   3.440   9.276   7.465 -0.1807  0.0437  0.6553
15090SOL    HW147277   3.356   9.248   7.501  0.0504  0.7187  1.7652
15090SOL    HW247278   3.483   9.194   7.439 -1.8740 -0.2242 -1.6399
15091SOL     OW47279   1.262  10.813   3.915 -0.4193  0.3798 -0.4846
15091SOL    HW147280   1.284  10.858   3.996  0.9050  0.0232 -0.6187
15091SOL    HW247281   1.270  10.880   3.847  2.0956 -0.0924 -0.7575
15092SOL     OW47282   3.820   8.768  10.513  0.0745 -0.2505 -0.4876
15092SOL    HW147283   3.756   8.839  10.502  1.1651  1.0128  1.0091
15092SOL    HW247284   3.767   8.692  10.539 -0.9203  0.4807 -0.3197
15093SOL     OW47285   1.912   0.415   2.495 -0.2081 -0.8461 -0.5633
15093SOL    HW147286   1.853   0.490   2.489 -0.4502 -0.9678  0.1998
15093SOL    HW247287   1.999   0.452   2.478 -0.1011 -0.0497  1.4182
15094SOL     OW47288  10.655   7.846   9.695  0.1603  0.0277 -0.4567
15094SOL    HW147289  10.667   7.936   9.665  1.3884  0.2130  0.4815
15094SOL    HW247290  10.650   7.853   9.790 -0.2214 -0.8535 -0.3997
15095SOL     OW47291   7.572   0.359   3.767  0.5432 -0.3505  1.1924
15095SOL    HW147292   7.550   0.318   3.683  0.8601 -1.0621  1.4481
15095SOL    HW247293   7.600   0.448   3.743 -1.4184  0.1928  0.7636
15096SOL     OW47294   1.396   9.127   0.086 -0.0443  0.5037 -0.5654
15096SOL    HW147295   1.474   9.163   0.043 -0.2245  1.3834 -0.1872
15096SOL    HW247296   1.325   9.141   0.023 -0.2399  1.4620 -0.1608
15097SOL     OW47297   5.132   2.293   4.988  0.3197  0.6352 -0.2046
15097SOL    HW147298   5.181   2.367   4.953  2.6801 -1.0370 -0.7069
15097SOL    HW247299   5.192   2.253   5.052 -1.3724 -0.1351  0.9889
15098SOL     OW47300   2.695   0.947   5.211  0.4204  0.2297 -0.2888
15098SOL    HW147301   2.726   0.858   5.227 -0.0069  0.0594 -0.3891
15098SOL    HW247302   2.639   0.966   5.286 -0.8907 -0.2440 -1.1195
15099SOL     OW47303   8.593   8.200   0.336 -0.5146  0.1932  0.3120
15099SOL    HW147304   8.552   8.287   0.329 -0.2352  0.3880  1.0189
15099SOL    HW247305   8.662   8.211   0.401 -0.2975 -0.4990  0.2075
15100SOL     OW47306   2.120   7.720   6.527  0.3703 -0.3082  0.3835
15100SOL    HW147307   2.165   7.648   6.571 -0.7346 -1.1371  0.2068
15100SOL    HW247308   2.064   7.677   6.462  1.4735  0.8412 -1.4045
15101SOL     OW47309   3.806   2.241   5.449 -0.0360  0.2222 -0.2459
15101SOL    HW147310   3.746   2.315   5.446 -1.0177 -0.5275  0.3506
15101SOL    HW247311   3.861   2.257   5.526  0.4046  0.8050 -0.6744
15102SOL     OW47312   8.747   1.630   0.705 -0.0502 -0.0546  0.0877
15102SOL    HW147313   8.673   1.575   0.680 -1.3012  0.6745  1.9654
15102SOL    HW247314   8.823   1.573   0.694 -1.2109 -1.8851  1.0521
15103SOL     OW47315   7.243  10.108   9.801  0.2379  0.3474 -0.0514
15103SOL    HW147316   7.234  10.140   9.891  4.0198 -1.7734  1.2881
15103SOL    HW247317   7.303  10.169   9.760  0.7387 -0.2310 -0.1942
15104SOL     OW47318  10.813   3.013   9.565 -0.4727 -0.5619 -0.3719
15104SOL    HW147319  10.727   2.984   9.596 -0.5592  0.2958  0.2067
15104SOL    HW247320  10.811   3.108   9.573  1.0823 -0.6059  1.1483
15105SOL     OW47321   4.012   1.888   3.043 -0.0597 -0.1315  0.1417
15105SOL    HW147322   4.013   1.841   2.960  2.6850  1.3760 -0.8188
15105SOL    HW247323   4.092   1.859   3.088 -0.4057  0.6523  1.3025
15106SOL     OW47324   5.609   3.760   9.579 -0.1471  0.4574  0.0945
15106SOL    HW147325   5.579   3.675   9.609  2.6889 -0.2350  1.2669
15106SOL    HW247326   5.688   3.741   9.528  0.7951  2.3643  0.7385
15107SOL     OW47327   9.771  10.285   3.682  0.3717 -0.0164  0.3506
15107SOL    HW147328   9.856  10.247   3.706  1.0557  1.8861  1.1483
15107SOL    HW247329   9.794  10.363   3.631 -0.8985  0.4986  0.5492
15108SOL     OW47330   2.633   7.895   3.762  0.1151  0.2474 -0.4921
15108SOL    HW147331   2.586   7.855   3.835 -0.1290  1.1928 -0.1059
15108SOL    HW247332   2.563   7.928   3.704  0.2789  1.2076 -0.1691
15109SOL     OW47333   8.480   2.015   6.756  0.3217  0.2811 -0.8794
15109SOL    HW147334   8.389   2.015   6.726  1.0218  0.7003 -3.2036
15109SOL    HW247335   8.498   2.106   6.777 -0.4648 -0.1450  2.0533
15110SOL     OW47336   5.067   9.492   1.896 -0.4605  0.2294 -0.4771
15110SOL    HW147337   5.158   9.463   1.898 -0.7370 -0.7596 -1.5362
15110SOL    HW247338   5.027   9.443   1.824 -1.9288  0.3687  0.2082
15111SOL     OW47339   9.444   4.259   7.396  0.3549 -0.5508 -0.5284
15111SOL    HW147340   9.429   4.257   7.490 -1.4985 -1.3518 -0.8040
15111SOL    HW247341   9.519   4.317   7.385  0.6146 -0.4589  1.4336
15112SOL     OW47342   2.542   2.153   4.803 -0.7062 -0.1643 -0.0302
15112SOL    HW147343   2.448   2.153   4.819 -0.6715  0.5154  0.1789
15112SOL    HW247344   2.551   2.189   4.715 -0.6750 -0.8398 -0.3151
15113SOL     OW47345   4.895   7.930   4.874 -0.5580 -0.2695 -0.4157
15113SOL    HW147346   4.838   7.976   4.935  0.8984  1.3288 -0.1660
15113SOL    HW247347   4.983   7.944   4.909  0.2983  0.3339 -2.6077
15114SOL     OW47348   4.579  10.306   0.285 -0.5889 -0.1400 -0.4220
15114SOL    HW147349   4.666  10.269   0.273 -0.6648 -0.4496 -0.0331
15114SOL    HW247350   4.519  10.234   0.265 -0.7623  0.1848 -1.0718
15115SOL     OW47351   0.124   8.384   2.581  0.2512  0.1038 -0.0126
15115SOL    HW147352   0.178   8.336   2.644  0.3959 -0.4657 -0.5558
15115SOL    HW247353   0.183   8.448   2.543 -0.0657  1.0681  1.0656
15116SOL     OW47354   7.974   9.001   9.438  0.0517  0.6266  0.5835
15116SOL    HW147355   7.956   9.070   9.373 -2.9386 -1.6501 -1.2938
15116SOL    HW247356   7.904   9.011   9.503  0.7010  0.4753  1.3193
15117SOL     OW47357   7.888  10.948   5.095  0.1003  0.0197  0.2667
15117SOL    HW147358   7.844  10.882   5.148  0.8809 -0.5459  0.2229
15117SOL    HW247359   7.917  11.014   5.158 -0.1967  0.0533  0.3709
15118SOL     OW47360   9.133   3.146   3.225 -0.2163  0.0103 -0.2141
15118SOL    HW147361   9.090   3.136   3.141 -0.7747  0.3834  0.0246
15118SOL    HW247362   9.067   3.184   3.283  0.3830  0.4699  0.1944
15119SOL     OW47363   3.735   2.836   9.921  0.5998  0.4679 -0.0977
15119SOL    HW147364   3.674   2.840   9.848  0.8014 -1.5666 -0.4284
15119SOL    HW247365   3.809   2.785   9.887  0.8685 -0.1808  1.3860
15120SOL     OW47366   2.445   3.890   5.454 -0.8910  0.5407  0.0637
15120SOL    HW147367   2.511   3.821   5.447 -0.6637  0.7645 -0.0091
15120SOL    HW247368   2.403   3.875   5.539 -0.4807  0.6352  0.2862
15121SOL     OW47369   8.406  10.575   1.923 -0.2431 -0.0456  0.1559
15121SOL    HW147370   8.449  10.645   1.873 -1.7033  0.0826 -1.0134
15121SOL    HW247371   8.373  10.618   2.001 -0.5204  0.4326 -0.2176
15122SOL     OW47372   1.846   2.211   4.110  0.5940 -0.2722  0.0560
15122SOL    HW147373   1.767   2.157   4.111  0.0569  0.5050  0.1668
15122SOL    HW247374   1.918   2.148   4.102  0.0784 -1.1219  1.6748
15123SOL     OW47375  10.400   8.599   6.344 -0.2464  0.3149 -0.7044
15123SOL    HW147376  10.452   8.652   6.404  1.1848  1.5125 -2.8923
15123SOL    HW247377  10.420   8.633   6.257 -0.9256 -2.4337 -2.0671
15124SOL     OW47378   0.949   3.020   3.081 -0.2289 -0.4317  1.0068
15124SOL    HW147379   1.044   3.007   3.081 -0.2662 -0.7275  0.4258
15124SOL    HW247380   0.938   3.115   3.075  0.0288 -0.3576  1.6156
15125SOL     OW47381   8.035   9.453   0.484  0.1995  0.3433  0.2999
15125SOL    HW147382   8.077   9.466   0.398  0.7810  0.2100  0.5593
15125SOL    HW247383   7.975   9.380   0.471 -0.8421  1.2840 -0.3839
15126SOL     OW47384   1.917   0.221   1.902 -1.0648 -0.0987  0.2901
15126SOL    HW147385   1.910   0.274   1.981  0.5634  0.8278 -0.1443
15126SOL    HW247386   1.964   0.142   1.930  1.0387  0.9634 -0.0036
15127SOL     OW47387   1.198   2.371   7.228 -0.1989  0.4024 -0.3139
15127SOL    HW147388   1.157   2.446   7.272  0.1329  0.7003 -0.5042
15127SOL    HW247389   1.125   2.315   7.202 -0.4284  0.4490  0.2060
15128SOL     OW47390   7.849   6.072   2.921 -0.3361 -0.5492  0.1907
15128SOL    HW147391   7.919   6.098   2.982  0.2326 -2.1345  0.2558
15128SOL    HW247392   7.784   6.028   2.976 -1.0267  0.2200  0.0056
15129SOL     OW47393   8.592   2.766   2.492  0.1211  0.2040 -0.0410
15129SOL    HW147394   8.624   2.761   2.582  0.2588  0.6052 -0.0649
15129SOL    HW247395   8.516   2.824   2.497 -0.6630 -0.8073  0.0296
15130SOL     OW47396   4.851   9.254   4.502 -0.1536 -0.0392  0.8687
15130SOL    HW147397   4.855   9.165   4.538 -0.5980  0.2034  1.5374
15130SOL    HW247398   4.766   9.288   4.531 -1.5166 -0.5441 -2.1690
15131SOL     OW47399  10.113   9.510   2.506  0.1264  0.3012 -0.0949
15131SOL    HW147400  10.021   9.493   2.528  0.3382 -0.3391  0.3392
15131SOL    HW247401  10.154   9.532   2.589  0.7373 -1.2059  0.0370
15132SOL     OW47402   9.122   2.313   1.599  0.4013  0.0458 -0.3631
15132SOL    HW147403   9.064   2.282   1.529  2.2745 -2.3261 -0.9793
15132SOL    HW247404   9.144   2.403   1.574  0.1014 -0.3507 -2.1745
15133SOL     OW47405   1.032   0.317   3.090  0.0311 -0.2043  0.6543
15133SOL    HW147406   0.978   0.379   3.139  0.2372  0.4818  0.0193
15133SOL    HW247407   1.097   0.371   3.045  1.6545 -1.0602  1.8626
15134SOL     OW47408   7.039   7.074   9.172  0.3714 -0.1579 -0.2184
15134SOL    HW147409   7.028   7.159   9.131  0.5705 -0.7558 -1.5564
15134SOL    HW247410   7.035   7.011   9.100 -2.0207 -1.4901  0.9179
15135SOL     OW47411   3.992   3.079   0.850  0.1185  0.0461  0.2579
15135SOL    HW147412   3.939   3.106   0.925  1.7600  1.8793  0.8501
15135SOL    HW247413   4.082   3.086   0.881  0.9444  2.2793 -2.2272
15136SOL     OW47414   3.957   7.783   1.988  0.0972 -0.4719 -0.0559
15136SOL    HW147415   4.043   7.742   1.982 -0.6646 -2.3970  1.2584
15136SOL    HW247416   3.906   7.725   2.045 -1.5058  1.5989  0.7770
15137SOL     OW47417   4.633   9.944   5.394  0.3097  0.5602 -0.4041
15137SOL    HW147418   4.638   9.950   5.299 -0.1313 -1.1562 -0.5606
15137SOL    HW247419   4.681   9.864   5.416 -1.9585 -0.6229  0.5306
15138SOL     OW47420  10.066   9.841   4.471 -0.0676  0.5224 -0.0129
15138SOL    HW147421  10.010   9.829   4.394  1.1211 -0.0577 -0.8222
15138SOL    HW247422  10.139   9.781   4.457  0.0959  0.2828  1.6656
15139SOL     OW47423   4.653   9.345   5.884  0.3284 -0.4413 -0.6828
15139SOL    HW147424   4.672   9.439   5.878 -0.5057 -0.2296 -0.1827
15139SOL    HW247425   4.737   9.305   5.906  1.0283 -0.0014 -2.4086
15140SOL     OW47426  10.623   4.555   2.964  0.5648 -0.6600  0.0152
15140SOL    HW147427  10.563   4.630   2.961  0.9081 -0.3213  1.1381
15140SOL    HW247428  10.650   4.543   2.873  0.4897  0.5658 -0.1913
15141SOL     OW47429   4.036  10.089   4.338  0.3059 -0.1400 -0.3729
15141SOL    HW147430   3.974  10.046   4.397 -0.8015  0.5016 -1.0376
15141SOL    HW247431   4.084  10.149   4.395 -0.6871  0.4094 -0.0870
15142SOL     OW47432   6.005   3.303   9.549 -0.5644 -0.4765  0.2947
15142SOL    HW147433   6.061   3.370   9.511  1.4722 -2.8816 -1.2155
15142SOL    HW247434   6.056   3.268   9.622 -1.6991 -0.3092  1.2048
15143SOL     OW47435   9.295   5.977   6.950 -0.2570  0.0684 -0.0632
15143SOL    HW147436   9.288   5.920   7.026  0.2279  0.0551 -0.0259
15143SOL    HW247437   9.266   5.923   6.877  1.0796 -0.5493 -0.1764
15144SOL     OW47438   6.162   4.871   2.691 -0.4477 -0.6293 -0.0511
15144SOL    HW147439   6.134   4.800   2.749  1.7663 -1.7235 -0.2256
15144SOL    HW247440   6.152   4.950   2.743 -0.1656 -1.4037  1.2193
15145SOL     OW47441   5.603  11.095   4.887  0.3511 -0.5082 -0.1631
15145SOL    HW147442   5.553  11.057   4.815  1.6868 -1.6195 -0.5608
15145SOL    HW247443   5.649  11.020   4.925  0.2770  0.1902  1.3538
15146SOL     OW47444   6.654   9.533   5.489 -0.2375 -0.7720 -0.0742
15146SOL    HW147445   6.572   9.541   5.537  0.7969 -2.0061  2.0560
15146SOL    HW247446   6.630   9.488   5.408 -1.7159 -0.6719  0.2773
15147SOL     OW47447   2.847   9.104   3.972  0.0252  0.2914 -0.1631
15147SOL    HW147448   2.889   9.019   3.978 -0.3561  0.0390 -0.9722
15147SOL    HW247449   2.919   9.166   3.956  0.2359  0.0529 -0.1396
15148SOL     OW47450   3.022   6.377   2.998  0.3933  0.0945 -0.3338
15148SOL    HW147451   3.090   6.382   2.930  0.2512  2.8372 -0.3838
15148SOL    HW247452   2.940   6.381   2.949  0.2324 -0.5468 -0.1222
15149SOL     OW47453   5.208   8.283   7.703 -0.7629 -0.3622 -0.2148
15149SOL    HW147454   5.131   8.282   7.647 -1.0113  1.2917  0.0565
15149SOL    HW247455   5.257   8.360   7.676 -0.1283 -0.3795  0.8201
15150SOL     OW47456   0.276   2.531  10.775  0.1711 -0.5593 -0.1424
15150SOL    HW147457   0.336   2.601  10.748 -0.7898  1.4140  2.4132
15150SOL    HW247458   0.333   2.467  10.819  0.7910 -0.2558 -0.4861
15151SOL     OW47459   2.719   7.001   5.989 -0.2939 -0.3370  0.0473
15151SOL    HW147460   2.722   7.096   5.975 -1.2454 -0.3852 -0.6051
15151SOL    HW247461   2.776   6.986   6.064 -0.1288  0.7544  0.1589
15152SOL     OW47462   0.767   1.913   6.759  0.3792  0.6000 -0.2745
15152SOL    HW147463   0.791   1.984   6.700 -1.7954  1.8357  0.2298
15152SOL    HW247464   0.696   1.949   6.813  0.1402 -1.5112  0.9276
15153SOL     OW47465   0.502   2.574   4.940 -0.6753 -0.1623 -0.0920
15153SOL    HW147466   0.435   2.570   5.009 -1.7067 -0.4140 -1.0666
15153SOL    HW247467   0.549   2.655   4.958 -2.2601  0.8439 -0.2539
15154SOL     OW47468   8.116   0.326   7.371  0.0642 -0.3580  0.0077
15154SOL    HW147469   8.020   0.327   7.373 -0.0560 -1.6384 -2.2224
15154SOL    HW247470   8.140   0.275   7.448 -0.9241  1.3389  1.5239
15155SOL     OW47471   8.961   3.607   7.684 -0.0617 -0.5117 -0.0212
15155SOL    HW147472   8.884   3.655   7.651 -0.6014 -0.6626  0.9914
15155SOL    HW247473   9.032   3.633   7.625 -1.0694 -1.0391 -1.5195
15156SOL     OW47474   4.001   7.672   1.435  0.4097  0.3133  0.0093
15156SOL    HW147475   3.984   7.582   1.407  0.0099  0.7136 -1.0514
15156SOL    HW247476   3.940   7.686   1.508  0.7400 -0.3915  0.4333
15157SOL     OW47477   2.836  10.884   6.828 -0.1019  0.3743  0.2728
15157SOL    HW147478   2.755  10.894   6.778  0.1680  1.1481 -0.0189
15157SOL    HW247479   2.869  10.797   6.803  1.1964  1.5705 -2.6686
15158SOL     OW47480   3.359   1.964   5.352  0.0976 -0.2857  0.1905
15158SOL    HW147481   3.367   1.896   5.285  1.8162  0.5153 -0.4659
15158SOL    HW247482   3.449   1.983   5.378 -0.4761  0.0756  2.0994
15159SOL     OW47483   1.308   8.050   8.501 -0.2648  0.1490  0.2437
15159SOL    HW147484   1.262   7.973   8.535  0.8078 -0.1523  1.0575
15159SOL    HW247485   1.282   8.121   8.559 -1.3165  0.4395 -0.5550
15160SOL     OW47486   6.589   6.602  10.006  0.4494 -0.3032 -0.5443
15160SOL    HW147487   6.672   6.562  10.034  0.5030 -0.3968 -0.8404
15160SOL    HW247488   6.590   6.595   9.911  0.6871  0.8544 -0.6426
15161SOL     OW47489   3.947   0.208   0.461  0.0573 -0.4929  0.1411
15161SOL    HW147490   3.866   0.254   0.484  0.8555  1.0141  0.0573
15161SOL    HW247491   3.925   0.115   0.467 -0.8933 -0.1677  3.0268
15162SOL     OW47492   1.963   2.389   5.585 -0.2663  0.1543  0.0236
15162SOL    HW147493   1.949   2.474   5.628 -0.9005  0.6504 -1.1094
15162SOL    HW247494   1.951   2.408   5.492  0.0726 -1.0957 -0.2852
15163SOL     OW47495  10.996   1.971   2.922 -0.0710 -0.0973 -0.2502
15163SOL    HW147496  10.957   1.945   3.006  0.9348 -0.1679  0.2029
15163SOL    HW247497  10.983   2.066   2.919 -0.7376 -0.1823 -0.3523
15164SOL     OW47498   5.965   5.226   4.791  0.2766 -0.4333 -0.1085
15164SOL    HW147499   5.892   5.192   4.842  0.1907  0.6056  0.4989
15164SOL    HW247500   5.925   5.264   4.713  0.1204  0.3727  0.3499
15165SOL     OW47501   5.636   4.132   4.109  0.3001 -0.4303  0.3881
15165SOL    HW147502   5.582   4.209   4.091  0.2222 -0.1479  1.7600
15165SOL    HW247503   5.663   4.101   4.022 -0.0479  0.8620 -0.2048
15166SOL     OW47504   5.858   3.275   1.558  0.2609 -0.0650  0.1807
15166SOL    HW147505   5.880   3.235   1.474 -0.3439  1.6435 -0.8279
15166SOL    HW247506   5.931   3.332   1.578  1.1132 -1.5591  1.6103
15167SOL     OW47507   8.100  10.558   9.782  0.0875  0.1856  0.2052
15167SOL    HW147508   8.179  10.582   9.733  0.7069 -3.2467 -0.7616
15167SOL    HW247509   8.027  10.579   9.724  0.4615  0.8234 -0.0419
15168SOL     OW47510   9.123   0.682   1.069  0.0224  0.2086 -0.3713
15168SOL    HW147511   9.190   0.640   1.122  0.5615  0.1836 -1.0654
15168SOL    HW247512   9.044   0.629   1.084  0.2381  0.0423  0.1845
15169SOL     OW47513   8.745   8.228   4.370  0.4825  0.4495 -0.2932
15169SOL    HW147514   8.681   8.292   4.401 -1.6511 -1.2705 -0.8712
15169SOL    HW247515   8.755   8.166   4.443  0.1490 -0.2288 -0.8083
15170SOL     OW47516   6.967   3.788   7.807  0.3627 -0.6670  0.1013
15170SOL    HW147517   6.992   3.760   7.895 -0.4664  0.4009  0.7019
15170SOL    HW247518   6.939   3.879   7.818  0.5514 -0.4089 -1.3300
15171SOL     OW47519   6.432  10.185   3.179 -0.6062  0.1524 -0.6307
15171SOL    HW147520   6.406  10.094   3.163  0.7987 -0.5693  0.8624
15171SOL    HW247521   6.514  10.196   3.131 -0.6851  0.5771 -0.6705
15172SOL     OW47522  10.781   1.938  10.464 -0.0131  0.7686 -0.4941
15172SOL    HW147523  10.875   1.957  10.460 -0.1243  1.6487  0.5219
15172SOL    HW247524  10.773   1.862  10.521  0.0538  0.9693 -0.2169
15173SOL     OW47525   4.242   5.824  10.593  0.2431 -0.1100 -0.0356
15173SOL    HW147526   4.249   5.731  10.613 -0.0437 -0.4004 -1.2497
15173SOL    HW247527   4.181   5.829  10.520  0.6377  0.9913 -0.3083
15174SOL     OW47528   1.638   9.340   0.409  0.2736  0.0221  0.1780
15174SOL    HW147529   1.606   9.394   0.482 -0.7749  0.0348 -0.2807
15174SOL    HW247530   1.632   9.250   0.441 -0.5200  0.0033 -0.0103
15175SOL     OW47531   6.098   7.296   6.248 -0.0967 -0.0188 -0.6538
15175SOL    HW147532   6.096   7.201   6.237 -2.1092 -0.1831  0.5183
15175SOL    HW247533   6.063   7.310   6.336 -0.4955  1.8272 -1.0704
15176SOL     OW47534   6.237   1.038   2.239  0.4481 -0.0527  0.6290
15176SOL    HW147535   6.308   1.006   2.294  1.4250 -0.1961 -0.6675
15176SOL    HW247536   6.280   1.066   2.158 -0.5238  3.1365  1.0718
15177SOL     OW47537   5.697   9.611   0.648 -0.6269  0.6523 -0.4576
15177SOL    HW147538   5.676   9.670   0.721  1.8408 -0.2914  1.1593
15177SOL    HW247539   5.625   9.548   0.647 -1.0885  1.1328  0.6803
15178SOL     OW47540   3.945   1.374   2.046  0.1608  0.5477 -1.0952
15178SOL    HW147541   3.880   1.357   2.114  0.7188 -0.5642 -0.8089
15178SOL    HW247542   3.962   1.288   2.007  3.0545  0.3400  0.3348
15179SOL     OW47543   6.603   3.078  10.855 -0.2570  0.3172  0.1965
15179SOL    HW147544   6.648   2.996  10.875  0.1498 -0.5759 -3.6607
15179SOL    HW247545   6.510   3.057  10.864 -0.1293 -0.3518  0.0502
15180SOL     OW47546   5.759   7.860  10.117 -0.1309  0.0465 -0.0623
15180SOL    HW147547   5.714   7.939  10.146 -0.3258  0.6769 -1.9485
15180SOL    HW247548   5.852   7.883  10.118 -0.0863 -0.1393  0.6026
15181SOL     OW47549   1.818   3.662   2.918 -0.0030  0.5390  0.3104
15181SOL    HW147550   1.851   3.634   2.833 -2.3636  1.5689 -1.0434
15181SOL    HW247551   1.897   3.689   2.967  1.4712 -0.7133 -1.2579
15182SOL     OW47552   6.164   1.478  10.641 -0.3987  0.0890  0.1659
15182SOL    HW147553   6.087   1.499  10.694 -0.2232 -1.1922  0.9933
15182SOL    HW247554   6.234   1.534  10.676 -0.5073 -0.0992  0.6954
15183SOL     OW47555   1.580   3.491   6.888 -0.1744 -0.0749 -0.0429
15183SOL    HW147556   1.507   3.549   6.865  0.2635  0.3666 -0.3427
15183SOL    HW247557   1.540   3.421   6.940 -0.9598 -0.3623 -1.0104
15184SOL     OW47558   9.746   7.988   8.731  0.2707  0.1938  0.0523
15184SOL    HW147559   9.820   7.949   8.778 -0.4578 -1.1608  0.1428
15184SOL    HW247560   9.705   8.045   8.796  0.6844  0.2083  0.3070
15185SOL     OW47561   5.212   2.516  10.100 -0.4910 -0.1807  0.3287
15185SOL    HW147562   5.193   2.606  10.127 -0.7611  0.3352 -1.4462
15185SOL    HW247563   5.302   2.519  10.069 -1.3123  0.2055 -2.3143
15186SOL     OW47564   4.560   2.282   5.433  0.6983  0.0262 -0.0886
15186SOL    HW147565   4.556   2.310   5.525  0.7613 -0.5275  0.0875
15186SOL    HW247566   4.563   2.187   5.438 -1.3822 -0.1107 -0.7294
15187SOL     OW47567   5.242   7.259   9.823  0.1587  0.1909 -0.1817
15187SOL    HW147568   5.310   7.238   9.887 -1.3161  1.5840  1.9887
15187SOL    HW247569   5.240   7.354   9.820 -1.4051  0.1804 -0.4695
15188SOL     OW47570   3.447   4.113   8.254  0.8775  0.4346  0.7291
15188SOL    HW147571   3.476   4.024   8.275  3.7378  1.0224 -0.3438
15188SOL    HW247572   3.414   4.147   8.337 -0.2867 -1.5696  1.1660
15189SOL     OW47573   0.125   1.265   8.740  0.3491  0.3635 -0.0257
15189SOL    HW147574   0.168   1.180   8.746 -0.5435 -0.0032  2.2295
15189SOL    HW247575   0.196   1.328   8.730  0.9898 -0.6391 -2.5565
15190SOL     OW47576   2.429  10.589   0.067 -0.4835 -0.0253  0.2576
15190SOL    HW147577   2.399  10.512   0.115  0.3486 -0.7779 -0.4035
15190SOL    HW247578   2.406  10.571  -0.024  0.4081  0.1501 -0.0089
15191SOL     OW47579   4.819   3.591   3.644 -0.1115  0.7086 -0.1157
15191SOL    HW147580   4.886   3.640   3.691  0.3377 -0.2060  0.2193
15191SOL    HW247581   4.751   3.573   3.709  0.3840 -0.3201  0.1399
15192SOL     OW47582   5.533   2.109   7.395  0.4997 -0.1293  0.4256
15192SOL    HW147583   5.628   2.098   7.391  0.7330  1.6575 -0.0027
15192SOL    HW247584   5.519   2.156   7.477  0.1469  0.7688 -0.1316
15193SOL     OW47585  10.688   5.652   8.154  0.4045  0.2616  0.2165
15193SOL    HW147586  10.703   5.569   8.108  0.3722 -0.3564  1.3011
15193SOL    HW247587  10.728   5.639   8.240  0.9533  1.5999  0.1887
15194SOL     OW47588   2.894   0.050   9.166  0.6030 -0.4890  0.1986
15194SOL    HW147589   2.918   0.135   9.203 -0.9952  0.3886 -0.6777
15194SOL    HW247590   2.860   0.070   9.079 -1.8859 -1.7428  0.7857
15195SOL     OW47591   4.258   7.717   1.204 -1.0868 -0.0471 -0.7188
15195SOL    HW147592   4.348   7.750   1.195 -1.4877  1.4636  0.3634
15195SOL    HW247593   4.228   7.752   1.288 -2.3978 -1.2792 -0.6326
15196SOL     OW47594   2.364   8.169   4.623 -0.0233 -0.3308  0.2807
15196SOL    HW147595   2.324   8.241   4.671 -0.2247  0.5127 -1.0950
15196SOL    HW247596   2.312   8.092   4.646 -0.2797  0.1005  1.1781
15197SOL     OW47597   6.828   6.797   2.500  0.3575  0.2902 -0.2798
15197SOL    HW147598   6.786   6.877   2.534  0.0122  0.0380 -0.1042
15197SOL    HW247599   6.758   6.732   2.498  0.9404 -0.4137  0.9236
15198SOL     OW47600   3.062  10.181   7.164 -0.1215  0.3857  0.1673
15198SOL    HW147601   3.116  10.114   7.205 -3.4097 -1.7699  1.3228
15198SOL    HW247602   3.025  10.138   7.087 -1.2634  1.3145  0.1739
15199SOL     OW47603   6.081   3.959   0.987 -0.6425  0.0174  0.3270
15199SOL    HW147604   6.038   3.905   1.053  0.5642  0.9527  1.9776
15199SOL    HW247605   6.015   3.972   0.919 -1.6735 -1.6509  0.9469
15200SOL     OW47606   8.616  10.426   1.575  0.3243  0.3234  0.6025
15200SOL    HW147607   8.666  10.380   1.508 -1.1787  1.6434 -1.5641
15200SOL    HW247608   8.550  10.476   1.526 -1.0550  1.1486  3.0969
15201SOL     OW47609   5.447  10.215   4.813 -0.3424  0.3565  0.0011
15201SOL    HW147610   5.393  10.272   4.867  0.2289  0.9926 -0.0804
15201SOL    HW247611   5.472  10.143   4.871 -1.3754 -0.0184 -0.0041
15202SOL     OW47612   0.021   9.472   8.405  0.6081 -0.3367  0.6586
15202SOL    HW147613   0.085   9.542   8.419  0.4773 -0.0459 -0.1646
15202SOL    HW247614   0.032   9.415   8.482  2.0148 -0.4124  0.4403
15203SOL     OW47615   7.671   3.193   6.029 -0.5516 -0.1056 -0.1068
15203SOL    HW147616   7.661   3.176   5.935  0.6225 -1.6912  0.0091
15203SOL    HW247617   7.766   3.190   6.043 -0.7056  0.3591  1.0920
15204SOL     OW47618   6.038   3.362  10.125  0.1519 -0.5431 -0.2057
15204SOL    HW147619   6.053   3.376  10.032  0.9990 -0.5066 -0.0734
15204SOL    HW247620   5.949   3.393  10.140  0.2727  0.1425 -0.8520
15205SOL     OW47621   7.370  11.009   4.450 -0.1233 -0.5903 -0.2309
15205SOL    HW147622   7.309  11.025   4.377 -1.5026  0.3868  1.0762
15205SOL    HW247623   7.348  10.921   4.480 -1.3305 -0.0360  0.5886
15206SOL     OW47624   5.764   0.398   0.015  0.1375  0.4782 -0.3610
15206SOL    HW147625   5.714   0.343  -0.046 -0.8539  1.4904 -0.5038
15206SOL    HW247626   5.697   0.434   0.074  1.1450 -1.0139  1.7988
15207SOL     OW47627   4.159   9.731   4.984  0.2835 -0.1102 -0.2138
15207SOL    HW147628   4.066   9.711   4.995 -0.1333  1.1926 -1.2224
15207SOL    HW247629   4.174   9.808   5.038  0.4817  0.4165 -1.0005
15208SOL     OW47630   2.434   3.235   9.366 -0.0588 -0.0912  0.0359
15208SOL    HW147631   2.413   3.186   9.287  1.3411 -0.3168 -0.2153
15208SOL    HW247632   2.474   3.316   9.334  2.1660 -0.9464  0.4941
15209SOL     OW47633  10.422   1.269   4.589 -0.6732 -0.1942 -0.3701
15209SOL    HW147634  10.395   1.334   4.655  0.6418  0.7681 -0.7550
15209SOL    HW247635  10.343   1.218   4.573 -0.7532 -1.3381  2.9238
15210SOL     OW47636   3.173   2.556   4.172 -0.2657 -0.4019  0.0669
15210SOL    HW147637   3.130   2.609   4.104  0.0909  0.0544  0.1880
15210SOL    HW247638   3.114   2.563   4.247  0.4905  1.0812  0.5703
15211SOL     OW47639   2.966   1.173   3.837  0.3639  0.2005  0.2002
15211SOL    HW147640   2.887   1.120   3.827  1.6596 -1.6676 -0.6032
15211SOL    HW247641   2.938   1.246   3.894 -2.0872  0.0102 -0.6103
15212SOL     OW47642   3.432   4.083   1.727  0.0400 -0.2589 -0.1458
15212SOL    HW147643   3.503   4.125   1.776  0.9877 -0.6966 -1.1030
15212SOL    HW247644   3.354   4.096   1.781  0.7775  0.5651  0.7454
15213SOL     OW47645  10.988   2.404   6.550 -0.0018  0.7091  0.0778
15213SOL    HW147646  10.960   2.406   6.642  1.0052  0.0223  0.4292
15213SOL    HW247647  10.986   2.496   6.522 -2.1109  0.7250  0.1927
15214SOL     OW47648   1.128   9.661   4.434  0.0644 -0.4343 -0.0346
15214SOL    HW147649   1.040   9.624   4.426 -0.6801  0.3347  3.0897
15214SOL    HW247650   1.114   9.755   4.429  0.7548 -0.3184  0.2029
15215SOL     OW47651   4.967   4.598   3.886  0.6025 -0.0132  0.3420
15215SOL    HW147652   4.996   4.507   3.885 -1.2293 -0.6513  0.9485
15215SOL    HW247653   4.992   4.633   3.801 -0.5054 -1.7109 -0.7220
15216SOL     OW47654   1.218   8.144   2.743 -0.5012 -0.1759  0.3059
15216SOL    HW147655   1.192   8.058   2.775 -1.5402 -1.4011 -3.3209
15216SOL    HW247656   1.145   8.172   2.687  0.7734  2.0528 -0.3778
15217SOL     OW47657   0.634   1.670   6.682  0.4247 -0.0195 -0.2039
15217SOL    HW147658   0.588   1.659   6.765 -0.1388  0.3666 -0.4578
15217SOL    HW247659   0.687   1.749   6.694  1.0501 -0.4775  0.0969
15218SOL     OW47660   5.539   7.250   2.083 -0.3385  0.2090  0.6911
15218SOL    HW147661   5.546   7.226   2.176 -2.1222  0.9437  1.0561
15218SOL    HW247662   5.499   7.174   2.042  0.3043 -0.0532  0.5331
15219SOL     OW47663   0.594   3.345   4.136 -0.3599 -0.0569  0.1296
15219SOL    HW147664   0.617   3.433   4.166 -2.4228  0.4090  0.5105
15219SOL    HW247665   0.665   3.289   4.170  0.1588  1.2198  1.2600
15220SOL     OW47666   3.869   1.924   4.132 -0.3515  0.0038  0.1800
15220SOL    HW147667   3.900   1.990   4.194  2.3501 -1.2540  0.3364
15220SOL    HW247668   3.933   1.852   4.139 -3.2363 -2.7889  0.2024
15221SOL     OW47669   9.212   1.777   3.024  0.4274 -0.0255  0.1898
15221SOL    HW147670   9.280   1.840   2.998  1.2576 -0.9576  0.0815
15221SOL    HW247671   9.145   1.787   2.956  0.6871  0.5287  0.0016
15222SOL     OW47672   1.407   2.588   8.340  0.0342 -0.0381 -0.0307
15222SOL    HW147673   1.389   2.657   8.277 -0.8327  1.1466  1.4364
15222SOL    HW247674   1.325   2.577   8.389  0.9525 -0.1430  1.5857
15223SOL     OW47675   7.289   6.727   1.485  0.4807  0.5312 -0.1515
15223SOL    HW147676   7.202   6.764   1.472 -0.5540 -0.9524  1.9886
15223SOL    HW247677   7.341   6.798   1.521 -0.6990  0.7112  1.3009
15224SOL     OW47678   3.781   1.808   5.343  0.3709 -0.1634  0.4394
15224SOL    HW147679   3.746   1.770   5.423 -0.2182 -2.0408 -0.6271
15224SOL    HW247680   3.779   1.736   5.280  2.2564  0.8067 -0.8505
15225SOL     OW47681   5.037   4.530   9.617 -0.3812  0.0719  0.0455
15225SOL    HW147682   4.948   4.520   9.650 -0.9204 -0.6471 -1.5360
15225SOL    HW247683   5.043   4.468   9.544  1.7004 -0.5286  0.6542
15226SOL     OW47684   5.662   2.395   1.121  0.1768  0.0772 -0.5058
15226SOL    HW147685   5.624   2.337   1.186 -1.0648 -0.1034 -1.3488
15226SOL    HW247686   5.663   2.481   1.163  0.6684 -0.2744  0.2249
15227SOL     OW47687   5.216   5.530   3.872 -0.4368  0.3225  0.2972
15227SOL    HW147688   5.252   5.603   3.822  0.6959  0.2072  0.9024
15227SOL    HW247689   5.186   5.569   3.954 -0.2928  0.1904  0.4143
15228SOL     OW47690   7.395   1.155   9.940  0.5642 -0.0971 -0.1260
15228SOL    HW147691   7.308   1.143   9.977 -0.0708 -0.5111 -1.6678
15228SOL    HW247692   7.455   1.135  10.012 -0.5849 -1.7742  0.4226
15229SOL     OW47693   7.224   8.100   6.280 -0.8290 -0.4811  0.4694
15229SOL    HW147694   7.200   8.054   6.199 -1.4439  1.1310 -0.3179
15229SOL    HW247695   7.288   8.043   6.322 -1.7513 -2.1611 -0.3019
15230SOL     OW47696   7.654   7.481   9.511  0.2861 -0.0051  0.5397
15230SOL    HW147697   7.587   7.418   9.537 -0.3460  0.4041 -0.0344
15230SOL    HW247698   7.705   7.437   9.444 -0.3117  0.1729 -0.0395
15231SOL     OW47699  10.194   1.345   6.428  0.3296  0.1746  0.6389
15231SOL    HW147700  10.166   1.346   6.336  2.9109  0.2516 -0.2503
15231SOL    HW247701  10.124   1.301   6.474 -1.7308  1.3937 -1.1104
15232SOL     OW47702   2.153   0.162   7.922  0.6115  0.2688 -0.8261
15232SOL    HW147703   2.143   0.141   8.014  2.5638  0.8812 -0.4158
15232SOL    HW247704   2.092   0.233   7.906 -1.0547 -1.0354 -0.5010
15233SOL     OW47705   5.801   6.207   0.666  0.0852 -0.2431 -0.8184
15233SOL    HW147706   5.750   6.285   0.642 -0.7340 -1.0509 -1.7921
15233SOL    HW247707   5.740   6.134   0.655  1.0202 -1.0874 -0.5135
15234SOL     OW47708  10.896   1.078   6.562 -0.7718 -0.3832  0.0476
15234SOL    HW147709  10.885   1.132   6.484  0.7299  1.3084  0.9452
15234SOL    HW247710  10.878   1.136   6.635 -0.2656 -1.4196  1.0270
15235SOL     OW47711   2.075   8.903   7.438  0.0276  0.9804  0.4952
15235SOL    HW147712   2.040   8.842   7.373  2.4850  0.7647 -0.7218
15235SOL    HW247713   2.051   8.864   7.522 -0.2557 -0.5693 -0.2700
15236SOL     OW47714   4.169   8.678   5.494 -0.3653  0.1155 -0.6305
15236SOL    HW147715   4.097   8.639   5.544 -0.3265  1.3765  0.4884
15236SOL    HW247716   4.218   8.604   5.460  0.9185 -0.9558  3.1109
15237SOL     OW47717  10.888   3.753   6.226 -0.0530 -0.0462 -0.7440
15237SOL    HW147718  10.928   3.824   6.275  0.9765 -1.5633  0.7226
15237SOL    HW247719  10.961   3.712   6.179 -0.1698 -1.5390  0.2850
15238SOL     OW47720   2.612  10.772   7.043 -0.3745 -0.8236  0.3985
15238SOL    HW147721   2.694  10.817   7.065 -0.5563 -0.1652 -0.2377
15238SOL    HW247722   2.637  10.710   6.974 -0.4880 -0.2685 -0.1579
15239SOL     OW47723   3.355   4.443  10.043 -0.2539 -0.4845 -0.3349
15239SOL    HW147724   3.351   4.431   9.948  0.8706  1.1591 -0.6287
15239SOL    HW247725   3.266   4.471  10.067 -0.9416 -2.2506 -0.6426
15240SOL     OW47726   6.168   2.948   4.763 -0.6356 -0.5347  0.3205
15240SOL    HW147727   6.211   2.982   4.842 -2.0714  0.8443  0.5456
15240SOL    HW247728   6.240   2.928   4.703  0.5045 -1.7542  1.9918
15241SOL     OW47729   8.427   4.348   1.877  0.1921  0.3931  0.0770
15241SOL    HW147730   8.347   4.345   1.928  0.7424  1.6452  1.0910
15241SOL    HW247731   8.455   4.257   1.870 -1.8414 -0.1895 -1.2184
15242SOL     OW47732   1.770  10.949   2.793  0.1497 -0.5378  0.1352
15242SOL    HW147733   1.757  10.874   2.851  1.1928 -0.6387  0.2698
15242SOL    HW247734   1.831  11.005   2.841 -1.9305  1.2695  0.8127
15243SOL     OW47735   6.089   6.587   1.161  0.2483 -0.3686  0.4062
15243SOL    HW147736   6.184   6.583   1.174  0.8247  2.5799 -1.8205
15243SOL    HW247737   6.053   6.608   1.247  1.8134  0.1162  0.9678
15244SOL     OW47738   7.461   9.247   0.475 -0.7204 -0.7433 -0.1899
15244SOL    HW147739   7.499   9.172   0.521 -2.4268 -0.2944  2.0992
15244SOL    HW247740   7.427   9.210   0.393  0.6271 -1.9530 -0.2555
15245SOL     OW47741   3.433  10.910   9.073 -0.5539  0.4948  0.2325
15245SOL    HW147742   3.390  10.938   8.992 -0.3818  0.2763  0.0606
15245SOL    HW247743   3.472  10.990   9.108  0.0781  0.4473 -0.3394
15246SOL     OW47744   7.815   8.156   4.111 -0.0677  0.4213 -0.0197
15246SOL    HW147745   7.833   8.071   4.070 -0.1984  0.0010  0.7766
15246SOL    HW247746   7.790   8.212   4.038 -0.4028 -0.3391 -0.5092
15247SOL     OW47747   8.042   2.082   9.858 -0.5389 -0.3376 -0.8738
15247SOL    HW147748   8.046   1.994   9.820  4.8122 -0.4436 -0.8356
15247SOL    HW247749   8.046   2.067   9.953 -0.3043 -0.0340 -0.8367
15248SOL     OW47750   3.432   0.923   5.585 -0.0672 -0.0412  0.4615
15248SOL    HW147751   3.446   0.830   5.568  1.0331 -0.1085  1.6091
15248SOL    HW247752   3.513   0.965   5.556 -0.9215  0.7152 -0.9584
15249SOL     OW47753   7.366   0.263   9.800  0.3142  0.0584  0.2423
15249SOL    HW147754   7.291   0.312   9.765 -0.3511 -0.5729  0.7698
15249SOL    HW247755   7.432   0.269   9.731 -0.6607 -0.4204 -0.7688
15250SOL     OW47756   7.637   6.645   9.037  0.1743 -0.1951 -0.4183
15250SOL    HW147757   7.596   6.689   8.962  0.4135  0.0715 -0.3955
15250SOL    HW247758   7.581   6.569   9.054 -0.4924  0.3321 -0.2001
15251SOL     OW47759   3.340   1.155   0.487 -0.6181  0.3402 -0.1085
15251SOL    HW147760   3.396   1.189   0.417  2.4673 -0.7008  1.6597
15251SOL    HW247761   3.343   1.060   0.477 -1.3095  0.2369  0.5693
15252SOL     OW47762   4.882   8.049   0.523 -0.2625  0.0287  0.0532
15252SOL    HW147763   4.928   8.133   0.529  0.8790 -0.6305  0.9389
15252SOL    HW247764   4.934   7.998   0.461  0.5579 -0.9055  1.4492
15253SOL     OW47765   2.679   2.145   3.060 -0.1803  0.4026  0.4445
15253SOL    HW147766   2.659   2.059   3.024  0.0568  0.3013  0.5544
15253SOL    HW247767   2.594   2.188   3.067 -0.3120  0.1363  0.4954
15254SOL     OW47768   3.775   0.303   4.443 -0.8102  0.7028 -0.7615
15254SOL    HW147769   3.747   0.213   4.428 -1.6791  0.8809 -0.3018
15254SOL    HW247770   3.710   0.356   4.396 -0.4268  1.0911 -0.8563
15255SOL     OW47771   6.794   7.937   8.952 -0.5051  0.1649 -0.1135
15255SOL    HW147772   6.783   7.866   8.889 -0.1706 -0.7949  0.8722
15255SOL    HW247773   6.885   7.964   8.942  0.0903 -1.2219  1.1633
15256SOL     OW47774   6.041   1.989   3.334  0.2622 -0.1332 -0.2064
15256SOL    HW147775   6.098   1.913   3.345  2.1819  1.5480  3.2723
15256SOL    HW247776   5.952   1.954   3.338  1.0667 -2.3112 -0.2644
15257SOL     OW47777   8.841  10.367   8.908 -0.0190  0.3318 -0.0522
15257SOL    HW147778   8.755  10.406   8.924 -0.6710 -0.8376 -0.6174
15257SOL    HW247779   8.875  10.414   8.832 -0.8392 -0.2098 -0.7823
15258SOL     OW47780   5.233   1.546  10.379  0.2683 -0.0660  0.1323
15258SOL    HW147781   5.196   1.574  10.296  1.8366  0.4111 -0.4369
15258SOL    HW247782   5.318   1.507  10.357  1.2116  1.0462  1.5861
15259SOL     OW47783   7.385   3.555   6.578 -0.0423  0.3887  0.6671
15259SOL    HW147784   7.427   3.479   6.538 -0.8810 -0.1977  0.8562
15259SOL    HW247785   7.313   3.518   6.630  0.0378  1.2583  1.4168
15260SOL     OW47786   1.853   1.611   9.478 -0.1827 -0.3877  0.1258
15260SOL    HW147787   1.786   1.586   9.414 -0.1949  0.2920 -0.1412
15260SOL    HW247788   1.849   1.707   9.480  0.3109 -0.3745  0.6156
15261SOL     OW47789   6.571   3.044   6.697 -0.7049  0.1479  0.5080
15261SOL    HW147790   6.579   3.052   6.793 -1.5940 -0.5013  0.6450
15261SOL    HW247791   6.503   3.107   6.673  0.9598  1.8533  0.0060
15262SOL     OW47792   7.605   1.848   4.736 -0.1125  0.1831  0.3415
15262SOL    HW147793   7.522   1.885   4.707  0.1485 -0.7138 -1.7470
15262SOL    HW247794   7.670   1.886   4.677  0.6597 -0.7107  0.5875
15263SOL     OW47795   7.095   7.410   0.397 -0.4295 -0.6500 -0.3671
15263SOL    HW147796   7.034   7.376   0.331 -0.6530 -1.2297  0.1263
15263SOL    HW247797   7.068   7.501   0.410 -1.1858 -0.8955 -0.1679
15264SOL     OW47798   7.742   0.048   5.926  0.2122 -0.1184 -0.2552
15264SOL    HW147799   7.775   0.056   5.837  2.1376 -0.9701  0.3161
15264SOL    HW247800   7.809   0.092   5.980  0.5241 -1.9955  0.9840
15265SOL     OW47801   6.024   3.510   5.171  0.3209  0.7908 -0.0018
15265SOL    HW147802   6.076   3.556   5.105  1.1035  2.9424  1.9915
15265SOL    HW247803   5.939   3.496   5.129  1.0484  1.3087 -1.7315
15266SOL     OW47804   0.307   5.484   1.987 -0.3287 -0.2276 -0.3540
15266SOL    HW147805   0.239   5.544   2.018  0.9386  1.2632 -0.3432
15266SOL    HW247806   0.302   5.409   2.046 -2.7393 -0.7350 -1.0951
15267SOL     OW47807   2.633   4.700   7.071  0.7011  0.0972  0.1680
15267SOL    HW147808   2.625   4.795   7.072 -0.9114 -0.0000  0.2824
15267SOL    HW247809   2.594   4.673   7.155  0.5367 -0.6945 -0.1606
15268SOL     OW47810   5.886   9.660   5.006  0.0652  0.1242 -0.2814
15268SOL    HW147811   5.976   9.628   5.002  0.4654  1.2392 -0.4677
15268SOL    HW247812   5.834   9.588   4.970  0.9804 -0.1559 -1.1030
15269SOL     OW47813   1.232   4.881   8.232 -0.1579  0.3670  0.7987
15269SOL    HW147814   1.210   4.967   8.269 -0.1144  1.5520 -1.7239
15269SOL    HW247815   1.319   4.893   8.194 -0.6934 -0.3573 -0.7360
15270SOL     OW47816   1.948   3.534   1.925 -0.3803  0.0208 -0.1799
15270SOL    HW147817   1.941   3.524   2.020 -3.4147 -0.2723 -0.3226
15270SOL    HW247818   2.008   3.464   1.898 -0.2471 -0.5402  1.4333
15271SOL     OW47819   6.178   4.510  10.098  0.0692 -0.0710 -0.0744
15271SOL    HW147820   6.182   4.580  10.033 -1.8389 -0.8664 -1.1402
15271SOL    HW247821   6.269   4.497  10.125  0.8843  0.6376 -2.2328
15272SOL     OW47822   4.445   0.127   1.664 -0.5029 -0.1090  0.1921
15272SOL    HW147823   4.516   0.112   1.726  0.6212 -1.2091 -1.2708
15272SOL    HW247824   4.385   0.053   1.678 -0.4217 -0.1756  0.1875
15273SOL     OW47825   0.082   8.876   2.594 -0.0184  0.5002 -0.1898
15273SOL    HW147826   0.093   8.896   2.501  1.3984  0.1582 -0.1288
15273SOL    HW247827   0.040   8.954   2.631 -0.8857  0.5091 -1.1569
15274SOL     OW47828   7.654   3.487   3.016  0.1514 -0.3767  0.6749
15274SOL    HW147829   7.610   3.565   3.048  1.0702 -0.2241  1.6483
15274SOL    HW247830   7.585   3.422   3.006 -0.7909  0.8389 -1.1738
15275SOL     OW47831   8.092   7.443   6.966 -0.0473 -0.4720  0.1972
15275SOL    HW147832   8.065   7.388   7.039 -0.9745  1.0086  1.0353
15275SOL    HW247833   8.183   7.467   6.986 -0.5805  0.6665  1.3863
15276SOL     OW47834   4.468   0.545   7.240  0.3806 -0.4939  0.4457
15276SOL    HW147835   4.549   0.584   7.207 -0.3676  0.8295  0.0890
15276SOL    HW247836   4.399   0.583   7.186 -0.4964 -1.5845  0.7557
15277SOL     OW47837   4.557   7.902   7.699 -0.0612 -0.1509 -0.3730
15277SOL    HW147838   4.620   7.862   7.759 -1.8616 -0.6017  1.3238
15277SOL    HW247839   4.483   7.841   7.698 -0.7291  0.6250 -1.8604
15278SOL     OW47840   9.362   4.866   8.197 -0.2309  0.5334 -0.2306
15278SOL    HW147841   9.381   4.850   8.105  0.8114  2.0444 -0.3204
15278SOL    HW247842   9.306   4.793   8.223 -0.5379  0.0642 -2.0456
15279SOL     OW47843   4.335   0.674   5.329  0.2784  0.1312  0.2291
15279SOL    HW147844   4.336   0.770   5.328 -2.2493  0.4611  4.3281
15279SOL    HW247845   4.250   0.651   5.291 -0.6492 -0.1081  2.2728
15280SOL     OW47846   5.351  10.883   3.182  0.2467  0.1064 -0.4242
15280SOL    HW147847   5.446  10.883   3.189  0.2296 -0.7098 -0.0221
15280SOL    HW247848   5.330  10.797   3.144 -0.4075 -0.3570  0.9351
15281SOL     OW47849   0.021   4.279   4.355 -0.0714 -0.1660  0.5973
15281SOL    HW147850   0.058   4.362   4.327 -0.8110  0.4760  1.4495
15281SOL    HW247851  -0.065   4.302   4.391 -0.3835 -1.3273  0.6386
15282SOL     OW47852   1.876   1.842   2.418 -0.4930  0.1187  0.4169
15282SOL    HW147853   1.864   1.807   2.506  0.4070  0.6370  0.7516
15282SOL    HW247854   1.970   1.845   2.405 -0.5943  0.7546 -0.2753
15283SOL     OW47855   3.397   1.952   5.008 -0.2790  0.6986  0.6067
15283SOL    HW147856   3.413   1.879   4.948 -1.9002 -0.2668  1.2581
15283SOL    HW247857   3.483   1.991   5.023  0.7009 -1.2738  0.4409
15284SOL     OW47858  10.129   1.127   9.974  0.2322 -0.1767 -0.1155
15284SOL    HW147859  10.154   1.089  10.058 -0.1965 -1.9540 -0.7466
15284SOL    HW247860  10.212   1.156   9.935  0.4762  0.2944  0.7305
15285SOL     OW47861   4.721   0.253   7.081  0.0539  0.3509 -0.0011
15285SOL    HW147862   4.702   0.272   6.989  0.2319  2.6565  0.3715
15285SOL    HW247863   4.654   0.190   7.107 -1.5165  1.4869 -1.0977
15286SOL     OW47864   3.800   2.407   8.224 -0.5448 -0.6074  0.2650
15286SOL    HW147865   3.824   2.319   8.194 -0.0837 -1.3339  2.5966
15286SOL    HW247866   3.852   2.466   8.170  0.8333 -1.8720  0.1751
15287SOL     OW47867   4.948   6.200   1.395  0.5093 -0.4047  0.1896
15287SOL    HW147868   4.868   6.238   1.431  1.6954  1.9849  0.5208
15287SOL    HW247869   5.000   6.178   1.472  1.0511  0.1405 -0.0110
15288SOL     OW47870   3.211  10.706   0.420  0.3898  0.5449  0.1312
15288SOL    HW147871   3.214  10.743   0.508 -0.9037  0.3662  0.2655
15288SOL    HW247872   3.288  10.649   0.415 -0.4728 -0.8333  1.7751
15289SOL     OW47873   6.379   9.298   5.615  0.6445  0.2694 -1.0264
15289SOL    HW147874   6.302   9.286   5.559  0.2440  0.0038 -0.4233
15289SOL    HW247875   6.450   9.256   5.567  0.1131 -0.7878 -0.9149
15290SOL     OW47876   3.857   9.033   7.305 -0.4345  0.4409 -0.1727
15290SOL    HW147877   3.868   8.963   7.240 -2.1252 -0.2649  0.2589
15290SOL    HW247878   3.896   8.998   7.385 -1.2641 -0.0176  0.0387
15291SOL     OW47879   7.244   9.432   8.017 -0.9581  0.3203 -0.1132
15291SOL    HW147880   7.254   9.351   7.967 -0.9858  1.9951 -3.0239
15291SOL    HW247881   7.333   9.464   8.030 -0.8613 -0.6092  1.9893
15292SOL     OW47882   1.823   4.520  10.726  0.5677 -0.0442  0.2504
15292SOL    HW147883   1.740   4.565  10.712  1.0008  0.6770 -0.0153
15292SOL    HW247884   1.890   4.585  10.706  1.2103 -0.9562 -0.6503
15293SOL     OW47885   2.879  10.224   2.464  0.3579  0.3399 -0.2456
15293SOL    HW147886   2.937  10.216   2.539  1.1812  0.0792 -0.9031
15293SOL    HW247887   2.803  10.170   2.486  0.3924  0.6298  0.5882
15294SOL     OW47888   7.254   1.641   1.020  0.2727  0.2221  0.0245
15294SOL    HW147889   7.188   1.699   1.059  0.4177  0.2371  0.2547
15294SOL    HW247890   7.256   1.663   0.927  1.3851  1.6475  0.3495
15295SOL     OW47891   4.280   4.917   8.847 -0.0081  0.1107  0.8036
15295SOL    HW147892   4.248   4.829   8.868  1.5068 -0.7952 -0.4768
15295SOL    HW247893   4.248   4.934   8.758 -1.2256  1.3487  1.4441
15296SOL     OW47894   1.188  10.952   8.096 -0.1359 -0.1725 -0.1223
15296SOL    HW147895   1.208  11.032   8.146 -1.6329  0.5452 -0.6067
15296SOL    HW247896   1.236  10.883   8.142  0.9130  0.9317  0.5237
15297SOL     OW47897   6.726  10.126   7.190 -0.0515 -0.3901  0.8634
15297SOL    HW147898   6.660  10.056   7.189 -1.9831  1.3110 -1.1549
15297SOL    HW247899   6.781  10.107   7.114 -1.1551  0.7205 -0.2502
15298SOL     OW47900   7.156   3.442   8.867 -0.6463 -0.4137  0.2053
15298SOL    HW147901   7.190   3.395   8.791 -1.5140 -0.4726 -0.1518
15298SOL    HW247902   7.104   3.376   8.914 -1.0218 -0.0876  0.2502
15299SOL     OW47903   6.319  10.335   6.003 -0.0742 -0.2963  0.0853
15299SOL    HW147904   6.289  10.345   6.093 -0.0268 -1.7874  0.2824
15299SOL    HW247905   6.241  10.307   5.954 -0.5479  2.1532 -0.7351
15300SOL     OW47906   2.773   3.990  10.372 -0.1954 -0.1417 -0.2265
15300SOL    HW147907   2.748   3.974  10.281 -1.1408  1.2126 -0.2366
15300SOL    HW247908   2.800   4.081  10.374 -2.9326  0.7680  1.3581
15301SOL     OW47909   6.072   8.686   8.392  0.0278 -0.1755 -0.6100
15301SOL    HW147910   6.092   8.729   8.475 -0.4342  1.0418 -1.0986
15301SOL    HW247911   6.131   8.611   8.389  1.8005  1.1495 -0.3016
15302SOL     OW47912   8.411   9.309   6.768 -0.0990 -0.2874 -0.4897
15302SOL    HW147913   8.396   9.403   6.779  1.7393 -0.1621  1.8451
15302SOL    HW247914   8.482   9.303   6.705 -0.5143 -0.1695 -0.9815
15303SOL     OW47915   8.910   2.053   6.985  0.3437 -0.0321 -0.1354
15303SOL    HW147916   8.944   2.082   7.070 -0.0292  0.5014 -0.1641
15303SOL    HW247917   8.886   2.134   6.940  2.0123 -0.1990 -1.4056
15304SOL     OW47918  10.250   5.600   4.508  0.1923  0.1532 -0.5332
15304SOL    HW147919  10.288   5.643   4.584  1.2068 -1.8006  0.1031
15304SOL    HW247920  10.317   5.608   4.440  0.4718 -0.6036 -0.3476
15305SOL     OW47921   3.488   9.087   3.323 -0.4553  0.5888 -0.1386
15305SOL    HW147922   3.471   9.055   3.411  0.4041 -2.2197 -0.8967
15305SOL    HW247923   3.583   9.098   3.319 -0.2585 -1.0869 -1.1877
15306SOL     OW47924  10.671   9.145   1.680 -0.5372  0.3788 -0.2026
15306SOL    HW147925  10.618   9.136   1.759 -1.1812  1.3338 -0.5003
15306SOL    HW247926  10.652   9.067   1.629  0.7606 -0.8165  1.0659
15307SOL     OW47927   3.788   3.076   8.874 -0.0972 -0.0424 -0.1607
15307SOL    HW147928   3.763   3.136   8.804  1.2934 -0.3540 -0.9547
15307SOL    HW247929   3.847   3.013   8.833  2.1223  0.7488  1.6163
15308SOL     OW47930   1.396   2.499   6.143  0.4209  1.0995  0.2503
15308SOL    HW147931   1.447   2.465   6.217 -1.9765  0.5552  1.7479
15308SOL    HW247932   1.435   2.584   6.125  2.2799  0.4344  0.8678
15309SOL     OW47933  11.018   9.466   5.964 -0.1192  0.6894  0.2051
15309SOL    HW147934  11.088   9.402   5.955 -1.8283 -1.1681 -0.6773
15309SOL    HW247935  11.039   9.534   5.899  0.5668 -0.1189 -0.4387
15310SOL     OW47936  10.384   1.244   9.964 -0.0036 -0.5530  0.2844
15310SOL    HW147937  10.468   1.200   9.974  0.5238  0.4283  0.3138
15310SOL    HW247938  10.397   1.329  10.007 -1.0797 -0.4857  0.4897
15311SOL     OW47939   1.715   9.454   5.685 -0.3988  0.8450 -0.4474
15311SOL    HW147940   1.655   9.495   5.747  1.6021  0.2514  2.0688
15311SOL    HW247941   1.788   9.515   5.678 -0.6716  0.9917 -2.4489
15312SOL     OW47942   6.712   8.740   3.462 -0.2453  0.0799 -0.3068
15312SOL    HW147943   6.698   8.826   3.423 -0.0138 -0.5788 -1.9220
15312SOL    HW247944   6.645   8.684   3.423 -0.3003 -0.5257  0.6093
15313SOL     OW47945  10.631   6.659   5.864 -0.4477 -0.2183 -0.2654
15313SOL    HW147946  10.559   6.694   5.811  0.2374  0.6971 -0.6298
15313SOL    HW247947  10.610   6.566   5.874 -2.0424  0.1593  0.2517
15314SOL     OW47948   5.061   9.242   5.553 -0.0076 -0.6008  0.1531
15314SOL    HW147949   5.108   9.161   5.572  0.8970 -0.0932  0.1207
15314SOL    HW247950   5.079   9.299   5.627 -0.4559 -0.3390  0.0692
15315SOL     OW47951  10.265   1.663   8.379 -0.2776 -0.1561 -0.6515
15315SOL    HW147952  10.225   1.596   8.433 -1.1218  0.1882 -0.8397
15315SOL    HW247953  10.208   1.669   8.302  0.0538  0.4413 -0.8549
15316SOL     OW47954   2.379   8.412   6.609 -0.0187 -0.4126 -0.0710
15316SOL    HW147955   2.449   8.408   6.674 -1.1056 -1.4834  1.0895
15316SOL    HW247956   2.423   8.395   6.525  1.2011 -0.4058  0.5411
15317SOL     OW47957   3.590   3.400   2.379  0.7809  0.2072  0.2124
15317SOL    HW147958   3.562   3.470   2.320  0.5044  0.3834  0.5509
15317SOL    HW247959   3.590   3.321   2.325  1.2260  0.4863 -0.2094
15318SOL     OW47960   6.320   1.242   6.830 -0.4365  0.3173 -0.5635
15318SOL    HW147961   6.379   1.181   6.785 -0.8267 -0.9010  0.5155
15318SOL    HW247962   6.292   1.303   6.762  0.0843 -0.6168 -1.6542
15319SOL     OW47963   7.966   2.708   6.424  0.8552  0.1825  0.1618
15319SOL    HW147964   8.052   2.727   6.461  0.7477  0.1065  0.4513
15319SOL    HW247965   7.949   2.781   6.365  0.9878  0.3528  0.3330
15320SOL     OW47966   8.354   3.660   9.455 -0.6358 -0.1824  0.1862
15320SOL    HW147967   8.297   3.721   9.503 -2.8797 -1.7143 -0.3547
15320SOL    HW247968   8.342   3.684   9.363  1.4588  0.9341  0.1493
15321SOL     OW47969   6.535   2.188   0.228 -0.3602 -0.3865 -0.4593
15321SOL    HW147970   6.504   2.143   0.149 -2.5203 -1.0614  0.7076
15321SOL    HW247971   6.483   2.267   0.233  0.1437 -0.0775  0.0266
15322SOL     OW47972   3.571   5.463   7.148 -0.0840 -0.1757 -0.3284
15322SOL    HW147973   3.481   5.485   7.125 -0.2277  0.4179  0.7145
15322SOL    HW247974   3.598   5.533   7.209 -0.2020 -2.3133  2.3806
15323SOL     OW47975  10.599   7.659   8.337 -0.1632  0.0219  0.0511
15323SOL    HW147976  10.639   7.738   8.300 -0.4185 -0.2816 -0.9017
15323SOL    HW247977  10.626   7.589   8.278 -0.6977 -0.4583  0.3693
15324SOL     OW47978   5.141   0.592   0.476 -0.4325 -0.1845 -0.4251
15324SOL    HW147979   5.098   0.549   0.550  1.0066  0.2970  0.7200
15324SOL    HW247980   5.107   0.681   0.478 -0.8990 -0.3499 -0.7679
15325SOL     OW47981   5.327   0.054   3.155  0.0706 -0.2616 -0.1884
15325SOL    HW147982   5.385   0.062   3.079 -1.5571  0.1154 -1.4619
15325SOL    HW247983   5.336  -0.037   3.182  0.2878 -0.5495 -1.1709
15326SOL     OW47984   8.853   5.067   3.573  0.4268  0.0259 -0.5191
15326SOL    HW147985   8.893   4.998   3.627 -1.0370 -0.0490  0.5106
15326SOL    HW247986   8.763   5.073   3.604 -0.2095  0.6392 -2.3489
15327SOL     OW47987   5.261   3.797   8.928 -0.8020  0.4492 -0.1803
15327SOL    HW147988   5.285   3.889   8.943 -0.8741  0.3053  0.8981
15327SOL    HW247989   5.167   3.793   8.944 -0.7611  0.1482  0.0002
15328SOL     OW47990   2.574   0.354   8.196 -0.5207  0.0579  0.4337
15328SOL    HW147991   2.545   0.272   8.155  2.2727 -0.7581 -0.1556
15328SOL    HW247992   2.665   0.364   8.166 -0.0243  2.1535  2.3882
15329SOL     OW47993   0.352   4.199   2.190  0.0374 -0.2125  0.3922
15329SOL    HW147994   0.260   4.177   2.204 -0.1339  0.1019 -0.2165
15329SOL    HW247995   0.399   4.120   2.217 -0.3855 -0.2737  0.9790
15330SOL     OW47996   1.309   9.041   5.038  0.4647  0.4030 -0.2272
15330SOL    HW147997   1.230   9.081   5.003 -0.2943 -0.9606 -0.1755
15330SOL    HW247998   1.278   8.985   5.109  1.4461 -0.3375 -0.3538
15331SOL     OW47999   5.829   0.847   5.045 -0.6076  0.6809 -0.1728
15331SOL    HW148000   5.754   0.898   5.014 -1.2586 -0.1037  0.0741
15331SOL    HW248001   5.814   0.759   5.009 -0.6719  0.0943  1.2298
15332SOL     OW48002   3.476   3.547   0.598 -0.0585  0.0375  0.7603
15332SOL    HW148003   3.551   3.487   0.598  2.6753  3.1840  0.5801
15332SOL    HW248004   3.453   3.556   0.505 -0.2213 -0.4202  0.7547
15333SOL     OW48005   7.943   3.394  10.079  0.1870  0.4418 -0.2880
15333SOL    HW148006   8.038   3.398  10.088  0.3755 -1.8473 -0.7324
15333SOL    HW248007   7.913   3.360  10.163  0.1740 -2.4475 -1.3591
15334SOL     OW48008   3.757  11.010   8.359 -0.4072  0.1796  0.2359
15334SOL    HW148009   3.792  10.927   8.390  0.5527  0.8396  0.9879
15334SOL    HW248010   3.809  11.031   8.282 -2.6512 -1.3530 -1.8423
15335SOL     OW48011   5.969   8.055   8.863  0.1642 -0.1623 -0.2937
15335SOL    HW148012   5.936   8.064   8.952 -1.2368 -4.2400 -0.1781
15335SOL    HW248013   6.064   8.063   8.872 -0.0760  1.6296  1.1557
15336SOL     OW48014   5.853   1.311   3.462  0.0128  0.7604 -0.2614
15336SOL    HW148015   5.916   1.352   3.521  0.5101 -0.2525 -0.0847
15336SOL    HW248016   5.864   1.217   3.475  0.7964  0.4481 -2.6084
15337SOL     OW48017   5.906   9.422  10.009  0.2385 -0.1456  0.0748
15337SOL    HW148018   5.978   9.443   9.949 -0.1579 -0.2764 -0.4596
15337SOL    HW248019   5.949   9.395  10.090  0.7783  0.8966  0.1536
15338SOL     OW48020   1.381   1.920   8.197 -0.8974  0.0156  0.5957
15338SOL    HW148021   1.295   1.932   8.157  0.0190 -0.5336 -1.7135
15338SOL    HW248022   1.382   1.829   8.227 -0.5876 -0.4872 -0.8743
15339SOL     OW48023   3.775   1.956   3.863  0.5847  0.4154  0.6972
15339SOL    HW148024   3.773   1.903   3.942  0.6697  0.1340  0.5118
15339SOL    HW248025   3.760   1.893   3.792 -2.0471  0.9841  0.6492
15340SOL     OW48026   7.142  11.060   3.662  0.2478 -0.2482 -0.0832
15340SOL    HW148027   7.177  11.007   3.591  1.5583  0.5694 -0.0865
15340SOL    HW248028   7.214  11.069   3.724 -0.7739 -0.6902  1.2251
15341SOL     OW48029   7.477   0.478   4.523 -0.3859  0.2431  0.7651
15341SOL    HW148030   7.532   0.553   4.497  0.3323 -0.1413  1.1359
15341SOL    HW248031   7.411   0.472   4.454  1.1170 -0.3885 -0.6812
15342SOL     OW48032   5.636   5.415   9.315 -0.4047  0.2464  0.2364
15342SOL    HW148033   5.545   5.444   9.327 -1.0101 -1.1001 -0.6983
15342SOL    HW248034   5.639   5.386   9.224  1.0994  0.6707  0.1416
15343SOL     OW48035   4.568   3.270   1.605 -0.2899  0.0105 -0.4853
15343SOL    HW148036   4.588   3.185   1.566 -0.1623  0.1607 -0.7495
15343SOL    HW248037   4.589   3.334   1.537  0.4251  0.3149  0.0108
15344SOL     OW48038   2.090   4.425   7.921 -0.1558  0.0760  0.4370
15344SOL    HW148039   2.076   4.513   7.956  0.0781 -0.3712  1.7290
15344SOL    HW248040   2.081   4.368   7.998  0.1752 -0.9785 -0.2939
15345SOL     OW48041   5.202   1.665   3.218 -0.4408  0.1025  0.4835
15345SOL    HW148042   5.266   1.598   3.192  0.5213  1.0595  0.2848
15345SOL    HW248043   5.120   1.636   3.179  0.4478  0.2100 -1.6022
15346SOL     OW48044   6.378   9.437   1.796 -0.0936  0.4412  0.3661
15346SOL    HW148045   6.442   9.486   1.745 -0.8458 -0.5337 -1.5885
15346SOL    HW248046   6.429   9.370   1.841  0.5360  1.1117  0.6725
15347SOL     OW48047  10.816   2.913   9.292  0.8049 -0.0027 -0.3098
15347SOL    HW148048  10.842   2.951   9.376 -0.1983 -0.7403  0.3529
15347SOL    HW248049  10.899   2.888   9.250  1.2677 -0.5651  0.9075
15348SOL     OW48050   1.123   1.862   6.215 -0.0600  0.6281 -0.1919
15348SOL    HW148051   1.177   1.823   6.146 -0.8642  1.4749 -1.3369
15348SOL    HW248052   1.184   1.917   6.264  1.2414 -2.3660  1.8357
15349SOL     OW48053  10.898   1.328   3.444  0.0708 -0.1427  0.3728
15349SOL    HW148054  10.827   1.347   3.506  1.0851  0.2757  1.4492
15349SOL    HW248055  10.975   1.315   3.499  0.6945 -1.3510 -0.7282
15350SOL     OW48056   5.213   9.710   7.052  0.3587  0.2914  0.2497
15350SOL    HW148057   5.294   9.669   7.082  0.2286 -0.5217 -0.4708
15350SOL    HW248058   5.161   9.719   7.131  0.0220 -1.8078  0.3376
15351SOL     OW48059   0.017   9.887   0.432 -0.3208 -0.0031 -0.0151
15351SOL    HW148060   0.043   9.804   0.472  0.1902  0.3253  0.3479
15351SOL    HW248061   0.098   9.940   0.432 -0.7429  0.6556  0.1734
15352SOL     OW48062   1.380  10.364   3.847  0.3559  0.4988  0.4016
15352SOL    HW148063   1.315  10.299   3.820  1.1056 -0.0266 -0.1944
15352SOL    HW248064   1.446  10.313   3.894  2.1612  0.3656 -2.0887
15353SOL     OW48065   7.230   3.108   9.964  0.4061 -0.2665  0.9910
15353SOL    HW148066   7.159   3.162   9.929  1.2244 -0.3889 -1.0023
15353SOL    HW248067   7.215   3.022   9.925  3.5512  0.5309 -2.5304
15354SOL     OW48068   4.666  11.097   1.805 -0.2956 -0.2815 -0.1983
15354SOL    HW148069   4.728  11.169   1.793  0.0412 -0.7180 -1.1477
15354SOL    HW248070   4.704  11.044   1.876  0.0476 -0.1522 -0.2830
15355SOL     OW48071   5.094   3.694   2.607  0.1103  0.8037 -0.1186
15355SOL    HW148072   5.092   3.680   2.512  2.1322  1.2778 -0.2744
15355SOL    HW248073   5.136   3.615   2.642  0.4139  1.1190  0.2447
15356SOL     OW48074   3.771   1.150   5.207 -0.4481 -0.1919 -0.5672
15356SOL    HW148075   3.703   1.094   5.168  0.5477 -0.6030 -1.7860
15356SOL    HW248076   3.835   1.089   5.242 -0.0156  0.1826 -0.7026
15357SOL     OW48077   6.754   8.902  11.047  0.1814 -0.3080 -0.2819
15357SOL    HW148078   6.765   8.983  10.996  1.6588  0.7197  1.5487
15357SOL    HW248079   6.832   8.850  11.027  0.5595 -0.0837  0.5757
15358SOL     OW48080   6.582   0.136  10.911  0.1386  0.3077  0.3967
15358SOL    HW148081   6.523   0.201  10.950 -1.3578 -0.9301  0.2898
15358SOL    HW248082   6.564   0.142  10.817 -0.2546 -0.4854  0.4200
15359SOL     OW48083   1.810   1.684   8.647  0.0353  0.1704  0.1099
15359SOL    HW148084   1.819   1.691   8.552  0.5181  0.2903  0.1575
15359SOL    HW248085   1.723   1.720   8.665 -0.6732 -1.2231 -0.4188
15360SOL     OW48086   0.462  10.380   7.135 -0.2360  0.0747  0.3221
15360SOL    HW148087   0.495  10.468   7.118  1.1300 -0.2226  1.2779
15360SOL    HW248088   0.423  10.352   7.052 -1.1625  1.7543  0.1591
15361SOL     OW48089   3.714   1.330   2.166 -0.5433 -0.0035  0.4958
15361SOL    HW148090   3.687   1.259   2.224 -1.5895  0.3490  0.4557
15361SOL    HW248091   3.661   1.405   2.193  0.0065  0.5577  0.0409
15362SOL     OW48092   7.819   7.179   1.352  0.4056 -0.1506 -0.0586
15362SOL    HW148093   7.844   7.187   1.260  1.8568  0.5527  0.3732
15362SOL    HW248094   7.773   7.260   1.372  0.6638 -0.0222  0.0108
15363SOL     OW48095   6.294  10.804   5.020 -0.1517 -0.6320 -0.0539
15363SOL    HW148096   6.378  10.826   4.978  0.1178  2.5404  1.8138
15363SOL    HW248097   6.319  10.765   5.104 -0.4827  0.4700  0.5787
15364SOL     OW48098   1.965   0.614  10.942 -0.4621  0.4109 -0.1779
15364SOL    HW148099   1.997   0.701  10.918 -0.1303  0.4738  0.4742
15364SOL    HW248100   2.008   0.555  10.880 -0.8462  0.7263 -0.7550
15365SOL     OW48101   8.599   1.454   2.493 -0.5355  0.0079  0.1682
15365SOL    HW148102   8.553   1.438   2.410 -0.4741  0.2231  0.0924
15365SOL    HW248103   8.582   1.546   2.513 -0.5350 -0.0383  0.3867
15366SOL     OW48104  10.986   3.463   9.165 -0.8353  0.3086 -0.0666
15366SOL    HW148105  11.017   3.553   9.172 -0.4685  0.2107 -0.3397
15366SOL    HW248106  10.899   3.463   9.205 -0.7625  0.7433  0.0904
15367SOL     OW48107   2.266   1.737  10.600  0.4739 -0.1290 -0.0295
15367SOL    HW148108   2.315   1.774  10.527 -0.8348 -0.5072 -1.1484
15367SOL    HW248109   2.185   1.705  10.560  0.7068 -2.4402  1.1888
15368SOL     OW48110   2.388   1.030   8.116 -0.0495  0.1433  0.6314
15368SOL    HW148111   2.479   1.041   8.088 -0.0310 -0.9997  0.1910
15368SOL    HW248112   2.366   0.940   8.090 -1.5851  0.6928 -0.0467
15369SOL     OW48113   3.935   6.954   4.104  0.7591 -0.0358 -0.2481
15369SOL    HW148114   3.890   6.900   4.039  2.1223 -1.8528  0.2296
15369SOL    HW248115   3.961   6.892   4.173  0.2651  1.6566  1.5488
15370SOL     OW48116  10.069   3.637  10.582 -0.2265 -0.4002  0.5383
15370SOL    HW148117   9.994   3.602  10.630 -0.4421  0.2619  0.6860
15370SOL    HW248118  10.036   3.717  10.541 -0.2439 -1.2660 -1.2505
15371SOL     OW48119   5.914   2.130   6.407 -0.3677 -0.1412  0.2557
15371SOL    HW148120   5.832   2.116   6.454 -0.9694  0.7295 -0.4871
15371SOL    HW248121   5.964   2.190   6.462  0.1500 -1.3316  1.1142
15372SOL     OW48122   6.784   9.834   2.985  0.0981  0.0857  0.2195
15372SOL    HW148123   6.861   9.830   2.929 -1.1032  1.1151 -1.5915
15372SOL    HW248124   6.780   9.925   3.014  1.5612 -0.6994  3.3930
15373SOL     OW48125  10.893   5.078   0.272  0.1571 -0.1149  0.3260
15373SOL    HW148126  10.965   5.091   0.210  0.7483 -1.8664  0.5763
15373SOL    HW248127  10.932   5.093   0.358  0.0851 -0.4602  0.4227
15374SOL     OW48128   3.212   1.344   1.642 -0.1272  0.3473 -0.1193
15374SOL    HW148129   3.295   1.391   1.639  0.2832 -0.1123  2.3736
15374SOL    HW248130   3.145   1.412   1.631  0.4918  1.3933  2.1199
15375SOL     OW48131   6.075   0.834  10.505 -0.3708 -0.7186 -0.0091
15375SOL    HW148132   6.164   0.833  10.468 -0.8620 -1.9987 -1.2853
15375SOL    HW248133   6.088   0.846  10.599  1.2178 -1.6385 -0.0695
15376SOL     OW48134   2.250   5.396   5.937  0.1925 -0.1443 -0.1426
15376SOL    HW148135   2.179   5.376   5.875  0.4665  1.3142 -0.9727
15376SOL    HW248136   2.330   5.384   5.887  0.4503  0.2362  0.1722
15377SOL     OW48137   4.004   4.676   2.747  0.7561 -0.4460 -0.3576
15377SOL    HW148138   4.080   4.725   2.715  0.8827 -0.4787 -0.1153
15377SOL    HW248139   3.977   4.724   2.826  1.1604 -1.0240  0.1399
15378SOL     OW48140   5.459  10.234   6.184 -0.2231  0.5514  0.0673
15378SOL    HW148141   5.383  10.176   6.193  0.9661 -1.1054 -0.0959
15378SOL    HW248142   5.422  10.316   6.150 -2.0522  0.1509  0.9336
15379SOL     OW48143   9.175  10.112   7.168  0.4023 -0.4329  0.2237
15379SOL    HW148144   9.263  10.149   7.180  1.5262 -3.1295  1.0013
15379SOL    HW248145   9.166  10.103   7.073  0.6673  0.4609  0.0960
15380SOL     OW48146   4.840   0.177   1.499  0.4410  0.1405 -0.4127
15380SOL    HW148147   4.782   0.234   1.448 -0.3571  1.1055  1.4623
15380SOL    HW248148   4.879   0.236   1.564  0.5710 -1.2108  0.7794
15381SOL     OW48149   3.427   7.665   7.058 -0.7823  0.5504 -0.5013
15381SOL    HW148150   3.397   7.644   6.970 -2.1732  1.5117 -0.2834
15381SOL    HW248151   3.351   7.648   7.114 -1.0368  3.2007  0.0541
15382SOL     OW48152   8.269   5.682   1.240  0.1405  0.0061 -0.4696
15382SOL    HW148153   8.236   5.720   1.159 -1.3068  0.5664  0.3533
15382SOL    HW248154   8.237   5.592   1.239  1.3782 -0.4456 -1.1957
15383SOL     OW48155   7.022   6.425   7.788  0.0012 -0.0512 -0.0119
15383SOL    HW148156   7.049   6.432   7.696 -0.6290 -1.5104 -0.3246
15383SOL    HW248157   6.965   6.348   7.791  1.5283 -1.1953  1.9731
15384SOL     OW48158   3.367   1.442   4.530  0.1372  0.3721 -0.9118
15384SOL    HW148159   3.443   1.494   4.558 -0.8292  1.4868 -0.2691
15384SOL    HW248160   3.404   1.357   4.507  1.4350  0.4693  0.6009
15385SOL     OW48161   0.597   9.712   1.105 -0.7489 -0.1471 -0.1325
15385SOL    HW148162   0.579   9.637   1.162 -1.6591 -0.4526 -0.7976
15385SOL    HW248163   0.575   9.788   1.158 -1.1077 -0.4141  0.1107
15386SOL     OW48164   2.876   0.826   7.215  0.0366  0.3597 -0.1847
15386SOL    HW148165   2.834   0.804   7.132  0.8698  0.9186 -0.7731
15386SOL    HW248166   2.875   0.921   7.218 -1.5694  0.3501  1.3037
15387SOL     OW48167   4.925   5.358  10.921 -0.1227 -0.4210  0.3704
15387SOL    HW148168   4.989   5.291  10.898  1.9498  1.1375  1.2864
15387SOL    HW248169   4.911   5.407  10.839 -1.0051 -1.4038 -0.0914
15388SOL     OW48170   1.534   6.821   6.076 -0.0913  0.1181  0.1048
15388SOL    HW148171   1.542   6.736   6.033 -0.2701 -0.1882  0.6589
15388SOL    HW248172   1.623   6.854   6.081 -0.2514  1.0766 -2.2656
15389SOL     OW48173   5.988   5.373  11.039  0.7945 -0.4219 -0.4177
15389SOL    HW148174   6.072   5.363  11.084 -0.5011  1.2238  2.6149
15389SOL    HW248175   6.007   5.433  10.966  2.3810 -0.7363 -0.3083
15390SOL     OW48176   7.360   8.768   7.747 -0.3820 -0.7366 -0.0673
15390SOL    HW148177   7.376   8.768   7.841 -0.8930 -1.6047  0.0307
15390SOL    HW248178   7.371   8.859   7.720  0.8929 -0.6632  0.6354
15391SOL     OW48179   9.093   0.558   6.645 -0.5366 -0.1669 -0.8725
15391SOL    HW148180   9.017   0.610   6.674 -0.8895 -0.0716 -1.9051
15391SOL    HW248181   9.167   0.617   6.653 -0.8699  0.3679 -1.6192
15392SOL     OW48182   2.731   1.633   2.567 -0.3706 -0.0939  0.5680
15392SOL    HW148183   2.638   1.654   2.563 -0.3406  0.9179  3.0640
15392SOL    HW248184   2.741   1.588   2.651  1.2612 -1.0196 -0.0898
15393SOL     OW48185   7.287   2.109   5.236 -0.7232 -0.3511  0.2117
15393SOL    HW148186   7.286   2.024   5.282 -1.2574  0.0619  0.9820
15393SOL    HW248187   7.233   2.166   5.291 -1.5652  0.1018 -1.0608
15394SOL     OW48188   4.518   8.732   3.123  0.0557 -0.3855 -0.9496
15394SOL    HW148189   4.612   8.749   3.127 -0.2492  1.3678 -0.1887
15394SOL    HW248190   4.481   8.810   3.081 -1.3455  0.5044  1.6884
15395SOL     OW48191   8.074   1.134   6.877  0.2467 -0.1467 -0.4248
15395SOL    HW148192   8.126   1.060   6.909 -0.9832 -0.4196  1.0491
15395SOL    HW248193   8.133   1.179   6.817  2.4524 -0.0974  1.5983
15396SOL     OW48194   2.541   5.220   7.580 -0.4042 -0.4871 -0.1203
15396SOL    HW148195   2.491   5.301   7.588 -2.0078 -1.5822  1.9677
15396SOL    HW248196   2.519   5.170   7.659  1.6160 -2.3794 -0.6474
15397SOL     OW48197   5.139   3.552   5.851 -0.1778 -0.1526  0.2227
15397SOL    HW148198   5.139   3.522   5.760  1.0816 -1.5860  0.6641
15397SOL    HW248199   5.195   3.630   5.850 -1.6905  0.9946 -0.5250
15398SOL     OW48200   3.569   0.788   1.907 -0.0043 -0.3273 -0.3335
15398SOL    HW148201   3.663   0.773   1.900  0.2984 -0.0130  2.2574
15398SOL    HW248202   3.550   0.852   1.838  1.9580  0.6977  0.0062
15399SOL     OW48203   2.073   1.951   7.369 -0.3144  0.4465  0.7418
15399SOL    HW148204   2.145   2.013   7.373  0.9028 -0.9405  0.9313
15399SOL    HW248205   2.063   1.919   7.458 -0.2327 -0.3941  0.4576
15400SOL     OW48206   4.168  10.062   1.512  0.0162  0.1970 -0.4576
15400SOL    HW148207   4.242  10.026   1.562 -1.2402  0.2773  1.5721
15400SOL    HW248208   4.166  10.011   1.432  0.2851 -2.0396  0.8845
15401SOL     OW48209   2.025  10.636   4.866 -0.0116  0.1988  0.3743
15401SOL    HW148210   2.051  10.569   4.803  0.0280  0.5055  0.0616
15401SOL    HW248211   2.024  10.591   4.951  0.0940 -0.1742  0.1768
15402SOL     OW48212   6.059   5.962   2.210 -0.6266 -0.7285 -0.0300
15402SOL    HW148213   6.127   6.027   2.192  0.6165 -1.9035  0.2569
15402SOL    HW248214   6.056   5.908   2.131 -2.2963  0.1863 -0.6337
15403SOL     OW48215   0.750   1.766   6.147 -0.3279  0.3011  0.2191
15403SOL    HW148216   0.657   1.768   6.168 -0.6120  1.2978 -1.0067
15403SOL    HW248217   0.758   1.700   6.078  0.0028 -0.3108  0.8322
15404SOL     OW48218   4.779   2.128   2.459  0.3217 -0.7581  0.5792
15404SOL    HW148219   4.753   2.073   2.534  0.3268  0.3889  1.4496
15404SOL    HW248220   4.832   2.198   2.498 -0.0602  0.1209 -0.4451
15405SOL     OW48221   8.339   2.775   3.113  0.2559  0.2223  0.5642
15405SOL    HW148222   8.249   2.802   3.095  0.2010 -0.1693  0.2608
15405SOL    HW248223   8.355   2.805   3.203 -0.5477 -0.6883  1.0306
15406SOL     OW48224   5.500   7.534   0.862 -0.4986  0.1703 -0.1707
15406SOL    HW148225   5.438   7.545   0.934 -0.0057 -0.6083  0.3924
15406SOL    HW248226   5.566   7.601   0.876  0.6683 -1.1967  1.2841
15407SOL     OW48227   2.023   8.740   1.143  0.1180  0.0600  0.2186
15407SOL    HW148228   2.091   8.679   1.115  0.3881 -0.1102  1.1810
15407SOL    HW248229   2.061   8.827   1.131  0.4411 -0.0282  0.5577
15408SOL     OW48230   4.279   5.282   4.063 -0.1066  0.5826 -0.5859
15408SOL    HW148231   4.268   5.228   3.985  1.4695  0.9591 -1.1188
15408SOL    HW248232   4.345   5.236   4.115 -3.0205 -1.1090  1.9544
15409SOL     OW48233   5.595   0.902   3.522 -0.2389  0.1468  0.4721
15409SOL    HW148234   5.534   0.931   3.454  1.7180  0.4735 -1.2372
15409SOL    HW248235   5.588   0.806   3.520  1.2986  0.0099 -1.7570
15410SOL     OW48236   0.912  10.445   6.451 -0.3314  0.3330 -0.2480
15410SOL    HW148237   0.907  10.425   6.357  0.1662 -0.2863 -0.1498
15410SOL    HW248238   0.922  10.540   6.454  0.1898  0.3100 -0.8544
15411SOL     OW48239   1.675   6.938   3.422 -0.1081  0.3490 -0.6566
15411SOL    HW148240   1.744   6.943   3.488  0.2128  3.2393 -1.0858
15411SOL    HW248241   1.696   6.860   3.371  2.3071  0.6020 -0.1682
15412SOL     OW48242   8.000   1.344   7.437  0.3714  0.3742 -0.1004
15412SOL    HW148243   8.007   1.299   7.353  0.4014  0.8691 -0.3680
15412SOL    HW248244   8.064   1.300   7.493 -2.1877 -2.4976  0.8526
15413SOL     OW48245   6.945   0.285   9.086 -0.3435 -0.0315  0.4231
15413SOL    HW148246   6.868   0.324   9.044 -0.6895 -2.1937 -1.0973
15413SOL    HW248247   6.984   0.229   9.019  1.8326 -0.0099  1.5759
15414SOL     OW48248   0.856   2.436   3.385  0.0326  0.1088 -0.0137
15414SOL    HW148249   0.888   2.449   3.474 -1.3506 -0.5403  0.6175
15414SOL    HW248250   0.879   2.345   3.365  2.4369  0.9125 -1.2708
15415SOL     OW48251   7.943   1.120  10.801  0.2899  0.2812 -0.0044
15415SOL    HW148252   8.033   1.106  10.770 -0.3231  1.2221 -2.3732
15415SOL    HW248253   7.943   1.081  10.889  2.9925  0.2362  0.0848
15416SOL     OW48254   1.432   0.070   6.474  0.5949  0.1668  0.2684
15416SOL    HW148255   1.399   0.127   6.404 -0.5515 -1.0188 -0.1926
15416SOL    HW248256   1.479   0.000   6.428 -0.5836 -0.8900  0.6201
15417SOL     OW48257   7.062   3.948   1.904 -0.1336 -0.4268 -0.4211
15417SOL    HW148258   6.974   3.912   1.895  0.0525 -0.5590 -1.9147
15417SOL    HW248259   7.071   4.009   1.831  1.3770 -1.1939 -0.9230
15418SOL     OW48260   8.974   9.370   8.750 -0.0477  0.5944  0.0922
15418SOL    HW148261   8.963   9.432   8.678  0.3640  0.7705  0.1809
15418SOL    HW248262   9.055   9.396   8.793  0.2191 -0.0999  0.0299
15419SOL     OW48263   8.538   0.834   8.041 -0.1287 -0.0463  0.4244
15419SOL    HW148264   8.502   0.921   8.029  1.4436  0.4016 -1.4656
15419SOL    HW248265   8.466   0.775   8.019 -0.5683  0.7930 -0.4511
15420SOL     OW48266  11.079   1.571   3.282 -0.7719  0.1156 -0.2406
15420SOL    HW148267  11.169   1.584   3.255  0.0241 -1.3750  1.4254
15420SOL    HW248268  11.049   1.495   3.232 -0.9040  0.2433 -0.3573
15421SOL     OW48269   1.878   5.712   6.249  0.0402 -0.3404 -0.5429
15421SOL    HW148270   1.949   5.755   6.199  0.6545  0.1287  0.6975
15421SOL    HW248271   1.923   5.644   6.299 -0.3638  0.0380  0.3421
15422SOL     OW48272   1.795  10.282   0.748  0.4140  0.4714 -0.7300
15422SOL    HW148273   1.873  10.229   0.734  0.0047 -0.2086 -0.5200
15422SOL    HW248274   1.822  10.349   0.810  0.7881  0.1254 -0.5117
15423SOL     OW48275   2.145   1.438  10.794  0.5560  0.1019  0.7941
15423SOL    HW148276   2.066   1.390  10.770  0.0036  0.9823  0.7841
15423SOL    HW248277   2.210   1.411  10.729 -0.2376  0.6470 -0.2624
15424SOL     OW48278   5.555   8.195   8.356 -0.5132 -0.1589 -0.2766
15424SOL    HW148279   5.500   8.247   8.414  0.1499  0.0185  0.1959
15424SOL    HW248280   5.562   8.248   8.276 -1.3447 -0.3615 -0.4936
15425SOL     OW48281   0.096   8.923   3.689 -0.6489  0.1923 -0.1158
15425SOL    HW148282   0.109   8.831   3.711  0.8219  0.4697  0.3148
15425SOL    HW248283   0.120   8.970   3.769 -0.2852  0.9886 -0.6746
15426SOL     OW48284   3.495   8.354   4.106 -0.2746  0.0167  0.0255
15426SOL    HW148285   3.492   8.438   4.151 -1.8152  0.0758 -0.1296
15426SOL    HW248286   3.461   8.291   4.171  0.8272 -0.4901  0.1283
15427SOL     OW48287   1.915   1.551   1.560  0.2565  0.0605 -0.1028
15427SOL    HW148288   1.895   1.557   1.653  2.1027  0.6495  0.2837
15427SOL    HW248289   1.927   1.641   1.532  0.3386 -0.1522 -0.7771
15428SOL     OW48290   5.145   8.262   3.086  0.0511 -0.3824 -0.1759
15428SOL    HW148291   5.189   8.183   3.115  0.3591  0.0458  0.5479
15428SOL    HW248292   5.090   8.288   3.160  2.2512  1.7667  0.8403
15429SOL     OW48293   0.001   1.064   2.773 -0.4591  0.2367 -0.4743
15429SOL    HW148294   0.025   1.143   2.822 -0.4176 -0.4621  0.6674
15429SOL    HW248295   0.064   0.998   2.802 -2.4059 -1.0862  1.0316
15430SOL     OW48296   2.826   6.500   3.206  0.2101 -0.1837 -0.4130
15430SOL    HW148297   2.787   6.509   3.119  2.3875  0.4569 -1.3973
15430SOL    HW248298   2.858   6.410   3.209 -0.6041 -0.4697  0.0883
15431SOL     OW48299   2.882   6.641   1.619  0.7635 -0.4566  0.5847
15431SOL    HW148300   2.926   6.574   1.566  3.1526  0.2502  1.5076
15431SOL    HW248301   2.912   6.724   1.581 -3.0034  0.2568 -1.2409
15432SOL     OW48302   0.311   8.030   7.164  0.3742 -0.1268  0.2752
15432SOL    HW148303   0.380   8.034   7.231  0.4420  0.1372  0.1924
15432SOL    HW248304   0.236   7.990   7.208 -0.4103  2.2501  1.2416
15433SOL     OW48305   9.959   7.184   9.946 -0.6592  0.3154  0.0848
15433SOL    HW148306   9.904   7.262   9.940 -0.6887  0.2525 -0.4582
15433SOL    HW248307   9.911   7.116   9.900 -0.0411  0.3099 -0.5606
15434SOL     OW48308   5.925   2.307   4.689 -0.3307 -0.3659  0.1512
15434SOL    HW148309   5.850   2.350   4.648  0.6127  1.0364 -0.1850
15434SOL    HW248310   5.903   2.214   4.689 -1.3519 -0.1522 -1.4277
15435SOL     OW48311   9.815   3.408   8.154  0.0707 -0.0345 -0.4370
15435SOL    HW148312   9.729   3.395   8.113  0.1152  2.9061 -1.7839
15435SOL    HW248313   9.804   3.487   8.208  1.0089 -1.7733  2.5080
15436SOL     OW48314   8.758   2.530   0.185 -0.0382 -0.0460 -0.0628
15436SOL    HW148315   8.669   2.498   0.196 -0.8712  2.2288  0.4795
15436SOL    HW248316   8.812   2.451   0.177 -2.0210 -1.4831  0.0403
15437SOL     OW48317   1.263   9.892   5.434 -0.2741 -0.1103  0.4557
15437SOL    HW148318   1.270   9.925   5.345  0.8087 -0.4950  0.3780
15437SOL    HW248319   1.183   9.840   5.435  0.9187 -2.1110 -0.9963
15438SOL     OW48320   2.724   9.791   6.358 -0.2328  0.4618  0.3913
15438SOL    HW148321   2.792   9.832   6.305 -0.4881 -1.2338 -1.3311
15438SOL    HW248322   2.771   9.749   6.429  0.1624  2.2851  1.2827
15439SOL     OW48323  10.400   2.839   2.974 -0.1426 -0.0341  0.0751
15439SOL    HW148324  10.330   2.891   3.012  0.3481  2.0916 -1.7475
15439SOL    HW248325  10.368   2.813   2.888  0.9669  0.2937 -0.4617
15440SOL     OW48326   5.434   6.043   9.253  0.0598  0.0111  0.6264
15440SOL    HW148327   5.494   6.117   9.256  0.2758 -0.1145 -0.4812
15440SOL    HW248328   5.487   5.967   9.277  0.2338 -0.0311  0.1095
15441SOL     OW48329   7.773   0.552   4.764 -0.5537 -0.3521 -0.2258
15441SOL    HW148330   7.721   0.623   4.803  0.6128  0.8713 -0.8101
15441SOL    HW248331   7.759   0.561   4.670 -1.3932 -1.7259 -0.2556
15442SOL     OW48332   1.799   7.671   4.849  0.0655 -0.0405  0.0773
15442SOL    HW148333   1.767   7.643   4.764 -1.1840 -0.6408  0.7267
15442SOL    HW248334   1.878   7.618   4.864 -0.2974 -0.6790 -0.2486
15443SOL     OW48335   6.261   5.310   4.098 -0.0678 -0.6558 -0.7341
15443SOL    HW148336   6.240   5.244   4.164 -0.7491 -0.3002 -0.5895
15443SOL    HW248337   6.337   5.274   4.052  0.8748 -0.5885  0.6999
15444SOL     OW48338   1.412   6.265   8.043 -0.2068  0.0033 -0.4118
15444SOL    HW148339   1.336   6.317   8.069  0.7671  0.8619  0.8510
15444SOL    HW248340   1.376   6.198   7.985 -1.8030  0.8446 -0.4621
15445SOL     OW48341   5.612   8.310   6.488 -0.6232 -0.3828 -0.2771
15445SOL    HW148342   5.676   8.246   6.519 -0.2344  0.0508 -0.1801
15445SOL    HW248343   5.542   8.256   6.450  0.1455 -0.8519 -1.0868
15446SOL     OW48344   2.194   8.167   1.676 -0.2198 -1.0536 -0.1922
15446SOL    HW148345   2.165   8.093   1.729  1.8330 -1.6915  0.1219
15446SOL    HW248346   2.260   8.211   1.729  0.4759 -0.5522 -1.4269
15447SOL     OW48347   7.046   7.235   4.588 -0.3981  0.1527  0.6187
15447SOL    HW148348   6.960   7.272   4.606 -1.6680 -1.3963 -1.6949
15447SOL    HW248349   7.075   7.279   4.508  0.8274  0.4003  1.1723
15448SOL     OW48350   4.809   9.669   3.516  0.1301 -0.0103 -0.3798
15448SOL    HW148351   4.753   9.684   3.592 -0.5952  0.1328 -0.9320
15448SOL    HW248352   4.760   9.606   3.462 -0.3644  1.4848 -1.7445
15449SOL     OW48353   4.619  11.062   4.327 -0.2135 -0.1162  0.4594
15449SOL    HW148354   4.622  11.129   4.259 -0.4687 -0.6691 -0.1063
15449SOL    HW248355   4.654  11.105   4.404  0.3766  0.4329 -0.1016
15450SOL     OW48356   4.387   9.489   7.925  0.9679 -0.2849  0.2549
15450SOL    HW148357   4.387   9.584   7.918  1.5951 -0.3936 -2.2433
15450SOL    HW248358   4.471   9.462   7.890 -0.0970 -1.8347 -1.3049
15451SOL     OW48359  10.097  10.143   2.043  0.6235 -0.0092  0.0598
15451SOL    HW148360  10.002  10.153   2.038  0.4417 -0.9532  1.2638
15451SOL    HW248361  10.113  10.097   2.126  2.0847 -0.3970 -0.3968
15452SOL     OW48362   4.828   0.881   4.418  0.4243  0.4153  0.6471
15452SOL    HW148363   4.833   0.819   4.491 -0.2717 -1.0561 -0.5095
15452SOL    HW248364   4.767   0.840   4.356  0.8635  1.7097 -0.6850
15453SOL     OW48365   6.826   1.396   7.574 -0.2108 -0.4109  0.6291
15453SOL    HW148366   6.849   1.341   7.650 -0.7574  0.4130  1.4005
15453SOL    HW248367   6.755   1.452   7.605  0.7315  1.1698  0.0618
15454SOL     OW48368   3.122   4.842   7.586 -0.6422  0.1700  0.0084
15454SOL    HW148369   3.051   4.802   7.636  0.3158  0.2001  1.4398
15454SOL    HW248370   3.146   4.920   7.636  1.0681 -0.3726  0.1103
15455SOL     OW48371   5.717   2.893   5.761  0.3059 -0.5031  0.1793
15455SOL    HW148372   5.807   2.924   5.776  0.4124 -0.7847  0.1361
15455SOL    HW248373   5.662   2.966   5.787  0.5335 -0.5026  0.6842
15456SOL     OW48374   5.705   1.186   7.731  0.1805 -0.4037 -0.4107
15456SOL    HW148375   5.707   1.091   7.717 -1.6450 -0.3964 -0.9990
15456SOL    HW248376   5.715   1.223   7.643  0.2135 -0.0521 -0.2622
15457SOL     OW48377   5.898   4.909   9.002  0.4373 -0.3923  0.1647
15457SOL    HW148378   5.899   4.967   9.078  2.4429 -0.8757  0.5612
15457SOL    HW248379   5.930   4.825   9.035 -0.6279 -1.2158 -0.8013
15458SOL     OW48380   4.197   3.177   4.956  0.1770  0.2334  0.2174
15458SOL    HW148381   4.292   3.168   4.950  0.5310  3.4410 -0.4249
15458SOL    HW248382   4.173   3.231   4.881 -1.8949  1.2094  1.4855
15459SOL     OW48383   0.376   4.502   5.566  0.0960  0.0764 -0.0090
15459SOL    HW148384   0.419   4.533   5.486  0.9095 -1.6812 -0.3057
15459SOL    HW248385   0.285   4.485   5.539  0.4221 -0.7393 -0.6593
15460SOL     OW48386   7.884   5.449   9.753 -0.1572 -0.1599  0.3768
15460SOL    HW148387   7.951   5.381   9.767 -1.1936 -1.4608 -0.6931
15460SOL    HW248388   7.810   5.420   9.807 -0.9129 -0.3669 -0.7379
15461SOL     OW48389   1.484   2.985  10.701 -0.0144  0.5315  0.1644
15461SOL    HW148390   1.530   3.068  10.706 -1.1071  1.2118 -0.5670
15461SOL    HW248391   1.398   3.007  10.665 -0.5292 -0.8379  0.4731
15462SOL     OW48392   5.356   5.783   0.336 -0.0793 -0.1508 -0.4431
15462SOL    HW148393   5.341   5.694   0.305 -1.2292  0.3501 -1.4326
15462SOL    HW248394   5.277   5.804   0.386  1.1578 -0.4508  1.7242
15463SOL     OW48395   8.602   8.915   6.276  0.4147  0.1245  0.4503
15463SOL    HW148396   8.661   8.960   6.337  0.3454  0.3409  0.3587
15463SOL    HW248397   8.656   8.892   6.202  0.3332  0.5507  0.2528
15464SOL     OW48398   6.293   8.725   9.648 -0.7446 -0.1293 -0.3171
15464SOL    HW148399   6.330   8.736   9.735  0.4756  0.2469 -0.8574
15464SOL    HW248400   6.369   8.713   9.591 -1.4397  0.8312 -1.5022
15465SOL     OW48401   4.211   6.294   3.185  0.0967  0.3534  0.4193
15465SOL    HW148402   4.193   6.222   3.246  0.1743  2.3207  2.9583
15465SOL    HW248403   4.130   6.344   3.181 -0.8571 -1.1643 -3.4563
15466SOL     OW48404   5.075   2.912  10.056 -0.0127 -0.1160  0.1200
15466SOL    HW148405   5.147   2.880  10.111 -0.1809 -0.0417  0.3824
15466SOL    HW248406   5.106   2.898   9.967  0.0155 -0.7947  0.2334
15467SOL     OW48407   4.111   4.735   8.168  0.3541  0.1746  0.2129
15467SOL    HW148408   4.194   4.739   8.120  0.3247 -1.1794  0.0198
15467SOL    HW248409   4.059   4.806   8.130  0.3215 -0.8483 -1.8314
15468SOL     OW48410  10.183   0.398  10.534  0.0239  0.3135 -0.1998
15468SOL    HW148411  10.271   0.367  10.510 -0.3799 -0.6872 -0.4472
15468SOL    HW248412  10.144   0.426  10.451 -0.0756  0.2480 -0.1756
15469SOL     OW48413   7.037   2.069   8.785  0.2611  0.2399  0.2201
15469SOL    HW148414   7.124   2.076   8.824 -0.0607 -0.4188  1.0678
15469SOL    HW248415   6.978   2.104   8.851 -0.2050 -0.0526 -0.0349
15470SOL     OW48416   3.156   2.918   7.715  0.4156 -0.2555  0.4784
15470SOL    HW148417   3.122   2.917   7.805  1.7737  0.1886  1.0281
15470SOL    HW248418   3.227   2.982   7.718  2.8089 -2.7230 -0.0152
15471SOL     OW48419   4.928   4.630   9.070 -0.6267  0.3197 -0.5808
15471SOL    HW148420   4.878   4.554   9.040 -0.6726 -0.1922  0.7246
15471SOL    HW248421   4.869   4.675   9.131 -0.9756  1.9772 -2.0400
15472SOL     OW48422   3.657  10.007   0.456 -0.0392 -0.0492  0.1253
15472SOL    HW148423   3.732  10.062   0.475  0.1394 -0.7634  1.7342
15472SOL    HW248424   3.603  10.012   0.535 -1.0359 -0.5526 -0.4966
15473SOL     OW48425   3.615   2.655   3.913 -0.0669 -0.4810 -0.3350
15473SOL    HW148426   3.684   2.594   3.889  0.4121  0.7755 -2.4507
15473SOL    HW248427   3.543   2.600   3.944  0.5828 -2.0540 -1.5007
15474SOL     OW48428   0.782   2.782   4.660 -0.4799  0.4385 -0.2765
15474SOL    HW148429   0.812   2.786   4.751 -3.0031 -0.0122  0.6618
15474SOL    HW248430   0.822   2.703   4.625 -0.7744 -0.2918  0.9753
15475SOL     OW48431   5.392   1.422   4.588  0.4704 -0.7642 -0.1131
15475SOL    HW148432   5.424   1.350   4.534  0.5045 -0.8612  0.0361
15475SOL    HW248433   5.455   1.428   4.661 -0.1315 -1.2932  0.4608
15476SOL     OW48434   5.270   7.601   8.739 -0.0596 -0.2454 -0.1757
15476SOL    HW148435   5.334   7.653   8.788  0.8200 -0.2395 -1.2752
15476SOL    HW248436   5.291   7.618   8.647 -0.3927 -1.7439 -0.5681
15477SOL     OW48437   6.971   3.147   0.340 -0.4340 -0.2055  0.2919
15477SOL    HW148438   6.946   3.123   0.251  0.9185 -3.5194  0.6743
15477SOL    HW248439   6.894   3.127   0.393 -0.2350 -1.1085  0.2446
15478SOL     OW48440   8.714   3.226   6.400 -0.7158 -0.2662  0.2495
15478SOL    HW148441   8.673   3.294   6.346  0.1187 -0.1500 -0.2604
15478SOL    HW248442   8.805   3.255   6.410 -0.7231 -0.5511  1.2951
15479SOL     OW48443   9.714   8.283   4.925  0.1767 -0.3639 -0.1484
15479SOL    HW148444   9.660   8.312   4.999 -0.4770  0.0621 -0.7793
15479SOL    HW248445   9.653   8.280   4.851  0.9859 -0.0377 -0.8396
15480SOL     OW48446   5.710   9.769   5.187  0.0458 -0.1569 -0.2104
15480SOL    HW148447   5.750   9.737   5.268  0.3051 -0.9084 -0.6233
15480SOL    HW248448   5.768   9.738   5.118  0.5111  1.5383 -0.6238
15481SOL     OW48449   1.100   7.822   9.474 -0.0011  0.1120  0.2596
15481SOL    HW148450   1.123   7.915   9.472 -1.1244  0.3945 -1.7357
15481SOL    HW248451   1.182   7.777   9.452  0.5679  0.5928  1.3100
15482SOL     OW48452   5.375   7.485   7.173  0.0377 -0.0879 -0.1407
15482SOL    HW148453   5.420   7.499   7.256 -0.4001  0.7310 -0.0247
15482SOL    HW248454   5.354   7.574   7.142  2.1643 -0.2084 -2.2488
15483SOL     OW48455  10.131   6.742   5.540  0.2124 -0.5327 -0.0860
15483SOL    HW148456  10.114   6.698   5.456 -0.4472 -1.1474  0.3597
15483SOL    HW248457  10.193   6.684   5.585 -1.2052 -1.3950  0.7996
15484SOL     OW48458   4.431   3.826   6.033 -0.4111 -0.1646 -0.2304
15484SOL    HW148459   4.479   3.770   6.094 -0.7293 -2.0785 -1.6537
15484SOL    HW248460   4.434   3.779   5.950 -2.7638  0.7910 -0.9236
15485SOL     OW48461   9.893   4.646   4.989 -0.8013 -0.3527  0.4754
15485SOL    HW148462   9.844   4.674   5.066 -1.7227  0.2717 -0.3157
15485SOL    HW248463   9.922   4.558   5.011  0.6809  0.5307  2.3269
15486SOL     OW48464   7.903  10.391   1.257  0.3800  0.2249  0.5395
15486SOL    HW148465   7.910  10.296   1.249  3.0331  0.4732 -1.2460
15486SOL    HW248466   7.854  10.418   1.179  1.7822  0.4487 -0.3061
15487SOL     OW48467   0.320   8.848  10.191  0.7483  0.4764  0.1862
15487SOL    HW148468   0.325   8.941  10.215 -0.9186  0.3620  1.1410
15487SOL    HW248469   0.232   8.838  10.155  0.6146 -0.9080  0.8603
15488SOL     OW48470   7.046   3.022   9.010  0.2896 -0.2248 -0.1360
15488SOL    HW148471   7.108   3.031   8.937 -0.6558 -0.1403 -0.9498
15488SOL    HW248472   7.096   2.977   9.078  1.6534  0.9675 -0.2704
15489SOL     OW48473   1.958  10.834  10.183  0.4389  0.6496  0.1679
15489SOL    HW148474   1.939  10.751  10.226 -1.9449  0.0301 -1.8692
15489SOL    HW248475   2.047  10.823  10.147  2.1419  0.8703  3.8544
15490SOL     OW48476   3.612   2.166   5.943 -0.5023 -0.3581 -0.2149
15490SOL    HW148477   3.575   2.099   6.000  0.4073  0.4152  1.3442
15490SOL    HW248478   3.667   2.117   5.882 -0.6390 -1.1141  0.2480
15491SOL     OW48479  11.060   5.594   5.211  0.1091  0.2385  0.3389
15491SOL    HW148480  11.091   5.617   5.299  0.3410  1.3078 -0.0118
15491SOL    HW248481  10.990   5.530   5.226  1.6657 -1.3437  1.2066
15492SOL     OW48482   5.347   9.820   2.697  0.3540  0.1631  0.0526
15492SOL    HW148483   5.332   9.787   2.609 -0.4137 -0.5586  0.4348
15492SOL    HW248484   5.326   9.914   2.692 -0.2310  0.0136 -0.4101
15493SOL     OW48485   4.891   0.368   1.674  0.4251 -0.1338  0.4335
15493SOL    HW148486   4.840   0.442   1.642  0.8361  0.3000  0.7697
15493SOL    HW248487   4.850   0.345   1.758 -1.4949 -2.1159 -0.9228
15494SOL     OW48488   9.052   2.142   3.632  0.0836  0.3655 -0.4812
15494SOL    HW148489   8.961   2.158   3.607 -0.5101 -1.1995  0.5370
15494SOL    HW248490   9.096   2.119   3.550 -1.1694 -1.8288 -0.5964
15495SOL     OW48491   0.122   7.521   2.075 -0.2823 -0.2095 -0.0249
15495SOL    HW148492   0.173   7.561   2.004 -1.1931  2.1509  0.5581
15495SOL    HW248493   0.047   7.482   2.030  0.3756 -0.8793 -0.5713
15496SOL     OW48494   6.341   9.925   8.970  0.2625  0.1241  0.2360
15496SOL    HW148495   6.280   9.899   9.039 -1.0079  0.8525 -0.5549
15496SOL    HW248496   6.392   9.996   9.008  0.0556  0.0554  0.6467
15497SOL     OW48497   8.562   7.776   7.992 -0.1532  0.2131 -0.5161
15497SOL    HW148498   8.586   7.722   8.067  1.3529  0.9477 -0.4311
15497SOL    HW248499   8.641   7.778   7.938 -0.0157  2.6354 -0.3133
15498SOL     OW48500   1.149   1.403   6.037  0.6191  0.6445  0.2505
15498SOL    HW148501   1.151   1.392   5.942 -2.4265  1.8129 -0.0242
15498SOL    HW248502   1.089   1.475   6.053 -1.0019 -1.1270  3.1522
15499SOL     OW48503   1.514  10.694   1.942  0.3605 -0.3114  0.0203
15499SOL    HW148504   1.503  10.789   1.945 -1.2467 -0.4519 -0.6997
15499SOL    HW248505   1.583  10.676   2.006 -1.6070  0.9838  2.6480
15500SOL     OW48506   6.411   1.199   5.968  0.3602  0.4094  0.2160
15500SOL    HW148507   6.457   1.201   6.052  1.7432 -0.9688 -0.4512
15500SOL    HW248508   6.480   1.183   5.904 -0.6822  1.3035 -1.1826
15501SOL     OW48509   4.265   5.952   5.166  0.8363  0.0845  0.0731
15501SOL    HW148510   4.336   5.927   5.107  1.9743  0.4735  1.2288
15501SOL    HW248511   4.254   6.046   5.152  2.0163  0.4446  1.3818
15502SOL     OW48512   8.043  10.012   6.330  0.1294  0.0146  0.3455
15502SOL    HW148513   7.995  10.089   6.301  0.2341 -0.2811 -0.6365
15502SOL    HW248514   8.127  10.016   6.283  0.2316 -0.5618  0.4690
15503SOL     OW48515   7.245   2.031   6.694 -0.2244 -0.3392 -0.8336
15503SOL    HW148516   7.287   1.969   6.635  0.1429  0.3505 -1.3168
15503SOL    HW248517   7.272   2.004   6.781 -0.5797 -1.2310 -0.9856
15504SOL     OW48518   0.920   4.513   4.400 -0.0132 -0.3214 -0.4304
15504SOL    HW148519   0.986   4.525   4.467  0.5090 -0.5550 -0.8952
15504SOL    HW248520   0.969   4.493   4.320 -0.6031  0.1639 -0.9347
15505SOL     OW48521   6.838   0.454   7.650  0.1834 -0.3147 -0.3059
15505SOL    HW148522   6.755   0.501   7.658  0.6162  0.2582  0.9646
15505SOL    HW248523   6.858   0.425   7.739  0.1736 -2.5317 -0.9738
15506SOL     OW48524   5.532  10.552   4.608 -0.1830  0.0714  0.1120
15506SOL    HW148525   5.530  10.474   4.553 -0.6849 -0.3911  0.7755
15506SOL    HW248526   5.447  10.554   4.650  0.4661 -0.0261  1.4700
15507SOL     OW48527   4.879  10.404   2.320 -0.2860 -0.8119  0.8302
15507SOL    HW148528   4.794  10.413   2.362  0.4441 -0.0074  2.1988
15507SOL    HW248529   4.937  10.372   2.389  0.6369 -0.8623  0.0505
15508SOL     OW48530   7.247   5.990   3.396  0.4177  0.0256 -0.1118
15508SOL    HW148531   7.282   6.062   3.449  0.0450 -0.7127  1.1878
15508SOL    HW248532   7.299   5.991   3.316  1.2805  0.9240  0.4455
15509SOL     OW48533  10.781   2.395   4.107 -0.2205  0.0910 -0.4228
15509SOL    HW148534  10.777   2.376   4.013  0.6895 -0.4025 -0.3699
15509SOL    HW248535  10.763   2.311   4.149  0.6553  0.0239 -0.1658
15510SOL     OW48536   9.845   0.737   9.403 -0.4592  0.1357  0.0651
15510SOL    HW148537   9.879   0.729   9.492 -3.0087 -0.1536  1.0937
15510SOL    HW248538   9.802   0.822   9.401 -1.0543 -0.1657 -0.6143
15511SOL     OW48539   5.446   4.675   2.947 -0.0355  0.1915  0.2932
15511SOL    HW148540   5.371   4.666   2.888 -1.5084  0.6965  2.0013
15511SOL    HW248541   5.513   4.718   2.894 -1.2674  0.5602 -1.0302
15512SOL     OW48542   3.658   0.609   4.301  0.0172  0.1089  0.0490
15512SOL    HW148543   3.602   0.673   4.258  0.8355 -0.6844 -2.3060
15512SOL    HW248544   3.606   0.529   4.303 -0.1741  0.2445  0.9768
15513SOL     OW48545   5.740   6.479   4.392  0.3132  0.0417 -0.0175
15513SOL    HW148546   5.832   6.454   4.392 -0.5413 -3.7306 -0.4355
15513SOL    HW248547   5.729   6.531   4.312  2.1036  0.8672  0.2377
15514SOL     OW48548   1.404   4.863   4.383  0.4114  0.0423  0.3318
15514SOL    HW148549   1.460   4.809   4.438 -0.2896 -0.7055  0.3181
15514SOL    HW248550   1.329   4.885   4.438  0.8747  1.3630  0.4762
15515SOL     OW48551   5.018   2.511   0.680 -0.0238  0.0918  0.0433
15515SOL    HW148552   5.009   2.483   0.771 -2.2090 -0.9003 -0.4084
15515SOL    HW248553   5.066   2.593   0.684 -0.5523  0.3460  2.1443
15516SOL     OW48554  10.433  10.971   9.923  0.3490 -0.0198  0.2408
15516SOL    HW148555  10.410  11.017  10.003 -1.7418  0.4808 -0.5871
15516SOL    HW248556  10.350  10.961   9.876  1.5603  0.2113 -2.1120
15517SOL     OW48557   3.931  10.561   2.125 -0.8351 -0.2944 -0.2102
15517SOL    HW148558   3.886  10.640   2.095  1.7952  1.8339  1.0247
15517SOL    HW248559   3.905  10.552   2.217  0.7114  0.6389  0.3560
15518SOL     OW48560   2.622   7.121   3.334  0.1140 -0.3432  0.3130
15518SOL    HW148561   2.562   7.051   3.361 -1.4486  1.4316  1.7311
15518SOL    HW248562   2.709   7.083   3.343 -0.7066 -2.6664 -0.7635
15519SOL     OW48563   4.437   4.785   0.162  0.0678  0.0089 -0.4538
15519SOL    HW148564   4.353   4.784   0.208  0.3034 -0.9644 -0.0192
15519SOL    HW248565   4.476   4.870   0.185 -0.2304 -0.0709  0.4004
15520SOL     OW48566   3.238   3.218   3.278 -0.0372  0.4433  0.1702
15520SOL    HW148567   3.220   3.241   3.187 -0.2347 -0.9906 -0.1938
15520SOL    HW248568   3.161   3.167   3.305 -0.1695  1.2079  1.2778
15521SOL     OW48569   7.746   9.155   4.509 -0.3865 -0.4873  0.5921
15521SOL    HW148570   7.746   9.243   4.547  0.2243 -0.2493  0.0742
15521SOL    HW248571   7.834   9.121   4.527 -0.8200 -1.2363  1.3224
15522SOL     OW48572   0.622   3.377   7.503 -0.1338 -0.7063  0.0947
15522SOL    HW148573   0.678   3.312   7.463  1.4325  2.3674 -3.2687
15522SOL    HW248574   0.534   3.356   7.473  0.1060 -2.0433  0.2938
15523SOL     OW48575   2.282   8.918   5.116 -0.3290 -0.5826 -0.0964
15523SOL    HW148576   2.187   8.909   5.119 -0.4423  0.6806  1.3640
15523SOL    HW248577   2.309   8.928   5.207  1.2156 -0.9062 -0.4729
15524SOL     OW48578   1.416   0.329   2.112  0.4631  0.3217  0.1547
15524SOL    HW148579   1.337   0.379   2.092 -0.0404  0.0396  1.3800
15524SOL    HW248580   1.471   0.341   2.034 -0.8208  0.4139 -0.7884
15525SOL     OW48581   4.105   2.789   9.630  0.1069  0.4480 -0.1539
15525SOL    HW148582   4.193   2.812   9.660  0.2027 -0.5768  0.4109
15525SOL    HW248583   4.049   2.804   9.707 -0.0445  0.1362 -0.2008
15526SOL     OW48584   2.901   9.652   3.927 -0.4118 -0.0348  0.3191
15526SOL    HW148585   2.913   9.672   3.835  0.0836 -3.6852 -0.5389
15526SOL    HW248586   2.817   9.605   3.931 -1.4600  1.7875  2.1276
15527SOL     OW48587   0.067  10.516   9.385 -0.3988  0.4424 -0.1397
15527SOL    HW148588  -0.013  10.492   9.338 -0.4689 -1.1569  0.7589
15527SOL    HW248589   0.040  10.588   9.443 -1.2087 -0.1457  0.2257
15528SOL     OW48590   3.663   8.236   6.778 -0.0435 -0.1383 -0.7311
15528SOL    HW148591   3.583   8.245   6.830 -0.5970 -1.3337 -1.3350
15528SOL    HW248592   3.726   8.196   6.838 -0.1343  0.0882 -0.4808
15529SOL     OW48593   8.201   2.595   3.999 -0.4284  0.2185 -0.2780
15529SOL    HW148594   8.107   2.612   3.989  0.0447  2.9086 -0.9290
15529SOL    HW248595   8.240   2.626   3.917  1.0899 -0.4306  0.1629
15530SOL     OW48596   4.041   5.445   3.496 -0.3191 -0.8161  0.0476
15530SOL    HW148597   3.987   5.505   3.548  0.3153 -0.1402 -0.0538
15530SOL    HW248598   4.066   5.496   3.419  1.2375 -0.7710  0.5487
15531SOL     OW48599   6.934   1.891   9.462 -0.0828  0.2792 -0.0464
15531SOL    HW148600   6.934   1.841   9.543  1.1920  0.4107  0.0468
15531SOL    HW248601   6.843   1.887   9.432 -0.1868 -1.3771  0.3843
15532SOL     OW48602   4.016   9.028   0.428  0.2460  0.3827  0.0213
15532SOL    HW148603   3.960   9.025   0.505 -1.0334 -0.5715 -0.9016
15532SOL    HW248604   4.098   8.987   0.456 -0.5920 -0.9577  0.5771
15533SOL     OW48605   0.808   7.168   0.094  0.7749  0.3293  0.5680
15533SOL    HW148606   0.720   7.134   0.078  0.4470  1.8025 -1.0024
15533SOL    HW248607   0.805   7.204   0.182 -0.3663  0.8500  0.3224
15534SOL     OW48608   6.523   0.643  11.038  0.0425 -0.2910 -0.2530
15534SOL    HW148609   6.484   0.713  11.090 -0.3896 -0.4383 -0.3726
15534SOL    HW248610   6.547   0.685  10.955  0.3399 -0.1539 -0.1014
15535SOL     OW48611   5.928   4.250   9.165 -0.0087 -0.3401 -0.4654
15535SOL    HW148612   5.835   4.251   9.187  0.1322 -0.7999  0.1804
15535SOL    HW248613   5.970   4.205   9.239  0.5376 -1.5976 -1.5049
15536SOL     OW48614   8.388   3.354   6.502 -0.0843  0.4780 -0.3844
15536SOL    HW148615   8.413   3.440   6.470  1.0453 -0.3303 -1.7721
15536SOL    HW248616   8.305   3.334   6.458  0.0484  0.5270 -0.6538
15537SOL     OW48617  10.804   2.353   4.783 -0.3231 -0.2607 -0.3255
15537SOL    HW148618  10.828   2.405   4.705  0.0795  0.0296 -0.0175
15537SOL    HW248619  10.860   2.275   4.777  1.0074  0.5753  0.5704
15538SOL     OW48620   4.573   7.236   5.056  0.2430 -0.3712  0.0538
15538SOL    HW148621   4.666   7.260   5.062 -0.3630  2.0452  0.8810
15538SOL    HW248622   4.570   7.145   5.083  2.3016 -0.3110  0.6437
15539SOL     OW48623   3.749   5.650   8.694 -0.4218  0.1254  0.2699
15539SOL    HW148624   3.771   5.694   8.611  1.5872  1.5827  1.4913
15539SOL    HW248625   3.796   5.700   8.761 -2.8541 -0.3215  2.4668
15540SOL     OW48626   6.775   9.698   7.204  0.6705 -0.0054  0.0940
15540SOL    HW148627   6.706   9.634   7.189  0.2641  0.4985 -0.2596
15540SOL    HW248628   6.850   9.665   7.155  1.3448 -1.5825  2.0791
15541SOL     OW48629   5.907   1.351   4.771  0.1961  0.4005  0.0156
15541SOL    HW148630   5.854   1.372   4.848 -0.5171 -0.6533 -0.1638
15541SOL    HW248631   5.882   1.261   4.749  0.5708  0.5956 -1.2952
15542SOL     OW48632   0.709   5.641   9.257  0.4268  0.0325  0.3334
15542SOL    HW148633   0.733   5.733   9.263  1.3761 -0.1573 -0.3205
15542SOL    HW248634   0.783   5.594   9.297  1.8288 -0.6234 -2.7593
15543SOL     OW48635   4.486   1.060   6.154  0.0119  0.2935  0.8738
15543SOL    HW148636   4.482   1.147   6.115  0.7857 -0.2639 -0.5337
15543SOL    HW248637   4.443   1.003   6.090  0.0470 -0.4484  1.4970
15544SOL     OW48638   9.117   6.558   8.091  0.1116 -0.2369  0.2842
15544SOL    HW148639   9.153   6.553   8.180 -0.2108  2.7586  0.6817
15544SOL    HW248640   9.194   6.570   8.035  0.1440  2.6381  0.7668
15545SOL     OW48641   5.010   2.739   4.719 -0.5291  0.1158  0.0643
15545SOL    HW148642   5.014   2.763   4.627 -0.2087 -0.0006  0.0471
15545SOL    HW248643   4.918   2.718   4.735 -0.3998 -0.9111 -0.4943
15546SOL     OW48644   8.726   5.283   2.262 -0.2831  0.6504 -0.2107
15546SOL    HW148645   8.636   5.310   2.279 -0.4669 -0.3334  0.5494
15546SOL    HW248646   8.772   5.363   2.237 -1.0750  1.4123  0.6842
15547SOL     OW48647   3.918   7.429   9.895 -0.0470  0.4914 -0.2119
15547SOL    HW148648   3.884   7.427   9.805 -1.1347 -0.0740  0.1903
15547SOL    HW248649   4.012   7.438   9.884 -0.1432  0.3018 -1.4177
15548SOL     OW48650   4.923  11.065   4.958  0.2878 -0.2935  0.5404
15548SOL    HW148651   4.836  11.036   4.930  0.2676  0.8551 -0.7174
15548SOL    HW248652   4.978  10.988   4.946 -0.3825 -0.7792  0.4882
15549SOL     OW48653  10.977   4.991  10.143 -0.1409 -0.3483 -1.0753
15549SOL    HW148654  10.972   4.909  10.192 -0.7326 -1.8077 -3.4078
15549SOL    HW248655  11.062   5.028  10.168 -1.3352  0.2146  2.6873
15550SOL     OW48656   3.392   4.149   7.297  0.0084  0.3055  0.6289
15550SOL    HW148657   3.309   4.103   7.285  1.0646 -2.0151  1.5468
15550SOL    HW248658   3.443   4.125   7.220  0.6599 -0.3269  1.2414
15551SOL     OW48659   7.132   2.275   5.389 -0.4336  0.1143  0.2540
15551SOL    HW148660   7.070   2.206   5.412  0.6068 -0.7985  0.3932
15551SOL    HW248661   7.155   2.315   5.473 -0.1387 -0.1605  0.3058
15552SOL     OW48662   3.924   9.560   7.166  0.2657  0.3292 -0.3906
15552SOL    HW148663   3.918   9.487   7.105  0.1547  0.7006 -0.8319
15552SOL    HW248664   3.952   9.634   7.112 -0.7619  0.8879 -0.1758
15553SOL     OW48665   4.504   6.297   9.180 -0.1217  0.0321 -0.1194
15553SOL    HW148666   4.544   6.259   9.259  0.3790  1.4439  0.3456
15553SOL    HW248667   4.573   6.293   9.114  0.9829  2.6458  0.7366
15554SOL     OW48668   3.002   7.208   7.562 -0.2088  0.0526 -0.0522
15554SOL    HW148669   3.084   7.251   7.586 -1.1106  1.7870  0.0796
15554SOL    HW248670   2.979   7.246   7.477 -0.8017 -0.5204 -0.1563
15555SOL     OW48671   6.027   9.434  10.266  0.4140  0.2198 -0.7734
15555SOL    HW148672   6.049   9.439  10.359 -0.3094 -1.3472 -0.4842
15555SOL    HW248673   6.112   9.427  10.222  0.7210 -2.8148  0.0891
15556SOL     OW48674   6.308  10.058   2.082  0.4279  0.6322 -0.7630
15556SOL    HW148675   6.392  10.048   2.128  0.7940 -0.4876 -1.6102
15556SOL    HW248676   6.309  10.148   2.050  0.8257  0.9623  0.1416
15557SOL     OW48677   4.238   3.714   8.689  0.3904 -0.0172  0.3370
15557SOL    HW148678   4.254   3.637   8.635  0.6762  0.1933  0.1154
15557SOL    HW248679   4.325   3.754   8.699  0.1612  0.6113 -0.0691
15558SOL     OW48680   1.547   3.423   8.721  0.6482 -0.5683  0.2803
15558SOL    HW148681   1.512   3.418   8.810 -0.0846 -0.0291  0.0262
15558SOL    HW248682   1.574   3.333   8.701 -3.0274 -1.6468 -0.4896
15559SOL     OW48683   7.311   1.315   4.663 -0.0144 -0.0383  0.1612
15559SOL    HW148684   7.244   1.289   4.726 -0.1779 -1.6966 -0.6418
15559SOL    HW248685   7.388   1.334   4.716  0.0904 -2.1782  0.8544
15560SOL     OW48686   7.182   9.505  10.565  0.1785 -0.6755  0.0915
15560SOL    HW148687   7.271   9.489  10.534 -0.2430 -0.1631 -1.4642
15560SOL    HW248688   7.132   9.525  10.486 -0.4210  3.3114  1.2268
15561SOL     OW48689  10.592   0.961   9.379  0.0690  0.5707 -0.0735
15561SOL    HW148690  10.673   0.973   9.329 -0.0143  2.5106  0.1712
15561SOL    HW248691  10.526   1.010   9.330 -0.3165  1.3662  1.1961
15562SOL     OW48692   5.741   4.694   3.976 -0.0652  0.0125  0.4981
15562SOL    HW148693   5.664   4.739   4.012  2.1112  3.1154  1.6861
15562SOL    HW248694   5.771   4.753   3.906  0.6447 -1.7080 -0.6957
15563SOL     OW48695   4.082   4.015   9.833 -0.2355  0.1413 -0.3261
15563SOL    HW148696   4.061   3.974   9.917  0.5583  0.0866 -0.1459
15563SOL    HW248697   4.029   4.095   9.831  1.8817  1.7262  1.5664
15564SOL     OW48698   5.619   7.802   1.528  0.2828 -0.1643  0.2098
15564SOL    HW148699   5.646   7.743   1.598 -1.9664 -0.0125  1.3020
15564SOL    HW248700   5.581   7.878   1.574 -0.4169  0.3461 -1.1532
15565SOL     OW48701   2.274   9.030   4.421 -0.7232 -0.2784  0.1516
15565SOL    HW148702   2.351   9.025   4.364 -1.0274  0.3927 -0.3222
15565SOL    HW248703   2.201   9.045   4.362 -1.1915 -0.6605  0.6288
15566SOL     OW48704   1.696   1.774   0.558  0.5980  0.0020 -0.6020
15566SOL    HW148705   1.612   1.790   0.516  0.1642  1.2160  0.6316
15566SOL    HW248706   1.760   1.779   0.487 -0.4479 -2.2047 -1.7633
15567SOL     OW48707   3.849   5.568   0.545 -0.4894 -0.1418  0.6512
15567SOL    HW148708   3.800   5.622   0.483 -1.4743 -0.5444  1.0572
15567SOL    HW248709   3.936   5.609   0.550 -0.3340 -0.1628 -1.0779
15568SOL     OW48710   2.819   4.205   5.286  0.0154 -0.5439  0.2730
15568SOL    HW148711   2.888   4.240   5.228  0.4758 -0.0512  1.0992
15568SOL    HW248712   2.862   4.195   5.371 -0.4057 -2.1176  0.3371
15569SOL     OW48713   6.171   5.131   1.427 -0.4321 -0.0818 -0.5687
15569SOL    HW148714   6.136   5.150   1.514 -1.2903 -1.2838 -0.6369
15569SOL    HW248715   6.223   5.052   1.438 -0.3516 -0.1101 -1.1021
15570SOL     OW48716   1.452   8.026   3.897  0.2887  0.4179 -0.3679
15570SOL    HW148717   1.529   7.975   3.873  0.6912  0.0855  1.4466
15570SOL    HW248718   1.386   8.001   3.833  0.9118 -1.2829 -0.4118
15571SOL     OW48719   4.597   5.529   9.893 -0.0076  0.3538  0.9273
15571SOL    HW148720   4.550   5.605   9.857  1.0026  1.8529  2.5886
15571SOL    HW248721   4.660   5.505   9.826  0.6368  1.9520  0.9205
15572SOL     OW48722   1.532   1.204   4.734 -0.2865 -0.7078  0.0563
15572SOL    HW148723   1.466   1.272   4.718 -0.4598 -0.9478 -0.2541
15572SOL    HW248724   1.563   1.180   4.647 -0.2477 -1.0525  0.1656
15573SOL     OW48725   7.876   0.294   8.174 -0.2570 -0.1602  0.1958
15573SOL    HW148726   7.868   0.228   8.243 -0.7847  1.4154  1.7505
15573SOL    HW248727   7.850   0.249   8.094 -0.1258 -1.9377  1.1027
15574SOL     OW48728  10.364   8.925   2.122  0.2669  0.5569 -0.6382
15574SOL    HW148729  10.290   8.972   2.082 -0.7714 -2.1221 -2.0796
15574SOL    HW248730  10.401   8.873   2.051  0.5285 -1.7852  1.1130
15575SOL     OW48731   5.328  10.847   7.207 -0.0682  0.1152  0.1932
15575SOL    HW148732   5.353  10.883   7.292 -0.4493  1.0978 -0.0907
15575SOL    HW248733   5.329  10.923   7.148 -1.6058 -0.1914 -0.2788
15576SOL     OW48734   5.316  10.989   1.689  0.4215 -0.4039 -0.2136
15576SOL    HW148735   5.274  10.981   1.603 -1.8270 -1.3078  0.8878
15576SOL    HW248736   5.259  11.047   1.739  1.2985 -0.4603  0.9065
15577SOL     OW48737   4.893   4.803   9.760 -0.6652  0.3744 -0.0284
15577SOL    HW148738   4.988   4.795   9.765 -0.6735  0.6391  0.8119
15577SOL    HW248739   4.877   4.862   9.687 -0.3006 -1.5066 -1.6950
15578SOL     OW48740   0.378   4.528   1.912 -0.4645  0.4030 -0.3730
15578SOL    HW148741   0.419   4.447   1.943  1.6042  1.8942  0.9657
15578SOL    HW248742   0.445   4.570   1.858 -0.7632  2.1620  0.5675
15579SOL     OW48743   8.178   4.143   9.672  0.1127 -0.4987  0.0036
15579SOL    HW148744   8.186   4.120   9.764  0.8427 -0.2136  0.0225
15579SOL    HW248745   8.226   4.226   9.664 -1.3249  0.3298 -0.3133
15580SOL     OW48746   4.943   9.762   1.885  0.2073  0.1928  0.3952
15580SOL    HW148747   4.999   9.693   1.849 -0.8556 -0.6000  0.1753
15580SOL    HW248748   5.002   9.835   1.903  1.4568 -0.9621  1.1469
15581SOL     OW48749   6.242   2.185   0.750  0.2473 -0.3710  0.0292
15581SOL    HW148750   6.327   2.205   0.710 -0.1685  0.1380 -0.6397
15581SOL    HW248751   6.179   2.211   0.683 -0.4256 -1.0624  0.3859
15582SOL     OW48752   3.652  10.857   6.943 -0.3164 -0.5799 -0.1734
15582SOL    HW148753   3.692  10.772   6.964 -0.4813 -0.2976  1.4115
15582SOL    HW248754   3.716  10.921   6.975 -0.6717 -0.1058 -0.4080
15583SOL     OW48755   2.382   5.443   1.219 -0.0925  0.9451  0.2750
15583SOL    HW148756   2.341   5.519   1.176 -0.7647  0.5143  0.1417
15583SOL    HW248757   2.432   5.401   1.149 -1.5562 -0.0189 -0.2447
15584SOL     OW48758   2.961   4.891   6.743 -0.5270 -0.4127 -0.4546
15584SOL    HW148759   3.043   4.847   6.721  0.8499  1.9522 -0.3623
15584SOL    HW248760   2.918   4.907   6.659  0.1630  0.2048 -0.7046
15585SOL     OW48761   6.042   4.180   7.880 -0.0099  0.1900 -0.2581
15585SOL    HW148762   6.116   4.214   7.929 -0.0257  0.6590 -0.5564
15585SOL    HW248763   5.965   4.208   7.928  0.0071 -0.9866  0.5052
15586SOL     OW48764   1.867   4.712   6.439 -0.0219 -0.0181  0.1542
15586SOL    HW148765   1.815   4.780   6.395 -0.6826 -0.5387  0.1094
15586SOL    HW248766   1.951   4.712   6.393  0.5988  1.8583  1.1748
15587SOL     OW48767   6.336   0.789   2.407 -0.1624  0.0450 -0.1720
15587SOL    HW148768   6.423   0.756   2.385  0.1950  0.5980  0.4208
15587SOL    HW248769   6.276   0.727   2.364  0.4534 -2.1684  1.9305
15588SOL     OW48770   3.598   3.835   8.269  0.0618  0.0694  0.5998
15588SOL    HW148771   3.684   3.871   8.292  0.0091  0.8345 -0.3499
15588SOL    HW248772   3.613   3.787   8.187 -0.2414 -0.5841  0.9136
15589SOL     OW48773   2.389   4.431   8.149 -0.4879  0.6320 -0.2971
15589SOL    HW148774   2.392   4.400   8.059 -1.7324  0.6091 -0.3558
15589SOL    HW248775   2.411   4.355   8.202 -0.7402  0.3838 -0.5465
15590SOL     OW48776  10.975   8.204   4.387 -0.0797  0.4058  0.2062
15590SOL    HW148777  11.037   8.169   4.451 -1.3376 -2.7219 -0.1202
15590SOL    HW248778  11.030   8.227   4.312  0.9650  0.3384  0.9192
15591SOL     OW48779   6.408   0.438   2.436  0.1216  0.5593 -0.2207
15591SOL    HW148780   6.456   0.393   2.366 -0.6219  0.9266 -0.9851
15591SOL    HW248781   6.462   0.424   2.514  0.4966 -0.6736 -0.6637
15592SOL     OW48782   5.651  10.925   8.219 -0.1584  0.3020 -0.2962
15592SOL    HW148783   5.697  10.842   8.221  1.9445  1.3893 -0.8829
15592SOL    HW248784   5.705  10.984   8.271  0.3721  2.1877 -2.7708
15593SOL     OW48785   3.684   0.672   9.470 -0.4536  0.4120 -0.0098
15593SOL    HW148786   3.609   0.685   9.529  0.0744 -0.4758  0.8889
15593SOL    HW248787   3.745   0.618   9.521 -0.1062 -0.6289 -1.4783
15594SOL     OW48788   1.485   3.921   1.260 -0.3660 -0.6846 -0.0711
15594SOL    HW148789   1.538   3.854   1.303 -0.6189 -0.6232  0.3423
15594SOL    HW248790   1.403   3.877   1.238 -1.2171 -0.0914  1.7421
15595SOL     OW48791   6.598   1.506   5.532 -0.1388 -0.0156  0.1220
15595SOL    HW148792   6.682   1.476   5.497 -1.6524 -2.3210 -1.9245
15595SOL    HW248793   6.577   1.584   5.480  0.8850  0.8590  0.9710
15596SOL     OW48794   4.431   5.101   5.914 -0.3814 -0.1364 -0.7336
15596SOL    HW148795   4.502   5.118   5.852  1.3279  0.5027  1.2933
15596SOL    HW248796   4.367   5.170   5.898  0.5028  0.6041 -1.1151
15597SOL     OW48797   7.484   2.313   6.326  0.2816 -0.3529 -0.0430
15597SOL    HW148798   7.548   2.321   6.255 -0.9497  1.1607 -1.0374
15597SOL    HW248799   7.537   2.313   6.406  1.5501  0.5422 -0.8361
15598SOL     OW48800   4.104   0.739   1.992  0.3793  0.3130  0.3212
15598SOL    HW148801   4.170   0.731   1.922 -0.5955  1.6013 -0.8147
15598SOL    HW248802   4.112   0.658   2.042  2.1818  0.0259 -0.3329
15599SOL     OW48803   8.093   3.782  10.615  0.5989  0.5657  0.1435
15599SOL    HW148804   8.111   3.694  10.648  0.0256 -1.7674 -4.8098
15599SOL    HW248805   8.175   3.809  10.574 -0.1500  0.7348 -1.3101
15600SOL     OW48806   5.629   2.125  10.578 -0.2056 -0.3652 -0.8026
15600SOL    HW148807   5.621   2.108  10.672  2.6458 -0.3078 -0.4548
15600SOL    HW248808   5.553   2.180  10.557 -0.2573  0.7068  1.7550
15601SOL     OW48809   2.660  10.550  10.610  0.2375  0.4727 -0.5785
15601SOL    HW148810   2.587  10.489  10.598  0.3386  0.0132  0.9642
15601SOL    HW248811   2.738  10.497  10.593  0.3396  0.0536  1.0568
15602SOL     OW48812   9.684   3.134   6.529 -0.3602 -1.2229 -0.5132
15602SOL    HW148813   9.650   3.090   6.607  0.5164 -1.4110 -0.2203
15602SOL    HW248814   9.607   3.154   6.476 -1.0578 -0.2988  0.8120
15603SOL     OW48815   4.840   0.751   9.033 -0.0432 -0.1786  0.2208
15603SOL    HW148816   4.786   0.761   9.111 -0.5966 -3.2919  0.3378
15603SOL    HW248817   4.783   0.777   8.960 -0.5251 -0.1449  0.6072
15604SOL     OW48818   8.261   0.196   8.512 -0.0995 -0.5817 -0.0093
15604SOL    HW148819   8.299   0.109   8.529 -0.2893 -0.7109 -0.2270
15604SOL    HW248820   8.228   0.189   8.422 -1.6559 -0.8434  0.5503
15605SOL     OW48821   6.139   3.946  10.836  0.2555  0.2288  0.1689
15605SOL    HW148822   6.173   3.872  10.786  1.8154  0.6892  0.4741
15605SOL    HW248823   6.214   4.004  10.846  0.4505 -0.4122  4.0894
15606SOL     OW48824   8.483  10.228   9.127  0.4032  0.1173 -0.3295
15606SOL    HW148825   8.408  10.223   9.067  0.1616  1.9353 -0.2262
15606SOL    HW248826   8.485  10.142   9.170 -2.1387  0.2665  0.2493
15607SOL     OW48827   3.948   2.298   9.069  0.5421  0.0492  0.2034
15607SOL    HW148828   3.900   2.293   8.986  0.2929 -0.8099  0.3925
15607SOL    HW248829   4.000   2.378   9.061  0.9865 -0.3311 -1.0252
15608SOL     OW48830   4.559   2.185  10.641 -0.4554  0.1325  0.4123
15608SOL    HW148831   4.577   2.230  10.723  0.5688 -0.7436  0.6968
15608SOL    HW248832   4.638   2.133  10.624 -2.0303 -2.5760  0.7918
15609SOL     OW48833   0.083  10.900  10.308 -0.3550  0.3106 -0.6691
15609SOL    HW148834   0.126  10.926  10.390 -2.2224  1.7325 -0.0829
15609SOL    HW248835   0.115  10.963  10.243 -1.4171  1.3170 -0.2516
15610SOL     OW48836   6.992   7.385   3.063 -0.1831  0.1684  0.1330
15610SOL    HW148837   7.059   7.322   3.037 -2.6887 -1.9943 -1.5027
15610SOL    HW248838   6.973   7.434   2.982 -1.5387 -0.2474  0.1750
15611SOL     OW48839   2.790   7.600   4.886  0.1082  0.0087 -0.8055
15611SOL    HW148840   2.873   7.639   4.913  1.3857 -1.1585 -2.8193
15611SOL    HW248841   2.796   7.508   4.912 -1.9773  0.5133  1.9337
15612SOL     OW48842   1.398   7.429   1.292 -0.0113 -0.2107  0.2658
15612SOL    HW148843   1.423   7.488   1.363  0.9193 -0.7843  0.4306
15612SOL    HW248844   1.427   7.474   1.212  0.4523 -0.3221  0.3703
15613SOL     OW48845   1.372   1.227   5.380  0.0134 -0.0973  0.4589
15613SOL    HW148846   1.279   1.210   5.367 -0.3203  0.4706  1.9373
15613SOL    HW248847   1.393   1.185   5.464  0.9393  0.3166  0.4490
15614SOL     OW48848   3.426   5.249   8.194  0.2250 -0.0244 -0.2516
15614SOL    HW148849   3.366   5.253   8.269 -0.8490 -0.4520 -1.0682
15614SOL    HW248850   3.510   5.280   8.229 -0.1006 -0.7867  1.2709
15615SOL     OW48851   3.576   5.225   6.904 -0.6633 -0.4054  0.4339
15615SOL    HW148852   3.612   5.286   6.968  1.9989 -0.3001 -1.0229
15615SOL    HW248853   3.602   5.261   6.819 -1.2061 -2.2472 -0.5692
15616SOL     OW48854   8.461   6.775   5.472  0.3507  0.4263  0.3745
15616SOL    HW148855   8.372   6.802   5.497  0.1573  1.6580 -1.5000
15616SOL    HW248856   8.512   6.856   5.471  1.3870 -0.1889  0.8279
15617SOL     OW48857   7.627  10.387  10.437 -0.0582  0.3584 -0.2900
15617SOL    HW148858   7.668  10.442  10.504  0.7515 -1.2084  0.5563
15617SOL    HW248859   7.700  10.343  10.393 -0.6883 -0.3543 -0.6543
15618SOL     OW48860   7.248   0.970   4.045  0.4613 -0.4576  0.1955
15618SOL    HW148861   7.265   0.980   4.139 -0.0570 -1.9822  0.4683
15618SOL    HW248862   7.290   1.047   4.006  0.1352  0.5516  1.7211
15619SOL     OW48863   3.447   2.429   7.410  0.0065  0.0183  0.0128
15619SOL    HW148864   3.483   2.356   7.359 -0.7656 -0.4441  0.1091
15619SOL    HW248865   3.393   2.477   7.348 -1.1814 -0.7186  0.4257
15620SOL     OW48866   4.976   0.682   8.451 -0.8359 -0.2792  0.3792
15620SOL    HW148867   4.929   0.745   8.505  0.2834  0.5736  0.3818
15620SOL    HW248868   5.063   0.676   8.490 -0.1864 -0.0886 -0.9704
15621SOL     OW48869   2.406   6.828   7.124  1.1486  0.0003  0.4185
15621SOL    HW148870   2.477   6.891   7.131  0.5527  0.5078  2.6537
15621SOL    HW248871   2.326   6.881   7.130  0.5590 -0.6645 -0.9905
15622SOL     OW48872   6.043   0.461   9.302 -0.3945 -0.2729  0.5286
15622SOL    HW148873   5.949   0.453   9.318 -0.4041  0.6012  0.9915
15622SOL    HW248874   6.065   0.549   9.334  0.3885 -0.0811 -0.4921
15623SOL     OW48875   3.623   4.349   8.240  0.1517  0.1644  0.1940
15623SOL    HW148876   3.673   4.379   8.164  2.7263 -2.3522  0.7315
15623SOL    HW248877   3.565   4.281   8.205 -1.4085  1.5650 -0.0565
15624SOL     OW48878   2.342   3.489   7.660  0.2774 -0.6918 -0.7100
15624SOL    HW148879   2.292   3.506   7.740  0.7483 -1.6660 -0.1802
15624SOL    HW248880   2.369   3.575   7.629 -0.7092 -0.2415 -0.3367
15625SOL     OW48881   4.302   3.050   6.253  0.2157 -0.1710  0.3434
15625SOL    HW148882   4.371   3.088   6.307  3.1912 -2.4720 -1.4914
15625SOL    HW248883   4.321   2.956   6.252 -0.6159 -0.4536 -3.2558
15626SOL     OW48884  11.084   5.687   3.110  0.3341 -0.4422 -0.1966
15626SOL    HW148885  11.125   5.726   3.032  2.7299 -2.0003  0.2179
15626SOL    HW248886  11.040   5.609   3.077  0.0853 -0.3136 -0.1782
15627SOL     OW48887   7.963   4.175   2.939  0.1683 -0.7057  0.0575
15627SOL    HW148888   8.037   4.233   2.955 -0.9358  0.3816  1.4132
15627SOL    HW248889   7.905   4.224   2.882  1.0207 -2.0591 -2.1145
15628SOL     OW48890   3.507   4.609   7.833  0.3161 -0.2649  0.2303
15628SOL    HW148891   3.469   4.522   7.848 -1.2346  0.4890  0.9898
15628SOL    HW248892   3.489   4.656   7.914  0.5163  0.9781 -0.4333
15629SOL     OW48893   0.200   4.479   4.259 -0.1241 -0.0296  0.4915
15629SOL    HW148894   0.208   4.534   4.181 -2.6533 -0.6871 -0.3218
15629SOL    HW248895   0.206   4.541   4.332 -1.5666  1.1952 -0.3601
15630SOL     OW48896   9.842   0.617   5.209  0.3876 -0.0175 -0.2680
15630SOL    HW148897   9.911   0.650   5.267 -0.0176 -1.6830  1.2320
15630SOL    HW248898   9.828   0.526   5.237 -2.3970  0.2407 -0.5620
15631SOL     OW48899   3.418   1.771   8.537  0.3316  0.2399 -0.0511
15631SOL    HW148900   3.352   1.775   8.468  0.5635 -0.8922 -0.3659
15631SOL    HW248901   3.501   1.770   8.489  0.4918 -0.6507  0.2321
15632SOL     OW48902   2.062  10.861   9.449 -0.3444 -0.3031 -0.8112
15632SOL    HW148903   2.084  10.952   9.466 -0.0641 -0.8869  2.6336
15632SOL    HW248904   1.988  10.864   9.388 -1.7862  2.3288  0.9108
15633SOL     OW48905   7.054   9.321   1.302 -0.4516  0.0681 -0.5285
15633SOL    HW148906   7.146   9.344   1.291  0.3140 -2.0211  0.9660
15633SOL    HW248907   7.014   9.400   1.340  0.4548  1.3233 -2.0320
15634SOL     OW48908   4.300   5.391   1.647 -0.0345 -0.4902  0.5047
15634SOL    HW148909   4.356   5.356   1.717 -0.5077 -0.1871  1.0457
15634SOL    HW248910   4.332   5.349   1.567  0.3723 -1.0097  0.9343
15635SOL     OW48911   4.385   9.344   3.569  0.1673 -0.1133 -0.1008
15635SOL    HW148912   4.404   9.284   3.497 -0.3229 -1.1544  0.6030
15635SOL    HW248913   4.411   9.430   3.537  0.3866 -0.6244 -1.3416
15636SOL     OW48914   4.439   1.584   3.266 -0.2369  0.0857  0.4850
15636SOL    HW148915   4.522   1.624   3.292 -1.3316  2.4596  0.5776
15636SOL    HW248916   4.459   1.543   3.181  1.3817 -0.7873  1.2353
15637SOL     OW48917   1.118   6.237   7.941  0.4047  0.1294  0.2954
15637SOL    HW148918   1.169   6.190   7.874  1.0437  2.6599 -1.1256
15637SOL    HW248919   1.029   6.206   7.929  0.6512 -0.1003 -1.2002
15638SOL     OW48920   5.309   3.578   9.516 -0.6060  0.2315 -0.1963
15638SOL    HW148921   5.304   3.583   9.421 -0.2407  1.5153 -0.1554
15638SOL    HW248922   5.224   3.609   9.547 -1.4856 -2.0611 -0.1176
15639SOL     OW48923   1.766   1.251   7.477  0.2284 -0.1939  0.6966
15639SOL    HW148924   1.849   1.236   7.522  0.8046 -0.4472 -0.4353
15639SOL    HW248925   1.757   1.347   7.476  2.0452  0.0435 -1.8319
15640SOL     OW48926   6.041   1.008   9.296  0.5053  0.2087  0.0936
15640SOL    HW148927   6.022   1.065   9.222 -0.8267  0.8643  0.9063
15640SOL    HW248928   6.137   1.005   9.299  0.6336 -0.8479 -2.3826
15641SOL     OW48929  10.655   9.937   6.281 -0.5436 -0.1626 -0.0976
15641SOL    HW148930  10.639   9.861   6.225 -0.1790 -0.7865  0.6264
15641SOL    HW248931  10.569   9.978   6.292 -0.9553 -1.1604  0.4871
15642SOL     OW48932   3.956   2.193   8.764 -0.2618 -0.2272 -0.2089
15642SOL    HW148933   3.945   2.263   8.701  1.9268  2.0767  1.7593
15642SOL    HW248934   3.875   2.196   8.817 -0.2815  0.7129 -0.2726
15643SOL     OW48935   0.454  10.600   1.386 -0.0105 -0.6644 -0.1949
15643SOL    HW148936   0.390  10.534   1.415  0.0201 -0.1502  1.1273
15643SOL    HW248937   0.439  10.609   1.292 -3.5178  1.1021  0.3689
15644SOL     OW48938   1.084   2.974   0.954 -0.1389  0.6981 -0.4161
15644SOL    HW148939   1.176   2.964   0.929 -0.0707 -0.5309  0.2624
15644SOL    HW248940   1.056   2.886   0.980 -1.0346  1.3542  0.9557
15645SOL     OW48941   0.224   3.554   6.679  0.0595 -0.4841  0.6368
15645SOL    HW148942   0.281   3.478   6.693  1.1929  0.4080  0.9477
15645SOL    HW248943   0.153   3.520   6.624  0.8322 -1.6417  0.3171
15646SOL     OW48944  10.503   2.809   9.894 -0.1442 -0.5805  0.3958
15646SOL    HW148945  10.547   2.843   9.816  0.8465 -0.1143  1.1287
15646SOL    HW248946  10.547   2.726   9.913 -0.3471 -0.6700  0.4742
15647SOL     OW48947   4.128   2.352   8.002 -0.2475 -0.0376 -0.2275
15647SOL    HW148948   4.113   2.313   7.916 -1.0472  0.2950 -0.2435
15647SOL    HW248949   4.122   2.278   8.063  1.4425 -0.4783 -0.5304
15648SOL     OW48950   0.610   6.676   1.549 -0.2375 -0.2890  0.0578
15648SOL    HW148951   0.634   6.704   1.637 -3.4718 -2.1976  1.7454
15648SOL    HW248952   0.659   6.595   1.535  0.1492 -0.0726  0.1470
15649SOL     OW48953   4.616   0.118  10.163 -0.0789  0.1153 -0.0619
15649SOL    HW148954   4.587   0.029  10.184  1.1141  0.0072  1.3041
15649SOL    HW248955   4.645   0.114  10.072 -1.6218 -0.4536 -0.5540
15650SOL     OW48956   7.199  10.744  10.406 -0.3396  0.1593 -0.5362
15650SOL    HW148957   7.180  10.838  10.405 -0.4468  0.1425 -2.0613
15650SOL    HW248958   7.116  10.703  10.429 -0.1896  0.4400  0.5653
15651SOL     OW48959   8.849   1.427   7.596 -0.7141 -0.3528  0.2959
15651SOL    HW148960   8.886   1.458   7.513  1.6886 -1.8362  0.6922
15651SOL    HW248961   8.770   1.379   7.571  0.3804 -1.4391 -1.2819
15652SOL     OW48962   1.546   1.386   5.777  0.8077  0.2098  0.9518
15652SOL    HW148963   1.488   1.324   5.821  0.3992  0.8727  1.3750
15652SOL    HW248964   1.624   1.336   5.756 -0.5384 -1.1503 -1.1256
15653SOL     OW48965   4.428   4.306   3.971 -0.4634  0.3294  0.2905
15653SOL    HW148966   4.507   4.331   4.019 -0.1138  0.1901 -0.2109
15653SOL    HW248967   4.408   4.383   3.917 -1.8158  1.1380  1.8769
15654SOL     OW48968   7.681   8.518   4.243  0.4232  0.1714 -0.4338
15654SOL    HW148969   7.618   8.446   4.233 -1.0988  1.4188 -0.1175
15654SOL    HW248970   7.725   8.499   4.326 -0.8293  0.2269  0.2685
15655SOL     OW48971   8.771   2.283  10.531 -0.1610 -0.5944  0.2370
15655SOL    HW148972   8.727   2.365  10.550  0.8064 -0.1658  0.6739
15655SOL    HW248973   8.856   2.290  10.574  1.0508 -0.6820 -1.9836
15656SOL     OW48974   7.998   0.575   7.475  0.1641  0.0416 -0.0511
15656SOL    HW148975   8.001   0.589   7.570  1.1222  0.1804 -0.0901
15656SOL    HW248976   8.072   0.517   7.458  0.5582  0.7654 -0.8415
15657SOL     OW48977   0.555   5.312   8.169 -0.2310  0.4029 -0.3278
15657SOL    HW148978   0.524   5.228   8.202 -2.2548  1.5676  0.8999
15657SOL    HW248979   0.647   5.315   8.194 -0.0089 -1.5874 -0.7570
15658SOL     OW48980  11.100   0.962  10.523 -0.0474 -0.2216  0.0447
15658SOL    HW148981  11.125   0.871  10.542  1.0922 -0.0609 -0.5771
15658SOL    HW248982  11.161   1.014  10.575 -0.7911  0.1946  0.5086
15659SOL     OW48983   4.198   5.013  10.378 -0.2397  0.2459  0.1825
15659SOL    HW148984   4.206   4.949  10.308 -0.0207 -0.1131  0.5307
15659SOL    HW248985   4.167   4.963  10.453 -0.9792  0.7222  0.2049
15660SOL     OW48986   6.752   9.941   0.441 -0.0538  0.1717  0.0427
15660SOL    HW148987   6.689   9.976   0.378 -0.3254  0.2346  0.3460
15660SOL    HW248988   6.781   9.858   0.402 -0.0076  0.3451 -0.2955
15661SOL     OW48989   2.237   0.357   3.731 -0.0336  0.5630  0.1351
15661SOL    HW148990   2.281   0.441   3.741 -0.3396  0.7938 -0.4026
15661SOL    HW248991   2.169   0.356   3.798  0.5191  0.3814  0.6964
15662SOL     OW48992   0.469   9.589   2.207  0.0797 -0.6556 -0.4458
15662SOL    HW148993   0.503   9.576   2.295 -0.9316  0.2776  0.1078
15662SOL    HW248994   0.422   9.507   2.187  0.0027 -0.7280  0.0296
15663SOL     OW48995   6.499   2.886   9.643  0.4081  0.0680 -0.3587
15663SOL    HW148996   6.533   2.815   9.589  1.3153 -0.4775  0.9017
15663SOL    HW248997   6.542   2.965   9.608  2.7301 -0.5578  0.9370
15664SOL     OW48998   0.846   0.605   8.744 -0.0717 -0.4450 -0.4245
15664SOL    HW148999   0.813   0.690   8.715 -0.7688 -1.0495 -1.5201
15664SOL    HW249000   0.786   0.542   8.704  0.3316 -1.4486  0.4998
15665SOL     OW49001   9.819   0.637  10.842 -0.2486  0.6752 -0.5631
15665SOL    HW149002   9.883   0.604  10.780  1.7773  0.5141  1.4938
15665SOL    HW249003   9.767   0.560  10.868 -0.0805  0.4540 -0.8883
15666SOL     OW49004   4.285   3.519   6.957  0.4095  0.0130  0.0596
15666SOL    HW149005   4.268   3.579   6.885 -0.3012 -0.9520 -0.6077
15666SOL    HW249006   4.290   3.575   7.035  2.4886  1.2190 -0.8722
15667SOL     OW49007   2.912   9.597   6.207  0.7211  1.0634  0.0815
15667SOL    HW149008   2.953   9.573   6.290  3.1547  1.8081 -0.8010
15667SOL    HW249009   2.904   9.693   6.211  0.7671  1.0979 -0.4828
15668SOL     OW49010  10.699   2.775   4.785 -0.5446  0.2818  0.2661
15668SOL    HW149011  10.641   2.849   4.768 -1.3101 -0.4657 -0.4673
15668SOL    HW249012  10.665   2.704   4.730  0.0672 -0.6692  1.0764
15669SOL     OW49013   6.224   6.224  10.323  0.0074 -0.2916  0.6284
15669SOL    HW149014   6.233   6.165  10.397 -0.6440  0.2992  1.1947
15669SOL    HW249015   6.243   6.311  10.360 -3.1589  0.4299  0.8479
15670SOL     OW49016   7.439  10.702   6.837 -0.0081 -0.3013 -0.1338
15670SOL    HW149017   7.390  10.779   6.864 -0.7793 -1.8545  3.5628
15670SOL    HW249018   7.484  10.728   6.756 -0.9021  3.6583  0.4710
15671SOL     OW49019   4.458   6.711   8.230  0.0680 -0.5588  0.1536
15671SOL    HW149020   4.395   6.641   8.211 -1.1152  0.2285  0.9964
15671SOL    HW249021   4.461   6.716   8.325  1.1040 -0.3012  0.1193
15672SOL     OW49022   1.693   7.088   4.179 -0.7530  0.4413 -0.5203
15672SOL    HW149023   1.754   7.060   4.248 -2.7857  1.1736  1.6896
15672SOL    HW249024   1.674   7.179   4.199 -0.1204  1.2035 -3.1131
15673SOL     OW49025   5.961   0.444   6.632 -0.7008  0.2767  0.1519
15673SOL    HW149026   5.900   0.495   6.579 -0.6485 -0.3851 -0.5699
15673SOL    HW249027   5.939   0.353   6.612  0.6613  0.0255 -0.2938
15674SOL     OW49028   4.658   4.479   5.776 -0.4454 -0.3315  0.1498
15674SOL    HW149029   4.677   4.564   5.736 -1.4518  0.5281  1.4493
15674SOL    HW249030   4.742   4.433   5.776  0.0599  0.5572 -0.7658
15675SOL     OW49031   1.681   0.667   2.426 -0.0454  0.6655  0.1187
15675SOL    HW149032   1.710   0.756   2.407  0.5366  0.4249 -0.1281
15675SOL    HW249033   1.599   0.679   2.475  0.0928  1.3326  0.1993
15676SOL     OW49034   1.578   1.707  10.098  0.2310 -0.1403  0.2784
15676SOL    HW149035   1.608   1.641  10.162  1.0815  0.2263  0.2704
15676SOL    HW249036   1.514   1.760  10.147  0.7191  0.0072  0.7731
15677SOL     OW49037   3.041   0.360   8.318  0.1183  0.4543 -0.0543
15677SOL    HW149038   3.107   0.388   8.255  0.3373 -1.7954 -0.8803
15677SOL    HW249039   2.957   0.384   8.277  0.3215  1.7309  0.2193
15678SOL     OW49040   4.111  10.350   2.037  0.4273  0.2081 -0.5754
15678SOL    HW149041   4.041  10.404   2.074 -0.0682 -1.1063  0.4904
15678SOL    HW249042   4.159  10.317   2.112 -0.1040 -1.8657 -1.0765
15679SOL     OW49043   6.029   0.384   5.995 -0.9952  0.5395 -0.0055
15679SOL    HW149044   6.113   0.341   5.981 -1.4675 -0.1566 -0.8304
15679SOL    HW249045   6.025   0.400   6.089 -0.2170  0.0108  0.1287
15680SOL     OW49046   5.447   2.274   3.826  0.7116  0.1883 -0.1523
15680SOL    HW149047   5.459   2.189   3.785 -0.0904 -0.6380  1.2289
15680SOL    HW249048   5.365   2.266   3.874  0.0806  2.0959 -0.8174
15681SOL     OW49049   5.592   7.422   7.928  0.2395  0.2789  0.3225
15681SOL    HW149050   5.568   7.508   7.892  2.8692  0.6332 -0.7909
15681SOL    HW249051   5.528   7.407   7.998 -2.9192  1.1864 -2.1530
15682SOL     OW49052   2.808  10.876   3.288 -0.8936  0.1101  0.2007
15682SOL    HW149053   2.859  10.937   3.236  1.6788 -0.4936  1.8312
15682SOL    HW249054   2.848  10.880   3.375 -3.0021 -1.2023  1.3109
15683SOL     OW49055   8.852   7.242   2.834  0.3507 -0.7947 -1.2200
15683SOL    HW149056   8.858   7.237   2.738 -0.0948 -2.9560 -1.1955
15683SOL    HW249057   8.758   7.256   2.851  0.4522 -0.2547 -1.0909
15684SOL     OW49058   2.987   5.381   0.137 -0.2084 -0.3242 -0.1729
15684SOL    HW149059   3.017   5.298   0.174  0.7062  0.2326  0.3927
15684SOL    HW249060   3.033   5.448   0.189 -1.5152  0.5589 -0.1070
15685SOL     OW49061   6.341   0.314   3.774  0.0915 -0.0424 -0.6398
15685SOL    HW149062   6.289   0.389   3.804 -0.0501 -1.3753  2.8920
15685SOL    HW249063   6.432   0.338   3.793 -0.0110 -0.9606  1.2529
15686SOL     OW49064   2.665   5.705   7.131 -0.1322  0.0658 -0.3105
15686SOL    HW149065   2.595   5.739   7.186  1.5705  2.8351  0.3601
15686SOL    HW249066   2.737   5.767   7.143  1.3054 -0.7590 -3.5285
15687SOL     OW49067   0.066   1.433  10.056 -0.1509  0.5022 -0.3759
15687SOL    HW149068   0.086   1.456   9.966  1.5709  2.0383  0.3292
15687SOL    HW249069   0.152   1.422  10.098 -0.8710  1.0305  1.3445
15688SOL     OW49070   4.534   4.993   9.595  0.7333  0.0385 -0.1020
15688SOL    HW149071   4.625   5.011   9.571  1.9453  0.4827  3.9724
15688SOL    HW249072   4.505   5.074   9.638 -0.7103 -0.9527  0.8723
15689SOL     OW49073   8.354  10.766   9.415  0.0235 -0.1209 -0.4116
15689SOL    HW149074   8.292  10.790   9.346 -0.4365 -1.3902 -0.4744
15689SOL    HW249075   8.434  10.745   9.368  0.4646  1.3214 -0.3481
15690SOL     OW49076   7.357   6.402   0.662  0.0111 -0.0691 -0.0165
15690SOL    HW149077   7.426   6.364   0.609 -1.1376  0.0045 -1.6190
15690SOL    HW249078   7.313   6.464   0.604 -0.9598  0.4211  1.1907
15691SOL     OW49079   4.526   2.067   9.472  0.6659 -0.1541  0.0186
15691SOL    HW149080   4.485   2.152   9.492  1.7948  0.3316  0.3772
15691SOL    HW249081   4.468   2.003   9.513 -0.0505  0.4642  0.0038
15692SOL     OW49082   8.173  10.757   1.394 -0.1775  0.3293  0.0445
15692SOL    HW149083   8.145  10.846   1.372 -0.0773  0.5192  0.6701
15692SOL    HW249084   8.192  10.717   1.309 -0.5900  0.7782 -0.2693
15693SOL     OW49085   9.965   8.917   1.866 -0.3257  0.1941 -0.2677
15693SOL    HW149086   9.967   8.851   1.935 -2.4391  0.9545  0.5805
15693SOL    HW249087   9.983   9.000   1.911 -0.5282  0.5609 -0.8456
15694SOL     OW49088   7.939   7.971   7.257  0.5732  0.6951 -0.2285
15694SOL    HW149089   7.979   8.016   7.183  1.1190 -0.6291 -0.7752
15694SOL    HW249090   8.004   7.904   7.282 -1.0285 -1.1712 -0.7880
15695SOL     OW49091   8.408   4.761   6.443  0.0822 -0.5954 -0.1009
15695SOL    HW149092   8.500   4.738   6.426  0.2710 -0.1983  0.3780
15695SOL    HW249093   8.384   4.708   6.519 -0.3043 -1.2248 -0.6439
15696SOL     OW49094   4.324   0.840  10.931  0.4350 -0.3153  0.0841
15696SOL    HW149095   4.249   0.897  10.917  0.6945  0.4577  1.5904
15696SOL    HW249096   4.400   0.894  10.908  0.5690 -0.9516 -1.0275
15697SOL     OW49097   2.357   9.323   7.738  0.6389 -0.9513  0.2370
15697SOL    HW149098   2.381   9.236   7.768 -0.7649 -1.5129 -0.2012
15697SOL    HW249099   2.386   9.326   7.646  0.9691 -0.8457  0.3459
15698SOL     OW49100   4.273  11.029   7.394 -0.3607  0.2128 -0.1381
15698SOL    HW149101   4.286  11.027   7.489 -2.1606  0.6156  0.1483
15698SOL    HW249102   4.275  10.937   7.368  3.2926  0.1877 -0.2542
15699SOL     OW49103   3.934   5.490   8.331  0.5342  0.2416 -0.2960
15699SOL    HW149104   3.899   5.550   8.397 -0.8978  1.0479 -1.7090
15699SOL    HW249105   4.022   5.469   8.362  0.0878  0.9457  1.6121
15700SOL     OW49106   3.561   3.286   6.877 -0.1821  0.0303 -0.3033
15700SOL    HW149107   3.502   3.321   6.810 -1.9025 -2.1163 -0.0622
15700SOL    HW249108   3.516   3.207   6.909  2.0479 -0.7509  1.1700
15701SOL     OW49109   5.240   9.146   8.050 -0.5304  0.1926 -0.2917
15701SOL    HW149110   5.257   9.051   8.051 -1.4716  0.0100  0.0337
15701SOL    HW249111   5.269   9.175   7.964  0.0733 -0.3370 -0.2701
15702SOL     OW49112   3.714  11.060   5.583  0.6132 -0.7800 -0.2460
15702SOL    HW149113   3.683  10.971   5.566  0.9358 -0.6684 -1.4718
15702SOL    HW249114   3.656  11.093   5.651 -0.7030 -1.2722 -1.1000
15703SOL     OW49115   6.270  10.086  10.874  0.0787  0.1400 -0.3918
15703SOL    HW149116   6.299  10.084  10.782  1.0546  0.3910 -0.0994
15703SOL    HW249117   6.232   9.999  10.888  0.1991 -0.0099 -0.9539
15704SOL     OW49118  11.057   0.187   2.499  0.3253 -0.1288  0.3669
15704SOL    HW149119  11.125   0.202   2.434 -0.6221 -0.2308 -0.6885
15704SOL    HW249120  11.037   0.093   2.493  1.4247 -0.5275  2.0645
15705SOL     OW49121   0.347   9.587   8.107  0.1593  0.6579 -0.1690
15705SOL    HW149122   0.381   9.674   8.085  0.8147  0.8180  1.3557
15705SOL    HW249123   0.255   9.603   8.129 -0.7166  0.3981 -3.1683
15706SOL     OW49124   6.084   7.058   3.775 -0.5525  0.2213 -0.4527
15706SOL    HW149125   6.063   7.027   3.863  0.7913 -0.3050 -0.2862
15706SOL    HW249126   6.126   7.143   3.788 -0.3586  0.1468 -0.5748
15707SOL     OW49127   3.222   3.423   1.418  0.1066  0.1309  0.7467
15707SOL    HW149128   3.193   3.440   1.329 -0.4842 -0.6854  0.7691
15707SOL    HW249129   3.281   3.349   1.411 -2.3860 -2.0828  1.3288
15708SOL     OW49130   3.622   0.557   7.553  0.3909  1.3062 -0.2458
15708SOL    HW149131   3.602   0.478   7.503 -0.1818  1.3598 -0.1068
15708SOL    HW249132   3.698   0.532   7.607 -0.4616  0.4873  0.6123
15709SOL     OW49133   4.596   1.307   3.860 -0.0735 -0.2075  0.1122
15709SOL    HW149134   4.683   1.328   3.893  1.3704 -0.7223 -2.9636
15709SOL    HW249135   4.574   1.223   3.899  0.9204 -0.1843  0.7307
15710SOL     OW49136   5.827   6.318   8.229  0.2619  0.5705  0.3718
15710SOL    HW149137   5.780   6.384   8.279 -0.5508  0.7818 -0.6212
15710SOL    HW249138   5.851   6.362   8.147 -0.5772 -0.4113 -0.4446
15711SOL     OW49139  10.630   6.770   4.131  0.0938  0.6129  0.7132
15711SOL    HW149140  10.595   6.857   4.112 -1.4449 -0.2790 -0.7832
15711SOL    HW249141  10.618   6.721   4.049  0.9418 -1.0108  1.5136
15712SOL     OW49142   9.994   8.514   2.001 -0.2542 -0.2262  0.4164
15712SOL    HW149143  10.071   8.486   1.951  0.1453 -0.1521  0.9831
15712SOL    HW249144   9.962   8.434   2.042 -1.4056 -0.5497 -1.0442
15713SOL     OW49145   2.951   0.509   2.856 -0.7268  0.3061 -0.3819
15713SOL    HW149146   2.960   0.604   2.849  0.8330  0.2474  0.5599
15713SOL    HW249147   3.018   0.474   2.797  0.6059 -0.1699  1.3251
15714SOL     OW49148   8.570   0.622   0.667  0.4923 -0.2478 -0.1731
15714SOL    HW149149   8.631   0.646   0.736 -0.6892 -0.0657  0.8423
15714SOL    HW249150   8.494   0.586   0.713  0.8310 -2.8968 -1.4855
15715SOL     OW49151   5.863   0.823   6.584 -0.2242 -0.5062 -0.3237
15715SOL    HW149152   5.797   0.753   6.580  1.0757 -1.8655  1.1218
15715SOL    HW249153   5.904   0.821   6.497 -0.2291 -1.5222 -0.3190
15716SOL     OW49154   3.034   3.300   6.675  0.0217 -0.2179  0.5400
15716SOL    HW149155   2.977   3.310   6.752 -1.5562  0.5355 -0.6703
15716SOL    HW249156   3.115   3.263   6.710 -0.6693  0.0523  2.5537
15717SOL     OW49157  10.148   2.915   3.076 -0.3662 -0.4863  0.2165
15717SOL    HW149158  10.094   2.863   3.017 -0.5785  0.2476 -0.2598
15717SOL    HW249159  10.105   3.001   3.077  0.0186 -0.2949  0.9144
15718SOL     OW49160   4.147   0.700   1.353  0.1689  0.6577 -0.0279
15718SOL    HW149161   4.181   0.654   1.276 -2.7407  1.0740 -1.7304
15718SOL    HW249162   4.072   0.647   1.380 -0.0191  1.5789  1.3126
15719SOL     OW49163   8.818   3.193   9.586  0.0766 -0.1055  0.0169
15719SOL    HW149164   8.850   3.263   9.643  1.3019 -0.9525  0.3993
15719SOL    HW249165   8.811   3.116   9.643 -0.7641 -0.4348 -0.5100
15720SOL     OW49166   7.142  11.032   2.807 -0.2811 -0.0324 -0.3004
15720SOL    HW149167   7.067  11.002   2.755 -0.1850 -0.4554 -0.1919
15720SOL    HW249168   7.215  10.979   2.777 -0.4136 -0.9213  0.9100
15721SOL     OW49169  10.981   2.310   7.449  0.2975  0.5268 -0.0428
15721SOL    HW149170  10.920   2.261   7.393  0.2249 -0.6560  1.0309
15721SOL    HW249171  11.066   2.270   7.432  0.4763  0.9483 -0.1564
15722SOL     OW49172   6.506   2.317   3.597  0.3100  0.4430  0.8193
15722SOL    HW149173   6.500   2.355   3.685 -1.6291  1.8505  0.1482
15722SOL    HW249174   6.519   2.392   3.540 -2.8225  0.1344 -0.4814
15723SOL     OW49175   2.752  10.506   4.616  0.0770 -0.7451 -0.1903
15723SOL    HW149176   2.751  10.594   4.577  0.1978 -0.2991  0.7669
15723SOL    HW249177   2.724  10.448   4.546 -0.9792  0.1766 -0.5592
15724SOL     OW49178  10.720   1.485   4.351  0.8741 -0.3143  0.0548
15724SOL    HW149179  10.625   1.496   4.359  0.9385  1.4442 -1.0809
15724SOL    HW249180  10.754   1.499   4.440  0.1752  0.3855  0.2205
15725SOL     OW49181  11.079   2.286   0.029 -0.1085  0.1956 -0.9743
15725SOL    HW149182  11.174   2.283   0.016  0.1618 -1.4841  0.9321
15725SOL    HW249183  11.042   2.258  -0.054  1.2167 -2.1747 -0.8533
15726SOL     OW49184   6.379   2.304   9.611  0.1176  0.0647  0.1608
15726SOL    HW149185   6.470   2.330   9.600 -0.1196  0.7982 -0.1163
15726SOL    HW249186   6.340   2.374   9.663 -0.4658  0.1240 -0.3500
15727SOL     OW49187   0.362   4.617   4.723 -0.4818  0.3642 -0.2818
15727SOL    HW149188   0.428   4.654   4.782  0.2175  0.1113 -0.8861
15727SOL    HW249189   0.279   4.647   4.759 -0.0069  1.3333  0.0618
15728SOL     OW49190   4.067  10.215   6.055  0.0984 -0.3469 -0.1504
15728SOL    HW149191   4.127  10.142   6.040  0.4927  0.2205 -1.4705
15728SOL    HW249192   4.060  10.258   5.970 -0.3039  1.0279  0.5531
15729SOL     OW49193   5.925   5.931   8.110  0.0459 -0.0898 -0.4981
15729SOL    HW149194   5.930   5.905   8.018 -3.1231 -0.2223 -0.7453
15729SOL    HW249195   5.883   5.857   8.154  0.0158  0.6250  0.7258
15730SOL     OW49196   5.182   2.434   7.112  0.5800 -0.2722  0.2364
15730SOL    HW149197   5.228   2.518   7.116 -0.8264  0.5081  2.2539
15730SOL    HW249198   5.099   2.454   7.067 -1.0844  0.2704  3.2295
15731SOL     OW49199   3.682   5.365   4.579  0.2302 -0.1833 -0.0118
15731SOL    HW149200   3.748   5.433   4.564  1.1090 -0.6598  1.5141
15731SOL    HW249201   3.619   5.405   4.639 -0.3193 -0.0897 -0.6344
15732SOL     OW49202   3.767   5.746   7.701  0.2894 -0.0200 -0.8219
15732SOL    HW149203   3.730   5.673   7.652  1.3205 -0.1325 -1.4718
15732SOL    HW249204   3.853   5.760   7.661  1.3274 -0.3474  1.1814
15733SOL     OW49205  10.226   2.300  11.087  0.4171  0.4427 -0.0678
15733SOL    HW149206  10.176   2.287  11.006  0.6879  0.6210 -0.2654
15733SOL    HW249207  10.232   2.395  11.096  1.4072  0.4324 -0.4759
15734SOL     OW49208   7.854   3.347   1.201  0.3058 -0.0614  0.6162
15734SOL    HW149209   7.855   3.291   1.123  0.8202 -0.2140  0.7213
15734SOL    HW249210   7.762   3.356   1.224  0.2517 -1.7009  1.1730
15735SOL     OW49211   3.326   1.724   9.932  0.0170  0.2261  0.1957
15735SOL    HW149212   3.274   1.765  10.001  1.8051  1.2296  1.0364
15735SOL    HW249213   3.272   1.730   9.854 -2.1415 -1.0915  1.4971
15736SOL     OW49214   4.026   3.808   0.237 -0.2485 -0.4225 -0.1895
15736SOL    HW149215   4.022   3.901   0.213  0.2373 -0.6973 -1.4131
15736SOL    HW249216   3.934   3.779   0.235 -0.3569 -0.0763 -0.2448
15737SOL     OW49217   6.012   3.052   6.976 -0.2453  0.3650 -0.0416
15737SOL    HW149218   6.060   3.110   7.035 -1.4510  1.5595 -0.1953
15737SOL    HW249219   5.920   3.072   6.992 -0.6416 -0.4229 -1.2013
15738SOL     OW49220   5.814   1.370   6.484 -0.5082  0.2923  0.3795
15738SOL    HW149221   5.901   1.396   6.452  0.4999 -3.1819 -0.0780
15738SOL    HW249222   5.764   1.350   6.405  0.2214 -3.0778  0.6193
15739SOL     OW49223   3.638   7.378   8.871  0.0032 -0.1841 -0.0636
15739SOL    HW149224   3.556   7.406   8.912  0.7469  1.5102  0.3618
15739SOL    HW249225   3.690   7.458   8.864  1.5101 -1.1611 -0.6143
15740SOL     OW49226   8.427   0.686   9.158  0.2012  0.2178  0.4111
15740SOL    HW149227   8.451   0.601   9.196  1.8137 -0.0189 -1.0497
15740SOL    HW249228   8.456   0.750   9.223  2.2239 -0.2140 -0.0015
15741SOL     OW49229   5.267   3.201  10.935  0.0313  0.0379  0.3913
15741SOL    HW149230   5.230   3.280  10.894  0.0256  0.4659  1.1966
15741SOL    HW249231   5.304   3.233  11.017  0.0643 -0.7998  0.7041
15742SOL     OW49232   7.466   8.360   5.243 -0.3065 -0.3180 -0.2024
15742SOL    HW149233   7.542   8.383   5.190 -1.7546  0.5961 -1.9798
15742SOL    HW249234   7.440   8.274   5.212 -0.0144 -0.6417  0.4229
15743SOL     OW49235   1.081   1.090   8.056 -0.3883 -0.3484 -0.2095
15743SOL    HW149236   0.995   1.132   8.060 -0.7647 -0.8231 -2.2688
15743SOL    HW249237   1.142   1.163   8.046 -0.2170  0.1847  3.3625
15744SOL     OW49238   1.918   4.809   0.228  0.0510  0.1102 -0.2487
15744SOL    HW149239   1.849   4.865   0.265  0.9684  0.3985  1.0986
15744SOL    HW249240   1.995   4.866   0.222  0.6016 -0.6209 -0.2698
15745SOL     OW49241   0.791   7.920   8.348 -0.3060  0.5612 -0.4899
15745SOL    HW149242   0.844   7.864   8.405 -2.3485 -3.1228 -1.9330
15745SOL    HW249243   0.835   7.916   8.263 -0.1344  1.7463 -0.4719
15746SOL     OW49244   7.838   4.493   8.165 -0.1907  0.2724 -0.2633
15746SOL    HW149245   7.778   4.421   8.149  0.1997 -0.0533 -0.2914
15746SOL    HW249246   7.856   4.490   8.259  0.9132 -0.5547 -0.4781
15747SOL     OW49247   0.820   5.297   8.257  0.1559  0.2188 -0.2490
15747SOL    HW149248   0.899   5.352   8.259 -0.8406  1.7772 -1.3662
15747SOL    HW249249   0.809   5.268   8.347  0.2170  2.6924  0.6406
15748SOL     OW49250   3.429   8.880   3.147 -0.1096 -0.7369  0.0753
15748SOL    HW149251   3.417   8.929   3.228 -0.7599  0.0274 -0.4552
15748SOL    HW249252   3.349   8.828   3.138  0.5913 -1.9283  0.6469
15749SOL     OW49253   7.238   9.401   4.153 -0.3850  0.6827  0.2644
15749SOL    HW149254   7.144   9.414   4.167 -0.0353  1.9502  1.7862
15749SOL    HW249255   7.249   9.406   4.058 -1.8272  0.6688  0.0661
15750SOL     OW49256   2.296   2.436   8.524 -0.5921 -0.0331  0.1577
15750SOL    HW149257   2.278   2.502   8.592 -3.1855 -0.3268 -0.1218
15750SOL    HW249258   2.388   2.449   8.502 -0.6504  2.6354  1.0383
15751SOL     OW49259   2.947   7.688   9.449  0.0783 -0.5364  0.1167
15751SOL    HW149260   2.878   7.700   9.383  1.4139 -1.2603 -1.4911
15751SOL    HW249261   3.003   7.764   9.440 -0.3049 -0.1066  1.2003
15752SOL     OW49262  10.375   3.900   7.218 -0.3498  0.2644  0.0055
15752SOL    HW149263  10.388   3.902   7.123 -0.5525  2.5747 -0.0155
15752SOL    HW249264  10.281   3.915   7.230 -0.1465  1.1539  0.5833
15753SOL     OW49265   3.365   4.765   9.527  0.6513 -0.6378 -0.8541
15753SOL    HW149266   3.329   4.716   9.601  1.3649  0.7598  0.4950
15753SOL    HW249267   3.310   4.844   9.522  1.6011  0.0466 -0.7450
15754SOL     OW49268   2.360   3.080   0.837  0.6525 -0.3103  0.1346
15754SOL    HW149269   2.359   3.175   0.846 -0.3845 -0.3346  0.4050
15754SOL    HW249270   2.441   3.053   0.881  1.0052  0.4455 -0.0250
15755SOL     OW49271   6.049   2.356   6.232 -0.1153  0.3111 -0.5065
15755SOL    HW149272   6.084   2.310   6.308 -1.1320  0.8414  0.3060
15755SOL    HW249273   5.959   2.376   6.256  0.1887  2.4394 -0.9669
15756SOL     OW49274   3.697   3.925   2.472  0.3925 -0.5370  0.8371
15756SOL    HW149275   3.614   3.961   2.441  1.0041  2.4013  2.2151
15756SOL    HW249276   3.764   3.969   2.420  1.1839 -3.2035 -0.5778
15757SOL     OW49277   0.478   1.669   1.656  0.2548 -0.0858 -0.2744
15757SOL    HW149278   0.565   1.632   1.644  0.3740 -0.0321  0.3688
15757SOL    HW249279   0.493   1.764   1.659  0.6030 -0.1501  2.7927
15758SOL     OW49280   5.267   0.895   9.585 -0.2837  0.0833 -0.3499
15758SOL    HW149281   5.336   0.832   9.563  0.1090  0.2715  0.3241
15758SOL    HW249282   5.251   0.882   9.678  0.5735  1.6962  0.0785
15759SOL     OW49283   1.041   9.782   4.948  0.2086  0.2437 -0.0030
15759SOL    HW149284   1.039   9.875   4.926 -1.6028 -0.0909 -1.4544
15759SOL    HW249285   1.126   9.751   4.915 -0.3695  0.8129 -2.1125
15760SOL     OW49286   6.187   7.030   6.522 -0.3519  0.2780  0.2031
15760SOL    HW149287   6.105   7.020   6.571 -1.3444  0.0478 -1.4236
15760SOL    HW249288   6.186   6.957   6.459  0.6915  0.7803 -0.4249
15761SOL     OW49289   2.126   8.553   8.170  0.6794 -0.2837 -0.1732
15761SOL    HW149290   2.154   8.567   8.260  0.8025 -1.1708 -0.0639
15761SOL    HW249291   2.179   8.480   8.139 -0.0712 -0.6436 -0.6371
15762SOL     OW49292   3.014   2.857   3.502 -0.0298 -0.3470 -0.3984
15762SOL    HW149293   3.051   2.790   3.444 -1.5239 -1.0201 -0.6066
15762SOL    HW249294   3.087   2.881   3.559  0.6920 -1.7627 -0.6670
15763SOL     OW49295   3.249   9.180   4.707  0.3493  0.3972 -0.1230
15763SOL    HW149296   3.279   9.244   4.642  1.5352 -1.2135 -1.2561
15763SOL    HW249297   3.330   9.140   4.740 -0.3708 -1.6274 -0.6647
15764SOL     OW49298   9.042  10.534   9.831  0.6919 -0.5075 -0.9832
15764SOL    HW149299   9.060  10.473   9.903  0.6985 -0.0398 -0.5752
15764SOL    HW249300   8.990  10.603   9.872  0.4921 -0.3563 -1.4896
15765SOL     OW49301   9.985   2.719   2.787  0.5266  0.1588  0.2330
15765SOL    HW149302   9.971   2.721   2.881  2.2440 -1.0479  0.5544
15765SOL    HW249303   9.918   2.778   2.752 -0.8646 -0.2118  2.0913
15766SOL     OW49304   2.653   1.696   3.616 -0.0296  0.2715 -0.2845
15766SOL    HW149305   2.592   1.694   3.542 -0.5885  2.4371  0.0314
15766SOL    HW249306   2.740   1.696   3.575 -0.2906 -0.1212 -0.8559
15767SOL     OW49307   4.337   1.564   7.519  0.0574  0.6607  0.3510
15767SOL    HW149308   4.429   1.538   7.517  0.1267  0.9116  0.3365
15767SOL    HW249309   4.332   1.629   7.589 -0.2763  0.0047  0.9630
15768SOL     OW49310   5.738  10.195   1.573  0.4377 -0.3276 -0.0149
15768SOL    HW149311   5.713  10.234   1.656  1.1528  1.4103 -0.5759
15768SOL    HW249312   5.655  10.173   1.531 -0.0139  0.9093  0.1924
15769SOL     OW49313  10.800   7.402   5.676  0.3130  0.1834  0.5919
15769SOL    HW149314  10.870   7.366   5.730  0.0369 -2.5098 -0.6746
15769SOL    HW249315  10.843   7.424   5.593  0.5441  3.3415  1.4252
15770SOL     OW49316   0.730   8.887   3.649 -0.8559  0.0372 -0.2395
15770SOL    HW149317   0.643   8.883   3.688 -1.0644 -1.6287 -0.8207
15770SOL    HW249318   0.747   8.798   3.617  1.4212  0.0658  0.6743
15771SOL     OW49319   0.471   0.403   7.208  0.1341  0.0316 -0.1004
15771SOL    HW149320   0.409   0.330   7.210 -1.3612  1.2421 -0.2548
15771SOL    HW249321   0.417   0.481   7.222  1.7311  1.0953  0.4778
15772SOL     OW49322   7.047   5.442  10.977  0.1496  0.0365 -0.5827
15772SOL    HW149323   7.057   5.414  10.886 -0.2212 -1.0879 -0.2833
15772SOL    HW249324   7.126   5.495  10.994  0.6769 -0.5105 -1.2733
15773SOL     OW49325   5.687   0.927   8.891 -0.2850 -0.6541 -0.0460
15773SOL    HW149326   5.725   0.869   8.956  0.7355  0.6935  0.6091
15773SOL    HW249327   5.666   1.007   8.939  1.3841  0.7508 -1.4966
15774SOL     OW49328   2.620   1.071   6.012  0.1060 -0.5750 -0.1721
15774SOL    HW149329   2.633   1.042   6.102 -0.6967 -2.4363 -0.6025
15774SOL    HW249330   2.525   1.070   6.000 -0.0101  2.5244 -0.2126
15775SOL     OW49331   1.325   0.970   7.460 -0.0133 -0.1455 -0.9967
15775SOL    HW149332   1.256   1.020   7.416  1.1392  1.4968 -1.0117
15775SOL    HW249333   1.404   1.021   7.447  1.1214 -1.6703 -0.4334
15776SOL     OW49334   9.115   8.945   7.889 -0.1770 -0.4359 -0.2027
15776SOL    HW149335   9.193   8.890   7.891 -1.3035 -2.1714 -0.7283
15776SOL    HW249336   9.075   8.926   7.804  0.1587  2.4222 -1.0864
15777SOL     OW49337   4.874   3.936  10.605  0.4860 -0.2064 -0.0297
15777SOL    HW149338   4.850   4.019  10.647 -0.4269 -0.7949  0.6640
15777SOL    HW249339   4.843   3.945  10.515  0.8982  0.4114 -0.1133
15778SOL     OW49340   7.958   3.597   4.633  0.4024 -0.4618 -0.3718
15778SOL    HW149341   7.926   3.635   4.714  0.2845  0.7551 -0.9638
15778SOL    HW249342   8.047   3.631   4.624  1.5449 -2.9264  0.6929
15779SOL     OW49343   7.070   7.718   2.527 -0.1121 -0.0034 -0.3132
15779SOL    HW149344   6.981   7.742   2.503  0.1032  0.0563 -1.0754
15779SOL    HW249345   7.123   7.794   2.500 -0.0499  0.7871  1.8320
15780SOL     OW49346   1.089  10.121   3.545 -0.2392 -0.4870  0.1696
15780SOL    HW149347   1.156  10.083   3.601  0.1691 -0.0342 -0.0090
15780SOL    HW249348   1.064  10.202   3.589 -0.3808 -0.4521  0.0262
15781SOL     OW49349   7.974   3.565   6.244  0.0773 -0.2794  0.0907
15781SOL    HW149350   8.047   3.612   6.283 -0.0158  0.5420 -0.6924
15781SOL    HW249351   8.014   3.515   6.172  0.3893 -2.4162  1.6347
15782SOL     OW49352   6.182   3.925   9.156 -0.3116  0.3023  0.3070
15782SOL    HW149353   6.168   3.926   9.061 -0.1584  2.0598  0.2621
15782SOL    HW249354   6.230   3.844   9.172 -1.1479 -0.4958 -0.9765
15783SOL     OW49355   6.352   8.431   6.280  0.1137 -0.0817  0.2817
15783SOL    HW149356   6.322   8.371   6.212 -1.1089 -0.3591  1.0358
15783SOL    HW249357   6.401   8.499   6.233  0.8416 -1.2387 -0.6583
15784SOL     OW49358   9.016   4.997   7.052 -0.6031  0.3097 -0.4362
15784SOL    HW149359   9.060   5.053   6.987  1.4696 -0.5970  0.0994
15784SOL    HW249360   9.069   4.918   7.055 -1.3678 -0.1856  1.4677
15785SOL     OW49361   2.278   1.786  10.305  0.3623  0.1295 -0.5095
15785SOL    HW149362   2.197   1.749  10.272  0.5293 -2.4385  1.6592
15785SOL    HW249363   2.344   1.718  10.291  1.4072  0.8043  0.8436
15786SOL     OW49364   9.450   5.747   3.646 -0.1349  0.3503 -0.3585
15786SOL    HW149365   9.470   5.763   3.554  4.8931  0.9390  0.5319
15786SOL    HW249366   9.480   5.826   3.691  2.1512 -1.7064  2.0726
15787SOL     OW49367   3.330   7.173   8.121  0.0298  0.4824  0.5646
15787SOL    HW149368   3.273   7.223   8.179  0.4350  0.9173  0.5945
15787SOL    HW249369   3.411   7.224   8.117  0.2771  0.0713  0.2148
15788SOL     OW49370   9.136   9.900   8.696  0.0409 -0.2086  0.0647
15788SOL    HW149371   9.180   9.896   8.611  1.0182 -0.8358  0.5808
15788SOL    HW249372   9.131   9.994   8.716  0.5216 -0.0974 -0.3210
15789SOL     OW49373   3.918   7.324   3.242  0.1488  0.4978 -0.2657
15789SOL    HW149374   3.876   7.294   3.323  0.2725 -0.6269 -0.5977
15789SOL    HW249375   3.851   7.313   3.175  0.8810 -1.1527 -0.7697
15790SOL     OW49376   0.041   5.651   9.758  0.1308 -1.1195 -0.0155
15790SOL    HW149377   0.015   5.590   9.689 -1.6371  0.2294 -0.6425
15790SOL    HW249378   0.097   5.715   9.714 -0.7030 -0.4636 -0.1578
15791SOL     OW49379   4.696   6.396   7.415 -0.6089  0.0271 -0.1452
15791SOL    HW149380   4.682   6.302   7.419 -1.3998  0.1694  0.7040
15791SOL    HW249381   4.664   6.421   7.328  1.1829 -0.7058 -1.0681
15792SOL     OW49382   1.399   1.676   7.499  0.9113 -0.8014 -0.3238
15792SOL    HW149383   1.466   1.712   7.442 -0.6125 -0.5652 -2.0476
15792SOL    HW249384   1.352   1.752   7.533  1.5457 -0.9584  0.9664
15793SOL     OW49385   9.683   0.361   6.287 -0.5674  0.0071  0.6966
15793SOL    HW149386   9.753   0.356   6.222 -0.6710  1.3301  0.4641
15793SOL    HW249387   9.708   0.433   6.344 -1.9951  0.8454  0.3011
15794SOL     OW49388   1.904   2.771   7.822  0.1324 -0.2309 -0.1165
15794SOL    HW149389   1.899   2.866   7.812  2.2550  0.0705  1.0023
15794SOL    HW249390   1.964   2.742   7.754 -0.3441 -0.7467 -0.3222
15795SOL     OW49391   1.382   2.578   2.808  0.3482 -0.6575 -0.0779
15795SOL    HW149392   1.388   2.484   2.829  0.0453 -0.5439  0.5270
15795SOL    HW249393   1.361   2.620   2.891  1.5624  0.0740 -0.1093
15796SOL     OW49394   9.751   6.991   9.764  0.3815 -0.1816 -0.2627
15796SOL    HW149395   9.803   6.919   9.731  0.5781 -0.3686  0.4351
15796SOL    HW249396   9.681   6.949   9.815  1.6652  0.1181  1.8818
15797SOL     OW49397   3.643   3.330   9.328 -0.2484  0.4099  0.2187
15797SOL    HW149398   3.718   3.350   9.385  0.0110  0.1020 -0.0090
15797SOL    HW249399   3.682   3.287   9.252 -0.7458 -0.7508  0.5850
15798SOL     OW49400   4.497   8.351   0.150  0.5291 -0.2077 -0.1103
15798SOL    HW149401   4.501   8.286   0.219  1.4750 -0.4849 -0.4226
15798SOL    HW249402   4.575   8.337   0.097 -0.3779 -0.2833 -1.4982
15799SOL     OW49403   0.320   0.150   8.583 -0.3369  0.7396  0.0803
15799SOL    HW149404   0.251   0.096   8.622  0.6419 -0.0708  0.7404
15799SOL    HW249405   0.277   0.195   8.510 -0.9568 -1.8475 -1.2754
15800SOL     OW49406  10.636   9.312   9.057 -0.0270  0.2831 -0.2193
15800SOL    HW149407  10.636   9.282   9.148  0.9561  1.3756  0.1833
15800SOL    HW249408  10.567   9.378   9.053  0.7060  1.0898  0.0710
15801SOL     OW49409   3.586   1.780   8.285  0.3983  0.2148  0.3446
15801SOL    HW149410   3.656   1.750   8.227  1.1170  1.1908  0.6829
15801SOL    HW249411   3.609   1.870   8.305  0.8782 -0.4748  3.2115
15802SOL     OW49412   3.856  10.122   6.263 -0.1792 -0.2412 -0.3397
15802SOL    HW149413   3.924  10.136   6.197 -0.6540 -0.8426 -0.9788
15802SOL    HW249414   3.777  10.159   6.223 -0.2609  0.3445  0.3483
15803SOL     OW49415   0.006   3.594   4.901 -0.2878  0.1406 -0.3208
15803SOL    HW149416  -0.033   3.545   4.973  0.3766  1.0642  0.6887
15803SOL    HW249417  -0.037   3.559   4.823  0.3517 -2.2486  0.3095
15804SOL     OW49418   1.180   6.715   6.314 -0.1644 -0.0442 -0.0981
15804SOL    HW149419   1.152   6.716   6.405  1.2765 -1.8037  0.4105
15804SOL    HW249420   1.263   6.764   6.314  0.5471 -1.2258 -0.1828
15805SOL     OW49421   3.475   1.075   8.447 -0.0464 -0.8583 -0.7391
15805SOL    HW149422   3.519   0.995   8.476  1.6352  0.5255  0.8102
15805SOL    HW249423   3.544   1.142   8.447 -1.4968  0.7318 -1.4530
15806SOL     OW49424   6.825   7.946  10.218  0.1445 -0.2045  0.2979
15806SOL    HW149425   6.816   7.990  10.134  1.3777 -0.5175 -0.0086
15806SOL    HW249426   6.751   7.885  10.221 -0.9391  1.0497  0.2449
15807SOL     OW49427   3.099   4.806   1.446 -0.3687 -0.3113  0.0083
15807SOL    HW149428   3.152   4.726   1.445 -0.3810 -0.3238  0.4424
15807SOL    HW249429   3.044   4.798   1.524  1.9596  1.6401  1.9954
15808SOL     OW49430   3.446  10.769   1.030 -0.0226  0.0431 -0.3704
15808SOL    HW149431   3.488  10.818   0.959 -2.0866  1.1634 -0.9080
15808SOL    HW249432   3.467  10.819   1.109  1.8198 -0.9014 -0.2099
15809SOL     OW49433   3.243   5.181   8.759  0.0211 -0.1255 -0.3432
15809SOL    HW149434   3.242   5.194   8.854  1.2932  0.8696 -0.4386
15809SOL    HW249435   3.319   5.231   8.729 -0.2704 -0.5575 -1.8724
15810SOL     OW49436   7.842   1.907   0.466  0.1866 -0.1281  0.0711
15810SOL    HW149437   7.937   1.892   0.472  0.3393  0.7952  0.0292
15810SOL    HW249438   7.809   1.828   0.422  0.9163 -0.5118  0.1892
15811SOL     OW49439   2.359   4.261   4.293 -0.3735 -0.1168 -0.4395
15811SOL    HW149440   2.365   4.350   4.259  1.9665 -0.6688 -1.7063
15811SOL    HW249441   2.389   4.267   4.384 -0.6823  0.4692 -0.3794
15812SOL     OW49442   6.787  10.896   9.912 -0.0909 -0.3813 -0.0299
15812SOL    HW149443   6.795  10.964   9.845  0.2347 -0.3624  0.0294
15812SOL    HW249444   6.720  10.930   9.971  1.8093  1.0759  1.4014
15813SOL     OW49445   2.108   8.476   1.700  0.2835 -0.2864 -0.3075
15813SOL    HW149446   2.149   8.439   1.778 -0.4110  0.2075  0.3070
15813SOL    HW249447   2.044   8.410   1.673 -0.5896  0.1966  0.4865
15814SOL     OW49448   4.817   9.026   1.986  0.3663  0.3518 -0.5678
15814SOL    HW149449   4.903   9.036   2.027  0.1972  2.7669 -0.6677
15814SOL    HW249450   4.826   9.068   1.901 -1.1605  1.6073 -0.1600
15815SOL     OW49451   3.351  10.458   0.460 -0.3545  0.3189  0.1065
15815SOL    HW149452   3.432  10.406   0.462 -0.8231 -0.6225 -2.2689
15815SOL    HW249453   3.293  10.415   0.522 -0.1595 -1.0566 -0.6338
15816SOL     OW49454  11.020   3.330   2.290 -0.0750 -0.8321  0.1273
15816SOL    HW149455  10.998   3.252   2.341  1.7165 -1.0429  0.6751
15816SOL    HW249456  11.055   3.391   2.354 -1.8761  0.6463 -0.2296
15817SOL     OW49457   8.963   1.549   7.369 -0.0549  1.0622 -0.6779
15817SOL    HW149458   8.926   1.637   7.358  1.1434  1.6505 -0.1537
15817SOL    HW249459   9.040   1.549   7.312  2.5467  1.9426  2.5671
15818SOL     OW49460   1.301   1.558   2.554  0.5277 -0.0041  0.4841
15818SOL    HW149461   1.265   1.487   2.501  0.7937 -0.4016  0.8246
15818SOL    HW249462   1.373   1.593   2.503  0.2534  0.1697  0.2153
15819SOL     OW49463  10.619   0.273   9.509 -0.1365 -0.6458  0.2393
15819SOL    HW149464  10.673   0.352   9.520 -0.0780 -0.7364  0.6145
15819SOL    HW249465  10.548   0.300   9.450 -0.6702 -0.0417  1.1457
15820SOL     OW49466   4.628  10.440   7.288  0.1485  0.2139  0.6709
15820SOL    HW149467   4.646  10.377   7.358 -0.2065 -1.1731 -0.4213
15820SOL    HW249468   4.560  10.398   7.235  0.1626  1.3620 -0.3023
15821SOL     OW49469   6.141   4.491   8.764  0.3241 -0.0868 -0.4009
15821SOL    HW149470   6.217   4.547   8.779  0.3541 -0.6675  1.9138
15821SOL    HW249471   6.106   4.472   8.851 -1.6341 -1.0169 -1.3046
15822SOL     OW49472   9.324   6.255   7.279 -0.1344 -0.2549  0.3707
15822SOL    HW149473   9.342   6.300   7.197 -1.2419 -0.6721 -0.1164
15822SOL    HW249474   9.349   6.318   7.347  1.9470 -0.3426 -0.2272
15823SOL     OW49475   2.984  10.357   3.254 -0.1028  0.5483  0.3543
15823SOL    HW149476   2.982  10.398   3.167  1.2198  1.0342  0.5301
15823SOL    HW249477   2.900  10.310   3.260 -0.7031  1.4258 -0.7238
15824SOL     OW49478   7.154   1.887  10.496  0.0113  0.5391  0.0279
15824SOL    HW149479   7.209   1.898  10.418  0.9467  1.2773  0.7634
15824SOL    HW249480   7.174   1.799  10.527  2.4762  1.5275  1.4994
15825SOL     OW49481   7.255   4.760   0.987  0.7233  0.6638  0.6298
15825SOL    HW149482   7.327   4.773   1.049  1.7397 -1.3965 -0.0320
15825SOL    HW249483   7.265   4.670   0.957 -1.2216  0.8217 -0.6849
15826SOL     OW49484   6.144  11.057   4.835 -0.1334  0.4412  0.6579
15826SOL    HW149485   6.233  11.055   4.800 -0.8240 -1.0479 -1.1826
15826SOL    HW249486   6.097  11.116   4.776 -0.6837  0.1682  0.8234
15827SOL     OW49487  10.714   2.110   3.295 -0.2738  0.0020  0.1318
15827SOL    HW149488  10.703   2.197   3.255 -0.7887 -0.8222 -1.5925
15827SOL    HW249489  10.629   2.092   3.335  0.2361  0.8185  1.6796
15828SOL     OW49490   3.261   9.469   2.642 -0.1068  0.1249 -1.1526
15828SOL    HW149491   3.280   9.554   2.602  0.2876 -0.3487 -1.9903
15828SOL    HW249492   3.337   9.450   2.696 -0.5003  0.6183 -0.4117
15829SOL     OW49493   9.013   2.775   6.942 -0.0569 -0.1768 -0.3660
15829SOL    HW149494   9.028   2.688   6.978  0.1948 -0.2010 -0.5235
15829SOL    HW249495   8.945   2.813   6.997  0.5502 -0.0872  0.3340
15830SOL     OW49496   4.284   5.404   2.713 -0.4985 -0.0693  0.2554
15830SOL    HW149497   4.353   5.469   2.697 -1.4958  0.8003 -0.7574
15830SOL    HW249498   4.240   5.435   2.792 -0.0197 -0.3681  0.6410
15831SOL     OW49499   8.944   2.126   4.928  0.3419 -0.4254  0.0122
15831SOL    HW149500   8.851   2.112   4.909  0.2569  0.1797 -0.0398
15831SOL    HW249501   8.984   2.039   4.920 -0.1536 -0.6220 -0.3444
15832SOL     OW49502   1.796   8.558   5.306 -0.0176  0.2179 -0.4579
15832SOL    HW149503   1.742   8.619   5.256  0.5878 -0.4236 -1.9383
15832SOL    HW249504   1.752   8.474   5.299  1.3483 -0.4125 -2.0592
15833SOL     OW49505   4.571   0.694   9.894 -0.8137  0.4782  0.1759
15833SOL    HW149506   4.492   0.679   9.946 -0.3888 -0.7265  0.5050
15833SOL    HW249507   4.613   0.609   9.890 -0.0590  0.8855 -0.8866
15834SOL     OW49508   3.904   1.260   1.241  0.0427  0.0320 -0.0263
15834SOL    HW149509   3.863   1.178   1.268 -1.2282  0.6983  0.1467
15834SOL    HW249510   3.950   1.238   1.160 -2.2453 -0.3419 -1.2822
15835SOL     OW49511  10.007   6.637   0.835  0.3583  0.1419 -0.8311
15835SOL    HW149512   9.974   6.608   0.750  1.4640  0.8023 -1.5098
15835SOL    HW249513  10.052   6.560   0.871  1.0147  0.2278 -1.4443
15836SOL     OW49514   9.616  10.614   6.923 -1.0125 -0.0332 -0.0238
15836SOL    HW149515   9.621  10.522   6.951 -1.8058 -0.5933 -1.5958
15836SOL    HW249516   9.522  10.635   6.930 -1.0998  0.0715 -1.4025
15837SOL     OW49517   9.819   0.693   8.394  0.1933 -0.1478 -0.6126
15837SOL    HW149518   9.910   0.665   8.390 -0.5569 -2.7699 -1.5201
15837SOL    HW249519   9.792   0.702   8.302 -0.7243 -0.4235 -0.3877
15838SOL     OW49520   1.851  10.137   1.868  0.0276 -0.3726  0.4964
15838SOL    HW149521   1.846  10.104   1.778  0.1471  1.9338 -0.4279
15838SOL    HW249522   1.944  10.143   1.886  0.0879  1.4236 -0.1869
15839SOL     OW49523   1.048   0.772  10.019 -0.5138  0.2976 -0.1654
15839SOL    HW149524   1.140   0.753  10.002 -1.0901 -0.3908 -3.1461
15839SOL    HW249525   1.025   0.839   9.953 -2.0035  0.9256  0.9303
15840SOL     OW49526  10.240   0.772   5.078 -0.2109 -0.1271  0.0083
15840SOL    HW149527  10.185   0.849   5.072  0.9730  0.8482  1.1756
15840SOL    HW249528  10.293   0.774   4.998 -1.7836 -1.0746 -1.1248
15841SOL     OW49529   7.622   1.504   8.625 -0.2051 -0.6533  0.3490
15841SOL    HW149530   7.674   1.424   8.624 -1.2621 -1.3726  0.5785
15841SOL    HW249531   7.544   1.483   8.573  0.1375  0.6862 -0.7589
15842SOL     OW49532   0.992  10.622   8.670  0.1766  0.6186 -0.1195
15842SOL    HW149533   0.970  10.714   8.658  1.5616  1.1267  0.9889
15842SOL    HW249534   1.001  10.587   8.582 -1.0001  1.3637 -0.5548
15843SOL     OW49535   6.648   8.825   4.408  0.3696  0.1320  0.9578
15843SOL    HW149536   6.676   8.787   4.325  1.7162  3.3683 -0.2034
15843SOL    HW249537   6.558   8.794   4.419 -0.2557  0.4670 -2.3071
15844SOL     OW49538   4.427  10.330   1.672  0.4302  0.2620  0.0441
15844SOL    HW149539   4.366  10.326   1.598  1.0815  0.1221 -0.4878
15844SOL    HW249540   4.458  10.240   1.683  0.2798  0.2651  0.5484
15845SOL     OW49541  10.328   0.501   9.754  0.2367 -0.6995 -0.1816
15845SOL    HW149542  10.424   0.502   9.751  0.2314  0.0266 -0.3014
15845SOL    HW249543  10.302   0.590   9.732 -0.4354 -0.6201  0.8341
15846SOL     OW49544   7.862  10.285  10.292 -0.4444  0.1105 -0.4404
15846SOL    HW149545   7.925  10.231  10.340 -1.0385  0.6369  0.9777
15846SOL    HW249546   7.871  10.257  10.201  1.8632  0.2010 -0.2959
15847SOL     OW49547   4.620   6.140  10.598 -0.0790 -0.3140  0.2836
15847SOL    HW149548   4.550   6.099  10.648 -0.7770  0.8268  0.2805
15847SOL    HW249549   4.576   6.173  10.519 -0.1533  2.7248  1.4475
15848SOL     OW49550   2.836   2.770   0.990 -0.4165 -0.6605 -0.2847
15848SOL    HW149551   2.788   2.782   1.072 -1.5426  0.8755 -1.1344
15848SOL    HW249552   2.914   2.824   1.000 -1.5571  1.1843 -0.9802
15849SOL     OW49553   0.367   6.369   6.679 -0.4040  0.2820 -0.6144
15849SOL    HW149554   0.351   6.286   6.723  0.1405 -0.6797 -2.1255
15849SOL    HW249555   0.317   6.433   6.729 -0.4168 -0.8516  0.9071
15850SOL     OW49556   7.381   6.836   0.079 -0.0587  0.1509  0.0942
15850SOL    HW149557   7.430   6.897   0.134 -2.1925  1.2299  0.9218
15850SOL    HW249558   7.412   6.750   0.105  0.7477  0.7557  1.2261
15851SOL     OW49559   0.670   1.136   0.447  0.3986  0.1755 -0.1322
15851SOL    HW149560   0.674   1.230   0.425 -0.9041  0.2904  0.0371
15851SOL    HW249561   0.744   1.098   0.400  1.1824  1.3437  0.0956
15852SOL     OW49562   8.071   7.078   2.651  0.5383  0.3701  0.3067
15852SOL    HW149563   8.029   7.161   2.673 -0.2706 -0.3370  1.5406
15852SOL    HW249564   8.163   7.100   2.638 -0.0456  1.8487 -1.8058
15853SOL     OW49565   9.780   2.533   2.166  0.0673 -0.8328 -0.2122
15853SOL    HW149566   9.836   2.514   2.241 -0.7524 -1.2848  0.3001
15853SOL    HW249567   9.705   2.579   2.202 -0.6156 -1.5586 -0.6506
15854SOL     OW49568   7.473  10.888   1.943 -0.0665  0.2132  0.2123
15854SOL    HW149569   7.553  10.937   1.924  0.6761 -0.6345  1.0371
15854SOL    HW249570   7.482  10.863   2.035 -2.1168  1.6001  0.8383
15855SOL     OW49571   3.685   1.575  10.709 -0.2686  0.4044 -0.2329
15855SOL    HW149572   3.704   1.522  10.631 -2.1291  0.3399 -0.7034
15855SOL    HW249573   3.734   1.656  10.695  1.3672 -0.5425 -0.2582
15856SOL     OW49574   1.410   4.124   1.416  0.2186 -0.0894  0.2057
15856SOL    HW149575   1.315   4.116   1.416  0.1376  0.7038 -0.3163
15856SOL    HW249576   1.439   4.062   1.349 -0.1719  1.6401 -1.6873
15857SOL     OW49577  10.739   6.104  11.093  0.9579 -0.3500 -0.6015
15857SOL    HW149578  10.757   6.178  11.034  0.1456 -0.8210 -1.4529
15857SOL    HW249579  10.822   6.055  11.095  1.4864  0.5370 -0.0739
15858SOL     OW49580   3.066   9.316   5.335  0.4504 -0.1603  0.2678
15858SOL    HW149581   2.978   9.353   5.345 -0.1383 -0.9589 -1.4937
15858SOL    HW249582   3.122   9.373   5.388 -1.2943 -0.4811  2.6594
15859SOL     OW49583   1.821   4.233   5.680  0.4896 -0.1497 -0.2987
15859SOL    HW149584   1.821   4.182   5.761  0.1929 -0.0623 -0.2405
15859SOL    HW249585   1.746   4.292   5.689  0.7711  0.2264 -0.4106
15860SOL     OW49586   6.179   0.957   9.632  0.2094 -0.3672  0.6571
15860SOL    HW149587   6.274   0.960   9.634  0.2713 -1.9138  0.8552
15860SOL    HW249588   6.152   1.041   9.670  1.4608  0.6616 -0.6006
15861SOL     OW49589   3.410   6.337   7.901 -0.1262  0.4565 -0.2208
15861SOL    HW149590   3.442   6.380   7.822  0.0428  1.2221  0.2513
15861SOL    HW249591   3.340   6.394   7.933 -1.8021 -1.0270 -1.0720
15862SOL     OW49592   5.374   0.010   7.735  0.4969  0.0058 -0.2967
15862SOL    HW149593   5.399  -0.045   7.810  0.3880  0.7114  0.2682
15862SOL    HW249594   5.297   0.058   7.766  0.6297  0.5282 -0.7609
15863SOL     OW49595   0.079  10.788   0.743 -0.1294 -0.0596 -0.1780
15863SOL    HW149596  -0.005  10.834   0.735 -0.4841 -0.8507 -1.2700
15863SOL    HW249597   0.090  10.775   0.837 -1.8281 -1.0008 -0.0778
15864SOL     OW49598   6.112   6.559  10.143  0.1544  0.1350  0.4291
15864SOL    HW149599   6.194   6.607  10.148  0.7745 -0.9995  2.0530
15864SOL    HW249600   6.126   6.494  10.075 -0.0132  1.0104 -0.4564
15865SOL     OW49601   7.625   9.090   3.217  0.0714 -0.3554 -0.4314
15865SOL    HW149602   7.593   9.143   3.290 -0.2152  0.6339 -1.2500
15865SOL    HW249603   7.664   9.013   3.258  0.0154  0.2380  0.7647
15866SOL     OW49604   1.452   4.231   8.671  0.1304 -0.0405 -0.3220
15866SOL    HW149605   1.427   4.148   8.632 -0.2985  1.5481 -3.8213
15866SOL    HW249606   1.450   4.294   8.598  1.9814  2.7476  1.7958
15867SOL     OW49607   5.163   6.257  10.077 -0.0949  0.1281  0.1923
15867SOL    HW149608   5.067   6.254  10.087  0.0232  0.0432  1.5829
15867SOL    HW249609   5.194   6.283  10.164  1.0905  1.3880 -0.5890
15868SOL     OW49610   7.080  10.900   1.236 -0.1551 -0.6497 -0.3470
15868SOL    HW149611   7.157  10.957   1.228  0.6356 -1.2743  2.0035
15868SOL    HW249612   7.006  10.960   1.242  0.4239  0.0564 -0.1955
15869SOL     OW49613   6.948   4.514   9.110 -0.4636 -0.8315  0.2704
15869SOL    HW149614   6.876   4.482   9.056 -0.6427  0.7920 -0.5253
15869SOL    HW249615   6.920   4.497   9.200 -1.3640 -1.1738 -0.0631
15870SOL     OW49616   3.168  10.373   9.163 -0.5686  0.2350  0.2659
15870SOL    HW149617   3.085  10.380   9.211  0.0536  1.8509  1.1948
15870SOL    HW249618   3.234  10.392   9.229  0.6537 -2.0237 -0.2162
15871SOL     OW49619   2.328   3.656   0.624  0.5906  0.2425  0.0369
15871SOL    HW149620   2.304   3.671   0.532  0.9294  2.6711  0.2717
15871SOL    HW249621   2.299   3.567   0.642 -2.5386  0.8024 -1.5019
15872SOL     OW49622   6.130   0.825   0.802 -0.1948 -0.3355  0.1235
15872SOL    HW149623   6.087   0.792   0.724  0.8350 -1.2037 -0.0977
15872SOL    HW249624   6.119   0.755   0.867 -2.9967  1.2475  1.5524
15873SOL     OW49625   5.267   7.760   9.938 -0.3665  0.2551  0.0632
15873SOL    HW149626   5.212   7.829   9.975  0.7205  1.5044 -0.5422
15873SOL    HW249627   5.319   7.729  10.013 -0.7289  0.2154  0.3016
15874SOL     OW49628   3.790   4.346   8.013 -0.2577 -0.8171  0.1812
15874SOL    HW149629   3.783   4.350   7.918  0.2588  0.0596  0.1724
15874SOL    HW249630   3.883   4.353   8.031 -0.3714 -0.7140  0.7643
15875SOL     OW49631   6.751   3.108   3.117  0.2849 -0.0192  0.1334
15875SOL    HW149632   6.799   3.081   3.039  0.2294  0.5777 -0.1126
15875SOL    HW249633   6.819   3.127   3.181  0.3324 -0.4257  0.2101
15876SOL     OW49634   2.021   0.523   4.627  0.1897 -0.1679 -0.4065
15876SOL    HW149635   1.953   0.501   4.563 -0.3834 -0.4623  0.2862
15876SOL    HW249636   1.973   0.535   4.710  0.5579  2.7436 -0.5051
15877SOL     OW49637   9.390   8.946   5.169  0.4437  0.2100 -0.1145
15877SOL    HW149638   9.303   8.904   5.167  0.1032  0.7560  1.4501
15877SOL    HW249639   9.397   8.981   5.258  2.0010  0.7746 -0.4331
15878SOL     OW49640   6.203   6.632   1.774  0.2084  0.5487 -0.3502
15878SOL    HW149641   6.217   6.578   1.852 -0.8315 -0.7832 -1.0326
15878SOL    HW249642   6.108   6.639   1.767  0.3078  2.3885 -0.3795
15879SOL     OW49643   0.951   3.311   2.425  0.2958  0.0520  0.4389
15879SOL    HW149644   0.886   3.377   2.448  1.0152  1.1852 -0.6941
15879SOL    HW249645   0.962   3.259   2.505 -1.7381  0.0388  0.7504
15880SOL     OW49646   3.918   2.051   2.331 -0.7952  0.2527 -0.1037
15880SOL    HW149647   3.833   2.092   2.345 -0.7765  0.5055 -0.6672
15880SOL    HW249648   3.967   2.066   2.412 -1.0204  0.7809 -0.0597
15881SOL     OW49649   8.863   0.187   6.756 -0.3991 -0.8419 -0.2135
15881SOL    HW149650   8.824   0.260   6.804  1.3524 -0.1553  0.2189
15881SOL    HW249651   8.857   0.213   6.664 -0.3593 -0.4442 -0.1051
15882SOL     OW49652  10.648   3.443   8.019 -0.1371  0.1378 -0.1241
15882SOL    HW149653  10.564   3.407   7.990  0.2035 -0.6124 -0.2071
15882SOL    HW249654  10.660   3.409   8.107 -0.1182  0.6032  0.0584
15883SOL     OW49655  11.003   1.698   5.713 -0.7903  0.3419 -0.4685
15883SOL    HW149656  11.083   1.707   5.765 -1.6076 -0.2432  0.9619
15883SOL    HW249657  10.964   1.616   5.743 -0.9275 -0.4252 -2.5944
15884SOL     OW49658   2.167   5.406   4.102 -0.2130  0.3775 -0.1054
15884SOL    HW149659   2.072   5.413   4.111 -0.5117 -0.1381 -2.3803
15884SOL    HW249660   2.200   5.489   4.139 -1.6287  1.0991 -0.3907
15885SOL     OW49661   6.016   3.138  10.465  0.4580 -0.6822  0.1198
15885SOL    HW149662   5.959   3.173  10.534  1.1083  0.9739 -0.1459
15885SOL    HW249663   6.104   3.160  10.494  0.8106 -0.9946 -0.6997
15886SOL     OW49664   5.983   2.760   1.287 -0.2821 -0.2316 -1.1017
15886SOL    HW149665   5.927   2.819   1.337  0.1276 -0.8734  0.1640
15886SOL    HW249666   5.955   2.672   1.312  1.0893 -0.5683 -0.6443
15887SOL     OW49667   6.303   2.103   9.059 -0.8524 -0.8365 -0.1722
15887SOL    HW149668   6.265   2.122   8.973  0.1803 -1.3612 -0.7632
15887SOL    HW249669   6.238   2.135   9.121 -0.4040  2.2594 -1.0975
15888SOL     OW49670   4.715   5.616   1.224 -0.6655  1.2212 -0.0733
15888SOL    HW149671   4.758   5.685   1.274  0.9676  0.4307 -0.2999
15888SOL    HW249672   4.710   5.542   1.286  1.9777  0.0103 -1.1333
15889SOL     OW49673   1.403   1.165   5.831 -0.4737 -0.2600 -0.1197
15889SOL    HW149674   1.432   1.110   5.904  1.8748  1.5232  0.4488
15889SOL    HW249675   1.456   1.137   5.757 -0.3199  0.2229 -0.1998
15890SOL     OW49676   0.744   2.643   3.620  0.3242 -0.6925 -0.5033
15890SOL    HW149677   0.675   2.651   3.554 -1.6644 -0.5527  1.4621
15890SOL    HW249678   0.719   2.567   3.672  1.0451 -0.0036  0.9183
15891SOL     OW49679  10.134   0.281   0.599  0.2958  0.7707  0.4751
15891SOL    HW149680  10.066   0.330   0.554 -0.2471  0.6577  1.1544
15891SOL    HW249681  10.212   0.294   0.546 -0.4430  0.2020 -0.7699
15892SOL     OW49682   5.246   4.194   4.596  0.0253 -0.0308 -0.0540
15892SOL    HW149683   5.283   4.106   4.604 -1.2072 -0.4809  1.0389
15892SOL    HW249684   5.267   4.236   4.680 -0.3418  0.3376 -0.1451
15893SOL     OW49685   0.498  10.653   4.644  0.5020 -0.7237 -0.3698
15893SOL    HW149686   0.460  10.721   4.589  2.4530  0.8570  0.1155
15893SOL    HW249687   0.474  10.680   4.733  1.3777 -0.5884 -0.1701
15894SOL     OW49688   5.281   0.348   8.512 -0.5010 -0.6143 -0.5775
15894SOL    HW149689   5.306   0.270   8.462  2.6753 -1.0143  1.3819
15894SOL    HW249690   5.361   0.400   8.517 -1.3186  0.5554  2.0068
15895SOL     OW49691   6.586   5.386   9.119  0.0376  0.0106  0.5076
15895SOL    HW149692   6.534   5.348   9.190  0.3887 -1.2611  0.1025
15895SOL    HW249693   6.558   5.478   9.116 -2.5282 -0.6963  0.0101
15896SOL     OW49694   1.748   6.207   7.513 -0.4783  0.1395 -0.2260
15896SOL    HW149695   1.671   6.243   7.468  0.7764  1.0806 -1.7235
15896SOL    HW249696   1.753   6.256   7.595 -2.1903 -0.8472  0.5276
15897SOL     OW49697   3.759   2.121   6.859  0.5055 -0.3933  0.0019
15897SOL    HW149698   3.732   2.199   6.811  0.5296 -0.4055 -0.0312
15897SOL    HW249699   3.686   2.103   6.919 -0.1031 -1.1210 -0.9188
15898SOL     OW49700   0.876   9.553   6.612  0.5018  0.2406 -0.0815
15898SOL    HW149701   0.821   9.620   6.572  0.9331 -0.4632 -1.9774
15898SOL    HW249702   0.820   9.477   6.621  0.9088 -0.2130 -1.2237
15899SOL     OW49703  10.816  10.747  10.076 -0.1010 -0.1792  0.6625
15899SOL    HW149704  10.795  10.794   9.995 -1.2268 -1.2149  0.3155
15899SOL    HW249705  10.908  10.723  10.067  0.1639  0.9079  0.3153
15900SOL     OW49706   4.240  10.774   9.417  0.4564  0.0816 -0.0618
15900SOL    HW149707   4.313  10.722   9.451  0.9443  0.3897 -0.6194
15900SOL    HW249708   4.172  10.710   9.397  1.1539 -0.3841 -1.0009
15901SOL     OW49709  10.455   3.867   3.334 -0.3096 -0.1029  0.2346
15901SOL    HW149710  10.466   3.958   3.363  1.0327 -0.1347 -0.1050
15901SOL    HW249711  10.455   3.872   3.239 -1.2502 -0.3585  0.2204
15902SOL     OW49712   0.421   7.711   4.551  0.0590  0.0673  0.4731
15902SOL    HW149713   0.512   7.700   4.579  0.7092  1.7794 -0.7337
15902SOL    HW249714   0.388   7.782   4.606 -0.2615  0.0384  0.3186
15903SOL     OW49715   1.945   5.598   2.567 -0.8016 -0.0237 -0.6195
15903SOL    HW149716   1.920   5.689   2.583 -1.8908 -0.2793 -0.8259
15903SOL    HW249717   2.031   5.604   2.525  0.0173  0.8288  1.0441
15904SOL     OW49718   3.438   1.947   1.279 -0.2859  0.1931  0.0432
15904SOL    HW149719   3.471   1.895   1.352 -1.9108 -0.9526  0.0073
15904SOL    HW249720   3.414   1.882   1.213  2.0423  1.2314 -1.9774
15905SOL     OW49721   3.138   7.672   6.166  0.2326 -0.1843 -0.5572
15905SOL    HW149722   3.212   7.625   6.127  0.7537 -0.3164  0.5219
15905SOL    HW249723   3.096   7.717   6.093  1.3804 -0.1111 -1.1989
15906SOL     OW49724   0.400   6.737   4.380 -0.1720 -0.1030 -0.3224
15906SOL    HW149725   0.401   6.667   4.315 -0.1654 -0.1392 -0.2835
15906SOL    HW249726   0.489   6.741   4.414  0.1982  0.9107 -1.3753
15907SOL     OW49727   1.890   4.048   7.544 -0.1896  0.2426  0.1149
15907SOL    HW149728   1.940   3.967   7.552  0.5858  0.7964  1.2370
15907SOL    HW249729   1.944   4.114   7.587 -0.7735  1.3768 -0.8303
15908SOL     OW49730   3.715   2.554  10.521  0.3431  0.0260 -0.3188
15908SOL    HW149731   3.756   2.554  10.608  1.4268  0.6360 -0.8033
15908SOL    HW249732   3.656   2.629  10.522  2.2378  1.6142 -0.9087
15909SOL     OW49733   0.031  11.029  11.001  0.5984 -0.4287 -0.5424
15909SOL    HW149734   0.002  10.938  11.012 -0.4554  0.0058  0.5373
15909SOL    HW249735   0.099  11.040  11.068 -0.5092  0.0492  0.5526
15910SOL     OW49736   5.091  10.539   3.478  0.2000  1.2011 -0.3851
15910SOL    HW149737   5.079  10.624   3.520  1.3410  2.7778 -3.0466
15910SOL    HW249738   5.167  10.501   3.521 -1.0135  0.8919  1.6409
15911SOL     OW49739   6.121   9.859  10.936 -0.5590  0.3114 -0.4820
15911SOL    HW149740   6.160   9.779  10.901 -1.2091 -0.7092  1.0059
15911SOL    HW249741   6.134   9.852  11.031 -0.7530  1.9152 -0.3212
15912SOL     OW49742   4.296   0.854   7.246 -0.0843  0.0987 -0.1967
15912SOL    HW149743   4.269   0.766   7.222  1.1113 -1.4084  3.4235
15912SOL    HW249744   4.216   0.896   7.278 -0.0786 -0.8072  1.0320
15913SOL     OW49745   6.431  10.259   1.729 -0.1618  0.2045 -0.7814
15913SOL    HW149746   6.478  10.342   1.742 -0.2163 -0.1219  2.1616
15913SOL    HW249747   6.339  10.281   1.743 -0.4653  0.0270 -2.3042
15914SOL     OW49748   5.522   0.997   0.679  0.1235 -0.1153 -0.3063
15914SOL    HW149749   5.455   0.948   0.726 -2.2004  3.2922  0.2945
15914SOL    HW249750   5.474   1.043   0.610  1.8450  2.2360 -0.0705
15915SOL     OW49751   6.812   7.496  10.022  0.4170 -0.4111  0.2460
15915SOL    HW149752   6.724   7.459  10.032  0.7991 -0.9093  2.0880
15915SOL    HW249753   6.820   7.512   9.928 -1.7040 -0.1651  0.0432
15916SOL     OW49754   4.101   9.740   9.577  0.1879 -0.2948  0.1918
15916SOL    HW149755   4.145   9.708   9.656 -0.7863  0.4103  1.0439
15916SOL    HW249756   4.087   9.833   9.592 -0.2288 -0.1921 -0.7191
15917SOL     OW49757   1.994  10.154   9.165  0.1237 -0.3001  0.4705
15917SOL    HW149758   1.941  10.112   9.233  0.6685  0.2193  1.2169
15917SOL    HW249759   1.992  10.247   9.186  1.2392 -0.2595  0.4392
15918SOL     OW49760   4.261   0.567  10.340 -0.3224  0.4688 -0.0717
15918SOL    HW149761   4.196   0.624  10.382 -1.2900  0.3417 -1.3407
15918SOL    HW249762   4.231   0.478  10.360 -0.2759  0.4101 -0.2601
15919SOL     OW49763   5.515   9.298   8.515  0.2145  0.5160  0.0164
15919SOL    HW149764   5.459   9.259   8.448  0.6960  0.1442 -0.1752
15919SOL    HW249765   5.514   9.235   8.587 -0.8807  1.2481  0.6679
15920SOL     OW49766   5.783   2.385   2.474  0.1004 -0.2240 -0.2650
15920SOL    HW149767   5.773   2.337   2.556  0.6529 -0.4521 -0.3277
15920SOL    HW249768   5.764   2.476   2.497 -0.1960 -0.3538  0.0141
15921SOL     OW49769   8.501  11.003   9.082  0.1890  0.5722 -0.8861
15921SOL    HW149770   8.449  10.925   9.065 -0.2922 -0.1525  2.9526
15921SOL    HW249771   8.590  10.970   9.096 -0.1362  0.4922  1.4093
15922SOL     OW49772   4.410   1.871   1.236  0.4356 -0.1207  0.5991
15922SOL    HW149773   4.389   1.941   1.298 -0.9840  0.7422 -0.7826
15922SOL    HW249774   4.462   1.914   1.168  0.1660 -0.5729  0.0995
15923SOL     OW49775   1.466   4.151   5.291 -0.7151  0.2803 -0.3340
15923SOL    HW149776   1.517   4.228   5.267 -0.4761  0.5873  1.0528
15923SOL    HW249777   1.380   4.167   5.253 -0.2891  0.5998 -1.1794
15924SOL     OW49778   4.025   2.071   6.006 -0.4165 -0.1567 -0.3578
15924SOL    HW149779   3.982   1.986   6.009 -0.2258 -0.3259 -1.7018
15924SOL    HW249780   4.116   2.051   5.984  0.3609  0.2096  2.2157
15925SOL     OW49781   1.749   9.639   3.327 -0.0162  0.1512 -0.0760
15925SOL    HW149782   1.796   9.692   3.391 -1.4350  0.1234  1.0339
15925SOL    HW249783   1.811   9.569   3.304  0.4915  0.0948  1.3504
15926SOL     OW49784   2.292  10.954   8.847 -0.4969 -0.0554  0.1136
15926SOL    HW149785   2.378  10.934   8.884  0.1712  1.5248 -0.5117
15926SOL    HW249786   2.307  10.964   8.753 -1.2257  0.9258  0.0849
15927SOL     OW49787   3.682   1.507  10.274 -0.2776  0.3896 -0.2671
15927SOL    HW149788   3.724   1.488  10.358 -1.7131 -1.5800  0.0731
15927SOL    HW249789   3.641   1.593  10.287  0.3121  0.5434  0.6994
15928SOL     OW49790   3.664   9.295   6.427 -0.3580  0.1520  0.0366
15928SOL    HW149791   3.608   9.354   6.478  1.0955  1.2313  0.4641
15928SOL    HW249792   3.670   9.216   6.479  0.9421  1.1653  1.5244
15929SOL     OW49793   5.247   6.150   1.827 -0.0495  0.7645  0.2553
15929SOL    HW149794   5.166   6.115   1.865 -0.7567  0.9518 -1.0170
15929SOL    HW249795   5.231   6.244   1.820  1.0728  1.1073  1.8178
15930SOL     OW49796   0.125   9.750   0.132  0.3827 -0.1011  0.0983
15930SOL    HW149797   0.166   9.746   0.045 -0.0216 -1.1714 -0.0646
15930SOL    HW249798   0.098   9.841   0.142 -2.4054 -0.5398 -2.2290
15931SOL     OW49799   6.497   3.761   9.364 -0.7202  0.0633 -0.4376
15931SOL    HW149800   6.569   3.707   9.330 -1.8595 -1.3931 -0.6594
15931SOL    HW249801   6.424   3.742   9.306 -1.3758  1.3262 -0.0631
15932SOL     OW49802  10.931   0.022   8.957  0.5508  0.3019 -0.1240
15932SOL    HW149803  10.944  -0.052   9.016 -1.1128 -0.9008 -1.1976
15932SOL    HW249804  10.966  -0.008   8.873  0.0028  0.7821 -0.5331
15933SOL     OW49805   8.713   4.279   0.005 -0.4649 -0.1640  0.7039
15933SOL    HW149806   8.709   4.193  -0.038  0.3223 -0.8146  1.8757
15933SOL    HW249807   8.756   4.262   0.088  1.4832  1.7086  0.1636
15934SOL     OW49808   3.156   1.782   3.088 -0.0103 -0.3213  0.2141
15934SOL    HW149809   3.181   1.716   3.152  1.9379  0.8355  0.7467
15934SOL    HW249810   3.204   1.759   3.009  0.8039  0.4753  0.4482
15935SOL     OW49811   6.674   1.350  10.976 -0.0981  0.4515  0.0285
15935SOL    HW149812   6.589   1.313  10.951 -0.5281  1.5145 -0.1335
15935SOL    HW249813   6.711   1.381  10.894  1.0473 -1.1472 -0.1087
15936SOL     OW49814   3.088   6.628   4.757  0.1056 -0.0649 -0.0509
15936SOL    HW149815   3.135   6.655   4.836 -0.1071 -1.2615  0.5013
15936SOL    HW249816   3.157   6.610   4.693  0.2756  3.8512 -1.2523
15937SOL     OW49817   4.930   0.707  10.646 -0.5423  0.8430  0.6393
15937SOL    HW149818   4.894   0.796  10.649 -1.5617  0.4219  1.2032
15937SOL    HW249819   4.973   0.701  10.561  0.9102  2.3916  1.1927
15938SOL     OW49820   5.240   2.385   8.131 -0.5039  0.4087  0.2268
15938SOL    HW149821   5.312   2.423   8.181 -0.1030 -2.0278  1.6517
15938SOL    HW249822   5.173   2.365   8.196 -0.9515 -0.7293 -0.5475
15939SOL     OW49823   7.568   0.509   7.642 -0.5552 -0.2054 -0.2985
15939SOL    HW149824   7.599   0.513   7.551 -0.6685 -0.9143 -0.3699
15939SOL    HW249825   7.647   0.489   7.693 -0.3854  0.7423 -0.1711
15940SOL     OW49826   7.202   2.027  10.855  0.3505 -0.6044 -0.1441
15940SOL    HW149827   7.257   1.979  10.916 -1.4940 -2.4330  0.2031
15940SOL    HW249828   7.173   1.961  10.792  1.2063  0.9846 -2.3213
15941SOL     OW49829   7.200   0.834   8.008 -0.4662  0.1414 -0.4670
15941SOL    HW149830   7.199   0.867   7.919 -2.1596  0.5386 -0.3244
15941SOL    HW249831   7.110   0.842   8.038 -0.5187 -2.4745  0.3624
15942SOL     OW49832   5.592  10.732   8.909 -0.2395 -0.0880  0.0854
15942SOL    HW149833   5.576  10.671   8.836 -0.5986 -0.7429  0.6946
15942SOL    HW249834   5.687  10.744   8.910  0.2125 -2.9051  1.6870
15943SOL     OW49835   3.945   4.564  10.739 -0.1457 -0.5427  0.2124
15943SOL    HW149836   3.908   4.627  10.678 -0.3504 -0.3343  0.5476
15943SOL    HW249837   3.886   4.489  10.735  0.4739 -1.0022 -0.6971
15944SOL     OW49838   0.531   9.307   8.777 -0.5192  0.1521 -0.0741
15944SOL    HW149839   0.465   9.243   8.748  0.5417 -1.4972  0.9850
15944SOL    HW249840   0.609   9.286   8.726  0.3016 -0.4461  1.3736
15945SOL     OW49841   9.058  10.466   9.576 -0.4802  0.3879 -0.6645
15945SOL    HW149842   8.973  10.454   9.533 -0.3958 -1.9991 -0.3270
15945SOL    HW249843   9.036  10.490   9.666 -0.8732 -0.8056 -0.4155
15946SOL     OW49844   5.674   4.220   0.771  0.6053 -0.5010  0.3990
15946SOL    HW149845   5.619   4.170   0.710 -0.8453 -0.8399  1.8997
15946SOL    HW249846   5.638   4.200   0.858  0.4315  2.5748  1.1475
15947SOL     OW49847   4.805   1.508   6.985 -0.2675  0.3401 -0.3506
15947SOL    HW149848   4.838   1.554   7.062  0.8289  0.5332 -0.9259
15947SOL    HW249849   4.829   1.416   6.998 -1.7438  0.0333  0.4115
15948SOL     OW49850   3.375   8.878   8.222 -0.5449 -0.0682  0.3361
15948SOL    HW149851   3.331   8.934   8.287 -0.8770 -0.5454  0.5300
15948SOL    HW249852   3.306   8.819   8.192  0.1401 -1.3864  1.2607
15949SOL     OW49853  11.041   8.041   9.426 -0.3610  0.1109 -0.2955
15949SOL    HW149854  10.988   8.090   9.363 -0.5016 -0.6424 -0.7770
15949SOL    HW249855  11.067   8.106   9.491 -2.3162  0.4042  0.2497
15950SOL     OW49856   8.487   3.416   9.723  0.4557 -0.7835 -0.5208
15950SOL    HW149857   8.464   3.423   9.631  0.3615 -2.5975 -0.6710
15950SOL    HW249858   8.435   3.343   9.756 -2.5011  2.1410  1.9996
15951SOL     OW49859   4.008   5.370   9.195 -0.3687 -0.4827 -0.5539
15951SOL    HW149860   3.941   5.405   9.137 -0.6089 -1.8024 -1.1171
15951SOL    HW249861   4.089   5.413   9.168 -0.6219 -0.4753 -1.3085
15952SOL     OW49862   6.965   0.929   4.288 -0.1732 -0.2766 -0.1083
15952SOL    HW149863   7.008   0.897   4.367  0.0873  0.8722  0.2227
15952SOL    HW249864   6.941   0.849   4.240 -0.4679 -0.9980  1.1879
15953SOL     OW49865   7.049   2.970   5.692  0.0838  0.2568 -0.6671
15953SOL    HW149866   7.112   2.926   5.635  2.3208  2.2836  0.1006
15953SOL    HW249867   7.047   2.918   5.772 -0.1005 -0.4291 -1.1074
15954SOL     OW49868   6.693   8.561   0.507 -0.2180  0.3606 -0.7815
15954SOL    HW149869   6.619   8.623   0.512 -1.3361 -1.0137  0.6423
15954SOL    HW249870   6.744   8.579   0.586 -1.9471 -2.0980  1.0616
15955SOL     OW49871   9.748   1.246  10.537 -0.3215  0.6798 -0.4233
15955SOL    HW149872   9.817   1.188  10.568 -1.3801 -0.3268  0.1778
15955SOL    HW249873   9.693   1.190  10.482 -1.2585  1.1365  0.0184
15956SOL     OW49874   6.507   3.219   0.724 -0.1337 -0.7076 -0.2044
15956SOL    HW149875   6.444   3.151   0.748  0.5291 -1.7700 -1.3308
15956SOL    HW249876   6.590   3.172   0.715  0.2758  0.1984 -1.3204
15957SOL     OW49877   5.017   6.662   3.982 -0.4719 -0.1580  0.3884
15957SOL    HW149878   5.049   6.598   3.919 -0.9447  1.4269 -1.5595
15957SOL    HW249879   5.096   6.692   4.028 -0.2046 -1.8171  1.0862
15958SOL     OW49880   3.069   6.832   1.538 -0.0923 -0.2913 -0.0908
15958SOL    HW149881   3.075   6.926   1.521  2.3913 -0.4623 -0.4663
15958SOL    HW249882   3.145   6.813   1.594 -1.4154 -1.8343  1.3040
15959SOL     OW49883   0.176   1.678   5.819 -0.6027 -0.0774 -0.4266
15959SOL    HW149884   0.193   1.585   5.836  0.5071  0.4549  1.7124
15959SOL    HW249885   0.137   1.711   5.900 -2.3816  1.0499 -1.6668
15960SOL     OW49886   1.202   1.344   6.848 -0.0694 -0.5956  0.1568
15960SOL    HW149887   1.148   1.419   6.870 -0.1270 -1.3630  3.0384
15960SOL    HW249888   1.211   1.347   6.752 -0.8790  2.4472  0.0938
15961SOL     OW49889   6.459   9.204   8.344 -0.0232  0.3479 -0.1172
15961SOL    HW149890   6.521   9.273   8.320  0.7848  0.0923  1.1452
15961SOL    HW249891   6.395   9.204   8.273 -0.0278  2.3709 -0.1809
15962SOL     OW49892   9.363   2.527   1.112  0.0011 -0.2956 -0.2579
15962SOL    HW149893   9.390   2.548   1.202 -2.4160 -1.2001  0.7472
15962SOL    HW249894   9.439   2.551   1.059  0.8827  1.9847  1.7998
15963SOL     OW49895   9.102   7.753  10.053  0.1693  0.1308  0.4042
15963SOL    HW149896   9.179   7.746   9.998 -0.5365 -0.1249 -0.5679
15963SOL    HW249897   9.062   7.836  10.028 -0.1215  0.0484  0.5894
15964SOL     OW49898   9.467   3.290   8.809  0.0527 -0.3384  0.1995
15964SOL    HW149899   9.561   3.299   8.825  0.2220 -1.9198  0.2585
15964SOL    HW249900   9.454   3.324   8.721  0.5083  0.7843  0.5531
15965SOL     OW49901   9.952   2.319   9.566  0.1591 -0.2790 -0.1739
15965SOL    HW149902   9.894   2.297   9.494 -0.3152 -2.0019  0.6722
15965SOL    HW249903  10.024   2.368   9.526 -1.4564  1.2065 -1.3518
15966SOL     OW49904   7.773   4.130   6.844 -0.6622 -0.5457  0.6792
15966SOL    HW149905   7.705   4.166   6.787 -1.0504  0.4850  1.7583
15966SOL    HW249906   7.853   4.135   6.791 -0.5776  2.4820  0.9101
15967SOL     OW49907   2.649   7.373   0.523 -0.2224  0.4192  0.3131
15967SOL    HW149908   2.654   7.465   0.548 -2.2507 -0.0227  2.7588
15967SOL    HW249909   2.559   7.361   0.494 -0.1942 -0.9137  0.6945
15968SOL     OW49910   8.075   9.909   2.375  0.4581 -0.2476  0.0523
15968SOL    HW149911   7.993   9.869   2.403  0.9438 -0.2693  1.5266
15968SOL    HW249912   8.098   9.968   2.447  0.1814  2.1172 -1.6883
15969SOL     OW49913   2.620   5.594   9.089  0.4602 -0.4229 -0.1802
15969SOL    HW149914   2.590   5.518   9.139  1.3064  0.2838  1.4940
15969SOL    HW249915   2.556   5.605   9.019 -0.2362 -2.0411  0.1788
15970SOL     OW49916   4.280   9.396   2.433 -0.3665 -0.0978 -0.3713
15970SOL    HW149917   4.334   9.322   2.407 -0.3779 -0.2234 -0.0433
15970SOL    HW249918   4.329   9.437   2.504  1.4564  2.3574 -2.7988
15971SOL     OW49919   7.149   4.688  10.264 -0.0915 -0.2924  0.2663
15971SOL    HW149920   7.063   4.730  10.260 -0.8465 -1.8480 -0.9708
15971SOL    HW249921   7.154   4.652  10.352 -0.5395  0.1330  0.4689
15972SOL     OW49922   3.334   9.657   8.341  0.2255  0.3363 -0.0975
15972SOL    HW149923   3.363   9.745   8.366  3.4263 -0.1672 -1.5991
15972SOL    HW249924   3.415   9.607   8.329 -1.4389 -3.3801  2.3338
15973SOL     OW49925   7.670   8.220   1.447  0.0779  0.0209 -0.0253
15973SOL    HW149926   7.633   8.209   1.535  0.4398  0.5173  0.1887
15973SOL    HW249927   7.750   8.167   1.448  0.8471  1.1588  0.4162
15974SOL     OW49928   5.638   7.371   1.556 -0.3644  0.0610 -0.1480
15974SOL    HW149929   5.730   7.360   1.531  0.1684 -0.0672  1.7084
15974SOL    HW249930   5.600   7.283   1.550 -0.2278  0.0176 -0.3824
15975SOL     OW49931   8.071   4.893   3.167 -0.2344  0.1223  0.7570
15975SOL    HW149932   8.011   4.929   3.102 -0.1149 -0.8669  0.0808
15975SOL    HW249933   8.015   4.870   3.241 -0.5147  0.3280  0.6112
15976SOL     OW49934   3.342   3.278   9.649 -0.0902 -0.6246 -0.6318
15976SOL    HW149935   3.336   3.193   9.691 -0.0108 -0.4067 -0.1812
15976SOL    HW249936   3.251   3.300   9.626 -0.4441  0.2259  1.3619
15977SOL     OW49937  11.072  11.092   3.395  0.2533 -0.4269 -0.0691
15977SOL    HW149938  11.085  11.044   3.477 -1.3975  1.4254  1.3602
15977SOL    HW249939  11.150  11.146   3.387 -0.4122  0.7887  1.3362
15978SOL     OW49940  10.143  10.556   4.306 -0.3399 -0.2231  0.1721
15978SOL    HW149941  10.200  10.528   4.378  0.6627  1.2250 -0.0109
15978SOL    HW249942  10.081  10.484   4.295  1.1619 -1.6641  0.7036
15979SOL     OW49943   1.263   3.634   7.566  0.2851  0.0035 -0.3437
15979SOL    HW149944   1.253   3.557   7.512  1.2672  1.4657 -2.7810
15979SOL    HW249945   1.194   3.694   7.537  0.8755  0.8638 -0.0244
15980SOL     OW49946   3.978   2.611   0.175 -0.0656 -0.5503  0.1191
15980SOL    HW149947   3.935   2.526   0.185 -0.5023 -0.0863  2.8925
15980SOL    HW249948   3.907   2.674   0.169  0.2060 -0.1284  1.0667
15981SOL     OW49949   4.264   4.269  10.163 -0.5770 -0.0632  0.1318
15981SOL    HW149950   4.228   4.187  10.195  0.6884 -0.4711  0.5475
15981SOL    HW249951   4.284   4.319  10.242  0.4080 -0.1347 -0.0595
15982SOL     OW49952   0.301   2.989   6.518 -0.1635  0.0088  0.3812
15982SOL    HW149953   0.275   2.951   6.602 -1.4820 -0.7102 -0.3266
15982SOL    HW249954   0.383   2.944   6.497 -1.1770 -1.8005  0.0475
15983SOL     OW49955   7.863   9.013   2.462 -0.0838  0.8548  0.2979
15983SOL    HW149956   7.954   9.038   2.446  0.4195 -0.7736  0.4256
15983SOL    HW249957   7.834   8.974   2.380 -0.0689 -0.2781  0.8216
15984SOL     OW49958   3.213   0.243  10.831  0.0261 -0.6719  0.1183
15984SOL    HW149959   3.221   0.335  10.853  2.2480 -1.0354  1.1347
15984SOL    HW249960   3.274   0.230  10.758 -1.0536 -1.1427 -0.7269
15985SOL     OW49961   4.979  10.103   5.437  0.5105 -0.1306 -0.5553
15985SOL    HW149962   4.972  10.100   5.341 -1.1702 -0.3057 -0.4577
15985SOL    HW249963   5.059  10.054   5.456 -0.7057 -2.8213 -1.7402
15986SOL     OW49964   8.826   2.898   7.937  0.0319  0.2346  0.3393
15986SOL    HW149965   8.757   2.842   7.902  0.8732 -0.9490  0.5037
15986SOL    HW249966   8.856   2.853   8.017  2.1296 -0.2285 -0.6243
15987SOL     OW49967   4.816   5.391   4.507  0.0539 -0.1280 -0.2352
15987SOL    HW149968   4.835   5.414   4.598  0.4831  3.0340 -1.0018
15987SOL    HW249969   4.742   5.331   4.512  0.3226 -0.3462  2.1975
15988SOL     OW49970   1.991   3.864   8.453 -0.3941 -0.2767  0.0166
15988SOL    HW149971   1.986   3.915   8.533 -2.3875  0.0136 -0.2454
15988SOL    HW249972   1.901   3.832   8.438  0.2570 -1.6983 -1.2159
15989SOL     OW49973  10.129   7.935   7.530  0.1810 -0.3766 -0.1060
15989SOL    HW149974  10.092   7.851   7.505 -0.0215  0.2455 -2.0221
15989SOL    HW249975  10.061   7.977   7.582 -0.3218 -0.7764 -0.4339
15990SOL     OW49976   8.174   5.664   3.192 -0.3743 -0.5841  0.0263
15990SOL    HW149977   8.197   5.738   3.136  0.5889 -1.4182 -0.7117
15990SOL    HW249978   8.099   5.623   3.148 -1.5855  0.5147  0.9766
15991SOL     OW49979   4.173   2.102   9.809  0.0719 -0.3504 -0.2431
15991SOL    HW149980   4.109   2.037   9.838  1.2345 -1.8077 -0.8098
15991SOL    HW249981   4.251   2.082   9.861  0.4872  0.5245 -0.5281
15992SOL     OW49982  10.268   7.055   9.928 -0.2042  0.2307  0.0996
15992SOL    HW149983  10.295   7.043   9.837 -1.0829  1.0290 -0.2886
15992SOL    HW249984  10.214   6.978   9.946 -0.2122  0.1776 -0.1372
15993SOL     OW49985   3.761   5.355   8.663  0.2399 -0.7796  0.1760
15993SOL    HW149986   3.851   5.335   8.639 -0.5083 -1.8278 -1.9822
15993SOL    HW249987   3.760   5.450   8.677  0.9131  0.0032 -3.8717
15994SOL     OW49988   5.969   6.454   8.034 -0.0515 -0.4641  0.2950
15994SOL    HW149989   5.948   6.391   7.965  0.7442  0.0488 -0.4506
15994SOL    HW249990   6.048   6.418   8.076  0.1289 -0.2129  0.1777
15995SOL     OW49991   5.953   0.918   8.793  0.6382  0.5325 -0.2198
15995SOL    HW149992   5.919   0.983   8.732  0.5102  0.2863 -0.4139
15995SOL    HW249993   5.899   0.928   8.872 -0.2822 -0.2517 -0.7363
15996SOL     OW49994   7.753   1.668   9.634  0.4709  0.6526  0.2823
15996SOL    HW149995   7.818   1.713   9.580  0.0222  0.7992 -0.1529
15996SOL    HW249996   7.729   1.732   9.701 -2.4253  2.3378 -2.1228
15997SOL     OW49997   5.827  10.452  10.732  0.2310  0.3031  0.0926
15997SOL    HW149998   5.807  10.395  10.806  1.4679 -0.2622  0.0255
15997SOL    HW249999   5.923  10.457  10.731  0.2297  0.5052 -1.3201
15998SOL     OW50000   5.692  10.966   9.923 -0.3295  0.1398  0.1219
15998SOL    HW150001   5.727  10.946  10.010 -0.0002  0.1109 -0.0170
15998SOL    HW250002   5.713  10.888   9.871 -0.7439  0.0555  0.0802
15999SOL     OW50003   5.110   4.470   0.091 -0.1197 -0.5412  0.6690
15999SOL    HW150004   5.102   4.394   0.150  1.4436 -2.1182 -1.0428
15999SOL    HW250005   5.154   4.436   0.013 -1.0988  1.7304 -0.9817
16000SOL     OW50006   6.714   9.370  11.088  0.4625 -0.4253  0.2007
16000SOL    HW150007   6.808   9.381  11.073  0.4268  1.2134  0.9721
16000SOL    HW250008   6.675   9.452  11.057 -0.7219 -1.0886 -0.1138
16001SOL     OW50009   5.701   1.853   6.700 -0.7564  0.2698  0.4779
16001SOL    HW150010   5.792   1.882   6.707 -1.3791  2.1522  1.4644
16001SOL    HW250011   5.707   1.762   6.672  1.4764 -0.1635  2.1112
16002SOL     OW50012   6.075   1.390   1.706  0.4001  0.1194  0.0300
16002SOL    HW150013   6.080   1.454   1.635  0.7556  0.6904  0.5625
16002SOL    HW250014   6.020   1.432   1.772 -0.1637 -0.5264 -0.0245
16003SOL     OW50015   8.984   1.964   0.031 -0.5532 -0.2380  0.1997
16003SOL    HW150016   8.925   2.004  -0.032 -0.7795  0.4266  0.8275
16003SOL    HW250017   8.946   1.878   0.049 -0.4685 -0.4481 -0.5804
16004SOL     OW50018   5.344  10.307   9.457 -0.3233 -0.3326  0.4678
16004SOL    HW150019   5.314  10.225   9.418 -1.7185 -0.4600  1.7510
16004SOL    HW250020   5.367  10.362   9.381  0.5942 -1.8510 -0.4052
16005SOL     OW50021   7.419   5.459   1.143  0.6317  0.3800  0.3868
16005SOL    HW150022   7.485   5.527   1.157  1.0752  0.2191 -0.8458
16005SOL    HW250023   7.338   5.498   1.176  0.9604  1.3539  0.0865
16006SOL     OW50024   2.650   3.818   6.324 -0.3190 -0.1901 -0.2629
16006SOL    HW150025   2.585   3.798   6.392 -0.4041 -2.0645 -0.8569
16006SOL    HW250026   2.728   3.771   6.352 -0.1734 -0.4871 -1.1695
16007SOL     OW50027   2.298   3.102   5.962  0.4126  0.0694 -0.1266
16007SOL    HW150028   2.382   3.146   5.949  2.8923 -4.3130 -0.9090
16007SOL    HW250029   2.291   3.090   6.057 -0.3927  2.0376  0.1169
16008SOL     OW50030   6.244   0.037   2.871 -0.4457  0.1985 -0.1498
16008SOL    HW150031   6.183  -0.005   2.811 -1.4839  0.9191  0.3816
16008SOL    HW250032   6.259   0.124   2.834 -1.3075  0.7487  0.7444
16009SOL     OW50033   2.568   1.859   8.351  0.4884  0.0804 -0.7308
16009SOL    HW150034   2.637   1.925   8.360  0.8311 -0.1203 -1.7510
16009SOL    HW250035   2.510   1.895   8.284  0.4167 -0.4365 -0.9496
16010SOL     OW50036   1.634   2.925   1.712  0.1872  0.0534  0.4469
16010SOL    HW150037   1.640   2.955   1.803 -0.0846  0.4171  0.3445
16010SOL    HW250038   1.540   2.914   1.697  0.2051  0.3926  0.0768
16011SOL     OW50039   5.521   6.782   5.351  0.0393  0.4674  0.4580
16011SOL    HW150040   5.589   6.780   5.418  0.1279  0.7562  0.3781
16011SOL    HW250041   5.461   6.851   5.379 -0.7818 -0.4691  1.0687
16012SOL     OW50042   7.373   9.817   4.320 -0.3131 -0.3712  0.0964
16012SOL    HW150043   7.359   9.888   4.382  1.0467  1.8730 -1.9815
16012SOL    HW250044   7.290   9.809   4.273 -0.8452 -1.0286  1.0985
16013SOL     OW50045   6.320   5.106  10.414 -0.5399  0.5621 -0.4275
16013SOL    HW150046   6.384   5.089  10.484  0.7313 -1.9400 -2.0319
16013SOL    HW250047   6.357   5.181  10.366 -1.0412  1.8173  1.0773
16014SOL     OW50048   9.195   2.313  10.130 -0.1181  0.7712 -0.1960
16014SOL    HW150049   9.176   2.331  10.222 -0.4022  1.4357 -0.3829
16014SOL    HW250050   9.207   2.218  10.126 -0.1517  0.7372  0.5178
16015SOL     OW50051  11.030   4.752   3.280 -0.6847  0.4530 -0.5320
16015SOL    HW150052  10.948   4.747   3.330 -0.4291  0.4549 -0.1033
16015SOL    HW250053  11.011   4.813   3.209 -0.6108  1.6396  0.4461
16016SOL     OW50054   2.176  10.563  10.404 -0.3425  0.0746  0.3278
16016SOL    HW150055   2.177  10.500  10.476 -1.5272  1.5259  1.6928
16016SOL    HW250056   2.267  10.591  10.395 -0.0096 -0.9308  0.5224
16017SOL     OW50057   9.060   9.365   8.134  0.2421  0.3645 -0.9322
16017SOL    HW150058   9.026   9.384   8.221  0.4684  2.8719 -1.2907
16017SOL    HW250059   9.074   9.271   8.132  2.6945  0.4893  2.6364
16018SOL     OW50060  10.696   0.749   1.836 -0.1133  0.4417 -0.3374
16018SOL    HW150061  10.781   0.758   1.793  0.8358  1.8965  1.6556
16018SOL    HW250062  10.635   0.795   1.780  1.1569  2.6688 -0.0141
16019SOL     OW50063   1.716   0.332   5.593  0.3922  0.3817  0.1625
16019SOL    HW150064   1.727   0.427   5.595  1.2934  0.2842  0.5808
16019SOL    HW250065   1.714   0.310   5.500 -0.2398  0.8491  0.0628
16020SOL     OW50066   0.818   1.742   1.755 -0.1033  0.0376 -0.5347
16020SOL    HW150067   0.770   1.688   1.818  1.1788  1.1271  1.4951
16020SOL    HW250068   0.803   1.832   1.784  1.1619  0.5274 -1.2983
16021SOL     OW50069   0.955   1.502   3.762 -0.7684 -0.1184  0.1918
16021SOL    HW150070   1.010   1.489   3.685 -1.7455  2.8642 -1.1784
16021SOL    HW250071   0.891   1.431   3.757 -0.2066 -0.5697 -1.1986
16022SOL     OW50072   8.557   0.249   4.673  0.4720  0.4373  0.0341
16022SOL    HW150073   8.636   0.197   4.661 -0.3583 -0.9001  0.2377
16022SOL    HW250074   8.491   0.207   4.618  0.5106  3.0624 -2.2147
16023SOL     OW50075   9.479  10.689   2.608  0.5507  0.5919  0.0455
16023SOL    HW150076   9.490  10.664   2.516  1.3682  0.0667  0.2660
16023SOL    HW250077   9.495  10.608   2.657 -3.2608 -0.0042  0.5560
16024SOL     OW50078   8.567   2.849  10.215 -0.0600  0.1156 -0.6627
16024SOL    HW150079   8.592   2.922  10.159  0.0465  0.4504 -0.1892
16024SOL    HW250080   8.501   2.886  10.274  1.1229  0.2700  0.6180
16025SOL     OW50081   1.534   7.211   0.769  0.1461 -0.2042 -0.2487
16025SOL    HW150082   1.554   7.257   0.688  1.1394  0.4337  0.3351
16025SOL    HW250083   1.443   7.183   0.759  0.3297 -0.3851 -1.6850
16026SOL     OW50084   1.418   0.104   4.856  0.0278  0.1604 -0.1374
16026SOL    HW150085   1.398   0.172   4.792 -2.4502 -1.1526 -0.8760
16026SOL    HW250086   1.333   0.065   4.877  1.3816 -3.2805 -0.3954
16027SOL     OW50087   7.197   2.416   4.297 -0.4940 -0.3421  0.1502
16027SOL    HW150088   7.191   2.509   4.316  1.0092 -0.7005  2.8695
16027SOL    HW250089   7.106   2.388   4.285 -0.9012  1.7220 -2.7667
16028SOL     OW50090   7.505   3.773   9.477 -0.1138  0.2790 -0.4265
16028SOL    HW150091   7.577   3.788   9.539  0.0358 -0.0698 -0.5149
16028SOL    HW250092   7.491   3.858   9.436 -0.1329  0.4838  0.0027
16029SOL     OW50093   7.331   0.561   9.431  0.2286  0.1280  0.3132
16029SOL    HW150094   7.383   0.624   9.482  0.3157 -0.7191  1.3072
16029SOL    HW250095   7.247   0.557   9.477  0.0017 -0.0157 -0.1099
16030SOL     OW50096   6.272   8.277   3.449 -0.3057 -0.2193 -0.1195
16030SOL    HW150097   6.297   8.186   3.440 -2.3977 -1.2213  2.7809
16030SOL    HW250098   6.342   8.317   3.501  0.0988 -0.3899 -0.5223
16031SOL     OW50099  10.969  10.184   6.728 -0.2827 -0.8550  0.1614
16031SOL    HW150100  10.989  10.215   6.816 -2.3867 -2.3792  1.2646
16031SOL    HW250101  10.890  10.232   6.703 -0.7320 -1.7232 -0.1303
16032SOL     OW50102   5.301   6.492   0.943  0.3054 -0.6226  0.8488
16032SOL    HW150103   5.266   6.504   1.031 -0.7860 -0.5294  0.4273
16032SOL    HW250104   5.226   6.458   0.893  0.2918  1.3411 -0.5459
16033SOL     OW50105   0.712   2.297   2.279  0.0970  0.0848 -0.5927
16033SOL    HW150106   0.617   2.287   2.279  0.2176 -1.2353 -0.0384
16033SOL    HW250107   0.739   2.275   2.368  0.7916  2.0823 -0.2607
16034SOL     OW50108   5.355   0.271  10.644 -0.5521  0.2376 -0.1141
16034SOL    HW150109   5.447   0.294  10.648 -1.0169  2.4466 -0.4912
16034SOL    HW250110   5.309   0.350  10.674 -2.3049 -1.3421  1.6716
16035SOL     OW50111   5.239   3.784   4.515  0.3760 -0.4254  0.0738
16035SOL    HW150112   5.177   3.745   4.577  0.4169  0.0679  0.4314
16035SOL    HW250113   5.221   3.740   4.432  0.5348 -1.3231  0.5004
16036SOL     OW50114   8.782   2.486   2.884  0.5919  0.1747 -0.2054
16036SOL    HW150115   8.691   2.456   2.879  0.7171 -0.0636 -1.6676
16036SOL    HW250116   8.783   2.566   2.831  0.9520  0.9889  0.9845
16037SOL     OW50117   2.019   4.227  10.163  0.4042  0.9697  0.2178
16037SOL    HW150118   2.067   4.277  10.229 -1.1427  0.3794  1.8605
16037SOL    HW250119   2.046   4.136  10.177 -0.6150  0.7234  0.6855
16038SOL     OW50120   9.537   8.605   2.747  0.0696 -0.5029 -0.2110
16038SOL    HW150121   9.631   8.586   2.743  0.5819  1.5776  0.6251
16038SOL    HW250122   9.512   8.581   2.836 -0.6903 -2.8377 -0.9734
16039SOL     OW50123   5.645   7.617   1.741 -0.3186  0.0265  0.1714
16039SOL    HW150124   5.726   7.607   1.791 -0.0423 -2.2416 -0.6443
16039SOL    HW250125   5.635   7.535   1.692 -1.4035  1.4878 -2.2850
16040SOL     OW50126   2.477   5.779   0.871  0.0810 -0.0386  0.5079
16040SOL    HW150127   2.444   5.868   0.863 -2.4240 -0.8913  0.6420
16040SOL    HW250128   2.505   5.756   0.782  0.6963  0.8204  0.4635
16041SOL     OW50129  10.726  10.662   6.311 -0.1124 -0.2215  0.5495
16041SOL    HW150130  10.645  10.616   6.286  0.2317 -1.0881  0.9846
16041SOL    HW250131  10.769  10.681   6.227  0.4550 -2.0426  0.3873
16042SOL     OW50132   7.921  10.388   6.930 -0.4054  0.8093 -0.6921
16042SOL    HW150133   8.007  10.353   6.910 -0.6858 -0.5992  0.4063
16042SOL    HW250134   7.936  10.449   7.003 -0.3753  0.3177 -0.2846
16043SOL     OW50135   1.335   7.334  11.073 -0.6325 -0.0519 -0.3053
16043SOL    HW150136   1.393   7.258  11.079 -1.2493 -0.5277 -0.3109
16043SOL    HW250137   1.347   7.380  11.156 -1.1447 -0.8073  0.1970
16044SOL     OW50138   2.399   4.508   4.142  0.1310  0.2304  0.1658
16044SOL    HW150139   2.370   4.593   4.110  0.2736  1.4132  2.8814
16044SOL    HW250140   2.486   4.496   4.104 -0.7012  0.2522 -1.8904
16045SOL     OW50141   6.431   0.994  10.349  0.0717  0.3379  0.2510
16045SOL    HW150142   6.465   0.982  10.261 -1.2352  0.9060 -0.3584
16045SOL    HW250143   6.406   0.907  10.378  1.5967 -0.0274  0.5494
16046SOL     OW50144  10.653   0.275   7.674  0.8889  0.5965  0.2952
16046SOL    HW150145  10.708   0.223   7.733  1.2752  1.7508  0.9940
16046SOL    HW250146  10.657   0.229   7.590  2.3150  0.2367  0.5335
16047SOL     OW50147   7.493   7.631  10.160 -0.3724  0.0266 -0.0145
16047SOL    HW150148   7.501   7.563  10.227  0.7310  1.1148  0.9862
16047SOL    HW250149   7.404   7.663  10.169 -0.7165 -0.8680 -0.1024
16048SOL     OW50150   7.663   1.571   9.957  0.4468  0.2713  0.0070
16048SOL    HW150151   7.662   1.580  10.052 -1.2879  0.1739  0.0267
16048SOL    HW250152   7.649   1.660   9.925  2.0450  0.4780 -0.2145
16049SOL     OW50153   7.381  10.151   3.994 -0.1797  0.0264  0.0080
16049SOL    HW150154   7.292  10.136   3.962  0.5499 -3.2729 -0.8235
16049SOL    HW250155   7.372  10.157   4.089 -1.2117 -1.2937  0.0142
16050SOL     OW50156   5.137   1.524   0.242  0.2937  0.2721 -0.0509
16050SOL    HW150157   5.065   1.482   0.195 -0.6918  0.9187  0.8358
16050SOL    HW250158   5.212   1.517   0.182 -0.7305  0.4417 -1.4036
16051SOL     OW50159   0.907   2.330   1.255  0.1215  0.8592 -0.6941
16051SOL    HW150160   0.989   2.349   1.208 -0.2608  0.9863 -1.3255
16051SOL    HW250161   0.838   2.353   1.192 -0.3906 -1.2543 -0.9541
16052SOL     OW50162   3.601   3.493   7.084 -0.0044 -0.2267 -0.2921
16052SOL    HW150163   3.584   3.413   7.134  0.9933  0.2666  0.8878
16052SOL    HW250164   3.609   3.463   6.993 -1.2499 -1.2268 -0.0997
16053SOL     OW50165  10.817   3.279   9.492  0.0881  0.1569 -0.1009
16053SOL    HW150166  10.756   3.337   9.538  0.1118  0.9874 -1.0723
16053SOL    HW250167  10.787   3.282   9.400  0.4978 -0.8542 -0.2714
16054SOL     OW50168   7.867   1.922   7.890  0.0182 -0.3952  0.9793
16054SOL    HW150169   7.872   2.017   7.891 -1.2006 -0.2409 -0.9948
16054SOL    HW250170   7.937   1.894   7.831  2.2470 -1.0070  3.7123
16055SOL     OW50171   4.002   1.508  10.377  0.1848  0.2397  0.2867
16055SOL    HW150172   4.019   1.601  10.395 -1.4743  0.5373  0.4879
16055SOL    HW250173   4.052   1.490  10.298  1.2871  1.0384  0.7631
16056SOL     OW50174   2.201   4.567   9.368 -0.3477  0.0062  0.1156
16056SOL    HW150175   2.257   4.641   9.348 -1.1244  0.3132 -0.9982
16056SOL    HW250176   2.174   4.533   9.282 -1.3419 -0.5232  0.6205
16057SOL     OW50177   9.274   5.859   3.867 -0.1396  0.5771 -0.3099
16057SOL    HW150178   9.324   5.939   3.883  0.6133 -0.2049  1.5776
16057SOL    HW250179   9.183   5.888   3.865  0.0212  1.3759  1.5838
16058SOL     OW50180   8.418   3.218   3.582 -0.3786  0.1560 -0.0352
16058SOL    HW150181   8.384   3.142   3.534 -0.7387 -0.5964  1.3296
16058SOL    HW250182   8.350   3.285   3.571 -2.3325 -1.2324  2.4096
16059SOL     OW50183   6.753   3.735   2.276 -0.3680  0.8210  0.5003
16059SOL    HW150184   6.768   3.642   2.296  1.2573  0.8114 -0.5907
16059SOL    HW250185   6.719   3.772   2.357 -0.2884 -0.5605  1.1934
16060SOL     OW50186   7.104   1.117   1.851 -0.3858 -1.1231  0.0984
16060SOL    HW150187   7.198   1.131   1.843 -0.4481 -1.1325 -0.6686
16060SOL    HW250188   7.085   1.042   1.794 -1.1319  0.0045 -1.1883
16061SOL     OW50189   5.632  10.930   6.082  0.3478  0.2489 -0.0011
16061SOL    HW150190   5.619  10.876   6.003  0.0523  0.4535 -0.0929
16061SOL    HW250191   5.718  10.969   6.070  1.6356 -2.0409  1.1599
16062SOL     OW50192  10.985   0.123   2.966  0.4008 -0.0873 -0.2170
16062SOL    HW150193  10.900   0.126   2.922 -0.1525 -0.9084  0.7309
16062SOL    HW250194  11.048   0.148   2.899 -0.6502  1.2618 -0.7590
16063SOL     OW50195   0.226   1.508   6.538  0.6577  0.4458  0.2504
16063SOL    HW150196   0.195   1.534   6.625  1.0318  1.7077  0.0249
16063SOL    HW250197   0.150   1.465   6.497  0.0504  1.0702  0.6962
16064SOL     OW50198   4.703   2.520   4.443  0.0323  0.1147  0.5773
16064SOL    HW150199   4.781   2.472   4.470  0.4262 -0.3668 -1.2551
16064SOL    HW250200   4.636   2.453   4.432 -0.4015  0.4205  1.2779
16065SOL     OW50201   8.081   4.557   0.361 -0.0448 -0.0703 -0.3931
16065SOL    HW150202   8.132   4.584   0.285  1.2630  1.5825  0.9882
16065SOL    HW250203   8.140   4.569   0.436 -1.6947 -0.3347  1.0322
16066SOL     OW50204   8.497   3.358  11.062  0.0703  0.1590  0.3987
16066SOL    HW150205   8.517   3.375  11.154  2.7163  1.3520 -0.2949
16066SOL    HW250206   8.578   3.322  11.026 -1.0053 -0.5713 -1.4197
16067SOL     OW50207   6.124   4.553   4.180 -0.2820 -0.2659 -0.1040
16067SOL    HW150208   6.189   4.592   4.122  0.4719 -0.0240  0.8794
16067SOL    HW250209   6.133   4.601   4.262 -4.6544  2.8604 -1.0846
16068SOL     OW50210   3.350   3.410   3.443  0.5683 -0.2174  0.6914
16068SOL    HW150211   3.439   3.374   3.450 -0.0577 -1.6284  2.0920
16068SOL    HW250212   3.306   3.353   3.380  1.0660  1.5096 -1.3367
16069SOL     OW50213   0.203   9.795   6.881  0.4656 -0.2869  0.2250
16069SOL    HW150214   0.194   9.855   6.807 -0.0741 -0.8558 -0.1792
16069SOL    HW250215   0.296   9.800   6.905  0.5085  0.3944 -0.0642
16070SOL     OW50216   0.686   1.011   1.708 -0.4044  0.6021  0.8083
16070SOL    HW150217   0.777   0.986   1.692 -0.9815 -1.1974  0.0785
16070SOL    HW250218   0.654   0.946   1.770 -1.1842  1.2726  1.1346
16071SOL     OW50219   5.580   7.140   2.330  0.3654  0.0971  0.3652
16071SOL    HW150220   5.646   7.072   2.316  1.0520  0.5033  1.5883
16071SOL    HW250221   5.584   7.160   2.423 -0.2400  1.4148  0.1286
16072SOL     OW50222   1.577   2.115   4.117  0.1706  0.2430 -0.6324
16072SOL    HW150223   1.491   2.081   4.093  0.8304 -1.7200 -0.4094
16072SOL    HW250224   1.569   2.141   4.209 -0.1249 -0.1414 -0.5499
16073SOL     OW50225   1.906   2.699   1.971 -0.2427 -0.0284  0.2740
16073SOL    HW150226   1.822   2.659   1.991 -1.1492  0.7620 -1.6325
16073SOL    HW250227   1.965   2.671   2.041 -1.9385 -1.0791  1.3223
16074SOL     OW50228   2.497   0.449   8.710 -0.3968  0.1714  0.0288
16074SOL    HW150229   2.475   0.451   8.617  0.8707  1.3809 -0.2819
16074SOL    HW250230   2.565   0.516   8.720 -0.6817  0.2353  1.8766
16075SOL     OW50231   2.572   0.141   9.882 -0.2328  0.2927  0.0562
16075SOL    HW150232   2.553   0.199   9.956 -0.2578 -0.7521  0.8788
16075SOL    HW250233   2.577   0.054   9.920 -1.4488 -0.4246 -1.3684
16076SOL     OW50234   2.414   3.650   2.222  0.4146  1.0494 -0.0610
16076SOL    HW150235   2.421   3.588   2.295  1.1748  2.3430  0.9930
16076SOL    HW250236   2.493   3.635   2.171 -0.1278  0.1270 -0.6612
16077SOL     OW50237   7.686   8.475   3.597 -0.0277 -0.2545  0.0578
16077SOL    HW150238   7.764   8.445   3.642  1.5802  1.3630 -1.4773
16077SOL    HW250239   7.645   8.536   3.658  0.1445 -0.7604  0.6899
16078SOL     OW50240   7.587   0.124   0.145  0.2290 -0.3795  0.2050
16078SOL    HW150241   7.589   0.040   0.099  0.3977  0.0947 -0.6722
16078SOL    HW250242   7.616   0.103   0.234  1.1710 -1.0933 -0.2556
16079SOL     OW50243   9.534   2.566   4.138  0.4065 -0.0190  0.2468
16079SOL    HW150244   9.516   2.657   4.115  0.9234 -0.1113 -0.5772
16079SOL    HW250245   9.500   2.515   4.064  0.9831 -0.4260  0.2544
16080SOL     OW50246   0.060   6.919  10.996  0.4759  0.9013  0.0648
16080SOL    HW150247   0.125   6.979  11.034  0.4085  1.7059 -1.0348
16080SOL    HW250248   0.058   6.942  10.903  1.3615 -1.6614 -0.6822
16081SOL     OW50249   6.591  11.097   2.673  0.0497  0.0772  0.3693
16081SOL    HW150250   6.525  11.144   2.622  0.8047  1.0227  0.2392
16081SOL    HW250251   6.540  11.034   2.724 -0.7035 -1.2697 -1.9002
16082SOL     OW50252   4.092   4.445   1.163 -0.3562  0.3041 -0.2118
16082SOL    HW150253   4.074   4.374   1.225 -0.3706 -0.5715 -1.1743
16082SOL    HW250254   4.022   4.438   1.098  0.2262  0.5213 -0.8833
16083SOL     OW50255   2.337   2.562   4.059 -0.8910  0.0479  0.1071
16083SOL    HW150256   2.315   2.471   4.041  0.1354  0.1819 -2.2922
16083SOL    HW250257   2.294   2.611   3.989  1.7906  0.9200 -1.0471
16084SOL     OW50258  10.664   0.690   2.111 -0.5471  0.0009  0.0161
16084SOL    HW150259  10.677   0.749   2.037 -1.5778  0.8608  0.5062
16084SOL    HW250260  10.569   0.689   2.125 -0.5998 -1.9862 -0.1426
16085SOL     OW50261   0.779   5.247   0.065 -0.5235 -0.3598 -0.2388
16085SOL    HW150262   0.691   5.242   0.102 -1.0150 -0.8667 -1.4088
16085SOL    HW250263   0.769   5.302  -0.013  0.1831 -0.4498 -0.4030
16086SOL     OW50264  10.845   7.935   6.418  0.5603 -0.0874  0.3028
16086SOL    HW150265  10.937   7.936   6.443  0.3646 -2.3106  1.4729
16086SOL    HW250266  10.799   7.916   6.500 -0.8396 -0.1305 -0.4585
16087SOL     OW50267   8.645   1.175   4.442 -0.3002  0.3010  0.3750
16087SOL    HW150268   8.710   1.243   4.423  0.3101 -0.4488 -0.2639
16087SOL    HW250269   8.693   1.110   4.492  0.1954 -1.5183 -2.2613
16088SOL     OW50270   0.254   3.328   1.247  0.1234 -0.6207 -0.7966
16088SOL    HW150271   0.182   3.276   1.284 -1.0722  0.8716 -0.9314
16088SOL    HW250272   0.222   3.418   1.248  2.8986  0.4943  1.3553
16089SOL     OW50273   7.169   8.243   5.452 -0.4987 -0.5644 -0.0878
16089SOL    HW150274   7.082   8.261   5.415 -0.1217 -0.5742 -1.0114
16089SOL    HW250275   7.175   8.148   5.456 -0.5321 -0.5637 -0.0164
16090SOL     OW50276   0.468   3.927   2.180  0.1411 -0.0561  1.1410
16090SOL    HW150277   0.409   3.853   2.194  0.8734 -0.9654 -0.4173
16090SOL    HW250278   0.539   3.914   2.242 -0.0285 -0.3222  1.2792
16091SOL     OW50279   4.333   7.872   0.396 -0.0642  0.1268  0.8043
16091SOL    HW150280   4.256   7.920   0.427  0.4624  0.3434  1.8473
16091SOL    HW250281   4.359   7.819   0.471 -0.1724 -1.2165 -0.0828
16092SOL     OW50282   6.198   5.545   5.505 -0.1666  0.1708 -0.0501
16092SOL    HW150283   6.175   5.629   5.545 -0.0278 -0.7007  1.9627
16092SOL    HW250284   6.294   5.542   5.510 -0.2263 -0.6122  1.0528
16093SOL     OW50285   7.567   6.103   1.834 -0.0384 -0.0919 -0.7012
16093SOL    HW150286   7.570   6.103   1.738 -0.3365  0.0732 -0.7120
16093SOL    HW250287   7.474   6.091   1.855  0.0732 -0.4895 -0.4312
16094SOL     OW50288   5.471   5.113   0.815  0.2936 -0.4804 -0.3299
16094SOL    HW150289   5.531   5.051   0.855 -1.2945 -0.8653  1.6548
16094SOL    HW250290   5.436   5.163   0.889 -2.6805 -1.1030 -1.1783
16095SOL     OW50291   4.280   1.837   6.249 -0.0893  0.3262 -0.0294
16095SOL    HW150292   4.229   1.791   6.316  0.4059 -0.1880  0.0018
16095SOL    HW250293   4.355   1.873   6.297 -0.0396  0.4575 -0.2063
16096SOL     OW50294   9.988   3.760   3.978 -0.6991  0.6898 -0.7345
16096SOL    HW150295  10.026   3.844   4.001  0.5752 -0.0290 -0.1302
16096SOL    HW250296   9.938   3.777   3.898  0.3096  1.8155 -1.1516
16097SOL     OW50297   1.834   0.110   8.094 -0.1339 -0.0640  0.1538
16097SOL    HW150298   1.921   0.086   8.125 -0.1715 -1.4643 -0.7245
16097SOL    HW250299   1.781   0.033   8.111 -0.5977 -0.1754 -1.5841
16098SOL     OW50300   1.119   5.003   3.000 -0.3460 -0.3929 -0.6377
16098SOL    HW150301   1.153   4.922   2.961 -0.2395 -1.0063  0.6883
16098SOL    HW250302   1.038   4.976   3.043  0.1524  0.0071  0.5818
16099SOL     OW50303   6.318   4.164  10.874 -0.1350  0.3762  0.5119
16099SOL    HW150304   6.271   4.189  10.953 -0.4837 -1.2124  0.8389
16099SOL    HW250305   6.409   4.187  10.893 -0.4724  1.7512  0.5996
16100SOL     OW50306   1.108   4.227   8.583  0.1894 -0.1356  0.1297
16100SOL    HW150307   1.080   4.310   8.544 -0.5228 -0.8222 -0.9031
16100SOL    HW250308   1.179   4.197   8.526 -0.4953 -0.8875 -0.3584
16101SOL     OW50309   1.027   8.136   4.858  0.4277 -1.1318  0.2727
16101SOL    HW150310   0.961   8.144   4.927 -0.8221 -0.2100 -0.9859
16101SOL    HW250311   1.068   8.051   4.875 -1.0093 -1.6974  1.1511
16102SOL     OW50312   9.121   9.502   3.240 -0.1506  0.3133 -0.5221
16102SOL    HW150313   9.143   9.443   3.168 -1.4338  0.9232 -1.4768
16102SOL    HW250314   9.190   9.489   3.305  0.3188 -1.2329 -1.2851
16103SOL     OW50315   3.570   0.656   5.604 -0.5394 -0.1289 -0.1281
16103SOL    HW150316   3.601   0.567   5.621 -1.2156 -0.7441 -1.9308
16103SOL    HW250317   3.639   0.697   5.553  0.1876  0.7428  1.4652
16104SOL     OW50318   3.974   2.251   9.676  0.2697 -0.3785  0.2525
16104SOL    HW150319   3.962   2.190   9.603  0.1426  0.7351 -0.6998
16104SOL    HW250320   4.053   2.221   9.720  2.1015  0.5995 -2.1494
16105SOL     OW50321   8.733   9.440   2.659  0.3740  0.1071 -0.2236
16105SOL    HW150322   8.805   9.482   2.706  1.0780 -0.7462 -0.5161
16105SOL    HW250323   8.773   9.363   2.618 -0.8182 -0.6776  0.0527
16106SOL     OW50324   0.924   0.904   6.011 -0.1253 -0.4581 -0.6201
16106SOL    HW150325   0.861   0.964   6.051 -1.3315 -0.6678 -2.1099
16106SOL    HW250326   0.977   0.872   6.084 -0.0026  1.7389  0.3326
16107SOL     OW50327   3.612   2.925   2.669 -0.2583 -0.1123  0.7048
16107SOL    HW150328   3.603   2.883   2.583  1.0625  1.1789 -0.1172
16107SOL    HW250329   3.533   2.979   2.678 -0.4365 -0.3068  0.3361
16108SOL     OW50330  10.759   9.189   3.065  0.1092 -0.2196 -0.0372
16108SOL    HW150331  10.758   9.149   2.978  0.0649 -0.8352  0.2375
16108SOL    HW250332  10.668   9.211   3.083  0.1636  0.2136 -0.2802
16109SOL     OW50333   8.176  10.853   9.233 -0.2884 -0.4920 -0.6820
16109SOL    HW150334   8.102  10.793   9.242  0.1105 -0.8502  0.3686
16109SOL    HW250335   8.137  10.940   9.242 -0.6544 -0.6599 -0.6365
16110SOL     OW50336   5.953   6.177  10.604 -0.1981 -0.0398  0.2547
16110SOL    HW150337   5.949   6.188  10.509  0.8383  0.2809  0.2437
16110SOL    HW250338   6.018   6.108  10.618 -0.3342 -0.0766  0.7345
16111SOL     OW50339   0.056   4.031   7.246 -0.1373 -0.2334 -0.2796
16111SOL    HW150340   0.134   4.071   7.207 -0.2720 -0.0787 -0.3942
16111SOL    HW250341   0.046   4.075   7.330  0.3385 -0.7935  0.0766
16112SOL     OW50342   1.600   1.848   3.176 -0.1803  0.0085  0.7689
16112SOL    HW150343   1.586   1.915   3.242 -0.0880  0.2664  0.5262
16112SOL    HW250344   1.592   1.894   3.093  0.9500 -0.0682  0.6067
16113SOL     OW50345   1.985  10.754  10.691 -0.2465 -0.3407  0.2661
16113SOL    HW150346   2.059  10.738  10.750 -0.2634  0.0391  0.3978
16113SOL    HW250347   1.924  10.683  10.710 -0.7172  0.3568  1.4732
16114SOL     OW50348   4.572   6.198   3.041 -0.6443  0.0635 -0.6728
16114SOL    HW150349   4.538   6.287   3.031  2.7664  1.5790 -0.5034
16114SOL    HW250350   4.574   6.163   2.952 -1.2877  0.4826 -0.8550
16115SOL     OW50351   5.795   8.785   0.106 -0.1596 -0.1645  0.1159
16115SOL    HW150352   5.708   8.784   0.067 -0.4255 -2.5156  0.6013
16115SOL    HW250353   5.853   8.757   0.035  0.0455  0.3160  0.0936
16116SOL     OW50354   6.224   9.861   6.364 -0.1425 -0.4846 -0.1143
16116SOL    HW150355   6.218   9.886   6.456 -1.0164  0.8864 -0.5010
16116SOL    HW250356   6.297   9.913   6.330  1.1889 -2.1287  0.1086
16117SOL     OW50357   7.651  10.776   6.675  0.2281 -0.1640 -0.8125
16117SOL    HW150358   7.687  10.734   6.753  2.2396 -0.1078 -1.6391
16117SOL    HW250359   7.696  10.860   6.670 -0.3356  0.0978 -1.6743
16118SOL     OW50360   6.845   6.877   1.594 -0.0146 -0.3919 -0.3478
16118SOL    HW150361   6.768   6.889   1.540  1.5659  1.7522 -2.3103
16118SOL    HW250362   6.854   6.782   1.603 -1.7562 -0.7214 -1.7031
16119SOL     OW50363   4.754   2.713   4.833 -0.2963 -0.2327  0.6952
16119SOL    HW150364   4.661   2.724   4.814  0.1540 -1.3388 -2.7896
16119SOL    HW250365   4.760   2.625   4.870 -0.5375 -0.5860 -0.0887
16120SOL     OW50366   4.764  10.238   2.660 -0.3982 -0.5216  0.7329
16120SOL    HW150367   4.841  10.228   2.603 -0.4136 -1.1696  0.8223
16120SOL    HW250368   4.799  10.275   2.741 -0.7546  3.4390 -0.6723
16121SOL     OW50369   6.608  10.972   3.398  0.1128 -0.3942  0.0919
16121SOL    HW150370   6.637  10.885   3.426  3.2340  0.3037 -0.5571
16121SOL    HW250371   6.613  10.969   3.302 -0.1546  0.3770  0.0492
16122SOL     OW50372   3.519   0.589   9.278  0.3689 -0.3202 -0.3379
16122SOL    HW150373   3.593   0.607   9.336 -0.3847 -0.1505  0.6070
16122SOL    HW250374   3.528   0.652   9.207  0.6268  0.3201  0.2541
16123SOL     OW50375   7.711   0.180   3.934 -0.2850 -0.2632 -0.2421
16123SOL    HW150376   7.660   0.233   3.873  0.2707  2.5099  1.5549
16123SOL    HW250377   7.703   0.225   4.018  3.0213 -1.1081  0.6605
16124SOL     OW50378  10.268   8.338   8.420  0.1347 -0.1749  0.1141
16124SOL    HW150379  10.177   8.317   8.400  0.3225 -0.6393 -0.2716
16124SOL    HW250380  10.280   8.426   8.384 -0.7173  0.7281  1.9265
16125SOL     OW50381   7.003   8.390   7.869  0.1417  0.5751  0.9098
16125SOL    HW150382   7.015   8.477   7.831 -1.5663  0.5033  0.1155
16125SOL    HW250383   7.077   8.338   7.835 -0.5646  0.8838 -1.2607
16126SOL     OW50384   6.831   8.429  10.519  0.1640  0.1303  0.3625
16126SOL    HW150385   6.884   8.416  10.597  3.2354  0.9559 -1.4204
16126SOL    HW250386   6.890   8.409  10.446 -2.1058  0.8053 -1.8070
16127SOL     OW50387   4.943  10.623   2.187 -0.7176  0.4522 -0.5732
16127SOL    HW150388   4.933  10.549   2.247  1.2719  1.5397  1.2212
16127SOL    HW250389   5.015  10.598   2.130  1.1441  1.5853  1.1508
16128SOL     OW50390   3.522   4.413   3.466 -0.4401  0.5956  0.1707
16128SOL    HW150391   3.560   4.331   3.497 -2.1753 -0.2802  0.1300
16128SOL    HW250392   3.525   4.472   3.542 -0.4357  0.0267  0.6160
16129SOL     OW50393   7.859   7.933   0.913  0.1159 -0.1741 -0.0735
16129SOL    HW150394   7.912   7.936   0.833 -1.8171  0.6854 -1.3823
16129SOL    HW250395   7.834   8.023   0.929  0.4671 -0.3362  1.5481
16130SOL     OW50396   6.663   2.913   2.731  0.2617 -0.1678 -0.3301
16130SOL    HW150397   6.722   2.953   2.668 -0.2403  0.0970 -0.6375
16130SOL    HW250398   6.597   2.981   2.749  2.2016  1.1205  3.0618
16131SOL     OW50399   1.875   4.175   9.856 -0.3188  0.6191  0.2308
16131SOL    HW150400   1.931   4.226   9.797 -0.0063 -0.5503 -0.5251
16131SOL    HW250401   1.838   4.106   9.800  1.3046 -1.5980  1.6821
16132SOL     OW50402   8.527   2.281   8.171 -0.1889  0.5071  0.1211
16132SOL    HW150403   8.531   2.201   8.224  1.5658 -0.1986 -0.9875
16132SOL    HW250404   8.444   2.272   8.122  0.2259 -0.9417 -0.3913
16133SOL     OW50405   5.451   8.894   1.325  0.2903  0.6600 -0.1877
16133SOL    HW150406   5.526   8.891   1.266 -0.7500 -0.7869 -1.5178
16133SOL    HW250407   5.407   8.809   1.313 -1.9167  1.6946  0.0451
16134SOL     OW50408   2.391   8.338   7.800  1.0375  0.4858  0.0669
16134SOL    HW150409   2.321   8.337   7.736  1.0933  1.9757 -0.0599
16134SOL    HW250410   2.408   8.431   7.816  2.5502  0.1646  0.5634
16135SOL     OW50411   0.744   1.182  10.807  0.0363 -0.4272  0.3295
16135SOL    HW150412   0.759   1.231  10.888  0.2051 -1.2088  0.7856
16135SOL    HW250413   0.668   1.225  10.767  1.3759  1.4717 -0.3151
16136SOL     OW50414   1.542   4.804  10.484 -0.2398 -0.1504  0.0762
16136SOL    HW150415   1.608   4.763  10.427 -0.3274  0.1527 -0.2491
16136SOL    HW250416   1.459   4.765  10.456 -0.2427 -0.2617  0.2381
16137SOL     OW50417   4.605   2.394   1.100  0.4616 -0.0418 -0.0542
16137SOL    HW150418   4.514   2.425   1.102  0.9211  1.4387 -0.5337
16137SOL    HW250419   4.609   2.335   1.024 -0.4144 -1.2529  0.8084
16138SOL     OW50420  10.958  10.971   0.699  0.1636  0.2554 -0.3758
16138SOL    HW150421  10.974  10.935   0.611  0.3770 -0.6842  0.0306
16138SOL    HW250422  10.967  11.065   0.688  1.8880  0.0580 -1.0373
16139SOL     OW50423   7.560   2.406   0.870  0.6157 -0.3746  0.9433
16139SOL    HW150424   7.593   2.322   0.902  0.0653 -0.9943 -0.0790
16139SOL    HW250425   7.634   2.466   0.882  1.2129 -1.1253  1.1392
16140SOL     OW50426   5.557   1.979   0.117 -0.1907  0.1585  0.6615
16140SOL    HW150427   5.558   2.072   0.098 -0.0525  0.0858  0.2983
16140SOL    HW250428   5.498   1.941   0.051 -0.2794 -0.0033  0.8328
16141SOL     OW50429   1.281   6.813   2.851  0.0430 -0.4172  0.0829
16141SOL    HW150430   1.376   6.810   2.848  0.0601 -0.1859  0.4176
16141SOL    HW250431   1.254   6.722   2.838  0.3087 -0.4819 -0.0171
16142SOL     OW50432   4.595   3.442   9.516  0.3372 -0.2226 -0.0957
16142SOL    HW150433   4.594   3.537   9.526  0.0367 -0.3907  2.2392
16142SOL    HW250434   4.685   3.416   9.536  0.2980 -0.4621 -0.2241
16143SOL     OW50435   0.555   2.999   3.184 -0.1658 -0.0509 -0.7922
16143SOL    HW150436   0.610   3.030   3.113  1.4481 -0.1306  0.3538
16143SOL    HW250437   0.564   2.904   3.182 -0.0853 -0.0525 -0.4748
16144SOL     OW50438   5.857   2.073   9.486 -0.2246  0.1419  0.0215
16144SOL    HW150439   5.836   2.163   9.511 -1.4664  0.1445 -0.9113
16144SOL    HW250440   5.856   2.075   9.391  1.7209 -0.4476 -0.0442
16145SOL     OW50441   7.398   5.812   5.890  0.1141  0.1523  0.0239
16145SOL    HW150442   7.336   5.823   5.818  1.5220 -1.9346 -1.6272
16145SOL    HW250443   7.360   5.742   5.944  0.5865 -0.5382 -0.5209
16146SOL     OW50444   4.026   0.937   8.450  0.5826  0.3673 -0.6056
16146SOL    HW150445   3.987   0.956   8.535  0.5189 -0.2266 -0.4974
16146SOL    HW250446   4.048   0.844   8.454  0.9250  0.4218 -1.1007
16147SOL     OW50447   7.648   8.040   7.923  0.1982 -0.2903 -0.2029
16147SOL    HW150448   7.732   8.047   7.876  1.3772  0.5861  1.9057
16147SOL    HW250449   7.626   7.947   7.917  1.3261 -0.5477 -0.7900
16148SOL     OW50450   5.325   0.631   3.866  0.4867 -0.0793  0.1267
16148SOL    HW150451   5.412   0.671   3.865  0.8832 -0.8935  0.8623
16148SOL    HW250452   5.326   0.573   3.941  0.1822 -2.0395 -1.3057
16149SOL     OW50453   5.351   4.768   1.606 -0.1763 -0.2471 -0.2994
16149SOL    HW150454   5.387   4.703   1.666 -0.2630 -1.2661 -1.3127
16149SOL    HW250455   5.352   4.850   1.656  1.1876 -0.7456  0.5519
16150SOL     OW50456   3.441   5.971   6.496 -0.0794  0.2378 -0.5379
16150SOL    HW150457   3.401   6.014   6.572 -0.7287  0.1783 -0.8414
16150SOL    HW250458   3.535   5.980   6.510 -0.1062 -1.7438  1.4401
16151SOL     OW50459   4.548   3.118   3.733 -0.1745 -0.6774  0.1495
16151SOL    HW150460   4.506   3.035   3.711 -0.6841 -0.4522  0.2407
16151SOL    HW250461   4.477   3.171   3.770 -0.5943  0.8374 -2.5638
16152SOL     OW50462   1.840   5.173   0.786 -0.2903  0.5141 -0.1134
16152SOL    HW150463   1.921   5.190   0.738 -1.4706  0.4985 -2.2752
16152SOL    HW250464   1.790   5.254   0.777 -0.0341  1.0203  2.3676
16153SOL     OW50465   3.792   4.532   3.821 -0.1782 -0.7034 -0.2399
16153SOL    HW150466   3.844   4.603   3.859 -0.5616 -0.5794  0.0720
16153SOL    HW250467   3.848   4.455   3.827  0.1708 -0.4657 -0.4065
16154SOL     OW50468   9.331   0.248   4.507  0.0380  0.0196 -0.0511
16154SOL    HW150469   9.330   0.247   4.411 -0.8913  2.4142 -0.1439
16154SOL    HW250470   9.247   0.210   4.532 -0.1317  0.2779 -0.2260
16155SOL     OW50471   5.608   5.306   1.594 -0.0823 -0.4877 -0.2143
16155SOL    HW150472   5.550   5.237   1.561  0.4336  0.7047 -4.0706
16155SOL    HW250473   5.579   5.385   1.550  0.9098  1.3260  2.1908
16156SOL     OW50474   5.375   3.115   5.498  0.6008  0.2098 -0.0140
16156SOL    HW150475   5.370   3.177   5.571 -1.6064 -1.4771  1.3924
16156SOL    HW250476   5.305   3.143   5.438  1.0854  0.3954 -0.4970
16157SOL     OW50477   3.254   5.105   7.997  0.5105 -0.8676 -0.0587
16157SOL    HW150478   3.296   5.139   8.076 -2.6381  1.1751  0.9272
16157SOL    HW250479   3.292   5.156   7.925  0.5312  0.1394  0.6556
16158SOL     OW50480   3.478   0.983  10.143 -0.4397  0.4067 -0.2634
16158SOL    HW150481   3.516   0.897  10.160  0.2674  0.5451 -1.0715
16158SOL    HW250482   3.552   1.043  10.145 -0.8336  0.9075 -0.3892
16159SOL     OW50483   0.718   4.294   3.675  0.2473 -0.2583 -0.1755
16159SOL    HW150484   0.736   4.237   3.749 -1.1773 -1.5766 -0.8091
16159SOL    HW250485   0.630   4.328   3.691  0.9705  1.6257  0.0698
16160SOL     OW50486   9.864  10.201  10.007 -0.3085 -0.2078 -0.2908
16160SOL    HW150487   9.918  10.121  10.001  0.9713  0.6360 -0.3956
16160SOL    HW250488   9.870  10.240   9.920  1.0756  1.2241  0.3873
16161SOL     OW50489   6.186   1.426   7.557  0.1539 -0.3101 -0.5122
16161SOL    HW150490   6.144   1.340   7.558  2.6878 -1.6624  0.9219
16161SOL    HW250491   6.241   1.425   7.479 -0.6171  0.5093 -1.0958
16162SOL     OW50492   4.824  10.335   7.049  0.0258 -0.2245 -0.0042
16162SOL    HW150493   4.795  10.384   7.126 -2.4116 -0.8437 -0.4665
16162SOL    HW250494   4.895  10.279   7.082  0.6125  1.1739  1.2468
16163SOL     OW50495   0.560   6.921   4.797 -0.2108 -0.5136  0.4078
16163SOL    HW150496   0.523   6.874   4.872 -0.5872 -1.0430 -0.0871
16163SOL    HW250497   0.637   6.870   4.772  1.8554  1.4330  2.3799
16164SOL     OW50498   3.601   5.876   5.808  0.3031 -0.1759 -0.1143
16164SOL    HW150499   3.597   5.835   5.894  1.6824  0.3851  0.2578
16164SOL    HW250500   3.666   5.945   5.818  0.1015  0.2389 -1.4723
16165SOL     OW50501  10.420   0.397  10.329  0.2565 -0.2577  0.0963
16165SOL    HW150502  10.433   0.391  10.234  3.6299 -0.3431  0.4256
16165SOL    HW250503  10.435   0.490  10.349  2.4674 -0.7023  0.7742
16166SOL     OW50504   9.514   0.674   6.149  0.4596  0.2040  0.4161
16166SOL    HW150505   9.502   0.674   6.054 -1.0552  1.1005  0.5857
16166SOL    HW250506   9.534   0.582   6.170  0.9402  0.0131 -0.7679
16167SOL     OW50507   1.424   0.462   4.862 -1.1313 -0.2053  0.4060
16167SOL    HW150508   1.391   0.461   4.952 -2.4276  1.0504 -0.0077
16167SOL    HW250509   1.345   0.476   4.808 -0.2114  0.5522 -0.8061
16168SOL     OW50510   7.866   4.177   1.149  0.0317  0.3418 -0.0200
16168SOL    HW150511   7.937   4.123   1.183 -1.0408 -0.8189  0.4323
16168SOL    HW250512   7.900   4.213   1.067  1.2270  0.0202  0.3175
16169SOL     OW50513   0.301   1.083   1.713 -0.5136 -0.5261 -0.3133
16169SOL    HW150514   0.303   1.113   1.622 -0.3544  2.2926  0.5241
16169SOL    HW250515   0.309   0.987   1.707  0.8044 -0.3519 -3.1865
16170SOL     OW50516   2.963   3.735   2.915 -0.6656 -0.0294 -0.5881
16170SOL    HW150517   2.904   3.682   2.970 -2.3462  1.2049 -1.1021
16170SOL    HW250518   3.027   3.771   2.976 -1.4977 -0.0252  0.3045
16171SOL     OW50519   4.250   4.756   7.217  0.0896 -0.1094  0.6298
16171SOL    HW150520   4.242   4.778   7.310  0.1538  2.6282  0.0646
16171SOL    HW250521   4.232   4.662   7.213  2.3764 -0.8120  3.6826
16172SOL     OW50522   1.831   1.406  10.001 -0.0435  0.2739 -0.3132
16172SOL    HW150523   1.866   1.350   9.931 -0.0032  1.2824 -1.1168
16172SOL    HW250524   1.752   1.443   9.964  1.7030  3.4852 -1.1884
16173SOL     OW50525  11.072   5.298   1.308 -0.8900 -0.6036  0.8094
16173SOL    HW150526  11.070   5.392   1.323  3.1821  0.1225 -1.5502
16173SOL    HW250527  11.129   5.263   1.376  0.7798 -0.5979 -0.4973
16174SOL     OW50528  10.860   9.387  10.052  0.5514  0.1371  0.4326
16174SOL    HW150529  10.819   9.450  10.112  1.0343  0.6511  0.2268
16174SOL    HW250530  10.795   9.317  10.043  0.9070 -0.5289  2.4680
16175SOL     OW50531   6.446   3.126   5.479  0.7501 -0.7338  0.2124
16175SOL    HW150532   6.355   3.107   5.502  0.9337 -1.3106  0.4870
16175SOL    HW250533   6.442   3.209   5.432  0.0740 -0.7828  0.1700
16176SOL     OW50534   2.289   5.640   1.091 -0.0320 -0.3794  0.1811
16176SOL    HW150535   2.348   5.666   1.020  0.9740 -1.3659  0.6349
16176SOL    HW250536   2.222   5.709   1.093  1.2610  0.9206 -0.1452
16177SOL     OW50537  10.485   4.278   2.738 -0.0108  0.3162  0.4495
16177SOL    HW150538  10.405   4.322   2.712 -0.3808 -0.6143 -0.0516
16177SOL    HW250539  10.552   4.347   2.739  0.4345  0.3398 -4.5037
16178SOL     OW50540   6.255   0.393   7.947  0.1858 -0.6888  0.1777
16178SOL    HW150541   6.167   0.410   7.914  0.5520  0.2443 -0.3621
16178SOL    HW250542   6.247   0.312   7.998 -1.3761  0.3522  1.7146
16179SOL     OW50543   9.346   0.669   8.105 -0.2562  0.2127 -0.3731
16179SOL    HW150544   9.254   0.658   8.129 -0.5452  3.0145  0.1724
16179SOL    HW250545   9.375   0.745   8.156  2.2406 -0.3135 -0.8775
16180SOL     OW50546   7.355  10.799  10.991 -0.2109  0.2830  0.3670
16180SOL    HW150547   7.275  10.746  10.992  0.8703 -1.4493  0.0251
16180SOL    HW250548   7.355  10.840  10.904  0.5079 -1.7941 -0.6855
16181SOL     OW50549   6.201   3.427   0.338 -0.2481  0.1700 -0.7680
16181SOL    HW150550   6.149   3.485   0.283 -2.0980 -1.0922 -0.4452
16181SOL    HW250551   6.243   3.367   0.277  0.2670  0.7483 -0.9871
16182SOL     OW50552   4.565   3.695   3.300  0.8187 -0.2344 -0.5886
16182SOL    HW150553   4.486   3.746   3.283  1.4160  0.5257 -1.1150
16182SOL    HW250554   4.590   3.719   3.390 -0.0148 -1.1282 -0.1003
16183SOL     OW50555   2.845   2.970  10.925  0.5240 -0.0475 -0.5499
16183SOL    HW150556   2.785   2.919  10.979  0.1795 -0.8862 -1.6808
16183SOL    HW250557   2.832   2.936  10.837  0.9475  1.4154 -1.1933
16184SOL     OW50558   5.498   4.201   2.792 -0.1510 -0.0770 -0.3144
16184SOL    HW150559   5.462   4.267   2.852  1.9386  0.6680  0.1971
16184SOL    HW250560   5.529   4.131   2.848 -0.4297 -0.5284 -0.7162
16185SOL     OW50561   7.873   5.136   0.933  0.0387  0.0541 -0.3869
16185SOL    HW150562   7.967   5.124   0.918 -0.4469 -0.8959 -3.2167
16185SOL    HW250563   7.835   5.050   0.919 -1.5333  0.9599 -2.1382
16186SOL     OW50564   9.214   7.168   5.385 -0.0063 -0.1148  0.2108
16186SOL    HW150565   9.287   7.156   5.324  2.2469  1.0982  2.4415
16186SOL    HW250566   9.165   7.087   5.380  2.3245 -1.5959 -0.4126
16187SOL     OW50567   3.900   0.042   9.626 -0.0434 -0.6594 -0.1372
16187SOL    HW150568   3.844  -0.022   9.670  0.2120  0.1233  1.4097
16187SOL    HW250569   3.987   0.002   9.627  0.3268  0.0898  1.7715
16188SOL     OW50570   0.711   1.320  10.044 -0.3210  0.9797  0.4541
16188SOL    HW150571   0.709   1.308  10.139 -3.0289  0.5857  0.4086
16188SOL    HW250572   0.643   1.385  10.026  0.2424  1.1668 -1.2395
16189SOL     OW50573  10.324   0.857   2.925 -0.0296  0.1484  0.1011
16189SOL    HW150574  10.351   0.948   2.918 -1.0818  0.6415  1.9004
16189SOL    HW250575  10.240   0.852   2.879  0.4355 -0.1414 -0.7474
16190SOL     OW50576   6.132   7.424   7.840  0.4578  0.0484 -0.3109
16190SOL    HW150577   6.039   7.444   7.855  0.2522 -1.0330 -0.0405
16190SOL    HW250578   6.179   7.478   7.903  0.1459  1.9134 -1.5902
16191SOL     OW50579   2.184   1.706   7.485 -0.4473  0.0409  0.4331
16191SOL    HW150580   2.168   1.719   7.392  0.5903 -0.1172  0.2229
16191SOL    HW250581   2.216   1.791   7.516  0.6164 -0.2949  0.3169
16192SOL     OW50582   6.748   3.157   3.742 -0.0789  0.1846 -0.1098
16192SOL    HW150583   6.736   3.069   3.707 -0.9656  0.8792 -1.6839
16192SOL    HW250584   6.729   3.149   3.835  1.5079 -1.5946  0.1135
16193SOL     OW50585   2.303   9.263   6.360 -0.2212  0.0506  0.0931
16193SOL    HW150586   2.230   9.209   6.331  0.0816  0.1828 -0.9748
16193SOL    HW250587   2.368   9.255   6.289  1.1760 -0.7754  1.4098
16194SOL     OW50588   1.941   6.168   9.782 -0.4373 -0.4653 -0.0035
16194SOL    HW150589   1.916   6.111   9.709 -1.9340  1.5066 -1.1500
16194SOL    HW250590   2.025   6.206   9.755  0.0479 -1.2929  0.2947
16195SOL     OW50591   3.429  10.674   8.000 -1.5251 -0.0806 -0.3245
16195SOL    HW150592   3.507  10.674   8.056 -1.2259 -2.4754 -0.6332
16195SOL    HW250593   3.445  10.744   7.936  0.5546 -0.7550 -0.6071
16196SOL     OW50594   5.400   5.736   4.226  0.5858  0.5705  0.3636
16196SOL    HW150595   5.439   5.672   4.285  0.5853  0.3406  0.1174
16196SOL    HW250596   5.440   5.719   4.141 -0.8600 -0.4466 -0.1680
16197SOL     OW50597   1.777   7.129   0.081 -0.4157 -0.1944 -0.0676
16197SOL    HW150598   1.859   7.088   0.056 -0.2757  1.6623 -3.2346
16197SOL    HW250599   1.798   7.222   0.090 -2.1304  0.3312 -0.9561
16198SOL     OW50600   4.229  10.138   4.841 -0.2601 -0.1449 -0.2199
16198SOL    HW150601   4.190  10.179   4.918 -0.9995  0.4188 -0.8796
16198SOL    HW250602   4.286  10.204   4.804  0.5112 -0.5990  0.1309
16199SOL     OW50603   5.233  10.542   9.832 -0.1443  0.1651 -0.3547
16199SOL    HW150604   5.186  10.489   9.896  1.5869 -2.3505 -1.0434
16199SOL    HW250605   5.171  10.555   9.761 -1.0948  0.4594  0.4962
16200SOL     OW50606   8.692   9.926   2.389  0.1447  0.5184 -0.4182
16200SOL    HW150607   8.674   9.950   2.298  0.2658 -0.1096 -0.6102
16200SOL    HW250608   8.787   9.914   2.392  0.1558  0.6654 -0.1778
16201SOL     OW50609   9.434   4.544   7.750  0.3403 -0.3455 -0.1786
16201SOL    HW150610   9.411   4.598   7.675  0.1799 -1.6100 -1.0652
16201SOL    HW250611   9.515   4.583   7.784 -0.0528  0.7489 -0.4699
16202SOL     OW50612   2.233   9.860   4.455  0.2204 -0.2446  0.1432
16202SOL    HW150613   2.251   9.942   4.501 -1.3922 -0.7472  1.8232
16202SOL    HW250614   2.230   9.884   4.363 -2.3512  2.0992  0.7131
16203SOL     OW50615   2.558   1.402   8.990  0.3691  0.4993 -0.1655
16203SOL    HW150616   2.602   1.467   8.934 -0.6627  1.7028  0.3648
16203SOL    HW250617   2.520   1.454   9.061 -0.6110 -0.6811  0.2066
16204SOL     OW50618   4.777   4.415   4.899  0.4985 -0.1384 -0.8513
16204SOL    HW150619   4.798   4.410   4.993  0.6293  0.5473 -0.8380
16204SOL    HW250620   4.805   4.331   4.864  0.3636 -0.4398 -0.2559
16205SOL     OW50621   9.170   0.092   5.686 -0.0169  0.7205 -0.0086
16205SOL    HW150622   9.165   0.054   5.599  1.1982 -0.7367  0.5205
16205SOL    HW250623   9.203   0.022   5.742 -1.2496  1.4471  1.7498
16206SOL     OW50624   5.406   2.998   3.916  0.9071  0.3648 -0.1834
16206SOL    HW150625   5.343   2.926   3.918  0.0489  0.9812 -2.1711
16206SOL    HW250626   5.413   3.026   4.007  0.6992 -1.7210  0.5197
16207SOL     OW50627   2.545   2.878   8.191 -0.3899  0.0201 -0.2951
16207SOL    HW150628   2.580   2.835   8.269  0.9863  0.0144 -0.8793
16207SOL    HW250629   2.599   2.845   8.119  0.1325  2.0037 -0.8953
16208SOL     OW50630   5.961   2.541   4.833 -0.1286 -0.2945  0.6010
16208SOL    HW150631   6.010   2.531   4.914  3.6482 -0.3462 -1.4801
16208SOL    HW250632   5.970   2.457   4.788  0.1931  0.5640 -1.0219
16209SOL     OW50633   3.826   2.807   7.940 -0.2082  0.0963 -0.0721
16209SOL    HW150634   3.822   2.714   7.918 -1.8271  0.0152  0.4277
16209SOL    HW250635   3.744   2.843   7.904  0.5557  1.4059 -0.5717
16210SOL     OW50636   7.346   3.732   1.770  0.0037  0.6424 -0.1026
16210SOL    HW150637   7.397   3.792   1.824  0.6567 -0.4441  0.5226
16210SOL    HW250638   7.306   3.671   1.833  1.6881 -1.3439 -0.8503
16211SOL     OW50639  10.966   2.942   7.785  0.2655 -0.1175  0.2860
16211SOL    HW150640  11.031   2.890   7.832  1.6304  0.5469 -0.7978
16211SOL    HW250641  10.957   2.898   7.700  0.3987  0.6133 -0.1167
16212SOL     OW50642   9.302   8.600   7.213  0.4424  0.1359 -1.1296
16212SOL    HW150643   9.226   8.555   7.176  0.6656  0.6959 -2.3244
16212SOL    HW250644   9.336   8.653   7.141  1.4574  0.5613 -0.3674
16213SOL     OW50645   3.800   5.362   0.908  0.2950  0.7825 -0.5112
16213SOL    HW150646   3.823   5.372   1.001  1.5026  1.1815 -0.8356
16213SOL    HW250647   3.792   5.268   0.895  2.3263  0.5586 -0.4767
16214SOL     OW50648   9.488   5.436   1.321 -0.4822 -0.5571  0.2458
16214SOL    HW150649   9.531   5.380   1.256 -0.9977  0.2837 -0.8644
16214SOL    HW250650   9.394   5.424   1.304 -0.6410 -0.6259  1.1113
16215SOL     OW50651  10.791   2.138   1.989  0.2957  0.1802 -0.4543
16215SOL    HW150652  10.847   2.214   1.969  0.0395  0.4074 -0.3167
16215SOL    HW250653  10.730   2.171   2.055 -0.0610 -0.0432 -0.6767
16216SOL     OW50654   5.951   2.934   3.871 -0.3044 -0.1291  0.0372
16216SOL    HW150655   5.952   2.901   3.961  0.1931 -1.4332 -0.4227
16216SOL    HW250656   6.029   2.895   3.831  0.0989  1.3354 -0.6512
16217SOL     OW50657   6.291   2.930   9.808 -0.3031 -0.5849 -0.2200
16217SOL    HW150658   6.337   2.950   9.889  0.0639  0.5144 -0.6800
16217SOL    HW250659   6.360   2.915   9.744 -0.5877 -0.5624 -0.5374
16218SOL     OW50660   5.133   9.769   8.814  0.4463 -0.2175  0.4879
16218SOL    HW150661   5.043   9.781   8.785  0.9113 -0.4511 -1.1774
16218SOL    HW250662   5.145   9.674   8.817  0.7202 -0.1851  0.4441
16219SOL     OW50663   6.820   0.055   4.889 -0.6340  0.2014 -0.1479
16219SOL    HW150664   6.736   0.085   4.923 -1.1851  1.0793 -2.1325
16219SOL    HW250665   6.824   0.090   4.800  0.3900 -2.4679 -1.2816
16220SOL     OW50666   8.850   1.627   2.401 -0.2792  0.7694 -0.7711
16220SOL    HW150667   8.779   1.582   2.447  1.0751  1.4082  2.1792
16220SOL    HW250668   8.893   1.558   2.350 -0.7648 -0.3999  0.3446
16221SOL     OW50669   5.251   2.747   4.192  0.6778  0.4711  0.3220
16221SOL    HW150670   5.171   2.749   4.141  1.0687  2.3802 -0.2984
16221SOL    HW250671   5.235   2.680   4.259 -1.7424  1.3545  0.7211
16222SOL     OW50672   3.820   0.206   7.653 -0.4197  0.2023 -0.4507
16222SOL    HW150673   3.857   0.119   7.668  0.3305  0.6683  0.4889
16222SOL    HW250674   3.782   0.201   7.565 -2.8142 -1.9279  0.5528
16223SOL     OW50675   7.039   1.473  10.561  0.1801  0.5578 -0.5777
16223SOL    HW150676   6.989   1.520  10.494  0.2517  0.2562 -0.8469
16223SOL    HW250677   7.121   1.521  10.568 -0.5927  1.7839  0.7300
16224SOL     OW50678   5.788  10.897   1.257 -0.3394  0.0498  0.1209
16224SOL    HW150679   5.703  10.854   1.255 -0.1809 -0.2938  0.6061
16224SOL    HW250680   5.814  10.901   1.165 -0.4447 -0.7344  0.0435
16225SOL     OW50681   9.501   9.946   2.470 -0.0618 -0.0955  0.2342
16225SOL    HW150682   9.505   9.890   2.393  1.0054 -0.3864  0.4822
16225SOL    HW250683   9.523  10.034   2.438  0.8655 -0.3030  0.2727
16226SOL     OW50684   4.322   5.761  10.156 -0.4381  0.2310 -0.3896
16226SOL    HW150685   4.415   5.741  10.166 -0.7075 -1.0687 -0.3940
16226SOL    HW250686   4.282   5.678  10.130 -1.3966  1.0708 -1.7647
16227SOL     OW50687   5.508   0.328   8.825  0.0484 -0.2183  0.6239
16227SOL    HW150688   5.513   0.290   8.738 -0.5923 -0.5947  0.7404
16227SOL    HW250689   5.455   0.265   8.875  0.1837  0.1235  1.2074
16228SOL     OW50690  10.657   1.298  11.091  0.4175  0.7214 -0.0220
16228SOL    HW150691  10.582   1.239  11.086  0.3998  0.6953  0.4832
16228SOL    HW250692  10.730   1.248  11.055  0.7188 -0.1375  1.6855
16229SOL     OW50693   5.384   7.840  10.443 -0.2910  0.1453 -0.6765
16229SOL    HW150694   5.409   7.921  10.488 -0.9829  0.7940 -1.4270
16229SOL    HW250695   5.309   7.865  10.389  0.5754 -0.5941 -2.2723
16230SOL     OW50696  10.987   1.877   7.568  0.0971 -0.6359  0.6959
16230SOL    HW150697  11.063   1.909   7.618  1.1521 -1.3443 -0.4049
16230SOL    HW250698  11.009   1.896   7.477  0.4247 -3.6937  0.0558
16231SOL     OW50699   6.476   3.098   3.195 -0.2376 -0.1578  0.2018
16231SOL    HW150700   6.569   3.094   3.172 -0.3072 -1.0986  0.0728
16231SOL    HW250701   6.435   3.029   3.143 -0.8083 -0.5666  1.1766
16232SOL     OW50702  10.461   2.503   5.275  0.1155 -0.4149 -0.2302
16232SOL    HW150703  10.470   2.443   5.349 -0.3454  0.4249  0.5308
16232SOL    HW250704  10.504   2.458   5.203  1.7644 -0.6942  0.8660
16233SOL     OW50705   0.298  10.910   1.939 -0.3738  0.0768  0.1044
16233SOL    HW150706   0.373  10.893   1.881  0.1081 -0.4293  0.8599
16233SOL    HW250707   0.332  10.973   2.003  0.2511 -2.1107  2.0507
16234SOL     OW50708   6.144   1.020   7.366 -0.1964 -0.3071 -0.1995
16234SOL    HW150709   6.173   1.091   7.424  0.6274 -0.2090 -0.7080
16234SOL    HW250710   6.108   1.065   7.290 -0.7849 -0.4370  0.0024
16235SOL     OW50711  10.035   7.432  11.003 -0.3641  0.0278 -0.0889
16235SOL    HW150712  10.046   7.348  10.959 -1.5683 -0.2341  0.0752
16235SOL    HW250713   9.973   7.414  11.074  0.8187  0.6412  1.1547
16236SOL     OW50714   7.677   2.576   3.491 -0.0745  0.2595 -0.0676
16236SOL    HW150715   7.689   2.525   3.571  0.2388 -0.5480 -0.6081
16236SOL    HW250716   7.597   2.627   3.506 -0.1826 -0.1084  0.6404
16237SOL     OW50717   8.188   4.285  10.414  1.3003  0.0622  0.0664
16237SOL    HW150718   8.124   4.356  10.407 -1.3246 -2.0827  0.4434
16237SOL    HW250719   8.261   4.323  10.463 -0.2418  2.3372  0.7570
16238SOL     OW50720   3.391   2.040   8.313  0.4451 -0.0454 -0.3262
16238SOL    HW150721   3.390   2.052   8.218 -0.3930 -0.0388 -0.3186
16238SOL    HW250722   3.372   1.947   8.325  0.3236  0.0027 -0.1527
16239SOL     OW50723   7.342   5.884   9.729 -0.4096  0.0209  0.1695
16239SOL    HW150724   7.422   5.927   9.699 -0.1161 -1.5319 -1.3643
16239SOL    HW250725   7.373   5.812   9.785 -0.7364 -0.4637 -0.2698
16240SOL     OW50726   2.468   5.968  10.439  0.6259 -0.7411  0.0577
16240SOL    HW150727   2.558   6.000  10.439  0.6338 -0.5985 -1.9542
16240SOL    HW250728   2.417   6.039  10.400 -0.1436 -1.3101 -0.0013
16241SOL     OW50729   4.329   8.728   9.017  0.4875 -0.8163 -0.0136
16241SOL    HW150730   4.306   8.749   8.926 -1.0663 -1.4250  0.2137
16241SOL    HW250731   4.407   8.781   9.034  1.7602 -1.8482 -2.1698
16242SOL     OW50732   6.928   0.984   9.756  0.1437 -0.0999  0.7266
16242SOL    HW150733   6.994   1.048   9.729  2.1097 -2.4017 -0.2555
16242SOL    HW250734   6.977   0.913   9.796 -1.7378 -1.7951  0.2248
16243SOL     OW50735   1.666   5.271   2.504 -0.1997 -0.4635  0.3500
16243SOL    HW150736   1.643   5.364   2.515 -0.3184 -0.5160  0.5747
16243SOL    HW250737   1.753   5.263   2.543  0.7059 -0.0443 -1.4742
16244SOL     OW50738   5.347   1.277   8.428 -0.1127 -0.5998  0.1075
16244SOL    HW150739   5.285   1.346   8.404 -0.5496 -0.5468  1.3311
16244SOL    HW250740   5.431   1.322   8.437  0.1068 -0.6521 -1.4504
16245SOL     OW50741   6.265   3.986   1.211  0.3965 -0.2848  0.1297
16245SOL    HW150742   6.229   3.931   1.141  0.0976 -0.4171  0.3870
16245SOL    HW250743   6.215   4.067   1.205  2.2610  0.8244 -1.6459
16246SOL     OW50744   7.215   8.433   2.184 -0.0982 -0.1620 -0.0163
16246SOL    HW150745   7.129   8.392   2.172 -0.2666 -0.2758  1.3606
16246SOL    HW250746   7.223   8.444   2.279  1.0503  0.6338 -0.1816
16247SOL     OW50747   8.029   7.376   4.444 -0.9564  0.0687 -0.7710
16247SOL    HW150748   8.098   7.393   4.508 -0.6603  0.6342 -1.2263
16247SOL    HW250749   8.014   7.281   4.448 -1.9392  0.2716  1.1226
16248SOL     OW50750   9.262   7.705   2.326 -0.5576  0.3358  0.3011
16248SOL    HW150751   9.207   7.741   2.396 -0.3114  0.1945  0.5726
16248SOL    HW250752   9.352   7.720   2.356 -0.4369 -1.1261  0.7720
16249SOL     OW50753   4.810   8.831   5.895 -0.5687 -0.1467 -0.2826
16249SOL    HW150754   4.792   8.874   5.812 -0.2683 -0.5860 -0.5753
16249SOL    HW250755   4.745   8.868   5.955  1.0041  2.3739  0.0584
16250SOL     OW50756   0.098   4.114   4.560 -0.1978 -0.0224 -0.4231
16250SOL    HW150757   0.183   4.153   4.583  1.5659 -1.3929 -3.8653
16250SOL    HW250758   0.069   4.163   4.483 -2.0445 -0.3190  0.0287
16251SOL     OW50759  10.284  10.276   0.549 -0.3920  0.4199  0.1035
16251SOL    HW150760  10.213  10.250   0.491  0.2535 -2.4686  0.4438
16251SOL    HW250761  10.310  10.194   0.593  1.9728  1.6949  1.2573
16252SOL     OW50762   4.928   2.300   2.599  0.2409  0.3000 -0.1132
16252SOL    HW150763   4.971   2.300   2.684  2.0615  1.8608 -0.9766
16252SOL    HW250764   4.900   2.390   2.586 -0.6000 -0.0580 -0.9073
16253SOL     OW50765   6.272   7.250   3.812 -0.0107 -0.1213 -0.3548
16253SOL    HW150766   6.272   7.338   3.774  0.1853 -0.1047 -0.3129
16253SOL    HW250767   6.240   7.262   3.901 -0.6378 -0.1823 -0.5654
16254SOL     OW50768   2.653   2.648   4.701 -0.7190 -0.3523 -0.0248
16254SOL    HW150769   2.746   2.663   4.682 -0.3618 -2.1106  0.1775
16254SOL    HW250770   2.653   2.590   4.777 -1.9906 -0.2953  0.0369
16255SOL     OW50771   0.055   8.988  10.984  0.5190 -0.1054  0.0495
16255SOL    HW150772   0.136   9.001  10.936  0.9871 -1.9476  0.2601
16255SOL    HW250773   0.082   8.953  11.069 -0.4953 -1.7787 -0.2656
16256SOL     OW50774   1.072   3.647   4.792  0.3491  0.0138  0.0124
16256SOL    HW150775   0.982   3.655   4.759  0.0530 -1.9037  0.2201
16256SOL    HW250776   1.061   3.616   4.882  1.2129  1.0204  0.4777
16257SOL     OW50777   6.362  10.864   1.527 -0.0957 -0.0016  0.1596
16257SOL    HW150778   6.343  10.848   1.619  0.4533 -0.9898  0.1174
16257SOL    HW250779   6.333  10.784   1.482 -0.8709  0.6864 -0.6036
16258SOL     OW50780   2.194   3.322   7.507  0.1644  0.3334  0.4655
16258SOL    HW150781   2.203   3.239   7.554 -0.7732  0.7982  1.5068
16258SOL    HW250782   2.250   3.383   7.554  0.8052  0.3308 -0.2649
16259SOL     OW50783  10.044   9.895   4.753 -0.1685  0.5158 -0.3075
16259SOL    HW150784  10.090   9.978   4.761  0.2311  0.4580 -1.6984
16259SOL    HW250785  10.032   9.884   4.659  2.2594 -2.3071 -0.4377
16260SOL     OW50786   8.973   0.903   4.812 -0.2070 -0.0363 -0.2662
16260SOL    HW150787   9.003   0.890   4.722 -0.7208 -2.1559 -0.1822
16260SOL    HW250788   9.037   0.855   4.866 -1.8566 -1.8857  0.1585
16261SOL     OW50789   6.298   5.235   5.099 -0.3838  0.2852  0.8963
16261SOL    HW150790   6.331   5.271   5.017 -1.6143  0.4861  0.4609
16261SOL    HW250791   6.355   5.160   5.117  0.4764  0.7905  0.3546
16262SOL     OW50792   2.160   3.411   6.482 -0.2061 -0.3012  0.0417
16262SOL    HW150793   2.128   3.372   6.563  0.9507  0.4482  0.8918
16262SOL    HW250794   2.247   3.373   6.470  0.4869  1.1463  0.2928
16263SOL     OW50795   6.710   2.970  10.605 -0.0037 -0.7613 -0.8709
16263SOL    HW150796   6.711   2.912  10.528 -0.5321 -0.6081 -0.9977
16263SOL    HW250797   6.630   2.946  10.652 -0.8931  0.6653 -1.5671
16264SOL     OW50798   5.950  10.339   0.417  0.1979  0.3374 -0.1724
16264SOL    HW150799   5.984  10.251   0.402  1.3977  1.0035 -1.6217
16264SOL    HW250800   5.919  10.368   0.332  1.6781  2.0481 -0.2010
16265SOL     OW50801   4.376  11.064   4.027  0.2389 -0.1119  0.0491
16265SOL    HW150802   4.394  11.142   3.975  1.1821  0.0171  0.5266
16265SOL    HW250803   4.462  11.024   4.040 -0.3692 -1.9700 -1.2855
16266SOL     OW50804   0.634   8.467   6.010  0.6264 -0.5213  0.1088
16266SOL    HW150805   0.560   8.413   5.983  1.0404 -0.9947 -0.1143
16266SOL    HW250806   0.697   8.459   5.938  1.5885 -1.4944  1.0144
16267SOL     OW50807   2.741   3.672   6.702  0.2861 -0.2145 -0.5465
16267SOL    HW150808   2.730   3.676   6.607  0.6307  0.2284 -0.5673
16267SOL    HW250809   2.699   3.751   6.735 -1.3377 -1.1936 -0.1816
16268SOL     OW50810   0.174   7.456   8.230  0.3388  0.3450  0.8845
16268SOL    HW150811   0.259   7.410   8.233  0.0301 -0.2105  1.8390
16268SOL    HW250812   0.197   7.548   8.222  1.0592  0.2398  1.5864
16269SOL     OW50813   4.677   5.405   1.481 -0.2999 -0.0167 -0.1119
16269SOL    HW150814   4.589   5.366   1.484 -0.0575 -0.5923 -0.3256
16269SOL    HW250815   4.734   5.332   1.457  0.1052  0.5713 -0.9922
16270SOL     OW50816   6.197   1.029   3.689  0.0974  1.0345  0.0819
16270SOL    HW150817   6.165   1.018   3.779  0.9471 -0.4290  0.2387
16270SOL    HW250818   6.265   1.096   3.696  2.2591 -1.1288  1.1294
16271SOL     OW50819   4.832   3.868   5.875  0.0134  0.0476  0.0300
16271SOL    HW150820   4.825   3.873   5.780  0.0336  0.1326  0.0329
16271SOL    HW250821   4.785   3.945   5.907  0.4224  0.2859  0.0694
16272SOL     OW50822   5.978   4.478  10.322  0.0507 -0.4304 -0.1142
16272SOL    HW150823   6.072   4.464  10.323 -0.0471 -1.1741 -0.7925
16272SOL    HW250824   5.941   4.391  10.339 -0.5123  0.2218  2.6013
16273SOL     OW50825   3.371   3.127   0.252  0.4919  0.0094  0.2157
16273SOL    HW150826   3.335   3.167   0.173 -0.8393 -0.3267  0.6274
16273SOL    HW250827   3.300   3.131   0.316  1.0582 -1.0071  0.9510
16274SOL     OW50828   6.901   4.640  10.751 -0.0875 -0.0582 -0.2506
16274SOL    HW150829   6.983   4.674  10.787 -0.0516  1.2282 -1.4273
16274SOL    HW250830   6.905   4.546  10.765  2.8212 -0.4278 -2.5033
16275SOL     OW50831   0.453   1.184   2.241  0.4346  0.3585 -0.0062
16275SOL    HW150832   0.397   1.114   2.209  0.1335  0.0503  1.1446
16275SOL    HW250833   0.517   1.140   2.297  0.6600  0.9280  0.1936
16276SOL     OW50834   5.695   0.068   1.291 -0.0126  0.3661  0.1629
16276SOL    HW150835   5.732  -0.011   1.330 -1.2951 -0.3008  0.0705
16276SOL    HW250836   5.739   0.076   1.206 -0.4916 -0.7502 -0.2078
16277SOL     OW50837   0.531   1.093   5.862 -0.1103 -0.0006 -0.3706
16277SOL    HW150838   0.580   1.167   5.898  2.3152 -2.2962  1.4492
16277SOL    HW250839   0.585   1.061   5.790 -0.5469 -0.6688 -0.4114
16278SOL     OW50840  10.528   5.966   7.110  0.2020 -0.3313 -0.0200
16278SOL    HW150841  10.607   5.991   7.063 -0.4889  0.0188 -1.0192
16278SOL    HW250842  10.549   5.881   7.149  1.2610  0.0337  0.2328
16279SOL     OW50843   5.339   1.399   3.887 -0.2889 -0.1988 -0.1884
16279SOL    HW150844   5.378   1.461   3.949  1.0432 -0.6851 -0.5227
16279SOL    HW250845   5.322   1.451   3.809  2.2569 -0.5168 -1.0344
16280SOL     OW50846   6.002   9.466   0.133  0.2908  0.2517 -0.6961
16280SOL    HW150847   6.090   9.429   0.128 -0.1407 -0.6269 -2.5274
16280SOL    HW250848   5.957   9.411   0.197  1.1146  0.8840  0.4708
16281SOL     OW50849   0.657   3.058   5.693  0.0480  0.1652 -0.2978
16281SOL    HW150850   0.749   3.035   5.698  0.1665  0.1217 -1.9745
16281SOL    HW250851   0.657   3.154   5.695  0.1161  0.1606 -0.0868
16282SOL     OW50852   2.475   2.720   2.328  0.1611 -0.1276 -0.2715
16282SOL    HW150853   2.420   2.784   2.372  0.2851  0.3005 -0.7297
16282SOL    HW250854   2.543   2.698   2.392  1.7886  2.3047 -1.0348
16283SOL     OW50855   3.569   0.616   8.143 -0.2194  0.0405  0.1280
16283SOL    HW150856   3.566   0.531   8.100  1.7560 -0.2738  0.4982
16283SOL    HW250857   3.566   0.596   8.237  2.5650  0.1154  0.3158
16284SOL     OW50858   9.489   5.696   0.596 -0.3068 -0.0711  0.1804
16284SOL    HW150859   9.547   5.686   0.672 -0.7772 -2.8480  0.2477
16284SOL    HW250860   9.408   5.731   0.633 -0.1995 -0.4743  0.8181
16285SOL     OW50861   9.290  10.179   5.870  0.3176  0.4153 -0.2147
16285SOL    HW150862   9.198  10.205   5.880  0.4080  1.1227 -0.9970
16285SOL    HW250863   9.286  10.096   5.823  0.0671  0.3380 -0.0592
16286SOL     OW50864   2.676   2.282   5.603 -0.1562 -0.0636 -0.2818
16286SOL    HW150865   2.688   2.288   5.508  0.8134 -1.0605 -0.2410
16286SOL    HW250866   2.712   2.197   5.626  2.0419  1.2127  1.3263
16287SOL     OW50867  10.443   7.662   2.189  0.0146 -0.3592 -0.3447
16287SOL    HW150868  10.397   7.592   2.236  1.2665 -0.7823  0.3125
16287SOL    HW250869  10.467   7.725   2.257  2.1029 -1.1203 -0.3076
16288SOL     OW50870   7.959   9.577   4.896  0.3146  0.4302  0.7824
16288SOL    HW150871   8.029   9.513   4.911  1.2788  1.7502  2.1603
16288SOL    HW250872   7.879   9.530   4.917  0.8248 -0.8654 -0.0084
16289SOL     OW50873   4.062   9.578   3.796  0.1986  0.7284  0.3449
16289SOL    HW150874   4.129   9.591   3.863 -0.1606  0.3509  0.7798
16289SOL    HW250875   3.981   9.612   3.834  0.0522  0.7961 -0.0164
16290SOL     OW50876   6.216   9.606   1.674  0.2633 -0.2218  0.3230
16290SOL    HW150877   6.250   9.542   1.737  0.5019 -0.1145  0.3053
16290SOL    HW250878   6.286   9.616   1.610  0.0465 -0.2780  0.0768
16291SOL     OW50879   4.498   3.520   6.181  0.0029 -0.3486 -0.5243
16291SOL    HW150880   4.562   3.577   6.139 -0.5802  0.5826 -0.1956
16291SOL    HW250881   4.484   3.449   6.118 -1.3463  1.3524 -2.2802
16292SOL     OW50882   4.139   9.567  10.369  0.0091  0.6829 -0.4936
16292SOL    HW150883   4.226   9.606  10.366 -0.4212  1.6609 -0.6750
16292SOL    HW250884   4.080   9.640  10.387 -0.8049  0.0771 -0.6112
16293SOL     OW50885   3.558   7.448   3.948  0.4676  0.0695 -0.3540
16293SOL    HW150886   3.638   7.427   3.900  1.6793  0.8246  1.2309
16293SOL    HW250887   3.586   7.510   4.015 -1.0639 -1.1431  1.5171
16294SOL     OW50888   0.714   1.881   1.440 -0.0434  0.1202  0.1940
16294SOL    HW150889   0.715   1.800   1.390  0.8517  0.7109 -0.7669
16294SOL    HW250890   0.621   1.905   1.446 -0.1769 -0.0281 -1.0735
16295SOL     OW50891   5.535   2.011   3.771  0.2492  0.1514  0.3553
16295SOL    HW150892   5.571   1.923   3.761 -2.4537 -1.0646  0.3705
16295SOL    HW250893   5.560   2.039   3.859 -0.2647 -1.3482  1.0047
16296SOL     OW50894  10.423   7.328  10.510 -0.0093 -0.2114 -0.9982
16296SOL    HW150895  10.400   7.296  10.597  0.0594 -0.3707 -1.0364
16296SOL    HW250896  10.431   7.248  10.457 -0.5284 -0.0872 -1.2671
16297SOL     OW50897   2.126   7.056   5.906 -0.2931 -0.4764 -0.2565
16297SOL    HW150898   2.118   7.008   5.824  0.5242 -1.5700  0.2807
16297SOL    HW250899   2.038   7.089   5.923 -1.2367 -2.9169  0.0178
16298SOL     OW50900   6.329   1.088   5.635 -0.1124 -0.5346 -0.1702
16298SOL    HW150901   6.383   1.063   5.560  1.6803 -0.4342  1.0329
16298SOL    HW250902   6.373   1.165   5.672 -0.5883 -0.9601  1.3441
16299SOL     OW50903   7.926   2.550   4.238 -0.1162  0.3378  0.0595
16299SOL    HW150904   7.835   2.535   4.263 -0.7497 -0.3110 -2.3501
16299SOL    HW250905   7.977   2.487   4.288 -1.1682 -0.2445  0.4072
16300SOL     OW50906   2.049   1.103   5.025 -0.3654  0.2139  0.9127
16300SOL    HW150907   2.049   1.019   4.979  0.3808 -0.0166  1.3317
16300SOL    HW250908   1.976   1.097   5.087 -0.8146  0.1865  0.3839
16301SOL     OW50909   5.061   9.996   1.942  0.2262 -0.0906  0.1598
16301SOL    HW150910   5.143   9.950   1.923  0.5876  0.9456 -0.8837
16301SOL    HW250911   5.089  10.075   1.989 -0.2818 -0.2484  0.7471
16302SOL     OW50912   3.344   2.896   5.672  0.3474 -0.1288  0.4995
16302SOL    HW150913   3.352   2.987   5.702  0.4582 -0.0777  0.3171
16302SOL    HW250914   3.348   2.844   5.752  2.9186 -0.1389  0.4476
16303SOL     OW50915   7.366   2.699   5.654 -0.8318  0.4877 -0.0790
16303SOL    HW150916   7.432   2.765   5.678 -0.1094  0.0813 -0.8994
16303SOL    HW250917   7.315   2.741   5.584 -0.6430  0.3404 -0.3066
16304SOL     OW50918   7.290   2.202   9.328 -0.2051  0.1866 -0.3251
16304SOL    HW150919   7.246   2.130   9.373 -1.5088  1.4229  0.4260
16304SOL    HW250920   7.359   2.159   9.277 -0.5855 -1.5335  0.5367
16305SOL     OW50921   7.077   7.836   8.482 -0.0369 -0.3080 -0.1159
16305SOL    HW150922   7.075   7.867   8.392 -3.4518 -1.7546 -0.6879
16305SOL    HW250923   7.027   7.901   8.531  2.2731  0.7682  0.9441
16306SOL     OW50924   3.324   5.415   4.392 -0.4150 -0.3121 -0.4404
16306SOL    HW150925   3.314   5.365   4.311  0.1751  0.6163 -1.1020
16306SOL    HW250926   3.238   5.408   4.435 -0.5700 -1.2463 -0.8751
16307SOL     OW50927   4.092  10.171   2.334 -0.1385 -0.2829 -0.5505
16307SOL    HW150928   4.004  10.180   2.298  0.0834 -1.9925 -1.6416
16307SOL    HW250929   4.105  10.077   2.344  0.4458  0.0245  2.5506
16308SOL     OW50930   4.192   5.473   3.001 -0.3460  0.1286  0.3216
16308SOL    HW150931   4.271   5.493   3.051 -0.0457 -0.2301  0.0093
16308SOL    HW250932   4.162   5.557   2.967  2.5260 -0.0856 -3.3910
16309SOL     OW50933   6.962   4.297   9.859 -0.4386 -0.1275 -0.1400
16309SOL    HW150934   6.881   4.256   9.828 -0.9550  0.6453  0.1572
16309SOL    HW250935   6.948   4.391   9.848  0.2629  0.0396  0.2815
16310SOL     OW50936   5.735   9.723   6.313  0.4827  0.2994  0.0008
16310SOL    HW150937   5.755   9.668   6.388  0.7666 -1.2720 -1.1814
16310SOL    HW250938   5.649   9.760   6.332  0.5382 -0.0900  1.0659
16311SOL     OW50939   3.798   0.131   0.780 -0.2667 -0.2900  0.4367
16311SOL    HW150940   3.706   0.141   0.807 -0.8888 -2.1622 -0.8075
16311SOL    HW250941   3.794   0.087   0.695  1.7961 -0.1032  0.1830
16312SOL     OW50942   9.391   7.880   4.170  0.6488 -0.0709 -0.4229
16312SOL    HW150943   9.441   7.952   4.208  1.3612 -0.6981 -0.1375
16312SOL    HW250944   9.421   7.876   4.079  0.4676  0.1154 -0.4909
16313SOL     OW50945   2.702   2.448   8.964 -0.0275  0.1314 -0.0224
16313SOL    HW150946   2.769   2.502   9.004 -0.0568 -1.3442  2.1856
16313SOL    HW250947   2.638   2.433   9.033 -1.5505 -0.2797 -1.4442
16314SOL     OW50948   7.015   2.123   9.559  0.2745  0.4576  0.4330
16314SOL    HW150949   6.924   2.143   9.541  0.8471  2.1751 -0.7902
16314SOL    HW250950   7.027   2.033   9.526 -0.3214  1.1871 -1.9432
16315SOL     OW50951  10.320   7.561   6.162 -0.3511 -0.8850  0.3129
16315SOL    HW150952  10.248   7.618   6.187  0.7067  0.6749 -0.0389
16315SOL    HW250953  10.353   7.599   6.080  2.0343 -0.4171  1.4143
16316SOL     OW50954   5.527   4.831   1.340 -0.3094 -0.1304  0.4502
16316SOL    HW150955   5.546   4.740   1.361  1.4932  0.2600  0.6422
16316SOL    HW250956   5.516   4.873   1.425  4.2857  0.8803  0.8086
16317SOL     OW50957   3.468  10.314   3.683 -0.2024  0.2579  0.1034
16317SOL    HW150958   3.546  10.294   3.734  0.6498  1.0519 -0.8499
16317SOL    HW250959   3.501  10.346   3.600 -1.5494  0.7618 -0.2639
16318SOL     OW50960   0.491  10.550   8.191  0.0722  0.4237 -0.1906
16318SOL    HW150961   0.516  10.634   8.152 -1.6796  1.0040 -0.1296
16318SOL    HW250962   0.439  10.506   8.124 -3.1900  1.5401  1.3951
16319SOL     OW50963   3.318   3.324   2.168  0.2675 -0.0334 -0.5213
16319SOL    HW150964   3.384   3.255   2.170  0.6365  0.3387  0.9245
16319SOL    HW250965   3.363   3.399   2.130  0.1673 -0.2670 -1.1167
16320SOL     OW50966   0.390   9.608   6.332 -0.0763  0.5805  0.0998
16320SOL    HW150967   0.295   9.619   6.329 -0.2527  0.0469  2.1280
16320SOL    HW250968   0.422   9.690   6.371  0.0834  0.0097  1.2052
16321SOL     OW50969   1.736   0.234   5.334 -0.2298 -0.1089 -0.9105
16321SOL    HW150970   1.822   0.215   5.372 -0.5751  2.5413  1.5799
16321SOL    HW250971   1.689   0.151   5.339  0.2810 -0.3918  3.4496
16322SOL     OW50972   5.610   1.558   0.809 -0.3405 -0.2172 -0.1705
16322SOL    HW150973   5.539   1.514   0.762 -1.1504 -0.9673  1.6658
16322SOL    HW250974   5.597   1.533   0.900  1.3399  0.9638  0.4308
16323SOL     OW50975   4.045   1.290   1.007  0.1980  0.0428  0.5022
16323SOL    HW150976   4.129   1.319   1.042  0.1444 -0.3633  0.9867
16323SOL    HW250977   4.066   1.211   0.956  0.1429  0.0781  0.4239
16324SOL     OW50978   5.621  10.731   7.353 -0.3982 -0.8738 -0.2002
16324SOL    HW150979   5.677  10.791   7.304  1.0669 -2.0675 -0.0748
16324SOL    HW250980   5.555  10.787   7.394  0.5083  0.5520 -0.6211
16325SOL     OW50981  10.479   0.969   2.396  0.1320  0.1288  0.2026
16325SOL    HW150982  10.567   1.004   2.409  1.2257 -1.3620 -2.3612
16325SOL    HW250983  10.476   0.890   2.450  0.3293  0.2586  0.4020
16326SOL     OW50984   6.301   4.905  10.813 -0.6064 -0.1562  0.3321
16326SOL    HW150985   6.273   4.984  10.768 -3.3194 -1.0661  0.2714
16326SOL    HW250986   6.322   4.843  10.743 -0.6432 -0.2122  0.3704
16327SOL     OW50987   1.686   3.177   3.046  0.1005 -0.3944 -0.1681
16327SOL    HW150988   1.619   3.244   3.032 -0.4677 -0.9564 -0.1582
16327SOL    HW250989   1.646   3.114   3.106  0.5147 -0.9160 -0.4244
16328SOL     OW50990   8.613   1.642   2.090  0.2539  0.2241 -0.0682
16328SOL    HW150991   8.662   1.609   2.015  2.4350  0.5277  1.1308
16328SOL    HW250992   8.612   1.737   2.079  1.4668  0.3486  0.7626
16329SOL     OW50993   2.972   4.008   3.614  0.4467 -0.4149  0.0089
16329SOL    HW150994   3.050   4.042   3.658 -0.0226 -0.2406  0.7254
16329SOL    HW250995   2.901   4.064   3.645  0.2225  0.2875 -1.6537
16330SOL     OW50996   7.567   2.332   7.685  0.0110  0.0348 -0.2045
16330SOL    HW150997   7.491   2.379   7.652 -0.3089  1.0781  1.8528
16330SOL    HW250998   7.531   2.261   7.738  0.3052  1.9723  2.8011
16331SOL     OW50999   8.643   7.187   8.352  0.3701 -0.0147 -0.2081
16331SOL    HW151000   8.725   7.229   8.326  1.5289 -0.3038  2.6316
16331SOL    HW251001   8.574   7.244   8.318  1.8057  1.4470 -0.7561
16332SOL     OW51002   7.552   2.866   1.400 -0.2049  0.3603  0.0271
16332SOL    HW151003   7.463   2.831   1.392 -0.1574 -0.0178  0.9988
16332SOL    HW251004   7.569   2.907   1.315 -1.7446  1.5023  0.2250
16333SOL     OW51005   8.146   4.783   2.292  0.0290 -0.4700 -0.2035
16333SOL    HW151006   8.085   4.732   2.345  1.5788 -0.1062  2.0523
16333SOL    HW251007   8.102   4.867   2.278 -0.1854 -0.3746  1.0058
16334SOL     OW51008   2.741   1.175   1.108  0.4349 -0.1176  0.2955
16334SOL    HW151009   2.756   1.086   1.076  1.4975 -0.4015  1.4904
16334SOL    HW251010   2.717   1.225   1.030 -1.2439 -1.6510 -0.2332
16335SOL     OW51011   7.862  10.559   7.389 -0.0135  0.8120 -0.3520
16335SOL    HW151012   7.837  10.652   7.394  1.1323  1.1400 -0.4401
16335SOL    HW251013   7.906  10.541   7.472 -0.4335  0.2798 -0.2411
16336SOL     OW51014   2.140   5.563   1.761 -0.2709  0.0349 -0.4178
16336SOL    HW151015   2.133   5.631   1.694 -0.0826 -0.7058 -1.2021
16336SOL    HW251016   2.056   5.518   1.759 -0.1056 -0.2748 -0.4752
16337SOL     OW51017   0.346   1.555   7.986 -0.4422 -0.1107 -0.1985
16337SOL    HW151018   0.302   1.520   7.908 -1.7319  0.0870  0.4161
16337SOL    HW251019   0.282   1.544   8.056  0.1906  0.9428  0.5652
16338SOL     OW51020   8.827   5.223  10.477 -0.2270 -0.4218 -0.3421
16338SOL    HW151021   8.878   5.300  10.503 -2.6686  1.8596 -1.8187
16338SOL    HW251022   8.882   5.179  10.412  1.1222  0.1884  0.3473
16339SOL     OW51023   6.313   7.729   5.788 -0.6081  0.3188 -0.0662
16339SOL    HW151024   6.225   7.729   5.751 -0.9981 -0.3588  0.8054
16339SOL    HW251025   6.352   7.646   5.759 -0.5794  0.2143  0.2651
16340SOL     OW51026   2.497   2.248   1.576  0.0928 -0.0113 -0.1761
16340SOL    HW151027   2.409   2.274   1.548  1.3262  2.9596 -1.7215
16340SOL    HW251028   2.503   2.279   1.667 -0.0391  1.1213 -0.5283
16341SOL     OW51029   6.826   1.214   5.971  0.0808 -0.0540  0.0116
16341SOL    HW151030   6.759   1.275   5.940  0.2056 -0.1809 -0.5187
16341SOL    HW251031   6.782   1.129   5.975 -0.5828  0.3342  2.4023
16342SOL     OW51032   4.491   3.526   5.106  0.1823  0.1352  0.1850
16342SOL    HW151033   4.416   3.586   5.109  0.4304  0.4660 -0.1310
16342SOL    HW251034   4.564   3.581   5.079  0.4505 -0.2798  0.0592
16343SOL     OW51035   3.079   8.433  10.384 -0.4611 -0.1095 -0.0585
16343SOL    HW151036   2.984   8.445  10.383 -0.6053 -1.0660 -1.9583
16343SOL    HW251037   3.101   8.429  10.477 -1.8844  2.6888  0.4931
16344SOL     OW51038   2.131   9.842   1.278 -0.3805 -0.1605  0.2566
16344SOL    HW151039   2.123   9.884   1.193 -1.9772 -1.0518 -0.0693
16344SOL    HW251040   2.186   9.765   1.262 -0.2614 -0.0489  0.1361
16345SOL     OW51041   3.864   4.585   8.309  0.0070  0.2899 -0.4549
16345SOL    HW151042   3.906   4.590   8.224  0.8972 -0.5159 -0.0827
16345SOL    HW251043   3.914   4.647   8.364 -0.0439  0.2072 -0.3145
16346SOL     OW51044   7.694   5.597   4.177  0.8379  0.0749 -0.0221
16346SOL    HW151045   7.672   5.683   4.212  1.2366  0.5577 -0.9394
16346SOL    HW251046   7.772   5.571   4.227  1.6773  0.9631 -0.8254
16347SOL     OW51047   2.368   3.434  10.832  0.1105  0.1165 -0.6402
16347SOL    HW151048   2.403   3.477  10.910 -0.0672 -1.5450  0.3869
16347SOL    HW251049   2.351   3.506  10.771  2.6071  1.2522 -0.1301
16348SOL     OW51050   7.718   2.185   2.377 -0.0707  0.0861  0.2339
16348SOL    HW151051   7.741   2.115   2.438 -0.7382  0.5055  0.9811
16348SOL    HW251052   7.798   2.202   2.328  0.8585  0.6487  1.8895
16349SOL     OW51053   3.748   8.033   8.140  0.0321  1.1897  0.6391
16349SOL    HW151054   3.750   8.129   8.136  0.8594  1.1565  0.0249
16349SOL    HW251055   3.830   8.009   8.182  0.8706  0.6821 -1.1986
16350SOL     OW51056   8.473   1.667   1.647 -0.6287  0.1175 -0.1509
16350SOL    HW151057   8.450   1.587   1.694 -1.2445  0.6281  0.4309
16350SOL    HW251058   8.403   1.729   1.668  0.7566  1.4091  0.9142
16351SOL     OW51059   0.591   3.333   2.806  0.1665  0.1694 -0.2786
16351SOL    HW151060   0.632   3.261   2.757 -0.8105 -0.6129  0.0131
16351SOL    HW251061   0.664   3.390   2.831  1.0690 -1.1115  0.1165
16352SOL     OW51062   3.293  10.453   8.710  0.5179  0.5090 -0.1481
16352SOL    HW151063   3.308  10.359   8.723 -1.9061  0.4141  3.1465
16352SOL    HW251064   3.237  10.458   8.633  2.2155 -0.4922 -1.5243
16353SOL     OW51065   5.823  10.870   1.795 -0.8848 -0.2071 -0.6370
16353SOL    HW151066   5.764  10.797   1.776 -0.4244 -0.7243 -0.1176
16353SOL    HW251067   5.824  10.921   1.714 -1.7248 -0.4084 -0.7898
16354SOL     OW51068   6.210   6.188   1.212  0.4650 -1.1628  0.8434
16354SOL    HW151069   6.210   6.216   1.121 -0.0568 -3.4209  0.0779
16354SOL    HW251070   6.295   6.216   1.245  0.4945  0.0633 -0.2048
16355SOL     OW51071   6.958   3.435   0.423 -0.1671 -0.1286 -0.4816
16355SOL    HW151072   6.977   3.348   0.389 -0.3740  0.1305 -1.3046
16355SOL    HW251073   7.036   3.486   0.402 -0.4921  0.1567 -1.0231
16356SOL     OW51074  10.349   5.727   9.589 -0.3913 -0.2579  0.4167
16356SOL    HW151075  10.275   5.679   9.552 -1.6565  1.3066  0.7878
16356SOL    HW251076  10.327   5.737   9.682 -0.7126  1.9115  0.1523
16357SOL     OW51077   0.551   9.156   2.761 -0.2857 -0.1555  0.3427
16357SOL    HW151078   0.552   9.060   2.771 -1.0091  0.0378  2.8794
16357SOL    HW251079   0.482   9.172   2.696 -1.3453 -1.2920  1.1304
16358SOL     OW51080   8.890   9.525   4.998  0.4548 -0.1418  0.6497
16358SOL    HW151081   8.897   9.433   5.024  0.4267 -1.1503 -2.5268
16358SOL    HW251082   8.797   9.544   5.005  0.5416 -0.0807  1.9852
16359SOL     OW51083   6.453  10.323   4.240  0.3416 -0.3930  0.0325
16359SOL    HW151084   6.450  10.274   4.158  1.0331  0.6979 -0.6813
16359SOL    HW251085   6.425  10.411   4.216  1.3618  0.1554  0.7893
16360SOL     OW51086   1.744   7.775  10.243 -0.0975  0.4099  0.1919
16360SOL    HW151087   1.755   7.707  10.176 -0.9025  0.9034 -0.4683
16360SOL    HW251088   1.778   7.855  10.202 -0.9702  0.8017  0.1951
16361SOL     OW51089   3.597   5.171   2.129 -0.3596  0.3949 -0.7290
16361SOL    HW151090   3.568   5.093   2.082 -1.9625  0.0884  0.6872
16361SOL    HW251091   3.617   5.140   2.217  0.9408  1.2521 -0.6945
16362SOL     OW51092   7.947  10.238   5.321 -0.7555  0.1898 -0.4725
16362SOL    HW151093   7.926  10.322   5.280  0.6968  1.5468  1.4062
16362SOL    HW251094   8.036  10.248   5.353 -0.3306 -2.3021 -0.6372
16363SOL     OW51095   5.541   2.321   9.838  0.6221  0.0776  0.5477
16363SOL    HW151096   5.632   2.349   9.843  1.0247 -0.9315 -0.6267
16363SOL    HW251097   5.519   2.330   9.745 -0.6466  0.7995  0.8944
16364SOL     OW51098   2.067   2.204   4.953 -0.5067  0.1739 -0.0640
16364SOL    HW151099   2.015   2.139   4.999 -0.4707  0.4200  0.3243
16364SOL    HW251100   2.134   2.153   4.908  0.1072  0.0090  1.0063
16365SOL     OW51101   2.084   0.635   1.746 -0.0932 -0.0667  0.1849
16365SOL    HW151102   2.033   0.554   1.736 -0.4685  0.1092  0.6061
16365SOL    HW251103   2.172   0.612   1.717 -0.4163 -0.3743 -0.5613
16366SOL     OW51104   3.474   0.120   1.243  0.0517 -0.3780  0.4047
16366SOL    HW151105   3.517   0.126   1.328  0.0718  1.0589  0.3186
16366SOL    HW251106   3.502   0.200   1.197 -2.2350  0.3240  0.1309
16367SOL     OW51107   0.293   2.251   0.564  0.0096  0.1986 -0.3815
16367SOL    HW151108   0.298   2.161   0.531  1.9841 -0.0065  0.3507
16367SOL    HW251109   0.235   2.296   0.503 -2.3700 -1.9344  0.1415
16368SOL     OW51110   4.393   3.842   0.332 -0.0184  0.8305 -0.0082
16368SOL    HW151111   4.433   3.907   0.390  0.9683 -1.5732  2.2031
16368SOL    HW251112   4.467   3.794   0.296 -0.7432  0.3442 -0.8765
16369SOL     OW51113   5.987   8.815   7.309  0.4143  0.6816  0.7554
16369SOL    HW151114   5.973   8.888   7.249  0.2315  0.1558  0.1493
16369SOL    HW251115   5.911   8.815   7.366 -0.7091 -0.3962 -0.6801
16370SOL     OW51116  10.463   1.403   4.077 -0.0557 -0.0178  0.3356
16370SOL    HW151117  10.398   1.334   4.090  0.6070 -0.9111 -0.8924
16370SOL    HW251118  10.419   1.469   4.023 -0.4573  0.1971  0.9101
16371SOL     OW51119  10.610   4.336   1.404  0.1764  0.5949 -0.3417
16371SOL    HW151120  10.561   4.418   1.411  0.6355  0.8306  0.3052
16371SOL    HW251121  10.583   4.285   1.480  0.2020  0.3202 -0.5149
16372SOL     OW51122   1.593   1.505   8.797 -0.1282 -0.2204  0.0115
16372SOL    HW151123   1.618   1.593   8.825  0.3277 -0.4651  0.3935
16372SOL    HW251124   1.499   1.510   8.780  0.1397  0.7181 -1.3923
16373SOL     OW51125   6.679   8.246   8.922 -0.0381  0.1878 -0.0555
16373SOL    HW151126   6.746   8.255   8.854 -1.4504  0.7581 -1.4421
16373SOL    HW251127   6.715   8.181   8.983  1.5916  0.1946 -0.9484
16374SOL     OW51128   8.061   1.218   9.963 -0.2926 -0.3814 -0.6174
16374SOL    HW151129   7.985   1.268   9.933 -0.1141  0.9333  0.9846
16374SOL    HW251130   8.024   1.137   9.998 -0.8143 -0.3206 -1.0085
16375SOL     OW51131   3.206  10.779   7.131 -0.1717  0.3721  0.7488
16375SOL    HW151132   3.192  10.753   7.222  1.5198  0.2542  0.9900
16375SOL    HW251133   3.133  10.839   7.112  0.6147  2.0898  2.8405
16376SOL     OW51134  10.288   8.155   2.182 -0.2681 -0.5175 -0.0125
16376SOL    HW151135  10.202   8.173   2.220 -0.0197  0.0483  0.2934
16376SOL    HW251136  10.349   8.166   2.255  0.4137  2.3071 -0.8817
16377SOL     OW51137   8.356   1.706   7.548 -0.0569  0.5509  0.0914
16377SOL    HW151138   8.278   1.753   7.518 -0.5647 -1.0256 -1.1851
16377SOL    HW251139   8.354   1.716   7.643 -1.0727  1.6777 -0.0178
16378SOL     OW51140   2.425   5.928   6.343  0.3537  0.4453  0.0607
16378SOL    HW151141   2.466   5.870   6.407 -0.4488 -0.3110 -0.0824
16378SOL    HW251142   2.331   5.921   6.361  0.1637  0.7358 -0.7656
16379SOL     OW51143   3.723   4.338   7.202 -0.4332  0.3823  0.3345
16379SOL    HW151144   3.762   4.411   7.250  0.2041  1.2000 -1.3388
16379SOL    HW251145   3.631   4.340   7.226 -0.1838  0.9291  1.2956
16380SOL     OW51146   4.534  10.827   4.567  0.2500 -0.0929 -0.2548
16380SOL    HW151147   4.460  10.885   4.551 -1.1103 -1.5282  0.4914
16380SOL    HW251148   4.581  10.868   4.639  0.1034  0.7651 -0.6345
16381SOL     OW51149   3.308   3.153   7.727 -0.5105 -0.2474  0.2035
16381SOL    HW151150   3.402   3.172   7.715 -0.3046 -1.3670 -0.0460
16381SOL    HW251151   3.269   3.173   7.642 -0.2761 -1.0195 -0.0931
16382SOL     OW51152   1.366   6.446  10.817  0.1180  0.3633  0.3527
16382SOL    HW151153   1.398   6.401  10.895 -2.2342 -0.7508  0.7594
16382SOL    HW251154   1.367   6.538  10.841  1.5261  0.2489  0.8504
16383SOL     OW51155   9.445   3.562   7.550 -0.5324 -0.8197  0.5973
16383SOL    HW151156   9.506   3.604   7.611 -1.2966  0.0815  0.7578
16383SOL    HW251157   9.480   3.473   7.539  1.0834 -0.1845  0.3053
16384SOL     OW51158   4.572   1.658   4.684 -0.3981  0.3896 -0.6285
16384SOL    HW151159   4.637   1.642   4.616  0.6797 -1.9044  0.8204
16384SOL    HW251160   4.492   1.618   4.650  0.1625 -0.8507 -0.5705
16385SOL     OW51161   2.432   2.157   5.637 -0.1075  0.3693 -0.3601
16385SOL    HW151162   2.366   2.205   5.588  0.1268  0.3614 -0.6809
16385SOL    HW251163   2.501   2.221   5.655 -0.4399  0.5153  0.4306
16386SOL     OW51164   2.197   4.647   1.128  0.4548  0.4903  0.1257
16386SOL    HW151165   2.178   4.555   1.145  0.2674  0.7437  1.3317
16386SOL    HW251166   2.110   4.687   1.117  0.5206  0.6029  0.0165
16387SOL     OW51167   0.291   2.110   5.824  0.2429 -0.3861 -0.5970
16387SOL    HW151168   0.257   2.189   5.782 -1.3592 -0.5644  0.2806
16387SOL    HW251169   0.284   2.042   5.757 -0.4291 -0.2422 -0.6775
16388SOL     OW51170   5.274   2.422   5.818 -0.3813  0.7568 -0.1216
16388SOL    HW151171   5.209   2.382   5.760 -1.1666  2.4512 -0.4784
16388SOL    HW251172   5.226   2.442   5.899 -0.3315  1.9544 -0.3601
16389SOL     OW51173   4.850   9.098   6.896  0.3162  0.0491 -0.1089
16389SOL    HW151174   4.871   9.074   6.986  0.8649  0.2420 -0.1874
16389SOL    HW251175   4.761   9.135   6.902 -0.3195 -1.4437  0.1042
16390SOL     OW51176   6.671   1.374   8.054  0.3533 -0.2884 -0.0043
16390SOL    HW151177   6.589   1.419   8.034 -0.3388 -1.3642  0.3548
16390SOL    HW251178   6.738   1.443   8.047 -0.8832  1.3461  2.5894
16391SOL     OW51179   2.455   2.946   9.513  0.4068  0.2062  0.2787
16391SOL    HW151180   2.437   3.039   9.508 -0.9678 -0.0827 -0.8248
16391SOL    HW251181   2.381   2.909   9.562  1.0257 -0.2965  0.8680
16392SOL     OW51182   1.176   8.589   5.177  0.1217  0.7167 -0.2023
16392SOL    HW151183   1.123   8.664   5.151 -0.9897  0.0786  0.1691
16392SOL    HW251184   1.140   8.515   5.128 -0.4346 -0.0397  1.2913
16393SOL     OW51185  11.090   7.624   1.649 -0.1807  0.4854  0.4659
16393SOL    HW151186  11.006   7.627   1.695 -0.3932 -1.3562  0.2466
16393SOL    HW251187  11.069   7.646   1.559 -0.1886  1.4257  0.6871
16394SOL     OW51188   5.865   0.052  10.898  0.1304  0.2401 -0.0982
16394SOL    HW151189   5.782   0.100  10.900 -0.1351 -0.2176 -0.1718
16394SOL    HW251190   5.862  -0.004  10.976  0.8110  0.9501  0.4629
16395SOL     OW51191   3.066   6.909   4.510  0.0852  0.5288 -0.4893
16395SOL    HW151192   3.065   6.816   4.488  0.0799  0.4623 -0.2081
16395SOL    HW251193   3.159   6.931   4.518  0.0738  0.0205  1.6417
16396SOL     OW51194   8.387   2.484   8.574 -0.1409  0.2082 -0.4786
16396SOL    HW151195   8.407   2.576   8.553  1.1239  0.4816  1.6795
16396SOL    HW251196   8.453   2.435   8.526 -0.7942  0.3856 -1.6096
16397SOL     OW51197   5.468   0.975   1.484  0.0569  0.1974  0.3470
16397SOL    HW151198   5.458   1.070   1.486  0.1824  0.2097  0.3971
16397SOL    HW251199   5.489   0.951   1.574  1.8095  0.3190  0.0091
16398SOL     OW51200   6.927   7.269   1.295 -0.2746  0.1330  0.3076
16398SOL    HW151201   6.921   7.267   1.391  3.7629 -0.1787  0.7089
16398SOL    HW251202   6.896   7.183   1.268 -2.7996  0.7014  1.1152
16399SOL     OW51203   9.733   5.286   2.310 -0.5706  0.6567 -0.6524
16399SOL    HW151204   9.789   5.312   2.383 -0.9062  0.5377 -0.3479
16399SOL    HW251205   9.689   5.367   2.283 -1.8898  0.3651  0.5315
16400SOL     OW51206   2.507  10.513   2.926  0.2612  0.2985 -0.5948
16400SOL    HW151207   2.533  10.432   2.883  1.8850 -1.4802  3.2617
16400SOL    HW251208   2.580  10.573   2.911  0.4634 -0.0213 -0.8980
16401SOL     OW51209   7.977   2.236   0.921  0.1940  0.5005  0.0418
16401SOL    HW151210   7.981   2.141   0.916  0.5776  0.4423  1.2517
16401SOL    HW251211   7.909   2.260   0.857 -1.4574 -0.7349  1.2392
16402SOL     OW51212   1.583   3.972   8.371  0.2146 -0.5671  0.0759
16402SOL    HW151213   1.658   3.919   8.399  0.4906  0.6584  1.7809
16402SOL    HW251214   1.622   4.050   8.332 -0.1684 -0.2786  0.2621
16403SOL     OW51215   3.948   3.115   3.723 -0.3683  0.3117  0.3624
16403SOL    HW151216   4.020   3.174   3.700  0.3344 -0.4906  0.4513
16403SOL    HW251217   3.940   3.124   3.818  0.0105 -0.0283  0.4305
16404SOL     OW51218   3.087   2.919   0.983 -0.1577 -0.0265 -0.2655
16404SOL    HW151219   3.049   3.006   0.969  0.6714  0.0207 -2.7445
16404SOL    HW251220   3.179   2.930   0.961  0.0273 -1.4618 -0.2751
16405SOL     OW51221   7.211  11.021   4.227  0.5055 -0.1161 -0.3072
16405SOL    HW151222   7.186  10.935   4.195 -1.0311 -0.1186  0.8122
16405SOL    HW251223   7.147  11.081   4.189 -0.8546 -0.0127  1.9525
16406SOL     OW51224   5.009   4.614   4.790  0.0634 -0.0598 -0.8652
16406SOL    HW151225   4.930   4.559   4.793 -0.4260  0.6437  2.0328
16406SOL    HW251226   5.080   4.555   4.815  0.4441 -0.5787 -3.0121
16407SOL     OW51227   3.497   5.697   2.678 -0.7227 -0.0167 -0.2914
16407SOL    HW151228   3.537   5.663   2.599  1.5151  0.1909  0.6804
16407SOL    HW251229   3.522   5.634   2.746 -2.1223  0.1095  0.3811
16408SOL     OW51230   6.250   3.048   7.296 -0.0017  0.1500  0.0234
16408SOL    HW151231   6.214   3.121   7.247  1.4781  0.1574 -1.1511
16408SOL    HW251232   6.205   2.971   7.262  1.3899  0.0887 -1.8701
16409SOL     OW51233   1.114  11.097   2.666 -0.5334  0.3003 -0.1101
16409SOL    HW151234   1.084  11.019   2.618  1.9041 -0.7743 -0.0679
16409SOL    HW251235   1.142  11.063   2.751 -2.0157  1.7087  0.9837
16410SOL     OW51236   4.193   4.512   5.035 -0.0468  0.2256 -0.6799
16410SOL    HW151237   4.151   4.564   5.103  1.7169 -0.5324  1.0867
16410SOL    HW251238   4.122   4.490   4.974 -2.3199 -1.1009  2.1863
16411SOL     OW51239   5.200   3.335   5.330 -0.0636  0.1067  0.3396
16411SOL    HW151240   5.226   3.370   5.245 -1.4183  1.3294  0.3978
16411SOL    HW251241   5.132   3.271   5.309  0.0960 -0.1102  0.4708
16412SOL     OW51242   4.517   9.961  10.705 -0.0948  0.6970 -0.8060
16412SOL    HW151243   4.539  10.037  10.759  1.3995  0.3125 -0.8192
16412SOL    HW251244   4.585   9.960  10.637 -0.0483 -0.6829 -0.7663
16413SOL     OW51245   4.607   2.839  10.499  0.5762  0.0023 -0.0648
16413SOL    HW151246   4.601   2.910  10.562 -0.4482  0.5978 -0.7993
16413SOL    HW251247   4.646   2.879  10.421  2.3952 -0.8648  0.3528
16414SOL     OW51248   5.670   8.954   1.179 -0.2595 -0.1956  0.3451
16414SOL    HW151249   5.619   8.954   1.098  0.6845 -2.1589 -0.3147
16414SOL    HW251250   5.725   9.032   1.172 -0.6514  0.0142 -0.6006
16415SOL     OW51251   3.545   8.839   9.034  0.0065 -0.0356  0.5183
16415SOL    HW151252   3.535   8.789   9.115 -0.6504 -0.3407  0.2528
16415SOL    HW251253   3.634   8.820   9.005  0.4907  0.6190  1.5251
16416SOL     OW51254   2.420   3.004   7.232 -0.2621 -0.0347 -0.2894
16416SOL    HW151255   2.511   2.999   7.204 -0.3718  0.6635 -0.8017
16416SOL    HW251256   2.371   2.961   7.162 -0.2457 -1.3730  0.4949
16417SOL     OW51257   8.873   7.641   1.290 -0.1744  0.1441  0.1409
16417SOL    HW151258   8.859   7.605   1.203  2.0905  0.3860 -0.3924
16417SOL    HW251259   8.809   7.711   1.299 -1.6513 -1.0641 -0.5705
16418SOL     OW51260   5.026   5.935   3.448  0.2994 -0.0071  0.0940
16418SOL    HW151261   5.007   5.932   3.355 -0.8782  0.3813  0.3090
16418SOL    HW251262   5.038   5.844   3.474 -0.6297 -0.2088 -0.1861
16419SOL     OW51263   2.458   0.396   3.329 -0.0793 -0.3604  0.1589
16419SOL    HW151264   2.534   0.344   3.355  0.7516 -0.5590 -2.3951
16419SOL    HW251265   2.495   0.476   3.291 -1.0655 -0.6568 -1.5545
16420SOL     OW51266   5.433   2.286   2.021  0.1591 -0.3730 -0.3947
16420SOL    HW151267   5.460   2.373   2.052 -0.4852  0.3167 -1.7245
16420SOL    HW251268   5.349   2.271   2.063  0.2988 -0.3878 -0.1153
16421SOL     OW51269  10.285   9.677   4.493  0.1162  0.0542 -0.0375
16421SOL    HW151270  10.291   9.582   4.490 -2.9531 -0.2363 -0.7301
16421SOL    HW251271  10.286   9.698   4.587 -0.9319 -0.8942  0.2156
16422SOL     OW51272   8.285   0.358   0.592 -0.1686  0.5179 -0.8054
16422SOL    HW151273   8.323   0.285   0.641 -0.2499  0.9660 -0.0673
16422SOL    HW251274   8.191   0.337   0.588 -0.0001 -0.1268 -1.8378
16423SOL     OW51275   7.665  10.163   1.225 -0.0949  0.4320  0.0977
16423SOL    HW151276   7.689  10.133   1.313 -0.5432 -2.5430 -0.6892
16423SOL    HW251277   7.611  10.092   1.189  0.0269  1.5700 -2.5828
16424SOL     OW51278  10.840  10.865   0.002 -0.1238  0.2321  0.0559
16424SOL    HW151279  10.855  10.928   0.072  1.0882  0.7759 -0.6558
16424SOL    HW251280  10.814  10.918  -0.073  0.1122 -0.1828 -0.3259
16425SOL     OW51281   4.683   2.205   2.965 -0.3434 -0.2280 -0.0692
16425SOL    HW151282   4.735   2.272   2.921 -1.1952  0.0674 -0.6481
16425SOL    HW251283   4.713   2.208   3.056 -1.5215  2.1123  0.3024
16426SOL     OW51284   3.874   6.327  10.660  0.2380  0.5477 -0.0117
16426SOL    HW151285   3.952   6.295  10.614  0.1402 -0.6745  0.6452
16426SOL    HW251286   3.854   6.411  10.617  0.9095  0.0628 -1.3281
16427SOL     OW51287   4.818   1.781   4.253 -0.2794  0.0753  0.3010
16427SOL    HW151288   4.724   1.801   4.260 -0.2392 -0.1545  1.9196
16427SOL    HW251289   4.859   1.863   4.228 -0.8573  0.3368  0.2032
16428SOL     OW51290   1.676   0.632   5.204  0.3208 -0.6426 -0.6342
16428SOL    HW151291   1.770   0.615   5.191  0.5695 -0.5387  0.8054
16428SOL    HW251292   1.645   0.661   5.119  1.9405  0.8361 -0.7846
16429SOL     OW51293   5.823   8.731   1.181  0.3187  0.1715  0.1965
16429SOL    HW151294   5.762   8.805   1.174 -1.1480 -1.0198 -0.0538
16429SOL    HW251295   5.805   8.694   1.267  0.9830  0.0399  0.2806
16430SOL     OW51296   3.506   4.521   1.740 -0.2348 -0.4256 -0.0458
16430SOL    HW151297   3.600   4.531   1.727 -0.0881 -1.7746 -0.1080
16430SOL    HW251298   3.498   4.458   1.812 -1.0955 -0.8384 -0.4922
16431SOL     OW51299   7.729   3.529   1.583  0.6971  0.6764  0.2286
16431SOL    HW151300   7.775   3.456   1.540  0.1287  0.7694 -0.5619
16431SOL    HW251301   7.728   3.598   1.517  0.5490  1.1268  0.7026
16432SOL     OW51302   7.544  10.530   5.730 -0.0700 -0.5284  0.2642
16432SOL    HW151303   7.536  10.436   5.714 -1.6478 -0.5975  1.2241
16432SOL    HW251304   7.635  10.550   5.710  0.3894 -2.3252  0.3483
16433SOL     OW51305   1.086   9.731   3.568  0.5531 -0.4971  0.4459
16433SOL    HW151306   1.023   9.799   3.542 -0.5758 -2.1606 -1.5296
16433SOL    HW251307   1.042   9.649   3.544  1.9710 -1.9257  2.5096
16434SOL     OW51308   4.502   8.549   4.224 -0.3288 -0.0644  0.6759
16434SOL    HW151309   4.550   8.582   4.148 -0.1937  1.2829  1.3107
16434SOL    HW251310   4.417   8.593   4.220 -1.1519 -1.6550  0.1230
16435SOL     OW51311   5.505   3.480   0.687  0.2011  0.3427  0.1436
16435SOL    HW151312   5.452   3.419   0.637  0.6366  0.3327 -0.3161
16435SOL    HW251313   5.484   3.566   0.650  0.4427  0.3474  0.0149
16436SOL     OW51314   7.783   0.420   8.839 -0.2696  0.1803 -0.3251
16436SOL    HW151315   7.801   0.501   8.888  0.3934  0.1383 -0.4962
16436SOL    HW251316   7.693   0.398   8.864  0.0879  0.0866  0.9914
16437SOL     OW51317   6.014  10.655   5.756 -0.4896 -0.2924  0.4148
16437SOL    HW151318   5.994  10.637   5.848  1.9612 -0.5781  0.9694
16437SOL    HW251319   6.089  10.599   5.737  0.2413  1.1499 -1.1921
16438SOL     OW51320   5.904   3.613   0.833  0.5342 -0.4041 -0.5509
16438SOL    HW151321   5.891   3.568   0.749 -0.5098 -0.2880 -0.4707
16438SOL    HW251322   5.928   3.702   0.809 -1.8301  0.2275 -0.7889
16439SOL     OW51323   6.339   4.840   2.474 -0.5782 -0.1893  0.2594
16439SOL    HW151324   6.272   4.825   2.541 -1.1517  0.2253 -0.2060
16439SOL    HW251325   6.328   4.932   2.451  0.8647  0.1822  0.9272
16440SOL     OW51326   6.955   7.104   1.506  0.1721  0.3073  1.0651
16440SOL    HW151327   7.023   7.132   1.567 -0.3866 -0.8160  2.2468
16440SOL    HW251328   6.902   7.041   1.555 -0.1079 -0.9037 -0.6789
16441SOL     OW51329   8.096   7.979   1.088 -0.9064 -0.0645  0.2387
16441SOL    HW151330   8.019   7.924   1.073 -1.1075  0.3316 -0.1885
16441SOL    HW251331   8.169   7.928   1.052 -0.9567 -0.4692  0.7040
16442SOL     OW51332   5.818   6.323   2.164  0.3117 -0.3463  0.3168
16442SOL    HW151333   5.832   6.392   2.099 -1.4257 -0.2586 -0.0122
16442SOL    HW251334   5.823   6.241   2.114  0.4187 -0.3548  0.3413
16443SOL     OW51335   9.227   0.985   7.499 -0.1299 -0.0575  0.4757
16443SOL    HW151336   9.295   1.050   7.484  0.0132  0.0554  1.5415
16443SOL    HW251337   9.146   1.036   7.500 -0.1802 -0.1130 -0.2022
16444SOL     OW51338   7.426  11.086   0.514 -0.0411 -0.4555  0.7686
16444SOL    HW151339   7.410  11.151   0.582  1.8113  1.9905 -0.9088
16444SOL    HW251340   7.355  11.100   0.451  1.2430  1.3059 -0.4129
16445SOL     OW51341   6.842   3.597   4.206  0.4615 -0.0012  0.1607
16445SOL    HW151342   6.931   3.626   4.186  1.0681 -1.7786  0.1627
16445SOL    HW251343   6.797   3.678   4.231  1.6405  1.1774 -1.2774
16446SOL     OW51344   0.804   4.832   3.447 -0.4567 -1.0747 -0.1775
16446SOL    HW151345   0.769   4.772   3.381 -0.6926 -0.8691 -0.2396
16446SOL    HW251346   0.726   4.868   3.490 -0.3827  0.5806 -1.3679
16447SOL     OW51347   2.771   6.884   2.181 -0.0343  0.1615 -0.2559
16447SOL    HW151348   2.830   6.810   2.167  0.1116  0.2253  0.0118
16447SOL    HW251349   2.696   6.847   2.228 -0.3874  0.0051 -0.9373
16448SOL     OW51350   1.590  10.155   6.769 -0.4969 -0.2464 -0.4007
16448SOL    HW151351   1.496  10.158   6.749 -0.5827  1.3108  0.0997
16448SOL    HW251352   1.616  10.247   6.776  1.5710 -0.5677 -2.7139
16449SOL     OW51353   1.259   2.728   4.805 -0.4556  0.3692 -0.0044
16449SOL    HW151354   1.311   2.785   4.863  1.2527 -0.2807 -0.8338
16449SOL    HW251355   1.242   2.650   4.858 -0.8633  0.7126  0.3789
16450SOL     OW51356   5.728   3.307  10.122 -0.2554 -0.3323 -0.4323
16450SOL    HW151357   5.730   3.225  10.171 -0.4875 -0.4580 -0.6333
16450SOL    HW251358   5.660   3.294  10.056 -2.2194  0.9717  1.1908
16451SOL     OW51359  11.026   7.097   5.104  0.4638 -0.5479 -0.6218
16451SOL    HW151360  10.933   7.090   5.128  0.1732  1.1847 -1.0910
16451SOL    HW251361  11.073   7.076   5.184 -0.3293 -1.6937 -0.4387
16452SOL     OW51362   4.751   4.818   3.252 -0.0725 -0.2012  0.5328
16452SOL    HW151363   4.733   4.813   3.158 -2.8456 -0.5249  0.9945
16452SOL    HW251364   4.747   4.912   3.271  3.8844  0.2806 -0.1113
16453SOL     OW51365   1.126   5.136   2.557  0.0933  0.4641 -0.2233
16453SOL    HW151366   1.130   5.131   2.653  0.1447 -1.1783 -0.2682
16453SOL    HW251367   1.213   5.164   2.530  0.5137 -0.4324  0.1708
16454SOL     OW51368   0.649  10.625   5.627 -0.1981 -0.5129 -0.2673
16454SOL    HW151369   0.656  10.666   5.713  1.6940  2.6641 -1.7482
16454SOL    HW251370   0.556  10.607   5.616 -0.7487  0.9306  1.6137
16455SOL     OW51371  11.066   5.158   7.037  0.4704 -0.0645  0.4795
16455SOL    HW151372  11.119   5.087   7.074  0.7032  0.2916  0.8512
16455SOL    HW251373  11.079   5.151   6.943  5.9412  3.4371  0.5103
16456SOL     OW51374   1.471   9.436   6.306  0.0560 -0.3501 -0.5656
16456SOL    HW151375   1.543   9.471   6.253 -0.0976  1.6069  0.3897
16456SOL    HW251376   1.392   9.459   6.258 -0.0147 -0.2143 -0.3862
16457SOL     OW51377   9.632   1.716   3.639 -0.7441 -0.0351 -0.0319
16457SOL    HW151378   9.676   1.633   3.623 -1.6175 -0.2676 -1.4436
16457SOL    HW251379   9.655   1.770   3.563 -0.9310  0.6769  0.4125
16458SOL     OW51380   3.061   1.394   2.318 -0.3241  0.1470 -0.5408
16458SOL    HW151381   3.049   1.384   2.224 -3.6812 -0.3390 -0.1836
16458SOL    HW251382   3.042   1.487   2.335 -0.6970  0.0267 -0.2711
16459SOL     OW51383  11.069   9.625   5.720  0.3904  0.0855  0.0284
16459SOL    HW151384  11.050   9.614   5.627 -0.1616  1.0562  0.0107
16459SOL    HW251385  11.165   9.620   5.726  0.3791 -0.7914 -0.4682
16460SOL     OW51386   2.323  10.199   2.061  0.6919 -0.1739  0.3833
16460SOL    HW151387   2.353  10.159   2.142 -0.0539 -2.6224 -0.4734
16460SOL    HW251388   2.331  10.294   2.076  1.7579 -0.5916  2.8074
16461SOL     OW51389   4.071   4.913   6.891  0.1030 -0.0637  0.2202
16461SOL    HW151390   4.097   4.917   6.799  2.1831  0.1464  0.7786
16461SOL    HW251391   4.076   4.819   6.913 -0.9359 -0.1844  0.0003
16462SOL     OW51392   8.889   0.839  10.911 -0.0918 -0.2650 -0.3717
16462SOL    HW151393   8.802   0.861  10.876 -0.6051  0.1991  1.1350
16462SOL    HW251394   8.925   0.922  10.941  0.0823 -0.7069  0.7022
16463SOL     OW51395   3.419   2.197   8.514  0.5100 -0.1451 -0.6939
16463SOL    HW151396   3.406   2.136   8.442  1.2179 -0.4477 -0.5772
16463SOL    HW251397   3.476   2.150   8.575 -0.1133  0.0854  0.0895
16464SOL     OW51398   1.962  10.427   2.990 -0.5617  0.1098 -0.3298
16464SOL    HW151399   2.053  10.405   2.969 -1.2620 -1.2675 -2.1849
16464SOL    HW251400   1.946  10.386   3.075  0.4066 -0.0547 -0.2139
16465SOL     OW51401   4.311   4.650   8.595  0.4566  0.8542  0.6543
16465SOL    HW151402   4.352   4.679   8.513 -1.0010 -1.3448 -0.9730
16465SOL    HW251403   4.373   4.586   8.631  0.3581  0.6239  0.4146
16466SOL     OW51404   3.657   4.264   2.342 -0.6644  0.2914 -0.2747
16466SOL    HW151405   3.668   4.262   2.438 -0.6332 -0.9594 -0.2837
16466SOL    HW251406   3.627   4.353   2.323 -4.7501 -0.5498  1.3492
16467SOL     OW51407   3.234   4.346   4.185  0.6679  0.5298 -0.8663
16467SOL    HW151408   3.161   4.399   4.153 -0.3277 -0.0430  0.3696
16467SOL    HW251409   3.250   4.283   4.114  0.4568  1.1261 -1.4509
16468SOL     OW51410   4.577   5.382   3.633 -0.0311  0.4774  0.1082
16468SOL    HW151411   4.521   5.382   3.710 -2.4120  1.7560 -1.4864
16468SOL    HW251412   4.641   5.451   3.649 -1.4941  1.8245  0.3120
16469SOL     OW51413   2.063   2.998   0.148 -0.9493 -0.5631 -0.5421
16469SOL    HW151414   2.013   2.983   0.229 -0.7544  0.6371 -0.1913
16469SOL    HW251415   2.154   2.982   0.172 -0.6503  1.6606  0.0174
16470SOL     OW51416   2.632   5.986   8.333  0.4878 -0.1829 -0.3308
16470SOL    HW151417   2.606   6.028   8.414 -0.8598  2.0250 -1.8232
16470SOL    HW251418   2.633   6.056   8.268 -1.5296 -2.3319 -2.8940
16471SOL     OW51419   9.285   1.922   0.203  0.3128 -0.1034 -0.4524
16471SOL    HW151420   9.243   1.957   0.124  1.5347  2.5250 -0.0483
16471SOL    HW251421   9.211   1.899   0.260 -0.6083  1.1197 -1.0828
16472SOL     OW51422   5.428   7.156   0.961  0.3793  0.7312  0.1962
16472SOL    HW151423   5.373   7.202   0.897 -0.3148  1.7572  1.4764
16472SOL    HW251424   5.444   7.221   1.029 -0.4220 -0.8485  1.9777
16473SOL     OW51425   7.436   4.168   1.172  0.2654 -0.1031 -1.0512
16473SOL    HW151426   7.472   4.256   1.183  2.0534 -0.5987 -2.3349
16473SOL    HW251427   7.424   4.135   1.261  0.4598  1.1051 -0.5672
16474SOL     OW51428   3.345   0.515   7.334  0.2662 -0.2086 -0.0620
16474SOL    HW151429   3.312   0.567   7.261  3.1369 -0.6783 -1.8414
16474SOL    HW251430   3.403   0.574   7.382  0.3184 -0.6041  0.3674
16475SOL     OW51431   4.210   5.524   4.241  0.4582  0.0459 -0.4691
16475SOL    HW151432   4.147   5.589   4.273 -0.7320 -0.9668 -0.6626
16475SOL    HW251433   4.217   5.461   4.313  0.0321 -0.6691 -1.0339
16476SOL     OW51434   4.740   5.528   7.961 -0.0846 -0.0305  0.1249
16476SOL    HW151435   4.719   5.594   8.027  0.2189  1.2659 -1.0252
16476SOL    HW251436   4.655   5.497   7.930 -0.2337 -0.9488  1.3731
16477SOL     OW51437   7.638   9.353  10.337  0.4174 -0.5451  0.0808
16477SOL    HW151438   7.605   9.440  10.359  2.8458  0.7893 -1.1186
16477SOL    HW251439   7.603   9.336  10.250  2.2000  0.5659 -0.9020
16478SOL     OW51440   0.732   6.365   0.435 -0.2228 -0.3731  0.4522
16478SOL    HW151441   0.713   6.320   0.517 -1.2745 -1.8711 -0.5702
16478SOL    HW251442   0.646   6.386   0.398  0.2130  2.1816  0.6653
16479SOL     OW51443   5.121   9.214   9.241  0.6612  0.1498 -0.6233
16479SOL    HW151444   5.120   9.297   9.289  1.2818  0.1475 -0.6012
16479SOL    HW251445   5.029   9.191   9.232  0.5101  0.5234 -0.0791
16480SOL     OW51446   6.101   2.776   5.167  0.2533  0.5865 -0.0274
16480SOL    HW151447   6.035   2.839   5.197  0.2945  0.0482  1.2521
16480SOL    HW251448   6.099   2.782   5.072 -0.0113  2.2399  0.0654
16481SOL     OW51449   4.789   7.151   4.517  0.1095  0.0069  0.1683
16481SOL    HW151450   4.850   7.136   4.589  1.3792  1.3495 -0.5788
16481SOL    HW251451   4.813   7.085   4.451 -2.2522 -2.4779  1.5765
16482SOL     OW51452   5.239   1.108   0.223 -0.4185 -0.2109  0.0474
16482SOL    HW151453   5.296   1.182   0.200  1.2621 -1.5975 -0.5139
16482SOL    HW251454   5.192   1.087   0.142 -0.5044 -0.0776  0.0633
16483SOL     OW51455   4.371   9.759   0.108 -0.1897 -0.1342  0.5836
16483SOL    HW151456   4.418   9.696   0.163  1.5021  1.0720  0.5980
16483SOL    HW251457   4.399   9.740   0.019  0.0796  0.3698  0.5554
16484SOL     OW51458   0.491   0.661   3.336 -0.2627 -0.0693 -0.2123
16484SOL    HW151459   0.400   0.689   3.329 -0.0547  0.7422  0.2694
16484SOL    HW251460   0.497   0.620   3.422 -0.2247 -0.3622 -0.3502
16485SOL     OW51461   4.438   1.551   6.644  0.1163 -0.2205 -0.2369
16485SOL    HW151462   4.356   1.600   6.632  1.0272  1.0394 -1.6940
16485SOL    HW251463   4.472   1.583   6.728  1.0750  2.3637 -1.4968
16486SOL     OW51464   6.736   2.600   1.036 -0.0580  0.4639  0.0966
16486SOL    HW151465   6.675   2.666   1.002  0.4156  0.3562 -1.0297
16486SOL    HW251466   6.790   2.648   1.099  1.3719  1.6745 -1.8813
16487SOL     OW51467   9.768   2.821  10.919  0.0121  0.4020  0.5659
16487SOL    HW151468   9.721   2.747  10.958  1.3274 -1.1686 -0.6389
16487SOL    HW251469   9.745   2.896  10.974 -0.9854 -0.9908  2.1656
16488SOL     OW51470   1.681   2.679   8.628 -0.1524  0.0135 -0.1630
16488SOL    HW151471   1.610   2.621   8.657 -1.8968  1.5700 -1.0859
16488SOL    HW251472   1.761   2.639   8.663 -1.4596 -1.8554  0.8634
16489SOL     OW51473   9.700   4.574   8.622 -0.4521 -0.1515 -0.2434
16489SOL    HW151474   9.705   4.480   8.601  0.1618  0.3017 -2.3358
16489SOL    HW251475   9.784   4.609   8.593 -0.4815  1.0021  0.9545
16490SOL     OW51476   0.088   2.914   3.365  0.5906  0.2148  0.4517
16490SOL    HW151477   0.020   2.966   3.322  2.2150  0.4292 -2.0179
16490SOL    HW251478   0.161   2.974   3.376  0.9315 -0.4046  1.7097
16491SOL     OW51479   5.589   9.348   7.111  0.1254 -0.2345 -0.0665
16491SOL    HW151480   5.587   9.442   7.092  0.1916 -0.4240 -1.0555
16491SOL    HW251481   5.498   9.324   7.125 -0.2425 -0.5460 -2.6001
16492SOL     OW51482   2.749   5.417   0.817 -0.0733  0.6555  0.0205
16492SOL    HW151483   2.732   5.484   0.751 -0.1571 -0.0781 -0.7204
16492SOL    HW251484   2.781   5.342   0.767 -0.4798 -0.0387  0.7766
16493SOL     OW51485   4.927   5.207   4.322 -0.5314  0.0230  0.1755
16493SOL    HW151486   4.960   5.142   4.384  1.7774  1.5599  0.6910
16493SOL    HW251487   4.907   5.283   4.376 -1.5567  0.3346 -0.6195
16494SOL     OW51488   2.674  10.481   2.609  0.1325 -0.1407 -0.9312
16494SOL    HW151489   2.677  10.567   2.652  0.5161 -0.7551  0.3198
16494SOL    HW251490   2.700  10.499   2.519 -0.6700  1.1874 -0.9340
16495SOL     OW51491   2.974  10.621   6.771 -0.0915  0.2051 -0.6187
16495SOL    HW151492   2.993  10.536   6.731  1.4371  0.3494 -0.2534
16495SOL    HW251493   2.947  10.600   6.861  1.3784  0.1313 -0.1661
16496SOL     OW51494   6.992   1.343   2.859  0.1480  0.1349 -0.5182
16496SOL    HW151495   6.945   1.426   2.855  0.8857  0.6359  0.5958
16496SOL    HW251496   7.084   1.368   2.862  0.4415 -0.7807 -1.3804
16497SOL     OW51497   1.872   4.288   8.896 -0.7355 -0.3496  0.6303
16497SOL    HW151498   1.925   4.211   8.915  1.4814 -0.0555 -3.2031
16497SOL    HW251499   1.883   4.344   8.973  1.5181 -1.9000  1.5416
16498SOL     OW51500   7.796   4.861   5.477 -0.0518  0.2838 -0.1339
16498SOL    HW151501   7.808   4.821   5.563  1.4782  0.4446 -0.2563
16498SOL    HW251502   7.852   4.939   5.478 -0.7576  0.8272 -0.9443
16499SOL     OW51503   3.811   1.478   1.023 -0.5345 -0.0513  0.2403
16499SOL    HW151504   3.723   1.448   1.000 -0.9830  0.0036  1.7805
16499SOL    HW251505   3.848   1.406   1.076  0.1828  0.1094 -0.0323
16500SOL     OW51506   0.478   2.906   5.513  0.7046 -0.5377 -0.1569
16500SOL    HW151507   0.550   2.918   5.575 -0.3555 -0.1244  1.0394
16500SOL    HW251508   0.482   2.984   5.457  1.3146 -0.6166 -0.2284
16501SOL     OW51509   1.031   1.576   1.734 -0.2101 -0.0184  0.3114
16501SOL    HW151510   1.104   1.615   1.781 -0.8833  0.8026  0.6941
16501SOL    HW251511   0.955   1.629   1.758 -0.7915 -0.3474 -0.7333
16502SOL     OW51512   3.401   7.748   8.252 -0.1689  0.4942  0.3717
16502SOL    HW151513   3.491   7.750   8.221 -0.8033  0.2667 -1.6336
16502SOL    HW251514   3.397   7.672   8.309  0.6117 -0.2621 -0.5481
16503SOL     OW51515   4.151   3.410  10.117  0.1138 -0.2227  0.3491
16503SOL    HW151516   4.063   3.435  10.087  0.2056  0.7738  0.8644
16503SOL    HW251517   4.135   3.336  10.176 -0.4741  0.4282  1.0347
16504SOL     OW51518   3.495   5.636   8.725 -0.1915 -0.2077  0.2230
16504SOL    HW151519   3.579   5.682   8.732  0.7567 -1.2319 -2.8373
16504SOL    HW251520   3.512   5.566   8.662 -2.9961 -1.3851  0.6607
16505SOL     OW51521   5.778   9.863   7.428 -0.4003  0.0230 -0.2116
16505SOL    HW151522   5.753   9.924   7.359 -0.8729 -0.8089 -0.7967
16505SOL    HW251523   5.740   9.900   7.507 -1.0932  0.2466 -0.6399
16506SOL     OW51524   5.589   6.543   8.664  0.2784 -0.5787 -0.2082
16506SOL    HW151525   5.526   6.471   8.665  0.9839 -1.2212 -0.9303
16506SOL    HW251526   5.651   6.519   8.596  2.5256 -1.0248  1.8694
16507SOL     OW51527   3.850   3.332   6.765  0.3304  0.3833  0.1838
16507SOL    HW151528   3.758   3.333   6.793  0.7118  1.6708  1.5691
16507SOL    HW251529   3.875   3.425   6.765  1.9067 -0.0085  0.8746
16508SOL     OW51530   9.875   1.153   9.667 -0.3549  0.1060 -0.4592
16508SOL    HW151531   9.834   1.229   9.706 -0.3539  0.3995 -1.0172
16508SOL    HW251532   9.896   1.096   9.741 -2.8989 -0.6418 -0.2099
16509SOL     OW51533   5.230   1.298   2.908 -0.2031 -0.1792 -0.5720
16509SOL    HW151534   5.317   1.318   2.873  0.1220 -1.4090 -0.5005
16509SOL    HW251535   5.236   1.321   3.000  0.7200 -2.1419 -0.0919
16510SOL     OW51536  10.669   0.337   3.387 -0.0938  0.1924  0.8246
16510SOL    HW151537  10.631   0.264   3.337  0.2653 -0.4095  1.4217
16510SOL    HW251538  10.748   0.301   3.425  0.5581  1.1571  0.4142
16511SOL     OW51539   0.525   8.207   6.024 -0.0412  0.5255  0.5512
16511SOL    HW151540   0.457   8.190   6.090 -0.2345 -0.4204  0.1333
16511SOL    HW251541   0.603   8.165   6.060  0.3367  1.6018  1.0258
16512SOL     OW51542   9.072   9.704   5.114  0.6501  0.2280  0.5849
16512SOL    HW151543   9.166   9.686   5.115  0.7933  0.8256 -0.2315
16512SOL    HW251544   9.034   9.629   5.068  0.8556  0.4320  0.0635
16513SOL     OW51545   4.125   0.361   9.754  0.0152 -0.5648 -0.9803
16513SOL    HW151546   4.190   0.431   9.755 -0.7894  0.2117  0.7863
16513SOL    HW251547   4.175   0.282   9.774  0.5335 -0.0506 -0.1588
16514SOL     OW51548   6.265   2.290   1.581  0.2778 -0.0158 -0.1028
16514SOL    HW151549   6.205   2.241   1.524  1.0095 -0.0863 -0.8368
16514SOL    HW251550   6.217   2.369   1.605 -0.4021 -0.4456 -0.0314
16515SOL     OW51551   0.316   4.452   8.181 -0.1448  0.2199 -0.3068
16515SOL    HW151552   0.297   4.456   8.087 -1.6344 -1.0390 -0.1054
16515SOL    HW251553   0.379   4.381   8.189 -1.0169 -0.5676 -0.2480
16516SOL     OW51554   7.728   1.164   8.963 -0.4429  0.2829 -0.0763
16516SOL    HW151555   7.708   1.126   9.048  0.2534 -0.6520 -0.3159
16516SOL    HW251556   7.777   1.243   8.984  0.3158 -0.2941  0.3925
16517SOL     OW51557   4.554   0.058   5.673  0.1103  0.2526  0.1915
16517SOL    HW151558   4.528   0.119   5.742 -0.8254 -0.4961  0.5255
16517SOL    HW251559   4.471   0.022   5.640  0.5833 -0.0036 -0.7653
16518SOL     OW51560   6.300   3.305  10.778 -0.0006 -0.0706  0.0496
16518SOL    HW151561   6.310   3.250  10.856  0.5661 -1.3395 -0.8722
16518SOL    HW251562   6.242   3.376  10.805 -2.6483 -2.3102  0.7457
16519SOL     OW51563   4.570   6.025   0.852  0.4344  0.6053 -0.2070
16519SOL    HW151564   4.619   6.040   0.772 -0.0098  0.5133 -0.5034
16519SOL    HW251565   4.549   5.931   0.850  0.4882  0.5853  0.0576
16520SOL     OW51566   5.066   8.795   3.521  0.9132 -0.0680 -0.2190
16520SOL    HW151567   5.045   8.848   3.444  1.9139 -0.8310 -1.0616
16520SOL    HW251568   5.092   8.710   3.484  1.8864 -0.2908  0.9361
16521SOL     OW51569   6.977  10.616   6.325 -0.0977  0.1251 -0.3377
16521SOL    HW151570   7.005  10.524   6.322  1.5037  0.4800  1.5250
16521SOL    HW251571   7.039  10.661   6.268  1.3896  0.4973  1.4958
16522SOL     OW51572   4.363   0.663   4.257 -0.2485 -0.5381  0.7186
16522SOL    HW151573   4.294   0.679   4.321 -0.9458 -0.3359 -0.0534
16522SOL    HW251574   4.317   0.664   4.173  0.9235  1.0711  0.0577
16523SOL     OW51575   5.491   3.090   5.099 -0.4709  0.1634 -0.1844
16523SOL    HW151576   5.397   3.097   5.083 -0.6116 -0.8956  0.1369
16523SOL    HW251577   5.512   2.998   5.082  0.3346  0.1864  0.6012
16524SOL     OW51578  10.219   2.163   2.058 -0.7480 -0.0286  0.0891
16524SOL    HW151579  10.277   2.107   2.108 -0.6736 -0.8660 -0.8973
16524SOL    HW251580  10.149   2.186   2.119 -1.2247 -1.8785  0.3039
16525SOL     OW51581   3.016   9.140   5.739 -0.1620 -0.2989 -0.2649
16525SOL    HW151582   3.096   9.149   5.790 -0.8244 -1.0633  0.9423
16525SOL    HW251583   3.046   9.142   5.648  0.9593  1.8469  0.0725
16526SOL     OW51584   9.174   8.061   4.381  0.2337  0.2145 -0.2102
16526SOL    HW151585   9.133   8.093   4.462  0.3172 -0.8620  0.2739
16526SOL    HW251586   9.254   8.017   4.410  0.3783  0.0021 -0.9012
16527SOL     OW51587   0.976   1.886   2.936  0.5856  0.2137 -0.0528
16527SOL    HW151588   1.068   1.892   2.963  0.8883 -0.5226 -0.8624
16527SOL    HW251589   0.976   1.823   2.864 -0.0579  2.5301 -2.2223
16528SOL     OW51590   9.650   3.162   2.859 -0.7450  0.3460  0.6183
16528SOL    HW151591   9.713   3.223   2.898 -0.1748  1.6211 -2.0814
16528SOL    HW251592   9.573   3.168   2.916 -0.5709  3.3730  0.6996
16529SOL     OW51593   4.138   9.112   7.222 -0.0949  0.0800  0.6366
16529SOL    HW151594   4.141   9.190   7.166 -1.2331  1.2514  2.1310
16529SOL    HW251595   4.045   9.093   7.233  0.1025 -0.2150  2.0009
16530SOL     OW51596   0.738   8.447   4.598  0.5815  0.2521 -0.2607
16530SOL    HW151597   0.794   8.369   4.604 -0.5093 -0.5347 -0.0254
16530SOL    HW251598   0.724   8.459   4.504 -0.0987 -0.4689 -0.2564
16531SOL     OW51599   8.328   5.522   3.460  0.3432 -0.6897  0.4752
16531SOL    HW151600   8.317   5.548   3.368 -0.5462  0.6336  0.9298
16531SOL    HW251601   8.369   5.598   3.501 -0.6380 -0.6955  1.4785
16532SOL     OW51602   7.057   9.103   8.809 -0.5497 -0.1259  0.6751
16532SOL    HW151603   7.090   9.172   8.867 -0.1641 -0.9132  1.4065
16532SOL    HW251604   7.098   9.023   8.841  1.0150 -0.3916 -1.6937
16533SOL     OW51605   3.315   6.002  10.601  0.3038  0.2504 -0.6073
16533SOL    HW151606   3.288   6.092  10.586  0.5856  0.6432  1.0805
16533SOL    HW251607   3.410   6.006  10.613  0.2679 -0.2100 -0.1186
16534SOL     OW51608   3.874   9.277   5.421  0.3295 -0.3158 -0.5859
16534SOL    HW151609   3.916   9.334   5.484 -0.2421  0.8145 -1.1901
16534SOL    HW251610   3.911   9.191   5.437  2.6659  0.5576 -0.9146
16535SOL     OW51611   1.724   3.788   7.529 -0.1587  0.3336 -0.0645
16535SOL    HW151612   1.749   3.879   7.511 -0.9822  1.1039  2.3641
16535SOL    HW251613   1.629   3.790   7.540 -0.2357 -0.9111 -0.2909
16536SOL     OW51614   4.552   5.331   6.512  0.1563  0.8245 -0.1169
16536SOL    HW151615   4.524   5.383   6.587  0.3153  1.4723 -0.5006
16536SOL    HW251616   4.648   5.334   6.516  0.1645  1.0683 -0.4875
16537SOL     OW51617   2.703   6.012   4.008 -0.1160  0.2570  0.2779
16537SOL    HW151618   2.751   6.080   3.962  0.9757 -1.1895 -0.7861
16537SOL    HW251619   2.612   6.024   3.980  0.1840  0.7828 -0.4837
16538SOL     OW51620   5.104   9.768   2.961 -0.3500  0.3569 -0.0043
16538SOL    HW151621   5.037   9.702   2.977 -0.6547  0.5308 -0.5363
16538SOL    HW251622   5.187   9.725   2.983 -0.6491  0.2231  0.9025
16539SOL     OW51623   0.145   3.235   2.761 -0.1134  0.6663 -0.3992
16539SOL    HW151624   0.231   3.274   2.744  0.8705 -0.3324  1.8756
16539SOL    HW251625   0.114   3.278   2.840  0.1487 -1.7182  1.0917
16540SOL     OW51626   1.523   0.521   1.930 -0.2770  0.6952 -0.4334
16540SOL    HW151627   1.602   0.500   1.979 -1.3550  1.4768  1.7898
16540SOL    HW251628   1.549   0.514   1.838  1.7830 -1.0911  0.2017
16541SOL     OW51629   7.616   9.852   4.508 -0.0993 -0.7697 -0.0903
16541SOL    HW151630   7.585   9.771   4.468  0.6778 -0.5840 -1.1112
16541SOL    HW251631   7.673   9.824   4.580  0.1697 -1.1276 -0.4440
16542SOL     OW51632   9.328   4.681   6.748  0.1186  0.0930  0.4455
16542SOL    HW151633   9.383   4.741   6.698  0.1997 -0.3706 -0.0216
16542SOL    HW251634   9.390   4.620   6.789 -0.0217 -0.1847  0.2419
16543SOL     OW51635   2.620   4.532   5.708 -0.2033 -0.1985  0.6202
16543SOL    HW151636   2.597   4.476   5.634 -0.4984 -1.2535  1.4902
16543SOL    HW251637   2.538   4.576   5.732 -0.2527 -0.3567  0.7392
16544SOL     OW51638   3.476   4.895   7.152 -0.1227 -0.2890 -0.4608
16544SOL    HW151639   3.564   4.858   7.144  0.8587  0.6300  3.6213
16544SOL    HW251640   3.418   4.821   7.136  1.3698 -1.1538 -2.2747
16545SOL     OW51641   4.398   3.624   5.869 -0.2361 -0.1610 -0.6555
16545SOL    HW151642   4.341   3.668   5.806 -0.3541  0.8728  0.1571
16545SOL    HW251643   4.349   3.545   5.894 -1.2631  0.6479 -0.0611
16546SOL     OW51644  10.425   0.242   5.851 -0.4080 -0.5518  0.3040
16546SOL    HW151645  10.482   0.260   5.776 -1.4827  0.6379 -0.2560
16546SOL    HW251646  10.439   0.316   5.910 -1.6949  0.0143 -0.0618
16547SOL     OW51647   1.049  10.193   0.754 -0.6328 -0.2564 -0.1139
16547SOL    HW151648   1.065  10.250   0.679  0.7168 -1.1009 -0.5099
16547SOL    HW251649   1.028  10.108   0.716 -0.9162 -0.4583  0.4758
16548SOL     OW51650   6.484   8.724   0.141 -0.2619 -0.5357  0.7457
16548SOL    HW151651   6.414   8.674   0.185 -0.1124 -1.3037  0.1331
16548SOL    HW251652   6.482   8.693   0.051 -0.2793  0.7194  0.3002
16549SOL     OW51653   6.100   4.911   1.883  0.1124 -0.1835 -0.2031
16549SOL    HW151654   6.086   5.001   1.855  0.5614 -0.4223 -1.2523
16549SOL    HW251655   6.063   4.906   1.971 -0.8448  0.7433 -0.5496
16550SOL     OW51656   6.609   1.435   6.106 -0.2894 -0.3144  0.1288
16550SOL    HW151657   6.586   1.520   6.144  0.9359  0.5197 -0.8966
16550SOL    HW251658   6.590   1.445   6.012  2.0513 -0.2916 -0.4214
16551SOL     OW51659   5.582   3.375   0.151  0.0302  0.1923  0.4490
16551SOL    HW151660   5.497   3.352   0.112  0.1465  0.9177 -0.2509
16551SOL    HW251661   5.634   3.296   0.144 -0.6298 -0.3038  1.0065
16552SOL     OW51662   3.283   4.152   5.053  0.5337 -0.3584  0.1259
16552SOL    HW151663   3.254   4.148   4.962 -3.7119 -1.1424  1.3036
16552SOL    HW251664   3.346   4.080   5.062 -0.3405 -1.4307 -1.8102
16553SOL     OW51665   1.501   4.958   2.611  0.0740 -0.1239  0.2491
16553SOL    HW151666   1.589   4.942   2.577 -0.3306  1.4976 -1.7644
16553SOL    HW251667   1.509   5.040   2.661 -0.2426 -0.1333  0.3169
16554SOL     OW51668   4.737   4.718   0.373  0.1034  0.9176  0.3249
16554SOL    HW151669   4.755   4.650   0.438  0.0473  2.8368  2.5134
16554SOL    HW251670   4.661   4.686   0.324 -0.3667 -0.2812  1.7684
16555SOL     OW51671   7.837   3.459   4.397 -0.4632  0.4274  0.1727
16555SOL    HW151672   7.802   3.531   4.345 -1.0102  0.0126 -0.0484
16555SOL    HW251673   7.906   3.499   4.450 -0.0424  0.8893 -0.7130
16556SOL     OW51674   4.321  10.268   6.736 -0.5215 -0.2024 -0.4390
16556SOL    HW151675   4.319  10.345   6.679  0.5769  1.3272  1.4604
16556SOL    HW251676   4.414  10.257   6.758 -0.7860 -1.4550  0.1327
16557SOL     OW51677   1.834   9.079   5.388 -0.1899 -0.5033  0.7652
16557SOL    HW151678   1.749   9.045   5.416 -1.5903  1.3490 -0.9691
16557SOL    HW251679   1.813   9.146   5.324  2.5522  1.1454  1.4343
16558SOL     OW51680   0.360   4.386   0.218  0.6276 -0.1754 -0.8011
16558SOL    HW151681   0.282   4.375   0.273  0.0719  1.9979 -1.0921
16558SOL    HW251682   0.431   4.351   0.272 -0.1105  0.6340  0.7811
16559SOL     OW51683   6.898   3.061   6.220  0.0206  0.2949 -0.4866
16559SOL    HW151684   6.927   3.015   6.141  1.1111  0.4685 -0.2046
16559SOL    HW251685   6.944   3.017   6.291 -0.4632  0.5517 -0.0078
16560SOL     OW51686   1.530   3.130   4.825  0.8264 -0.2666 -0.6246
16560SOL    HW151687   1.541   3.037   4.802  1.7338 -0.2395 -0.3419
16560SOL    HW251688   1.609   3.152   4.874 -0.0476  0.2759  0.5789
16561SOL     OW51689   5.994   8.460   7.644 -0.1517 -0.2310  0.2022
16561SOL    HW151690   5.906   8.498   7.635  0.1290  0.4772  0.4106
16561SOL    HW251691   6.011   8.462   7.738  0.2899  0.0968  0.1155
16562SOL     OW51692   3.422  10.938  10.629 -0.3043  0.3640  0.5789
16562SOL    HW151693   3.477  10.993  10.685  1.0264 -1.4285  1.1313
16562SOL    HW251694   3.484  10.890  10.575 -1.4857  0.3221 -0.7826
16563SOL     OW51695   7.238   0.067   0.328  0.1453  0.3406 -0.1236
16563SOL    HW151696   7.150   0.073   0.365 -0.0249  0.4942 -0.5465
16563SOL    HW251697   7.224   0.034   0.239  0.4660  0.8916 -0.3839
16564SOL     OW51698   3.469   4.914   6.029 -0.2010 -0.1115 -0.1981
16564SOL    HW151699   3.485   4.923   5.935  1.6204 -2.6592 -0.2374
16564SOL    HW251700   3.388   4.863   6.035  0.7965 -1.8214 -0.5197
16565SOL     OW51701   7.331   2.652   7.016  0.0529  0.2627 -0.7154
16565SOL    HW151702   7.248   2.606   7.011  0.0909  0.1081 -0.0597
16565SOL    HW251703   7.311   2.733   7.063  0.5232 -0.4320  0.7639
16566SOL     OW51704   2.155   8.210   9.071  0.0065  0.2970 -0.0116
16566SOL    HW151705   2.199   8.271   9.130  0.8884  0.8117 -1.1810
16566SOL    HW251706   2.180   8.238   8.983  0.1238 -1.5014 -0.5965
16567SOL     OW51707   7.096   4.910   0.261 -0.0554  0.2397  0.1522
16567SOL    HW151708   7.013   4.873   0.290 -0.6904  1.9035  0.5781
16567SOL    HW251709   7.077   5.003   0.247  1.3691  0.3683 -1.1981
16568SOL     OW51710   4.833   5.791   2.927 -0.2627 -0.1635 -0.0394
16568SOL    HW151711   4.892   5.756   2.859  1.4247  1.1918  0.6480
16568SOL    HW251712   4.825   5.884   2.907 -0.7880  0.0008  0.8684
16569SOL     OW51713   4.589   5.882   4.457 -0.3565  0.2124 -0.2412
16569SOL    HW151714   4.623   5.972   4.457  1.0660 -0.2845  0.6622
16569SOL    HW251715   4.664   5.828   4.433 -0.9185 -0.8222  0.2559
16570SOL     OW51716  10.640   3.939   7.263  1.0665 -0.0004  0.1018
16570SOL    HW151717  10.546   3.917   7.262  0.8581  0.5995  2.0193
16570SOL    HW251718  10.678   3.881   7.197 -0.4805 -1.1399  0.1282
16571SOL     OW51719   4.056   8.315   3.536 -0.3527 -0.2796  0.7148
16571SOL    HW151720   4.057   8.303   3.631  0.0217 -2.3639  0.4988
16571SOL    HW251721   4.003   8.242   3.503 -1.8288  1.3112 -0.6025
16572SOL     OW51722   3.443   6.096   0.573  0.0198 -0.3989 -0.1948
16572SOL    HW151723   3.449   6.111   0.479  0.7782 -1.1424 -0.2709
16572SOL    HW251724   3.434   6.184   0.610  0.2596 -0.0634 -0.9204
16573SOL     OW51725   0.603   5.526   6.317  0.4874  0.0917 -0.3431
16573SOL    HW151726   0.588   5.618   6.298 -1.9019 -0.3652 -0.9936
16573SOL    HW251727   0.522   5.482   6.290  0.3437 -1.7967  2.6925
16574SOL     OW51728   3.132   4.962   8.607  0.0956 -0.6067  0.3845
16574SOL    HW151729   3.077   4.996   8.536  0.4547 -1.1944 -0.1892
16574SOL    HW251730   3.182   5.038   8.637  2.1438 -0.8812 -2.0178
16575SOL     OW51731   1.809   0.909   8.097 -0.2612 -0.2633 -0.0040
16575SOL    HW151732   1.742   0.874   8.156  0.5356  1.3683  1.9988
16575SOL    HW251733   1.889   0.908   8.149  0.9714 -0.8332 -1.8585
16576SOL     OW51734   6.683   3.115   0.520 -0.0858 -0.5714  0.2938
16576SOL    HW151735   6.738   3.112   0.599 -0.0097  0.5232  0.2998
16576SOL    HW251736   6.661   3.024   0.503  0.3138 -0.8729  1.2947
16577SOL     OW51737   3.966   8.988   2.675  0.3995  0.0674 -0.2110
16577SOL    HW151738   4.060   8.990   2.692  0.4956 -0.9058 -0.5461
16577SOL    HW251739   3.950   8.901   2.637 -0.2603  1.0164 -2.2663
16578SOL     OW51740   3.755   8.740   1.812  0.4051 -1.2896 -0.2405
16578SOL    HW151741   3.734   8.805   1.745 -0.6438  0.0884  1.3456
16578SOL    HW251742   3.671   8.700   1.833  0.8556 -2.2801 -0.2976
16579SOL     OW51743   8.382  10.938   6.405  0.1807 -0.1643 -0.2770
16579SOL    HW151744   8.442  10.968   6.473  0.1862 -0.4134 -0.1720
16579SOL    HW251745   8.360  10.849   6.430  1.1204 -0.6932 -1.2285
16580SOL     OW51746   3.580   3.385   7.746  0.0439  0.6558  0.3912
16580SOL    HW151747   3.632   3.361   7.823 -0.1735 -0.8824  0.0876
16580SOL    HW251748   3.578   3.305   7.693 -1.5828  1.0614 -0.1967
16581SOL     OW51749   1.852   8.017   5.405 -0.2516  0.7253  0.0813
16581SOL    HW151750   1.872   7.942   5.349 -2.4562  0.0736  0.0964
16581SOL    HW251751   1.775   7.990   5.455  0.1360  2.2475  1.6029
16582SOL     OW51752   8.956   3.967   6.121 -0.0502  0.0917  0.4558
16582SOL    HW151753   8.869   3.993   6.092 -0.0048 -0.7242 -0.4413
16582SOL    HW251754   9.016   4.013   6.062  0.1461  0.5578  0.9948
16583SOL     OW51755   8.196   8.522   2.826 -0.5937  0.0559 -0.8809
16583SOL    HW151756   8.162   8.432   2.822 -1.1295  0.1844  0.4344
16583SOL    HW251757   8.124   8.573   2.863  0.2907  0.7316 -0.0649
16584SOL     OW51758   2.162   7.569   2.313  0.0091  0.4152  0.0511
16584SOL    HW151759   2.121   7.543   2.230 -0.8847  3.3469 -0.5366
16584SOL    HW251760   2.104   7.635   2.349  2.3022  1.9778  1.1193
16585SOL     OW51761   2.951   9.826   4.543 -0.4060 -0.9453 -0.2881
16585SOL    HW151762   3.040   9.792   4.553 -0.6005 -1.1601  0.8722
16585SOL    HW251763   2.894   9.752   4.563 -0.8386 -0.4986  0.1661
16586SOL     OW51764   9.690   2.806   5.906  0.1557 -0.6700  0.2326
16586SOL    HW151765   9.600   2.778   5.891 -0.3113  1.3745 -1.2497
16586SOL    HW251766   9.739   2.769   5.832  0.0700  0.0910 -0.2139
16587SOL     OW51767   6.458   3.768   3.104  0.7113 -0.0136  0.2220
16587SOL    HW151768   6.400   3.741   3.033  0.3675  2.4736 -0.5599
16587SOL    HW251769   6.427   3.721   3.181 -2.2231  1.0274 -0.2171
16588SOL     OW51770   7.996   5.971  10.306  0.4712 -0.1543 -0.1680
16588SOL    HW151771   7.967   6.059  10.332  0.2309 -0.4026  0.4229
16588SOL    HW251772   8.064   5.986  10.241 -1.3241  0.4623 -2.0198
16589SOL     OW51773  10.123   4.020   4.013  0.0945 -0.0479  0.1856
16589SOL    HW151774  10.201   4.020   3.957 -0.3168 -1.2620 -0.4148
16589SOL    HW251775  10.099   4.113   4.020  0.5297  0.1884 -1.1308
16590SOL     OW51776   9.788  10.025   7.019 -0.3231  0.4135 -0.6314
16590SOL    HW151777   9.810  10.033   7.112 -0.5813 -1.0727 -0.4078
16590SOL    HW251778   9.873  10.016   6.975 -0.2481 -1.5325 -0.2018
16591SOL     OW51779   3.237   5.903   3.348 -0.3020 -0.4017  0.2789
16591SOL    HW151780   3.230   5.894   3.253  2.7518  0.5747 -0.1409
16591SOL    HW251781   3.303   5.839   3.374 -0.8104 -0.3781  1.7113
16592SOL     OW51782   3.450   2.589   5.183  0.1806 -0.8325  0.3479
16592SOL    HW151783   3.516   2.592   5.114 -0.3332 -0.5540 -0.1430
16592SOL    HW251784   3.430   2.496   5.194  0.4426 -0.8952  0.2941
16593SOL     OW51785   0.354   0.799   6.642 -0.4478  0.4870  0.1731
16593SOL    HW151786   0.395   0.719   6.608 -1.0980 -0.3438  1.2769
16593SOL    HW251787   0.298   0.829   6.571  0.3570  0.3716 -0.5222
16594SOL     OW51788   0.097   4.777   6.082 -0.0783 -0.2445 -0.3605
16594SOL    HW151789   0.140   4.738   6.006  1.2355  1.1191 -0.3560
16594SOL    HW251790   0.062   4.860   6.049 -2.2307 -1.0307 -0.2079
16595SOL     OW51791   4.567   7.123   6.316 -0.2533 -0.8551  0.4954
16595SOL    HW151792   4.633   7.147   6.251 -1.2082  0.5937 -0.0044
16595SOL    HW251793   4.595   7.168   6.396 -0.9040  0.2404  0.1296
16596SOL     OW51794  10.078   3.805  11.085  0.2448 -0.6178 -0.0725
16596SOL    HW151795  10.044   3.801  10.996 -1.5396  0.5558  0.4897
16596SOL    HW251796  10.000   3.815  11.140  1.4012  0.5679  1.4537
16597SOL     OW51797   7.196  10.025   1.282 -0.4744  0.2675 -0.1856
16597SOL    HW151798   7.144  10.090   1.330 -0.3523 -0.6522  1.2607
16597SOL    HW251799   7.131   9.967   1.243 -0.5692 -0.3503  0.8599
16598SOL     OW51800   5.563   3.114   5.817  0.2883 -0.1396 -0.0157
16598SOL    HW151801   5.486   3.172   5.816 -0.5611 -1.2412 -0.3132
16598SOL    HW251802   5.622   3.154   5.881  0.9429  2.5671 -2.0941
16599SOL     OW51803   4.175   8.115   3.041  0.4099 -0.3942 -0.2484
16599SOL    HW151804   4.131   8.056   2.980  2.9693 -1.1720 -1.4555
16599SOL    HW251805   4.266   8.117   3.012  1.3921  0.5395  2.5704
16600SOL     OW51806   1.504   9.107   9.129 -0.3599 -0.3565  0.0321
16600SOL    HW151807   1.544   9.170   9.189  1.1293 -1.3057  0.0760
16600SOL    HW251808   1.481   9.159   9.052 -0.2773  0.4583  0.5395
16601SOL     OW51809   4.055   9.633   6.390 -0.5067 -0.7444  0.2925
16601SOL    HW151810   4.083   9.722   6.366 -0.1553 -0.8976  0.1283
16601SOL    HW251811   3.965   9.644   6.420  0.1432 -0.0394  2.1064
16602SOL     OW51812   7.069   1.294   4.841  0.1723 -0.1261 -0.1560
16602SOL    HW151813   7.117   1.291   4.924  0.0389 -2.0387 -0.0960
16602SOL    HW251814   7.036   1.384   4.835 -0.2159 -0.0486  2.1049
16603SOL     OW51815   0.167   0.960   0.646 -0.0075  0.0994 -0.0762
16603SOL    HW151816   0.151   0.911   0.726 -1.2723  1.2337  0.4117
16603SOL    HW251817   0.247   0.923   0.610 -0.1165 -1.2871  1.0390
16604SOL     OW51818   3.535   0.599   6.442 -0.7574  0.0698  0.2112
16604SOL    HW151819   3.558   0.533   6.376  0.1164 -1.0473  1.5759
16604SOL    HW251820   3.607   0.662   6.439 -0.4990 -0.2119  0.3656
16605SOL     OW51821   5.429  10.626   8.437 -0.0227  0.3922  0.4687
16605SOL    HW151822   5.514  10.660   8.409  0.3105  1.5660  2.6543
16605SOL    HW251823   5.375  10.630   8.358  1.5962  0.7912 -0.6833
16606SOL     OW51824   6.803   1.675   3.958  0.1843  0.2069  0.3607
16606SOL    HW151825   6.748   1.624   4.018  1.5959 -1.3443  0.4270
16606SOL    HW251826   6.840   1.610   3.899  2.2835  1.0896  0.6052
16607SOL     OW51827   5.060   5.702   4.722  0.0160  0.7145  0.4526
16607SOL    HW151828   5.118   5.778   4.726  0.7094  0.2655 -0.5519
16607SOL    HW251829   4.991   5.721   4.785  0.6184  1.8029  0.8127
16608SOL     OW51830   8.805   1.600   8.891 -0.5467  0.5843 -0.7989
16608SOL    HW151831   8.825   1.507   8.882 -0.5696  0.5271 -0.2662
16608SOL    HW251832   8.795   1.614   8.985 -0.9842  1.0338 -0.9059
16609SOL     OW51833   3.230   3.922  10.961  0.1672  0.2128  0.0462
16609SOL    HW151834   3.247   3.993  11.024  1.2744  0.5022 -0.5415
16609SOL    HW251835   3.142   3.939  10.929  0.4041  1.3273 -0.0677
16610SOL     OW51836   6.593   9.401   3.907 -0.0146 -0.3815  0.3828
16610SOL    HW151837   6.536   9.358   3.844 -0.2089  0.5363 -0.0935
16610SOL    HW251838   6.628   9.330   3.960 -1.6348 -0.9649  0.7247
16611SOL     OW51839   3.979   7.670   2.751  0.5771 -0.7933 -0.1528
16611SOL    HW151840   3.940   7.602   2.806 -0.3074 -1.1989 -1.2401
16611SOL    HW251841   3.903   7.714   2.712  1.0501  1.8429  1.6743
16612SOL     OW51842   1.162   2.090   5.346  0.1679  0.0696  0.1948
16612SOL    HW151843   1.200   2.044   5.421 -0.5948 -1.3461 -0.2521
16612SOL    HW251844   1.231   2.150   5.317  1.0844 -0.5699  1.0008
16613SOL     OW51845   6.387  10.279   7.470 -0.2855  0.0136  1.0119
16613SOL    HW151846   6.383  10.212   7.402 -2.6274 -1.4284  2.4341
16613SOL    HW251847   6.296  10.294   7.494  0.4076  1.1162  3.2020
16614SOL     OW51848   9.919   7.796   3.831  0.0846 -0.1927 -0.2348
16614SOL    HW151849   9.885   7.791   3.920 -1.5411  0.5235 -0.7838
16614SOL    HW251850   9.952   7.708   3.813  0.0921 -0.4421  0.9380
16615SOL     OW51851   6.470   6.175  10.131  0.2684 -0.3965  0.2117
16615SOL    HW151852   6.391   6.227  10.111 -0.3025 -1.1209  0.5553
16615SOL    HW251853   6.504   6.214  10.211 -0.0869 -0.4716  0.4005
16616SOL     OW51854  10.672   6.397   7.091  0.2915  0.0691  0.1206
16616SOL    HW151855  10.749   6.451   7.076  0.4789  0.2894  1.6550
16616SOL    HW251856  10.698   6.338   7.163 -0.6063 -0.5992 -0.0868
16617SOL     OW51857   2.374   9.057   6.790  0.5321 -0.2289 -0.2499
16617SOL    HW151858   2.455   9.067   6.840 -0.1909 -0.4525  1.0016
16617SOL    HW251859   2.360   9.142   6.749  0.5314  0.3351  0.8875
16618SOL     OW51860   3.795   1.122   6.104 -0.4967 -0.1421 -0.0232
16618SOL    HW151861   3.809   1.112   6.010 -0.0058  2.3821 -0.2894
16618SOL    HW251862   3.805   1.216   6.120  0.9640 -0.6754  2.8064
16619SOL     OW51863   4.886   3.529   7.434 -0.1965 -0.4069  0.0880
16619SOL    HW151864   4.949   3.581   7.483  1.4763 -1.8917 -0.3584
16619SOL    HW251865   4.802   3.545   7.477  0.8215  0.0914  1.9972
16620SOL     OW51866   8.293   6.824   9.798  0.1042  0.0733  0.0582
16620SOL    HW151867   8.271   6.860   9.883  2.4166  1.5801  0.1069
16620SOL    HW251868   8.348   6.748   9.817 -1.4872 -1.1916 -0.1216
16621SOL     OW51869   6.191   6.384   8.299 -0.4442  0.3515  0.4303
16621SOL    HW151870   6.264   6.356   8.353  2.0020 -0.5889 -3.0393
16621SOL    HW251871   6.147   6.303   8.273 -0.3020  0.5724 -0.5655
16622SOL     OW51872   4.310   0.672   8.512  0.4070  0.1253 -0.1469
16622SOL    HW151873   4.375   0.640   8.575 -0.3448  0.2410  0.7080
16622SOL    HW251874   4.226   0.662   8.557 -0.2918 -0.9473 -1.5903
16623SOL     OW51875  10.710   3.936   3.036  0.2203 -0.1871 -0.3885
16623SOL    HW151876  10.696   4.029   3.019  1.8524  0.2683  0.5406
16623SOL    HW251877  10.731   3.899   2.950 -1.5299  0.0293 -0.9614
16624SOL     OW51878   9.814   3.063   4.829  0.0585 -0.5023 -0.0745
16624SOL    HW151879   9.732   3.061   4.879  0.9011 -0.9246  1.3584
16624SOL    HW251880   9.800   3.000   4.758 -1.1391  0.0428 -0.3425
16625SOL     OW51881   5.557   6.854   3.930  0.3007  0.3843  0.1633
16625SOL    HW151882   5.616   6.833   4.003 -0.2585  2.0190  1.1388
16625SOL    HW251883   5.555   6.949   3.928 -2.1468  0.3899  0.0384
16626SOL     OW51884   6.582   4.134   6.389 -0.0107  0.3466 -0.3693
16626SOL    HW151885   6.500   4.153   6.344 -1.4961  0.1988  2.0994
16626SOL    HW251886   6.623   4.219   6.402  0.8651  0.3247 -2.6204
16627SOL     OW51887   5.655   6.426   3.626  0.2905 -0.6245  0.5089
16627SOL    HW151888   5.640   6.497   3.688 -0.2882 -0.0731 -0.2472
16627SOL    HW251889   5.574   6.375   3.628 -0.5372  0.5519 -1.2606
16628SOL     OW51890   2.466   3.527   4.060  0.7198  0.1904  0.0929
16628SOL    HW151891   2.466   3.439   4.023  2.4685 -0.6741  1.9396
16628SOL    HW251892   2.383   3.534   4.107  0.2825 -0.2030 -0.5999
16629SOL     OW51893   6.267   2.406   2.297 -0.4130 -0.1498  0.0144
16629SOL    HW151894   6.233   2.318   2.281  1.8206 -1.0980  0.0714
16629SOL    HW251895   6.332   2.394   2.367 -0.7278  1.7143  0.6723
16630SOL     OW51896   9.989   8.995   6.694 -0.0834  0.4976  0.0321
16630SOL    HW151897  10.048   8.922   6.712  2.3978  1.3484 -3.4909
16630SOL    HW251898  10.026   9.068   6.744 -1.8829 -0.2083  2.6147
16631SOL     OW51899   0.525   1.948   3.207  0.9081  0.1800  0.0812
16631SOL    HW151900   0.535   2.021   3.269  1.9818 -0.0699  0.2144
16631SOL    HW251901   0.486   1.878   3.259  0.0877  0.5751  0.0112
16632SOL     OW51902   8.945   2.751   3.654 -0.9078  0.1951  0.2934
16632SOL    HW151903   8.923   2.813   3.585  1.2213 -0.5409 -1.1212
16632SOL    HW251904   8.948   2.805   3.734  0.3573  1.8501 -0.7996
16633SOL     OW51905   2.045   2.188   6.276 -0.1770 -0.3421  0.2127
16633SOL    HW151906   2.099   2.114   6.302 -1.4889 -1.1716  0.6555
16633SOL    HW251907   2.042   2.183   6.181 -0.0802 -0.7444  0.2281
16634SOL     OW51908   2.158  10.065   6.531  0.2263 -0.3611 -0.2672
16634SOL    HW151909   2.087  10.003   6.513 -0.8377  1.1835 -1.7351
16634SOL    HW251910   2.117  10.133   6.584  0.7938  0.1753 -0.5054
16635SOL     OW51911   2.394   7.720   8.147  0.8376 -0.2591 -0.2097
16635SOL    HW151912   2.446   7.657   8.096  0.7618 -1.2964  0.9432
16635SOL    HW251913   2.311   7.725   8.099  0.3914 -1.9847  0.2857
16636SOL     OW51914   4.659   6.467   8.517  0.1450  0.2141  0.5083
16636SOL    HW151915   4.587   6.410   8.544  0.6559 -0.2996  0.8257
16636SOL    HW251916   4.737   6.426   8.557  0.9082 -0.4296 -1.5279
16637SOL     OW51917   7.337  10.181   6.301 -0.3987  0.1161 -0.3256
16637SOL    HW151918   7.394  10.190   6.378  0.3059  3.2991 -1.0624
16637SOL    HW251919   7.252  10.155   6.338  0.5220 -0.9115  1.2106
16638SOL     OW51920   8.715   3.971   7.766 -0.3489  0.3821  0.0715
16638SOL    HW151921   8.741   4.052   7.722  0.0216  0.6061  0.6765
16638SOL    HW251922   8.766   3.903   7.723  0.5276  0.6878  0.5854
16639SOL     OW51923   5.167   5.216   0.098 -0.2763  0.0696 -0.4962
16639SOL    HW151924   5.259   5.221   0.072  1.3216  2.8565  4.3864
16639SOL    HW251925   5.131   5.301   0.076 -0.2396  0.6873  1.6084
16640SOL     OW51926   1.300   3.274   4.705 -0.2937 -0.2468  0.3175
16640SOL    HW151927   1.211   3.245   4.686 -0.9534  1.4303  0.6724
16640SOL    HW251928   1.332   3.212   4.771 -1.3902 -0.5648  0.5704
16641SOL     OW51929   6.778   7.021   9.816  0.0186 -0.0681 -0.2564
16641SOL    HW151930   6.793   7.067   9.899 -0.4798  0.5057 -0.4796
16641SOL    HW251931   6.683   7.011   9.811  0.0109  0.3083 -0.9715
16642SOL     OW51932   2.411  10.678   6.023  1.0594  0.1370  0.3222
16642SOL    HW151933   2.372  10.598   5.989 -0.2955 -0.5605  3.2187
16642SOL    HW251934   2.410  10.738   5.949  0.7402 -2.0279 -1.5345
16643SOL     OW51935   4.154   5.287  10.561 -0.2853 -0.1065 -0.0211
16643SOL    HW151936   4.177   5.219  10.498 -2.5951 -0.4787 -0.5496
16643SOL    HW251937   4.135   5.239  10.642 -2.7810 -0.2666 -0.6334
16644SOL     OW51938   3.238   8.263   9.527 -0.1790 -0.4176  0.4194
16644SOL    HW151939   3.320   8.273   9.478  0.4845 -0.2334  1.5421
16644SOL    HW251940   3.175   8.316   9.479  0.6638  0.4478  0.2353
16645SOL     OW51941   7.234   3.261   2.155 -0.1993 -0.0382  0.0468
16645SOL    HW151942   7.205   3.345   2.120  2.1875 -0.6511 -4.0768
16645SOL    HW251943   7.293   3.284   2.227 -0.5676  1.7316 -0.1627
16646SOL     OW51944   4.305   8.992   2.751 -0.2804  0.1835 -0.3096
16646SOL    HW151945   4.312   8.902   2.719 -1.5673  0.1534 -0.5385
16646SOL    HW251946   4.284   8.982   2.844  1.5447  0.2758  0.1603
16647SOL     OW51947   0.099   6.274   2.587 -0.1997 -1.1901 -0.3976
16647SOL    HW151948   0.090   6.198   2.528 -1.6563 -1.6985  0.4347
16647SOL    HW251949   0.053   6.345   2.542  0.5944 -0.9666 -0.8723
16648SOL     OW51950   3.292   2.776   3.912 -0.1747  0.0904 -0.4817
16648SOL    HW151951   3.307   2.801   4.003 -0.4719  0.2794 -0.4828
16648SOL    HW251952   3.295   2.680   3.913 -1.3565  0.0377 -0.0530
16649SOL     OW51953   2.848   3.835   6.044 -0.3279  0.0537  0.0780
16649SOL    HW151954   2.930   3.815   5.998 -0.3207  0.4974 -0.1057
16649SOL    HW251955   2.873   3.904   6.106  0.2512 -2.2264  2.5559
16650SOL     OW51956   3.701   4.904   4.481 -0.6951 -0.2827  0.5965
16650SOL    HW151957   3.737   4.830   4.432 -1.6333  1.0506 -2.3809
16650SOL    HW251958   3.608   4.884   4.489 -0.6750 -0.1437  1.2442
16651SOL     OW51959   2.747   2.292   3.285  0.3755  0.0703  0.2517
16651SOL    HW151960   2.729   2.270   3.194  0.2579  0.4566  0.1794
16651SOL    HW251961   2.778   2.210   3.324 -1.7855 -0.7219  0.4587
16652SOL     OW51962   5.725   3.178   9.182  0.2708 -0.0662  0.7719
16652SOL    HW151963   5.781   3.100   9.181  0.1642 -0.1391  0.4524
16652SOL    HW251964   5.641   3.145   9.216  0.1001 -0.1780  0.2483
16653SOL     OW51965   3.063   4.468   9.043  0.2379 -0.1300 -0.1902
16653SOL    HW151966   3.116   4.547   9.049  0.7085 -0.3371 -1.4646
16653SOL    HW251967   3.109   4.411   8.982 -0.8944 -0.7477 -0.5138
16654SOL     OW51968   3.422  10.807   3.496  0.6539  0.3792 -0.0214
16654SOL    HW151969   3.376  10.722   3.495  0.1447  0.6368 -1.2212
16654SOL    HW251970   3.407  10.841   3.584 -0.3031 -0.1702  0.0494
16655SOL     OW51971   9.177   5.122   6.209  0.3178 -0.1717  0.2497
16655SOL    HW151972   9.139   5.198   6.165 -0.2438 -1.1277 -0.9471
16655SOL    HW251973   9.141   5.126   6.298  0.8307  1.3245  0.4281
16656SOL     OW51974   3.853   3.826   3.605  0.6040  0.2125  0.5463
16656SOL    HW151975   3.829   3.892   3.540  0.2677 -0.1099  0.3361
16656SOL    HW251976   3.848   3.743   3.557  1.0676  0.0369  0.7959
16657SOL     OW51977   5.520   1.870   5.084  0.9302  0.1030  0.3956
16657SOL    HW151978   5.463   1.802   5.047  0.7054 -0.4189  1.6290
16657SOL    HW251979   5.526   1.936   5.016  0.2048 -0.6209 -0.4011
16658SOL     OW51980   3.177   3.524   4.912  0.6287  0.3079  0.3403
16658SOL    HW151981   3.131   3.590   4.963 -0.5876 -0.1540 -0.1284
16658SOL    HW251982   3.108   3.470   4.874  1.5878 -1.3571  0.8573
16659SOL     OW51983   5.807   0.181   9.184  0.4123  0.4986 -0.2313
16659SOL    HW151984   5.733   0.243   9.190  0.2073  0.1487  1.2293
16659SOL    HW251985   5.826   0.176   9.090 -1.2225  0.8381 -0.6160
16660SOL     OW51986  10.793   0.865   7.837  0.2921 -0.1834  0.0533
16660SOL    HW151987  10.815   0.888   7.747 -0.0989 -0.7997 -0.2057
16660SOL    HW251988  10.866   0.811   7.867  0.0732 -0.6056 -0.1550
16661SOL     OW51989   3.575   5.673   8.065  0.2818  0.3645 -0.2699
16661SOL    HW151990   3.501   5.612   8.055 -0.5590  1.5731 -2.0628
16661SOL    HW251991   3.652   5.619   8.049 -0.2817 -0.6738  0.3822
16662SOL     OW51992   6.630   9.594   4.112  0.0669 -0.5832  0.6672
16662SOL    HW151993   6.619   9.520   4.053  0.9217  0.0107 -0.2585
16662SOL    HW251994   6.632   9.554   4.199  0.0282 -1.6001  0.2189
16663SOL     OW51995   6.140   4.224   1.194  0.0434 -0.5444 -0.0191
16663SOL    HW151996   6.066   4.183   1.239 -0.0934 -1.1036 -0.7398
16663SOL    HW251997   6.100   4.280   1.128  0.2619 -1.6960 -1.1526
16664SOL     OW51998   3.816  10.921   0.077  0.0562  0.2014 -0.3306
16664SOL    HW151999   3.797  10.861   0.004  0.4039 -0.0070 -0.2542
16664SOL    HW252000   3.744  10.907   0.138  0.4463 -0.5882 -0.0380
16665SOL     OW52001   0.172   3.471   4.320 -0.3922 -0.0841 -0.2945
16665SOL    HW152002   0.110   3.495   4.251 -2.4578  2.1191  2.0954
16665SOL    HW252003   0.242   3.536   4.313  0.7765 -1.4420 -1.8349
16666SOL     OW52004   4.780   0.537   7.648  0.0131 -0.8344  0.0307
16666SOL    HW152005   4.857   0.591   7.665  0.0147 -0.8284  0.0056
16666SOL    HW252006   4.736   0.580   7.574 -1.5050  0.7163  1.7505
16667SOL     OW52007   4.088   5.327   8.869  0.0229 -0.8438  0.7086
16667SOL    HW152008   4.003   5.307   8.908 -0.7949 -2.3364 -1.5845
16667SOL    HW252009   4.074   5.316   8.775  2.9118 -1.8575  0.2833
16668SOL     OW52010   7.890   0.542   4.258 -0.4763  0.0668  0.0212
16668SOL    HW152011   7.858   0.606   4.194 -2.2301  0.1459  0.9254
16668SOL    HW252012   7.848   0.460   4.233 -0.4369 -0.1072  0.5234
16669SOL     OW52013   6.036   5.466   5.743  0.2643  0.1566 -0.2168
16669SOL    HW152014   6.085   5.526   5.687  1.1791  0.7618  1.1768
16669SOL    HW252015   6.006   5.520   5.816  0.1255 -0.8388  0.4841
16670SOL     OW52016  10.338   1.635   3.956 -0.7227  0.3257 -0.3630
16670SOL    HW152017  10.250   1.671   3.970 -1.6825 -2.2799  0.9377
16670SOL    HW252018  10.361   1.663   3.868 -1.8264  3.0044  0.0894
16671SOL     OW52019   0.708   1.041   8.864 -0.1933 -0.1180  0.5667
16671SOL    HW152020   0.788   1.087   8.891 -1.0072  0.7628  1.5727
16671SOL    HW252021   0.637   1.102   8.885 -1.1555 -0.9890 -0.0614
16672SOL     OW52022   6.018   1.855   2.665 -0.3550  0.3431  0.5100
16672SOL    HW152023   6.057   1.930   2.620  1.0035  1.3046  3.0610
16672SOL    HW252024   6.092   1.795   2.677 -0.7059  0.0821  1.3688
16673SOL     OW52025   3.955   0.539   0.259  0.2504  0.1540 -0.1410
16673SOL    HW152026   3.976   0.630   0.238 -1.4004 -0.0426 -3.2326
16673SOL    HW252027   3.935   0.540   0.352  0.3311  2.9475 -0.0614
16674SOL     OW52028   9.520  10.075   8.619  0.3860 -0.5784  0.3186
16674SOL    HW152029   9.508  10.021   8.541  1.1066 -1.5564  0.8661
16674SOL    HW252030   9.480  10.159   8.596 -0.0148 -1.0675 -0.8503
16675SOL     OW52031  10.901   5.923  10.140  0.4930  0.2239  0.5770
16675SOL    HW152032  10.853   5.954  10.063  2.1922  0.5608 -0.3798
16675SOL    HW252033  10.959   5.854  10.106  1.7188  0.8081  1.4278
16676SOL     OW52034   3.016   9.265   4.239  0.2575  0.6068  0.5321
16676SOL    HW152035   3.018   9.234   4.149 -0.2403  1.5235  0.1922
16676SOL    HW252036   2.976   9.193   4.288  2.8140 -0.9676  0.5076
16677SOL     OW52037   6.067   5.752   5.630 -0.1201 -0.4353  0.1630
16677SOL    HW152038   5.988   5.728   5.680 -0.8369 -0.0226 -0.7470
16677SOL    HW252039   6.123   5.796   5.694 -0.4167 -1.1477  0.9400
16678SOL     OW52040   2.790  10.212   7.285 -0.8480  0.5296 -0.2594
16678SOL    HW152041   2.863  10.244   7.233 -0.9518 -0.2397 -0.8930
16678SOL    HW252042   2.818  10.125   7.314 -1.3683  0.3806 -0.2030
16679SOL     OW52043   3.983   7.213   4.301 -0.4715  0.5629 -0.2952
16679SOL    HW152044   3.984   7.157   4.223 -0.7404 -0.8327  0.6687
16679SOL    HW252045   3.959   7.154   4.372 -0.2680  1.8211  0.8472
16680SOL     OW52046   3.321  10.095   3.767 -0.3787  0.0968  0.2865
16680SOL    HW152047   3.303  10.039   3.691 -2.7323  1.6577 -0.4090
16680SOL    HW252048   3.338  10.181   3.730 -0.6468  0.6770  1.4701
16681SOL     OW52049   7.857   2.276   9.060  0.0725  0.1454 -0.4219
16681SOL    HW152050   7.821   2.363   9.044 -0.0600  0.4150  1.1746
16681SOL    HW252051   7.814   2.220   8.996 -0.3881  1.1183 -0.9854
16682SOL     OW52052   8.108   2.573  10.861 -0.1583  0.0660  0.7340
16682SOL    HW152053   8.137   2.560  10.952  0.6206 -0.0661  0.4705
16682SOL    HW252054   8.143   2.659  10.837  1.1984 -0.6764 -0.0342
16683SOL     OW52055  10.731   2.819   2.661  0.3424  0.1540  0.3809
16683SOL    HW152056  10.790   2.749   2.687 -1.7605 -1.7270  0.3835
16683SOL    HW252057  10.714   2.868   2.742 -1.1877 -1.7835  1.3140
16684SOL     OW52058   2.268   5.226   9.534 -0.5388  0.0509  0.6068
16684SOL    HW152059   2.233   5.306   9.494 -1.0061 -0.4935 -0.0875
16684SOL    HW252060   2.273   5.164   9.462  2.0020  0.1278  0.6051
16685SOL     OW52061   6.806   2.744  10.095  0.6101  0.4937 -0.0027
16685SOL    HW152062   6.774   2.769  10.008  2.3823 -0.9420 -1.1464
16685SOL    HW252063   6.734   2.695  10.134 -0.4904  1.7977 -0.3285
16686SOL     OW52064   2.205   1.773   7.770  0.3474  0.2716 -0.2945
16686SOL    HW152065   2.262   1.759   7.845 -0.2633 -0.0478  0.1191
16686SOL    HW252066   2.257   1.827   7.709 -0.0655  2.8487  1.4753
16687SOL     OW52067   2.486   8.720   3.421  0.0251 -0.1243 -0.2421
16687SOL    HW152068   2.564   8.775   3.415  0.3880 -0.5673  0.3669
16687SOL    HW252069   2.503   8.661   3.494 -0.7731 -0.3991 -0.2664
16688SOL     OW52070   5.662   0.473   1.182 -0.4663 -0.0274  0.3080
16688SOL    HW152071   5.753   0.452   1.199 -0.8227 -2.0319 -0.0542
16688SOL    HW252072   5.632   0.517   1.261  0.2775 -1.1817  1.2573
16689SOL     OW52073  10.927   2.308   7.729  0.5490  0.5415 -0.1918
16689SOL    HW152074  10.992   2.269   7.788  0.4074  0.7415  0.0980
16689SOL    HW252075  10.960   2.289   7.641 -0.9858 -2.8930 -0.1822
16690SOL     OW52076   3.590   1.730   9.982  0.2004 -0.0761  0.5999
16690SOL    HW152077   3.495   1.718   9.981  0.2427 -1.2981 -2.5485
16690SOL    HW252078   3.605   1.812   9.934  0.7243 -1.6838 -2.2105
16691SOL     OW52079   7.415   2.365   6.870 -0.8176  0.3615 -0.0436
16691SOL    HW152080   7.335   2.370   6.817  0.5406  0.1114 -2.2581
16691SOL    HW252081   7.468   2.438   6.839  0.5888 -0.6200 -0.0105
16692SOL     OW52082  11.000   5.909   4.571 -0.2622  0.3121  0.3008
16692SOL    HW152083  10.942   5.985   4.564 -0.3350  0.6331  3.1805
16692SOL    HW252084  10.940   5.834   4.580 -0.3735  0.6168  3.0212
16693SOL     OW52085   6.418   8.069   7.999 -0.7308  0.2300  0.0341
16693SOL    HW152086   6.413   8.082   7.904 -2.0700 -0.1215  0.0342
16693SOL    HW252087   6.329   8.088   8.029 -0.2479  0.6104  1.2617
16694SOL     OW52088   4.025   1.223   8.732 -0.3830  0.5133  0.1081
16694SOL    HW152089   3.991   1.310   8.711  0.2504  0.4180 -1.4492
16694SOL    HW252090   4.094   1.239   8.797 -0.4576  1.1356  0.0394
16695SOL     OW52091   0.831   9.597   9.293  0.0656  0.0462 -0.2486
16695SOL    HW152092   0.739   9.616   9.313  0.2811  0.0791  0.7685
16695SOL    HW252093   0.837   9.502   9.294  0.3034  0.0586  1.0055
16696SOL     OW52094   4.887   4.684  10.321  0.0548  0.1416  0.1848
16696SOL    HW152095   4.906   4.623  10.250 -0.8534  0.0329  0.0196
16696SOL    HW252096   4.796   4.710  10.306 -0.4013 -0.4582  1.7259
16697SOL     OW52097   4.589   2.326   7.198 -0.8814 -0.4529 -0.1666
16697SOL    HW152098   4.588   2.415   7.233 -0.5737 -1.8457  4.0218
16697SOL    HW252099   4.680   2.310   7.174 -1.3832  1.0995 -3.7714
16698SOL     OW52100   5.508   4.248  10.180  0.6320 -0.3348 -0.0449
16698SOL    HW152101   5.464   4.332  10.197  0.8479 -0.2017 -0.1369
16698SOL    HW252102   5.438   4.189  10.156  0.0436 -0.9639  2.7901
16699SOL     OW52103   5.441   2.685   8.039  0.0107  0.1331  0.8703
16699SOL    HW152104   5.362   2.693   8.094 -0.0254  0.4110  0.7827
16699SOL    HW252105   5.506   2.646   8.097 -0.4679 -0.9949  0.6608
16700SOL     OW52106   3.970   0.109   2.783 -0.1293 -0.0029  0.2952
16700SOL    HW152107   3.968   0.192   2.831  1.4453 -0.2801  0.9106
16700SOL    HW252108   3.924   0.047   2.839 -0.5240  0.2430  0.2481
16701SOL     OW52109   3.997   3.461   4.605  0.4146  0.0382 -0.0296
16701SOL    HW152110   4.013   3.556   4.598  0.1227  0.1928  1.1725
16701SOL    HW252111   3.904   3.452   4.587  0.5292 -0.0776 -0.5738
16702SOL     OW52112   2.738   6.685   2.522 -0.0637  0.2683 -0.5066
16702SOL    HW152113   2.648   6.698   2.554  0.1286 -0.5008  0.3935
16702SOL    HW252114   2.772   6.773   2.509 -1.1618  0.5683 -1.4901
16703SOL     OW52115   2.380  10.692   7.530  0.3736 -0.5017  0.7295
16703SOL    HW152116   2.303  10.636   7.524 -0.7997  0.9643  1.3739
16703SOL    HW252117   2.432  10.656   7.601 -0.8510 -0.2404  1.7900
16704SOL     OW52118  10.081   5.590   0.128  0.2571 -0.1265  0.7958
16704SOL    HW152119  10.174   5.602   0.112 -0.0106  3.4188  1.0174
16704SOL    HW252120  10.074   5.504   0.168  2.9743 -1.8810 -2.0770
16705SOL     OW52121   3.666   8.391   3.112 -0.1347  0.1913 -0.1363
16705SOL    HW152122   3.739   8.410   3.054 -1.1075 -0.3391 -1.5918
16705SOL    HW252123   3.619   8.474   3.119 -0.1357  0.2028 -0.2811
16706SOL     OW52124   7.691   4.558   9.017 -0.4150 -0.2531  0.8027
16706SOL    HW152125   7.622   4.519   8.963  1.2612 -1.7901 -0.3327
16706SOL    HW252126   7.735   4.620   8.959 -0.3461  0.1651  1.2947
16707SOL     OW52127   5.737  10.929   3.757  0.1859  0.1868 -0.1588
16707SOL    HW152128   5.729  10.972   3.842 -1.3756 -0.9492  0.3198
16707SOL    HW252129   5.819  10.879   3.762 -0.0280 -0.0789  0.7991
16708SOL     OW52130   0.215   3.450   8.488  0.4222  0.6012 -0.1191
16708SOL    HW152131   0.282   3.386   8.513 -0.1104  0.3719  0.7465
16708SOL    HW252132   0.233   3.525   8.544 -0.2363  0.4185  0.3433
16709SOL     OW52133   0.547   1.903   5.155  0.6815 -0.0714 -0.1151
16709SOL    HW152134   0.594   1.920   5.237 -1.3733  0.1811  1.1025
16709SOL    HW252135   0.494   1.826   5.174 -1.4489  1.2363 -0.4202
16710SOL     OW52136   2.071   3.248  10.636 -0.2000  0.6434 -0.0204
16710SOL    HW152137   2.017   3.186  10.684 -0.9366  0.1973 -1.3835
16710SOL    HW252138   2.025   3.331  10.644 -2.0836 -0.0386 -2.5407
16711SOL     OW52139   7.573   7.581   6.316  0.2252  0.1723  0.1170
16711SOL    HW152140   7.509   7.580   6.388  0.3750 -0.2770  0.2451
16711SOL    HW252141   7.535   7.522   6.250  0.9692 -0.8853  0.6033
16712SOL     OW52142   1.872   0.429   0.237 -0.1339 -0.4890 -0.0267
16712SOL    HW152143   1.950   0.442   0.182 -0.1979  0.3742  0.0786
16712SOL    HW252144   1.878   0.338   0.264  0.5751 -0.5773 -0.4386
16713SOL     OW52145   2.556   5.037   8.153 -0.2205 -0.2613  0.4285
16713SOL    HW152146   2.491   5.030   8.083 -1.1456  0.5553  1.1710
16713SOL    HW252147   2.534   5.120   8.196  1.3077  0.0105  0.7161
16714SOL     OW52148   0.936   1.901   8.809  0.1721  0.2783  0.3309
16714SOL    HW152149   1.026   1.904   8.843  0.5538 -0.8447 -0.5361
16714SOL    HW252150   0.892   1.837   8.866  0.5374 -0.8361 -0.6070
16715SOL     OW52151   8.402   6.731  10.348 -0.6919  0.4419  0.1683
16715SOL    HW152152   8.390   6.672  10.423 -0.5548  0.5859  0.3051
16715SOL    HW252153   8.357   6.688  10.276 -0.8734  0.3283  0.3483
16716SOL     OW52154   1.121   5.674  10.010  0.2063  0.1720  0.9283
16716SOL    HW152155   1.090   5.711  10.092 -0.0191  0.6325  0.6370
16716SOL    HW252156   1.178   5.602  10.036 -0.9399 -0.5674  1.4894
16717SOL     OW52157   7.986   5.694   6.086  0.1194  0.3254  0.0515
16717SOL    HW152158   7.939   5.765   6.042  1.1705  0.8214 -0.2897
16717SOL    HW252159   7.922   5.623   6.091 -0.6892  1.0085 -0.3324
16718SOL     OW52160   1.715   3.381   7.564  0.1404  0.7348 -1.0809
16718SOL    HW152161   1.762   3.383   7.480 -0.5668  4.5754 -1.5421
16718SOL    HW252162   1.628   3.348   7.542  0.3261  0.5960 -1.6224
16719SOL     OW52163   2.488   5.986   9.684 -0.1059 -0.5127  0.0149
16719SOL    HW152164   2.549   5.945   9.623  0.1603  0.5478 -0.4476
16719SOL    HW252165   2.519   5.959   9.771  0.8811 -0.1646 -0.2227
16720SOL     OW52166   4.753   0.923   4.855 -0.5072 -0.3567 -0.4455
16720SOL    HW152167   4.686   0.922   4.924 -0.5867  1.9439 -0.4078
16720SOL    HW252168   4.822   0.866   4.888 -1.2132 -0.5165  0.8466
16721SOL     OW52169   7.146   1.866   3.974 -0.0067 -0.3193  0.5548
16721SOL    HW152170   7.088   1.862   4.051  0.2359  1.4036  0.8602
16721SOL    HW252171   7.215   1.928   3.999 -0.1050  0.5437 -1.1733
16722SOL     OW52172   2.049   4.574   7.214 -0.4513 -0.5612  0.0158
16722SOL    HW152173   2.142   4.576   7.238 -0.4123  2.6167 -0.0716
16722SOL    HW252174   2.049   4.576   7.119 -0.6582 -1.6639 -0.0234
16723SOL     OW52175   0.942   6.368   5.288 -0.1044 -0.3548 -0.1030
16723SOL    HW152176   0.978   6.409   5.367  1.2726  0.2273 -0.9855
16723SOL    HW252177   0.960   6.275   5.299 -2.4892 -0.7190  1.5272
16724SOL     OW52178   6.465  10.851   6.285 -0.1396 -0.5728  0.4875
16724SOL    HW152179   6.526  10.876   6.216 -0.1461  0.4408  0.8379
16724SOL    HW252180   6.506  10.881   6.366 -1.1235  0.1961  0.7263
16725SOL     OW52181   2.972   5.908   7.287  0.2100 -0.4752 -0.3533
16725SOL    HW152182   3.045   5.915   7.225  1.0986 -0.4991  0.6636
16725SOL    HW252183   2.894   5.920   7.233  0.9743 -0.0717 -1.4084
16726SOL     OW52184   4.747   2.003   6.529  0.4707  0.3234 -0.0162
16726SOL    HW152185   4.713   2.076   6.579 -0.8367 -0.2226 -0.0593
16726SOL    HW252186   4.720   1.925   6.578  1.0075 -0.1594 -0.4671
16727SOL     OW52187   3.959   3.158  10.162 -0.0388 -0.5380 -0.0675
16727SOL    HW152188   3.899   3.232  10.149 -1.4617 -1.8742 -1.5891
16727SOL    HW252189   3.980   3.160  10.255  2.0237  3.2455 -0.4036
16728SOL     OW52190   3.875   9.819   5.825 -0.3860 -0.1932  0.5096
16728SOL    HW152191   3.934   9.746   5.844 -0.2817  0.0332  1.0938
16728SOL    HW252192   3.933   9.890   5.797 -0.3964 -0.0412  0.8663
16729SOL     OW52193   1.403   4.770   9.731  0.0057  0.2970  0.4964
16729SOL    HW152194   1.483   4.732   9.766  0.1906  0.3149  0.1018
16729SOL    HW252195   1.343   4.775   9.806  0.9533  1.8944  1.1880
16730SOL     OW52196   8.898   6.434   4.327 -0.4141  0.5146  0.1339
16730SOL    HW152197   8.861   6.358   4.371 -0.0095 -0.6247 -1.4019
16730SOL    HW252198   8.901   6.409   4.235  0.4812  2.0982 -0.3018
16731SOL     OW52199  10.356   2.595   9.297  0.1390 -0.2711 -0.4963
16731SOL    HW152200  10.381   2.569   9.209  0.5503 -0.5723 -0.2867
16731SOL    HW252201  10.365   2.691   9.297  2.2613 -0.4429 -0.1222
16732SOL     OW52202   5.340   8.312   8.128 -0.1375 -0.3875  0.1573
16732SOL    HW152203   5.433   8.297   8.110 -0.3157 -1.2372 -0.0910
16732SOL    HW252204   5.308   8.228   8.161 -1.2067 -0.6135 -1.3849
16733SOL     OW52205   5.748   0.965   6.301 -0.1431 -0.4116 -0.3070
16733SOL    HW152206   5.828   0.986   6.349  0.5252 -2.4904 -0.4401
16733SOL    HW252207   5.762   1.003   6.214  0.4604 -0.2859 -0.1605
16734SOL     OW52208   2.915   1.697   7.558  0.3348  0.2417 -0.0834
16734SOL    HW152209   2.904   1.729   7.468  1.7605 -2.2017 -1.2230
16734SOL    HW252210   2.854   1.624   7.565 -4.0515  3.6524  2.9893
16735SOL     OW52211   7.231   5.216   9.961  0.6256 -0.0241 -0.1632
16735SOL    HW152212   7.200   5.125   9.959  2.4056 -0.6964  0.8162
16735SOL    HW252213   7.242   5.239   9.868 -1.3007 -0.2493 -0.4840
16736SOL     OW52214   3.920   0.118   5.422 -0.2723 -0.6511  0.0822
16736SOL    HW152215   3.908   0.180   5.494 -0.2843 -0.8316  0.2357
16736SOL    HW252216   3.844   0.060   5.427 -0.0803 -0.8967  0.1564
16737SOL     OW52217   2.661   9.210   2.589  0.3431  0.4168 -0.2956
16737SOL    HW152218   2.603   9.144   2.627 -1.7431  2.0107 -0.5587
16737SOL    HW252219   2.747   9.190   2.625 -0.0184 -2.8723 -0.9188
16738SOL     OW52220   2.895   7.806   1.291 -0.1177 -0.4251 -0.7293
16738SOL    HW152221   2.940   7.721   1.284 -0.2944 -0.6563  0.6545
16738SOL    HW252222   2.960   7.863   1.332 -0.0600  0.0805 -1.5070
16739SOL     OW52223   8.131   0.173   4.434 -0.1216 -0.0315  0.6356
16739SOL    HW152224   8.221   0.165   4.402 -0.9297 -0.2494 -1.7183
16739SOL    HW252225   8.105   0.262   4.410 -1.5139 -0.9547 -1.5163
16740SOL     OW52226   1.203   4.872   5.993  0.5497  0.4474 -0.4116
16740SOL    HW152227   1.239   4.932   6.058 -0.5209 -0.6668  1.2789
16740SOL    HW252228   1.211   4.786   6.033 -2.9446  0.0162 -0.3793
16741SOL     OW52229   9.712   2.753   7.269  0.0456 -0.0133  0.4065
16741SOL    HW152230   9.765   2.680   7.298  0.6289 -0.0672 -0.7333
16741SOL    HW252231   9.693   2.802   7.348 -0.4626 -1.4537  1.2042
16742SOL     OW52232   1.560   6.604   9.028  0.6505 -0.0768  0.2572
16742SOL    HW152233   1.602   6.631   9.109  0.9695 -2.2722  0.8606
16742SOL    HW252234   1.605   6.525   9.001 -0.6371 -0.4086 -1.1069
16743SOL     OW52235   2.011   5.757   7.987 -0.1911  0.2503  0.3265
16743SOL    HW152236   2.054   5.691   8.042 -0.3496  0.6007  0.8834
16743SOL    HW252237   1.990   5.828   8.048  2.3145  2.0060 -0.7145
16744SOL     OW52238   7.184   0.262   1.219 -0.5595 -0.1824 -0.0961
16744SOL    HW152239   7.106   0.289   1.268 -0.4727 -0.6527  0.2983
16744SOL    HW252240   7.249   0.330   1.237  0.0204 -1.1817  1.7773
16745SOL     OW52241   7.576  10.616   5.057  0.0787 -0.2444 -0.3656
16745SOL    HW152242   7.607  10.549   5.117 -0.6976  0.5451  0.9470
16745SOL    HW252243   7.520  10.568   4.995  1.4233 -1.1660 -0.9063
16746SOL     OW52244   2.725   2.752   7.952  0.0326 -0.4240  0.3821
16746SOL    HW152245   2.710   2.824   7.891 -1.0902 -0.6456  0.3560
16746SOL    HW252246   2.816   2.726   7.938  0.3600  0.7909  0.1924
16747SOL     OW52247   0.999   4.126   7.399  0.0549 -0.0898  0.0876
16747SOL    HW152248   1.073   4.183   7.420 -1.4661  1.2662  2.3856
16747SOL    HW252249   1.027   4.077   7.323  2.9929  0.9124  0.3706
16748SOL     OW52250   4.394   2.946   4.329  0.1452 -0.2834 -0.4930
16748SOL    HW152251   4.373   2.983   4.243 -0.1076 -0.3439 -0.4577
16748SOL    HW252252   4.451   2.872   4.310 -0.0246 -0.3817 -0.6162
16749SOL     OW52253   9.085   0.617  10.098  0.1259 -0.0519 -0.1201
16749SOL    HW152254   9.048   0.602  10.010  0.8561 -0.7727 -0.3150
16749SOL    HW252255   9.134   0.698  10.089 -1.8608  1.2817  0.3039
16750SOL     OW52256   6.478   7.516   5.680  0.3447 -0.1354  0.0801
16750SOL    HW152257   6.531   7.471   5.746 -0.8849  0.7005  1.7143
16750SOL    HW252258   6.438   7.445   5.630 -0.4897 -0.9080  1.7269
16751SOL     OW52259   9.073   9.257   6.967 -0.4828 -0.6265 -0.2935
16751SOL    HW152260   9.065   9.349   6.991  1.3364 -0.5680  0.2316
16751SOL    HW252261   9.128   9.219   7.036 -0.4178 -1.8908 -1.0131
16752SOL     OW52262   9.304   3.864   7.803  0.4404 -0.7814  0.1734
16752SOL    HW152263   9.290   3.881   7.896 -1.4228  0.8497 -0.3359
16752SOL    HW252264   9.216   3.860   7.766  1.1440  0.7483 -1.8635
16753SOL     OW52265   2.511  10.285   1.702  0.1607  0.5740  0.4820
16753SOL    HW152266   2.553  10.279   1.788  0.6773  1.7330  0.3384
16753SOL    HW252267   2.553  10.217   1.650  1.8096  1.6068  0.3906
16754SOL     OW52268   2.086   5.100   5.990  0.3029 -0.3571 -0.5388
16754SOL    HW152269   2.061   5.160   6.059  1.2898 -0.0566 -0.4249
16754SOL    HW252270   2.008   5.093   5.934 -0.8341 -1.3283  1.0738
16755SOL     OW52271   6.204   4.770   5.496  0.4728 -0.2733  0.3927
16755SOL    HW152272   6.220   4.763   5.590  1.4842 -2.3094  0.1399
16755SOL    HW252273   6.292   4.767   5.457  0.1398  1.6225 -0.6012
16756SOL     OW52274   6.343   5.993   5.633  0.4381 -0.2359 -0.1067
16756SOL    HW152275   6.254   5.959   5.630  0.6307 -0.7763  0.1301
16756SOL    HW252276   6.398   5.922   5.599  0.9866 -0.7132  1.6573
16757SOL     OW52277   2.971   3.722   7.762 -0.4819  0.5857 -0.4298
16757SOL    HW152278   3.004   3.639   7.727 -0.3617  1.4360 -2.4712
16757SOL    HW252279   2.900   3.745   7.703 -0.4006  2.0208  0.0110
16758SOL     OW52280   7.744   4.268   7.478  0.6108  0.2938  0.5716
16758SOL    HW152281   7.707   4.355   7.462 -1.8705 -0.8382 -0.4215
16758SOL    HW252282   7.709   4.242   7.563 -0.9420 -0.7431 -0.3234
16759SOL     OW52283   9.215   4.736   7.216 -0.0488  0.4582  0.5024
16759SOL    HW152284   9.268   4.792   7.273  1.1141 -0.6875  0.6004
16759SOL    HW252285   9.278   4.676   7.176 -0.6584  1.8323 -2.8469
16760SOL     OW52286   9.969   5.113   7.504  0.0344 -0.2037 -0.5072
16760SOL    HW152287   9.942   5.203   7.525  0.9078  0.1572 -0.8660
16760SOL    HW252288  10.051   5.102   7.551 -0.1243 -0.8656 -0.3789
16761SOL     OW52289   4.587   0.587   5.173 -0.0720  0.1267 -0.5675
16761SOL    HW152290   4.505   0.616   5.214  0.2504  0.4329 -0.1202
16761SOL    HW252291   4.578   0.611   5.081  0.5952  2.6823 -0.0424
16762SOL     OW52292   8.628   0.402   9.787  0.9366  0.1622 -0.7364
16762SOL    HW152293   8.605   0.487   9.825  1.5802 -0.2001  0.5045
16762SOL    HW252294   8.549   0.376   9.738  0.1567  0.7521  0.1766
16763SOL     OW52295   1.934   1.705   9.802  0.0178  0.3696 -0.3670
16763SOL    HW152296   1.916   1.719   9.709  0.3138 -1.2644 -0.7017
16763SOL    HW252297   1.855   1.734   9.846 -1.6207 -2.1704 -1.4239
16764SOL     OW52298   4.451   1.530   4.377 -0.6198  0.3380 -0.0515
16764SOL    HW152299   4.497   1.614   4.386 -1.7504  0.8157  2.0275
16764SOL    HW252300   4.399   1.523   4.457  0.2688 -2.9019  0.3882
16765SOL     OW52301   2.671   1.914   8.654 -0.3695  0.5050 -0.0389
16765SOL    HW152302   2.693   1.971   8.580  0.1042  0.1857 -0.1425
16765SOL    HW252303   2.736   1.935   8.721  0.2488 -0.4296 -0.3424
16766SOL     OW52304   3.442   5.961   4.595  0.3457 -0.2032 -0.7701
16766SOL    HW152305   3.346   5.959   4.589  0.2595  1.0052 -0.0997
16766SOL    HW252306   3.471   5.934   4.508 -0.6350  1.0393 -1.5282
16767SOL     OW52307   2.845   2.196  10.250  0.1777 -0.1606 -0.0973
16767SOL    HW152308   2.798   2.279  10.249  0.8769  0.2379 -0.3193
16767SOL    HW252309   2.866   2.181  10.342  1.3087  0.6410 -0.2037
16768SOL     OW52310   3.874   5.426   1.505 -0.3329  0.5564 -0.2807
16768SOL    HW152311   3.926   5.367   1.559 -0.6572  0.0467 -0.5152
16768SOL    HW252312   3.797   5.445   1.558 -1.1972 -0.8336 -0.9680
16769SOL     OW52313   6.590   3.238   4.024 -0.3931 -0.1731  0.2017
16769SOL    HW152314   6.504   3.224   3.984 -0.5910  0.7856  0.2481
16769SOL    HW252315   6.626   3.151   4.036 -0.3583 -0.4961 -1.9724
16770SOL     OW52316   7.424   4.486  10.691  0.4250 -0.5401 -0.1268
16770SOL    HW152317   7.487   4.547  10.728 -0.4523  0.3393 -0.0221
16770SOL    HW252318   7.397   4.431  10.765 -1.0517  0.9770  0.5294
16771SOL     OW52319   9.764   3.068   8.097  0.2852  0.1908 -0.7899
16771SOL    HW152320   9.835   3.126   8.125 -0.4046  0.9186 -0.5077
16771SOL    HW252321   9.797   2.979   8.116  0.6061  0.5719  0.5706
16772SOL     OW52322   1.514   1.591   0.870  0.0970 -0.3362  0.5810
16772SOL    HW152323   1.580   1.541   0.821 -0.2589 -0.6755  0.4435
16772SOL    HW252324   1.550   1.597   0.959  1.6805  1.9512 -0.1142
16773SOL     OW52325   5.315   2.090   2.961  0.2161 -0.3901  0.4808
16773SOL    HW152326   5.257   2.157   2.924 -0.6629  0.7147  3.5338
16773SOL    HW252327   5.273   2.007   2.938 -2.6171  0.3619  2.3405
16774SOL     OW52328   5.526   2.649   6.212  0.4730  0.3791 -0.6398
16774SOL    HW152329   5.601   2.598   6.180 -0.1009  0.0217 -1.4486
16774SOL    HW252330   5.543   2.738   6.181  1.2610  0.6154  0.4076
16775SOL     OW52331   6.561   5.626   8.985  0.2912  0.0467 -0.0641
16775SOL    HW152332   6.555   5.718   8.958  1.3965 -0.3015 -1.6278
16775SOL    HW252333   6.476   5.589   8.962  0.0830  0.5255 -0.0729
16776SOL     OW52334   0.135   2.024   7.090 -0.1299  0.4790 -0.0624
16776SOL    HW152335   0.134   2.113   7.055  0.6700  0.7065  0.4624
16776SOL    HW252336   0.087   1.972   7.025 -0.2587  1.2168 -0.5702
16777SOL     OW52337   3.584   0.394   6.244  0.0584  0.4119  0.1015
16777SOL    HW152338   3.545   0.313   6.278 -0.0923  0.9765  1.3372
16777SOL    HW252339   3.675   0.389   6.271 -0.0970  0.9396  0.7392
16778SOL     OW52340   8.176   2.174   5.449 -0.3239  0.4081  0.1955
16778SOL    HW152341   8.124   2.176   5.530 -1.8384  0.5468 -0.7357
16778SOL    HW252342   8.113   2.146   5.382  1.3623 -1.6552 -0.6157
16779SOL     OW52343   1.242   1.415   0.153 -0.1827 -0.1690  0.0441
16779SOL    HW152344   1.265   1.420   0.061 -0.0888  1.2597  0.1225
16779SOL    HW252345   1.157   1.372   0.155 -0.6897  0.7625 -0.8011
16780SOL     OW52346   6.767   9.159  10.927 -0.2142  0.4843  0.8008
16780SOL    HW152347   6.732   9.206  11.002  0.0192  0.6231  0.8260
16780SOL    HW252348   6.733   9.206  10.851  0.7521  1.2721  0.8250
16781SOL     OW52349  11.016   4.662   3.668 -0.1858 -0.1730 -0.0025
16781SOL    HW152350  10.963   4.660   3.588  0.7097 -0.9037 -0.5934
16781SOL    HW252351  11.107   4.662   3.637  0.1798  0.8167  1.0007
16782SOL     OW52352   9.702   3.445   8.996 -0.2506  0.6242 -0.1194
16782SOL    HW152353   9.728   3.512   9.060 -0.1155  0.3955  0.0638
16782SOL    HW252354   9.609   3.463   8.981  0.0229  1.5130 -0.8601
16783SOL     OW52355   6.983   6.428  10.167 -0.0880  0.3956  0.6029
16783SOL    HW152356   6.938   6.444  10.084 -0.3681  0.2619  0.7287
16783SOL    HW252357   7.010   6.337  10.162 -0.0503  0.4054  0.6327
16784SOL     OW52358   9.464   5.520   8.134  0.3136 -0.2894 -0.0230
16784SOL    HW152359   9.382   5.554   8.097 -0.2093 -1.2240  0.2402
16784SOL    HW252360   9.527   5.591   8.120 -0.2408 -0.0020 -1.2978
16785SOL     OW52361   4.014   0.612  10.451 -0.3741  0.1052  0.4866
16785SOL    HW152362   3.940   0.670  10.437 -0.7429 -0.2424  0.9496
16785SOL    HW252363   4.012   0.593  10.545 -1.5475 -2.3039  0.0778
16786SOL     OW52364   6.214   4.480   8.179  0.0204 -0.4122  0.0358
16786SOL    HW152365   6.260   4.549   8.131  0.6504 -0.0511  1.1143
16786SOL    HW252366   6.164   4.527   8.246 -1.1437 -0.8758 -0.4805
16787SOL     OW52367   0.370   4.188   1.212 -0.3224  0.3494  0.0760
16787SOL    HW152368   0.380   4.155   1.301 -1.1393 -0.8232 -0.2573
16787SOL    HW252369   0.439   4.144   1.162  0.8882  1.8592  0.3092
16788SOL     OW52370   3.600   8.395   7.895 -0.2225  0.2464 -0.2065
16788SOL    HW152371   3.652   8.447   7.955 -2.4351 -0.1817  2.2675
16788SOL    HW252372   3.633   8.306   7.906 -0.9445  0.0904  0.8043
16789SOL     OW52373   1.791   1.579   0.039  0.0127 -0.5154 -0.3355
16789SOL    HW152374   1.845   1.561  -0.037  2.5796  3.0996  0.3995
16789SOL    HW252375   1.752   1.665   0.022  0.7131  0.4384  2.3617
16790SOL     OW52376   4.182   3.236   3.586  0.1032 -0.4266  0.1814
16790SOL    HW152377   4.257   3.278   3.627 -0.4327  0.3767  0.3757
16790SOL    HW252378   4.185   3.263   3.495  0.0914 -0.4528  0.1730
16791SOL     OW52379   8.129   8.608   4.541  0.4292 -0.2783  0.7482
16791SOL    HW152380   8.064   8.581   4.606  0.3630 -0.4217  0.6246
16791SOL    HW252381   8.082   8.608   4.458 -0.0900  2.1385  0.9896
16792SOL     OW52382   3.292   7.169   2.857 -0.1986  0.4173  0.6557
16792SOL    HW152383   3.248   7.179   2.941 -0.7731 -1.3423  0.6117
16792SOL    HW252384   3.285   7.075   2.838 -2.0947  1.0655 -2.4179
16793SOL     OW52385   0.775   1.951   8.137 -1.3354 -0.0674  0.0306
16793SOL    HW152386   0.754   2.045   8.133  1.7843  0.8143  1.3518
16793SOL    HW252387   0.809   1.930   8.050 -0.6292  0.4560  0.1694
16794SOL     OW52388   9.437   3.554  11.061 -0.1908  0.2214  0.0985
16794SOL    HW152389   9.419   3.524  10.972  0.6119  0.3195 -0.1062
16794SOL    HW252390   9.393   3.490  11.117 -0.3247 -0.0986 -0.3646
16795SOL     OW52391   4.885   1.341   5.205  0.0017 -0.3081  0.2301
16795SOL    HW152392   4.942   1.354   5.281 -1.1938 -0.3379  1.1645
16795SOL    HW252393   4.941   1.298   5.140  1.4436  1.0373  0.5316
16796SOL     OW52394  10.537   8.891   3.092  0.0825  0.5858 -0.0564
16796SOL    HW152395  10.512   8.977   3.058  0.0335  1.3944  1.8814
16796SOL    HW252396  10.530   8.832   3.017  2.0647  2.5872 -1.9328
16797SOL     OW52397   6.348  10.227   5.661 -0.1237 -0.1364  0.4160
16797SOL    HW152398   6.429  10.227   5.712  0.6448 -1.3456 -0.7491
16797SOL    HW252399   6.306  10.144   5.683 -0.7732  0.2242  0.5652
16798SOL     OW52400   1.432   0.416   6.923  0.2460  0.7572  0.3106
16798SOL    HW152401   1.393   0.369   6.997 -0.7412 -3.0290 -2.3329
16798SOL    HW252402   1.524   0.426   6.946  0.0216 -0.5332  1.9344
16799SOL     OW52403   8.325   5.473   5.906 -0.0738 -0.2095 -0.2594
16799SOL    HW152404   8.313   5.379   5.891  0.2803 -0.1428 -1.0281
16799SOL    HW252405   8.378   5.478   5.986  0.9740 -0.7126 -0.9022
16800SOL     OW52406   8.829   3.562   6.602  0.0533 -0.1904  0.2915
16800SOL    HW152407   8.805   3.471   6.619 -0.1723  0.2085  2.2699
16800SOL    HW252408   8.745   3.608   6.593  0.1654 -0.1366 -0.5845
16801SOL     OW52409   7.074   1.699   0.203  0.5683 -0.5199 -0.5589
16801SOL    HW152410   7.023   1.679   0.281 -0.0809 -0.6753 -1.0115
16801SOL    HW252411   7.024   1.768   0.159  0.9682 -0.3795 -0.7932
16802SOL     OW52412  10.870   8.205   3.067 -1.0383  0.4323  0.4507
16802SOL    HW152413  10.829   8.177   2.986 -0.6073  2.1376 -0.3995
16802SOL    HW252414  10.799   8.242   3.119 -1.3766 -0.9593  1.0407
16803SOL     OW52415   7.442   2.731   9.403  0.0225 -0.2485  0.3816
16803SOL    HW152416   7.369   2.792   9.385  0.5170  0.7041  1.4982
16803SOL    HW252417   7.424   2.656   9.346  0.6033  1.8487 -2.8669
16804SOL     OW52418   9.990   2.378   6.237  0.4301 -0.1345  0.2149
16804SOL    HW152419  10.064   2.401   6.181  0.4205  0.5140  0.4591
16804SOL    HW252420   9.959   2.462   6.272  1.4700 -0.6131  2.5114
16805SOL     OW52421   4.343   5.624   7.870 -0.1787 -0.3198  0.1662
16805SOL    HW152422   4.374   5.702   7.917  0.1888 -0.2618 -0.1656
16805SOL    HW252423   4.259   5.602   7.911  0.1289 -0.2572  0.8347
16806SOL     OW52424   2.446  10.628   0.376  0.5200 -0.4879  0.7396
16806SOL    HW152425   2.394  10.674   0.311  0.8285 -0.8703  0.2096
16806SOL    HW252426   2.386  10.613   0.449  0.9004  2.3598  1.7315
16807SOL     OW52427   3.499  10.882   7.816 -0.3678  0.0412  0.6533
16807SOL    HW152428   3.505  10.965   7.862 -0.8243 -0.3155  1.3678
16807SOL    HW252429   3.589  10.862   7.790 -0.3945  1.2681 -0.4725
16808SOL     OW52430   3.080   6.682   7.274 -0.0517 -0.0460 -0.1472
16808SOL    HW152431   3.015   6.650   7.211 -0.5124 -1.3339  0.9357
16808SOL    HW252432   3.145   6.612   7.280  0.0419  0.1026  0.7204
16809SOL     OW52433   8.225  10.713  10.883 -0.2297  0.0640 -0.1362
16809SOL    HW152434   8.252  10.790  10.833 -0.6743 -0.1688 -0.7541
16809SOL    HW252435   8.307  10.669  10.905 -0.0408 -0.2994 -1.4437
16810SOL     OW52436   5.391   6.099   1.600 -0.1427 -0.2296 -0.8261
16810SOL    HW152437   5.346   6.115   1.683 -0.9079  0.4200 -1.3544
16810SOL    HW252438   5.321   6.075   1.539  0.4693 -1.2087 -1.1751
16811SOL     OW52439   5.876  10.905   6.327  0.2065 -0.5912 -0.1071
16811SOL    HW152440   5.912  10.901   6.239 -0.3182 -3.2622 -0.2601
16811SOL    HW252441   5.951  10.890   6.385  0.0439 -2.2480 -0.2776
16812SOL     OW52442   2.799   4.491   3.474 -0.0860  0.3405 -0.3222
16812SOL    HW152443   2.837   4.567   3.518 -0.2064  0.0968  0.2175
16812SOL    HW252444   2.707   4.491   3.501  0.4005 -1.2957  1.5886
16813SOL     OW52445   7.115   6.037   2.532  0.3832 -0.0807 -1.2578
16813SOL    HW152446   7.077   6.030   2.445 -0.5142  0.7170 -0.9528
16813SOL    HW252447   7.141   6.129   2.539  0.8999 -0.2520 -0.8663
16814SOL     OW52448   7.150   2.711   3.334  0.0056  0.1156 -0.3854
16814SOL    HW152449   7.194   2.796   3.327  1.8993 -0.6820  0.8565
16814SOL    HW252450   7.167   2.668   3.250 -1.5902  1.1698 -1.3136
16815SOL     OW52451   6.836   6.192  10.899 -0.0613  0.2635  0.3715
16815SOL    HW152452   6.864   6.282  10.887  0.2045  0.1366  0.0443
16815SOL    HW252453   6.855   6.149  10.816  1.3665 -0.5029  1.0629
16816SOL     OW52454   4.403   4.351   6.835  0.1361 -0.1904  0.0059
16816SOL    HW152455   4.381   4.317   6.749 -0.1287 -0.5302  0.2074
16816SOL    HW252456   4.498   4.338   6.842  0.0884 -0.5817 -0.0508
16817SOL     OW52457  10.276   4.392   9.584 -0.2925  0.1601 -0.0556
16817SOL    HW152458  10.228   4.336   9.523 -0.4073 -0.2315  0.3866
16817SOL    HW252459  10.228   4.385   9.667 -0.5473  1.2379 -0.0940
16818SOL     OW52460   7.543   1.655   8.087  0.2032 -0.1282  0.2872
16818SOL    HW152461   7.631   1.617   8.082  0.0599 -0.4803  0.4451
16818SOL    HW252462   7.523   1.657   8.181 -0.1254 -0.4375  0.2252
16819SOL     OW52463   5.635   5.603   2.106 -0.1167  0.2503  0.0055
16819SOL    HW152464   5.723   5.638   2.122 -1.2860  2.2400  2.7694
16819SOL    HW252465   5.641   5.511   2.132  0.9025  0.6427  1.2537
16820SOL     OW52466   6.953   1.224   4.261 -0.1923 -0.7196 -0.0882
16820SOL    HW152467   6.994   1.249   4.344 -1.5108 -0.9639  0.6792
16820SOL    HW252468   6.936   1.130   4.271 -1.1031 -0.5840 -0.2805
16821SOL     OW52469  10.080   4.663   9.176 -0.6833 -0.1588 -0.2002
16821SOL    HW152470  10.129   4.727   9.228  1.6984 -1.3532 -0.8401
16821SOL    HW252471   9.998   4.707   9.154 -0.1145  1.7765  1.3137
16822SOL     OW52472   6.120   2.917   7.812 -0.1165  0.4521  0.1472
16822SOL    HW152473   6.177   2.984   7.849  0.4495 -0.2299  0.5372
16822SOL    HW252474   6.050   2.966   7.769  0.7463  1.3041 -0.3152
16823SOL     OW52475   2.315   8.622   9.642 -0.2983  0.0715 -0.1973
16823SOL    HW152476   2.264   8.662   9.713 -1.8719 -1.8012 -0.2106
16823SOL    HW252477   2.395   8.592   9.685 -0.5337  0.3651  0.4662
16824SOL     OW52478   5.139   4.798   0.584 -0.1244 -0.5190  0.2477
16824SOL    HW152479   5.233   4.807   0.568 -0.1239 -0.0223  0.5227
16824SOL    HW252480   5.130   4.711   0.621 -0.1009 -1.6718 -2.2358
16825SOL     OW52481   4.638   1.727   1.409  0.4193  0.2888 -0.7448
16825SOL    HW152482   4.573   1.797   1.405  1.1585  0.9651 -1.5644
16825SOL    HW252483   4.707   1.762   1.465 -0.1740 -0.6685  0.6359
16826SOL     OW52484   1.788   0.456   6.943  0.8288 -0.5132 -0.2781
16826SOL    HW152485   1.848   0.507   6.997  0.2632 -1.3117  1.1480
16826SOL    HW252486   1.708   0.452   6.994  0.1658 -1.0394 -1.3330
16827SOL     OW52487   5.068  10.774   7.131  0.2798  0.1142  0.4480
16827SOL    HW152488   5.150  10.773   7.181 -0.0750  0.6480  1.0755
16827SOL    HW252489   5.094  10.786   7.040  0.9437 -0.7994  0.5186
16828SOL     OW52490  11.006   0.132   0.548  0.4355 -0.1312  0.3655
16828SOL    HW152491  11.021   0.087   0.464 -1.2138  1.3473 -0.7981
16828SOL    HW252492  11.093   0.149   0.582  1.1830 -0.1567 -1.4180
16829SOL     OW52493   8.245   4.996   3.520 -0.6407 -0.1025  0.1291
16829SOL    HW152494   8.327   4.996   3.470  0.5145 -0.3772  1.9521
16829SOL    HW252495   8.178   4.972   3.455  0.9358 -1.5121 -1.0735
16830SOL     OW52496   6.873   7.005   5.240  0.2004 -0.0155  0.3916
16830SOL    HW152497   6.929   7.021   5.164  1.5434  1.9470  1.6891
16830SOL    HW252498   6.788   6.980   5.203  0.5322  1.7838 -1.7881
16831SOL     OW52499   8.881   4.827   9.038 -0.0405 -0.2653  0.7739
16831SOL    HW152500   8.900   4.879   8.960 -0.2129 -2.9454 -1.1915
16831SOL    HW252501   8.805   4.870   9.078  0.7730  1.8288  0.1710
16832SOL     OW52502   3.062   5.433   0.844  0.4843 -0.3058 -0.3343
16832SOL    HW152503   2.997   5.501   0.861  0.6978  0.1234 -1.1450
16832SOL    HW252504   3.130   5.478   0.794  0.3303 -1.2440 -1.4405
16833SOL     OW52505   3.988  10.701   7.321  0.0854  0.5288 -0.1490
16833SOL    HW152506   4.038  10.637   7.270 -1.6918 -0.8891 -0.1821
16833SOL    HW252507   4.037  10.710   7.403  0.4874 -0.7020 -0.2386
16834SOL     OW52508  10.825  10.619   5.906  0.0029  0.7685  0.0433
16834SOL    HW152509  10.742  10.575   5.885  0.3932  0.7666 -1.6715
16834SOL    HW252510  10.866  10.633   5.820  2.7268 -1.0443  0.9267
16835SOL     OW52511   2.030   6.038   7.798  0.3201 -0.8353  0.3863
16835SOL    HW152512   2.063   6.098   7.731 -1.1735  0.0614  0.3892
16835SOL    HW252513   2.031   6.090   7.879 -3.0457  0.0564 -0.0012
16836SOL     OW52514   5.699   7.405   7.247 -0.0492  0.3451 -0.4120
16836SOL    HW152515   5.624   7.444   7.292  0.0411 -0.1931  0.2326
16836SOL    HW252516   5.666   7.322   7.213  0.1451  0.2908 -0.4672
16837SOL     OW52517   0.534   8.929   2.582 -0.1033 -0.4670  0.1856
16837SOL    HW152518   0.471   8.945   2.512 -1.1121 -1.0107  0.9428
16837SOL    HW252519   0.489   8.869   2.641  0.7548 -0.0802  1.2638
16838SOL     OW52520   3.306   7.024   5.529  0.0166 -0.3511 -0.3049
16838SOL    HW152521   3.298   7.112   5.567 -0.8763 -0.3461 -0.4806
16838SOL    HW252522   3.309   6.966   5.605 -0.3776 -0.2323 -0.1925
16839SOL     OW52523   4.146  10.966   5.246 -0.1549 -0.2337  0.1713
16839SOL    HW152524   4.088  11.034   5.281  1.1194  1.9841 -1.7323
16839SOL    HW252525   4.175  10.917   5.323 -1.6285  0.9622  1.5611
16840SOL     OW52526   1.309   9.638   5.144 -0.0866  0.0973  0.2632
16840SOL    HW152527   1.325   9.712   5.085  1.4874 -0.6702 -0.3102
16840SOL    HW252528   1.220   9.653   5.176 -0.7702  0.8870 -1.8097
16841SOL     OW52529   8.525   7.336   4.422  0.1397 -0.3494  0.6325
16841SOL    HW152530   8.567   7.256   4.454 -1.1851 -2.0343 -1.5877
16841SOL    HW252531   8.436   7.309   4.401  0.4829  0.9131 -3.0401
16842SOL     OW52532   4.786   4.181   7.284 -0.3583  0.5504 -0.1201
16842SOL    HW152533   4.874   4.151   7.260 -0.2998 -0.2153  0.9955
16842SOL    HW252534   4.749   4.214   7.202 -0.0491 -1.6834 -1.2219
16843SOL     OW52535   5.666   4.676  10.267 -0.2086 -0.1473 -0.2298
16843SOL    HW152536   5.725   4.716  10.203 -0.5363  0.4587 -0.1653
16843SOL    HW252537   5.703   4.702  10.352  0.8489 -1.8490 -0.1249
16844SOL     OW52538   7.867   6.205   3.381 -0.0924  0.0627 -0.0838
16844SOL    HW152539   7.772   6.208   3.377 -0.0925 -1.1895 -2.0738
16844SOL    HW252540   7.895   6.296   3.369 -1.0068  0.4292  0.4789
16845SOL     OW52541   9.920   5.209   9.287  0.0216  0.3439  0.0855
16845SOL    HW152542   9.884   5.243   9.369 -0.0127  1.0099 -0.2032
16845SOL    HW252543   9.850   5.156   9.249  0.4068 -0.9041  1.0180
16846SOL     OW52544   3.332   1.036   3.627 -0.1024 -0.0041  0.0900
16846SOL    HW152545   3.306   1.105   3.687  2.0177  1.0876 -0.1606
16846SOL    HW252546   3.329   1.077   3.540  0.6198 -0.3641 -0.1191
16847SOL     OW52547   2.847   6.931   8.090 -0.0290  0.3264  0.8396
16847SOL    HW152548   2.841   7.009   8.034 -1.3405  0.6819  1.4304
16847SOL    HW252549   2.765   6.885   8.075  0.8503 -1.1387  0.2764
16848SOL     OW52550   5.052   0.103   5.903  0.1294  0.1904 -0.1510
16848SOL    HW152551   5.113   0.150   5.960  0.9292  0.3551 -1.1287
16848SOL    HW252552   4.966   0.138   5.926  0.5761  1.1668  0.0590
16849SOL     OW52553   5.910  10.075  10.052  0.7514 -0.2465  0.4436
16849SOL    HW152554   5.892  10.042   9.964 -0.0353  1.4157 -0.0749
16849SOL    HW252555   6.003  10.096  10.052  0.6768  0.0947 -0.1267
16850SOL     OW52556   5.214   6.924   8.267 -0.3691 -0.0262 -0.1197
16850SOL    HW152557   5.124   6.956   8.265 -0.0091  1.0415  0.1099
16850SOL    HW252558   5.219   6.863   8.194 -2.0816 -2.3991  1.5721
16851SOL     OW52559   9.217   9.821   8.065 -0.2139 -0.1996 -0.3249
16851SOL    HW152560   9.247   9.771   8.141 -0.7757 -1.3741 -0.8508
16851SOL    HW252561   9.133   9.781   8.042 -1.7631  2.3262  0.4898
16852SOL     OW52562   4.951   1.967   5.634 -0.2568  0.7589  0.6759
16852SOL    HW152563   4.877   2.009   5.591 -0.1398 -0.1123 -0.4376
16852SOL    HW252564   5.001   1.928   5.562  0.8425  0.6498  1.4772
16853SOL     OW52565   0.012   4.429   9.179 -0.6919 -0.6288  0.3254
16853SOL    HW152566  -0.003   4.506   9.124  0.7350 -0.7260 -0.2222
16853SOL    HW252567  -0.013   4.355   9.123 -1.9093 -0.6049  0.7970
16854SOL     OW52568   0.451   9.289   4.389  0.5265  0.1368 -0.0180
16854SOL    HW152569   0.546   9.298   4.381  0.4968  0.6907  0.2183
16854SOL    HW252570   0.416   9.358   4.333  0.1764 -2.3097 -3.1901
16855SOL     OW52571   5.245   7.060   6.549 -0.4471  0.4309 -1.1174
16855SOL    HW152572   5.318   7.029   6.603 -1.5766  0.2391  0.3893
16855SOL    HW252573   5.175   6.996   6.565 -1.7547  1.9440 -0.5111
16856SOL     OW52574   4.837   2.233   8.606 -0.1451 -0.2110 -0.3742
16856SOL    HW152575   4.914   2.225   8.549 -1.1181  1.5878 -2.0398
16856SOL    HW252576   4.786   2.155   8.587  1.2557 -1.4957  0.8400
16857SOL     OW52577  11.068   4.378   1.330 -0.4568  0.8027  0.4575
16857SOL    HW152578  11.133   4.368   1.261 -0.0234  0.8335  0.8632
16857SOL    HW252579  10.989   4.406   1.284 -0.5263 -0.3823 -0.1864
16858SOL     OW52580   6.884   5.249   8.987  0.8558  0.3053  0.0569
16858SOL    HW152581   6.840   5.240   9.071 -0.3607 -0.5264 -0.6254
16858SOL    HW252582   6.848   5.329   8.950  1.4435  0.7086  0.3530
16859SOL     OW52583   0.275   6.106   2.428  0.2433  0.0656 -0.7566
16859SOL    HW152584   0.312   6.184   2.386  0.5514  0.7222  0.6575
16859SOL    HW252585   0.351   6.058   2.461 -0.0358  1.3185  1.9946
16860SOL     OW52586   4.754   1.975   7.178  0.4076 -0.1916  0.1511
16860SOL    HW152587   4.745   2.030   7.100  0.6205 -0.9755 -0.4342
16860SOL    HW252588   4.843   1.990   7.208  0.4758 -0.2476 -0.0263
16861SOL     OW52589   5.049   5.256   5.308 -0.3231 -0.2143 -0.1025
16861SOL    HW152590   4.998   5.330   5.340  1.1799  0.8084 -0.0049
16861SOL    HW252591   5.030   5.251   5.214  0.4249  1.0290 -0.3378
16862SOL     OW52592   3.951   2.548   8.058  0.1339  1.1006 -0.4023
16862SOL    HW152593   3.912   2.529   7.973  0.1755 -0.4984 -0.1001
16862SOL    HW252594   4.033   2.497   8.059 -0.0986  0.7076  0.7650
16863SOL     OW52595   6.775   3.998   5.901 -0.1764  0.0366  0.6369
16863SOL    HW152596   6.849   4.027   5.954 -1.1274 -0.1045  2.1093
16863SOL    HW252597   6.776   4.055   5.824  1.2360  0.2520  0.7930
16864SOL     OW52598  10.968   1.907   6.547 -0.8554  0.2747  0.1866
16864SOL    HW152599  11.040   1.966   6.523  0.4163 -0.8340  1.0795
16864SOL    HW252600  10.893   1.964   6.559  0.1288  1.6087  0.2546
16865SOL     OW52601   7.348   3.864   7.435 -0.6017 -0.2132  0.3546
16865SOL    HW152602   7.375   3.927   7.369  0.2213  1.7780  2.4514
16865SOL    HW252603   7.385   3.781   7.405  1.2453  0.9404 -0.8165
16866SOL     OW52604   5.751   4.095   6.976 -0.8131  0.4921  0.3252
16866SOL    HW152605   5.833   4.135   6.949  0.1435 -1.4138  0.2467
16866SOL    HW252606   5.694   4.169   6.996  0.6753  1.8729 -0.2978
16867SOL     OW52607   4.782   3.161   0.682 -0.3784 -0.2890  0.2252
16867SOL    HW152608   4.805   3.138   0.772  0.3319 -1.2102 -0.1696
16867SOL    HW252609   4.819   3.248   0.669  0.1522 -0.4490  0.6044
16868SOL     OW52610   9.858   8.556   7.518  0.1365  0.1546 -0.3808
16868SOL    HW152611   9.814   8.533   7.600  0.7397  1.0886  0.2179
16868SOL    HW252612   9.797   8.614   7.473  0.3220  0.6425 -0.0119
16869SOL     OW52613   1.082   4.748   7.998  0.3417 -0.3791  0.0336
16869SOL    HW152614   1.157   4.736   7.940  0.1501  2.2866 -0.8839
16869SOL    HW252615   1.117   4.795   8.074 -0.0246 -1.0033  0.6056
16870SOL     OW52616   1.616   8.580   6.340 -0.5250 -0.1422  0.4743
16870SOL    HW152617   1.610   8.670   6.373  2.3313  0.2483  0.2396
16870SOL    HW252618   1.605   8.588   6.246 -0.8877 -0.1246  0.5182
16871SOL     OW52619   6.677   2.131   3.496  0.4500  0.1656  0.5251
16871SOL    HW152620   6.610   2.190   3.531 -0.7871  0.1715 -1.6899
16871SOL    HW252621   6.722   2.183   3.429 -0.2329 -1.1257 -0.9996
16872SOL     OW52622   4.130   2.674   8.570 -0.1949 -0.1720 -0.3285
16872SOL    HW152623   4.158   2.628   8.492 -1.9762 -1.3438 -0.3394
16872SOL    HW252624   4.210   2.712   8.607  0.7629 -0.1595 -2.3274
16873SOL     OW52625  11.057   1.706   5.134 -0.0043  0.1300 -0.3505
16873SOL    HW152626  11.083   1.718   5.043  1.1732  1.6611  0.1530
16873SOL    HW252627  11.063   1.793   5.173 -1.5279 -0.2944  0.9436
16874SOL     OW52628   4.360   3.801   3.721 -0.1787 -0.1459  0.1029
16874SOL    HW152629   4.405   3.885   3.718 -0.7223  0.1307 -0.7868
16874SOL    HW252630   4.274   3.821   3.756  0.0607 -0.5247  0.9353
16875SOL     OW52631   2.312  10.139   3.821  0.1974 -0.1470  0.6827
16875SOL    HW152632   2.394  10.125   3.870  1.2918 -0.9125 -1.2691
16875SOL    HW252633   2.287  10.052   3.791  1.1488  0.5655 -2.5001
16876SOL     OW52634   1.575   4.226   6.877 -0.1618  0.4333  0.2884
16876SOL    HW152635   1.579   4.308   6.925 -0.4100  1.6563 -1.6761
16876SOL    HW252636   1.664   4.211   6.846 -0.1991  0.1882  0.2971
16877SOL     OW52637  10.609   3.700   8.187 -0.4485  0.3699  0.1325
16877SOL    HW152638  10.528   3.649   8.181  0.5284 -1.0930 -2.0481
16877SOL    HW252639  10.678   3.635   8.178  0.9635  1.7282  0.7939
16878SOL     OW52640   7.655   9.141   5.463  0.5005 -0.0938  0.4773
16878SOL    HW152641   7.707   9.072   5.421 -1.3523  0.4817 -3.1405
16878SOL    HW252642   7.681   9.221   5.418 -1.9608  0.5202  0.0354
16879SOL     OW52643   3.096   1.991   6.395  0.6709 -0.6101  0.7743
16879SOL    HW152644   3.153   1.986   6.319  1.9908  1.6722  1.5071
16879SOL    HW252645   3.121   1.916   6.449  0.5277 -1.5881 -0.4919
16880SOL     OW52646   5.195   0.251   1.797 -0.4532 -0.1512  0.5688
16880SOL    HW152647   5.154   0.188   1.855  0.9800 -1.0762  0.6248
16880SOL    HW252648   5.282   0.266   1.835 -0.8881  2.1790  0.7919
16881SOL     OW52649   8.967   4.286   0.953 -0.0582 -0.0899 -0.0978
16881SOL    HW152650   8.898   4.227   0.923 -1.4716  0.5500  1.7599
16881SOL    HW252651   8.922   4.365   0.981  1.7164  1.6432 -1.7112
16882SOL     OW52652  10.371   0.564   9.005  0.1669  0.0122  0.2083
16882SOL    HW152653  10.446   0.551   9.062 -1.0102  1.1692  2.1335
16882SOL    HW252654  10.314   0.489   9.020 -0.9212  1.1199  1.9233
16883SOL     OW52655   8.161   7.654   2.488 -0.2458 -0.5824  0.3675
16883SOL    HW152656   8.197   7.590   2.550 -3.7483 -1.7062  1.4911
16883SOL    HW252657   8.133   7.727   2.543 -0.3724 -0.1051 -0.3253
16884SOL     OW52658   3.302   4.230   8.498  0.4642  0.0052 -0.2519
16884SOL    HW152659   3.348   4.185   8.568 -0.3008 -0.6747 -0.1703
16884SOL    HW252660   3.215   4.247   8.533  0.7294  1.6168 -0.2639
16885SOL     OW52661  10.705   6.112  10.663 -0.6328  0.0641 -0.0014
16885SOL    HW152662  10.674   6.058  10.590 -1.5117  0.1537  0.3077
16885SOL    HW252663  10.718   6.199  10.624  2.0386 -0.5850 -0.8286
16886SOL     OW52664   7.098   1.205  10.024 -0.4241  0.0366  0.2751
16886SOL    HW152665   7.011   1.170  10.045  0.2193 -1.5759  0.4205
16886SOL    HW252666   7.086   1.250   9.941 -1.2212 -1.0278 -0.2190
16887SOL     OW52667   3.006   8.509   9.643  0.3366  0.1789  0.0561
16887SOL    HW152668   3.076   8.568   9.670  0.0031  1.0499 -0.9253
16887SOL    HW252669   3.027   8.486   9.552 -1.1734  1.3129 -0.6339
16888SOL     OW52670   4.519   2.118   7.901  0.9535  0.4647 -0.0716
16888SOL    HW152671   4.553   2.206   7.886  0.1535  0.8795  0.4351
16888SOL    HW252672   4.491   2.118   7.993 -2.3231  0.8790 -0.9478
16889SOL     OW52673   3.363   0.979   9.001 -0.0564  0.0528  0.4225
16889SOL    HW152674   3.388   1.043   8.935 -1.8663 -0.2750 -0.6804
16889SOL    HW252675   3.354   0.897   8.951  3.2739 -1.4211  1.9649
16890SOL     OW52676   2.742   3.961   6.886  0.0882 -0.0026  0.0579
16890SOL    HW152677   2.651   3.937   6.869  0.2470 -1.9735  1.6790
16890SOL    HW252678   2.745   4.056   6.872 -1.5334 -0.2657 -2.7081
16891SOL     OW52679   0.564   3.998   0.270  0.4793  0.2915 -0.6631
16891SOL    HW152680   0.478   3.988   0.229  0.3446 -0.8138 -0.1253
16891SOL    HW252681   0.562   4.085   0.310 -1.5259 -0.8128  1.9189
16892SOL     OW52682   2.036   2.683   2.214 -0.5227  0.1197 -0.4754
16892SOL    HW152683   2.023   2.594   2.248  0.9645  0.1061  0.0942
16892SOL    HW252684   2.028   2.740   2.290 -0.1942  0.3633 -0.6213
16893SOL     OW52685   6.124   6.473   6.475 -0.3435  0.6280  0.2189
16893SOL    HW152686   6.074   6.418   6.535  1.3669 -1.2908  0.0122
16893SOL    HW252687   6.068   6.483   6.398 -0.4751 -1.4237 -0.0001
16894SOL     OW52688   5.995   9.896   9.065  0.0757 -0.3450  0.6887
16894SOL    HW152689   6.046   9.820   9.095 -0.0637 -0.5276  0.4704
16894SOL    HW252690   6.008   9.897   8.970  0.2690  0.0489  0.7171
16895SOL     OW52691   5.039   5.771   9.444 -0.5317 -0.2195  0.1093
16895SOL    HW152692   4.946   5.780   9.463 -0.6169  0.2538 -0.5023
16895SOL    HW252693   5.083   5.816   9.517 -0.8269  0.7731 -0.3077
16896SOL     OW52694  10.136   9.824   2.698  0.4339 -0.4173  0.1096
16896SOL    HW152695  10.104   9.734   2.695 -0.3799 -0.1481  0.5759
16896SOL    HW252696  10.074   9.870   2.754  0.4466  0.5900 -0.6747
16897SOL     OW52697   7.987   6.236   6.274  0.2867  0.0565  0.1822
16897SOL    HW152698   7.975   6.147   6.308 -0.8923 -0.2324 -0.9250
16897SOL    HW252699   8.070   6.231   6.226  2.6771  0.7823  3.7927
16898SOL     OW52700   0.489   2.695   9.899  0.0235  0.4105 -0.3091
16898SOL    HW152701   0.575   2.695   9.941 -0.5924 -0.2116  1.0210
16898SOL    HW252702   0.485   2.612   9.852  0.0812  0.3514 -0.2107
16899SOL     OW52703  10.438   4.505   9.006  0.0272  0.1634 -0.4745
16899SOL    HW152704  10.505   4.516   9.074  0.8435  0.0115 -1.2332
16899SOL    HW252705  10.445   4.585   8.953 -0.1613 -0.0030 -0.7541
16900SOL     OW52706  10.723   3.667   1.545 -0.6008  0.2134 -0.1871
16900SOL    HW152707  10.676   3.748   1.527 -0.5844  0.4677  0.8347
16900SOL    HW252708  10.783   3.690   1.616  0.2236 -0.4079 -0.6697
16901SOL     OW52709   8.309   4.769   8.005 -0.1400 -0.2202 -0.5640
16901SOL    HW152710   8.296   4.676   7.986 -0.1570 -0.7207  1.6080
16901SOL    HW252711   8.230   4.811   7.974 -0.3299 -1.0010 -1.1675
16902SOL     OW52712   6.729   7.212   3.539  0.1473 -0.0109  0.1052
16902SOL    HW152713   6.769   7.247   3.619  1.5621 -0.1527 -0.5199
16902SOL    HW252714   6.747   7.118   3.542  0.5693  0.0395 -0.5677
16903SOL     OW52715  10.172   5.555   9.500 -0.0361 -0.3433  0.2591
16903SOL    HW152716  10.155   5.508   9.581  0.1017 -0.3432  0.2896
16903SOL    HW252717  10.159   5.489   9.431  1.3837 -0.7883  0.3699
16904SOL     OW52718   8.286   5.275   0.742 -0.1295  0.0743 -0.4276
16904SOL    HW152719   8.237   5.246   0.665  0.3053  0.5098 -0.8766
16904SOL    HW252720   8.315   5.363   0.720 -0.3098  0.3433  0.3877
16905SOL     OW52721   5.485   2.783  10.403  0.1655  0.5541 -0.6039
16905SOL    HW152722   5.457   2.862  10.451 -0.6598 -1.0132  1.6840
16905SOL    HW252723   5.431   2.713  10.440  2.1189 -1.3952 -1.2590
16906SOL     OW52724   4.588   1.974  10.167 -0.1337  0.3758 -0.7564
16906SOL    HW152725   4.660   1.982  10.229 -1.1934  0.7158  0.4861
16906SOL    HW252726   4.620   2.016  10.087  0.7077  1.3728  0.0734
16907SOL     OW52727   7.042   3.428   4.960  0.2190  0.0918 -0.1347
16907SOL    HW152728   7.033   3.440   5.054  1.0299  1.1917 -0.1713
16907SOL    HW252729   7.016   3.338   4.944 -0.1716 -0.0293  1.1082
16908SOL     OW52730   3.178   9.846   8.624 -0.2231  0.0067  0.8060
16908SOL    HW152731   3.156   9.801   8.542 -0.2573 -0.0244  0.8321
16908SOL    HW252732   3.272   9.832   8.635 -0.3624 -0.6694  1.1815
16909SOL     OW52733  10.641   9.026   0.216  0.4790 -0.0562 -0.7810
16909SOL    HW152734  10.594   8.954   0.258  0.8111  0.2414  0.1287
16909SOL    HW252735  10.572   9.089   0.192  0.3451  0.1681  0.1255
16910SOL     OW52736   1.706   0.109   6.246  0.0732 -0.4704 -0.2568
16910SOL    HW152737   1.693   0.191   6.292  0.5470 -1.3681  1.5442
16910SOL    HW252738   1.774   0.128   6.181 -0.6445  0.8240 -0.6528
16911SOL     OW52739   4.360   3.320   8.901 -0.1021 -0.0438  0.1974
16911SOL    HW152740   4.363   3.237   8.947 -0.0634 -1.2985 -1.9241
16911SOL    HW252741   4.293   3.308   8.833  1.4438  0.8099 -1.5824
16912SOL     OW52742   6.756   4.518   1.316 -0.5915  0.6779  0.3036
16912SOL    HW152743   6.790   4.538   1.403 -0.1785  1.7332 -0.0813
16912SOL    HW252744   6.834   4.500   1.264 -0.7530  1.1951 -0.1231
16913SOL     OW52745   9.235   0.573  10.919  0.4638  0.7196  0.1035
16913SOL    HW152746   9.306   0.620  10.875  0.4866  1.3313  0.7595
16913SOL    HW252747   9.204   0.509  10.855  1.1798  0.8865 -0.4166
16914SOL     OW52748   5.436   1.889   6.732  0.3780 -0.7723  0.7388
16914SOL    HW152749   5.525   1.868   6.704 -0.5508 -1.9720 -1.6148
16914SOL    HW252750   5.447   1.959   6.796  3.0997 -2.0531  1.8269
16915SOL     OW52751   8.290   4.861   9.717  0.6926 -0.2471 -0.0238
16915SOL    HW152752   8.369   4.902   9.681  1.0437 -0.0837  0.9037
16915SOL    HW252753   8.312   4.768   9.724 -0.5415 -0.9509 -3.3377
16916SOL     OW52754  10.674   2.482   9.294 -0.1485 -0.3467 -0.5948
16916SOL    HW152755  10.615   2.476   9.219 -0.7553 -2.4223 -0.0318
16916SOL    HW252756  10.673   2.574   9.319 -1.4513  0.0321 -1.9349
16917SOL     OW52757   4.150   9.845  11.066 -0.0691 -0.2358  0.2065
16917SOL    HW152758   4.224   9.797  11.103 -1.0259 -1.5833  0.4612
16917SOL    HW252759   4.187   9.895  10.993  0.7422 -2.5660 -1.0840
16918SOL     OW52760   6.042   8.488   9.922 -0.6435  0.1251  0.0822
16918SOL    HW152761   6.009   8.511   9.835  2.6241  2.9114 -0.6198
16918SOL    HW252762   5.997   8.549   9.982 -0.0405  0.8805 -0.2284
16919SOL     OW52763   3.233   1.084   2.125  0.2300 -0.5717  0.2618
16919SOL    HW152764   3.276   1.165   2.153  0.8670 -0.2456 -1.5126
16919SOL    HW252765   3.203   1.102   2.036 -1.3632 -1.6624  0.5305
16920SOL     OW52766   3.877   8.621   9.565 -0.3347 -0.3214  0.3844
16920SOL    HW152767   3.951   8.564   9.585 -0.0283  0.3866  1.3563
16920SOL    HW252768   3.901   8.664   9.483 -0.0728 -0.7759  0.2225
16921SOL     OW52769   2.250   9.958   7.269  0.1668  0.4466  0.1242
16921SOL    HW152770   2.299   9.892   7.219  0.7038  0.5238  0.5448
16921SOL    HW252771   2.242   9.921   7.357 -1.2847  0.0517 -0.1436
16922SOL     OW52772   4.065   6.880   8.141 -0.0381 -0.3585 -0.1801
16922SOL    HW152773   4.107   6.801   8.105  0.0547  0.3042 -1.5998
16922SOL    HW252774   3.992   6.897   8.080 -0.1103  0.5972  0.1712
16923SOL     OW52775   6.319  10.514   8.725 -0.2977  0.8641 -0.3413
16923SOL    HW152776   6.248  10.461   8.689  0.1220  0.9487 -1.3556
16923SOL    HW252777   6.275  10.583   8.774 -0.9032  0.6455 -0.5652
16924SOL     OW52778   5.413   5.159   6.376  0.1729 -0.8132  0.1971
16924SOL    HW152779   5.343   5.223   6.362  2.4693  2.1674  1.3118
16924SOL    HW252780   5.392   5.120   6.461  0.3920  0.9401  1.1152
16925SOL     OW52781   1.794   6.930   9.165 -0.3779  0.1775 -0.3007
16925SOL    HW152782   1.816   6.932   9.072 -1.4651 -3.0411 -0.7697
16925SOL    HW252783   1.835   7.009   9.201  4.2438 -0.7692 -2.6212
16926SOL     OW52784   1.445  10.114   6.409  0.1355 -0.1338  0.0519
16926SOL    HW152785   1.394  10.127   6.489  1.0337  0.4490  0.5533
16926SOL    HW252786   1.463  10.020   6.407 -0.0847 -0.1871  0.4221
16927SOL     OW52787   4.262   9.999   6.634 -0.0102 -0.3828 -0.0215
16927SOL    HW152788   4.268  10.084   6.677 -0.7898 -0.2148 -0.2367
16927SOL    HW252789   4.265  10.018   6.541 -0.7571 -0.5404 -0.0783
16928SOL     OW52790   7.902   3.847   2.087  0.5159  0.0259  0.6566
16928SOL    HW152791   7.926   3.900   2.164 -0.0780  0.4907  0.5237
16928SOL    HW252792   7.938   3.896   2.013 -0.9388  0.8080  0.4412
16929SOL     OW52793   4.093  10.332   1.603 -0.6766  0.2056  0.4678
16929SOL    HW152794   4.111  10.243   1.572 -0.7520  1.0995 -2.4339
16929SOL    HW252795   4.024  10.321   1.668 -0.2622 -1.8921  0.6354
16930SOL     OW52796   5.523   4.049   8.924  0.9453  0.5257  0.3157
16930SOL    HW152797   5.513   4.012   8.836 -0.6869  3.0153 -0.6711
16930SOL    HW252798   5.609   4.091   8.922  0.2725  1.9914 -0.7881
16931SOL     OW52799   4.884   0.472   9.129  0.7356 -0.2962 -0.0381
16931SOL    HW152800   4.974   0.440   9.116  0.7977  0.0262 -0.4037
16931SOL    HW252801   4.884   0.560   9.092  0.0374 -0.6262 -0.8641
16932SOL     OW52802  10.935   1.398   7.270  0.3124  0.2448 -0.2670
16932SOL    HW152803  10.952   1.304   7.273  0.3997  0.2657  2.2699
16932SOL    HW252804  11.018   1.438   7.295 -0.3138  0.8653  0.8965
16933SOL     OW52805   8.779   2.057   8.143 -0.5032 -0.1498 -0.3998
16933SOL    HW152806   8.782   2.138   8.092 -2.2183 -0.0221 -0.3556
16933SOL    HW252807   8.688   2.049   8.171 -0.1018 -1.4444  0.6762
16934SOL     OW52808  10.695   3.396   1.522 -0.4484  0.0775 -0.0130
16934SOL    HW152809  10.680   3.490   1.516  0.8408  0.2675 -0.4927
16934SOL    HW252810  10.776   3.388   1.572  0.9076 -0.6368 -2.1788
16935SOL     OW52811   4.223   7.692   6.286 -0.6458  0.0478 -0.0101
16935SOL    HW152812   4.202   7.708   6.378  0.7156 -1.4157  0.5947
16935SOL    HW252813   4.193   7.603   6.269  0.2247 -0.1374 -0.6271
16936SOL     OW52814   2.604   2.961   3.461 -0.4686  0.4741  0.3122
16936SOL    HW152815   2.666   3.017   3.507 -1.0832  0.1100  1.6553
16936SOL    HW252816   2.631   2.872   3.483 -0.2364  0.2585 -0.7976
16937SOL     OW52817   5.334   3.444   2.687 -0.4881  0.1858 -0.2406
16937SOL    HW152818   5.420   3.429   2.725 -0.1864 -0.8876 -1.2859
16937SOL    HW252819   5.273   3.434   2.760  0.1508 -0.6998  0.1869
16938SOL     OW52820   2.737  10.641   3.200 -0.1712  0.0123 -0.0668
16938SOL    HW152821   2.770  10.720   3.242  0.1509 -0.4650  0.5975
16938SOL    HW252822   2.667  10.610   3.256  0.2955 -0.6589  0.1689
16939SOL     OW52823   1.608   1.114   3.848 -0.1765  0.2341 -0.0800
16939SOL    HW152824   1.535   1.065   3.810  0.4630 -1.2451  0.5387
16939SOL    HW252825   1.664   1.047   3.887  2.5684  1.0963 -2.2461
16940SOL     OW52826   7.458   8.405   7.931 -0.1859 -0.1130  0.0472
16940SOL    HW152827   7.399   8.444   7.866 -0.4643 -2.1113 -1.0100
16940SOL    HW252828   7.517   8.350   7.879  2.0301  1.0609  1.1692
16941SOL     OW52829   0.280   2.601   5.085  0.5381  1.0529  0.2125
16941SOL    HW152830   0.215   2.665   5.115 -0.7289 -0.5906  1.2122
16941SOL    HW252831   0.229   2.520   5.073  2.2551 -0.0730  0.1434
16942SOL     OW52832   3.392   4.900   0.453 -0.1674  0.1437  0.8482
16942SOL    HW152833   3.371   4.806   0.451 -2.5733  0.6233  0.4302
16942SOL    HW252834   3.339   4.935   0.525 -0.3683  1.3991  0.1126
16943SOL     OW52835   2.643   4.601   6.399  0.7505  0.5065 -0.3592
16943SOL    HW152836   2.612   4.648   6.322 -0.6947  0.1002 -0.0512
16943SOL    HW252837   2.606   4.649   6.473  1.7950  0.6567  0.0886
16944SOL     OW52838   8.162   9.872   7.205  0.2564 -0.9150 -0.6899
16944SOL    HW152839   8.067   9.863   7.201  0.1479 -0.2276  0.1535
16944SOL    HW252840   8.194   9.808   7.141 -0.7563 -1.2767 -0.8647
16945SOL     OW52841   8.116   4.410  10.864  0.6499  0.2048 -0.3169
16945SOL    HW152842   8.121   4.341  10.798 -0.4695  0.9599 -1.2267
16945SOL    HW252843   8.208   4.433  10.881  1.0406 -1.4344 -0.0392
16946SOL     OW52844   7.526   3.606   0.858  0.1437  0.2730  0.0335
16946SOL    HW152845   7.539   3.621   0.764 -0.0495  0.7571  0.0775
16946SOL    HW252846   7.506   3.513   0.865  1.1348  0.0255 -0.2962
16947SOL     OW52847   3.996   2.958   4.930  0.1958  0.5556 -0.1047
16947SOL    HW152848   4.063   2.928   4.991  1.4645  1.1506 -1.1681
16947SOL    HW252849   3.925   2.991   4.986  0.5993 -0.4576  1.0347
16948SOL     OW52850   5.202   9.923   0.885  0.2172  0.2428 -0.4936
16948SOL    HW152851   5.255   9.980   0.941 -0.9856  0.7839  0.1349
16948SOL    HW252852   5.186   9.845   0.938  0.8895 -0.2102 -0.9262
16949SOL     OW52853   9.901   5.393   1.160 -0.3782  0.4700 -1.0105
16949SOL    HW152854   9.937   5.447   1.089  1.7985  1.0739  0.4404
16949SOL    HW252855   9.946   5.309   1.150  1.0633  1.0107  0.4143
16950SOL     OW52856   6.375   0.784   5.661  0.5979 -0.3415 -0.2867
16950SOL    HW152857   6.335   0.706   5.699 -0.8441  0.1167 -0.8179
16950SOL    HW252858   6.331   0.858   5.703  2.1158  0.2193  0.3889
16951SOL     OW52859   5.000   9.752   5.882  0.0167 -0.1673 -0.4045
16951SOL    HW152860   4.923   9.802   5.855  0.2475  0.2009 -0.3815
16951SOL    HW252861   5.019   9.783   5.971 -1.0141 -1.6840  0.4060
16952SOL     OW52862   5.129  10.963   0.053  0.1348 -0.2107 -0.2003
16952SOL    HW152863   5.110  11.000   0.139 -0.4365 -0.0509 -0.3898
16952SOL    HW252864   5.218  10.992   0.034  1.1507 -2.0981  1.2971
16953SOL     OW52865   8.075   2.963   1.093  0.6774  0.2225 -0.1959
16953SOL    HW152866   8.149   2.981   1.151  1.2886 -1.7517 -0.3058
16953SOL    HW252867   8.010   2.919   1.148  0.3236  0.3493 -0.5048
16954SOL     OW52868   4.012   4.640   0.573  0.1957 -0.3919 -0.1818
16954SOL    HW152869   4.033   4.562   0.522 -1.5203  1.0035 -3.3422
16954SOL    HW252870   3.920   4.630   0.595  0.7310 -0.6191  2.1781
16955SOL     OW52871   2.933   2.460   4.361 -0.4500  0.0741 -0.5153
16955SOL    HW152872   2.884   2.421   4.288  1.1227 -1.1155 -1.0170
16955SOL    HW252873   2.945   2.388   4.422  0.0794  0.5045 -0.1029
16956SOL     OW52874   1.968   6.778   9.991  0.3724  0.2584  0.4130
16956SOL    HW152875   1.919   6.773   9.909 -1.3146 -0.7670  1.4392
16956SOL    HW252876   2.042   6.717   9.977  0.1484  0.1465 -0.3576
16957SOL     OW52877   6.473   2.335   8.424  0.1608 -0.3969  0.1205
16957SOL    HW152878   6.507   2.421   8.449  0.8208  0.1117 -2.2990
16957SOL    HW252879   6.525   2.273   8.477  0.5713  0.6129  0.9498
16958SOL     OW52880   2.017   9.231   4.831  0.2448  0.0338  0.2659
16958SOL    HW152881   1.925   9.227   4.803 -0.0483  1.4173  0.9374
16958SOL    HW252882   2.014   9.207   4.924  0.3983  1.1092  0.5611
16959SOL     OW52883   4.013   7.912  10.889  0.2306 -0.4410 -0.0295
16959SOL    HW152884   4.056   7.849  10.947  0.4872 -0.2971 -0.0616
16959SOL    HW252885   4.017   7.872  10.803  0.2151 -0.4713 -0.0161
16960SOL     OW52886   5.068   0.686   6.730 -0.3382  0.2257 -0.0100
16960SOL    HW152887   5.117   0.743   6.671 -0.0963 -1.3870 -1.4492
16960SOL    HW252888   5.008   0.745   6.776  1.1580  1.8731 -0.0698
16961SOL     OW52889   6.653   6.481   7.009  0.5388 -0.4126  0.0823
16961SOL    HW152890   6.564   6.511   7.028 -0.1532 -1.0997 -1.7755
16961SOL    HW252891   6.656   6.391   7.041  0.3025 -0.6365 -0.5103
16962SOL     OW52892   1.469   4.916   1.837  0.5778  0.5521 -0.0002
16962SOL    HW152893   1.552   4.947   1.872  1.5642 -1.5082 -0.3664
16962SOL    HW252894   1.427   4.870   1.910  1.1866 -0.9993 -0.5767
16963SOL     OW52895   5.913   5.126   8.564  0.0430  0.1911 -0.1122
16963SOL    HW152896   5.883   5.210   8.599  2.4252  0.4758  1.4562
16963SOL    HW252897   5.933   5.144   8.472  0.1347  1.2408  0.0989
16964SOL     OW52898   8.432   3.244   5.940  0.0892  0.1525 -0.0503
16964SOL    HW152899   8.370   3.236   6.012 -1.7661  0.4246 -1.5539
16964SOL    HW252900   8.378   3.245   5.861  1.9449  1.3026 -1.3956
16965SOL     OW52901   5.152   3.508   7.097  0.0810  0.0603 -0.1831
16965SOL    HW152902   5.104   3.431   7.127 -1.5677  2.0220  2.7347
16965SOL    HW252903   5.085   3.567   7.063  1.2734  0.4275 -2.0491
16966SOL     OW52904   6.343   4.584   3.245 -0.1007  0.0244 -0.6295
16966SOL    HW152905   6.345   4.489   3.232  0.5167  0.0265 -0.5827
16966SOL    HW252906   6.374   4.621   3.162 -0.6213  0.1990 -0.7511
16967SOL     OW52907   7.684   3.576   5.067 -0.3667 -0.2052 -0.3079
16967SOL    HW152908   7.646   3.597   4.981  1.4764  1.3256 -0.8080
16967SOL    HW252909   7.716   3.486   5.057 -2.8846 -1.2112 -0.1619
16968SOL     OW52910   2.766   0.158   2.610 -0.4881  0.1462 -0.2562
16968SOL    HW152911   2.848   0.205   2.600  0.4860 -1.3612  0.3569
16968SOL    HW252912   2.763   0.098   2.536 -0.7558 -0.2254  0.0538
16969SOL     OW52913   3.993   7.137   7.972  0.0881  0.2307 -0.1698
16969SOL    HW152914   3.965   7.224   7.942 -0.1598  0.0129 -0.5825
16969SOL    HW252915   4.042   7.101   7.898  0.4407  0.1336  0.1101
16970SOL     OW52916   5.610   2.245   5.957 -0.1550  0.2598  0.1768
16970SOL    HW152917   5.696   2.265   5.995 -0.2377  1.4360 -0.2107
16970SOL    HW252918   5.571   2.183   6.018  1.3907 -1.1608 -0.1835
16971SOL     OW52919   7.967  10.228   8.927  0.2295  0.1711 -0.5426
16971SOL    HW152920   7.958  10.238   8.832  1.9342  0.9415 -0.6608
16971SOL    HW252921   7.929  10.143   8.946 -2.1445  0.9121 -1.5851
16972SOL     OW52922   6.948   9.984   7.593 -0.2343  0.2596 -0.3207
16972SOL    HW152923   6.932   9.900   7.549 -0.2169  0.3463 -0.4952
16972SOL    HW252924   6.861  10.025   7.598 -0.6321 -0.6960  1.7145
16973SOL     OW52925   3.706   5.762   2.932  0.3166 -0.0099  0.1048
16973SOL    HW152926   3.704   5.833   2.869  1.6120 -0.2972 -0.2816
16973SOL    HW252927   3.670   5.800   3.012 -2.3938  0.0751 -1.0329
16974SOL     OW52928  10.687   7.958   1.797 -0.2344  0.0045 -0.2906
16974SOL    HW152929  10.737   8.035   1.768  0.6555  0.4241  2.1234
16974SOL    HW252930  10.631   7.991   1.867 -0.4388 -1.3912  0.2381
16975SOL     OW52931   3.733   6.999   9.517  0.0736  0.0235  0.5857
16975SOL    HW152932   3.740   7.010   9.422  0.7063  0.3132  0.6642
16975SOL    HW252933   3.639   7.006   9.534  0.0486  1.1142  0.1102
16976SOL     OW52934   8.048   2.644   3.614  0.2356 -0.4106 -0.5443
16976SOL    HW152935   8.051   2.685   3.528  1.2424 -1.0201 -0.8179
16976SOL    HW252936   8.028   2.552   3.596  2.4738 -1.0095 -0.3476
16977SOL     OW52937   7.107   5.563   6.479  0.0834 -0.1292 -0.0453
16977SOL    HW152938   7.187   5.581   6.429  0.2704  0.5508  0.4783
16977SOL    HW252939   7.044   5.626   6.445  0.2988  0.5421  0.7672
16978SOL     OW52940   0.860  10.655   6.690 -0.3978 -0.3348  0.2165
16978SOL    HW152941   0.836  10.696   6.774  0.1406 -1.0420  0.7320
16978SOL    HW252942   0.950  10.625   6.704  0.9605  2.4155 -1.7103
16979SOL     OW52943   4.163   4.256   4.021  0.0078  0.1346 -0.2766
16979SOL    HW152944   4.144   4.315   4.094 -2.7126 -1.2786  0.2758
16979SOL    HW252945   4.258   4.249   4.020  0.1858  0.9602  2.4925
16980SOL     OW52946   7.295   1.518   3.471  0.1600  0.2131 -0.4564
16980SOL    HW152947   7.295   1.560   3.557  1.0729 -2.3963  0.9386
16980SOL    HW252948   7.258   1.584   3.412 -0.6321  2.0593  1.9244
16981SOL     OW52949   5.145   5.407   1.819 -0.3175 -0.0110 -0.2439
16981SOL    HW152950   5.056   5.420   1.786 -0.4546 -0.0586  0.1080
16981SOL    HW252951   5.155   5.472   1.888 -0.2716 -0.3746  0.0929
16982SOL     OW52952   5.629   2.337   8.574  0.1249 -0.1982 -0.5883
16982SOL    HW152953   5.607   2.339   8.667 -0.9632 -2.1742 -0.7549
16982SOL    HW252954   5.722   2.357   8.571 -0.0890  1.1808  0.7883
16983SOL     OW52955   1.578   2.917   6.624 -0.2291  0.1036 -0.3435
16983SOL    HW152956   1.548   2.850   6.685 -0.3359  2.1598  2.0397
16983SOL    HW252957   1.663   2.886   6.594  0.9471  0.0153  2.7261
16984SOL     OW52958   2.282   3.669  10.111 -0.0174 -0.1924 -0.1199
16984SOL    HW152959   2.326   3.752  10.095  1.4302 -0.6458  1.1951
16984SOL    HW252960   2.218   3.661  10.040  0.4466  1.5868 -0.7938
16985SOL     OW52961   8.771   1.893   5.867  0.4997 -0.6873  0.0431
16985SOL    HW152962   8.713   1.817   5.868  0.8835 -0.9970 -0.5172
16985SOL    HW252963   8.727   1.958   5.921 -1.1809 -0.3157 -1.6786
16986SOL     OW52964   6.750   9.154   6.512  0.1682  0.3489 -0.0748
16986SOL    HW152965   6.794   9.236   6.486  0.6172  0.2944  0.4899
16986SOL    HW252966   6.777   9.141   6.603  1.6400 -1.4149 -0.6999
16987SOL     OW52967   2.139   3.635   2.712 -0.2876 -0.3943  0.5341
16987SOL    HW152968   2.194   3.646   2.634 -0.9777  0.2781  0.1391
16987SOL    HW252969   2.185   3.684   2.780 -0.8218  0.9008 -0.0077
16988SOL     OW52970   0.075   3.514   1.518  0.5211 -0.9318  0.1387
16988SOL    HW152971   0.030   3.503   1.434 -0.2925 -0.9735  0.5687
16988SOL    HW252972   0.116   3.429   1.535  0.2623 -1.0814  0.0214
16989SOL     OW52973   6.644  10.358   3.034 -0.3135  0.1412  0.7428
16989SOL    HW152974   6.685  10.381   3.117  2.1427 -0.7798 -0.1283
16989SOL    HW252975   6.680  10.421   2.972 -1.4733  0.2884  0.2038
16990SOL     OW52976   8.209  10.494   0.081 -0.2761 -0.2971 -0.1100
16990SOL    HW152977   8.127  10.476   0.127  0.4265 -0.4003  1.1410
16990SOL    HW252978   8.261  10.545   0.143 -0.3007  1.8778 -1.7668
16991SOL     OW52979   5.110   4.374   0.541 -0.4978  0.4638 -0.2748
16991SOL    HW152980   5.189   4.423   0.517 -0.0403  0.3052  0.8375
16991SOL    HW252981   5.066   4.428   0.607 -0.2486 -0.3537  0.5927
16992SOL     OW52982   5.883   1.522   2.242  0.3827  0.4805  0.1525
16992SOL    HW152983   5.879   1.431   2.211  0.2962  0.0093  1.4680
16992SOL    HW252984   5.803   1.562   2.210 -0.2262 -0.2957  0.6509
16993SOL     OW52985   6.833   5.525   2.842  0.3604  0.1974  0.3286
16993SOL    HW152986   6.859   5.443   2.884 -0.2006 -0.6138 -0.8537
16993SOL    HW252987   6.779   5.569   2.907  0.1799 -0.6530  0.7671
16994SOL     OW52988   0.604   5.027   3.941 -0.0862  0.0608 -0.4957
16994SOL    HW152989   0.691   5.016   3.978 -0.3127  0.0179  0.0219
16994SOL    HW252990   0.595   5.121   3.927 -0.0222  0.0808 -0.4011
16995SOL     OW52991   6.331  11.036   0.111 -0.0627 -0.4177  0.6266
16995SOL    HW152992   6.315  11.112   0.056  0.3997 -0.8658 -0.1487
16995SOL    HW252993   6.352  11.072   0.197  1.1317  0.3893  0.0248
16996SOL     OW52994  10.517  10.517  10.448  0.0014 -0.3230  0.3187
16996SOL    HW152995  10.571  10.573  10.392  0.1055 -1.7044 -1.0147
16996SOL    HW252996  10.429  10.524  10.411 -0.0864 -0.6497  0.4611
16997SOL     OW52997   9.555   6.769  11.008  0.2310  0.0487  0.7008
16997SOL    HW152998   9.594   6.828  10.944  0.6082 -0.5643  0.3524
16997SOL    HW252999   9.620   6.700  11.020 -0.8200 -1.1079 -0.0364
16998SOL     OW53000   2.382   5.700   2.818 -0.7592 -0.0882 -0.2857
16998SOL    HW153001   2.424   5.620   2.849 -2.2231 -1.0661 -0.7366
16998SOL    HW253002   2.298   5.702   2.864 -1.1216  0.7010 -0.9673
16999SOL     OW53003   2.943   2.899   0.489  0.1431 -0.1986 -0.5691
16999SOL    HW153004   3.035   2.917   0.510  0.7935 -1.4125 -2.2269
16999SOL    HW253005   2.925   2.951   0.411 -0.6669  0.1688 -0.1597
17000SOL     OW53006   5.049   6.963   6.830  0.1662 -0.4997  0.5329
17000SOL    HW153007   5.075   6.905   6.759  2.2732  0.6660  0.2410
17000SOL    HW253008   5.036   6.906   6.905 -0.1405 -1.5513 -0.3020
17001SOL     OW53009   3.989  10.702   0.544 -0.3545  0.2554 -0.6058
17001SOL    HW153010   4.004  10.615   0.507  1.7612  0.8256 -1.2173
17001SOL    HW253011   4.030  10.762   0.482 -0.9265  1.6273  0.2879
17002SOL     OW53012   3.606   8.728   1.045  0.1943 -0.0848 -0.9532
17002SOL    HW153013   3.576   8.767   0.963 -0.4768 -0.1729 -0.7553
17002SOL    HW253014   3.590   8.634   1.035  1.0514 -0.2293 -1.1070
17003SOL     OW53015   6.506   5.244   1.554  0.0249  0.1211  0.2242
17003SOL    HW153016   6.543   5.201   1.631  0.2112 -0.3471 -0.1263
17003SOL    HW253017   6.417   5.270   1.581 -0.3413 -1.0893  0.2203
17004SOL     OW53018   3.905   3.527   6.382  0.8373 -0.9091 -0.2824
17004SOL    HW153019   3.977   3.520   6.319 -0.2459 -1.1514 -1.5509
17004SOL    HW253020   3.948   3.547   6.465  2.4415 -1.9615 -0.7954
17005SOL     OW53021   6.774   0.653   9.494 -0.0875  0.2107  0.5339
17005SOL    HW153022   6.750   0.648   9.401  1.6615 -1.0978  0.0758
17005SOL    HW253023   6.838   0.724   9.498  0.8083 -0.5695  0.4570
17006SOL     OW53024   3.858   3.172  10.429  0.1518 -0.6644 -0.5515
17006SOL    HW153025   3.763   3.181  10.422  0.2585  0.0620 -1.1298
17006SOL    HW253026   3.884   3.241  10.490  0.1347 -1.9501  0.9778
17007SOL     OW53027   3.261   5.461   9.854  0.2748 -0.0788 -0.0451
17007SOL    HW153028   3.199   5.388   9.855  0.4090 -0.1935 -0.0083
17007SOL    HW253029   3.209   5.537   9.880 -0.0939  0.0276 -1.0364
17008SOL     OW53030   6.103   1.423   8.199  0.1399 -0.9062 -0.6025
17008SOL    HW153031   6.015   1.386   8.191 -0.4565 -0.1033  1.6190
17008SOL    HW253032   6.091   1.516   8.182  0.5186 -0.7576 -0.0610
17009SOL     OW53033   5.187   9.806   4.839 -0.0040  0.0038 -0.2493
17009SOL    HW153034   5.267   9.840   4.800  0.7049 -2.1750 -0.8692
17009SOL    HW253035   5.218   9.745   4.907 -1.1671  0.2087  0.4909
17010SOL     OW53036   8.717   7.275   7.137  0.2844 -0.2891 -0.8993
17010SOL    HW153037   8.735   7.243   7.049  1.5863 -1.7413 -0.1570
17010SOL    HW253038   8.729   7.198   7.193 -3.4227 -0.2308  0.3040
17011SOL     OW53039   8.912   3.405   9.773 -0.2123  0.4466  0.1171
17011SOL    HW153040   8.993   3.448   9.799  0.3225  0.0796 -0.8494
17011SOL    HW253041   8.869   3.468   9.716 -0.6339  0.6573  0.6639
17012SOL     OW53042   3.424   5.458   1.005 -0.2795 -0.0147  0.4878
17012SOL    HW153043   3.354   5.521   0.986  1.5519  2.1803  0.6107
17012SOL    HW253044   3.423   5.399   0.930  0.1196  2.2590 -1.4400
17013SOL     OW53045  10.501   4.811  10.917  0.2331  0.2487 -0.0162
17013SOL    HW153046  10.446   4.884  10.947 -0.8513 -0.7124  0.3995
17013SOL    HW253047  10.578   4.815  10.973 -0.7789 -0.1809  1.4746
17014SOL     OW53048   5.507   6.340   8.101 -0.0288  0.0791  0.6022
17014SOL    HW153049   5.455   6.266   8.134  0.7795 -0.6955  0.1879
17014SOL    HW253050   5.531   6.389   8.180  0.8987 -1.0976  1.0908
17015SOL     OW53051  10.601   1.265   5.323  0.0021  0.1043 -0.1948
17015SOL    HW153052  10.615   1.360   5.334 -1.4202  0.9087 -3.8627
17015SOL    HW253053  10.657   1.241   5.250 -1.2139 -1.4328 -0.6605
17016SOL     OW53054   5.795  10.058   9.153 -0.3177  0.1982 -0.2869
17016SOL    HW153055   5.860   9.997   9.117  1.1369  1.5262 -0.0481
17016SOL    HW253056   5.831  10.082   9.239 -0.6718  1.6249 -0.5232
17017SOL     OW53057   8.972   6.958   0.712  0.1780  0.2901 -0.4820
17017SOL    HW153058   9.016   6.961   0.627 -0.4594 -0.8780 -0.8821
17017SOL    HW253059   8.900   6.896   0.699 -0.4807  0.7860  0.6619
17018SOL     OW53060   3.779   1.441   9.148  0.2348  0.5368  0.2072
17018SOL    HW153061   3.763   1.396   9.065 -0.6260 -1.9880  1.6366
17018SOL    HW253062   3.824   1.522   9.123 -1.4107  0.6748 -2.8354
17019SOL     OW53063   1.936   3.751   7.975 -0.4055  0.2502  0.0113
17019SOL    HW153064   1.920   3.844   7.960 -3.2387 -0.4549 -2.3573
17019SOL    HW253065   1.917   3.710   7.891 -0.5308 -2.5984  1.3118
17020SOL     OW53066   9.935   0.919   4.255 -0.0544 -0.3457  0.1282
17020SOL    HW153067   9.845   0.901   4.285  0.0894 -0.7683  0.3075
17020SOL    HW253068   9.927   1.001   4.206 -0.5994 -0.5446 -0.1282
17021SOL     OW53069   7.964   3.024   8.754 -0.5370 -0.2717  0.1716
17021SOL    HW153070   8.024   3.078   8.702 -1.8288 -0.4888 -1.6349
17021SOL    HW253071   8.016   2.996   8.830  1.2766  0.4436 -0.7545
17022SOL     OW53072   8.687   1.704   6.910  0.0306  0.7545 -0.6176
17022SOL    HW153073   8.754   1.636   6.920  1.3221  2.1192  0.4406
17022SOL    HW253074   8.608   1.656   6.885  1.3292 -0.9308 -1.7428
17023SOL     OW53075   3.379   9.420   5.191 -0.0471  0.5373 -0.5052
17023SOL    HW153076   3.381   9.513   5.212 -1.0835  0.3716  0.4078
17023SOL    HW253077   3.406   9.377   5.271  0.6123  0.0470 -0.9814
17024SOL     OW53078   4.098   1.211   6.257  0.3934 -0.6850 -0.9959
17024SOL    HW153079   4.021   1.262   6.233  1.2841 -0.3902 -3.4746
17024SOL    HW253080   4.084   1.125   6.218 -0.1258 -1.7639  1.3623
17025SOL     OW53081   8.772   2.429   9.591 -0.4374 -0.6543  0.2134
17025SOL    HW153082   8.772   2.492   9.663  0.5400 -1.3612  0.8630
17025SOL    HW253083   8.865   2.414   9.572 -0.6713 -0.8693 -0.8534
17026SOL     OW53084   5.703   8.953   9.143  0.1449  0.0427 -0.3215
17026SOL    HW153085   5.732   8.862   9.151 -0.6890 -0.1493  0.8346
17026SOL    HW253086   5.608   8.949   9.156 -0.0320  0.9796 -1.2049
17027SOL     OW53087   2.030   2.218   8.073  0.7134 -0.0964 -0.3113
17027SOL    HW153088   2.052   2.304   8.038  0.5698  0.3673  0.6901
17027SOL    HW253089   1.943   2.229   8.111 -0.8196 -1.5724 -3.0980
17028SOL     OW53090  10.562   8.853   1.465  0.3751  0.1921  0.3852
17028SOL    HW153091  10.518   8.863   1.381 -0.5804 -0.7477  0.7468
17028SOL    HW253092  10.492   8.830   1.526  1.2726 -0.7976  1.0857
17029SOL     OW53093   8.362   2.039   2.718 -0.2252  0.3081 -0.3787
17029SOL    HW153094   8.331   2.029   2.629 -0.1769 -1.0156 -0.2662
17029SOL    HW253095   8.307   1.981   2.770  2.2088 -2.0115 -0.1568
17030SOL     OW53096   9.130   0.899   9.951 -0.1812  0.2196 -0.3949
17030SOL    HW153097   9.222   0.918   9.931  0.3638 -1.2445  0.5512
17030SOL    HW253098   9.094   0.867   9.868  0.6623 -0.8593 -0.3838
17031SOL     OW53099   1.401   3.706   9.836  0.3867 -0.1301  0.1703
17031SOL    HW153100   1.409   3.691   9.930  0.4524  2.8183  0.7236
17031SOL    HW253101   1.489   3.690   9.802  0.8684  0.7098  0.9654
17032SOL     OW53102   8.669   4.494   3.841 -0.1849 -0.3456  0.5589
17032SOL    HW153103   8.641   4.509   3.931  0.3040  1.9216  0.3943
17032SOL    HW253104   8.743   4.435   3.848 -0.5622 -0.7026  1.5881
17033SOL     OW53105   3.108   3.643   8.815  0.3366 -0.7203  0.4596
17033SOL    HW153106   3.090   3.705   8.744  0.4246 -0.3011  0.8005
17033SOL    HW253107   3.038   3.578   8.808  1.5064 -1.8660 -1.3144
17034SOL     OW53108   5.808   4.318  11.086 -0.1742  0.1619  0.2022
17034SOL    HW153109   5.803   4.390  11.148 -0.5385 -0.6120  1.0905
17034SOL    HW253110   5.881   4.341  11.028 -0.3624  1.2865  0.3930
17035SOL     OW53111   8.425   5.799   6.077  0.0051 -0.1826 -0.0460
17035SOL    HW153112   8.372   5.725   6.107 -1.2051  0.7299  0.1557
17035SOL    HW253113   8.453   5.842   6.158 -2.2137  1.5545 -0.1227
17036SOL     OW53114   2.229   0.194  10.791  0.2314  0.2110 -0.6344
17036SOL    HW153115   2.201   0.103  10.801  0.0584  0.2538 -0.7320
17036SOL    HW253116   2.314   0.188  10.748  1.4411 -0.0277  1.5978
17037SOL     OW53117   5.751   0.181   7.508  0.2449 -0.1004  0.4538
17037SOL    HW153118   5.671   0.128   7.513  0.7750 -0.9794 -0.1180
17037SOL    HW253119   5.789   0.159   7.423  0.4050  1.3247  0.1486
17038SOL     OW53120   7.010  10.181   1.447 -0.1694  0.1717 -0.0698
17038SOL    HW153121   7.055  10.264   1.431  0.4507 -0.0669  0.3858
17038SOL    HW253122   7.010  10.172   1.543 -0.1407 -0.3965 -0.1166
17039SOL     OW53123   2.578   1.494   9.457  0.1022  0.0352 -0.2039
17039SOL    HW153124   2.525   1.498   9.537  1.0396 -1.2493  0.5127
17039SOL    HW253125   2.650   1.436   9.479  1.2140  0.8658 -1.5175
17040SOL     OW53126   0.538  10.925   9.148 -0.7647  0.3035 -0.0092
17040SOL    HW153127   0.447  10.894   9.151 -1.9808  3.3634 -1.5341
17040SOL    HW253128   0.575  10.881   9.071 -0.5933 -1.6329  1.1127
17041SOL     OW53129   6.154   3.772   9.597  0.0856  0.0566  0.6177
17041SOL    HW153130   6.185   3.789   9.686 -1.6274 -0.5092  1.3658
17041SOL    HW253131   6.137   3.859   9.561 -1.2363  0.2554  1.6346
17042SOL     OW53132   9.742   6.086   0.616 -0.4456  0.3940  0.3916
17042SOL    HW153133   9.749   6.182   0.616 -1.1025  0.4631  2.0679
17042SOL    HW253134   9.721   6.063   0.706 -0.6371 -1.3211 -0.0564
17043SOL     OW53135   5.948   1.703   7.167  0.5156 -0.2814 -0.0368
17043SOL    HW153136   5.973   1.754   7.244 -0.1383  1.1914 -0.7707
17043SOL    HW253137   5.957   1.612   7.195  0.7000  0.2216  1.6380
17044SOL     OW53138   4.233   3.159   5.208 -0.3396  0.4684  0.0793
17044SOL    HW153139   4.204   3.161   5.117 -0.4700 -0.5940  0.0739
17044SOL    HW253140   4.329   3.161   5.203 -0.3623  1.6931 -0.0126
17045SOL     OW53141   4.579   2.445   3.347  0.4551 -0.3263  0.2992
17045SOL    HW153142   4.575   2.522   3.291  0.0639  0.4482  1.3610
17045SOL    HW253143   4.672   2.421   3.348  0.7473  0.7874  0.8136
17046SOL     OW53144   5.156   0.531  11.073 -0.3841 -0.3119 -0.0811
17046SOL    HW153145   5.143   0.444  11.037 -0.6925  0.0788 -0.9414
17046SOL    HW253146   5.068   0.568  11.081 -0.1750  0.3790 -0.9111
17047SOL     OW53147   8.446   5.414   9.673  0.2433  0.6249  0.9799
17047SOL    HW153148   8.366   5.412   9.726 -0.7803 -0.4897 -0.5225
17047SOL    HW253149   8.469   5.507   9.667 -0.9345  0.9613  1.4434
17048SOL     OW53150   4.970   4.234   1.886  0.5378 -0.1263  0.5729
17048SOL    HW153151   4.936   4.317   1.851  1.1232 -1.1693 -2.8629
17048SOL    HW253152   5.062   4.253   1.906  0.3922  0.3204  0.8240
17049SOL     OW53153  10.282   0.437   8.641  0.3908  0.0543  0.1679
17049SOL    HW153154  10.219   0.439   8.713  0.9303 -0.6283  0.6745
17049SOL    HW253155  10.236   0.392   8.570  0.0120  0.3292  0.2350
17050SOL     OW53156   6.109   6.503   2.308 -0.1319  0.0892  0.5429
17050SOL    HW153157   6.119   6.593   2.340  1.4796  0.3979 -0.6879
17050SOL    HW253158   6.120   6.448   2.386 -0.0247  0.9158  1.1254
17051SOL     OW53159   7.452   1.673   7.414  0.4796  0.0530  0.4519
17051SOL    HW153160   7.467   1.683   7.320  2.1393 -2.0255  0.4206
17051SOL    HW253161   7.523   1.724   7.455 -0.0133  0.6428  0.5819
17052SOL     OW53162   0.601   0.290   2.760  0.0925  0.0623 -0.5787
17052SOL    HW153163   0.642   0.240   2.830  0.3448 -0.2763 -0.9621
17052SOL    HW253164   0.658   0.366   2.747  0.4321 -0.2409 -0.8928
17053SOL     OW53165   6.716   3.890   6.596  0.4579 -0.1495 -0.1730
17053SOL    HW153166   6.739   3.848   6.513  1.3484 -0.2691  0.1263
17053SOL    HW253167   6.797   3.930   6.626 -0.0814  0.7175  0.1727
17054SOL     OW53168   2.932   7.808   0.519 -0.1558 -0.0710  0.2480
17054SOL    HW153169   3.001   7.799   0.585  0.1207  0.0826 -0.0189
17054SOL    HW253170   2.921   7.902   0.509  0.8287 -0.0484 -0.9773
17055SOL     OW53171   6.312   4.649   9.052 -0.5040  0.3168 -0.1198
17055SOL    HW153172   6.269   4.629   9.135  3.2619  0.4491  2.1390
17055SOL    HW253173   6.345   4.738   9.064  2.1088 -0.4892 -0.6915
17056SOL     OW53174   5.733   4.334   8.876  0.2116  0.0452  0.0041
17056SOL    HW153175   5.701   4.412   8.921 -2.6351 -0.6730 -0.5250
17056SOL    HW253176   5.828   4.338   8.883  0.0311  1.9015  2.7205
17057SOL     OW53177   7.509   7.938   8.455  0.3546  0.5471 -0.6565
17057SOL    HW153178   7.465   7.968   8.375  0.2888 -0.7322 -1.1171
17057SOL    HW253179   7.452   7.869   8.489  2.1997 -1.5361 -1.5476
17058SOL     OW53180   4.828   5.527   8.695 -0.2717 -0.0939  0.4290
17058SOL    HW153181   4.736   5.500   8.690 -0.5355  0.9846 -2.3454
17058SOL    HW253182   4.870   5.481   8.622  1.5510 -0.9684  1.9587
17059SOL     OW53183   7.161  11.005   2.282 -0.3935 -0.3592  0.0337
17059SOL    HW153184   7.196  10.980   2.196 -0.6799  0.0532 -0.2103
17059SOL    HW253185   7.204  10.947   2.344 -1.6366 -1.9941 -0.5829
17060SOL     OW53186   0.868  10.984   5.031 -0.6978  0.1987  0.9991
17060SOL    HW153187   0.856  11.046   5.103 -1.0142  1.0685  0.2088
17060SOL    HW253188   0.865  11.038   4.952  0.3016 -0.6589  0.3572
17061SOL     OW53189   9.072   2.119   7.224  0.1604 -0.4328 -0.2360
17061SOL    HW153190   9.159   2.087   7.247  0.5583 -0.3388 -1.5446
17061SOL    HW253191   9.027   2.128   7.308  0.9782 -1.7011  0.3769
17062SOL     OW53192   0.369   8.557   0.641 -0.0407  0.2221 -1.3238
17062SOL    HW153193   0.376   8.597   0.554  0.9801  1.4009 -0.7397
17062SOL    HW253194   0.451   8.582   0.685 -0.8073  0.1825  0.1801
17063SOL     OW53195   9.055   6.777   4.111  0.0450  0.4013  0.3230
17063SOL    HW153196   9.014   6.835   4.047  1.1923  1.4713  0.5276
17063SOL    HW253197   8.992   6.773   4.183 -1.3964 -1.0450 -0.9265
17064SOL     OW53198   5.539   4.678   2.339  0.7870 -0.1799  0.0376
17064SOL    HW153199   5.529   4.601   2.395  0.6426  0.6702  1.2203
17064SOL    HW253200   5.558   4.642   2.252  1.4609 -1.5252  0.7101
17065SOL     OW53201   5.459   0.541   5.778  0.3382 -0.3007 -0.2266
17065SOL    HW153202   5.445   0.476   5.709  1.5294  0.7967 -1.5556
17065SOL    HW253203   5.461   0.625   5.732  0.9270  0.4823  1.1764
17066SOL     OW53204   4.997   0.311  10.530 -0.0136  0.0100 -0.4842
17066SOL    HW153205   5.000   0.366  10.609 -0.2070 -0.4223 -0.1690
17066SOL    HW253206   4.974   0.371  10.460  0.2959  0.4293 -0.2364
17067SOL     OW53207   7.303  10.756   1.072 -0.1800 -0.2416 -0.0423
17067SOL    HW153208   7.235  10.791   1.016 -0.8249 -1.0048  0.2411
17067SOL    HW253209   7.306  10.816   1.147 -0.9947 -0.5584  0.2520
17068SOL     OW53210   9.634   0.465   5.817 -0.3719  0.0118 -0.1270
17068SOL    HW153211   9.585   0.515   5.752  0.4689  0.9003 -0.1084
17068SOL    HW253212   9.719   0.509   5.822  1.0095 -2.2681 -1.2094
17069SOL     OW53213   3.548   8.445   0.961  0.1589  0.4636  0.5772
17069SOL    HW153214   3.471   8.407   1.002 -1.5421  2.8332 -0.1497
17069SOL    HW253215   3.620   8.386   0.983 -1.7222 -1.4724  1.8798
17070SOL     OW53216   1.093   9.521   8.946  0.0906  0.1195  0.2909
17070SOL    HW153217   1.158   9.565   9.002 -0.5924  1.5420  0.0152
17070SOL    HW253218   1.084   9.434   8.984  2.2828 -0.1910  0.2295
17071SOL     OW53219   0.545   6.228   3.216 -0.1880  0.6378 -0.6125
17071SOL    HW153220   0.581   6.288   3.150  1.2836  0.3480 -0.0975
17071SOL    HW253221   0.611   6.159   3.224  0.9285  1.8974  2.9075
17072SOL     OW53222   0.245   5.386   3.136  0.0523  0.1856  0.6432
17072SOL    HW153223   0.156   5.371   3.169  0.0306  0.2539  0.6162
17072SOL    HW253224   0.244   5.352   3.047  0.5249 -1.3606  1.1941
17073SOL     OW53225   6.362   6.836  10.402 -0.1323 -0.4858 -0.8412
17073SOL    HW153226   6.354   6.851  10.496  0.7172 -2.7474 -0.3373
17073SOL    HW253227   6.445   6.877  10.378 -0.0858 -0.3717 -0.4905
17074SOL     OW53228   6.639   2.822  10.940 -0.0221 -0.6783  0.4574
17074SOL    HW153229   6.606   2.732  10.940  0.2876 -0.8970 -2.7553
17074SOL    HW253230   6.734   2.812  10.931 -0.1245 -0.0892 -1.7072
17075SOL     OW53231   6.293   1.265   2.971  0.3412  0.0017 -0.3922
17075SOL    HW153232   6.202   1.293   2.957  0.3303  0.2458  0.1568
17075SOL    HW253233   6.340   1.345   2.994  0.5360 -0.2428  0.0871
17076SOL     OW53234   2.416   5.496   9.364 -0.0449  0.2112  0.3466
17076SOL    HW153235   2.476   5.437   9.318  0.2367  0.6375  0.1567
17076SOL    HW253236   2.329   5.468   9.337  0.1132  0.3641 -0.3281
17077SOL     OW53237   5.692   6.097   7.804 -0.4838  0.2177 -0.3847
17077SOL    HW153238   5.679   6.045   7.883 -0.9731  1.9281  0.7230
17077SOL    HW253239   5.614   6.079   7.751 -0.6414 -0.1883 -0.0267
17078SOL     OW53240   1.386   4.406   7.950  0.8024  0.3584 -0.5183
17078SOL    HW153241   1.345   4.334   7.998  1.6792 -0.2630 -0.6802
17078SOL    HW253242   1.389   4.377   7.859  4.5439 -1.1322 -0.1194
17079SOL     OW53243   5.842   1.080   4.769 -0.1601 -0.5643 -0.0132
17079SOL    HW153244   5.926   1.074   4.723  1.0695  0.4930  1.9057
17079SOL    HW253245   5.847   1.011   4.835 -0.8847 -0.5926  0.0113
17080SOL     OW53246   9.959   9.392   6.192 -0.0879  0.1909 -0.3317
17080SOL    HW153247   9.873   9.354   6.176 -0.5919  0.6043  1.1942
17080SOL    HW253248  10.018   9.317   6.199 -0.0716 -0.0559 -2.5046
17081SOL     OW53249   9.103   9.025   2.603 -0.0290  0.7997 -0.0741
17081SOL    HW153250   9.010   9.022   2.579  0.3253 -1.9769 -1.5505
17081SOL    HW253251   9.146   8.970   2.537  2.6090  1.5580  0.8977
17082SOL     OW53252   8.655   4.444   9.213 -0.3309  0.1037  0.3104
17082SOL    HW153253   8.613   4.526   9.188  0.7461  0.5090 -0.2125
17082SOL    HW253254   8.744   4.451   9.179  0.7739  0.0669  3.0044
17083SOL     OW53255   1.925   2.373   1.973  0.2331  0.4845 -0.4164
17083SOL    HW153256   1.851   2.356   2.032  0.9380  1.4727  0.7831
17083SOL    HW253257   1.888   2.432   1.906  0.1981  1.9566  0.8514
17084SOL     OW53258   0.813   2.059   4.934  0.2892 -0.3353  0.1096
17084SOL    HW153259   0.802   2.154   4.926 -1.3567 -0.4451  0.5418
17084SOL    HW253260   0.740   2.022   4.885  0.4184 -1.3521  0.6504
17085SOL     OW53261   4.621   2.958   2.735  0.3403 -0.0867 -0.1947
17085SOL    HW153262   4.557   2.942   2.665 -0.7103  1.2123  0.4282
17085SOL    HW253263   4.644   3.050   2.726 -0.2787  0.2618  1.5317
17086SOL     OW53264   9.941  10.069   1.512 -0.1278 -0.3198  0.2435
17086SOL    HW153265   9.973  10.035   1.595  2.3716 -0.2635 -0.6053
17086SOL    HW253266   9.927   9.992   1.458  0.2190 -0.2737  0.0831
17087SOL     OW53267  10.971   9.637   6.409 -0.4250  0.2739 -0.1915
17087SOL    HW153268  10.957   9.699   6.337 -1.7259  0.2018 -0.0223
17087SOL    HW253269  10.906   9.569   6.394  0.8409 -0.9671 -0.2473
17088SOL     OW53270   2.766   2.054   8.430  0.2089  0.2165 -0.3988
17088SOL    HW153271   2.840   2.010   8.389 -1.3368 -2.3097 -0.6975
17088SOL    HW253272   2.791   2.146   8.432  2.9697 -0.4190 -1.2397
17089SOL     OW53273   9.993   7.706   7.794  0.1444  0.4935  0.1254
17089SOL    HW153274  10.066   7.756   7.832  0.6154  0.4353 -0.6716
17089SOL    HW253275   9.975   7.750   7.711  1.3411 -1.2884 -1.1611
17090SOL     OW53276   7.582   3.407   7.058 -0.2732 -0.4129  0.8321
17090SOL    HW153277   7.579   3.500   7.080 -0.5186 -0.1011 -0.4633
17090SOL    HW253278   7.491   3.379   7.060 -0.2623 -0.4689  0.5920
17091SOL     OW53279   7.474   2.084   4.276  0.0955  0.4551  0.2611
17091SOL    HW153280   7.494   1.991   4.287  0.2216  0.4531  0.0155
17091SOL    HW253281   7.560   2.127   4.272  0.0410  0.6759  1.1311
17092SOL     OW53282   5.722  10.655   0.193 -0.6357  0.0126  0.1828
17092SOL    HW153283   5.812  10.624   0.199  0.0820  1.4772 -1.8745
17092SOL    HW253284   5.693  10.630   0.105 -0.8606  2.8320 -0.6491
17093SOL     OW53285   1.745   1.094   8.650  0.8060  0.2563 -0.2662
17093SOL    HW153286   1.787   1.078   8.565 -0.8741  0.1848 -1.1240
17093SOL    HW253287   1.712   1.184   8.643 -0.5614 -0.2222 -0.2557
17094SOL     OW53288   8.904   5.533  10.260 -0.3047  0.1206  0.5797
17094SOL    HW153289   8.984   5.521  10.209  0.6475  0.6261  1.9227
17094SOL    HW253290   8.901   5.458  10.319 -0.2222  0.6713  1.3013
17095SOL     OW53291   2.164   4.520   1.588  0.5998  0.1768 -0.4004
17095SOL    HW153292   2.088   4.462   1.593  1.0606 -0.3759  0.6198
17095SOL    HW253293   2.181   4.545   1.680  2.9040 -1.3976 -0.3247
17096SOL     OW53294   7.112   7.325   5.639  0.4918 -0.1093  0.2969
17096SOL    HW153295   7.074   7.265   5.574 -0.4872  1.5618 -0.7502
17096SOL    HW253296   7.143   7.399   5.588  1.4783  0.3990  1.5817
17097SOL     OW53297   7.031   6.763   1.865 -0.4687 -1.0959 -0.0650
17097SOL    HW153298   6.946   6.755   1.821 -0.7894 -3.3349  0.8324
17097SOL    HW253299   7.092   6.716   1.808  0.1602  0.3458 -0.6111
17098SOL     OW53300   5.307   0.937  10.930 -0.1107  0.5214  0.4451
17098SOL    HW153301   5.239   0.893  10.980  1.0183  0.9373  2.4260
17098SOL    HW253302   5.348   0.867  10.878 -0.2434 -0.2412  1.3435
17099SOL     OW53303   5.383   5.322   9.375  0.3050 -0.1872 -0.0694
17099SOL    HW153304   5.414   5.277   9.453  1.1992  1.6462  0.6891
17099SOL    HW253305   5.346   5.404   9.407 -2.5118 -0.8523 -1.2678
17100SOL     OW53306   2.812   6.394   2.830  0.0531 -0.1542  0.2683
17100SOL    HW153307   2.730   6.346   2.825 -0.1617  0.1757  0.6005
17100SOL    HW253308   2.833   6.416   2.739  0.1821 -0.9199  0.1120
17101SOL     OW53309  10.446   2.088   0.860  0.0421  0.2673 -0.4484
17101SOL    HW153310  10.369   2.132   0.894 -0.1879 -0.3807 -0.1128
17101SOL    HW253311  10.447   2.003   0.905 -1.2416 -1.3911 -3.2665
17102SOL     OW53312   2.775   2.284   9.711  0.2005 -0.4169  0.4188
17102SOL    HW153313   2.855   2.252   9.751  0.4386 -2.5917 -1.5833
17102SOL    HW253314   2.722   2.205   9.697 -2.7678  1.0134  2.5153
17103SOL     OW53315   1.900  10.512   7.293 -0.3012 -0.0753 -0.2474
17103SOL    HW153316   1.988  10.509   7.254 -0.3148  2.8464 -0.6847
17103SOL    HW253317   1.843  10.542   7.223 -1.0487  1.2423  0.8736
17104SOL     OW53318   2.721   4.789   2.278 -0.0897 -0.2317  0.1139
17104SOL    HW153319   2.740   4.874   2.239 -0.8538  0.4445  1.1640
17104SOL    HW253320   2.766   4.726   2.221 -1.8014  0.6034 -2.3525
17105SOL     OW53321   6.241   8.697   7.373  0.1953  0.2209 -0.4058
17105SOL    HW153322   6.166   8.756   7.371 -0.6155 -0.7554  0.5471
17105SOL    HW253323   6.282   8.714   7.458 -0.0940 -0.6291 -0.0862
17106SOL     OW53324   4.513   5.212   4.175 -0.2580 -0.1754 -0.3817
17106SOL    HW153325   4.605   5.192   4.156 -0.4832 -3.6064  1.2729
17106SOL    HW253326   4.514   5.300   4.212  2.7451 -0.8966  1.5767
17107SOL     OW53327  10.853   2.467   1.275  0.0532 -0.7523 -0.3852
17107SOL    HW153328  10.801   2.543   1.248 -0.6160 -1.1974 -0.3779
17107SOL    HW253329  10.909   2.448   1.200  0.9725  0.3622 -0.0200
17108SOL     OW53330   2.031   0.353   6.693 -0.0430  0.3210  0.3258
17108SOL    HW153331   1.939   0.328   6.705 -0.4155  0.8844 -1.0425
17108SOL    HW253332   2.078   0.270   6.691 -1.0051 -0.2749 -2.2658
17109SOL     OW53333   2.655   3.206   4.231 -0.0789  0.2097  0.0806
17109SOL    HW153334   2.742   3.173   4.251  0.4694  1.1098 -0.7428
17109SOL    HW253335   2.605   3.129   4.203  0.9669 -0.0363 -1.1726
17110SOL     OW53336  10.602   1.610   7.255  0.7078 -0.9788  0.0075
17110SOL    HW153337  10.540   1.673   7.293 -0.8987 -1.4005 -1.7431
17110SOL    HW253338  10.599   1.534   7.313  0.2842 -0.6173  0.4556
17111SOL     OW53339   4.610   8.443   2.709  0.4408  0.3710  0.3310
17111SOL    HW153340   4.675   8.514   2.714  1.0546  0.1830 -3.0036
17111SOL    HW253341   4.661   8.363   2.719  1.2958  0.1117 -4.1717
17112SOL     OW53342   5.633   3.920   6.412 -0.2049  0.4119 -0.4166
17112SOL    HW153343   5.704   3.983   6.400  0.2304 -0.4070 -2.7655
17112SOL    HW253344   5.567   3.967   6.462  1.1079  1.9136 -0.0301
17113SOL     OW53345   5.112   3.850  10.775 -0.7442 -0.0576 -0.9035
17113SOL    HW153346   5.207   3.860  10.762 -0.3046 -2.0416  0.3624
17113SOL    HW253347   5.074   3.926  10.731  1.4779  1.2454 -0.7183
17114SOL     OW53348   2.958   8.058   0.397  0.2922 -0.2580 -0.4215
17114SOL    HW153349   3.030   8.048   0.334  1.6056  3.9625  0.1057
17114SOL    HW253350   2.896   8.116   0.354 -1.0821 -0.9518  0.5396
17115SOL     OW53351   4.909   2.658   3.329 -0.1059  0.1475 -0.0045
17115SOL    HW153352   4.993   2.652   3.374  0.3565  2.2892 -0.5129
17115SOL    HW253353   4.877   2.567   3.328  1.0791 -0.3791  2.2559
17116SOL     OW53354   0.642   8.874   7.752  0.1280 -1.0620  0.0255
17116SOL    HW153355   0.573   8.872   7.686  0.3871  0.1425 -0.3030
17116SOL    HW253356   0.596   8.864   7.835 -0.3535 -1.1184 -0.2453
17117SOL     OW53357   1.552   0.710   5.461  0.5918  0.4176 -0.0023
17117SOL    HW153358   1.583   0.697   5.371  1.2525  0.5142  0.2008
17117SOL    HW253359   1.586   0.796   5.485  0.6471  0.2742  0.4313
17118SOL     OW53360   3.586   7.762  10.796  0.2942 -0.1417 -0.1491
17118SOL    HW153361   3.666   7.709  10.795  1.2051  1.1661 -0.4207
17118SOL    HW253362   3.604   7.832  10.733 -1.8158 -0.8254 -1.6346
17119SOL     OW53363   2.123   4.240   3.426 -0.2759 -0.0038  0.0741
17119SOL    HW153364   2.181   4.172   3.462  0.3028  0.6260  0.3545
17119SOL    HW253365   2.182   4.299   3.378 -0.7372  0.4371  0.0439
17120SOL     OW53366   7.254   5.572   6.005  0.0211  0.1367 -0.1294
17120SOL    HW153367   7.248   5.490   5.955  0.1785  0.5927 -0.9097
17120SOL    HW253368   7.174   5.619   5.985  0.1746  0.4109 -0.1050
17121SOL     OW53369   7.866   5.409   7.129 -0.1477 -0.1123  0.5092
17121SOL    HW153370   7.813   5.487   7.112 -0.5134 -0.3042  0.7753
17121SOL    HW253371   7.932   5.438   7.192  1.1543  0.5819 -1.0730
17122SOL     OW53372   5.663   1.646   2.158  0.2834 -0.2246  0.2894
17122SOL    HW153373   5.681   1.699   2.081 -1.7757  0.7938  0.4334
17122SOL    HW253374   5.588   1.689   2.200  0.6965 -1.3258  2.3010
17123SOL     OW53375  10.308   2.120  10.134  0.5441 -0.4883 -0.7087
17123SOL    HW153376  10.317   2.215  10.124 -0.9218 -0.3872 -1.3471
17123SOL    HW253377  10.215   2.107  10.152  0.7233 -1.8107 -0.6811
17124SOL     OW53378   7.593   0.755   2.541 -0.1629 -0.0382  0.5071
17124SOL    HW153379   7.562   0.777   2.628  0.9113  1.0783  0.6353
17124SOL    HW253380   7.557   0.824   2.485 -0.7505 -0.6832  0.0613
17125SOL     OW53381   8.540   3.817   3.045 -0.0557 -0.1556 -0.0158
17125SOL    HW153382   8.581   3.903   3.059 -1.2206  0.3568  0.3698
17125SOL    HW253383   8.498   3.823   2.960  0.4323 -0.5894 -0.2941
17126SOL     OW53384   8.195   4.181  10.727 -0.0431  0.0343  0.4340
17126SOL    HW153385   8.245   4.153  10.651  0.3414 -1.8537  1.3199
17126SOL    HW253386   8.257   4.175  10.800 -0.4037  1.7958  0.9379
17127SOL     OW53387  10.410   5.227   2.915 -0.0661  0.0502 -0.1674
17127SOL    HW153388  10.425   5.283   2.839 -3.1624  1.0180 -0.2046
17127SOL    HW253389  10.414   5.138   2.880  0.5721  0.4001 -1.0193
17128SOL     OW53390   6.308   2.691   2.190  0.6683  0.1672 -0.2796
17128SOL    HW153391   6.395   2.697   2.228  0.7955 -0.7916 -0.3782
17128SOL    HW253392   6.262   2.628   2.247 -0.6069  2.0850  0.9363
17129SOL     OW53393   1.143   1.772   9.287 -0.0615 -0.0468  0.2314
17129SOL    HW153394   1.189   1.749   9.206 -2.3262  0.5477 -1.3324
17129SOL    HW253395   1.206   1.752   9.357  1.4548 -2.0580 -1.5492
17130SOL     OW53396   4.325   5.017   9.900 -0.5888 -0.3550 -0.1148
17130SOL    HW153397   4.342   4.966   9.820 -1.2932  1.0215 -1.1817
17130SOL    HW253398   4.389   5.088   9.897 -2.2572  1.1884 -0.8465
17131SOL     OW53399   7.046   5.421   3.102 -0.0156  0.4838 -0.4458
17131SOL    HW153400   7.066   5.514   3.098  1.1458  0.2924  0.4085
17131SOL    HW253401   7.104   5.381   3.038 -0.3657  0.3231 -0.6644
17132SOL     OW53402   2.237   4.063   6.839 -0.0013  0.0161 -0.1896
17132SOL    HW153403   2.162   4.116   6.811 -0.5968 -1.3130 -1.2376
17132SOL    HW253404   2.239   4.073   6.934 -2.0471 -0.5507 -0.0293
17133SOL     OW53405  10.472   2.724   4.250 -0.2989  0.1798 -0.1170
17133SOL    HW153406  10.443   2.640   4.287  1.2379 -1.2212 -1.8878
17133SOL    HW253407  10.391   2.772   4.233 -1.1595 -0.0642  2.7060
17134SOL     OW53408   9.841   0.961   3.455  0.1071 -1.0747  0.0596
17134SOL    HW153409   9.866   0.922   3.538 -0.5667 -0.9939  0.3109
17134SOL    HW253410   9.918   0.950   3.398  1.3836  0.7772  1.3341
17135SOL     OW53411   4.499   8.804  10.703 -0.8845 -0.1773 -0.2123
17135SOL    HW153412   4.413   8.787  10.664 -1.0999  1.8771 -0.7871
17135SOL    HW253413   4.483   8.876  10.765  0.4055  0.2691 -0.3596
17136SOL     OW53414   4.726   5.522   5.227  0.2045  0.0881  0.2575
17136SOL    HW153415   4.703   5.615   5.227  0.5050  0.1829 -0.8803
17136SOL    HW253416   4.801   5.516   5.286  2.1548  1.1400 -1.9159
17137SOL     OW53417   4.843   2.845  10.749  0.3897  0.1085 -0.0075
17137SOL    HW153418   4.772   2.909  10.745  1.3470  1.2246  0.3145
17137SOL    HW253419   4.888   2.856  10.665  0.5178 -0.2002  0.0231
17138SOL     OW53420   6.538   4.605   7.666 -0.1571  0.2063 -0.1680
17138SOL    HW153421   6.486   4.650   7.599 -2.3937  0.0021  1.3277
17138SOL    HW253422   6.501   4.517   7.671  0.1606  0.1152  1.0790
17139SOL     OW53423   2.566   6.344   3.998 -0.2574 -0.2942 -0.6556
17139SOL    HW153424   2.545   6.362   3.907 -3.3437 -0.0871 -0.0127
17139SOL    HW253425   2.582   6.430   4.037  0.7025 -0.3516 -0.9153
17140SOL     OW53426   8.254   3.907   0.665 -0.1391 -0.1224  0.0629
17140SOL    HW153427   8.208   3.952   0.736  0.0233  3.2936 -1.7398
17140SOL    HW253428   8.185   3.886   0.602  0.1281  0.3329 -0.3920
17141SOL     OW53429   5.469   0.621   9.756  0.0686 -0.5005  0.5868
17141SOL    HW153430   5.515   0.690   9.804 -0.9000  0.2768  0.4401
17141SOL    HW253431   5.401   0.592   9.816  0.0593 -0.8708  0.3982
17142SOL     OW53432   6.927   1.294   1.213 -0.1130 -0.2757 -0.5745
17142SOL    HW153433   6.851   1.350   1.199  0.9093  0.7900 -2.1542
17142SOL    HW253434   6.897   1.206   1.189 -0.6050  0.2812 -2.0710
17143SOL     OW53435   3.763  10.819   3.697 -0.3519 -0.6744 -0.4349
17143SOL    HW153436   3.846  10.774   3.708 -0.2655 -0.6096 -0.8209
17143SOL    HW253437   3.772  10.868   3.615 -0.1542  0.6776  0.3571
17144SOL     OW53438   8.359   6.024   8.844 -0.2400  0.0322  0.0908
17144SOL    HW153439   8.416   6.008   8.769 -0.3136 -1.5662  0.3418
17144SOL    HW253440   8.296   6.089   8.812  0.6827  0.5711 -0.7109
17145SOL     OW53441   9.471   8.409   2.035  0.1459  0.3818 -0.2713
17145SOL    HW153442   9.513   8.495   2.025  1.6065 -0.2466  0.2557
17145SOL    HW253443   9.377   8.429   2.036  0.4654  2.0887  0.6609
17146SOL     OW53444   8.180   0.842   2.691 -0.2344 -0.1625 -0.4952
17146SOL    HW153445   8.171   0.797   2.774 -1.6380  0.3303 -0.3532
17146SOL    HW253446   8.170   0.773   2.625  1.7636 -0.7104 -0.3148
17147SOL     OW53447   6.882   9.132   5.894  0.3634 -0.4373  0.6104
17147SOL    HW153448   6.928   9.210   5.926  1.3593 -1.7622  2.5635
17147SOL    HW253449   6.791   9.160   5.887  0.9242  1.3350 -0.2573
17148SOL     OW53450  11.012  10.117   9.656 -0.0629  0.2835  0.5497
17148SOL    HW153451  11.027  10.063   9.733  2.9711  1.9602  1.3299
17148SOL    HW253452  10.979  10.200   9.691 -0.2568  0.4849 -0.1048
17149SOL     OW53453   3.990   0.653   8.133 -0.3540  0.7233  0.1427
17149SOL    HW153454   4.072   0.696   8.156  0.3504  0.2493 -1.4008
17149SOL    HW253455   3.931   0.674   8.207  0.2672  3.3737  0.0021
17150SOL     OW53456  11.022   8.268   8.283  0.1975  0.1288  0.1760
17150SOL    HW153457  10.993   8.353   8.248  0.5442  0.2488  0.1778
17150SOL    HW253458  10.955   8.206   8.252 -1.4256  0.7569  2.2060
17151SOL     OW53459   6.452  10.914   2.812  0.1128  0.2433  0.2156
17151SOL    HW153460   6.454  10.823   2.783 -0.5618 -0.1811  1.3983
17151SOL    HW253461   6.379  10.918   2.873 -0.9738  2.0028 -1.0937
17152SOL     OW53462   3.007   2.239   6.821 -1.1905  0.7005  0.7946
17152SOL    HW153463   3.009   2.239   6.916 -0.5246  1.8060  0.7921
17152SOL    HW253464   3.095   2.263   6.794 -1.1389 -0.4267 -0.1277
17153SOL     OW53465   1.227   2.909   7.781 -0.2781  0.1268 -0.3984
17153SOL    HW153466   1.278   2.984   7.813 -0.9546  0.2604  0.3823
17153SOL    HW253467   1.289   2.836   7.780  0.4911  0.7628 -1.5195
17154SOL     OW53468  10.748   4.900   9.316  0.4836 -0.3281  0.6548
17154SOL    HW153469  10.716   4.810   9.310  0.7425 -0.3109 -1.6497
17154SOL    HW253470  10.670   4.951   9.338 -0.5028 -0.6857 -1.7547
17155SOL     OW53471   0.246   8.646   9.663 -0.2338  0.0531 -0.5396
17155SOL    HW153472   0.224   8.623   9.753  0.3818 -0.8437 -0.6047
17155SOL    HW253473   0.336   8.679   9.668 -0.5272  0.8822 -0.6936
17156SOL     OW53474   2.055   1.423  10.328  0.7446 -0.0065 -0.1078
17156SOL    HW153475   2.150   1.424  10.316  0.6477  0.3977 -0.9721
17156SOL    HW253476   2.036   1.336  10.362  1.2009 -0.9719 -2.1462
17157SOL     OW53477   7.664   4.604   6.644  0.6243  0.5520  0.0438
17157SOL    HW153478   7.751   4.601   6.605  0.4669  1.4505 -0.3982
17157SOL    HW253479   7.616   4.533   6.601  0.7779  0.8237 -0.5836
17158SOL     OW53480   9.849   8.171   1.607 -0.5168  0.0361 -0.1810
17158SOL    HW153481   9.851   8.103   1.675 -1.3659  0.0245 -0.1673
17158SOL    HW253482   9.757   8.188   1.591 -0.3807 -0.7107 -2.0833
17159SOL     OW53483   5.058   5.277   4.705 -0.1684  0.4359  0.1801
17159SOL    HW153484   5.056   5.184   4.681  1.4564  0.8717 -1.9547
17159SOL    HW253485   5.133   5.284   4.764  0.6160  0.6078 -0.8216
17160SOL     OW53486   1.996  10.531   9.502  0.1434  0.4587  0.4471
17160SOL    HW153487   1.919  10.588   9.498 -0.4074 -0.2090 -4.1539
17160SOL    HW253488   2.069  10.590   9.518 -0.8638  1.8348  0.1219
17161SOL     OW53489   5.188   0.225   2.252  0.3139 -0.0558  0.3246
17161SOL    HW153490   5.221   0.137   2.267  1.1425  0.3479  0.9971
17161SOL    HW253491   5.119   0.237   2.318 -0.5140 -0.5467 -0.4317
17162SOL     OW53492   6.673   3.095   7.016 -0.4699  0.2436  0.4864
17162SOL    HW153493   6.743   3.140   6.969 -0.5400 -2.1402 -2.1541
17162SOL    HW253494   6.714   3.016   7.051 -1.2456  0.2010  1.3322
17163SOL     OW53495   0.291  10.571   8.362  0.6857  0.2472  0.3910
17163SOL    HW153496   0.369  10.554   8.309  0.0354 -1.4735 -0.0857
17163SOL    HW253497   0.311  10.653   8.408  2.8202 -0.1895  0.3644
17164SOL     OW53498  10.390   1.109   9.634  0.4062 -0.3968  0.2695
17164SOL    HW153499  10.398   1.043   9.565 -1.6205 -0.8464  0.4028
17164SOL    HW253500  10.333   1.068   9.699 -1.0057  1.5169  0.3149
17165SOL     OW53501   1.087   1.309   1.724 -0.0337  0.3184 -0.5249
17165SOL    HW153502   1.130   1.287   1.642  0.6662 -0.1476 -0.0469
17165SOL    HW253503   1.093   1.404   1.730  0.5406  0.2957 -0.6857
17166SOL     OW53504   6.780   7.814   1.068  0.4861  0.2092  0.3902
17166SOL    HW153505   6.873   7.793   1.081  0.5172  0.9275  1.4034
17166SOL    HW253506   6.768   7.805   0.973  1.9095  1.3383  0.0563
17167SOL     OW53507   4.690   5.335   3.259 -0.1765 -0.0298  0.4448
17167SOL    HW153508   4.709   5.409   3.201  0.7269 -0.7610 -0.2186
17167SOL    HW253509   4.594   5.331   3.262 -0.2379  0.9765  0.2567
17168SOL     OW53510   5.621   3.672   0.853  0.1020  0.4675 -0.3661
17168SOL    HW153511   5.715   3.675   0.838  0.1375 -0.9366 -0.5586
17168SOL    HW253512   5.592   3.591   0.810 -0.9292  0.0244  1.0915
17169SOL     OW53513   2.942   3.646   8.024 -0.0252 -0.3351 -0.2420
17169SOL    HW153514   2.969   3.555   8.012  0.4805 -0.0756 -1.1325
17169SOL    HW253515   2.937   3.681   7.935  0.2384  0.6349  0.1213
17170SOL     OW53516   2.775   6.956   6.463  0.3155 -0.3268  0.1690
17170SOL    HW153517   2.800   6.926   6.551  1.8306 -1.2997 -0.5559
17170SOL    HW253518   2.699   7.012   6.478  0.2127 -0.8937  2.0496
17171SOL     OW53519   6.785   2.135   1.448  0.8364  0.2783  0.7408
17171SOL    HW153520   6.711   2.196   1.443 -0.5863 -1.3266  1.2626
17171SOL    HW253521   6.747   2.050   1.427  2.5111 -0.6405  1.2644
17172SOL     OW53522   3.103   9.944   1.397  0.1796  0.0837 -0.4356
17172SOL    HW153523   3.107  10.005   1.323  0.2414  0.3847 -0.1860
17172SOL    HW253524   3.031   9.886   1.376 -1.7818  1.9842  0.6527
17173SOL     OW53525   2.816   7.971   2.303  0.0397 -0.2314 -0.4620
17173SOL    HW153526   2.877   8.045   2.308 -0.5818  0.2988 -0.4998
17173SOL    HW253527   2.768   7.986   2.221  1.0151 -1.5701 -1.3175
17174SOL     OW53528   9.545   8.634   8.045 -0.3386  0.0084  0.1022
17174SOL    HW153529   9.608   8.572   8.010 -0.8268  0.2745 -1.2823
17174SOL    HW253530   9.583   8.662   8.129  2.4142  1.7246 -1.5758
17175SOL     OW53531   5.794   9.710   9.801 -0.2705  0.2240 -0.4525
17175SOL    HW153532   5.857   9.642   9.823 -0.2939  0.6204  0.8783
17175SOL    HW253533   5.845   9.790   9.795 -0.3643  0.2376 -1.2856
17176SOL     OW53534   6.168   2.996   6.757  0.5322 -0.1847 -0.2239
17176SOL    HW153535   6.106   3.012   6.828  1.6784 -0.1272  0.7926
17176SOL    HW253536   6.125   3.030   6.679  0.0530  1.5828  0.7642
17177SOL     OW53537   4.291  11.030   6.595 -0.1002 -0.2901  0.0477
17177SOL    HW153538   4.275  11.001   6.684  0.8830 -1.7967 -0.2265
17177SOL    HW253539   4.380  11.064   6.596  0.1223 -0.8378 -0.4737
17178SOL     OW53540   5.595   5.277   3.488 -0.0490  0.1839  0.1074
17178SOL    HW153541   5.589   5.186   3.457 -1.3002  0.0976  0.5650
17178SOL    HW253542   5.687   5.287   3.514  0.7317 -0.1633 -2.2881
17179SOL     OW53543   2.460   8.223   9.968 -0.6085 -0.2244  0.0595
17179SOL    HW153544   2.517   8.292  10.003 -0.5500 -0.4312  0.3736
17179SOL    HW253545   2.384   8.223  10.026 -0.9646  0.1009 -0.4021
17180SOL     OW53546   4.538   9.610   9.267 -0.2259  0.5065 -0.3673
17180SOL    HW153547   4.506   9.556   9.339 -1.3480  0.5683 -0.8057
17180SOL    HW253548   4.570   9.547   9.202 -0.8572  0.3799 -0.5648
17181SOL     OW53549   0.503   7.954   9.335 -0.0410 -0.3606  0.1796
17181SOL    HW153550   0.552   8.032   9.310 -0.1064 -0.0027  1.1134
17181SOL    HW253551   0.418   7.987   9.364 -0.3352 -0.8508 -0.1100
17182SOL     OW53552   9.219  10.354   7.933 -0.0339  0.0656 -0.3254
17182SOL    HW153553   9.182  10.367   7.846  0.5695 -1.1023 -0.7856
17182SOL    HW253554   9.206  10.437   7.978 -0.5508  0.6152 -1.4586
17183SOL     OW53555  10.078   0.398   8.207  0.9519  0.3696  0.1284
17183SOL    HW153556  10.053   0.381   8.116  0.6729 -1.6136  0.5284
17183SOL    HW253557  10.172   0.416   8.203  1.5764 -2.5988 -0.2862
17184SOL     OW53558   9.374   8.386   0.664  0.0881 -0.1786 -0.5441
17184SOL    HW153559   9.408   8.471   0.690  0.0565 -0.2273 -0.3351
17184SOL    HW253560   9.317   8.361   0.737 -0.4270 -0.0752 -0.9062
17185SOL     OW53561   4.088   0.393   1.683 -0.6306  0.1209  0.5627
17185SOL    HW153562   4.156   0.342   1.639 -0.0974  1.9432 -0.9013
17185SOL    HW253563   4.013   0.334   1.689  0.1239 -1.0024 -0.5611
17186SOL     OW53564   2.328   6.150   1.628  0.1810 -0.1040  0.2799
17186SOL    HW153565   2.411   6.148   1.675  0.1209  0.6382  0.4196
17186SOL    HW253566   2.265   6.110   1.688  0.3351 -0.2162  0.3667
17187SOL     OW53567   6.884   4.525   7.187 -0.3798  0.1666  0.0905
17187SOL    HW153568   6.831   4.574   7.251 -0.2240  0.6229 -0.1287
17187SOL    HW253569   6.958   4.492   7.238 -0.7475 -0.2738  0.3484
17188SOL     OW53570  10.577   1.061   6.231 -0.0406 -0.1563 -0.6830
17188SOL    HW153571  10.545   1.152   6.230  1.4167  0.4403 -3.2905
17188SOL    HW253572  10.650   1.063   6.293 -0.6740  0.1652  0.0757
17189SOL     OW53573   3.323   2.665   3.404 -0.5792  0.2047 -0.0460
17189SOL    HW153574   3.301   2.588   3.456  4.3567 -1.4087  0.1966
17189SOL    HW253575   3.340   2.734   3.469 -0.4420  0.0582  0.0752
17190SOL     OW53576   7.740   8.440   6.211 -0.3013  0.8509  0.0484
17190SOL    HW153577   7.652   8.428   6.247  0.0127 -0.1448  0.5171
17190SOL    HW253578   7.795   8.457   6.288 -0.0468  1.2591 -0.2218
17191SOL     OW53579   9.006   4.440   5.649  0.1764  0.1539  0.2172
17191SOL    HW153580   9.091   4.423   5.607  0.4124 -0.4855  0.9176
17191SOL    HW253581   8.988   4.360   5.698 -0.4504  0.5952  0.7193
17192SOL     OW53582   8.461   9.820   1.066  0.1325 -0.5431  0.3197
17192SOL    HW153583   8.400   9.844   0.997  0.1445 -4.5872 -1.3576
17192SOL    HW253584   8.405   9.802   1.142 -0.2862  0.1366  0.1768
17193SOL     OW53585   5.783   9.710  10.458  0.1373  0.2006  0.1840
17193SOL    HW153586   5.802   9.795  10.419  1.6890  0.1285  0.7091
17193SOL    HW253587   5.773   9.651  10.383  1.8588  0.3152 -0.1961
17194SOL     OW53588   7.725   0.487   5.195  0.0017 -0.4166 -0.9124
17194SOL    HW153589   7.660   0.549   5.162 -0.6662  0.6370  2.0515
17194SOL    HW253590   7.695   0.402   5.164 -2.8871  0.0337  0.2845
17195SOL     OW53591   0.319   4.404   6.666  0.1741 -0.1373 -0.0934
17195SOL    HW153592   0.396   4.460   6.656  0.0794  0.0074 -0.0105
17195SOL    HW253593   0.318   4.350   6.587  0.6229 -0.4639  0.1233
17196SOL     OW53594   3.959   2.204   0.904 -0.0424  0.4751  0.0519
17196SOL    HW153595   3.896   2.184   0.834  0.7412 -1.2635 -0.1915
17196SOL    HW253596   4.045   2.194   0.863  0.4465 -1.2110  1.3840
17197SOL     OW53597   7.208   6.953   5.539  0.3535  0.4563  0.5764
17197SOL    HW153598   7.148   6.894   5.584 -1.1401  1.2806 -0.2396
17197SOL    HW253599   7.156   7.032   5.523  0.1339 -0.3469 -4.0499
17198SOL     OW53600   6.965   0.385   3.454 -0.2220  0.7131  0.7334
17198SOL    HW153601   6.957   0.293   3.430  2.2096  0.8591 -0.9799
17198SOL    HW253602   6.924   0.432   3.381 -1.4422  1.0222  1.5939
17199SOL     OW53603   5.244   2.496   1.284 -0.3275 -0.1207 -0.1363
17199SOL    HW153604   5.158   2.502   1.327 -0.5067 -0.8282 -0.3827
17199SOL    HW253605   5.305   2.485   1.357 -0.4148  0.5898  0.0556
17200SOL     OW53606   7.244   0.915   3.088 -0.0975  0.3627  0.0492
17200SOL    HW153607   7.293   0.995   3.104  2.0257 -0.6441 -1.0577
17200SOL    HW253608   7.152   0.942   3.092  0.5024  2.3683  1.9775
17201SOL     OW53609  10.623   9.445   2.043 -0.0407  0.2074 -0.1076
17201SOL    HW153610  10.680   9.400   2.106 -0.3362 -0.6952 -0.4722
17201SOL    HW253611  10.667   9.433   1.958  1.1056  2.6263  0.0562
17202SOL     OW53612   8.761   8.177  10.961  0.0541  0.3296 -0.0055
17202SOL    HW153613   8.708   8.148  11.036 -1.5621 -0.7643 -1.4838
17202SOL    HW253614   8.783   8.268  10.981 -0.5232  0.1356  1.6870
17203SOL     OW53615   4.699   9.707   8.312 -0.1641 -0.2610 -0.1652
17203SOL    HW153616   4.678   9.785   8.363 -0.2915  0.6750 -1.6108
17203SOL    HW253617   4.644   9.638   8.349 -0.2756  0.3919  0.9204
17204SOL     OW53618   1.303   3.913   4.669  0.0634  0.2091 -0.1769
17204SOL    HW153619   1.262   3.873   4.746 -0.2220 -1.1604 -1.0002
17204SOL    HW253620   1.397   3.907   4.686  0.0164 -0.5684 -0.1578
17205SOL     OW53621   5.899   8.545  10.596 -0.4414 -0.0352 -0.3689
17205SOL    HW153622   5.815   8.590  10.595 -0.3759  0.1310  0.5457
17205SOL    HW253623   5.876   8.452  10.606 -0.5595 -0.1690 -1.7578
17206SOL     OW53624   4.950   3.324   8.310  0.1462  0.1421  0.0430
17206SOL    HW153625   4.999   3.253   8.269  0.3107 -0.4135  1.1783
17206SOL    HW253626   4.869   3.330   8.260 -0.8065 -2.2280  1.1882
17207SOL     OW53627   2.225   8.134   0.649  0.6884  0.4261 -0.6091
17207SOL    HW153628   2.184   8.048   0.645 -0.1633  0.8554 -1.9266
17207SOL    HW253629   2.170   8.184   0.710  0.8865  0.1903 -0.2348
17208SOL     OW53630  10.128   1.091   2.838 -0.3756 -0.2293  0.0360
17208SOL    HW153631  10.117   0.996   2.835  1.5772 -0.4923 -0.3427
17208SOL    HW253632  10.123   1.119   2.746 -0.4561 -0.0421  0.0966
17209SOL     OW53633   3.069   7.782  10.376  0.1949 -0.1408 -0.4802
17209SOL    HW153634   3.079   7.857  10.434 -1.0222  0.4037 -0.9231
17209SOL    HW253635   3.060   7.707  10.434 -0.9225  0.3836  0.0546
17210SOL     OW53636   7.715   4.646   0.006  0.2123  0.3000  0.3534
17210SOL    HW153637   7.773   4.628   0.080  0.8611 -1.1943 -0.4843
17210SOL    HW253638   7.701   4.561  -0.035 -2.2426  0.6809  0.2616
17211SOL     OW53639   3.828  10.835   0.711 -0.1620  0.0978 -0.1123
17211SOL    HW153640   3.812  10.769   0.779 -0.4573 -1.0571 -1.2626
17211SOL    HW253641   3.902  10.800   0.661 -0.8648  0.1907 -1.2631
17212SOL     OW53642   3.702   0.856   1.373 -0.3385 -0.3420  0.2152
17212SOL    HW153643   3.607   0.846   1.365 -0.2409 -0.2925 -1.2049
17212SOL    HW253644   3.723   0.931   1.317  0.7497 -1.5142 -1.0034
17213SOL     OW53645   4.174   9.627   3.059  0.5035 -0.3194 -0.3705
17213SOL    HW153646   4.227   9.653   3.134 -1.0008 -0.0115  0.6505
17213SOL    HW253647   4.098   9.685   3.063  0.1617 -0.6270 -1.8671
17214SOL     OW53648   5.176   6.155   0.767 -0.7201  0.0152 -0.8326
17214SOL    HW153649   5.271   6.143   0.761 -0.5222  0.6948  0.4910
17214SOL    HW253650   5.165   6.248   0.785 -1.6391 -0.0970 -0.7728
17215SOL     OW53651   4.269   1.917   9.603 -0.3993  0.0681  0.1241
17215SOL    HW153652   4.239   1.852   9.667  2.2186  0.4029  1.9003
17215SOL    HW253653   4.208   1.990   9.612 -0.3945 -0.0965  1.9847
17216SOL     OW53654   8.226   3.813   2.574  0.1708  0.0074 -0.0188
17216SOL    HW153655   8.191   3.896   2.606 -1.6166 -0.2271 -1.2427
17216SOL    HW253656   8.233   3.758   2.653  0.3967  0.9690  0.6442
17217SOL     OW53657   3.030   1.737  10.469 -0.0368 -0.1304  0.2070
17217SOL    HW153658   3.048   1.766  10.379 -0.7834 -0.4546 -0.0536
17217SOL    HW253659   3.116   1.732  10.510  0.1649  2.2816  0.2220
17218SOL     OW53660   3.610   7.397   8.371 -0.4560  0.3971 -0.4045
17218SOL    HW153661   3.600   7.358   8.285  0.7580 -1.7023  0.3394
17218SOL    HW253662   3.521   7.416   8.400 -1.0827 -1.3714 -1.0485
17219SOL     OW53663   5.834   3.944   5.601  0.4249 -0.0254 -0.3534
17219SOL    HW153664   5.839   4.022   5.547  0.1297 -0.0716 -0.4517
17219SOL    HW253665   5.847   3.872   5.540 -2.6706 -0.2560 -0.9374
17220SOL     OW53666   5.908   3.946   1.541 -0.2485  0.0747 -0.3348
17220SOL    HW153667   5.943   4.022   1.495  3.2431 -0.5838  0.8990
17220SOL    HW253668   5.869   3.982   1.621  1.8651  0.6268  0.5095
17221SOL     OW53669   3.252   0.470   9.661 -0.0499 -0.6836  0.2587
17221SOL    HW153670   3.249   0.524   9.582  3.2929  1.0182  1.1062
17221SOL    HW253671   3.238   0.381   9.630 -3.0948  0.3055 -1.5694
17222SOL     OW53672   2.176   7.011   3.187  0.0111 -0.3431  0.3540
17222SOL    HW153673   2.265   7.038   3.166 -0.5157 -0.1484 -1.8809
17222SOL    HW253674   2.122   7.085   3.159 -0.9655 -1.1679 -0.0006
17223SOL     OW53675   2.269   4.622   4.346  0.4264  0.6683 -0.2260
17223SOL    HW153676   2.191   4.575   4.375  0.1132  1.8328  0.8908
17223SOL    HW253677   2.304   4.568   4.275 -0.0431 -1.1338  0.8464
17224SOL     OW53678   0.176   1.985   9.805  0.3367  0.4535  0.0357
17224SOL    HW153679   0.206   1.997   9.715  1.9864 -1.0601  0.3339
17224SOL    HW253680   0.107   1.920   9.799  1.8167 -1.2017  0.0050
17225SOL     OW53681   4.672   8.362   0.609 -0.2339 -0.5878  0.2807
17225SOL    HW153682   4.754   8.345   0.563 -1.3043 -2.9359 -0.8892
17225SOL    HW253683   4.698   8.419   0.682  2.0359  0.5984 -1.3176
17226SOL     OW53684   3.236   7.889   9.075  0.2093  0.0306  0.0466
17226SOL    HW153685   3.296   7.836   9.023  1.0748  0.2821  0.7659
17226SOL    HW253686   3.293   7.937   9.136 -0.6447  0.9202  0.1709
17227SOL     OW53687   1.378   6.167   5.855  0.4896  0.0203  0.0764
17227SOL    HW153688   1.309   6.231   5.868 -1.0958 -1.4436 -0.7570
17227SOL    HW253689   1.376   6.148   5.761  4.2511  2.3100 -0.6885
17228SOL     OW53690   0.145   0.912   7.915  0.1513  0.4209 -0.1776
17228SOL    HW153691   0.073   0.931   7.976 -0.2129 -0.5799 -0.2626
17228SOL    HW253692   0.214   0.876   7.971 -0.3883 -1.0179 -0.3890
17229SOL     OW53693   8.244  10.997   3.506  0.1693  0.3733  0.1531
17229SOL    HW153694   8.150  11.005   3.488  0.0788  0.7793  0.8126
17229SOL    HW253695   8.250  10.925   3.568  0.3043  0.3141  0.0709
17230SOL     OW53696   4.619   6.733   4.537  0.1184 -0.1108  0.1218
17230SOL    HW153697   4.539   6.720   4.589  0.7940 -0.3216  1.1377
17230SOL    HW253698   4.689   6.698   4.592  0.9563  0.3580 -0.6255
17231SOL     OW53699   4.861  11.048   8.895 -0.0167 -0.2095 -0.2795
17231SOL    HW153700   4.806  10.970   8.884 -0.2466  0.1746 -2.1636
17231SOL    HW253701   4.807  11.109   8.945 -0.6677 -0.4487 -0.6847
17232SOL     OW53702   6.248   5.489   7.820  0.1792  0.0147  0.1080
17232SOL    HW153703   6.320   5.431   7.795  0.6474 -0.0446  1.5038
17232SOL    HW253704   6.169   5.440   7.800  0.5237 -0.1155 -1.0032
17233SOL     OW53705   5.350   4.827  10.257  0.3095  0.3986  0.4777
17233SOL    HW153706   5.406   4.753  10.277 -0.6643 -0.1735  1.1579
17233SOL    HW253707   5.295   4.797  10.184 -0.8642  0.0052  1.4796
17234SOL     OW53708   4.888  11.079   6.476  0.2245 -0.0222  0.0768
17234SOL    HW153709   4.961  11.025   6.447 -0.9822 -1.3900 -0.5406
17234SOL    HW253710   4.899  11.162   6.429  0.8216 -0.5613 -0.7584
17235SOL     OW53711   6.924   5.773   6.821 -0.0099 -0.2943  0.2346
17235SOL    HW153712   6.963   5.805   6.902 -1.4053 -2.8638  2.0714
17235SOL    HW253713   6.999   5.748   6.767  0.9529  1.6125  0.5861
17236SOL     OW53714   9.979   8.113   2.328  0.1652 -0.0156  0.1583
17236SOL    HW153715   9.928   8.190   2.304  1.2480  0.8340  0.5157
17236SOL    HW253716   9.977   8.111   2.423 -0.0924 -0.6190  0.1511
17237SOL     OW53717   3.426   3.004  10.043 -0.0584  0.1740 -0.5737
17237SOL    HW153718   3.463   2.930   9.995  0.5602  0.7089 -0.9438
17237SOL    HW253719   3.340   3.017  10.004  0.2763  0.3462 -1.2812
17238SOL     OW53720   6.192   7.850   3.796  0.4267  0.1721 -0.2248
17238SOL    HW153721   6.195   7.758   3.771 -0.8413  0.3352 -1.0284
17238SOL    HW253722   6.148   7.894   3.723 -0.9571  1.0771  1.0937
17239SOL     OW53723   2.174   0.453   6.083 -0.1796 -0.3836  0.5033
17239SOL    HW153724   2.173   0.549   6.087 -0.8497 -0.4147  1.6741
17239SOL    HW253725   2.208   0.426   6.169 -0.4734 -1.1929  0.3717
17240SOL     OW53726   1.520   2.731   4.466 -0.0582  0.0468 -0.3967
17240SOL    HW153727   1.454   2.701   4.528  0.3156  0.1486  0.0529
17240SOL    HW253728   1.604   2.709   4.506  0.2099  0.9312 -0.4341
17241SOL     OW53729  10.814   0.238  10.437 -0.4607 -0.6638  0.5524
17241SOL    HW153730  10.811   0.334  10.441 -1.6661 -0.7268  1.5803
17241SOL    HW253731  10.908   0.218  10.436 -0.1861  0.5218  0.3212
17242SOL     OW53732  10.815   4.078   5.374 -0.1065 -0.1268 -0.3842
17242SOL    HW153733  10.848   4.028   5.448 -0.2098 -0.9459 -0.8781
17242SOL    HW253734  10.748   4.135   5.412  0.3453 -0.0132  0.2620
17243SOL     OW53735   5.991   9.544   4.442 -0.1650  0.2567  0.0208
17243SOL    HW153736   5.928   9.616   4.439 -1.2242 -0.6594 -1.1747
17243SOL    HW253737   5.942   9.468   4.411  0.9195 -1.0025  1.2389
17244SOL     OW53738   4.393   4.621  10.168 -0.3164 -0.1332 -0.3554
17244SOL    HW153739   4.343   4.594  10.245 -2.5565  0.2973 -1.5420
17244SOL    HW253740   4.358   4.567  10.097  0.3614  0.7474 -1.3946
17245SOL     OW53741   4.424   8.686   2.514 -0.1313 -0.0838  0.3331
17245SOL    HW153742   4.407   8.675   2.607 -0.9057 -0.7129  0.1321
17245SOL    HW253743   4.519   8.678   2.505 -0.0692 -0.1977  1.0369
17246SOL     OW53744   4.629  10.051   2.188 -0.0771 -0.0448  0.4573
17246SOL    HW153745   4.660   9.964   2.163 -0.7364  0.1668 -1.2226
17246SOL    HW253746   4.686  10.112   2.142  0.2162  0.4390  1.4172
17247SOL     OW53747   3.937   1.906   9.790  0.3908 -0.4629 -0.2443
17247SOL    HW153748   3.912   1.814   9.784  3.0304 -1.2406 -0.3473
17247SOL    HW253749   3.883   1.941   9.861 -1.5019 -1.7402 -0.9665
17248SOL     OW53750   9.173   8.093  10.732  0.3262  0.6570 -0.3698
17248SOL    HW153751   9.131   8.052  10.807 -1.0832  0.1137 -1.4218
17248SOL    HW253752   9.104   8.143  10.689  1.4404  2.1630 -0.5201
17249SOL     OW53753   4.140   3.091   4.534  0.2958 -0.4020 -0.0766
17249SOL    HW153754   4.102   3.004   4.544  1.7203 -1.1228 -0.6830
17249SOL    HW253755   4.073   3.140   4.485 -1.4650 -0.4365  2.1459
17250SOL     OW53756   5.767   5.495  10.329 -0.4876 -0.6036  0.5816
17250SOL    HW153757   5.780   5.567  10.267  0.3758  1.6009  3.1364
17250SOL    HW253758   5.798   5.417  10.282  0.4142  0.9697 -1.6135
17251SOL     OW53759   6.226   2.241   4.313 -0.6027  0.2473 -0.0934
17251SOL    HW153760   6.273   2.159   4.326  0.8781  0.8128 -1.5685
17251SOL    HW253761   6.292   2.302   4.281 -1.9257  1.6681 -0.2434
17252SOL     OW53762   7.288   1.281   9.599  0.3554 -0.6923  0.2272
17252SOL    HW153763   7.344   1.282   9.677 -0.5997  0.0119  0.9266
17252SOL    HW253764   7.202   1.309   9.631  0.0944  0.2139 -1.2027
17253SOL     OW53765   2.282   2.559   0.497  0.2002  0.2850 -0.3510
17253SOL    HW153766   2.354   2.620   0.507  0.3932  0.1248 -0.7777
17253SOL    HW253767   2.314   2.492   0.436 -1.1002  1.4340 -2.3985
17254SOL     OW53768   2.928   4.993   9.068 -0.3190  0.0104 -0.0164
17254SOL    HW153769   3.000   4.934   9.046 -1.6118 -1.7177  0.1456
17254SOL    HW253770   2.883   5.009   8.985 -2.1526 -2.3341  0.4190
17255SOL     OW53771   6.499   3.127   8.490  0.3714 -0.5505  0.9520
17255SOL    HW153772   6.521   3.212   8.453 -0.1108 -0.6545  0.4103
17255SOL    HW253773   6.542   3.063   8.433  0.3262 -0.6872  1.0686
17256SOL     OW53774   5.685  10.918   9.502 -0.3712 -0.3542 -0.0096
17256SOL    HW153775   5.700  10.884   9.414 -1.0752 -1.8178  0.4007
17256SOL    HW253776   5.743  10.865   9.558  2.0354  2.2516  0.1834
17257SOL     OW53777   5.903  10.318   6.462  0.1259  0.0869  0.0290
17257SOL    HW153778   5.817  10.347   6.493  0.4255  0.4226  0.5618
17257SOL    HW253779   5.898  10.223   6.461 -0.9920  0.1112 -2.0641
17258SOL     OW53780   4.886   1.677   1.857  0.1893  0.3742 -0.0924
17258SOL    HW153781   4.937   1.714   1.785 -0.4704 -1.0640 -1.3250
17258SOL    HW253782   4.883   1.748   1.922  0.6136  1.7880 -1.5435
17259SOL     OW53783   3.224  10.951   9.424  0.8642  0.3352 -0.3588
17259SOL    HW153784   3.300  10.897   9.448  0.2003 -0.8643 -0.8639
17259SOL    HW253785   3.189  10.982   9.507 -0.1605 -2.0367  0.1910
17260SOL     OW53786   7.355   1.305  11.092  1.1862  0.2045 -0.5658
17260SOL    HW153787   7.315   1.257  11.019  0.2119  2.5772 -1.6921
17260SOL    HW253788   7.281   1.335  11.144  1.7019  1.4042 -0.5034
17261SOL     OW53789   1.770   4.002   0.921 -0.5404  0.1077  0.1561
17261SOL    HW153790   1.695   3.946   0.898 -0.9768  1.3044 -1.5992
17261SOL    HW253791   1.730   4.082   0.957 -0.0014 -0.0347  1.0928
17262SOL     OW53792   3.162   2.189   8.144  0.3448 -0.0148 -0.2270
17262SOL    HW153793   3.241   2.153   8.104 -0.0534 -1.9456  0.6326
17262SOL    HW253794   3.195   2.250   8.210  1.0755  0.1182 -0.6982
17263SOL     OW53795   3.150   2.825  10.888  0.3733 -0.0383  0.6942
17263SOL    HW153796   3.077   2.771  10.918  1.2148 -0.9856  1.0851
17263SOL    HW253797   3.138   2.830  10.793 -0.0677 -0.3908  0.7270
17264SOL     OW53798   8.058   1.881   1.866  0.0703  0.3459 -0.6042
17264SOL    HW153799   7.974   1.851   1.833  0.7920 -1.3372 -1.0258
17264SOL    HW253800   8.044   1.893   1.960 -0.5138 -0.4240 -0.5848
17265SOL     OW53801   7.612   2.417   5.102 -0.9140  0.0628  0.1433
17265SOL    HW153802   7.683   2.358   5.077 -0.7109  0.0580  0.7237
17265SOL    HW253803   7.551   2.414   5.028 -1.5354 -1.8624  0.6736
17266SOL     OW53804   7.406   8.121   9.078 -0.0930 -0.8663 -0.5789
17266SOL    HW153805   7.336   8.179   9.110  1.3273  0.1802  0.7549
17266SOL    HW253806   7.378   8.097   8.990 -1.1475  1.2027 -0.8666
17267SOL     OW53807   2.210   3.735   1.411 -0.4687 -0.2837  0.4373
17267SOL    HW153808   2.255   3.820   1.416 -2.1167  0.5559  2.3515
17267SOL    HW253809   2.141   3.749   1.346  0.8841 -1.0448 -1.2320
17268SOL     OW53810   3.803   5.099   0.910  0.0709  0.2804  0.4636
17268SOL    HW153811   3.854   5.049   0.975  0.1285 -0.5507 -0.2008
17268SOL    HW253812   3.726   5.045   0.893  0.4526  0.0863 -0.7508
17269SOL     OW53813   2.983   3.373   9.843  0.1600  0.0186 -0.7803
17269SOL    HW153814   3.042   3.440   9.806 -0.3825  0.8519 -0.1684
17269SOL    HW253815   2.895   3.402   9.818 -0.2404  0.6714  1.1774
17270SOL     OW53816   4.487   6.256   9.824  0.7484  0.8538  0.9192
17270SOL    HW153817   4.490   6.341   9.778  1.0552  1.0610  1.3181
17270SOL    HW253818   4.403   6.257   9.869  0.0487  0.2826 -0.3164
17271SOL     OW53819   3.657   3.145   0.715 -0.0249 -0.1315 -0.0765
17271SOL    HW153820   3.701   3.069   0.676 -0.0307 -0.7831  1.1058
17271SOL    HW253821   3.590   3.169   0.651 -1.9948 -2.9886  0.6903
17272SOL     OW53822   2.783   9.219  10.620 -0.1273  0.1549  0.5732
17272SOL    HW153823   2.827   9.135  10.612 -0.3248 -0.0515  1.5130
17272SOL    HW253824   2.833   9.278  10.563 -0.4211 -0.7528 -0.6464
17273SOL     OW53825   6.273   4.098   0.845  0.1866  0.3427  0.2112
17273SOL    HW153826   6.201   4.046   0.881 -0.2764  1.9690  1.8107
17273SOL    HW253827   6.247   4.117   0.755 -0.5025 -0.6340  0.1934
17274SOL     OW53828   0.126   4.671   9.897 -0.0514  0.5759 -0.3529
17274SOL    HW153829   0.080   4.642   9.976 -0.5709  2.3973  0.0607
17274SOL    HW253830   0.091   4.615   9.827  0.8947 -1.5093  0.7448
17275SOL     OW53831   3.462   9.622   5.341  0.0928  0.0673 -0.4836
17275SOL    HW153832   3.403   9.698   5.345 -1.4512 -1.1112  1.8526
17275SOL    HW253833   3.529   9.640   5.407 -0.4486 -0.6888  0.2911
17276SOL     OW53834   3.587  11.065  10.781 -0.0099  0.2508 -0.1335
17276SOL    HW153835   3.681  11.052  10.764 -0.3614 -0.8682 -1.3826
17276SOL    HW253836   3.584  11.122  10.858  1.7037  1.1626 -0.6891
17277SOL     OW53837   8.889   8.158   0.173 -0.0502  0.2786  0.2340
17277SOL    HW153838   8.884   8.067   0.200 -0.3486  0.2500  0.0904
17277SOL    HW253839   8.944   8.157   0.095 -0.4349  0.1569 -0.0380
17278SOL     OW53840   5.668   4.557   9.032 -0.0232  0.4236  0.1234
17278SOL    HW153841   5.742   4.559   9.093  0.5998 -1.9906 -0.4224
17278SOL    HW253842   5.592   4.580   9.086  0.8419  0.9007  1.1882
17279SOL     OW53843   6.516   2.562   4.597 -0.4395 -0.2991 -0.3207
17279SOL    HW153844   6.462   2.565   4.519  0.8729 -3.8512 -1.5790
17279SOL    HW253845   6.454   2.554   4.669 -1.6253  0.5873 -1.2124
17280SOL     OW53846   2.396   8.456   2.637  0.3935 -0.2863 -0.3614
17280SOL    HW153847   2.359   8.437   2.551  0.6735 -0.4968 -0.4364
17280SOL    HW253848   2.487   8.479   2.619  0.3354  0.1039 -0.1655
17281SOL     OW53849   5.070   1.222  10.956  0.4873 -0.0509 -0.0981
17281SOL    HW153850   5.049   1.151  11.018 -0.5586 -0.4984 -0.9288
17281SOL    HW253851   5.074   1.300  11.010 -0.3621 -0.4442  0.5691
17282SOL     OW53852   0.768   4.623   4.011  0.6124 -0.0375 -0.6545
17282SOL    HW153853   0.860   4.599   4.025  0.6427  0.5460  0.2923
17282SOL    HW253854   0.722   4.540   4.006  0.8539 -0.3725  1.4386
17283SOL     OW53855   1.579   5.896   1.296 -0.1684 -0.5549 -0.0845
17283SOL    HW153856   1.644   5.899   1.366 -0.1985  2.4776 -0.0578
17283SOL    HW253857   1.625   5.856   1.222  1.5470  0.8514  0.1544
17284SOL     OW53858   6.018   0.384   1.580  0.1906  0.1858 -0.2483
17284SOL    HW153859   5.927   0.391   1.609 -0.1563 -0.4939 -1.1341
17284SOL    HW253860   6.018   0.314   1.516  1.2094  0.6636 -0.8049
17285SOL     OW53861   6.493   6.236   3.726  0.0410  0.4290 -0.1597
17285SOL    HW153862   6.443   6.296   3.781 -0.7021 -0.8262  0.5856
17285SOL    HW253863   6.561   6.201   3.784  0.5667  0.6581 -0.6273
17286SOL     OW53864   3.525   3.796   4.847  0.3258 -0.0247 -0.3014
17286SOL    HW153865   3.540   3.879   4.891  0.8505 -1.2812  2.0818
17286SOL    HW253866   3.432   3.777   4.860  0.4375 -0.2990  0.1366
17287SOL     OW53867   5.880   1.343   7.863  0.5589  0.1534 -0.3765
17287SOL    HW153868   5.825   1.266   7.850  1.4091 -0.1953 -2.2482
17287SOL    HW253869   5.818   1.417   7.863 -0.0597 -0.3507 -0.8975
17288SOL     OW53870   2.199   8.404  10.512  0.5266 -0.0189  0.1572
17288SOL    HW153871   2.129   8.360  10.464  0.5624 -0.4935  0.5285
17288SOL    HW253872   2.244   8.457  10.447 -1.4404  1.9204  0.2715
17289SOL     OW53873   7.724   5.953   4.072  0.0297 -0.4059  0.4457
17289SOL    HW153874   7.681   5.927   4.154 -0.5802  1.4901  0.7830
17289SOL    HW253875   7.716   6.048   4.070  2.2514 -0.1697 -0.6128
17290SOL     OW53876   7.015   3.139   7.946  0.0094 -0.0584 -0.2286
17290SOL    HW153877   6.929   3.111   7.914 -0.2434  0.1111  0.2940
17290SOL    HW253878   7.062   3.057   7.963 -0.0546 -0.1513 -0.4927
17291SOL     OW53879   6.691   5.255   8.209 -0.5193  0.4181  0.0532
17291SOL    HW153880   6.640   5.307   8.271 -0.4379 -0.7068  1.1150
17291SOL    HW253881   6.782   5.275   8.232 -0.4864 -0.2498  0.5513
17292SOL     OW53882   3.393   0.867   2.130 -0.0529  0.2986 -0.5590
17292SOL    HW153883   3.466   0.890   2.072 -0.1703  1.3081 -0.3245
17292SOL    HW253884   3.345   0.949   2.141  0.5901  0.4302  1.8786
17293SOL     OW53885   8.765   2.565   9.025  0.6781  0.3945  0.1432
17293SOL    HW153886   8.833   2.623   8.990  1.5373 -0.0678  1.0137
17293SOL    HW253887   8.717   2.536   8.948  1.6441  0.4991 -0.5196
17294SOL     OW53888   0.838   1.379   0.753  0.5773 -0.6384  0.5755
17294SOL    HW153889   0.746   1.370   0.778 -0.0319 -0.4991 -1.4206
17294SOL    HW253890   0.858   1.471   0.769 -0.6356  0.1407 -1.8570
17295SOL     OW53891   1.883   1.351   6.826  0.2741  0.1077 -0.2200
17295SOL    HW153892   1.910   1.278   6.882 -0.0080  0.5972  0.5812
17295SOL    HW253893   1.960   1.370   6.772  0.6642 -0.1676  0.2309
17296SOL     OW53894   8.501   3.729   4.571  0.0738  0.1889  0.3281
17296SOL    HW153895   8.418   3.742   4.617 -0.5140  1.5112 -1.0210
17296SOL    HW253896   8.502   3.797   4.503  0.7418 -1.8421 -1.8382
17297SOL     OW53897   0.997   0.933   6.729  0.2699 -0.6757  0.6335
17297SOL    HW153898   0.948   1.007   6.692  0.5305 -0.7595  0.1054
17297SOL    HW253899   0.990   0.944   6.823  1.0307  0.5157  0.5702
17298SOL     OW53900   2.005   2.485   3.959 -0.1491  0.4117  0.3273
17298SOL    HW153901   2.061   2.416   3.995 -1.3566 -1.0811 -0.4774
17298SOL    HW253902   1.959   2.521   4.034  1.7993  1.6553  0.9994
17299SOL     OW53903   3.774  10.347   9.771 -0.3565  0.1065  0.4092
17299SOL    HW153904   3.736  10.280   9.714 -0.7854 -0.2833  1.1438
17299SOL    HW253905   3.758  10.429   9.724 -1.2828 -0.1421  0.2617
17300SOL     OW53906   8.504   5.026   8.270 -0.1694  0.3115  0.1191
17300SOL    HW153907   8.490   5.031   8.364  0.8089 -0.5806  0.3435
17300SOL    HW253908   8.523   5.116   8.243  0.2462  0.4709  0.9112
17301SOL     OW53909   1.171   6.968   3.573 -0.6695 -0.4296 -0.1965
17301SOL    HW153910   1.124   7.037   3.525  0.7605  0.3184 -0.5871
17301SOL    HW253911   1.220   6.921   3.505  0.3885 -0.1659  0.3717
17302SOL     OW53912   2.154   3.533   8.326  0.0840 -0.4931  0.0385
17302SOL    HW153913   2.175   3.624   8.307 -0.8755 -0.5256 -1.2822
17302SOL    HW253914   2.073   3.516   8.279 -0.6854 -1.5518  1.6625
17303SOL     OW53915   4.608   0.129   8.859  0.4239 -0.4512  0.0484
17303SOL    HW153916   4.562   0.098   8.937 -0.2185 -1.1602 -0.5869
17303SOL    HW253917   4.602   0.224   8.863  0.4635 -0.4776  0.8914
17304SOL     OW53918   5.074  10.894   2.072 -0.1057 -0.0531  0.1377
17304SOL    HW153919   5.025  10.821   2.109 -1.9473  1.0096 -0.0971
17304SOL    HW253920   5.135  10.919   2.142 -0.6502 -0.7059  0.8679
17305SOL     OW53921   0.362  10.843   3.948  0.7932 -0.1322  0.2707
17305SOL    HW153922   0.457  10.855   3.941  0.6030  1.3148 -0.3427
17305SOL    HW253923   0.333  10.835   3.857  0.2298  0.3472  0.4044
17306SOL     OW53924   8.964   4.608   1.506  0.5911 -0.8985  0.5195
17306SOL    HW153925   9.006   4.681   1.552 -1.5148 -0.1157  1.3793
17306SOL    HW253926   9.036   4.556   1.472  2.2199  0.3295  1.8770
17307SOL     OW53927   4.771   0.747   6.201 -0.0841 -0.6998  0.3783
17307SOL    HW153928   4.711   0.728   6.272  0.3107  1.7313  1.4707
17307SOL    HW253929   4.844   0.687   6.215 -1.0838 -1.9280  0.5344
17308SOL     OW53930   8.053   8.631  10.220 -0.1312 -0.6424  0.2198
17308SOL    HW153931   8.027   8.719  10.195  0.3939 -0.6622 -0.4410
17308SOL    HW253932   8.034   8.577  10.143 -2.1295 -1.4611  1.2240
17309SOL     OW53933  10.805   6.757   9.615 -0.5739  0.5422 -0.6148
17309SOL    HW153934  10.737   6.815   9.581 -0.6386  0.4345 -0.6710
17309SOL    HW253935  10.881   6.773   9.559 -0.5283  0.7146 -0.5084
17310SOL     OW53936   5.158   2.761   2.089  0.2916 -0.3776 -0.7460
17310SOL    HW153937   5.072   2.742   2.127 -0.4887 -0.3693 -2.4075
17310SOL    HW253938   5.216   2.773   2.164 -1.1862 -0.2574  0.4143
17311SOL     OW53939   7.734   1.876   0.015  0.0362  0.0235 -0.0979
17311SOL    HW153940   7.729   1.920   0.100 -0.2080 -1.5102  0.7337
17311SOL    HW253941   7.644   1.872  -0.016 -0.0847 -0.7238  0.3094
17312SOL     OW53942   8.219   8.886   8.416 -0.0909  0.0783 -0.2644
17312SOL    HW153943   8.197   8.797   8.443  0.4372  0.1988  0.6025
17312SOL    HW253944   8.184   8.942   8.486 -0.7309  0.5908 -0.9750
17313SOL     OW53945   6.061   1.658   2.407  0.6010 -0.1797 -0.2821
17313SOL    HW153946   6.069   1.652   2.502 -0.7209 -0.3197 -0.1631
17313SOL    HW253947   5.988   1.601   2.385  1.0951 -0.4101 -1.4327
17314SOL     OW53948   2.815   7.022   7.592  0.1004 -0.4776 -0.2536
17314SOL    HW153949   2.871   7.099   7.585  0.0408 -0.2993  0.9388
17314SOL    HW253950   2.855   6.971   7.663 -0.3909 -1.0947 -0.4139
17315SOL     OW53951   6.661   1.312   8.596 -0.5790 -0.0803 -0.0354
17315SOL    HW153952   6.638   1.229   8.638 -1.0442 -0.6169 -1.3239
17315SOL    HW253953   6.586   1.334   8.542  0.4440  0.0004 -1.4796
17316SOL     OW53954   1.102   6.058   3.839 -0.7321 -0.0177 -0.0638
17316SOL    HW153955   1.078   6.124   3.774  1.3856  0.7612 -0.1433
17316SOL    HW253956   1.072   5.975   3.802  0.5379  0.3911 -2.1276
17317SOL     OW53957   8.369   2.805   0.020 -0.2170  0.1301 -0.5266
17317SOL    HW153958   8.396   2.789   0.110 -3.4149 -0.0076  0.5018
17317SOL    HW253959   8.330   2.722  -0.009 -1.8457  1.0156 -0.9750
17318SOL     OW53960   3.660   8.465   1.558 -0.2763  0.0736 -0.0442
17318SOL    HW153961   3.568   8.441   1.550 -0.0330 -1.5065  1.3906
17318SOL    HW253962   3.676   8.471   1.652  0.9997  0.7381 -0.2797
17319SOL     OW53963   8.600   4.812   2.429 -0.4550  0.5314 -0.5756
17319SOL    HW153964   8.610   4.732   2.378 -0.8444  0.0452  0.0887
17319SOL    HW253965   8.516   4.801   2.474 -0.7120  1.5012 -0.7981
17320SOL     OW53966   1.115   3.423   8.595  0.6146 -0.0314  0.3712
17320SOL    HW153967   1.202   3.442   8.559  1.3278  0.8553  2.4450
17320SOL    HW253968   1.115   3.328   8.611  1.5797  0.1072  1.2543
17321SOL     OW53969   2.334   9.028   2.843 -0.2318  0.4050 -0.0445
17321SOL    HW153970   2.325   8.944   2.798  2.1526 -0.9828  1.8068
17321SOL    HW253971   2.317   9.094   2.776 -3.3078 -1.4636 -1.3214
17322SOL     OW53972   3.361   7.570   0.134 -0.0290 -0.3405  0.6082
17322SOL    HW153973   3.337   7.521   0.055 -0.4813 -0.5238  0.8594
17322SOL    HW253974   3.370   7.503   0.202 -0.4726 -0.0976  0.9089
17323SOL     OW53975   0.014   4.556   9.671 -0.1035 -0.0683  0.3403
17323SOL    HW153976   0.011   4.491   9.600 -0.4029  0.7953 -0.4620
17323SOL    HW253977   0.081   4.618   9.643  0.0739  0.0496  1.0264
17324SOL     OW53978   9.792   8.053   4.661 -0.1610  0.4137 -0.2120
17324SOL    HW153979   9.844   8.129   4.635 -0.9828  0.8828 -0.5524
17324SOL    HW253980   9.775   8.006   4.580  0.4057 -0.1738  0.0096
17325SOL     OW53981   0.446   7.122   3.431  0.2499 -0.4612 -0.0311
17325SOL    HW153982   0.375   7.069   3.468 -1.3125  1.1401 -0.6262
17325SOL    HW253983   0.427   7.127   3.338  0.8233  0.4631 -0.1094
17326SOL     OW53984   7.700   6.058   0.754 -0.3340 -0.3929 -0.7211
17326SOL    HW153985   7.776   6.105   0.719  0.2533 -0.2917  0.6236
17326SOL    HW253986   7.667   6.114   0.824 -2.3294  0.0716 -1.9458
17327SOL     OW53987  10.387   0.355   7.679 -0.3069 -0.1244  0.2832
17327SOL    HW153988  10.469   0.306   7.674 -0.3244 -0.3810  1.8833
17327SOL    HW253989  10.390   0.414   7.604  0.6731 -1.1213 -0.5043
17328SOL     OW53990   2.664   1.972   3.605  0.0824 -0.6460 -0.1313
17328SOL    HW153991   2.701   1.959   3.518  2.4250 -1.3574  0.8787
17328SOL    HW253992   2.651   1.884   3.639 -0.6662 -0.3738  0.3086
17329SOL     OW53993  10.319   5.726   4.766  0.4775  0.7071  0.0684
17329SOL    HW153994  10.397   5.757   4.811  0.8240  2.2258 -1.4321
17329SOL    HW253995  10.274   5.807   4.740 -0.7196 -0.1260 -0.5240
17330SOL     OW53996   4.880   0.453   6.806  0.0482  0.3022 -0.4464
17330SOL    HW153997   4.934   0.431   6.882 -1.2497 -2.1016 -0.1293
17330SOL    HW253998   4.930   0.521   6.761  2.0391  0.0747  1.2224
17331SOL     OW53999   3.429   5.416   0.327 -0.4293 -0.1772 -0.3541
17331SOL    HW154000   3.510   5.418   0.276  0.2604 -2.0495  0.5741
17331SOL    HW254001   3.455   5.441   0.415 -0.5989 -1.8277  0.2053
17332SOL     OW54002   6.506   3.507   0.039 -0.2510 -0.4543  0.0188
17332SOL    HW154003   6.504   3.514  -0.056 -1.4134  1.2089  0.1355
17332SOL    HW254004   6.599   3.496   0.060  0.5446  2.9724 -1.1298
17333SOL     OW54005   3.857   3.447   1.026  0.0577 -0.0694  0.2201
17333SOL    HW154006   3.782   3.433   0.968 -0.5869  0.9717  0.7628
17333SOL    HW254007   3.863   3.542   1.035  3.6691  0.1805 -2.6192
17334SOL     OW54008   1.418   3.954   8.591  0.2757  0.0581  0.2054
17334SOL    HW154009   1.336   3.918   8.556  0.7428 -1.2006  0.3607
17334SOL    HW254010   1.473   3.968   8.514 -0.2537  1.4647  0.0337
17335SOL     OW54011   5.914   4.349   3.412 -0.6646 -0.4922 -0.3363
17335SOL    HW154012   5.986   4.405   3.443 -0.3151 -0.6446 -0.8530
17335SOL    HW254013   5.835   4.401   3.426 -0.3928 -0.0736 -0.3331
17336SOL     OW54014   0.238   3.233  10.759 -0.2030  0.6954 -0.2223
17336SOL    HW154015   0.164   3.240  10.819 -1.7566 -1.3617 -1.7386
17336SOL    HW254016   0.212   3.283  10.682 -1.4110 -2.2583 -1.9096
17337SOL     OW54017   9.294   8.602  10.343  0.8028 -0.5646  0.2306
17337SOL    HW154018   9.299   8.628  10.251  0.8539  0.7860  0.6029
17337SOL    HW254019   9.376   8.632  10.381  1.4135 -2.3786  0.4368
17338SOL     OW54020   1.146  10.814   9.598 -0.2464 -0.4268 -0.2214
17338SOL    HW154021   1.111  10.900   9.619  0.0428 -0.3330 -0.1186
17338SOL    HW254022   1.079  10.753   9.628  0.2919 -0.3120  1.2786
17339SOL     OW54023   2.279   7.333   4.424  0.6158 -0.2315 -0.2007
17339SOL    HW154024   2.221   7.406   4.443  0.4026 -0.4824  0.1367
17339SOL    HW254025   2.367   7.371   4.428  0.4365  0.4484 -2.0903
17340SOL     OW54026   7.564   1.841   6.674  0.0669  0.1455 -0.1060
17340SOL    HW154027   7.588   1.814   6.586  2.6376  0.1765  0.5086
17340SOL    HW254028   7.623   1.913   6.695 -0.0959 -0.2143  1.8305
17341SOL     OW54029   1.359   8.503   5.381 -0.2183  0.3427 -0.4672
17341SOL    HW154030   1.413   8.444   5.327  1.2597  1.7932 -0.6462
17341SOL    HW254031   1.277   8.510   5.333 -1.2309 -3.0122  0.4978
17342SOL     OW54032   7.367   1.409  10.644  0.5658 -0.0803  0.1112
17342SOL    HW154033   7.339   1.324  10.611  0.4667  0.5562 -1.5445
17342SOL    HW254034   7.413   1.389  10.726 -0.1512 -1.6309  0.1654
17343SOL     OW54035   9.216  10.516   1.966 -0.6973 -0.0508 -0.0076
17343SOL    HW154036   9.215  10.537   1.873 -0.3495  0.1209  0.0283
17343SOL    HW254037   9.305  10.488   1.984 -0.8456 -0.3945  0.2084
17344SOL     OW54038   8.797   3.247   2.167 -0.7414 -0.1323 -0.4491
17344SOL    HW154039   8.786   3.192   2.245 -2.9983 -2.2987 -2.1558
17344SOL    HW254040   8.870   3.207   2.120 -1.4815 -0.8326 -1.0119
17345SOL     OW54041   3.297   3.810   0.299 -0.2892  0.1901 -0.5163
17345SOL    HW154042   3.249   3.885   0.266 -0.0287 -0.1452 -1.7098
17345SOL    HW254043   3.382   3.845   0.325  0.6306  0.0320 -3.0323
17346SOL     OW54044   6.192   7.529   4.366 -0.4862  0.2928  0.5836
17346SOL    HW154045   6.102   7.540   4.335 -0.4832  0.3313  0.5882
17346SOL    HW254046   6.182   7.507   4.459 -0.5059 -0.1980  0.4637
17347SOL     OW54047   5.879   5.520   3.105  0.7090 -0.6140  0.1687
17347SOL    HW154048   5.884   5.561   3.019 -0.7056 -1.8888 -0.5756
17347SOL    HW254049   5.968   5.524   3.139  0.5189  4.5229  0.9541
17348SOL     OW54050   8.044   2.488   2.601 -0.2077  0.1660  0.0756
17348SOL    HW154051   8.025   2.580   2.582 -2.2899 -0.9384 -4.4263
17348SOL    HW254052   8.015   2.476   2.691 -0.9215  3.6570  0.4504
17349SOL     OW54053   6.761   3.375   1.915  0.0231  0.4902 -0.5314
17349SOL    HW154054   6.715   3.459   1.919  0.8714  0.9366  0.9050
17349SOL    HW254055   6.850   3.399   1.887  1.1860  0.5868  2.7836
17350SOL     OW54056   2.620   3.078   4.660 -0.2242  0.0817  0.4366
17350SOL    HW154057   2.597   3.169   4.680 -1.1260  0.0673 -0.4722
17350SOL    HW254058   2.699   3.061   4.711  0.3124  1.5737  0.1327
17351SOL     OW54059   7.344   0.824   4.613 -0.1698  0.2237  0.2553
17351SOL    HW154060   7.434   0.842   4.640 -1.1269 -0.1702  4.5897
17351SOL    HW254061   7.291   0.876   4.673 -2.8044 -2.2643  0.3211
17352SOL     OW54062   6.617   6.918  10.430  0.1728 -0.4655  0.3230
17352SOL    HW154063   6.708   6.890  10.419 -0.4604 -2.3159 -0.4982
17352SOL    HW254064   6.604   6.919  10.525  0.5672 -1.9452  0.4240
17353SOL     OW54065   4.085   8.751   8.121  0.2553 -0.3755  0.3664
17353SOL    HW154066   4.010   8.789   8.166 -0.3372 -0.9654 -0.1160
17353SOL    HW254067   4.131   8.827   8.084 -0.6923 -0.0770 -0.2457
17354SOL     OW54068   4.422   4.545   0.879  0.4374  0.6787 -0.7357
17354SOL    HW154069   4.499   4.600   0.864  0.4275  1.0010  0.2737
17354SOL    HW254070   4.349   4.597   0.846  0.2579  1.9426  1.4443
17355SOL     OW54071   7.087  11.006   5.355 -0.5734 -0.4446  0.5931
17355SOL    HW154072   7.029  11.082   5.363  0.8948  0.7981 -0.1833
17355SOL    HW254073   7.072  10.974   5.266 -1.1136 -1.0449  0.8854
17356SOL     OW54074   4.000  10.405   4.870 -0.1213 -0.2355  0.1516
17356SOL    HW154075   4.008  10.490   4.827  2.8291 -0.0766  0.7906
17356SOL    HW254076   3.995  10.342   4.798  0.2756  0.3173 -0.3690
17357SOL     OW54077   1.113   5.752   3.285  0.4097 -0.0451 -0.3728
17357SOL    HW154078   1.025   5.729   3.317  0.8110  2.1947  2.8009
17357SOL    HW254079   1.105   5.843   3.257  1.2402 -0.5514 -2.4669
17358SOL     OW54080   4.693   1.657   8.355 -0.0447  0.4504 -0.5610
17358SOL    HW154081   4.705   1.563   8.365  1.1467  0.4392 -1.8028
17358SOL    HW254082   4.615   1.677   8.408  0.6854 -0.9192  1.1322
17359SOL     OW54083   6.393   1.430   5.243 -0.0184  0.0269  0.1191
17359SOL    HW154084   6.460   1.421   5.175 -0.6990 -0.7483 -0.4768
17359SOL    HW254085   6.412   1.514   5.285  3.1549 -1.4481  1.9853
17360SOL     OW54086   6.662   8.018   2.045 -0.1337 -0.1705  0.0622
17360SOL    HW154087   6.653   8.107   2.008 -1.5770  0.1496  1.1060
17360SOL    HW254088   6.604   7.964   1.991  1.4132 -0.7092 -1.1426
17361SOL     OW54089  10.025   3.174   5.978 -0.7781 -0.9681 -0.1817
17361SOL    HW154090  10.018   3.221   6.061 -0.1149 -0.6635 -0.2877
17361SOL    HW254091   9.935   3.167   5.947 -0.9400 -0.2058  0.0874
17362SOL     OW54092  11.003   7.906   0.679 -0.4497  0.1511 -0.3747
17362SOL    HW154093  10.961   7.910   0.593 -0.8402 -1.5271 -0.3013
17362SOL    HW254094  10.938   7.864   0.735  0.4554 -0.3836  0.2951
17363SOL     OW54095   3.554   0.102  11.021 -0.4144 -0.2461 -0.4476
17363SOL    HW154096   3.536   0.092  11.114 -0.6362  0.5790 -0.3944
17363SOL    HW254097   3.629   0.161  11.017 -1.2166  0.7837 -0.8081
17364SOL     OW54098  10.093   5.003   2.318  0.4609  0.3858 -0.2224
17364SOL    HW154099  10.159   5.035   2.256  0.0693  1.0510 -0.3029
17364SOL    HW254100  10.124   4.916   2.342  0.8710  0.3104 -0.9879
17365SOL     OW54101   7.943   8.323   2.532 -0.4550  0.1899  0.5946
17365SOL    HW154102   7.948   8.316   2.437 -0.8279  1.9988  0.4053
17365SOL    HW254103   7.855   8.295   2.554 -1.0848  1.7168  0.1524
17366SOL     OW54104   4.483   7.114   3.773 -0.2417 -0.6730  0.1838
17366SOL    HW154105   4.512   7.024   3.757 -0.4021 -0.3379 -2.3091
17366SOL    HW254106   4.550   7.169   3.732 -0.7385  0.3099  0.6519
17367SOL     OW54107   4.142   9.199   0.697 -0.0065 -0.5817 -0.6539
17367SOL    HW154108   4.152   9.144   0.775 -1.7563 -1.4148 -0.9686
17367SOL    HW254109   4.185   9.282   0.720 -2.1921 -0.0476  1.9830
17368SOL     OW54110  10.031   3.311  10.937 -0.4937  0.3871  0.0463
17368SOL    HW154111  10.078   3.231  10.961 -1.5976  0.1424  1.5824
17368SOL    HW254112   9.996   3.344  11.020 -2.4823  0.8820 -0.9233
17369SOL     OW54113   3.305   5.292   1.195 -0.3697 -0.6275  0.7703
17369SOL    HW154114   3.339   5.341   1.121  2.4908 -0.6250  1.9592
17369SOL    HW254115   3.212   5.315   1.199 -0.9702 -1.4600 -3.3752
17370SOL     OW54116   9.640   4.330  10.311 -0.4994  0.3504 -0.2344
17370SOL    HW154117   9.592   4.275  10.249 -1.0080 -0.1991  0.6485
17370SOL    HW254118   9.579   4.348  10.382  1.6098 -3.8359  3.1082
17371SOL     OW54119   1.050   6.983   1.350  0.2518 -0.2751 -0.3918
17371SOL    HW154120   1.063   7.077   1.334 -0.7062 -0.3162 -1.5451
17371SOL    HW254121   1.055   6.943   1.264  1.2695 -1.3949  0.1578
17372SOL     OW54122   4.853  10.189   2.119 -0.1805 -0.4617 -0.5663
17372SOL    HW154123   4.864  10.225   2.206  0.2564 -0.5521 -0.5776
17372SOL    HW254124   4.863  10.264   2.060 -1.0909 -0.2946 -0.5173
17373SOL     OW54125   7.824   9.251   9.387  0.2701 -0.2193  0.1791
17373SOL    HW154126   7.772   9.330   9.377 -0.0606 -0.4227  0.2544
17373SOL    HW254127   7.785   9.206   9.463 -0.4723 -1.1585 -0.7197
17374SOL     OW54128   3.384   9.013   0.984 -0.6808  0.4386 -0.1520
17374SOL    HW154129   3.323   9.084   0.965 -2.2228 -1.0836 -1.1139
17374SOL    HW254130   3.328   8.938   1.002  0.9212 -0.9095 -0.6098
17375SOL     OW54131   4.532   1.102   8.257  0.4981  0.1334  0.1899
17375SOL    HW154132   4.490   1.040   8.197 -0.1438  2.0023 -1.3900
17375SOL    HW254133   4.533   1.185   8.210  1.4934  1.3260  2.1533
17376SOL     OW54134   7.824   3.097   1.030 -0.1787  0.2649  0.3616
17376SOL    HW154135   7.757   3.048   1.077 -1.1588  2.7007  1.6607
17376SOL    HW254136   7.903   3.043   1.037 -1.7119 -2.2326 -0.4181
17377SOL     OW54137   7.300   4.112  10.068 -0.0438 -0.4851  0.1471
17377SOL    HW154138   7.272   4.024  10.043 -1.3233 -0.5733  1.7332
17377SOL    HW254139   7.278   4.119  10.161  1.6872  0.8792  0.5083
17378SOL     OW54140   7.110   5.926   0.983  0.0265 -0.6639  0.1204
17378SOL    HW154141   7.191   5.890   1.020  1.5334  0.8667 -1.5088
17378SOL    HW254142   7.121   5.918   0.888 -1.0196  1.0407 -0.1892
17379SOL     OW54143   8.126   6.590   7.962  0.3403 -0.0984  0.2862
17379SOL    HW154144   8.047   6.595   8.015 -0.1423  0.8303 -0.4961
17379SOL    HW254145   8.181   6.662   7.993  0.0325  0.4831 -0.4834
17380SOL     OW54146   4.505   9.623   2.862 -0.1323 -0.1664 -0.3283
17380SOL    HW154147   4.461   9.684   2.922  2.7195 -0.4597  2.3275
17380SOL    HW254148   4.570   9.677   2.817  0.3130 -0.6598 -0.2815
17381SOL     OW54149   6.517   5.101  10.618 -0.1022 -0.0829  0.0375
17381SOL    HW154150   6.597   5.073  10.575  0.4218 -0.6069  1.2877
17381SOL    HW254151   6.546   5.134  10.703 -1.1026  0.8000  0.0613
17382SOL     OW54152   9.764  10.653   9.386  0.9087 -0.8151 -0.3275
17382SOL    HW154153   9.853  10.624   9.366  1.2512 -0.5083  0.6816
17382SOL    HW254154   9.776  10.737   9.431  0.0972 -0.6548 -0.4052
17383SOL     OW54155   6.201   5.612   8.664  0.3096  0.1586 -0.2945
17383SOL    HW154156   6.244   5.664   8.597  1.5246 -2.5345 -1.7615
17383SOL    HW254157   6.138   5.558   8.615 -2.4166  1.5618  1.4001
17384SOL     OW54158   8.963   2.625  10.685  0.2921 -0.4874 -0.0301
17384SOL    HW154159   8.998   2.649  10.771  0.9315 -2.5390  0.3360
17384SOL    HW254160   9.037   2.634  10.625 -0.3931  1.8941 -0.6204
17385SOL     OW54161   0.232   2.409  11.059 -0.0530  0.0381 -0.2852
17385SOL    HW154162   0.327   2.405  11.054 -0.0498  0.7489 -0.8372
17385SOL    HW254163   0.214   2.478  11.123 -0.2017  0.1705 -0.4698
17386SOL     OW54164   3.147   8.008   9.950  0.2755  0.1114  0.0062
17386SOL    HW154165   3.056   7.997   9.976  0.2627  1.1203  0.4338
17386SOL    HW254166   3.143   8.062   9.870  0.5360  1.1205  0.6588
17387SOL     OW54167   3.584   1.074   2.079 -0.1450 -0.5114 -0.4242
17387SOL    HW154168   3.664   1.093   2.029 -0.0896 -0.0095 -0.1562
17387SOL    HW254169   3.517   1.127   2.037 -0.4667 -1.3507 -0.9923
17388SOL     OW54170  10.912   5.194   6.591 -0.3873 -0.3657  0.3801
17388SOL    HW154171  10.909   5.267   6.529 -1.3208 -0.3371  0.4556
17388SOL    HW254172  10.821   5.166   6.600 -0.2117 -0.6252  1.4418
17389SOL     OW54173   5.232   2.342   9.794 -0.2060 -0.2373 -0.3425
17389SOL    HW154174   5.295   2.321   9.724  1.6712  1.4702  0.7356
17389SOL    HW254175   5.247   2.275   9.860  1.8278  1.0705  0.6558
17390SOL     OW54176   4.450   0.748   1.785 -0.5844  0.0852  0.0169
17390SOL    HW154177   4.448   0.737   1.880 -1.8657  0.3619  0.0450
17390SOL    HW254178   4.401   0.672   1.752 -0.5604  0.2477 -0.3932
17391SOL     OW54179   3.919   2.913   2.733  0.0675 -0.6385  0.2016
17391SOL    HW154180   3.828   2.887   2.746  0.4222 -1.1179  1.9540
17391SOL    HW254181   3.969   2.855   2.790  1.3642  0.4695  0.2482
17392SOL     OW54182   3.556   2.890   2.065  0.0152  0.0424  0.0336
17392SOL    HW154183   3.577   2.805   2.103 -0.9828  0.7185  2.3005
17392SOL    HW254184   3.597   2.889   1.978  1.6970 -1.9681  0.7690
17393SOL     OW54185   5.812   9.974   0.208 -0.2719 -0.2544  0.2153
17393SOL    HW154186   5.747   9.924   0.257  1.0387 -1.4414  0.8016
17393SOL    HW254187   5.836   9.918   0.134  1.3813 -0.6732  1.0073
17394SOL     OW54188   3.159   3.163   4.754 -0.2114 -0.7282  0.4590
17394SOL    HW154189   3.092   3.230   4.766  0.4487 -0.0043  0.2232
17394SOL    HW254190   3.117   3.096   4.701 -1.1831 -0.9633  1.4964
17395SOL     OW54191   8.766   3.978   6.442 -0.2974  0.5735  0.1111
17395SOL    HW154192   8.721   4.053   6.404 -1.0265 -0.5938 -1.4330
17395SOL    HW254193   8.855   3.984   6.408 -0.9656 -0.5139 -1.9858
17396SOL     OW54194   6.371   8.529   4.127 -1.0448  0.2155 -0.0334
17396SOL    HW154195   6.443   8.509   4.187 -0.1291 -0.7672 -1.4033
17396SOL    HW254196   6.407   8.595   4.068 -1.0867 -0.6567 -1.0481
17397SOL     OW54197   1.743   2.927   7.027  0.1611  0.3112  0.0346
17397SOL    HW154198   1.763   3.016   7.057 -0.2821  0.4410 -0.0557
17397SOL    HW254199   1.807   2.910   6.958  0.8247  0.2251  0.6614
17398SOL     OW54200   5.916   1.933  10.629  0.1497  0.0876 -0.1680
17398SOL    HW154201   5.837   1.984  10.609 -0.8791 -1.3499  0.0493
17398SOL    HW254202   5.883   1.857  10.677  1.7060 -0.4714  0.0515
17399SOL     OW54203   7.488   1.036   5.857  0.0251  0.6263 -0.2834
17399SOL    HW154204   7.473   1.129   5.875 -2.8040  0.0375  0.8895
17399SOL    HW254205   7.507   0.997   5.942  1.3177  0.1134 -0.7845
17400SOL     OW54206   9.767   7.160   3.419  0.0181  0.1132  0.0744
17400SOL    HW154207   9.818   7.189   3.495  0.3919 -0.8878  0.2252
17400SOL    HW254208   9.789   7.067   3.410 -0.6745  0.0199 -0.7493
17401SOL     OW54209   6.079   0.571   9.038  0.1402  0.1627  0.9271
17401SOL    HW154210   6.077   0.518   8.958  2.0313  0.7750  0.4281
17401SOL    HW254211   6.071   0.508   9.109 -0.1196 -0.5299  0.3011
17402SOL     OW54212   2.808   8.514  10.391 -0.0986  0.3425  0.2736
17402SOL    HW154213   2.726   8.529  10.437  0.3327  0.0110  1.1824
17402SOL    HW254214   2.783   8.501  10.300 -1.0352  0.3505  0.5203
17403SOL     OW54215   2.973   7.214   0.036  0.1456  0.2819 -0.6757
17403SOL    HW154216   2.919   7.286   0.069  1.9210  1.5064 -0.2819
17403SOL    HW254217   2.982   7.154   0.110  0.4827  0.7927 -0.3015
17404SOL     OW54218   5.796   6.960   2.599 -0.2950 -0.3581 -0.0188
17404SOL    HW154219   5.884   6.936   2.627 -0.7974 -1.6059  0.5584
17404SOL    HW254220   5.738   6.921   2.664 -1.2694  0.8123 -0.1432
17405SOL     OW54221   6.572   5.966   9.492  0.1960  0.1062 -0.0258
17405SOL    HW154222   6.541   5.963   9.582 -2.5842  2.1438 -0.7845
17405SOL    HW254223   6.598   5.876   9.472 -3.9981 -1.6163  1.2698
17406SOL     OW54224   7.209   4.273   2.699  1.1689 -0.6564  0.0389
17406SOL    HW154225   7.197   4.193   2.649  1.8745  0.2400 -1.6207
17406SOL    HW254226   7.120   4.301   2.721  0.8553 -1.0614 -0.6989
17407SOL     OW54227   7.703   7.318   9.898  0.2780 -0.4049  0.1894
17407SOL    HW154228   7.753   7.384   9.850  0.0503 -0.9014 -0.7632
17407SOL    HW254229   7.745   7.314   9.984  0.9910  0.1780 -0.1180
17408SOL     OW54230   9.613   1.894   2.536 -0.3914  0.5923 -0.7449
17408SOL    HW154231   9.522   1.900   2.507 -0.0357  0.3045 -1.9519
17408SOL    HW254232   9.619   1.956   2.609 -1.3853  1.0992 -1.0843
17409SOL     OW54233   0.314  10.419   4.994  0.3618 -0.2906  0.0262
17409SOL    HW154234   0.327  10.514   4.989  2.0207 -0.4395  0.9194
17409SOL    HW254235   0.324  10.390   4.903  1.6229  0.2151 -0.0283
17410SOL     OW54236   1.378   4.651   5.170  0.7673  0.1095  0.2646
17410SOL    HW154237   1.421   4.736   5.172  1.1337 -0.0374 -0.7708
17410SOL    HW254238   1.348   4.641   5.080  1.1496 -1.0587  0.2480
17411SOL     OW54239   9.707  10.294   6.312 -0.4316  0.6185 -0.3416
17411SOL    HW154240   9.628  10.306   6.365 -0.4319  3.6410 -0.8218
17411SOL    HW254241   9.751  10.380   6.315  1.1196  0.0121 -2.7609
17412SOL     OW54242   2.553   7.168   6.555 -0.5351  0.4160 -0.0954
17412SOL    HW154243   2.586   7.174   6.466  0.0893  0.4193  0.1304
17412SOL    HW254244   2.628   7.191   6.610 -0.0472 -2.3593  0.5675
17413SOL     OW54245   9.674   6.001   0.886 -0.1038  0.4242  0.0486
17413SOL    HW154246   9.734   6.030   0.955  1.2271 -2.6658  0.3130
17413SOL    HW254247   9.609   5.948   0.932 -1.6189  1.6450 -0.5949
17414SOL     OW54248   5.812   4.120   2.982  0.2938  0.5234  0.4971
17414SOL    HW154249   5.738   4.068   3.010 -0.4854  1.5284  0.3768
17414SOL    HW254250   5.832   4.177   3.056 -1.6858  3.0873 -0.7797
17415SOL     OW54251   2.005   7.600   7.624  0.4363  0.4073  0.0647
17415SOL    HW154252   1.951   7.669   7.662  0.8946  0.1738  1.2010
17415SOL    HW254253   2.004   7.530   7.690  1.7267  0.2041 -0.1027
17416SOL     OW54254   6.263   8.530   3.702  0.1674  0.2004  0.1309
17416SOL    HW154255   6.287   8.459   3.762 -1.0063  0.0619  0.4594
17416SOL    HW254256   6.263   8.609   3.757  0.4516  0.2940 -0.0022
17417SOL     OW54257   6.291   4.351   3.961 -0.3498  0.1754 -0.3915
17417SOL    HW154258   6.234   4.348   3.884  0.4402 -0.9524 -0.9744
17417SOL    HW254259   6.301   4.444   3.980 -0.2802  0.4993 -1.8791
17418SOL     OW54260   9.760   8.154   8.112 -0.2955 -0.1813  0.2707
17418SOL    HW154261   9.845   8.112   8.098 -1.1416 -2.0343  0.3294
17418SOL    HW254262   9.760   8.229   8.052  1.4866  0.0541  0.5079
17419SOL     OW54263   4.321   3.867   9.787  0.6893 -0.1699  0.2819
17419SOL    HW154264   4.273   3.790   9.755  0.9073 -0.1257 -0.1522
17419SOL    HW254265   4.253   3.921   9.828  0.3777 -0.1571 -0.2357
17420SOL     OW54266   6.932   5.984   3.783  1.0862  0.0215 -0.1988
17420SOL    HW154267   6.929   5.935   3.865  1.5184  1.8728  0.9808
17420SOL    HW254268   6.861   6.048   3.790  1.1694  0.2579 -1.2511
17421SOL     OW54269   2.741   5.732  11.051 -0.4402 -0.3612 -0.0693
17421SOL    HW154270   2.740   5.667  11.121  0.1376  0.8639  1.1167
17421SOL    HW254271   2.816   5.789  11.071 -1.1229  0.8836 -0.8709
17422SOL     OW54272   3.928   3.123   9.485 -0.4353 -0.0741 -0.4384
17422SOL    HW154273   3.927   3.077   9.401 -0.3951  1.4940 -1.3258
17422SOL    HW254274   4.018   3.155   9.494 -0.4084 -0.3173  0.2665
17423SOL     OW54275   5.465   6.165   1.982  0.6597 -0.0554  0.2115
17423SOL    HW154276   5.408   6.122   1.918  0.1798 -1.4928  1.5194
17423SOL    HW254277   5.426   6.251   1.995 -0.9157 -0.7697  0.5986
17424SOL     OW54278   3.294   4.657   9.781 -0.3181  0.3501  0.2389
17424SOL    HW154279   3.311   4.563   9.770  0.1130  0.3918  0.5084
17424SOL    HW254280   3.374   4.691   9.822 -0.6842  0.7327  0.6509
17425SOL     OW54281   4.035   6.059   3.954  0.2777 -0.2333 -0.1289
17425SOL    HW154282   4.037   6.130   3.890 -0.1302 -0.1890 -0.0951
17425SOL    HW254283   3.944   6.057   3.984  0.2101 -0.9915 -0.3720
17426SOL     OW54284   5.853   0.556   9.501 -0.1554 -0.0526  0.1285
17426SOL    HW154285   5.850   0.466   9.532 -0.0896 -0.1838 -0.2407
17426SOL    HW254286   5.762   0.586   9.506 -0.0069  0.2324  1.3215
17427SOL     OW54287   3.742   7.189   9.732  0.8291  0.3522 -0.4332
17427SOL    HW154288   3.750   7.174   9.638 -0.0601 -0.3440 -0.4147
17427SOL    HW254289   3.663   7.242   9.741  1.4764  1.2851 -0.1471
17428SOL     OW54290   9.623   7.139   3.139  0.4079 -0.6134 -0.2055
17428SOL    HW154291   9.681   7.087   3.194 -1.1037 -1.7201  0.4414
17428SOL    HW254292   9.647   7.229   3.157  0.3485 -0.9524  1.8913
17429SOL     OW54293   3.662   6.997   4.651  0.1128 -0.5443 -0.0811
17429SOL    HW154294   3.604   7.073   4.642  1.2334  0.1974 -1.5951
17429SOL    HW254295   3.604   6.921   4.642 -1.0500  0.0973  1.6152
17430SOL     OW54296  10.049   2.415   1.558  0.1199 -0.1385 -0.0429
17430SOL    HW154297   9.973   2.362   1.536  0.0688 -0.1571  0.1852
17430SOL    HW254298  10.111   2.353   1.598  0.0883 -0.0407  0.1572
17431SOL     OW54299   1.408   5.705   2.718 -0.1796 -0.3288  0.2543
17431SOL    HW154300   1.414   5.759   2.797  0.1935 -1.2372  0.8803
17431SOL    HW254301   1.427   5.764   2.646  2.5920 -0.0482  1.0771
17432SOL     OW54302   3.683  10.747  10.469  0.1790  0.4478  0.5271
17432SOL    HW154303   3.773  10.778  10.470  0.1056  0.6612  1.0474
17432SOL    HW254304   3.638  10.805  10.407  0.2818  0.6962  0.6824
17433SOL     OW54305   8.602   7.588   1.624 -0.1755 -0.3573  0.1598
17433SOL    HW154306   8.670   7.654   1.617  1.1660 -1.7829 -0.9764
17433SOL    HW254307   8.528   7.625   1.576 -0.2110  1.1696  1.3253
17434SOL     OW54308   6.577   3.735   1.511 -0.7670 -0.2457 -0.0017
17434SOL    HW154309   6.561   3.765   1.421  2.0061  0.1784 -0.4568
17434SOL    HW254310   6.496   3.753   1.558 -1.7025  1.1331 -2.0250
17435SOL     OW54311   6.624   9.576   4.846  0.0337 -0.9957  0.2937
17435SOL    HW154312   6.703   9.523   4.835 -1.1663 -2.4837 -1.8057
17435SOL    HW254313   6.656   9.667   4.843  1.6054 -1.5187 -1.7899
17436SOL     OW54314   2.973   3.836   1.492  0.4249  0.4953 -0.2050
17436SOL    HW154315   2.891   3.872   1.458  0.8361  1.6898  0.0174
17436SOL    HW254316   2.978   3.867   1.583  0.9808  0.1907 -0.1224
17437SOL     OW54317   4.257   7.868   4.843  0.6542  0.5256  0.5418
17437SOL    HW154318   4.279   7.961   4.843 -1.9378  1.2680 -1.6620
17437SOL    HW254319   4.308   7.831   4.772  0.3688  0.6647  0.2608
17438SOL     OW54320   1.139   9.747   1.271 -0.0813 -0.0085  0.1781
17438SOL    HW154321   1.165   9.741   1.179 -3.2202  2.0104 -1.0344
17438SOL    HW254322   1.209   9.796   1.313  1.3220 -0.7969 -1.1357
17439SOL     OW54323   3.958   4.460   5.783  0.2114  0.3610  0.2513
17439SOL    HW154324   4.050   4.476   5.807 -0.2241  0.9003  1.6611
17439SOL    HW254325   3.960   4.376   5.737  1.4520  0.5353 -0.0678
17440SOL     OW54326   7.469   5.310   1.574  0.1932  0.1971  0.6357
17440SOL    HW154327   7.512   5.377   1.627 -0.4487  0.8083  0.4016
17440SOL    HW254328   7.423   5.254   1.637  1.9340 -0.9489  0.9605
17441SOL     OW54329   1.356   1.465   9.769 -0.5101 -0.2474  0.7703
17441SOL    HW154330   1.312   1.535   9.720 -0.7274 -0.4333  0.6951
17441SOL    HW254331   1.292   1.394   9.772  0.6573 -1.5359 -1.5946
17442SOL     OW54332   5.457   6.950   9.830  0.1741  0.1610  1.1677
17442SOL    HW154333   5.430   6.992   9.749  1.3271 -0.9596  0.1356
17442SOL    HW254334   5.430   7.010   9.899 -0.4460  1.3632 -0.0687
17443SOL     OW54335   6.270   2.816   0.851  0.6515 -0.3037 -0.5511
17443SOL    HW154336   6.213   2.820   0.774 -0.0188  2.1423 -0.0051
17443SOL    HW254337   6.266   2.725   0.879 -0.1199 -0.9647 -2.6416
17444SOL     OW54338  10.176   7.910   4.390 -0.3393 -0.0087  0.1322
17444SOL    HW154339  10.214   7.962   4.461  1.3841 -0.4583 -0.4177
17444SOL    HW254340  10.241   7.843   4.371 -1.6503 -1.1605 -0.5267
17445SOL     OW54341   6.852   6.429   8.071 -0.3093  0.4352  0.1244
17445SOL    HW154342   6.772   6.447   8.023  0.1151  1.5783 -0.1836
17445SOL    HW254343   6.916   6.489   8.034  0.2905  0.6175  1.4217
17446SOL     OW54344   5.006   3.701  10.981  0.3800  0.0518  0.1878
17446SOL    HW154345   5.003   3.774  11.043 -0.3994 -0.0246  0.2488
17446SOL    HW254346   5.050   3.738  10.904 -1.0747  0.9844 -0.2571
17447SOL     OW54347   3.016   9.933   4.865  0.2704  0.2229 -0.3049
17447SOL    HW154348   3.040   9.957   4.776 -1.8952  0.2578 -0.9475
17447SOL    HW254349   3.053   9.846   4.878  0.0497 -0.0539 -1.4853
17448SOL     OW54350  10.105   9.993   5.414 -0.0580  0.0783  0.0998
17448SOL    HW154351  10.191   9.971   5.379  0.1150  0.8988 -0.0013
17448SOL    HW254352  10.118  10.075   5.461 -0.8340  0.3421 -0.1327
17449SOL     OW54353   7.041   6.790   1.393  0.1835  0.8902 -0.3837
17449SOL    HW154354   6.973   6.734   1.356  0.5011  0.0117  0.3176
17449SOL    HW254355   6.997   6.840   1.461  0.2602  0.2255  0.1601
17450SOL     OW54356   4.303   1.513   0.065 -0.1220 -0.1125  0.0087
17450SOL    HW154357   4.291   1.464   0.147  1.7651 -1.0741 -0.2412
17450SOL    HW254358   4.334   1.448   0.003 -0.2081  0.8926 -1.1134
17451SOL     OW54359   0.449   6.919   8.081  0.1177 -0.3800  0.2234
17451SOL    HW154360   0.434   6.881   7.995  0.0336  1.0487 -0.4299
17451SOL    HW254361   0.451   7.014   8.065 -0.1751 -0.0690  1.8246
17452SOL     OW54362   6.032   6.707   7.977 -0.3697 -0.4193 -0.4587
17452SOL    HW154363   6.099   6.708   8.046 -0.5166 -0.1057 -0.3186
17452SOL    HW254364   6.000   6.616   7.976 -0.9215 -0.2426  0.4292
17453SOL     OW54365  10.464  11.091  10.669 -0.4917  0.4135 -0.4920
17453SOL    HW154366  10.476  11.168  10.612 -0.4430  0.5757 -0.2626
17453SOL    HW254367  10.495  11.017  10.616  0.7410  0.7196 -0.2099
17454SOL     OW54368   6.985   8.225   1.003  0.0530 -0.4429  0.7963
17454SOL    HW154369   7.024   8.215   1.090  0.7280 -3.0646  0.2751
17454SOL    HW254370   6.897   8.258   1.020  0.6565  0.4389  2.3711
17455SOL     OW54371   2.392   2.147   2.240  0.1575 -0.2797 -0.0367
17455SOL    HW154372   2.432   2.086   2.178 -0.5551 -0.4571 -0.3250
17455SOL    HW254373   2.420   2.234   2.209 -0.1330 -0.3708 -0.5646
17456SOL     OW54374   5.277   5.741  10.596 -0.4953  0.2477 -0.1022
17456SOL    HW154375   5.316   5.769  10.513 -0.4726 -0.8869 -0.4804
17456SOL    HW254376   5.331   5.668  10.625 -1.3609 -0.2901  0.1887
17457SOL     OW54377   3.147   5.342   7.276  0.0769  0.2080 -0.2952
17457SOL    HW154378   3.109   5.275   7.218  0.5099 -0.3828  0.0914
17457SOL    HW254379   3.104   5.328   7.360  1.5314 -0.8437  0.3042
17458SOL     OW54380   2.532   8.423   8.524 -0.5335 -0.4859  0.6050
17458SOL    HW154381   2.452   8.377   8.499 -0.7208  0.2144 -0.1457
17458SOL    HW254382   2.596   8.399   8.457 -0.4009 -0.2841  0.6571
17459SOL     OW54383   0.154   0.882   5.715 -0.5450 -0.6620  0.3861
17459SOL    HW154384   0.227   0.853   5.771  0.8524  0.4187 -0.7990
17459SOL    HW254385   0.135   0.806   5.660  2.0414 -0.0186 -1.6200
17460SOL     OW54386   7.850  10.546   4.304 -0.3428  0.0205 -0.2676
17460SOL    HW154387   7.836  10.580   4.392  0.3958 -0.6477  0.1177
17460SOL    HW254388   7.762  10.539   4.267 -0.7353 -0.5086  0.7256
17461SOL     OW54389   2.708   4.040   8.590  0.0512  0.0790 -0.6623
17461SOL    HW154390   2.697   4.095   8.667  3.4267  0.4479 -0.2798
17461SOL    HW254391   2.654   4.080   8.522 -2.4945  0.1115  1.2566
17462SOL     OW54392   3.854   6.454   4.376 -0.0604 -0.4723 -0.3419
17462SOL    HW154393   3.866   6.518   4.447 -2.2134  0.1469 -0.4567
17462SOL    HW254394   3.837   6.371   4.421  0.3209 -0.4532 -0.1603
17463SOL     OW54395   5.654   4.225   3.379  0.5648  0.0891  0.5074
17463SOL    HW154396   5.607   4.150   3.342 -0.2615  0.6119  0.4743
17463SOL    HW254397   5.746   4.207   3.360  0.2434 -0.1559 -0.8984
17464SOL     OW54398   8.353   5.547  10.857 -0.7563  0.2938 -0.0146
17464SOL    HW154399   8.354   5.494  10.777 -0.8467 -0.6462  0.5854
17464SOL    HW254400   8.261   5.566  10.872 -0.6904  1.0384 -0.4789
17465SOL     OW54401   3.830   7.338   9.261  0.0662 -0.0673  0.8900
17465SOL    HW154402   3.760   7.346   9.325 -0.3197  2.4391  0.2605
17465SOL    HW254403   3.797   7.276   9.196 -1.0797  0.1836  1.2244
17466SOL     OW54404   1.887   7.176  10.873  0.3958 -0.1388 -0.0880
17466SOL    HW154405   1.840   7.158  10.792  1.4495  0.8045 -0.9470
17466SOL    HW254406   1.826   7.228  10.925 -0.0802 -0.2440 -0.5320
17467SOL     OW54407   4.038   6.724   0.545  0.8260  0.3138  0.2921
17467SOL    HW154408   4.009   6.786   0.612  1.0890  0.4192  0.3113
17467SOL    HW254409   3.995   6.754   0.465  0.5979  0.2529  0.3895
17468SOL     OW54410  10.830   6.555   0.863  0.5496 -0.3377  0.2203
17468SOL    HW154411  10.888   6.629   0.846 -0.3592  0.3082 -0.1780
17468SOL    HW254412  10.806   6.564   0.955  0.0546  0.1582  0.0476
17469SOL     OW54413   8.504   4.222   9.052 -0.4966 -0.0978 -0.5088
17469SOL    HW154414   8.540   4.297   9.099  0.6451  0.2689 -1.9060
17469SOL    HW254415   8.575   4.158   9.052 -1.9621 -1.8502  1.9912
17470SOL     OW54416   3.865   7.582   0.445 -0.1554 -0.4069 -0.0950
17470SOL    HW154417   3.803   7.644   0.483 -1.0344 -1.4771  0.2833
17470SOL    HW254418   3.821   7.497   0.451 -0.1036 -0.7494 -2.9484
17471SOL     OW54419   2.599   7.967   0.536  0.1874 -0.0564 -0.4026
17471SOL    HW154420   2.576   7.875   0.551 -0.1465  0.2206  0.8524
17471SOL    HW254421   2.604   7.974   0.440  0.1733 -1.3640 -0.5259
17472SOL     OW54422   8.517   8.275   9.765 -0.0719  0.0757 -0.8470
17472SOL    HW154423   8.496   8.282   9.672  0.6570  2.2835 -0.9029
17472SOL    HW254424   8.601   8.321   9.774  0.1662 -0.6013  0.8174
17473SOL     OW54425   9.445   4.703   2.140 -0.0830 -0.0750 -0.3111
17473SOL    HW154426   9.446   4.767   2.069 -0.0923  0.2463 -0.0259
17473SOL    HW254427   9.489   4.747   2.213  1.0138 -0.8476 -0.4844
17474SOL     OW54428   9.325   5.869   8.122  0.1164 -0.4151  0.2431
17474SOL    HW154429   9.256   5.853   8.058 -0.4350  3.5263 -0.3599
17474SOL    HW254430   9.406   5.849   8.075 -0.4020 -0.6759 -0.5554
17475SOL     OW54431   4.189   4.108   4.265  0.5441 -0.1855  0.4645
17475SOL    HW154432   4.150   4.178   4.211  0.1464 -0.1336  0.8080
17475SOL    HW254433   4.283   4.118   4.254  0.5335 -2.1205 -2.7432
17476SOL     OW54434   5.665   7.007   6.989  0.0709 -0.1614  0.1714
17476SOL    HW154435   5.675   7.099   6.962  0.4217  0.3775  1.9967
17476SOL    HW254436   5.571   6.996   7.002  0.0179 -0.0965 -0.1340
17477SOL     OW54437   3.845   4.541   2.542  0.1194 -0.0605 -0.5945
17477SOL    HW154438   3.772   4.603   2.551  0.4379  0.6413 -2.4487
17477SOL    HW254439   3.913   4.577   2.600  0.3507  1.4639 -1.7401
17478SOL     OW54440   0.234   9.610   0.367  0.0919  0.4518 -0.1915
17478SOL    HW154441   0.202   9.650   0.286 -0.0984 -0.0435 -0.3681
17478SOL    HW254442   0.171   9.540   0.386  1.0594 -0.5483 -0.5561
17479SOL     OW54443   0.695   4.714   2.005 -0.6445  0.1590  0.4355
17479SOL    HW154444   0.766   4.709   2.069 -1.8770  1.0248  1.9523
17479SOL    HW254445   0.708   4.799   1.962  0.6256 -0.7481 -1.0763
17480SOL     OW54446   5.547   1.624  10.536  0.5705 -0.2485  0.3990
17480SOL    HW154447   5.524   1.712  10.508  2.7004 -0.3393 -1.9969
17480SOL    HW254448   5.514   1.567  10.466 -1.9569 -1.6189  2.5183
17481SOL     OW54449   2.247   2.853   9.680 -0.3478 -0.6651  0.0174
17481SOL    HW154450   2.234   2.910   9.756 -1.9378 -1.0555  0.0818
17481SOL    HW254451   2.250   2.765   9.718 -0.9100 -0.8420 -0.3408
17482SOL     OW54452   2.315   3.491  10.510 -0.0890  0.8391 -0.0949
17482SOL    HW154453   2.257   3.506  10.436  0.4530  2.3224 -0.2552
17482SOL    HW254454   2.278   3.545  10.580 -1.1684 -1.2822  1.0831
17483SOL     OW54455   5.978   9.426   1.877 -0.2121  0.5732  0.1462
17483SOL    HW154456   6.014   9.351   1.831  2.8810  0.2968  2.6939
17483SOL    HW254457   5.891   9.397   1.905 -0.3751 -0.8089 -1.5915
17484SOL     OW54458   8.836   0.930   3.271  0.0628  0.4258  0.0140
17484SOL    HW154459   8.824   1.025   3.266  2.7407  0.7967 -1.4217
17484SOL    HW254460   8.801   0.897   3.188  1.6298  0.5719 -0.7479
17485SOL     OW54461   8.224   0.014   2.508 -0.0907  0.3799  0.0645
17485SOL    HW154462   8.159  -0.052   2.535 -0.1634 -0.3514 -1.7879
17485SOL    HW254463   8.297  -0.037   2.474 -0.2932  1.2421 -1.7365
17486SOL     OW54464  10.539   0.761   5.157 -0.2035  0.0355 -0.4388
17486SOL    HW154465  10.468   0.825   5.153  0.3185  0.5481 -1.9916
17486SOL    HW254466  10.510   0.688   5.102  0.8207  0.6430 -1.8358
17487SOL     OW54467   0.287   5.842   8.022 -1.0814 -0.1332 -0.0868
17487SOL    HW154468   0.215   5.790   7.987  0.4726 -1.6172 -1.1939
17487SOL    HW254469   0.303   5.805   8.109 -1.2559 -0.2127 -0.0879
17488SOL     OW54470   3.950   0.013   5.802  0.0575 -0.4869 -0.4063
17488SOL    HW154471   3.860   0.006   5.834  0.6185 -0.7447  1.2092
17488SOL    HW254472   3.953  -0.046   5.727 -1.6161  1.0180 -1.7544
17489SOL     OW54473   2.043   5.318   6.160 -0.1913 -0.2879 -0.6369
17489SOL    HW154474   2.045   5.327   6.065 -0.7215 -2.8653 -0.9795
17489SOL    HW254475   1.950   5.323   6.183 -0.3754 -2.4074 -0.6817
17490SOL     OW54476   4.308   9.320  10.566  0.2632 -0.3550 -0.3589
17490SOL    HW154477   4.378   9.262  10.594  1.5005  1.1832 -0.1328
17490SOL    HW254478   4.348   9.375  10.498 -1.2723 -0.6831 -1.5986
17491SOL     OW54479   0.515   4.723   6.637  0.5946 -0.4043  0.4039
17491SOL    HW154480   0.559   4.748   6.718  0.4648  2.2194 -0.2365
17491SOL    HW254481   0.586   4.691   6.580  1.0234 -0.1794  0.8052
17492SOL     OW54482   1.995   8.472   3.385 -0.6040  0.4416 -0.0602
17492SOL    HW154483   2.044   8.391   3.398 -1.1784  0.0627 -0.2089
17492SOL    HW254484   1.929   8.450   3.319 -1.0372  0.9117  0.2042
17493SOL     OW54485  10.290   4.498   5.875  0.7925 -0.1839 -0.0493
17493SOL    HW154486  10.299   4.425   5.814 -0.9705 -1.7041  1.3612
17493SOL    HW254487  10.195   4.508   5.886  1.0460  0.8508  1.4604
17494SOL     OW54488   7.507   1.832   3.428  0.5753  0.0743 -0.3753
17494SOL    HW154489   7.596   1.855   3.403  0.1480  1.2969 -0.8546
17494SOL    HW254490   7.451   1.886   3.371 -0.4717 -0.8761 -0.2788
17495SOL     OW54491   6.696   4.880   5.334 -0.1577  0.2633 -0.6251
17495SOL    HW154492   6.707   4.941   5.407 -0.6775  2.8261 -2.5619
17495SOL    HW254493   6.603   4.886   5.312 -0.5939 -2.5145  0.1003
17496SOL     OW54494   2.785   0.848   4.869  0.1474  0.1958  0.1026
17496SOL    HW154495   2.801   0.759   4.901  0.1571  0.3278  0.4696
17496SOL    HW254496   2.849   0.860   4.798  1.4028  0.5579  1.2552
17497SOL     OW54497   3.538   8.214   1.903 -0.5654  0.4215  0.5485
17497SOL    HW154498   3.479   8.148   1.866  0.2107  0.0701 -0.1065
17497SOL    HW254499   3.522   8.211   1.997 -1.2236 -0.0260  0.4303
17498SOL     OW54500   6.907   2.062   3.817  0.2912 -0.2216  0.0367
17498SOL    HW154501   6.957   2.095   3.892  1.6251 -0.3567 -0.7694
17498SOL    HW254502   6.971   2.057   3.746 -0.7633 -0.9074 -0.8866
17499SOL     OW54503   2.907   6.190   7.045  0.2371 -0.6409 -0.1732
17499SOL    HW154504   2.982   6.167   6.991  1.1074 -1.2548  1.2322
17499SOL    HW254505   2.912   6.285   7.055  0.0531 -0.5196 -1.1483
17500SOL     OW54506   3.279   1.376   0.674  0.4807 -0.2446  0.0875
17500SOL    HW154507   3.337   1.452   0.662  1.4864 -1.0028 -0.0596
17500SOL    HW254508   3.310   1.313   0.609  0.2017 -1.0937  0.7619
17501SOL     OW54509   2.607   7.741   2.671  0.1947  0.5924  0.3978
17501SOL    HW154510   2.585   7.693   2.751  1.4245 -0.8698 -0.0891
17501SOL    HW254511   2.664   7.681   2.622 -2.7531  0.2600 -2.9681
17502SOL     OW54512   0.074   3.096   0.658  0.6374 -0.6650  0.2348
17502SOL    HW154513   0.106   3.039   0.589  0.3406  0.9783 -1.3281
17502SOL    HW254514   0.152   3.140   0.692  0.5274  0.4367 -0.8752
17503SOL     OW54515   3.476   8.357   4.437  0.0789 -0.2428 -0.7060
17503SOL    HW154516   3.426   8.285   4.398  1.1086 -1.1236 -0.4503
17503SOL    HW254517   3.555   8.315   4.470 -0.1949  0.6799  1.2356
17504SOL     OW54518   0.432   9.298   2.117  0.1930 -0.0906 -0.1493
17504SOL    HW154519   0.522   9.297   2.083  0.0398  0.0487 -0.5585
17504SOL    HW254520   0.438   9.250   2.200  0.7236  0.2499  0.0233
17505SOL     OW54521   4.759   3.154   0.253  0.1187 -0.2176 -0.5931
17505SOL    HW154522   4.682   3.175   0.201 -1.2930 -1.6766  0.7809
17505SOL    HW254523   4.727   3.092   0.318  2.5484 -1.1717 -0.2118
17506SOL     OW54524   9.336   1.180   8.806 -0.2196 -0.3759 -0.1251
17506SOL    HW154525   9.365   1.264   8.842  1.0713 -0.9232  0.1795
17506SOL    HW254526   9.317   1.198   8.714  0.6611  0.1333 -0.2187
17507SOL     OW54527   0.164   2.384   4.840 -0.3776  0.0763 -0.5323
17507SOL    HW154528   0.140   2.366   4.931 -0.1797 -0.3858 -0.5736
17507SOL    HW254529   0.142   2.304   4.792 -2.0144  0.8645 -1.1961
17508SOL     OW54530   8.569   1.830   6.584  0.2747 -0.6283  0.1805
17508SOL    HW154531   8.554   1.889   6.658  0.4350 -0.6843  0.2586
17508SOL    HW254532   8.507   1.758   6.598 -1.6395  0.6521 -1.1847
17509SOL     OW54533   5.537   4.282   1.929 -0.1647 -0.4829 -0.5973
17509SOL    HW154534   5.514   4.362   1.881  1.6219  0.5484  0.1781
17509SOL    HW254535   5.537   4.308   2.021 -0.3752 -1.6116 -0.2587
17510SOL     OW54536   3.510  10.690  10.968 -0.0507  0.1084 -0.3172
17510SOL    HW154537   3.484  10.612  10.918 -2.4145 -0.6162  1.8166
17510SOL    HW254538   3.605  10.695  10.958  0.0046 -2.2564 -1.6413
17511SOL     OW54539   4.930   9.090   3.989  0.4610  0.2685 -0.4473
17511SOL    HW154540   4.984   9.108   3.912 -0.5005  2.1462 -0.7496
17511SOL    HW254541   4.992   9.069   4.058  1.5009  1.1095 -1.0957
17512SOL     OW54542   5.709   2.904   8.993  0.1183  0.8531  0.5102
17512SOL    HW154543   5.791   2.939   9.027 -0.1333 -0.0236  2.0850
17512SOL    HW254544   5.702   2.942   8.905  1.7617  1.6266  0.6749
17513SOL     OW54545   1.690   2.338   2.707  0.5207 -0.3949  0.1529
17513SOL    HW154546   1.735   2.263   2.746 -0.1916 -1.2131 -0.5553
17513SOL    HW254547   1.600   2.309   2.693  0.9419 -0.5736 -3.0016
17514SOL     OW54548   4.870   4.152   4.786  0.5108  0.2033  0.4592
17514SOL    HW154549   4.890   4.077   4.731 -1.8476 -2.5628  3.0181
17514SOL    HW254550   4.929   4.144   4.861 -0.6960  0.0428  1.4213
17515SOL     OW54551   7.431   2.388   4.472 -0.4655  0.2415  0.3419
17515SOL    HW154552   7.438   2.482   4.485  0.7610  0.2921 -0.5042
17515SOL    HW254553   7.391   2.378   4.386 -0.2989 -0.0059  0.2897
17516SOL     OW54554   7.829   1.523   5.429 -0.4654 -0.8519  0.1597
17516SOL    HW154555   7.882   1.460   5.478  1.6054  0.6985  0.0558
17516SOL    HW254556   7.879   1.605   5.433 -1.6445  0.0738 -2.0935
17517SOL     OW54557   4.817   6.250   3.140  0.2818  0.1834 -0.2128
17517SOL    HW154558   4.730   6.212   3.133 -0.3554  1.1334  1.8188
17517SOL    HW254559   4.856   6.206   3.216  0.8499  1.1118  0.0441
17518SOL     OW54560   3.466   0.921   1.670 -0.3414 -0.3598  0.2844
17518SOL    HW154561   3.371   0.936   1.676 -0.6154 -1.0902 -1.5949
17518SOL    HW254562   3.495   0.983   1.603  0.6431  0.2857  1.2822
17519SOL     OW54563   7.942   6.208   0.677 -0.2415  0.3094 -0.0830
17519SOL    HW154564   7.987   6.150   0.739 -0.0272 -1.8372 -2.1260
17519SOL    HW254565   8.012   6.262   0.641 -0.1303  0.4960  0.3927
17520SOL     OW54566   9.833  10.945   9.385  0.1899  0.3188  0.2301
17520SOL    HW154567   9.793  10.952   9.299 -0.9958  2.5202  0.8917
17520SOL    HW254568   9.912  10.998   9.380 -1.0483  2.3503  1.0650
17521SOL     OW54569   5.844   4.822   8.356  0.5224 -0.3438 -0.2311
17521SOL    HW154570   5.834   4.861   8.269  0.9762 -1.6575 -0.8981
17521SOL    HW254571   5.765   4.849   8.404  0.5044  0.8092 -0.8637
17522SOL     OW54572   4.376   5.999   1.331  0.0138 -0.3179  0.0439
17522SOL    HW154573   4.295   5.953   1.308 -0.3708  0.3236  0.0662
17522SOL    HW254574   4.345   6.076   1.380  0.7564 -1.4986  2.5631
17523SOL     OW54575   4.259   4.734   2.175 -0.2718 -0.2963 -0.1099
17523SOL    HW154576   4.350   4.715   2.150 -0.5870 -0.9873 -0.7344
17523SOL    HW254577   4.230   4.799   2.112 -0.0680  0.2845  0.3812
17524SOL     OW54578   9.395   6.098   0.793 -0.4843  0.3146  0.0061
17524SOL    HW154579   9.471   6.133   0.840 -2.2841  1.7237  2.0259
17524SOL    HW254580   9.381   6.012   0.833  0.0063  0.0615 -0.3521
17525SOL     OW54581   3.182   1.699  10.914 -0.0773  0.6366 -0.3661
17525SOL    HW154582   3.260   1.754  10.904 -1.0905  2.1346 -0.3587
17525SOL    HW254583   3.215   1.617  10.950  1.6070  0.9018 -1.1767
17526SOL     OW54584   4.449   3.935   2.856  0.1415 -0.2313  0.1890
17526SOL    HW154585   4.499   4.006   2.815 -0.5354 -0.1970 -0.6182
17526SOL    HW254586   4.412   3.886   2.782 -2.4932  0.7998  0.7180
17527SOL     OW54587   5.342   5.592   2.648  0.0004  0.1936 -0.3223
17527SOL    HW154588   5.370   5.627   2.732 -1.2018  0.0748  0.1440
17527SOL    HW254589   5.339   5.498   2.661  0.9612  0.0668 -0.8788
17528SOL     OW54590   2.263   6.831  11.022 -0.2540 -0.3033 -0.0892
17528SOL    HW154591   2.281   6.905  10.964 -1.3162 -0.1124 -0.1984
17528SOL    HW254592   2.199   6.778  10.975 -0.2432 -0.7789  0.4098
17529SOL     OW54593   8.241   2.573   0.016 -0.1352 -0.2059  0.2368
17529SOL    HW154594   8.207   2.604   0.100 -1.1341 -0.8661  0.1014
17529SOL    HW254595   8.265   2.482   0.033  1.2542  0.1427  0.2258
17530SOL     OW54596   6.097   0.805   5.100  0.7523 -0.1526  0.0735
17530SOL    HW154597   6.123   0.844   5.183  0.0905 -1.4730  0.9519
17530SOL    HW254598   6.005   0.829   5.091  0.6890 -0.4239 -0.0149
17531SOL     OW54599   4.548   4.024  10.680  0.2030 -0.7499  0.0631
17531SOL    HW154600   4.481   4.064  10.625 -0.2876 -0.2473  0.9987
17531SOL    HW254601   4.562   3.937  10.643  0.7726  0.0128 -1.5831
17532SOL     OW54602   8.871   8.753   9.007 -0.0330  0.6953 -0.2107
17532SOL    HW154603   8.818   8.776   8.932 -0.3665 -0.2766 -0.2826
17532SOL    HW254604   8.857   8.659   9.019  3.7773 -0.3202 -1.9636
17533SOL     OW54605   2.768   6.814   0.623 -0.2425 -0.3184 -0.1171
17533SOL    HW154606   2.828   6.813   0.548 -1.7298  0.8713 -1.3770
17533SOL    HW254607   2.826   6.826   0.698  1.2537 -1.0127 -1.0930
17534SOL     OW54608   5.275   4.671   2.712 -0.6132 -0.3160 -0.6675
17534SOL    HW154609   5.276   4.764   2.688 -0.3702 -0.1431 -0.0055
17534SOL    HW254610   5.287   4.625   2.630 -0.5024  0.2480 -0.9730
17535SOL     OW54611   4.526   7.172   2.650  0.2493 -0.3234  0.8713
17535SOL    HW154612   4.505   7.079   2.659  1.1441 -0.5078  1.1060
17535SOL    HW254613   4.544   7.183   2.556  0.8098 -0.5297  0.9543
17536SOL     OW54614   8.179   2.357   4.116 -0.8386  0.3648 -0.1196
17536SOL    HW154615   8.221   2.434   4.078 -1.9159  1.9706  1.7644
17536SOL    HW254616   8.087   2.365   4.092 -1.0799  0.0167  0.6619
17537SOL     OW54617   4.362   7.132   9.138 -0.2108 -0.3238  0.2308
17537SOL    HW154618   4.375   7.223   9.165  3.3660  0.5428 -3.3715
17537SOL    HW254619   4.391   7.080   9.212 -1.1657  1.4278  1.9214
17538SOL     OW54620   1.732   7.363   4.913  0.6865 -0.0802 -0.4890
17538SOL    HW154621   1.754   7.399   4.827 -1.7958  1.5287 -0.5499
17538SOL    HW254622   1.782   7.416   4.975 -0.1850  1.1067 -0.7795
17539SOL     OW54623   2.279   2.911   2.390 -0.3920  0.0541  0.3973
17539SOL    HW154624   2.219   2.928   2.462 -1.1271 -0.7817  0.0013
17539SOL    HW254625   2.280   2.992   2.339 -0.5401  0.3488  0.8648
17540SOL     OW54626   3.936   2.353  10.541 -0.2632 -0.5447 -0.0927
17540SOL    HW154627   3.929   2.372  10.635  0.9203 -0.7990  0.0643
17540SOL    HW254628   3.868   2.407  10.501  0.6129  1.2513  0.7098
17541SOL     OW54629  10.032   9.110   1.295 -0.0714  0.0322  0.4070
17541SOL    HW154630  10.117   9.108   1.340  0.4672 -3.0161 -0.5433
17541SOL    HW254631  10.045   9.172   1.223 -0.0875  2.8445  2.6495
17542SOL     OW54632   3.684   1.282   4.497  0.1453 -0.2372  0.0491
17542SOL    HW154633   3.765   1.315   4.458  0.3412 -1.0448 -0.2367
17542SOL    HW254634   3.698   1.291   4.592  1.0155 -1.3831  0.0480
17543SOL     OW54635   5.791   2.939   1.343  0.5099  0.5029 -0.5013
17543SOL    HW154636   5.761   2.960   1.255  0.3118  1.3089 -0.2539
17543SOL    HW254637   5.712   2.940   1.397  0.8075  1.5945 -0.0379
17544SOL     OW54638   3.659   4.925   5.125 -0.3152  0.1291 -0.0012
17544SOL    HW154639   3.711   4.903   5.202 -2.5002  0.6808  1.7190
17544SOL    HW254640   3.646   5.020   5.131 -0.1033  0.2604 -1.3370
17545SOL     OW54641   6.276   3.258   3.823 -0.2009  0.2055  0.5447
17545SOL    HW154642   6.318   3.320   3.882 -1.1823  1.5530 -0.1162
17545SOL    HW254643   6.289   3.294   3.736 -0.8681 -0.4716  0.1473
17546SOL     OW54644   7.252   7.378   0.743 -0.1281  0.4853 -0.2795
17546SOL    HW154645   7.347   7.379   0.734 -0.1316  0.5209 -0.3119
17546SOL    HW254646   7.221   7.334   0.664 -0.0235 -1.5699  0.7467
17547SOL     OW54647   2.422   4.370   7.498 -0.1231 -0.3133 -0.1859
17547SOL    HW154648   2.498   4.321   7.531  0.2807 -1.3377 -2.4364
17547SOL    HW254649   2.388   4.416   7.574  1.6714 -1.2723  1.2716
17548SOL     OW54650   6.744   7.203   9.073 -0.2047  0.0475  0.4121
17548SOL    HW154651   6.737   7.125   9.129  0.1028  0.0948  0.5227
17548SOL    HW254652   6.804   7.261   9.121 -2.2745  1.3803  1.5163
17549SOL     OW54653   2.648   5.038   4.309 -0.5674  0.9991  0.3946
17549SOL    HW154654   2.738   5.038   4.276  0.3091  0.6105  2.6582
17549SOL    HW254655   2.616   4.949   4.293 -1.1361  1.5205 -1.7414
17550SOL     OW54656   2.309   3.186   4.660  0.3188 -0.2592 -0.3205
17550SOL    HW154657   2.298   3.188   4.755  0.8188 -1.8600 -0.2014
17550SOL    HW254658   2.382   3.246   4.643  0.2014  0.0673  0.2911
17551SOL     OW54659   8.890   9.789   8.425 -0.2909 -0.5941 -0.0141
17551SOL    HW154660   8.843   9.774   8.343  0.7277 -2.2416 -0.3434
17551SOL    HW254661   8.832   9.846   8.476 -0.8053  0.7769 -1.9889
17552SOL     OW54662  10.621   9.238   9.932  0.5135  0.5737 -0.1591
17552SOL    HW154663  10.554   9.182   9.892  0.6748  0.3848 -0.1668
17552SOL    HW254664  10.672   9.272   9.858  0.2197  0.9830 -0.1743
17553SOL     OW54665   2.378   1.991   6.129 -0.1399 -0.2889 -0.1885
17553SOL    HW154666   2.412   1.982   6.040 -1.3584 -1.1163 -0.5879
17553SOL    HW254667   2.316   1.919   6.139 -0.3899  0.0842  1.1665
17554SOL     OW54668   8.227   8.081   4.063  0.2873 -0.4254 -0.2566
17554SOL    HW154669   8.277   8.075   3.982 -0.4688 -0.2962 -0.7389
17554SOL    HW254670   8.165   8.008   4.059 -0.5576  0.2768 -0.3645
17555SOL     OW54671  10.097   6.964   2.845 -0.1258  0.0459 -0.1874
17555SOL    HW154672  10.016   6.998   2.882 -0.1121 -0.3247  0.1912
17555SOL    HW254673  10.072   6.929   2.760 -0.1694  0.8444 -0.5150
17556SOL     OW54674  10.563   9.975   8.394  0.3353  0.4632  0.0934
17556SOL    HW154675  10.494   9.974   8.328  2.7887  0.0622 -2.6950
17556SOL    HW254676  10.609   9.892   8.381  2.2284  1.3478  0.7763
17557SOL     OW54677   2.299   2.796   8.227 -0.1690  0.1345  0.0622
17557SOL    HW154678   2.385   2.832   8.210  0.2300 -0.5787  0.5319
17557SOL    HW254679   2.280   2.820   8.318  0.6265 -1.8254  0.7965
17558SOL     OW54680   1.793   7.571  10.076 -0.0743  0.5714 -0.2337
17558SOL    HW154681   1.767   7.609   9.992 -1.2095 -1.8630 -1.0640
17558SOL    HW254682   1.804   7.477  10.058  1.5673  0.2638  1.9288
17559SOL     OW54683   4.877   3.584   0.109 -0.1345 -0.2627 -0.4323
17559SOL    HW154684   4.951   3.629   0.069  3.0177 -2.4376  2.3877
17559SOL    HW254685   4.871   3.501   0.062  0.7196 -0.9986  0.7106
17560SOL     OW54686   7.782   9.661   0.744  0.0793 -0.1034 -0.0703
17560SOL    HW154687   7.722   9.719   0.697 -1.1014 -1.3569 -0.1829
17560SOL    HW254688   7.779   9.578   0.695  2.5106 -0.0144 -0.5259
17561SOL     OW54689   1.825   5.347   0.336 -0.3443  0.5729 -0.1497
17561SOL    HW154690   1.845   5.324   0.246 -2.4950 -0.0060 -0.5376
17561SOL    HW254691   1.801   5.264   0.377 -1.2787  1.0933  0.3969
17562SOL     OW54692   4.728   8.564   6.636  0.5925  0.0761  0.2246
17562SOL    HW154693   4.674   8.592   6.563  0.8597  2.6181  0.9076
17562SOL    HW254694   4.680   8.490   6.675 -0.7788  0.2741 -1.0214
17563SOL     OW54695   5.443   2.648   8.809  0.5211 -0.3917  0.3268
17563SOL    HW154696   5.383   2.577   8.787 -3.7898  2.8720  0.3201
17563SOL    HW254697   5.453   2.698   8.728 -1.3356  2.0775  1.4887
17564SOL     OW54698  10.393   4.663   3.285  0.0316 -0.1494  0.4033
17564SOL    HW154699  10.411   4.648   3.378  0.8932 -0.4530  0.1943
17564SOL    HW254700  10.473   4.704   3.251  0.2917 -1.3455 -0.5079
17565SOL     OW54701   3.860  11.027   0.496  0.4978 -0.1804  0.3968
17565SOL    HW154702   3.858  10.968   0.572  1.0727 -0.2361  0.3706
17565SOL    HW254703   3.768  11.041   0.475  0.3403 -0.4503  0.8864
17566SOL     OW54704  10.966   3.320   6.155  0.0442  0.2520  0.4296
17566SOL    HW154705  10.875   3.314   6.182 -0.5387  1.5315 -1.1061
17566SOL    HW254706  10.979   3.412   6.132  1.3869 -0.1159 -0.4569
17567SOL     OW54707   5.976   2.573   5.696  0.2266  0.6421 -0.7551
17567SOL    HW154708   5.893   2.583   5.650  1.1623  1.7395 -2.3182
17567SOL    HW254709   5.985   2.654   5.747  0.1348  0.3100 -0.1977
17568SOL     OW54710   5.988   2.177   6.975 -0.5063 -0.3041 -0.2615
17568SOL    HW154711   5.921   2.218   6.920  0.4257 -1.1730 -2.1237
17568SOL    HW254712   5.960   2.086   6.984 -0.7525 -0.1261  0.9160
17569SOL     OW54713   5.487   1.232   6.240 -0.6242  0.0968  0.2222
17569SOL    HW154714   5.506   1.179   6.317 -1.8224 -1.1104 -0.2623
17569SOL    HW254715   5.573   1.259   6.207  0.0374 -1.5390  0.5219
17570SOL     OW54716   0.921   4.834   1.244  0.3266  0.4452 -0.2163
17570SOL    HW154717   0.900   4.836   1.151  0.2288  0.9697 -0.1831
17570SOL    HW254718   0.856   4.774   1.281  0.7085 -0.1947 -0.5642
17571SOL     OW54719   5.863   0.899   3.894 -0.1937 -0.2796  0.0769
17571SOL    HW154720   5.773   0.923   3.871  0.4540  2.3420 -0.0517
17571SOL    HW254721   5.860   0.884   3.988 -0.6935  0.2930  0.1617
17572SOL     OW54722   7.528   6.196   0.153  0.5633 -0.0965  0.1875
17572SOL    HW154723   7.554   6.242   0.232  0.2318  0.8320 -0.2285
17572SOL    HW254724   7.563   6.250   0.081  1.5964 -1.3564 -0.3052
17573SOL     OW54725   3.348   9.937   2.365 -0.4875  0.4292  0.4250
17573SOL    HW154726   3.361   9.901   2.277  0.1733 -0.8960  1.0298
17573SOL    HW254727   3.285  10.008   2.353  0.0216  0.6543 -1.2014
17574SOL     OW54728   6.173   5.937   1.197  0.5367 -0.2198 -0.5194
17574SOL    HW154729   6.203   6.025   1.219  2.5777 -0.5848 -1.5831
17574SOL    HW254730   6.078   5.943   1.196  0.6457  2.2972 -1.8383
17575SOL     OW54731   8.698   8.592   4.393 -0.2096 -0.0490 -0.1763
17575SOL    HW154732   8.697   8.565   4.301  0.2047 -0.4597 -0.0682
17575SOL    HW254733   8.730   8.682   4.391 -0.6216  0.0927 -0.4671
17576SOL     OW54734   2.344   3.046   3.596 -0.0388 -0.5866 -0.0658
17576SOL    HW154735   2.393   3.000   3.664 -1.0194 -0.3424  0.8298
17576SOL    HW254736   2.373   3.006   3.514  0.4050 -1.5970  0.5714
17577SOL     OW54737   5.074   6.058   7.899 -0.0724 -0.1631 -0.3259
17577SOL    HW154738   5.068   6.139   7.847 -0.2782 -1.1628 -1.9215
17577SOL    HW254739   5.167   6.039   7.902  0.0119  0.3466  0.4053
17578SOL     OW54740   7.434   7.599   8.239  0.5354  0.4907  0.3274
17578SOL    HW154741   7.485   7.599   8.320  2.5617  0.4836 -0.8754
17578SOL    HW254742   7.479   7.535   8.183 -0.4521  0.9320 -1.0133
17579SOL     OW54743   1.495   7.447   8.249  0.2630  0.6294  0.2696
17579SOL    HW154744   1.508   7.541   8.262 -0.9481  0.5846  2.1461
17579SOL    HW254745   1.567   7.407   8.297  2.1297  0.5324 -2.3692
17580SOL     OW54746   3.612   1.385   6.195 -0.1602  0.3089  0.4899
17580SOL    HW154747   3.549   1.339   6.139  1.2858 -0.4082 -0.6182
17580SOL    HW254748   3.587   1.360   6.284  1.0906 -3.5327 -0.0548
17581SOL     OW54749   6.868   7.220   0.604 -0.7451 -0.2768 -0.3927
17581SOL    HW154750   6.851   7.209   0.697 -1.1000 -0.6830 -0.5011
17581SOL    HW254751   6.931   7.292   0.599  0.0436 -0.9191  0.2142
17582SOL     OW54752   4.025   7.560   0.686  0.5977  0.5764  0.3464
17582SOL    HW154753   3.960   7.586   0.751  1.2409  1.4241  0.6730
17582SOL    HW254754   3.977   7.558   0.603 -0.0231  0.3819  0.7045
17583SOL     OW54755   0.445   8.078   4.435  0.0616  0.2380 -0.4965
17583SOL    HW154756   0.389   8.002   4.451 -0.5225  0.7748  0.0462
17583SOL    HW254757   0.449   8.085   4.340 -0.2220 -0.2262 -0.5469
17584SOL     OW54758   7.532   7.173   9.748 -0.4695 -0.0647  0.5094
17584SOL    HW154759   7.451   7.164   9.797  0.4126 -0.4171  1.9580
17584SOL    HW254760   7.588   7.228   9.804  0.1667  0.4898 -0.6279
17585SOL     OW54761  10.015   3.211   3.167 -0.3288  0.0341 -1.0188
17585SOL    HW154762  10.053   3.193   3.253  0.4208 -0.3426 -1.4167
17585SOL    HW254763  10.009   3.307   3.163 -0.7463  0.0414 -0.3970
17586SOL     OW54764   2.379   2.367   5.242  0.4567  0.7278  0.3156
17586SOL    HW154765   2.441   2.319   5.186  0.6566  3.3921 -1.9941
17586SOL    HW254766   2.309   2.393   5.182 -0.0237  2.5426  1.6003
17587SOL     OW54767   3.256   0.677   0.067 -0.1260  0.1991  0.6239
17587SOL    HW154768   3.171   0.632   0.066  0.5666 -1.1969 -0.9257
17587SOL    HW254769   3.275   0.691   0.160 -0.7921 -1.9946  1.1510
17588SOL     OW54770   7.201   9.759   4.975 -0.1890 -0.3724 -0.2365
17588SOL    HW154771   7.229   9.850   4.970  1.3913 -0.8760 -2.0517
17588SOL    HW254772   7.109   9.761   4.947 -0.6662  0.8104  1.3069
17589SOL     OW54773   8.491   2.121   2.462 -0.5059  0.4530 -0.1004
17589SOL    HW154774   8.495   2.128   2.557 -1.1641 -0.8390  0.0478
17589SOL    HW254775   8.556   2.184   2.430  0.5224  0.1064  1.2233
17590SOL     OW54776   6.345   4.721   8.119 -0.3317 -0.4068  0.4546
17590SOL    HW154777   6.439   4.723   8.133 -0.1076 -1.3496 -0.7678
17590SOL    HW254778   6.310   4.786   8.180  0.9713 -0.9884  1.8866
17591SOL     OW54779   2.651   9.078   5.633 -0.0418  0.3383  0.7868
17591SOL    HW154780   2.585   9.062   5.700  1.3124  1.1896  2.4093
17591SOL    HW254781   2.697   9.157   5.663  1.0449  0.3500 -0.7970
17592SOL     OW54782   6.735   4.425   8.959  0.1122 -0.8100 -0.3758
17592SOL    HW154783   6.667   4.402   8.896 -0.1696 -1.1303  0.0380
17592SOL    HW254784   6.769   4.341   8.990  1.8657 -0.6847 -1.7897
17593SOL     OW54785   7.154   7.795   3.090 -0.1525 -0.2823 -0.1115
17593SOL    HW154786   7.152   7.725   3.025  0.4095  0.9439 -1.5296
17593SOL    HW254787   7.093   7.860   3.056 -0.6393 -0.0482  1.1528
17594SOL     OW54788   1.425   4.156   4.908 -0.5687 -0.3540 -0.5306
17594SOL    HW154789   1.449   4.191   4.822 -1.4168  0.6282 -0.3856
17594SOL    HW254790   1.345   4.105   4.892 -1.2067  0.5228 -0.2005
17595SOL     OW54791   9.571   2.158   4.612 -0.5063 -0.0277 -0.3103
17595SOL    HW154792   9.666   2.146   4.617 -0.5473  0.0390  0.9044
17595SOL    HW254793   9.556   2.193   4.524  0.6000  0.0258 -0.4937
17596SOL     OW54794   5.461   0.841   9.235 -0.2585 -0.1512 -0.1939
17596SOL    HW154795   5.380   0.806   9.198 -0.5851 -1.2801  1.4809
17596SOL    HW254796   5.462   0.808   9.325 -0.1589  3.4421  1.2967
17597SOL     OW54797   2.712   0.447   0.804  0.0085 -0.3162  0.0557
17597SOL    HW154798   2.774   0.393   0.853 -0.1395 -0.8905 -0.3730
17597SOL    HW254799   2.701   0.400   0.721  0.2798  0.6492 -0.5400
17598SOL     OW54800   9.227   6.405   1.199  0.1014 -0.3191 -0.2716
17598SOL    HW154801   9.279   6.402   1.280 -0.0299 -1.1992 -0.2127
17598SOL    HW254802   9.138   6.386   1.227 -0.2077  0.8197 -0.4293
17599SOL     OW54803   1.562   7.359   8.766  0.4208  0.3666 -0.0867
17599SOL    HW154804   1.647   7.392   8.796 -0.6472  2.5203  0.7219
17599SOL    HW254805   1.545   7.284   8.823  1.2471  0.6408  0.5505
17600SOL     OW54806   4.575   2.045   3.269 -0.2234 -0.3382  0.1842
17600SOL    HW154807   4.569   2.135   3.236  0.0880 -1.3510 -2.9974
17600SOL    HW254808   4.501   2.036   3.329 -0.8183  1.7400 -0.1578
17601SOL     OW54809   6.849   2.911   7.105  0.0944  1.3204 -0.4142
17601SOL    HW154810   6.801   2.865   7.175  1.3146  1.7288  0.7324
17601SOL    HW254811   6.836   2.856   7.028 -0.3150  0.2036  0.4128
17602SOL     OW54812   4.848   1.567   1.252  0.0271 -0.8022 -0.2670
17602SOL    HW154813   4.933   1.570   1.296 -0.7616  2.1639  1.3688
17602SOL    HW254814   4.793   1.629   1.302 -3.2826 -2.9569 -0.8878
17603SOL     OW54815   7.891   2.298   9.749 -0.3714 -0.1128 -0.2962
17603SOL    HW154816   7.977   2.259   9.762 -1.0215 -2.1272 -1.6837
17603SOL    HW254817   7.842   2.274   9.828 -0.6629 -1.9157 -0.9848
17604SOL     OW54818   3.569   6.041   1.729 -0.5398 -0.3044 -0.1841
17604SOL    HW154819   3.546   6.121   1.682 -1.8245 -0.0267  0.8651
17604SOL    HW254820   3.546   5.970   1.669  0.0213  0.0804 -0.8685
17605SOL     OW54821   6.674  11.003  10.444  0.1374 -0.6984 -0.0820
17605SOL    HW154822   6.765  10.977  10.430  0.4525 -0.4402  1.3735
17605SOL    HW254823   6.660  10.991  10.538 -0.4043  2.1178  0.2728
17606SOL     OW54824   4.498   7.290   1.157  0.1044 -0.2602 -0.2965
17606SOL    HW154825   4.435   7.350   1.197 -0.4468 -0.3886 -0.9459
17606SOL    HW254826   4.458   7.204   1.165  1.8746 -0.9540  2.6305
17607SOL     OW54827   8.226   7.634   5.616 -0.2411  0.3653  0.0944
17607SOL    HW154828   8.308   7.585   5.617 -1.5482 -2.0098 -0.1606
17607SOL    HW254829   8.203   7.645   5.709 -0.1270  0.1282  0.1516
17608SOL     OW54830   2.789   4.552   5.951 -0.1061  0.5052 -0.5002
17608SOL    HW154831   2.737   4.497   6.009  0.6431  0.4732  0.1491
17608SOL    HW254832   2.725   4.588   5.889 -0.7602 -0.2605 -0.2947
17609SOL     OW54833   0.095   2.304   3.192 -0.0632  0.0195  0.8631
17609SOL    HW154834   0.149   2.226   3.177  0.1942  0.4790 -0.7775
17609SOL    HW254835   0.120   2.334   3.279  2.3537  0.2317  0.1407
17610SOL     OW54836   6.673  10.847   1.666  0.5199 -0.3239  0.5097
17610SOL    HW154837   6.691  10.850   1.572 -0.3298  1.5575  0.3546
17610SOL    HW254838   6.743  10.898   1.706  0.0370  0.1888  0.7235
17611SOL     OW54839   8.327   9.670  10.750  0.4075  0.6747 -0.4830
17611SOL    HW154840   8.335   9.667  10.655  1.1511  0.3536 -0.4183
17611SOL    HW254841   8.234   9.685  10.766  0.2950  0.8500 -1.2593
17612SOL     OW54842   1.892  10.685   4.383 -0.2036 -0.0769 -0.1557
17612SOL    HW154843   1.824  10.630   4.344  0.0128 -1.5462  1.4034
17612SOL    HW254844   1.852  10.718   4.464  1.1156 -1.5069  1.1290
17613SOL     OW54845   6.163   6.377   3.489 -0.0066  0.1669  0.1271
17613SOL    HW154846   6.182   6.432   3.413  0.4629  0.5374  0.5071
17613SOL    HW254847   6.091   6.422   3.534  0.8030  0.8173  0.7856
17614SOL     OW54848   8.033   5.914   7.243 -0.3432  0.1369 -0.1467
17614SOL    HW154849   8.122   5.908   7.278 -0.7230  0.0150  0.8117
17614SOL    HW254850   8.037   5.865   7.161  0.3617 -0.2480  0.1058
17615SOL     OW54851   5.561   1.137   1.198 -0.0415  0.4776 -0.2650
17615SOL    HW154852   5.626   1.117   1.264 -0.2409 -0.7017 -0.4146
17615SOL    HW254853   5.480   1.149   1.247  0.0663  0.8901 -0.1816
17616SOL     OW54854   0.482   1.510   3.989  0.3765  0.4414 -0.6460
17616SOL    HW154855   0.415   1.579   3.989 -0.6450 -0.5130  0.5593
17616SOL    HW254856   0.564   1.557   3.999 -0.4055  1.4443  1.7395
17617SOL     OW54857   4.919   0.623   0.072 -0.3112  0.0294  0.2615
17617SOL    HW154858   4.901   0.689   0.005 -0.4466 -0.5240 -0.2527
17617SOL    HW254859   4.856   0.642   0.142 -0.9321 -0.0818 -0.2576
17618SOL     OW54860   2.145   3.513   1.087  0.0628 -0.1212 -0.1404
17618SOL    HW154861   2.091   3.480   1.159  1.6724  0.6601  1.5001
17618SOL    HW254862   2.168   3.435   1.037 -1.6371 -0.6009 -0.2352
17619SOL     OW54863   1.920   5.364   2.135 -0.0352  0.2005  0.4582
17619SOL    HW154864   1.981   5.439   2.138 -0.0032  0.1796  0.3069
17619SOL    HW254865   1.936   5.323   2.051  0.4598 -0.4077  0.8441
17620SOL     OW54866   9.233   5.784   0.659 -0.2724 -0.4495 -0.3238
17620SOL    HW154867   9.163   5.839   0.623 -0.1020 -0.4805 -0.7175
17620SOL    HW254868   9.215   5.779   0.752 -0.6773 -0.2860 -0.3918
17621SOL     OW54869   3.305  10.550   3.587 -0.4768  0.1853 -0.6371
17621SOL    HW154870   3.225  10.555   3.639  0.1701  0.5991  0.3463
17621SOL    HW254871   3.368  10.505   3.643  1.3020  3.6511  0.4122
17622SOL     OW54872   6.201   9.707   1.037  0.2182 -0.1324  0.4342
17622SOL    HW154873   6.139   9.779   1.041 -2.5114 -2.2138 -1.1627
17622SOL    HW254874   6.173   9.648   1.106 -0.3898 -1.6257 -1.0229
17623SOL     OW54875   5.480   7.436   3.514 -0.6455  0.1443 -0.2305
17623SOL    HW154876   5.386   7.439   3.534 -0.2430 -1.3388  2.4176
17623SOL    HW254877   5.503   7.344   3.522  1.0640  0.4929 -0.7694
17624SOL     OW54878  10.353   4.327   5.502 -0.5223  0.2656 -0.0111
17624SOL    HW154879  10.344   4.322   5.597 -0.2134  0.9466  0.0590
17624SOL    HW254880  10.275   4.373   5.472 -0.2604  0.7176 -0.0087
17625SOL     OW54881   4.125  10.798   1.000  0.1635 -0.2770 -0.3750
17625SOL    HW154882   4.182  10.744   1.055  0.2018  1.4359  1.4033
17625SOL    HW254883   4.041  10.753   1.002 -1.2733  1.8107  5.1152
17626SOL     OW54884   4.196   8.479   4.305 -0.6492  0.0877  0.0686
17626SOL    HW154885   4.188   8.569   4.336 -0.0156  0.2987 -0.3507
17626SOL    HW254886   4.168   8.425   4.379 -1.0261  0.6272  0.3259
17627SOL     OW54887   6.229   3.239   6.335 -0.2199  0.1713 -0.5275
17627SOL    HW154888   6.180   3.309   6.293 -0.4258 -0.7710 -1.8966
17627SOL    HW254889   6.183   3.159   6.311  0.0717 -0.4651  0.9247
17628SOL     OW54890   6.909   6.331   1.440  0.1980 -0.0818  0.2138
17628SOL    HW154891   6.918   6.236   1.440 -0.3225 -0.1470  1.3596
17628SOL    HW254892   6.997   6.364   1.454  0.3681 -0.3921 -0.1096
17629SOL     OW54893   5.135   6.121  10.936  0.3672 -0.4708  0.4488
17629SOL    HW154894   5.103   6.077  10.858 -0.3591  0.4829  0.1905
17629SOL    HW254895   5.194   6.189  10.903  0.6981 -0.5887  0.7842
17630SOL     OW54896   3.764   4.835   7.408 -0.1140 -0.4200  0.0147
17630SOL    HW154897   3.709   4.912   7.396 -0.4295 -0.9054 -1.8093
17630SOL    HW254898   3.829   4.863   7.473 -0.5562  1.1912 -0.1931
17631SOL     OW54899   3.659  10.968   2.763  0.0819  0.3858 -0.2437
17631SOL    HW154900   3.576  10.931   2.794  0.6204 -0.6476  0.0338
17631SOL    HW254901   3.662  11.056   2.801 -0.7201  0.2893  0.0519
17632SOL     OW54902   5.895   5.875   2.652 -0.1392 -0.9032 -0.0683
17632SOL    HW154903   5.853   5.856   2.568 -0.4415 -0.6203  0.0141
17632SOL    HW254904   5.970   5.931   2.630  0.4853 -1.8014 -0.2646
17633SOL     OW54905   9.945   4.068   1.801  0.2558  0.5257  0.7588
17633SOL    HW154906   9.854   4.064   1.829  0.4127 -0.8373  1.1836
17633SOL    HW254907   9.944   4.034   1.712  0.7133 -3.1255  1.9508
17634SOL     OW54908  10.349  10.137   1.911 -0.0579  0.6267 -0.9173
17634SOL    HW154909  10.275  10.177   1.957  0.1105  0.2085 -0.2848
17634SOL    HW254910  10.412  10.115   1.980  0.4067  0.4398 -1.3938
17635SOL     OW54911   5.879   0.881   5.884 -0.1079  0.1275 -0.2469
17635SOL    HW154912   5.871   0.793   5.921 -0.1527 -0.2231 -1.0718
17635SOL    HW254913   5.851   0.872   5.794  3.6645  0.0592 -1.6079
17636SOL     OW54914   6.946   2.661   2.314 -0.0341  0.6481 -0.1192
17636SOL    HW154915   6.986   2.729   2.259 -1.1672  0.2472 -1.5015
17636SOL    HW254916   6.882   2.618   2.256 -1.3655  0.2743  1.5670
17637SOL     OW54917   4.996   7.165   2.781  0.6271 -0.0742 -0.0243
17637SOL    HW154918   5.008   7.073   2.805 -0.1469 -0.0739  0.4039
17637SOL    HW254919   4.943   7.162   2.702  2.4615 -0.0472 -1.3018
17638SOL     OW54920   4.141   2.097   6.259 -0.0242 -0.0778  0.0517
17638SOL    HW154921   4.144   2.002   6.262 -0.9034 -0.0985  0.2597
17638SOL    HW254922   4.104   2.117   6.173 -0.7687  0.0609  0.4058
17639SOL     OW54923   4.961   6.473   3.618  0.2385 -0.0121 -0.5887
17639SOL    HW154924   4.917   6.398   3.658 -0.9267  0.8798 -0.1559
17639SOL    HW254925   5.047   6.475   3.660  0.3007 -1.1113 -0.6239
17640SOL     OW54926   8.025   5.717   3.609  0.2574 -0.0874  0.2645
17640SOL    HW154927   7.959   5.654   3.579  1.1449 -0.2014 -1.6562
17640SOL    HW254928   8.003   5.798   3.563  0.2596  0.4732  1.2281
17641SOL     OW54929   2.856   6.493   4.498  0.0407 -0.5625 -0.3914
17641SOL    HW154930   2.885   6.509   4.588 -1.1113 -0.4829 -0.0199
17641SOL    HW254931   2.937   6.494   4.447  0.6662 -0.0884  0.5662
17642SOL     OW54932   7.882   1.051   2.786 -0.5504  0.3563  0.6776
17642SOL    HW154933   7.939   1.050   2.863 -0.3776  2.0877  0.6201
17642SOL    HW254934   7.943   1.045   2.712 -0.6480 -0.4179  0.6585
17643SOL     OW54935   1.473   2.350   7.653  0.0385 -0.5837  0.0835
17643SOL    HW154936   1.494   2.308   7.737 -1.4563 -1.3960  0.0873
17643SOL    HW254937   1.378   2.360   7.655 -0.4288 -3.1814 -2.6353
17644SOL     OW54938   3.115   9.016   9.294  0.5924  0.7371  0.3452
17644SOL    HW154939   3.117   9.106   9.328  0.5754  1.3406 -1.1875
17644SOL    HW254940   3.024   8.989   9.306  0.5178  1.0436  0.5046
17645SOL     OW54941   7.126   4.280   6.022 -0.3839  0.1226  0.0077
17645SOL    HW154942   7.162   4.368   6.034 -1.2775  0.5433 -0.2861
17645SOL    HW254943   7.104   4.276   5.929 -0.1248 -0.5060 -0.0336
17646SOL     OW54944   6.586   2.632   0.244 -0.0853  0.3709 -0.3025
17646SOL    HW154945   6.631   2.676   0.172  1.5092  0.7234  0.8520
17646SOL    HW254946   6.562   2.702   0.304  0.7345 -0.1042  0.6207
17647SOL     OW54947   0.535  10.429   2.381  0.2753 -0.6549 -0.2363
17647SOL    HW154948   0.595  10.459   2.449  2.1953  1.7278 -2.7376
17647SOL    HW254949   0.578  10.352   2.344 -0.8716 -2.0756  1.2920
17648SOL     OW54950   9.638   5.575   0.039 -0.1881 -0.4545 -0.5588
17648SOL    HW154951   9.594   5.579  -0.046  0.2150 -0.4953 -0.7760
17648SOL    HW254952   9.614   5.490   0.075 -0.6977 -0.2649 -0.4418
17649SOL     OW54953   6.696   7.080   4.937 -0.5891  0.7512 -0.6351
17649SOL    HW154954   6.741   7.000   4.910  2.8436  1.5475  2.0504
17649SOL    HW254955   6.630   7.094   4.869  1.3861 -2.1005 -3.4259
17650SOL     OW54956   3.450   3.839   4.340  0.0471  0.8817  0.6711
17650SOL    HW154957   3.384   3.773   4.320  2.1560 -1.0616 -0.3509
17650SOL    HW254958   3.413   3.921   4.308 -1.5224 -0.2757 -0.6328
17651SOL     OW54959   3.454   3.695   2.568  0.1966  0.4756  0.4392
17651SOL    HW154960   3.383   3.650   2.615 -0.0390  0.5814  0.1895
17651SOL    HW254961   3.423   3.699   2.477  0.6322  0.3047  0.2809
17652SOL     OW54962   1.322   4.277   9.768 -0.1699  0.1492 -0.0844
17652SOL    HW154963   1.366   4.321   9.695 -1.0263 -0.8905 -1.2659
17652SOL    HW254964   1.294   4.349   9.825 -1.1554  1.1557 -1.7492
17653SOL     OW54965   5.666   3.773   1.102 -0.1827 -0.1519 -0.1186
17653SOL    HW154966   5.583   3.801   1.140  0.1818  2.9681 -1.3256
17653SOL    HW254967   5.651   3.774   1.007  1.2646  0.6979 -0.3678
17654SOL     OW54968   3.093  10.014  11.099 -0.1581 -0.7900 -0.7151
17654SOL    HW154969   2.998  10.023  11.085 -0.4342  1.7698  1.8910
17654SOL    HW254970   3.100   9.954  11.173 -0.1249  1.9076  1.6466
17655SOL     OW54971   0.736   2.657   6.454 -0.0080  0.0169  0.3424
17655SOL    HW154972   0.827   2.670   6.427 -0.5898  1.4001 -1.1121
17655SOL    HW254973   0.701   2.595   6.391 -0.3108  0.1242  0.4068
17656SOL     OW54974   1.223   3.676   1.827  0.3108 -0.2479 -0.2947
17656SOL    HW154975   1.208   3.769   1.843 -0.2036 -0.5174  0.8701
17656SOL    HW254976   1.135   3.637   1.828  0.5808 -0.8568 -0.0234
17657SOL     OW54977  10.625   4.875  10.031 -0.5462 -0.2433 -0.1242
17657SOL    HW154978  10.634   4.857   9.938 -0.1987  1.8985 -0.5715
17657SOL    HW254979  10.676   4.807  10.074 -1.7011 -1.9942 -1.4064
17658SOL     OW54980   3.461   3.467   6.706 -0.0624  0.2035  0.0855
17658SOL    HW154981   3.488   3.536   6.645 -0.8267  0.4837  0.0480
17658SOL    HW254982   3.397   3.511   6.764  0.7845  0.0027  1.2126
17659SOL     OW54983   2.381   5.287   4.707 -0.1037  0.3534  0.2998
17659SOL    HW154984   2.455   5.232   4.680  0.8581  2.1892 -1.0202
17659SOL    HW254985   2.307   5.227   4.708  1.0059 -1.1173 -0.4509
17660SOL     OW54986   2.001   3.933   1.822 -0.6404 -0.5077  0.0455
17660SOL    HW154987   2.061   4.006   1.836 -1.4645  0.0051  1.1066
17660SOL    HW254988   1.928   3.971   1.772 -1.4244 -0.3777  1.2321
17661SOL     OW54989   5.828   7.242   3.736  0.2668  0.0477  0.3145
17661SOL    HW154990   5.873   7.323   3.759 -1.1003  1.6242 -2.1616
17661SOL    HW254991   5.883   7.202   3.669 -1.0403  1.1403 -1.5060
17662SOL     OW54992   3.480   3.240   9.055  0.1403 -0.0411  0.7396
17662SOL    HW154993   3.439   3.255   9.140 -0.4352  1.6329  0.1958
17662SOL    HW254994   3.412   3.260   8.991  1.1494  0.7146 -0.1427
17663SOL     OW54995   3.334   7.267  10.557 -0.8094 -0.0034 -0.0715
17663SOL    HW154996   3.286   7.194  10.518 -1.1723  0.8908 -1.3653
17663SOL    HW254997   3.401   7.290  10.493 -0.3258  0.4420  0.5756
17664SOL     OW54998   3.483   6.089   6.240 -0.0705  0.4676 -0.1359
17664SOL    HW154999   3.507   6.071   6.331  1.1252 -0.6909 -0.6385
17664SOL    HW255000   3.388   6.096   6.241 -0.1185 -0.1060  1.1254
17665SOL     OW55001   9.434   3.525   8.977 -0.5704  0.3502  0.1743
17665SOL    HW155002   9.460   3.505   9.067 -0.4164  0.2415  0.1053
17665SOL    HW255003   9.370   3.458   8.955  0.2386 -0.3095 -0.1940
17666SOL     OW55004   5.633   3.174   5.310 -0.2215  0.2280 -0.3958
17666SOL    HW155005   5.591   3.147   5.228  0.3238  0.7281 -0.8467
17666SOL    HW255006   5.572   3.146   5.378  0.0895 -1.7463 -0.8634
17667SOL     OW55007   0.738   4.907  10.826  0.1962  0.1820  0.1753
17667SOL    HW155008   0.658   4.926  10.777 -0.7326  1.1055  1.9919
17667SOL    HW255009   0.760   4.817  10.800 -0.3471  0.5454 -1.7559
17668SOL     OW55010   6.922   7.602   6.102 -1.0477  0.4432 -0.6374
17668SOL    HW155011   6.900   7.509   6.097 -0.4397  0.2283  0.3463
17668SOL    HW255012   7.017   7.605   6.097 -1.0734  1.0253 -0.8576
17669SOL     OW55013   3.745   6.452   1.444  0.6161 -0.3928 -0.1897
17669SOL    HW155014   3.782   6.387   1.383 -0.9606 -0.6872 -0.8955
17669SOL    HW255015   3.715   6.523   1.387 -0.2100 -0.3390  0.2923
17670SOL     OW55016   6.029  10.594   0.499 -0.1073  0.2792 -0.0886
17670SOL    HW155017   5.989  10.510   0.476 -0.5166  0.1930  0.8960
17670SOL    HW255018   5.959  10.641   0.544 -1.7000  3.2572 -4.8818
17671SOL     OW55019   3.739   5.133   7.913  0.2408 -0.2447  0.0979
17671SOL    HW155020   3.753   5.200   7.846 -2.5309  0.5779  0.2423
17671SOL    HW255021   3.783   5.167   7.991  0.0485  0.7426 -0.2077
17672SOL     OW55022   4.880   2.045  10.314 -0.0650 -0.0422 -0.4616
17672SOL    HW155023   4.890   2.081  10.226 -0.0094 -0.0334 -0.4517
17672SOL    HW255024   4.902   2.118  10.372  2.1623 -0.6733 -0.4335
17673SOL     OW55025   2.293   2.135   4.537 -0.6959 -0.0810 -0.5169
17673SOL    HW155026   2.275   2.212   4.591  1.1948 -0.7241  1.1736
17673SOL    HW255027   2.366   2.162   4.481  2.0519 -1.3258  2.1337
17674SOL     OW55028   5.850   0.856   4.163  0.3749 -0.3723 -0.1844
17674SOL    HW155029   5.924   0.886   4.217  0.1676 -0.7361  0.3101
17674SOL    HW255030   5.855   0.761   4.167  0.1526 -0.3974 -0.5344
17675SOL     OW55031   1.619   4.444   7.678 -0.3816  0.0050 -0.6971
17675SOL    HW155032   1.643   4.420   7.768  0.7430 -2.1046 -1.4853
17675SOL    HW255033   1.528   4.414   7.669 -0.8617  1.1538 -0.0067
17676SOL     OW55034   3.405   3.654   2.960 -0.2167 -0.3515  0.2329
17676SOL    HW155035   3.368   3.664   3.047 -0.8174  1.3844 -0.1919
17676SOL    HW255036   3.497   3.631   2.975 -0.6680 -1.5948  1.2954
17677SOL     OW55037   2.796   3.395   3.856  0.6030  0.6408 -0.2594
17677SOL    HW155038   2.710   3.364   3.830  1.1367  0.1696 -1.5515
17677SOL    HW255039   2.780   3.484   3.890 -0.5158  0.1389  0.6060
17678SOL     OW55040   2.061   5.939   8.260 -0.3306  0.2884  0.6911
17678SOL    HW155041   2.107   6.013   8.299  0.6705 -0.1491  0.3569
17678SOL    HW255042   1.989   5.921   8.321  1.5231 -0.7638  2.7057
17679SOL     OW55043   8.446   6.555   0.992  0.6017 -0.7867  0.1992
17679SOL    HW155044   8.508   6.627   1.003  1.9075 -1.9934  1.1014
17679SOL    HW255045   8.460   6.525   0.903 -0.0295  0.1080 -0.2238
17680SOL     OW55046   7.942   7.790   9.412  0.0459 -0.1060  0.0960
17680SOL    HW155047   7.880   7.800   9.483  1.2353  0.4859  1.0912
17680SOL    HW255048   8.025   7.821   9.448  0.7719 -0.2007 -1.4123
17681SOL     OW55049   8.388   8.418   1.570  0.2072 -0.0183 -0.1353
17681SOL    HW155050   8.364   8.502   1.531 -2.2167 -0.3176  0.5226
17681SOL    HW255051   8.469   8.435   1.617 -0.4798  2.0919  0.3751
17682SOL     OW55052   3.127   8.897   7.493  0.3388 -0.2263 -0.4129
17682SOL    HW155053   3.095   8.829   7.552 -0.0005  0.3712  0.0962
17682SOL    HW255054   3.205   8.932   7.536  0.3627 -0.1086 -0.5499
17683SOL     OW55055   2.358   9.180  10.329 -0.2879 -0.3051  0.6643
17683SOL    HW155056   2.274   9.135  10.329 -0.9751  0.9127  0.1800
17683SOL    HW255057   2.421   9.114  10.359 -1.3592 -1.3209  0.7612
17684SOL     OW55058   2.792   5.640   2.842  0.1450  0.3313  0.5163
17684SOL    HW155059   2.750   5.653   2.757 -2.6412 -0.1074  1.7184
17684SOL    HW255060   2.797   5.545   2.852 -2.2195  0.2768  1.9490
17685SOL     OW55061   2.815   6.661   6.618  0.0142 -0.1034  0.7252
17685SOL    HW155062   2.876   6.598   6.578  1.6831 -0.2471  3.3038
17685SOL    HW255063   2.871   6.735   6.644 -1.5109  1.3298  0.1126
17686SOL     OW55064   1.951   4.343   5.455  0.0916 -0.6665 -0.0360
17686SOL    HW155065   1.912   4.285   5.520 -0.4903  0.1985  0.4162
17686SOL    HW255066   1.877   4.370   5.400  0.1211  0.5471  0.4859
17687SOL     OW55067  10.161   4.239  10.356 -0.0799  0.8826 -0.1870
17687SOL    HW155068  10.250   4.205  10.351 -0.7343 -0.7695 -2.1745
17687SOL    HW255069  10.148   4.260  10.449  1.1634 -2.3344  0.8490
17688SOL     OW55070   4.082   4.256   1.972  0.1411 -0.5150  0.2027
17688SOL    HW155071   4.176   4.272   1.961  0.0491 -0.5788 -0.7628
17688SOL    HW255072   4.047   4.340   2.002  0.2317  0.0766 -1.2706
17689SOL     OW55073   1.787   2.648   7.187  0.4124  0.1043 -0.0353
17689SOL    HW155074   1.699   2.616   7.167  0.9401  0.2110 -3.1502
17689SOL    HW255075   1.783   2.742   7.170  1.5444 -0.1976 -2.4426
17690SOL     OW55076   7.582   2.138  10.789  0.2042 -0.0679 -0.9961
17690SOL    HW155077   7.494   2.162  10.759  0.0766 -0.7324 -1.1792
17690SOL    HW255078   7.634   2.132  10.709  0.1213 -0.8237 -1.0013
17691SOL     OW55079   6.333   4.704   6.040  0.0800 -0.0589  0.5510
17691SOL    HW155080   6.296   4.731   6.124 -0.8456 -1.8166  0.7418
17691SOL    HW255081   6.262   4.657   5.996  1.8832 -3.2493  0.7682
17692SOL     OW55082  10.802   4.036   6.242  0.1764 -0.8072  0.2541
17692SOL    HW155083  10.874   4.019   6.303  0.9844 -1.3594 -0.8219
17692SOL    HW255084  10.800   3.959   6.185 -1.7655 -1.1698  0.7028
17693SOL     OW55085   2.247   1.298   4.756 -0.3501  0.0324 -0.5382
17693SOL    HW155086   2.277   1.389   4.749 -0.9214  0.1794 -1.2238
17693SOL    HW255087   2.328   1.246   4.759 -0.0151  0.4997 -1.1262
17694SOL     OW55088   5.724   6.156   3.715 -0.6993 -0.1003 -0.1822
17694SOL    HW155089   5.639   6.185   3.750 -0.9597 -0.3961 -0.5554
17694SOL    HW255090   5.769   6.120   3.792 -0.6977  0.5337  0.1211
17695SOL     OW55091   2.327  10.007   4.220  0.2111  0.3328  0.2592
17695SOL    HW155092   2.327   9.939   4.152 -0.8153  0.3449  0.2320
17695SOL    HW255093   2.322  10.089   4.171  0.0756  0.3684  0.3328
17696SOL     OW55094  10.172   9.664   3.906  0.5917 -0.6541 -0.0214
17696SOL    HW155095  10.192   9.570   3.909 -1.4004 -1.0960  2.0213
17696SOL    HW255096  10.084   9.668   3.870  0.4060  0.3820  0.5199
17697SOL     OW55097   7.278   2.344   2.674  0.0895 -0.1883 -0.3724
17697SOL    HW155098   7.284   2.439   2.659 -0.4555 -0.4476 -2.5921
17697SOL    HW255099   7.185   2.324   2.659  0.5932 -1.3747 -2.0945
17698SOL     OW55100   7.529   8.668   1.137 -0.1405 -0.3127 -0.2303
17698SOL    HW155101   7.488   8.754   1.144  0.1050 -0.1113 -1.0996
17698SOL    HW255102   7.474   8.620   1.075  0.1508 -0.5131 -0.3395
17699SOL     OW55103   6.283   3.358   0.091 -0.0758  0.2424  0.2843
17699SOL    HW155104   6.354   3.420   0.079  1.1466 -1.1702 -0.1335
17699SOL    HW255105   6.314   3.278   0.048 -0.7784 -1.2203  2.3282
17700SOL     OW55106   4.742   7.462   0.540  0.0357  0.3130 -0.0511
17700SOL    HW155107   4.818   7.435   0.487  0.2075  0.1066  0.2966
17700SOL    HW255108   4.666   7.434   0.488  0.2070 -0.8779  0.2980
17701SOL     OW55109   5.031   7.248  10.220 -0.6540 -0.4627  0.1680
17701SOL    HW155110   4.948   7.296  10.219 -0.9264 -0.9304 -0.5077
17701SOL    HW255111   5.029   7.196  10.140  0.9113  0.5771 -0.5982
17702SOL     OW55112   1.320   2.378   2.056 -0.3089  0.9534  0.1058
17702SOL    HW155113   1.229   2.407   2.048  0.4529  3.5073 -0.1657
17702SOL    HW255114   1.355   2.384   1.967 -0.2862 -1.7175 -0.1325
17703SOL     OW55115   2.459   9.959   8.008  0.4821  0.5518  0.6482
17703SOL    HW155116   2.484  10.026   7.945 -0.9517 -0.0756 -0.6637
17703SOL    HW255117   2.459   9.877   7.958 -2.0935  0.2276  0.9962
17704SOL     OW55118   0.782   3.185   4.519  0.2186  0.4113  0.4809
17704SOL    HW155119   0.789   3.280   4.506 -0.4248  0.6344  1.5968
17704SOL    HW255120   0.700   3.174   4.568  0.6103 -0.6649  0.9186
17705SOL     OW55121   5.775   3.783   4.346 -0.4412 -0.5094 -0.3368
17705SOL    HW155122   5.850   3.745   4.391 -0.5081 -0.6511 -0.3447
17705SOL    HW255123   5.701   3.728   4.371 -0.4833 -0.5751 -0.6027
17706SOL     OW55124   7.466   7.480   4.573 -0.2993  0.2672 -0.2319
17706SOL    HW155125   7.489   7.568   4.602 -0.0918  0.1884 -0.1545
17706SOL    HW255126   7.550   7.438   4.556  0.0076 -1.5097  4.2890
17707SOL     OW55127   5.361   1.602   1.735  0.2178 -0.1961  0.0301
17707SOL    HW155128   5.333   1.525   1.687  1.3744 -1.0325  0.6557
17707SOL    HW255129   5.303   1.606   1.811 -0.2919 -0.0389 -0.3622
17708SOL     OW55130   3.309   0.002  10.964  0.1075  0.7666  0.1235
17708SOL    HW155131   3.397   0.039  10.974  0.3564  0.8493 -1.9580
17708SOL    HW255132   3.256   0.074  10.931 -0.6500  0.5925  0.9295
17709SOL     OW55133   7.588   5.593   6.312 -0.2848 -0.4448 -0.2614
17709SOL    HW155134   7.492   5.582   6.310 -0.3399  0.0791 -2.2810
17709SOL    HW255135   7.605   5.664   6.250  1.1626  1.9207  2.5827
17710SOL     OW55136   3.977   5.527   5.334 -0.4489 -0.5683 -0.1939
17710SOL    HW155137   4.007   5.602   5.283 -0.7627  0.4223  1.0427
17710SOL    HW255138   4.055   5.475   5.350  0.0302  0.2583  0.1781
17711SOL     OW55139   3.754   4.243   2.598 -0.3391  0.2387  0.0153
17711SOL    HW155140   3.835   4.251   2.649 -0.5840  3.1776  0.0909
17711SOL    HW255141   3.693   4.302   2.640 -2.5120 -1.7104 -0.2219
17712SOL     OW55142   3.669   6.369   4.751  0.0865  0.5444  0.2564
17712SOL    HW155143   3.736   6.300   4.760  2.3796  2.7387  1.3398
17712SOL    HW255144   3.633   6.356   4.664 -0.5659 -2.8061  0.8890
17713SOL     OW55145   8.780   4.552   6.712 -0.1893  0.1193  0.1818
17713SOL    HW155146   8.789   4.592   6.625 -0.3524 -0.4733 -0.1137
17713SOL    HW255147   8.859   4.578   6.759  0.5833 -0.7227 -0.6275
17714SOL     OW55148   4.543   2.161   6.764  0.5589 -0.1395  0.0360
17714SOL    HW155149   4.604   2.089   6.779  1.7036  0.4179 -1.6181
17714SOL    HW255150   4.470   2.120   6.717  1.6518 -0.1309 -1.7834
17715SOL     OW55151   3.834   6.768   7.608 -0.0638  0.1297  0.1754
17715SOL    HW155152   3.868   6.700   7.551  1.4119  1.6069 -0.8095
17715SOL    HW255153   3.866   6.745   7.695 -0.3185 -0.8770  0.0120
17716SOL     OW55154  10.413  10.788   9.315  0.4116  0.0215 -0.3059
17716SOL    HW155155  10.500  10.750   9.319 -0.4958 -2.5438 -1.8683
17716SOL    HW255156  10.415  10.846   9.239  1.2448  1.5643  0.8506
17717SOL     OW55157   7.400   8.127   2.986  0.5647 -0.2517  0.5505
17717SOL    HW155158   7.337   8.129   3.058  0.2453  2.2060  0.2700
17717SOL    HW255159   7.485   8.143   3.028  0.5184  0.1105  0.5068
17718SOL     OW55160   4.032   5.012   5.526 -0.1899  0.2537  0.1419
17718SOL    HW155161   4.052   4.918   5.524 -0.8056  0.1271 -1.8700
17718SOL    HW255162   4.115   5.055   5.506  0.0234  0.1565  0.7676
17719SOL     OW55163   2.446   5.979   3.948  0.6108  0.0337 -0.1947
17719SOL    HW155164   2.429   5.936   3.864  0.8586 -0.8274  0.1844
17719SOL    HW255165   2.387   6.054   3.949  0.2275 -0.2472 -0.9156
17720SOL     OW55166   7.429   9.240   8.261  0.0219 -0.4676  1.0131
17720SOL    HW155167   7.467   9.218   8.175 -2.9756 -2.1167 -0.0646
17720SOL    HW255168   7.471   9.179   8.322  2.3886  0.9041  0.8414
17721SOL     OW55169   9.665   6.875   2.302  0.4928  0.7861 -0.3304
17721SOL    HW155170   9.612   6.950   2.277  0.9962  0.9490 -0.9288
17721SOL    HW255171   9.741   6.878   2.244  0.9611  0.3281  0.2395
17722SOL     OW55172   4.865   8.126   2.443  0.0835  0.2844 -0.1654
17722SOL    HW155173   4.817   8.089   2.517  0.1271  0.4598 -0.0486
17722SOL    HW255174   4.807   8.194   2.409  0.5480  0.9982  0.4246
17723SOL     OW55175  10.557   1.880   9.453  0.1696 -0.7750  0.1596
17723SOL    HW155176  10.642   1.836   9.452 -0.3170 -1.7444  0.3773
17723SOL    HW255177  10.519   1.862   9.367  0.0413 -0.6300  0.1846
17724SOL     OW55178   1.481   3.283   5.131  0.3073  0.3104 -0.0749
17724SOL    HW155179   1.496   3.216   5.064  2.7110  0.2040  0.4957
17724SOL    HW255180   1.453   3.360   5.081 -0.7479 -0.5673 -0.9030
17725SOL     OW55181   3.939   5.472   4.507 -0.3901 -0.6092 -0.6141
17725SOL    HW155182   4.009   5.409   4.492 -0.7991 -1.4252  0.7297
17725SOL    HW255183   3.880   5.461   4.433  0.0916 -1.0276 -0.9441
17726SOL     OW55184   2.791   1.832   6.639  0.7007 -0.1497  0.4101
17726SOL    HW155185   2.750   1.785   6.711  0.0854  0.7557  0.6710
17726SOL    HW255186   2.731   1.904   6.619  0.5220 -0.7624 -1.4632
17727SOL     OW55187   7.255   3.129   2.468  0.0966  0.1574 -0.3711
17727SOL    HW155188   7.233   3.117   2.560  0.0801  0.6127 -0.3123
17727SOL    HW255189   7.284   3.220   2.463  0.1514  0.1155 -0.8054
17728SOL     OW55190   8.914  10.418   6.469  0.1046 -0.3223 -0.3855
17728SOL    HW155191   8.934  10.462   6.552 -1.1447 -1.3747  0.5179
17728SOL    HW255192   8.998  10.417   6.422  0.8696  0.1959  0.8973
17729SOL     OW55193   4.641   8.087   9.814 -0.1023  0.1191 -0.3445
17729SOL    HW155194   4.622   8.115   9.724  1.8181 -0.1993 -0.9015
17729SOL    HW255195   4.711   8.022   9.804 -0.6650 -0.8032  1.3164
17730SOL     OW55196   2.756   6.469   6.837  0.3206  0.2723 -0.6042
17730SOL    HW155197   2.811   6.399   6.804 -1.8416 -1.0445 -1.6898
17730SOL    HW255198   2.774   6.543   6.779  0.5355 -0.3125 -1.3024
17731SOL     OW55199   1.133   2.411   5.859 -0.1242  0.1203  1.1495
17731SOL    HW155200   1.151   2.405   5.765  1.4597 -2.7894  1.5371
17731SOL    HW255201   1.038   2.397   5.866 -0.1596 -0.2970  0.0534
17732SOL     OW55202   8.183   8.075   1.968 -0.0841 -0.1537  0.3774
17732SOL    HW155203   8.220   8.159   1.939 -2.0119  0.7599  0.4458
17732SOL    HW255204   8.175   8.024   1.887 -1.3711  0.7446 -0.0848
17733SOL     OW55205   5.825   8.213   4.291  0.0990 -0.4415  0.0501
17733SOL    HW155206   5.808   8.133   4.242 -0.5352  0.2514 -0.8994
17733SOL    HW255207   5.772   8.204   4.370  1.1169 -1.5587  0.6431
17734SOL     OW55208   5.198   3.515   6.128  0.2111  0.5091  0.3663
17734SOL    HW155209   5.135   3.444   6.137  1.0593 -0.3270 -0.0617
17734SOL    HW255210   5.191   3.542   6.036  0.5366  0.3411  0.2891
17735SOL     OW55211   5.788   5.090   6.403 -0.0218 -0.8749  0.1387
17735SOL    HW155212   5.856   5.149   6.371  0.3544 -0.5094  1.5405
17735SOL    HW255213   5.834   5.009   6.425 -0.6120 -1.9570 -2.2691
17736SOL     OW55214   3.109   2.524   1.108  0.2481  0.5611  0.0433
17736SOL    HW155215   3.126   2.600   1.163  1.8237  0.7925 -0.7014
17736SOL    HW255216   3.196   2.490   1.087 -0.3778 -0.4961 -0.9472
17737SOL     OW55217  10.991   1.754   8.950 -0.0458 -0.1878 -0.3418
17737SOL    HW155218  10.914   1.794   8.911 -0.3751  0.1613  0.6218
17737SOL    HW255219  10.977   1.763   9.045  2.0036  1.5684 -0.1181
17738SOL     OW55220  10.460   0.819   7.452 -0.7186  0.4012 -0.2939
17738SOL    HW155221  10.460   0.915   7.453  0.5456  0.4422 -1.5540
17738SOL    HW255222  10.551   0.795   7.435 -1.4371 -0.9500 -2.6217
17739SOL     OW55223  10.945   0.953   7.629  0.5776  0.2468 -0.1802
17739SOL    HW155224  10.913   0.969   7.540 -0.6996  0.1377  0.2394
17739SOL    HW255225  11.039   0.972   7.625  0.5944 -0.0666 -1.6201
17740SOL     OW55226   3.542   6.600   3.795 -0.1946  0.3842  0.4086
17740SOL    HW155227   3.587   6.666   3.742 -0.6051  1.3491  1.2322
17740SOL    HW255228   3.612   6.559   3.846  0.1638 -0.3581 -0.6550
17741SOL     OW55229   4.296   9.522   5.159  0.2446 -0.0890  0.8838
17741SOL    HW155230   4.252   9.440   5.138  0.9664 -0.6430  1.4916
17741SOL    HW255231   4.245   9.589   5.113 -0.2127 -0.8948  0.1934
17742SOL     OW55232   7.595   2.026   9.178  0.0370  0.1938 -0.4223
17742SOL    HW155233   7.674   1.982   9.209 -0.6548 -0.4279  0.4976
17742SOL    HW255234   7.568   1.975   9.102  0.1048 -0.0378 -0.2921
17743SOL     OW55235   7.925   4.108   8.160  0.0306 -0.6721 -0.0075
17743SOL    HW155236   7.876   4.050   8.101 -0.9781  0.3294 -0.1891
17743SOL    HW255237   7.996   4.142   8.106  2.6170 -4.0315  0.8960
17744SOL     OW55238   6.177   6.960   9.744 -1.1082  0.4735 -0.0560
17744SOL    HW155239   6.084   6.980   9.730 -0.6918  1.7071 -1.4020
17744SOL    HW255240   6.220   6.989   9.663  0.5963  0.9849  0.9732
17745SOL     OW55241   3.970   4.186   2.853 -0.2079  0.8313 -0.0162
17745SOL    HW155242   3.880   4.159   2.873 -0.0963 -0.4275 -1.0303
17745SOL    HW255243   3.967   4.281   2.856 -1.9991  0.9023 -1.5606
17746SOL     OW55244   2.463   6.968   5.324 -0.5136 -0.0414 -0.0452
17746SOL    HW155245   2.383   6.994   5.278  0.0515 -0.1350 -1.1038
17746SOL    HW255246   2.533   6.981   5.260  0.5473  1.4880  1.3287
17747SOL     OW55247   5.879   5.495   8.156  0.1372 -0.1156  0.0852
17747SOL    HW155248   5.971   5.485   8.179  0.1452 -1.2539 -0.3732
17747SOL    HW255249   5.844   5.406   8.161 -0.7071  0.1660 -0.6973
17748SOL     OW55250   5.989   6.956   3.997  0.4584  0.4468 -0.5434
17748SOL    HW155251   6.021   6.885   4.053  1.2962  1.5327  0.4253
17748SOL    HW255252   5.933   7.008   4.055  0.8248  1.2355 -0.8822
17749SOL     OW55253   4.981   2.248   9.605 -0.3796 -0.3573  0.3521
17749SOL    HW155254   5.009   2.311   9.538  1.0103  0.5239  1.6964
17749SOL    HW255255   4.932   2.182   9.556 -1.6160  1.5688 -1.1604
17750SOL     OW55256   1.447   1.693   5.108  0.0899  0.2277  0.0769
17750SOL    HW155257   1.501   1.673   5.184 -2.6509  0.0233  2.1648
17750SOL    HW255258   1.477   1.634   5.040  2.2395 -0.0456  1.1682
17751SOL     OW55259   3.086   5.075   3.565  0.3908 -0.1574 -0.2032
17751SOL    HW155260   3.069   5.162   3.529 -0.1051 -0.5763 -0.9932
17751SOL    HW255261   3.067   5.084   3.659 -1.4775  0.1228 -0.5809
17752SOL     OW55262   8.136   4.998   0.976 -0.1071  0.0296  0.1596
17752SOL    HW155263   8.126   4.971   0.885  0.3891  0.9165 -0.1653
17752SOL    HW255264   8.144   4.916   1.025  1.6561 -0.4197 -0.8348
17753SOL     OW55265  10.990   0.332   7.482  0.3286 -0.3217 -0.4795
17753SOL    HW155266  11.080   0.349   7.456  0.5069 -0.6394 -0.0777
17753SOL    HW255267  10.983   0.368   7.570 -0.2365  0.6341 -0.8995
17754SOL     OW55268   3.491   5.688   3.672  0.2210  0.4121  0.1109
17754SOL    HW155269   3.418   5.666   3.731 -0.3294  0.3301 -0.5878
17754SOL    HW255270   3.498   5.783   3.676  0.5427  0.3706  0.7152
17755SOL     OW55271   8.692   4.088  10.912  0.3315  0.1230  0.1206
17755SOL    HW155272   8.654   4.093  10.824 -0.2122  1.0318  0.3970
17755SOL    HW255273   8.784   4.066  10.897  0.4927  1.2812 -0.7314
17756SOL     OW55274   1.320   5.873   4.834  0.2318 -0.5111  0.2079
17756SOL    HW155275   1.383   5.832   4.775 -0.8868 -0.9021 -0.7567
17756SOL    HW255276   1.238   5.826   4.819 -0.9241  1.5260 -0.3981
17757SOL     OW55277   2.794  11.017   5.938  0.0168  0.0028  0.4584
17757SOL    HW155278   2.873  11.030   5.886 -0.8278 -1.8522 -1.4301
17757SOL    HW255279   2.785  10.922   5.945 -0.8698  0.1798  2.5688
17758SOL     OW55280  10.936   3.817   8.394  0.3956  0.3148  0.4935
17758SOL    HW155281  10.906   3.901   8.429  0.2024  0.9492 -1.0852
17758SOL    HW255282  10.970   3.839   8.307  0.5556 -1.2141  0.1466
17759SOL     OW55283   6.795   1.403  10.725 -0.2456  0.8454 -0.3403
17759SOL    HW155284   6.754   1.467  10.667  0.1247 -0.1230 -1.7156
17759SOL    HW255285   6.889   1.421  10.719 -0.1060 -0.0339 -1.0261
17760SOL     OW55286   2.245   8.885   9.057 -0.9329  0.1927  0.7311
17760SOL    HW155287   2.258   8.969   9.013 -3.1628  0.1592 -0.1159
17760SOL    HW255288   2.245   8.907   9.150  0.3864  0.8068  0.6118
17761SOL     OW55289   1.294   5.285   4.436  0.9188  0.3492 -0.7198
17761SOL    HW155290   1.332   5.236   4.363 -2.0443 -1.5411 -1.1848
17761SOL    HW255291   1.228   5.341   4.395  0.7808  0.9474  0.2954
17762SOL     OW55292   8.158   1.882   9.064 -0.1655  0.1583 -0.6796
17762SOL    HW155293   8.120   1.817   9.004  0.4489  0.8520 -1.8807
17762SOL    HW255294   8.252   1.879   9.044  0.1107  0.1169  0.5744
17763SOL     OW55295  10.179  10.189   6.918 -0.1904  0.1080  0.1873
17763SOL    HW155296  10.182  10.283   6.934  3.1189  0.3158 -0.7585
17763SOL    HW255297  10.151  10.181   6.826 -0.0794  0.2217  0.1429
17764SOL     OW55298  10.955   4.930   1.512  0.3178  0.3849 -0.1728
17764SOL    HW155299  11.040   4.962   1.542  0.2891  2.0391 -1.7270
17764SOL    HW255300  10.977   4.870   1.440  0.1701  0.7377 -0.5105
17765SOL     OW55301   2.491   2.560   7.722 -0.0259 -0.2193 -0.3548
17765SOL    HW155302   2.487   2.610   7.640 -0.0469  0.0548 -0.1872
17765SOL    HW255303   2.445   2.614   7.786 -1.3134 -1.1043 -0.5028
17766SOL     OW55304   2.950   7.270   6.212  0.6475 -0.5889 -0.3066
17766SOL    HW155305   2.895   7.326   6.158 -0.0245 -0.9483 -0.0140
17766SOL    HW255306   3.026   7.251   6.158 -1.2034 -3.1683 -2.2578
17767SOL     OW55307   4.962   6.021   5.986  0.2627  0.1311  0.0126
17767SOL    HW155308   5.048   5.991   5.957 -0.6261 -0.4925 -2.1822
17767SOL    HW255309   4.903   5.948   5.968 -1.0419  1.2220 -0.3625
17768SOL     OW55310   6.066   2.812   3.599 -0.1425 -0.4234 -0.3121
17768SOL    HW155311   6.124   2.888   3.603  0.7056 -0.8763 -2.3696
17768SOL    HW255312   6.117   2.746   3.551 -1.2165 -1.9548  0.5786
17769SOL     OW55313   2.661   5.069   6.809  0.7131  0.0783  1.1172
17769SOL    HW155314   2.752   5.075   6.779  0.0565 -0.8000 -1.2736
17769SOL    HW255315   2.619   5.147   6.772 -0.1515 -1.0767 -0.4070
17770SOL     OW55316   1.583   0.971  10.870  0.5578 -0.4798 -0.7857
17770SOL    HW155317   1.539   0.897  10.911  0.2435  0.2304  0.2169
17770SOL    HW255318   1.517   1.040  10.867  1.3811  0.3907  0.1139
17771SOL     OW55319   6.941   8.926   6.545 -0.3475 -0.2643  0.4178
17771SOL    HW155320   7.005   8.997   6.534  1.5274 -2.0405 -1.0962
17771SOL    HW255321   6.866   8.953   6.492 -0.1193  1.0606  0.7323
17772SOL     OW55322   4.821   4.749   1.470  0.3275 -0.2247  0.3995
17772SOL    HW155323   4.800   4.664   1.508  0.3796 -0.3583  0.1343
17772SOL    HW255324   4.899   4.778   1.516 -0.0890  0.0011  0.9762
17773SOL     OW55325   4.477   6.262   5.280 -0.5194  0.4946  0.2829
17773SOL    HW155326   4.467   6.207   5.357  0.0615  1.2918  0.9506
17773SOL    HW255327   4.565   6.298   5.287 -0.1028 -0.1490 -1.2560
17774SOL     OW55328   2.174   2.445   5.036 -0.4023 -0.0216  0.2932
17774SOL    HW155329   2.133   2.517   4.989  2.4433  1.1377 -0.6226
17774SOL    HW255330   2.124   2.368   5.009 -2.4457  1.3373 -0.0462
17775SOL     OW55331   5.175   3.520  10.158  0.3588 -0.2480 -0.1995
17775SOL    HW155332   5.248   3.580  10.169 -0.8007  1.2456 -0.2732
17775SOL    HW255333   5.177   3.497  10.065  0.8887 -0.4325 -0.1433
17776SOL     OW55334   0.437   7.207   3.818  0.0169 -0.2741 -0.0526
17776SOL    HW155335   0.375   7.144   3.854 -0.8442  1.3586  1.5304
17776SOL    HW255336   0.523   7.177   3.848 -0.1804 -1.5922 -0.7657
17777SOL     OW55337   5.296   3.623   3.197 -0.0987  0.2201 -0.3765
17777SOL    HW155338   5.294   3.708   3.153  2.8556 -0.3888 -1.9307
17777SOL    HW255339   5.336   3.642   3.282 -1.4882  0.6830  0.1963
17778SOL     OW55340   6.913   4.713   6.038 -0.3122 -0.4051 -0.0703
17778SOL    HW155341   6.975   4.779   6.008 -0.8615  0.1180 -0.0534
17778SOL    HW255342   6.827   4.753   6.029 -0.7064 -1.3327 -0.6382
17779SOL     OW55343   7.328   4.039   8.359  0.3138 -0.9415  0.3257
17779SOL    HW155344   7.407   4.023   8.307  0.7885 -1.5896  1.2089
17779SOL    HW255345   7.326   4.133   8.372 -0.3325 -0.6357 -1.6326
17780SOL     OW55346   5.111   3.269   6.035  0.0298  0.0046  0.4174
17780SOL    HW155347   5.093   3.343   5.977 -0.0293  0.2029  0.6828
17780SOL    HW255348   5.145   3.200   5.978  0.4253  0.3617  0.2161
17781SOL     OW55349   5.397   8.571   1.037 -0.6774  0.1381  0.3717
17781SOL    HW155350   5.487   8.584   1.008 -1.2850 -1.0735 -2.3871
17781SOL    HW255351   5.348   8.643   0.997 -1.0463  0.4141  1.3025
17782SOL     OW55352  11.010   6.929   4.246 -0.2514 -0.5390 -0.1895
17782SOL    HW155353  10.941   6.863   4.243  0.5829 -1.4581  0.5233
17782SOL    HW255354  10.969   7.007   4.207 -1.8535 -0.8948  0.6970
17783SOL     OW55355   4.232   8.520   8.506  0.0088  0.2001  0.1199
17783SOL    HW155356   4.174   8.522   8.430  0.3122  1.2654 -0.1073
17783SOL    HW255357   4.310   8.472   8.477 -0.2497 -0.1660  0.0384
17784SOL     OW55358   4.223   4.419   2.332 -0.5367 -0.0320 -0.2140
17784SOL    HW155359   4.161   4.375   2.389  0.7281 -0.5409  0.8295
17784SOL    HW255360   4.273   4.349   2.291  1.0300  0.3595  0.9288
17785SOL     OW55361   4.903   5.020   5.518 -0.0868  0.0074  0.4069
17785SOL    HW155362   4.832   4.968   5.481  0.0446 -1.9131  2.6178
17785SOL    HW255363   4.864   5.105   5.538 -1.1398 -0.2528 -0.4597
17786SOL     OW55364   5.718   8.132   7.284 -0.1823 -0.0697 -0.1234
17786SOL    HW155365   5.708   8.215   7.331 -0.8986  1.0255 -2.1239
17786SOL    HW255366   5.812   8.113   7.288 -0.1011  0.4726  0.8869
17787SOL     OW55367   1.397   6.311   2.034  0.1845 -0.0028 -0.6886
17787SOL    HW155368   1.341   6.343   1.964  1.1870  1.3867 -0.8960
17787SOL    HW255369   1.446   6.238   1.995 -0.9015 -0.7403 -0.7182
17788SOL     OW55370   8.488   9.368   5.270 -0.6195  0.1535  0.3302
17788SOL    HW155371   8.577   9.383   5.303 -0.8026 -0.7765  1.2875
17788SOL    HW255372   8.500   9.310   5.194 -0.4354 -0.2704  0.6798
17789SOL     OW55373   6.273   3.652   2.953 -0.1631 -0.2767  0.5480
17789SOL    HW155374   6.306   3.567   2.982 -0.0899 -0.6510 -0.5850
17789SOL    HW255375   6.324   3.672   2.874 -0.7658  0.4174  0.3236
17790SOL     OW55376   2.882   3.791   8.523  0.1054  0.0067  0.1554
17790SOL    HW155377   2.805   3.841   8.548 -0.8182 -1.4885  0.4723
17790SOL    HW255378   2.847   3.718   8.471  1.2263 -1.0110  0.7632
17791SOL     OW55379   6.436   0.509   8.716  0.2840  0.0922  0.3815
17791SOL    HW155380   6.487   0.444   8.764 -4.3308 -3.2603  1.3420
17791SOL    HW255381   6.390   0.559   8.783 -0.5726  0.4582 -0.4474
17792SOL     OW55382   3.874   2.641   3.675  0.2385 -0.2335  0.3714
17792SOL    HW155383   3.857   2.578   3.604 -1.8231  0.6666 -0.0109
17792SOL    HW255384   3.865   2.590   3.755 -0.9225 -0.5685  0.0514
17793SOL     OW55385   2.641   8.336   1.947 -0.4870 -0.6893 -0.4181
17793SOL    HW155386   2.660   8.428   1.966 -1.2126 -0.9464  1.9128
17793SOL    HW255387   2.546   8.328   1.959 -0.7296 -1.3902 -2.4487
17794SOL     OW55388   8.040   0.433   6.094  0.2079 -0.3844  0.0591
17794SOL    HW155389   8.070   0.417   6.183  0.2455  0.5227  0.2224
17794SOL    HW255390   8.109   0.487   6.055  0.4279 -1.1810 -0.6811
17795SOL     OW55391   3.808   7.741   5.199  0.2271 -0.0488 -0.6658
17795SOL    HW155392   3.784   7.831   5.222 -0.0264 -0.3913  0.5186
17795SOL    HW255393   3.761   7.723   5.118 -2.8393 -0.3583  1.0460
17796SOL     OW55394   9.257   6.627   2.612  0.0654  0.5090  0.2713
17796SOL    HW155395   9.308   6.546   2.605  0.1655  0.5362  0.6906
17796SOL    HW255396   9.290   6.670   2.691  0.3414  1.1867 -0.2024
17797SOL     OW55397   8.608   0.789   9.761  0.1349  0.2490  0.0886
17797SOL    HW155398   8.577   0.863   9.710  1.9284  0.7156 -0.4010
17797SOL    HW255399   8.658   0.736   9.698  1.3080  0.1699  1.0501
17798SOL     OW55400   4.973   6.074   4.110 -1.0170 -0.2029  0.5342
17798SOL    HW155401   4.964   6.159   4.067  1.8905 -0.4084 -0.7107
17798SOL    HW255402   4.943   6.090   4.200 -0.4541  2.1874  0.3796
17799SOL     OW55403   2.935   0.750   3.545  0.3654 -0.1682  0.8806
17799SOL    HW155404   2.899   0.837   3.528 -0.6864 -0.4795  1.4205
17799SOL    HW255405   2.882   0.691   3.491  2.0074 -0.3501 -0.6167
17800SOL     OW55406   3.322   3.770   8.128 -0.3766  0.4649  0.4865
17800SOL    HW155407   3.320   3.827   8.051  0.3906  0.8753  0.7516
17800SOL    HW255408   3.355   3.687   8.096 -0.6156  0.4526  0.2679
17801SOL     OW55409   8.870   5.495   6.926 -0.0045  0.1411 -0.3173
17801SOL    HW155410   8.794   5.438   6.934 -0.4155  0.5716 -1.0483
17801SOL    HW255411   8.924   5.454   6.858  0.8323 -0.6011  0.7561
17802SOL     OW55412   9.423   3.463   7.020  0.1416 -0.4951  0.5904
17802SOL    HW155413   9.467   3.544   6.992  0.0959 -0.6591  0.0422
17802SOL    HW255414   9.351   3.452   6.958  1.2592 -1.9586 -0.5224
17803SOL     OW55415   5.025   7.550   3.973  0.6382 -0.0804 -0.0057
17803SOL    HW155416   4.948   7.533   4.028 -2.1499  0.9222 -3.1801
17803SOL    HW255417   5.056   7.636   4.001 -0.7240  0.4176  0.0760
17804SOL     OW55418   3.479   7.774   0.886  0.0871 -0.2955 -0.2525
17804SOL    HW155419   3.528   7.852   0.859 -0.0571 -0.3330 -0.6215
17804SOL    HW255420   3.388   7.804   0.891  0.0462 -0.4134 -0.2938
17805SOL     OW55421   3.281   5.827   3.087 -0.2796 -0.0233  0.4053
17805SOL    HW155422   3.234   5.744   3.096 -0.6660  0.0232 -0.9583
17805SOL    HW255423   3.312   5.827   2.996 -0.0914  1.2134  0.4553
17806SOL     OW55424   8.425  10.470   8.753  0.2550 -0.2193 -0.0542
17806SOL    HW155425   8.364  10.528   8.708  0.7676 -0.4994 -1.1367
17806SOL    HW255426   8.508  10.482   8.708  1.1465  0.4863  1.6855
17807SOL     OW55427   1.498   5.887   9.733 -0.5323 -0.4514 -0.2516
17807SOL    HW155428   1.438   5.825   9.775 -0.7698  0.8871  1.5197
17807SOL    HW255429   1.518   5.950   9.802  0.3824  0.9501 -1.7416
17808SOL     OW55430   3.711   6.451   3.946  0.5315  0.2932 -0.4995
17808SOL    HW155431   3.785   6.506   3.969  1.1948 -0.4490 -0.7992
17808SOL    HW255432   3.672   6.426   4.030  0.4214  0.9387 -0.3531
17809SOL     OW55433   2.511   3.944   2.157  0.2828 -0.6576  0.1412
17809SOL    HW155434   2.536   4.028   2.194 -0.6786 -1.2292  2.2003
17809SOL    HW255435   2.542   3.948   2.066  2.4949  0.9103  0.8827
17810SOL     OW55436   8.285   1.914   5.480  0.0278  0.0083  0.4950
17810SOL    HW155437   8.369   1.906   5.526  0.4316  1.3922  0.0398
17810SOL    HW255438   8.267   2.008   5.479 -1.7430 -0.2918  0.9274
17811SOL     OW55439   9.709   1.264   2.082  0.1391 -0.0901  0.2347
17811SOL    HW155440   9.699   1.347   2.129 -1.6824  0.3963 -0.9030
17811SOL    HW255441   9.740   1.203   2.148  1.5242  1.4737  1.1094
17812SOL     OW55442   2.881   5.976   2.720 -0.2864  0.2344 -0.1280
17812SOL    HW155443   2.967   6.016   2.709 -0.0147 -0.5455 -0.9572
17812SOL    HW255444   2.871   5.965   2.815 -0.1576  1.7534  0.0983
17813SOL     OW55445   2.573  10.985  10.327  0.9058 -0.2649  0.2994
17813SOL    HW155446   2.555  10.894  10.350  0.2335 -0.3426 -0.4876
17813SOL    HW255447   2.576  11.032  10.410  0.2422 -0.8304  0.6469
17814SOL     OW55448   5.128   0.137   7.539 -0.1956 -0.3399  0.3245
17814SOL    HW155449   5.112   0.045   7.557 -0.6226 -0.3164  0.0705
17814SOL    HW255450   5.219   0.151   7.565 -0.4484 -0.5729  1.4197
17815SOL     OW55451   7.165   3.250   3.834 -0.2635  0.2007 -0.2607
17815SOL    HW155452   7.239   3.207   3.876 -0.8562 -1.9032 -1.2481
17815SOL    HW255453   7.191   3.259   3.742 -1.3890 -1.0317 -0.7310
17816SOL     OW55454   2.064   8.443   2.795  0.5921  0.1689 -0.0385
17816SOL    HW155455   2.003   8.369   2.785 -1.9879  1.9451  1.3591
17816SOL    HW255456   2.072   8.480   2.708  0.0504 -0.3988 -0.3398
17817SOL     OW55457   9.759   3.743   9.455  0.0545 -0.1651  0.0775
17817SOL    HW155458   9.740   3.820   9.400  0.4960 -0.9188 -1.1685
17817SOL    HW255459   9.678   3.692   9.453  0.3427 -0.6072 -0.5859
17818SOL     OW55460  10.436   6.120   1.828  0.1011  0.1212 -0.0768
17818SOL    HW155461  10.374   6.114   1.755  0.8762  1.3758 -0.8770
17818SOL    HW255462  10.414   6.202   1.871 -1.0664 -1.1279  1.8256
17819SOL     OW55463   0.499   5.743   4.251  0.2089 -0.2300 -0.3005
17819SOL    HW155464   0.550   5.702   4.182 -2.1244 -2.5141 -0.8120
17819SOL    HW255465   0.431   5.679   4.273 -0.9375  1.6149  2.0612
17820SOL     OW55466   4.525   6.577   3.569  0.3703 -0.1660 -0.2518
17820SOL    HW155467   4.521   6.505   3.506  0.0062 -0.7416  0.4121
17820SOL    HW255468   4.513   6.535   3.654  1.9527  0.4560  0.3111
17821SOL     OW55469   7.197   8.366   3.778  0.3548 -0.7388 -0.5402
17821SOL    HW155470   7.118   8.410   3.747  0.6617  0.3728  0.2123
17821SOL    HW255471   7.256   8.437   3.803  0.3034 -1.5536  2.1061
17822SOL     OW55472   6.485   3.180   4.567 -0.3944  0.3535 -0.5031
17822SOL    HW155473   6.485   3.275   4.578  1.7193  0.5214 -1.6030
17822SOL    HW255474   6.524   3.165   4.481  0.7236 -1.5491  0.2729
17823SOL     OW55475   7.630   4.602   1.360 -0.0901 -0.2436  0.5844
17823SOL    HW155476   7.704   4.639   1.312 -0.6500  0.0238 -0.0877
17823SOL    HW255477   7.660   4.515   1.386  0.8268  0.2291  1.2132
17824SOL     OW55478   9.933   1.563   5.829  0.6833 -0.5101  0.2238
17824SOL    HW155479   9.980   1.577   5.911  1.2094 -2.0844  0.2295
17824SOL    HW255480   9.994   1.515   5.774  0.2003  0.2024 -0.9741
17825SOL     OW55481  10.198   0.606   3.948  0.3860  0.2453  0.1341
17825SOL    HW155482  10.141   0.580   4.020  0.4640  1.6752  0.7422
17825SOL    HW255483  10.286   0.577   3.974  0.3426  0.3696  0.4213
17826SOL     OW55484   4.949   4.256   3.152 -0.4632 -0.2633 -0.1793
17826SOL    HW155485   4.868   4.224   3.191 -1.7654  2.3777 -0.5152
17826SOL    HW255486   4.924   4.337   3.108  2.6341  1.5292  1.0541
17827SOL     OW55487   2.398   3.860  10.629 -0.0595  0.0367  0.6570
17827SOL    HW155488   2.465   3.925  10.653  0.3568 -0.2833  0.3870
17827SOL    HW255489   2.447   3.793  10.581 -0.4681 -0.5226  1.0079
17828SOL     OW55490   7.399   2.174   0.697 -0.1707 -0.1720  0.3886
17828SOL    HW155491   7.401   2.253   0.752  0.4362  1.5281 -1.8763
17828SOL    HW255492   7.491   2.148   0.690 -0.4684 -1.9456  2.1437
17829SOL     OW55493  10.030   5.492   0.946 -0.8000 -0.0454 -0.0170
17829SOL    HW155494  10.119   5.501   0.911  0.2352 -0.3259  2.3319
17829SOL    HW255495   9.981   5.450   0.876  0.5697  1.2241 -1.8634
17830SOL     OW55496   6.406   5.393   4.869  0.2378 -0.1060 -0.1717
17830SOL    HW155497   6.463   5.318   4.853 -0.0262 -0.4505  0.4504
17830SOL    HW255498   6.459   5.454   4.920 -0.0926 -0.6533  0.8596
17831SOL     OW55499   5.787   1.209   7.433  0.7165  0.0187 -0.2636
17831SOL    HW155500   5.743   1.150   7.372  1.7115 -0.5274 -0.4824
17831SOL    HW255501   5.776   1.296   7.395  0.2337 -0.1598 -0.5483
17832SOL     OW55502  10.089   1.468   3.302  0.0111 -0.0523  0.3561
17832SOL    HW155503  10.015   1.416   3.335 -0.2711  0.0310 -0.1404
17832SOL    HW255504  10.094   1.446   3.209 -0.4790  1.2242  0.0089
17833SOL     OW55505   5.852   8.095   1.947  0.2622 -0.1167  0.0960
17833SOL    HW155506   5.774   8.052   1.981  0.9539 -2.0627 -0.6289
17833SOL    HW255507   5.869   8.167   2.008 -1.4693 -0.3076  0.8538
17834SOL     OW55508   6.716   5.591   1.089  0.2573  0.2549 -0.0125
17834SOL    HW155509   6.729   5.651   1.015 -0.1186  0.8348  0.3901
17834SOL    HW255510   6.622   5.590   1.104  0.3537  0.3465  0.6324
17835SOL     OW55511   1.236   2.008   9.467 -0.7064 -0.3170  0.1782
17835SOL    HW155512   1.193   1.960   9.395 -0.7804  0.2700 -0.1761
17835SOL    HW255513   1.164   2.050   9.514 -0.6763 -0.8702  0.7324
17836SOL     OW55514   1.203   1.191   0.995 -0.5562 -0.3953 -0.2867
17836SOL    HW155515   1.216   1.136   0.918 -1.1520 -0.2253 -0.5148
17836SOL    HW255516   1.108   1.198   1.004 -0.4968 -0.5091  0.5367
17837SOL     OW55517   9.566   9.114  10.441 -0.1840  0.1025 -0.4075
17837SOL    HW155518   9.635   9.142  10.380  0.3278 -0.5694 -0.1605
17837SOL    HW255519   9.610   9.112  10.526 -0.3424 -0.9194 -0.3416
17838SOL     OW55520   6.239   3.074   2.932  0.5690 -0.2929 -0.2378
17838SOL    HW155521   6.287   3.100   2.853  1.2843  0.3315  0.3899
17838SOL    HW255522   6.285   2.996   2.964  0.8304 -0.0212  0.0540
17839SOL     OW55523  10.061   5.049   7.204  0.3493 -0.0354 -0.3673
17839SOL    HW155524  10.147   5.066   7.168 -0.2462 -0.2989 -2.0099
17839SOL    HW255525  10.049   5.116   7.271  2.2516 -0.6808  0.6839
17840SOL     OW55526   5.812   1.979   9.196  0.0068 -0.2686 -0.5751
17840SOL    HW155527   5.718   1.959   9.196 -0.5968  2.1833 -1.7790
17840SOL    HW255528   5.838   1.970   9.104  0.8675 -0.4530 -0.3218
17841SOL     OW55529   7.872   3.034   0.391  0.6231 -0.7155  0.2025
17841SOL    HW155530   7.905   2.981   0.318  0.9548  0.0670 -0.2242
17841SOL    HW255531   7.890   2.981   0.469 -1.5709 -2.4915 -0.3822
17842SOL     OW55532   7.964   6.587  10.177  0.6155 -0.1658  0.0410
17842SOL    HW155533   7.949   6.525  10.248  1.4701  0.2287  0.5931
17842SOL    HW255534   7.960   6.673  10.220  0.8117  0.0924 -0.4536
17843SOL     OW55535   3.410   4.143   6.812 -0.3816  0.0674  0.2207
17843SOL    HW155536   3.391   4.051   6.795  0.1457  0.2247 -1.3225
17843SOL    HW255537   3.343   4.191   6.763 -1.6376  0.5269  2.2767
17844SOL     OW55538   5.496   5.135   6.044  0.5022 -0.3056 -0.1193
17844SOL    HW155539   5.532   5.116   5.958  0.0290 -0.1811 -0.3487
17844SOL    HW255540   5.423   5.194   6.027  0.3050 -0.4075  0.3506
17845SOL     OW55541   6.448   6.705   1.911  0.1592  0.4872 -0.8702
17845SOL    HW155542   6.407   6.716   1.826 -0.0868 -0.9146 -0.9543
17845SOL    HW255543   6.425   6.616   1.938  0.4686  0.8011  0.5321
17846SOL     OW55544   1.704   9.320   3.938 -0.1745 -0.0117  0.0768
17846SOL    HW155545   1.711   9.355   3.849  3.4709 -0.2285  0.1105
17846SOL    HW255546   1.693   9.397   3.993  0.8237  0.4932 -0.3802
17847SOL     OW55547   8.902   5.340   3.885 -0.4194 -0.0934 -0.6618
17847SOL    HW155548   8.859   5.322   3.802 -0.8889 -0.8331 -0.2724
17847SOL    HW255549   8.921   5.434   3.883 -0.7235 -0.0471 -1.4597
17848SOL     OW55550   5.553   7.651  10.667 -0.1824 -0.3099  0.0878
17848SOL    HW155551   5.510   7.580  10.715 -1.3409  0.7618  0.6983
17848SOL    HW255552   5.481   7.698  10.625  0.4281  1.1193  0.5728
17849SOL     OW55553   5.431   4.644   8.517 -0.2724  0.0546  0.0781
17849SOL    HW155554   5.458   4.668   8.606 -0.8113  1.6846 -0.1644
17849SOL    HW255555   5.512   4.642   8.467  0.0266 -0.7927  0.5681
17850SOL     OW55556   4.819   5.847   5.395 -0.3059  0.3322 -0.1823
17850SOL    HW155557   4.841   5.931   5.356  1.1351  0.2051  0.2945
17850SOL    HW255558   4.882   5.786   5.356 -0.6153 -0.3124  0.3105
17851SOL     OW55559   6.754   2.948   4.422  0.6551  0.2927 -0.3081
17851SOL    HW155560   6.704   3.029   4.409  0.0712 -0.2107 -1.4038
17851SOL    HW255561   6.769   2.943   4.516 -3.7243 -0.8295  0.5853
17852SOL     OW55562   9.312   3.905   0.171  0.0389  0.0492  0.5325
17852SOL    HW155563   9.280   3.815   0.161 -2.3618  0.9189 -0.5133
17852SOL    HW255564   9.235   3.959   0.154  1.7033  2.3567 -0.1187
17853SOL     OW55565   3.131   0.547   4.571 -0.0907  0.0128 -0.2745
17853SOL    HW155566   3.165   0.458   4.567  1.3668  0.5580 -0.7959
17853SOL    HW255567   3.204   0.602   4.541 -2.0044  1.1275 -3.2935
17854SOL     OW55568   1.671   8.696  10.184  0.1100  0.0129  0.1293
17854SOL    HW155569   1.691   8.607  10.157 -0.5635 -0.5644  1.4264
17854SOL    HW255570   1.586   8.715  10.144 -0.2235 -0.3193  0.6634
17855SOL     OW55571   6.284   4.338   4.416  0.3154  0.1766 -0.8709
17855SOL    HW155572   6.328   4.410   4.461 -1.8010  1.0791 -0.1034
17855SOL    HW255573   6.352   4.273   4.402  1.7156  1.1554  0.9595
17856SOL     OW55574   5.916   6.614   5.474 -0.0236  0.0407 -0.2610
17856SOL    HW155575   5.978   6.681   5.446  0.1656  0.0651  0.1971
17856SOL    HW255576   5.861   6.597   5.398 -0.4715  1.1533 -0.2027
17857SOL     OW55577   3.550   5.868   7.812 -0.6693  0.5553  0.0182
17857SOL    HW155578   3.639   5.849   7.782 -0.9253 -0.7519  0.0509
17857SOL    HW255579   3.543   5.822   7.896 -1.8847 -0.6555 -0.7268
17858SOL     OW55580  10.166   3.647   8.226  0.2715 -0.2571  0.3999
17858SOL    HW155581  10.114   3.622   8.302 -0.2581  0.8322  0.4201
17858SOL    HW255582  10.254   3.661   8.260  0.0387  0.2150  0.8195
17859SOL     OW55583   0.429   1.572   4.758 -0.2194  0.2496 -0.2676
17859SOL    HW155584   0.458   1.580   4.849  1.0859 -0.8057 -0.5642
17859SOL    HW255585   0.378   1.492   4.757  0.9157 -0.4963 -0.7121
17860SOL     OW55586   3.637   6.423   3.270  0.5298  0.4547  0.7684
17860SOL    HW155587   3.659   6.330   3.268  1.1669  0.6111  0.2997
17860SOL    HW255588   3.618   6.446   3.179  1.2559  0.9822  0.7394
17861SOL     OW55589   4.167   5.337   4.446  0.1301  0.4131 -0.1464
17861SOL    HW155590   4.195   5.246   4.453 -0.6419  0.0477 -1.5355
17861SOL    HW255591   4.229   5.385   4.501 -0.1450 -1.0670  1.5679
17862SOL     OW55592   6.623   5.086   9.547 -0.3662 -0.1023  0.7480
17862SOL    HW155593   6.615   5.151   9.477  0.5042  0.1856  0.8972
17862SOL    HW255594   6.559   5.114   9.613 -2.2079 -1.1673 -0.4828
17863SOL     OW55595   7.992   7.808   8.239 -0.0824 -0.1530 -0.3846
17863SOL    HW155596   8.070   7.792   8.185  0.3788  0.2015  0.1629
17863SOL    HW255597   8.002   7.749   8.314  0.4413  0.9563  0.4502
17864SOL     OW55598   3.852   8.623   7.256 -0.0636 -0.8638 -0.2272
17864SOL    HW155599   3.863   8.531   7.280 -1.1021 -0.5363  1.7410
17864SOL    HW255600   3.812   8.663   7.333  3.9732  2.1273  0.6444
17865SOL     OW55601   0.476   7.510   3.693  0.3428  0.0688 -1.0400
17865SOL    HW155602   0.408   7.460   3.647 -0.9882  1.0643 -0.2543
17865SOL    HW255603   0.432   7.543   3.772  1.2269  2.1759 -1.3502
17866SOL     OW55604   0.992   5.475   5.772 -0.2187  0.2557  0.4634
17866SOL    HW155605   0.911   5.521   5.750 -1.8309 -1.0890  2.9780
17866SOL    HW255606   1.056   5.544   5.789 -1.4741  1.4508  0.4912
17867SOL     OW55607   5.351   4.002   1.525 -0.5831 -0.0889 -0.8368
17867SOL    HW155608   5.346   3.921   1.576  0.5540 -0.4085 -1.1915
17867SOL    HW255609   5.272   4.001   1.471 -0.8576 -0.6851 -0.4395
17868SOL     OW55610   6.858   3.730   9.682  0.2690  0.2663  0.3710
17868SOL    HW155611   6.862   3.804   9.741  1.5481 -0.9005  1.8145
17868SOL    HW255612   6.920   3.751   9.612  0.2665  0.7632  0.5194
17869SOL     OW55613   5.312  10.651   5.940 -0.1568  0.3541 -0.2146
17869SOL    HW155614   5.268  10.725   5.981  0.5351  1.1536 -0.8778
17869SOL    HW255615   5.362  10.689   5.868 -0.7932 -0.9172 -1.3875
17870SOL     OW55616   5.444   5.378   1.824  0.1252 -0.1732  0.3639
17870SOL    HW155617   5.356   5.405   1.798  0.7059  1.0905 -0.3693
17870SOL    HW255618   5.470   5.315   1.757 -0.3807 -0.9053  0.8393
17871SOL     OW55619   9.400   6.130   4.040 -0.0285 -0.3416  0.4542
17871SOL    HW155620   9.479   6.129   4.093 -1.0120  1.6031  2.1069
17871SOL    HW255621   9.329   6.110   4.102 -0.9201 -1.4989 -0.8638
17872SOL     OW55622   0.357   1.551   0.741  0.1209 -0.1510 -0.1823
17872SOL    HW155623   0.372   1.494   0.816 -0.8880 -0.4775 -0.2150
17872SOL    HW255624   0.285   1.510   0.694 -0.3130  0.9001 -0.4587
17873SOL     OW55625   9.563   7.474   3.876  0.1312  0.0088 -0.4560
17873SOL    HW155626   9.480   7.503   3.838  0.0229  0.1199 -0.1375
17873SOL    HW255627   9.538   7.421   3.951  0.3468 -0.0909 -0.4528
17874SOL     OW55628   2.168   2.989   4.878  0.1337 -0.0110 -0.0980
17874SOL    HW155629   2.098   3.051   4.898  0.0183 -0.5245  1.1336
17874SOL    HW255630   2.143   2.952   4.793 -1.1993 -0.3003  0.3881
17875SOL     OW55631  10.066   0.990   1.361 -0.5753  0.6305 -0.3827
17875SOL    HW155632  10.158   0.995   1.389 -0.5983  0.7503 -0.3289
17875SOL    HW255633  10.070   0.963   1.270 -0.3953  2.7179 -1.0495
17876SOL     OW55634   5.294   3.668   3.493  0.5771  0.2916  0.2477
17876SOL    HW155635   5.359   3.648   3.560 -0.8386 -0.1577  1.5498
17876SOL    HW255636   5.241   3.738   3.532 -0.9438 -0.7356  0.0735
17877SOL     OW55637   9.262   1.256   2.434 -0.0296  0.0982  0.3966
17877SOL    HW155638   9.341   1.302   2.408 -0.7967  0.2700 -1.7955
17877SOL    HW255639   9.216   1.237   2.352 -0.6647 -2.9351  1.3147
17878SOL     OW55640   6.544   5.943   6.816  0.3030  0.1893 -0.2362
17878SOL    HW155641   6.476   6.003   6.785  0.2318  0.0701 -0.3111
17878SOL    HW255642   6.625   5.993   6.812  0.3749  0.0202 -1.0763
17879SOL     OW55643   3.731   6.586   8.670  0.3011  0.3363  0.5708
17879SOL    HW155644   3.711   6.676   8.643  0.2935  0.2601  0.3202
17879SOL    HW255645   3.776   6.595   8.754  1.5775  0.6595 -0.1192
17880SOL     OW55646   1.932   5.135   2.583  0.2981 -0.4573  0.5354
17880SOL    HW155647   1.979   5.061   2.546 -0.9634 -1.4518  0.8422
17880SOL    HW255648   1.971   5.212   2.541 -0.7737 -1.4705 -2.6326
17881SOL     OW55649   6.201  11.004  10.897 -0.1666  0.1532 -0.3016
17881SOL    HW155650   6.158  10.944  10.958  2.5994 -2.1940 -0.4202
17881SOL    HW255651   6.226  11.079  10.949 -0.2873 -0.5635  0.8160
17882SOL     OW55652   8.126   7.753   5.888 -0.5470 -0.1106  0.5243
17882SOL    HW155653   8.198   7.705   5.928  0.5432  1.2424  0.2510
17882SOL    HW255654   8.056   7.749   5.954  1.0946  1.8106  2.5502
17883SOL     OW55655   3.758   3.541   1.519 -0.0282 -0.1385  0.4902
17883SOL    HW155656   3.690   3.607   1.506  0.4191  0.0329 -1.0642
17883SOL    HW255657   3.740   3.474   1.453  0.3883 -0.8641  1.0934
17884SOL     OW55658   3.451   1.548   6.889 -0.3433  0.3168  0.3887
17884SOL    HW155659   3.398   1.613   6.842 -0.1982  0.0286 -0.1775
17884SOL    HW255660   3.404   1.466   6.879 -0.8142  0.4251  1.5766
17885SOL     OW55661   6.289   5.023   0.206  0.3118  0.3400 -0.5346
17885SOL    HW155662   6.284   5.091   0.140  1.1989  0.9267 -0.0224
17885SOL    HW255663   6.202   5.020   0.245  0.1185  0.8086 -0.9263
17886SOL     OW55664   4.853   6.699   6.223  0.1044  0.1060 -0.1156
17886SOL    HW155665   4.764   6.720   6.196 -0.0887 -0.1444  0.3191
17886SOL    HW255666   4.850   6.695   6.318  0.3571 -0.8349 -0.1278
17887SOL     OW55667  10.813   8.882   2.297  0.5492  0.1180 -0.4718
17887SOL    HW155668  10.854   8.890   2.383  0.4103  0.6874 -0.4566
17887SOL    HW255669  10.822   8.789   2.275  0.4147 -0.0727  0.2452
17888SOL     OW55670   7.528   4.430   9.602  0.0091 -0.4761 -0.2010
17888SOL    HW155671   7.605   4.404   9.552  1.1430  1.3194  0.5408
17888SOL    HW255672   7.560   4.442   9.692 -1.4054 -0.9350  0.3901
17889SOL     OW55673   7.408   6.472   5.630  0.0885  0.0687 -0.0166
17889SOL    HW155674   7.357   6.498   5.554  1.2585  1.9815 -0.2253
17889SOL    HW255675   7.355   6.500   5.705 -0.4342 -0.5549 -0.1454
17890SOL     OW55676   3.589   9.651   1.668 -0.0399  0.2928  0.2139
17890SOL    HW155677   3.563   9.559   1.665  1.7304 -0.2432 -0.3614
17890SOL    HW255678   3.679   9.651   1.635  1.5423  1.6571  4.0271
17891SOL     OW55679   3.155   4.566   6.853 -0.0848  0.2875  0.5955
17891SOL    HW155680   3.176   4.657   6.832  0.4679  0.0578  0.1291
17891SOL    HW255681   3.240   4.523   6.863 -0.2764 -0.6405 -1.2618
17892SOL     OW55682   0.472   4.891   9.956 -0.0996 -0.6475  0.0075
17892SOL    HW155683   0.409   4.945   9.909 -1.2626 -1.7338  0.2708
17892SOL    HW255684   0.470   4.925  10.046  0.6959  0.1732 -0.2677
17893SOL     OW55685   3.241   4.145   3.697  0.4136 -0.7548  0.7039
17893SOL    HW155686   3.320   4.090   3.700  1.8034  1.0690 -0.5012
17893SOL    HW255687   3.224   4.158   3.604 -0.9891 -0.6183  0.9584
17894SOL     OW55688   3.545   4.002   2.759 -0.7756 -0.4313 -0.1447
17894SOL    HW155689   3.497   4.010   2.842 -0.3183 -0.4916  0.1242
17894SOL    HW255690   3.591   4.086   2.749 -0.8926 -0.3927 -0.3802
17895SOL     OW55691   1.176   3.826   4.437  0.5511  0.0434 -0.3636
17895SOL    HW155692   1.163   3.916   4.407 -0.1253  0.4788  1.1468
17895SOL    HW255693   1.220   3.835   4.522 -3.3672 -0.7789  1.9830
17896SOL     OW55694   4.709   6.670   6.473  1.0924 -0.2354  0.2954
17896SOL    HW155695   4.640   6.725   6.436  1.6824  0.3830  0.1022
17896SOL    HW255696   4.771   6.731   6.512  1.5706 -0.7826  0.4129
17897SOL     OW55697   6.077   1.012   4.673 -0.3192 -0.2832  0.5000
17897SOL    HW155698   6.122   0.943   4.723 -0.3424 -1.1924 -0.7000
17897SOL    HW255699   6.148   1.064   4.636 -0.2975  0.8764  2.0695
17898SOL     OW55700   8.141   6.037  10.101  0.1821 -0.5872 -0.3317
17898SOL    HW155701   8.106   6.119  10.067  0.7523 -0.5451 -0.8116
17898SOL    HW255702   8.236   6.048  10.101  0.2450 -1.0704  0.0462
17899SOL     OW55703   0.874   4.666   8.279 -0.0526 -0.4025  0.3017
17899SOL    HW155704   0.894   4.593   8.221  0.7574 -1.4613  1.8403
17899SOL    HW255705   0.956   4.683   8.326 -0.5053  0.8372  0.6885
17900SOL     OW55706   5.219   8.022   2.209  0.1983 -0.3879 -0.4291
17900SOL    HW155707   5.299   8.048   2.255 -0.2910 -1.3226  1.0190
17900SOL    HW255708   5.250   7.972   2.133  1.0192  1.2433 -1.2182
17901SOL     OW55709   0.836   2.960   7.008 -0.0468 -0.0348  0.3693
17901SOL    HW155710   0.852   2.957   6.914  1.2391  1.5163  0.5121
17901SOL    HW255711   0.770   3.028   7.019  0.4998  0.4595  0.6561
17902SOL     OW55712   0.995   5.968   4.214 -0.0507  0.5723  0.2530
17902SOL    HW155713   1.023   5.972   4.123  0.6695  0.5464  0.4622
17902SOL    HW255714   0.935   5.893   4.218 -0.3745  0.7996 -0.2674
17903SOL     OW55715   7.096   5.775   3.376 -0.2914  0.1848  0.2494
17903SOL    HW155716   7.014   5.814   3.404  0.3731  0.1297  2.4125
17903SOL    HW255717   7.159   5.846   3.379  0.0372 -0.0894 -0.0131
17904SOL     OW55718   0.876   7.717   6.413 -0.6293  0.1065 -0.0209
17904SOL    HW155719   0.863   7.651   6.482 -0.5776 -1.8839 -1.7994
17904SOL    HW255720   0.940   7.777   6.449 -0.1168 -1.2331  1.4358
17905SOL     OW55721   3.675   1.264   8.412 -0.5683 -0.2866 -0.7053
17905SOL    HW155722   3.640   1.347   8.381 -0.4440  0.5762  1.3267
17905SOL    HW255723   3.727   1.287   8.489 -1.8462 -2.4059  0.8967
17906SOL     OW55724   0.897   9.781   7.362 -0.5832 -0.6750  0.3806
17906SOL    HW155725   0.944   9.723   7.421 -1.8383  0.9683  3.1801
17906SOL    HW255726   0.948   9.861   7.361 -0.0069 -1.0094 -1.7275
17907SOL     OW55727   6.169   1.897   8.038  0.1383  0.4920 -0.0133
17907SOL    HW155728   6.241   1.953   8.007 -0.8404  2.3019  0.8151
17907SOL    HW255729   6.098   1.912   7.977 -0.7755  1.7157  1.2824
17908SOL     OW55730   7.028   4.102   9.222 -0.1789  0.1302 -0.0251
17908SOL    HW155731   7.078   4.020   9.220 -1.5690 -0.7765  0.7340
17908SOL    HW255732   7.092   4.168   9.250  1.1765 -0.5088 -1.4713
17909SOL     OW55733   0.914   8.275   0.093  0.0466 -0.2939  0.1556
17909SOL    HW155734   0.851   8.236   0.031  2.1931 -1.1183 -1.6298
17909SOL    HW255735   0.999   8.265   0.050  1.3109  1.7263  2.0206
17910SOL     OW55736   0.579  11.011   5.729  0.0665  0.1737  0.3080
17910SOL    HW155737   0.654  11.008   5.788 -0.4196 -0.8127  0.8969
17910SOL    HW255738   0.587  11.096   5.685  1.8714 -0.1508 -0.1066
17911SOL     OW55739   4.815   7.268   5.184  0.6904  0.1374  0.5152
17911SOL    HW155740   4.803   7.332   5.254  0.9873  0.1087  0.5940
17911SOL    HW255741   4.810   7.183   5.228  0.8774  0.1196  0.5045
17912SOL     OW55742   5.526   6.541   4.053 -0.1074 -0.1516 -0.3829
17912SOL    HW155743   5.545   6.571   3.965  0.8205 -1.4178 -0.6382
17912SOL    HW255744   5.598   6.482   4.075 -1.6647 -1.9659  0.1641
17913SOL     OW55745   3.460   1.365   7.499 -0.2463 -0.0957 -0.0133
17913SOL    HW155746   3.437   1.272   7.487  1.8509 -0.3765 -3.4010
17913SOL    HW255747   3.535   1.363   7.558 -0.9968 -0.3782  0.9624
17914SOL     OW55748   1.121   3.318   5.848  0.4250  0.0541  0.2489
17914SOL    HW155749   1.135   3.224   5.860 -0.1900 -0.3965 -2.1321
17914SOL    HW255750   1.050   3.339   5.909 -1.4127 -1.6930 -1.1480
17915SOL     OW55751   7.503   1.299   9.389  0.1133  0.6683 -0.0652
17915SOL    HW155752   7.436   1.316   9.455 -0.1057 -0.0130 -0.1075
17915SOL    HW255753   7.585   1.299   9.438  0.1164  1.7045 -0.0438
17916SOL     OW55754   3.064   6.441   6.779  0.5046 -0.0429  0.2370
17916SOL    HW155755   3.111   6.360   6.797 -1.3258 -1.3763 -0.7118
17916SOL    HW255756   3.077   6.494   6.858  0.6831 -1.7722  1.4099
17917SOL     OW55757   2.182   3.640   7.837 -0.1717  0.4863 -0.0958
17917SOL    HW155758   2.146   3.598   7.915  1.5659  1.4080  1.2665
17917SOL    HW255759   2.225   3.719   7.869  1.6933  0.2640 -1.7854
17918SOL     OW55760   5.236   1.924  10.692  0.6006  0.8706  0.6618
17918SOL    HW155761   5.228   1.885  10.605 -2.9493 -2.2635  2.1317
17918SOL    HW255762   5.169   1.992  10.694  1.7402  2.0438  0.5395
17919SOL     OW55763   3.885   8.196   4.923  0.3706  0.0394  0.7866
17919SOL    HW155764   3.874   8.276   4.974  0.9694 -0.7100  2.1490
17919SOL    HW255765   3.959   8.151   4.965  2.2799  0.3400 -1.9876
17920SOL     OW55766   2.629   3.146   2.382  0.0777  0.4359  0.6866
17920SOL    HW155767   2.721   3.161   2.406  0.3042  0.2806 -0.0609
17920SOL    HW255768   2.629   3.060   2.341 -0.0789  1.1888 -0.9597
17921SOL     OW55769   7.444   3.639  10.170 -0.2100 -0.1933  0.4056
17921SOL    HW155770   7.537   3.628  10.153 -0.7386 -0.3088 -3.2588
17921SOL    HW255771   7.408   3.669  10.087 -3.3680  0.5248  1.8867
17922SOL     OW55772   4.207   4.516   6.211 -0.1234 -0.0924 -0.1059
17922SOL    HW155773   4.198   4.536   6.304 -1.7931  1.7178 -0.6040
17922SOL    HW255774   4.170   4.428   6.202  0.6830 -0.5782  1.0023
17923SOL     OW55775   5.353   7.503   9.831 -0.4258  0.2990 -0.5104
17923SOL    HW155776   5.313   7.576   9.878 -0.9004 -0.4940  0.3295
17923SOL    HW255777   5.445   7.505   9.857 -0.4914  0.4392 -0.2855
17924SOL     OW55778  11.014   2.645   6.022  0.6690 -0.1457 -0.1709
17924SOL    HW155779  10.947   2.700   5.982  0.5975 -0.8976 -1.1104
17924SOL    HW255780  11.096   2.673   5.981  0.8184  0.1723  0.3362
17925SOL     OW55781   4.564   5.654  10.142  0.2705  0.4157 -0.1184
17925SOL    HW155782   4.580   5.615  10.056 -1.2814  1.0297 -0.7034
17925SOL    HW255783   4.601   5.590  10.203  0.7287 -0.3896 -1.1984
17926SOL     OW55784   7.477   5.137   7.196 -0.5580  0.5956 -1.1368
17926SOL    HW155785   7.566   5.153   7.228 -0.7582  0.4521 -0.4840
17926SOL    HW255786   7.470   5.041   7.193 -1.5574  0.5101  1.4251
17927SOL     OW55787   4.092   4.639   6.897  0.1291  0.6399  0.0283
17927SOL    HW155788   4.064   4.623   6.807 -0.2547  0.7231  0.1317
17927SOL    HW255789   4.151   4.566   6.917  0.3503  0.7116 -0.3445
17928SOL     OW55790   1.541   1.799   7.755  0.2821 -0.3225 -0.4163
17928SOL    HW155791   1.609   1.847   7.707  0.5037 -0.7798 -0.5564
17928SOL    HW255792   1.459   1.827   7.713  0.0908  2.2532  1.4008
17929SOL     OW55793   3.141   7.426   4.989  0.0832  0.0742  0.0517
17929SOL    HW155794   3.070   7.392   5.045  0.3589 -0.1572  0.2631
17929SOL    HW255795   3.150   7.518   5.015  0.2103 -0.0322  0.3925
17930SOL     OW55796   1.360   1.444  10.340  0.4686 -0.2264  0.1134
17930SOL    HW155797   1.322   1.450  10.252  1.7507  0.6946 -0.4237
17930SOL    HW255798   1.321   1.518  10.388 -0.4146 -0.8716  0.4179
17931SOL     OW55799   8.158   2.318   4.893 -0.1664 -0.5028 -0.2915
17931SOL    HW155800   8.147   2.413   4.896 -1.3521 -0.6438  1.2130
17931SOL    HW255801   8.183   2.299   4.803 -0.9746  1.1306 -0.8940
17932SOL     OW55802   6.380   0.371   0.809 -0.6887 -0.3437  0.0711
17932SOL    HW155803   6.401   0.310   0.880  1.1478 -2.6529 -2.2433
17932SOL    HW255804   6.294   0.343   0.778 -0.7079 -0.4886  0.2568
17933SOL     OW55805   9.127   7.951   7.323  0.4567 -0.0199 -0.1487
17933SOL    HW155806   9.198   7.918   7.268 -0.3276  1.3691 -2.1497
17933SOL    HW255807   9.154   8.040   7.346 -0.6198  0.5917 -1.0788
17934SOL     OW55808   8.792   4.191   8.806  0.1165 -0.5108  0.0049
17934SOL    HW155809   8.802   4.285   8.825 -1.6212 -0.2310 -0.2807
17934SOL    HW255810   8.790   4.149   8.891 -0.9479 -0.0540  0.2211
17935SOL     OW55811   4.563   5.122   6.846  0.1487 -0.6715  0.5552
17935SOL    HW155812   4.524   5.036   6.862 -0.5188 -0.1682  1.6800
17935SOL    HW255813   4.493   5.184   6.862  0.4678  0.0890 -0.7755
17936SOL     OW55814   4.799   6.779   7.516 -0.6124  0.7167 -0.5817
17936SOL    HW155815   4.890   6.759   7.494 -0.5388  0.4406 -0.0252
17936SOL    HW255816   4.799   6.874   7.533 -0.2039  0.5472  0.4628
17937SOL     OW55817  10.106   4.607   6.564  0.0583  0.4900  0.0781
17937SOL    HW155818  10.177   4.668   6.582  0.5067  0.5032 -1.5928
17937SOL    HW255819  10.063   4.642   6.486 -0.0688 -0.9744 -0.5449
17938SOL     OW55820   4.510   7.005   5.792  0.2532  0.8298  0.3099
17938SOL    HW155821   4.554   7.015   5.707  0.1891  1.3167  0.3303
17938SOL    HW255822   4.439   6.943   5.775  2.4620 -2.1186  0.8538
17939SOL     OW55823   9.677   2.073   3.273 -0.1251  0.2688 -0.4381
17939SOL    HW155824   9.705   2.094   3.184  0.2148  0.2669 -0.3346
17939SOL    HW255825   9.607   2.009   3.261 -0.9284  1.1868 -0.7366
17940SOL     OW55826   1.232   9.443   9.347 -0.5326 -0.4284  0.2057
17940SOL    HW155827   1.321   9.427   9.377  0.0105  0.7236 -0.7515
17940SOL    HW255828   1.195   9.355   9.336 -0.4116 -0.9351  3.0632
17941SOL     OW55829   8.148  10.102   9.280 -0.1293  0.1504 -0.3839
17941SOL    HW155830   8.127  10.188   9.316 -1.4223 -0.8275  1.3810
17941SOL    HW255831   8.228  10.075   9.325  0.0509  0.2563 -0.6386
17942SOL     OW55832   0.702   6.857   9.713 -0.3602 -0.6494 -0.1763
17942SOL    HW155833   0.679   6.947   9.736  0.9842  0.2956 -2.2693
17942SOL    HW255834   0.788   6.844   9.752 -0.7080 -1.1841  0.4323
17943SOL     OW55835   9.781   0.536   0.256 -0.2168 -0.5757 -0.2468
17943SOL    HW155836   9.694   0.498   0.263  0.0714 -1.3368 -0.6683
17943SOL    HW255837   9.766   0.631   0.255 -0.9630 -0.6713  0.5602
17944SOL     OW55838   0.268   5.232   8.675 -0.2153  0.3183 -0.4977
17944SOL    HW155839   0.260   5.325   8.654 -2.0000  0.1559 -0.7641
17944SOL    HW255840   0.362   5.217   8.686  0.3455  1.6496 -2.8050
17945SOL     OW55841   2.014   4.515   2.022  0.3572 -0.3394  0.3900
17945SOL    HW155842   2.087   4.468   1.982  0.5828  0.7999 -0.6030
17945SOL    HW255843   2.050   4.600   2.045 -0.1164 -0.5171  1.9033
17946SOL     OW55844   6.488  10.665   6.731 -0.1772 -0.0049 -0.5218
17946SOL    HW155845   6.577  10.665   6.766 -0.3925 -0.6180  0.0530
17946SOL    HW255846   6.450  10.747   6.763  0.2922  0.4467 -1.0933
17947SOL     OW55847   5.349   4.734   6.246 -0.4076  0.8251  0.3654
17947SOL    HW155848   5.396   4.806   6.288  0.0250  0.8450 -0.1317
17947SOL    HW255849   5.413   4.663   6.243 -0.6715  0.5841  0.4050
17948SOL     OW55850   4.580   3.642   8.326  0.2606  0.2140 -0.1841
17948SOL    HW155851   4.542   3.558   8.302 -0.1760 -0.2728  1.9680
17948SOL    HW255852   4.634   3.667   8.251  0.5256 -2.0581 -0.8175
17949SOL     OW55853   1.629   2.495   2.138 -0.4886 -0.6137  0.0761
17949SOL    HW155854   1.537   2.482   2.116 -0.4927  0.5324 -0.6701
17949SOL    HW255855   1.665   2.407   2.142 -1.7710 -1.1336  1.1500
17950SOL     OW55856   4.616   3.228   6.834  0.1020 -0.0585 -0.4662
17950SOL    HW155857   4.603   3.133   6.829  1.6504 -0.2696 -1.0841
17950SOL    HW255858   4.665   3.250   6.755 -0.3196  1.2884 -0.3840
17951SOL     OW55859   7.628   5.734   5.413  0.0860 -0.8774 -0.5507
17951SOL    HW155860   7.538   5.748   5.442 -0.2340 -0.5229 -1.6631
17951SOL    HW255861   7.679   5.798   5.462 -0.4861 -0.0769 -0.9793
17952SOL     OW55862   5.037  10.280  10.303 -0.0507  0.3212  0.2462
17952SOL    HW155863   5.000  10.239  10.225 -0.4309  1.2750 -0.0958
17952SOL    HW255864   5.051  10.208  10.364 -1.9092 -0.1880  0.1442
17953SOL     OW55865   9.665   2.443   6.157 -0.4714 -0.2734  0.8441
17953SOL    HW155866   9.732   2.428   6.224  0.2416  0.8963  0.4259
17953SOL    HW255867   9.647   2.537   6.162  0.2155  0.0082 -1.1507
17954SOL     OW55868   7.952   5.284   5.274  0.0663 -0.1132 -0.5949
17954SOL    HW155869   7.895   5.279   5.197  1.2626 -1.2727 -1.4401
17954SOL    HW255870   8.034   5.321   5.241 -0.1726  1.6267  0.6228
17955SOL     OW55871   1.701   2.964   6.167 -0.3561 -0.3397  0.5940
17955SOL    HW155872   1.697   3.059   6.155 -0.5815 -0.5071 -0.9078
17955SOL    HW255873   1.629   2.944   6.227 -0.4394  0.4184  0.7588
17956SOL     OW55874   3.589   4.312  10.455 -0.3760 -0.4675 -0.1439
17956SOL    HW155875   3.591   4.368  10.377  0.6919 -0.5980 -0.2179
17956SOL    HW255876   3.611   4.371  10.527  1.2156 -0.8638 -0.2797
17957SOL     OW55877   4.212   3.775   2.112 -0.1163  0.6215  0.2372
17957SOL    HW155878   4.282   3.777   2.177 -1.4697  1.1131  1.7490
17957SOL    HW255879   4.193   3.682   2.100  0.5362  0.5010  0.0862
17958SOL     OW55880   9.958   4.520   1.304 -0.1937 -0.2314  0.1157
17958SOL    HW155881   9.925   4.610   1.309 -1.7657 -0.6328 -1.7768
17958SOL    HW255882   9.992   4.512   1.215  0.5445 -1.3224  0.4838
17959SOL     OW55883   5.886   9.377  10.808 -0.0252 -0.1702  0.2557
17959SOL    HW155884   5.948   9.432  10.760 -0.2374 -0.0619  0.1039
17959SOL    HW255885   5.810   9.370  10.750  0.0470 -0.7207  0.2211
17960SOL     OW55886   3.260   6.442   9.011  0.0839  0.4546 -0.2904
17960SOL    HW155887   3.258   6.528   8.968  1.9534  0.3479 -0.6936
17960SOL    HW255888   3.215   6.455   9.094  1.9158  2.3281  0.4810
17961SOL     OW55889   1.966   6.602   7.254  0.2924 -0.2784  0.2127
17961SOL    HW155890   2.035   6.623   7.191 -0.7607  1.5001 -0.4154
17961SOL    HW255891   1.941   6.687   7.290 -1.9472 -0.8073  0.0202
17962SOL     OW55892   2.815   2.036   2.002  0.7639 -0.4336 -0.0143
17962SOL    HW155893   2.811   1.956   1.949  2.4759 -0.8257  0.3651
17962SOL    HW255894   2.892   2.082   1.968  0.7041  0.2859  0.7969
17963SOL     OW55895   3.994   5.982   8.468  0.5306 -0.7364 -0.2267
17963SOL    HW155896   4.006   6.056   8.409  0.9807 -0.6145  0.0114
17963SOL    HW255897   4.027   6.013   8.553  0.1181 -0.9871  0.0333
17964SOL     OW55898   5.016   4.167   9.572 -0.5594 -0.7295 -0.0706
17964SOL    HW155899   5.005   4.231   9.501 -2.1079 -1.6159 -0.6911
17964SOL    HW255900   5.084   4.108   9.540 -2.2991 -2.0458 -1.6280
17965SOL     OW55901  10.907   2.699   5.499 -0.2024  0.2749  0.2829
17965SOL    HW155902  10.907   2.691   5.403  1.7985  0.9720  0.1889
17965SOL    HW255903  10.919   2.792   5.516  2.4349 -0.1630  1.1556
17966SOL     OW55904   2.177   6.218   7.637  0.5397  0.5159  0.2665
17966SOL    HW155905   2.191   6.240   7.545 -0.3017  0.5181  0.1273
17966SOL    HW255906   2.261   6.182   7.667  1.3085  1.9747 -0.0602
17967SOL     OW55907   9.272   9.793   6.094  0.7107 -0.6986 -0.8437
17967SOL    HW155908   9.244   9.813   6.183 -0.7630 -0.3645 -1.3576
17967SOL    HW255909   9.350   9.847   6.080 -0.6728  1.4055 -0.7084
17968SOL     OW55910   9.246   3.669   3.257  0.5178  0.4611 -0.9350
17968SOL    HW155911   9.179   3.711   3.311  0.1522 -0.6741 -0.4754
17968SOL    HW255912   9.248   3.722   3.177 -0.4187  0.9427 -0.6639
17969SOL     OW55913   1.413   1.538   6.172 -0.2558 -0.3426 -0.3955
17969SOL    HW155914   1.455   1.565   6.091 -0.4528 -0.6081 -0.5858
17969SOL    HW255915   1.460   1.586   6.240 -0.9512  0.8930 -0.7575
17970SOL     OW55916   4.594   2.354   8.060  0.0395  0.0237  0.5179
17970SOL    HW155917   4.642   2.380   8.139  1.8784 -1.5130 -0.0036
17970SOL    HW255918   4.529   2.291   8.091  1.3218 -1.2318  0.7713
17971SOL     OW55919   5.427   7.273   6.951  0.5223 -0.0577  0.5387
17971SOL    HW155920   5.516   7.248   6.928  1.0650  1.9210  0.3569
17971SOL    HW255921   5.386   7.299   6.868 -1.1418 -3.3676  0.1598
17972SOL     OW55922   4.102   7.333  10.204  0.5569  0.0635  0.7438
17972SOL    HW155923   4.102   7.427  10.223 -0.4221 -0.0296  1.2830
17972SOL    HW255924   4.038   7.296  10.265  0.8471 -0.9429  0.4629
17973SOL     OW55925   2.307   7.533   7.591 -0.2626 -0.0664 -0.0546
17973SOL    HW155926   2.225   7.530   7.542 -0.2092 -1.8878 -0.0911
17973SOL    HW255927   2.288   7.590   7.666 -0.9054  1.2145 -1.1460
17974SOL     OW55928   4.472   5.285   1.032  0.4940  0.5822 -0.5367
17974SOL    HW155929   4.448   5.320   1.118 -0.9358  0.1006 -0.7137
17974SOL    HW255930   4.389   5.275   0.986  1.1793  0.1807 -1.7356
17975SOL     OW55931   4.240   0.474   7.468  0.0478  0.0904  0.1697
17975SOL    HW155932   4.152   0.494   7.436 -0.1074 -0.5411  0.1933
17975SOL    HW255933   4.265   0.551   7.519 -0.3711  0.3971 -0.0824
17976SOL     OW55934  10.066   5.850   5.242 -0.6401 -0.3136 -0.3818
17976SOL    HW155935   9.978   5.885   5.257 -0.2316  0.2532  0.8286
17976SOL    HW255936  10.080   5.791   5.316 -0.3813 -1.1665 -1.1100
17977SOL     OW55937   7.744   3.493  11.051  0.1898  0.1819 -0.3331
17977SOL    HW155938   7.738   3.445  11.134  2.5202 -0.0472 -0.2237
17977SOL    HW255939   7.793   3.435  10.993 -1.6699  0.1964 -2.0586
17978SOL     OW55940   4.288   0.241   3.270  0.1028  0.1694  0.1232
17978SOL    HW155941   4.294   0.277   3.358 -1.0874  2.3240 -0.6102
17978SOL    HW255942   4.195   0.236   3.251  0.2987 -1.3868 -0.6161
17979SOL     OW55943   6.552   5.876   8.868  0.0175 -0.4599  0.8950
17979SOL    HW155944   6.501   5.918   8.798  0.3439 -2.0142 -0.3278
17979SOL    HW255945   6.639   5.913   8.860 -0.3192  0.4917  1.4894
17980SOL     OW55946   6.446   7.798   6.115  0.4041  0.0042 -0.1388
17980SOL    HW155947   6.519   7.739   6.095 -0.2923 -1.3288  1.0877
17980SOL    HW255948   6.423   7.836   6.030 -1.0545 -3.7954 -1.7140
17981SOL     OW55949   3.105   3.455   7.731  0.3993 -1.2065  0.5181
17981SOL    HW155950   3.189   3.501   7.736  0.8880 -2.0434  0.1687
17981SOL    HW255951   3.119   3.387   7.665 -0.2974 -1.8838  1.0499
17982SOL     OW55952   3.408   3.868   6.880  0.0989  0.0278  0.2500
17982SOL    HW155953   3.383   3.874   6.973 -0.3747  0.5368  0.0933
17982SOL    HW255954   3.347   3.803   6.844 -0.7356  0.9409 -0.0320
17983SOL     OW55955   6.050   5.367   6.540 -0.0691 -0.4817  0.1947
17983SOL    HW155956   6.102   5.372   6.620 -0.0242 -0.6633  0.1785
17983SOL    HW255957   6.047   5.457   6.507  0.7646 -0.5663 -0.1409
17984SOL     OW55958   2.397   4.700   1.946  0.4706 -0.6536 -0.2204
17984SOL    HW155959   2.460   4.632   1.968  0.6377 -0.5180 -0.2780
17984SOL    HW255960   2.414   4.770   2.010  0.0581 -0.8148  0.0693
17985SOL     OW55961  10.650   0.522   9.754  0.2120  0.0761  0.4908
17985SOL    HW155962  10.677   0.576   9.828 -0.0084 -0.1948  0.7762
17985SOL    HW255963  10.714   0.540   9.686 -0.7553  1.9324 -0.0087
17986SOL     OW55964   0.665  10.979   6.857  0.6046  0.3317 -0.6113
17986SOL    HW155965   0.753  10.944   6.869  0.7350  0.4407 -1.2259
17986SOL    HW255966   0.628  10.982   6.945  0.7973 -0.8127 -0.4805
17987SOL     OW55967   3.856   0.475   4.659  0.2246  0.0345 -0.2348
17987SOL    HW155968   3.820   0.428   4.584  0.7662  0.0094 -0.4836
17987SOL    HW255969   3.866   0.565   4.628  0.1715  0.0896 -0.0942
17988SOL     OW55970   3.408   1.971  10.390 -0.1633 -0.7459  0.1450
17988SOL    HW155971   3.418   1.938  10.479 -0.6591  1.5728  1.1147
17988SOL    HW255972   3.336   2.034  10.395  0.7595  0.5265 -1.5633
17989SOL     OW55973   6.018   1.186   7.190 -0.0964  0.5774 -0.1436
17989SOL    HW155974   6.064   1.150   7.114 -1.5319  0.4550 -0.9799
17989SOL    HW255975   5.945   1.126   7.204 -1.1410  1.8294 -0.0717
17990SOL     OW55976  10.210  10.834   4.633 -0.0400 -0.4973  0.1699
17990SOL    HW155977  10.255  10.908   4.673 -0.3186 -0.7947  1.0554
17990SOL    HW255978  10.173  10.869   4.552 -0.6623  0.4742  0.8619
17991SOL     OW55979  10.483   9.275  10.167  0.0283  0.5681  0.0667
17991SOL    HW155980  10.526   9.264  10.082  1.5077 -0.6444  0.9122
17991SOL    HW255981  10.390   9.264  10.148  0.4605 -1.6334 -1.1505
17992SOL     OW55982   8.506   6.391   8.262 -0.1363 -0.0090 -0.0602
17992SOL    HW155983   8.565   6.433   8.199  0.0799 -0.8857 -0.4665
17992SOL    HW255984   8.454   6.463   8.298 -0.3402  0.5064 -1.3168
17993SOL     OW55985   5.427   5.925   7.660  0.1902  0.9466  0.4387
17993SOL    HW155986   5.355   5.873   7.696  0.0820  0.5441 -0.3391
17993SOL    HW255987   5.431   5.900   7.568  1.3749  0.9191  0.4869
17994SOL     OW55988   0.648   4.533   1.159  0.5695  0.2271 -0.3466
17994SOL    HW155989   0.692   4.545   1.075  0.2622  0.3064 -0.4966
17994SOL    HW255990   0.555   4.530   1.137  0.5787 -1.7347 -0.2383
17995SOL     OW55991   4.417   3.769   8.995 -0.1627 -0.5925  0.0629
17995SOL    HW155992   4.353   3.816   9.048 -0.2370 -0.9050  0.2533
17995SOL    HW255993   4.393   3.677   9.004  1.1557 -0.8449  1.2733
17996SOL     OW55994   1.176   1.624   3.166  0.0226 -0.5960  0.5156
17996SOL    HW155995   1.147   1.558   3.103 -0.0968  0.9077 -1.0578
17996SOL    HW255996   1.223   1.689   3.114 -1.9355  1.8307  1.6104
17997SOL     OW55997   4.229   6.429   7.920  0.8583  0.4271 -0.5403
17997SOL    HW155998   4.171   6.404   7.849  1.0830  1.2393 -1.0233
17997SOL    HW255999   4.209   6.368   7.991  1.6414 -1.3256 -1.7836
17998SOL     OW56000   8.712   5.703  10.183  0.1397 -0.8523 -0.1273
17998SOL    HW156001   8.778   5.635  10.198 -1.4654 -2.4654 -0.0378
17998SOL    HW256002   8.670   5.679  10.101 -1.6897 -1.0641  0.8180
17999SOL     OW56003   5.645   6.455  11.098  0.2008  0.1274  0.3259
17999SOL    HW156004   5.565   6.507  11.083  0.5547  0.1467 -1.7516
17999SOL    HW256005   5.660   6.462  11.192 -2.5341 -0.2995  0.8872
18000SOL     OW56006   2.897   9.061   8.452  0.2236  0.3403  0.0135
18000SOL    HW156007   2.855   9.035   8.534  1.1368 -0.4107  0.2618
18000SOL    HW256008   2.983   9.019   8.455  1.1165  2.0602 -0.3589
18001SOL     OW56009   4.899   4.957   0.525  0.4688  0.0095  0.1067
18001SOL    HW156010   4.874   4.947   0.433  0.6690  0.0011  0.0525
18001SOL    HW256011   4.976   4.901   0.535  2.1713  2.1128 -0.4301
18002SOL     OW56012   3.881   6.482   8.157  0.4881 -0.1798  0.1244
18002SOL    HW156013   3.786   6.498   8.156  0.1547 -1.9102  0.0584
18002SOL    HW256014   3.896   6.423   8.083  1.9397  1.4670 -0.9675
18003SOL     OW56015   9.842   2.190   8.185  0.3435  0.0712 -0.2425
18003SOL    HW156016   9.877   2.131   8.251  0.4359 -0.0352 -0.3851
18003SOL    HW256017   9.838   2.138   8.105  1.6874  0.6074 -0.7022
18004SOL     OW56018   5.057   0.835   0.749  0.2415 -0.3691  0.3727
18004SOL    HW156019   5.017   0.879   0.824 -1.4888 -1.7910  0.3503
18004SOL    HW256020   5.145   0.813   0.778  0.7673  1.9632  0.7971
18005SOL     OW56021   2.189   6.110   2.822 -0.6744 -0.1805  0.1399
18005SOL    HW156022   2.250   6.112   2.895 -0.0339  0.8731 -0.4000
18005SOL    HW256023   2.118   6.169   2.848 -0.5785 -0.0142  0.0282
18006SOL     OW56024   9.332   2.123   2.684 -0.3876  0.0013 -0.0553
18006SOL    HW156025   9.395   2.165   2.625  0.1276 -0.2186  0.3345
18006SOL    HW256026   9.335   2.031   2.659  2.0466 -0.6736  2.2086
18007SOL     OW56027   4.889   3.981   7.623  0.0285  0.2417 -0.0325
18007SOL    HW156028   4.820   3.957   7.561 -0.2584  3.5980 -1.2415
18007SOL    HW256029   4.842   4.016   7.698  0.4146 -0.2680  0.4515
18008SOL     OW56030   4.696   6.418   1.178 -0.0014  0.2189 -0.4208
18008SOL    HW156031   4.691   6.335   1.131 -0.7367  0.9836 -1.7792
18008SOL    HW256032   4.789   6.439   1.181  0.2502 -0.9491  0.5270
18009SOL     OW56033   1.874   8.023   7.344  0.5800  0.0847  0.4295
18009SOL    HW156034   1.860   8.102   7.292  0.8045 -1.1454 -1.5958
18009SOL    HW256035   1.801   7.966   7.321  0.8854 -0.6344  1.2025
18010SOL     OW56036   9.226   1.203   1.254 -0.0895 -0.0617  0.1732
18010SOL    HW156037   9.252   1.111   1.244 -0.5267 -0.3248  1.3675
18010SOL    HW256038   9.134   1.204   1.227  0.6404  0.6014 -2.6455
18011SOL     OW56039   4.535   4.027   8.826  0.1426  0.3156 -0.6844
18011SOL    HW156040   4.556   3.944   8.868 -2.3032 -0.6203 -1.1158
18011SOL    HW256041   4.620   4.069   8.811  1.4470 -2.0137 -0.3102
18012SOL     OW56042  11.099   7.168   8.850 -0.3947  0.0344  0.5311
18012SOL    HW156043  11.177   7.169   8.906  1.1214  0.4547 -1.4487
18012SOL    HW256044  11.134   7.160   8.761 -2.6448  0.2043 -0.4391
18013SOL     OW56045   6.359   5.592   3.475 -0.0616 -0.4088 -0.2286
18013SOL    HW156046   6.311   5.558   3.550 -0.9602  0.8337 -0.2009
18013SOL    HW256047   6.408   5.666   3.509  1.0344 -0.9913 -0.4953
18014SOL     OW56048   9.551  11.003   4.849  0.0250  0.3331 -0.6736
18014SOL    HW156049   9.491  11.029   4.779  0.3937  1.4238 -0.6022
18014SOL    HW256050   9.539  11.069   4.917  2.2229  1.3634 -1.1970
18015SOL     OW56051   0.377   0.052   9.723 -0.2900  0.4179  0.3673
18015SOL    HW156052   0.402   0.061   9.631 -1.5728 -0.2749 -0.0848
18015SOL    HW256053   0.454   0.015   9.766 -0.1269 -0.5564 -0.7103
18016SOL     OW56054   5.893   4.400   7.545 -0.1306  0.3330  0.2118
18016SOL    HW156055   5.838   4.386   7.622  0.0956  2.3677  0.7888
18016SOL    HW256056   5.836   4.380   7.471 -2.0884  3.3795  0.7364
18017SOL     OW56057   3.650   5.214   9.139 -0.5116  0.4984 -0.0903
18017SOL    HW156058   3.599   5.290   9.111 -0.2277  1.2610  1.3791
18017SOL    HW256059   3.709   5.197   9.065 -0.3168  1.9464 -0.2904
18018SOL     OW56060   2.959   8.201   8.915 -0.2595 -0.3340 -0.2702
18018SOL    HW156061   2.899   8.241   8.852 -2.6845 -1.6772  1.0256
18018SOL    HW256062   3.002   8.131   8.867  0.8064  1.0119 -1.3809
18019SOL     OW56063   8.650   1.315   6.869  0.1565 -0.0586 -0.1327
18019SOL    HW156064   8.701   1.319   6.788  1.4478 -0.2195  0.6597
18019SOL    HW256065   8.604   1.399   6.872  0.9196  0.3780 -0.5026
18020SOL     OW56066   9.996   7.861   6.712 -0.4558 -0.6485 -0.5322
18020SOL    HW156067  10.015   7.952   6.733 -2.4426  0.1594 -2.0090
18020SOL    HW256068  10.070   7.832   6.659  0.0928  0.1498 -0.2148
18021SOL     OW56069   8.732   3.398  10.405  0.0926 -0.1778 -0.0215
18021SOL    HW156070   8.650   3.348  10.402  0.1329 -0.3747  1.4966
18021SOL    HW256071   8.724   3.452  10.483  0.9698  0.6162 -0.4614
18022SOL     OW56072   8.111   8.763  10.858  0.1716 -0.2812  1.0900
18022SOL    HW156073   8.024   8.732  10.884 -0.3201  0.4866  0.4193
18022SOL    HW256074   8.170   8.692  10.882 -0.8481 -1.4880  0.1718
18023SOL     OW56075   4.890   3.832   8.870 -0.0402  0.2818  0.9784
18023SOL    HW156076   4.869   3.864   8.783 -2.3360  0.3154  1.4958
18023SOL    HW256077   4.810   3.845   8.921  0.1498 -2.7300  2.2428
18024SOL     OW56078   8.054   9.719  10.169  0.6940  0.0999 -0.0870
18024SOL    HW156079   7.968   9.680  10.187  0.7942  0.6195  1.6857
18024SOL    HW256080   8.043   9.812  10.190  1.3022  0.4680 -1.3169
18025SOL     OW56081   9.824   6.315   6.098 -0.3145  0.1170  0.3479
18025SOL    HW156082   9.808   6.328   6.004 -2.3484  0.6149  0.7222
18025SOL    HW256083   9.803   6.223   6.114 -2.1038  0.5525  0.6748
18026SOL     OW56084   2.526   1.802   9.419  0.0200 -0.7063 -0.1443
18026SOL    HW156085   2.513   1.864   9.348  0.4741 -1.1263 -0.5952
18026SOL    HW256086   2.549   1.720   9.376 -0.1278 -1.0752  0.4661
18027SOL     OW56087   3.803   3.064   1.726 -0.0795  0.5158  0.7110
18027SOL    HW156088   3.761   3.101   1.649  0.9649 -1.3952 -0.8860
18027SOL    HW256089   3.894   3.050   1.699  0.3047 -0.2000  2.2807
18028SOL     OW56090   2.657   8.734   7.122  0.1119 -0.3070  0.3646
18028SOL    HW156091   2.709   8.661   7.157  1.2764  1.0060  1.4536
18028SOL    HW256092   2.707   8.765   7.047 -0.0225 -0.1585  0.3362
18029SOL     OW56093   7.115   4.043   7.065 -0.1670 -0.2102 -0.1734
18029SOL    HW156094   7.068   4.089   7.135  1.4134 -0.4193  1.0790
18029SOL    HW256095   7.049   4.029   6.997 -0.9484  3.1428 -0.3022
18030SOL     OW56096   5.163   3.397   0.668  0.7878  0.2784 -0.3215
18030SOL    HW156097   5.069   3.379   0.662  1.2214 -1.7043 -4.3101
18030SOL    HW256098   5.205   3.311   0.661  2.9288  1.2522 -0.2899
18031SOL     OW56099  10.067   4.471   7.053 -0.1108  0.6980  0.4749
18031SOL    HW156100  10.091   4.561   7.077  0.2066  0.5132  0.8590
18031SOL    HW256101  10.034   4.478   6.964 -0.2937  1.2320  0.5801
18032SOL     OW56102   3.708   6.109   0.738 -0.4906  0.1396 -0.1324
18032SOL    HW156103   3.683   6.130   0.828 -2.1804  1.0481 -0.7649
18032SOL    HW256104   3.625   6.099   0.692  0.2981 -2.0793 -1.2491
18033SOL     OW56105   4.286   3.615   7.228 -0.0343 -0.1954 -0.2772
18033SOL    HW156106   4.226   3.587   7.297 -0.5541 -0.4340 -0.8096
18033SOL    HW256107   4.315   3.702   7.255 -0.9191  0.0858 -0.1846
18034SOL     OW56108   6.357   3.683   8.238 -0.0614  0.3998 -0.3301
18034SOL    HW156109   6.283   3.690   8.178  1.1164  2.5147 -1.6742
18034SOL    HW256110   6.421   3.629   8.191 -0.5458 -1.0884  0.6590
18035SOL     OW56111   0.611   0.001   9.549 -0.3829 -0.2831 -0.0224
18035SOL    HW156112   0.675  -0.040   9.607  0.0814  0.8586  0.2969
18035SOL    HW256113   0.572  -0.072   9.501 -0.0460 -1.1496  0.9894
18036SOL     OW56114   9.782   4.797   7.653 -0.0832 -0.0721 -0.1892
18036SOL    HW156115   9.783   4.840   7.567  0.0744  1.4428  0.5432
18036SOL    HW256116   9.869   4.816   7.690 -0.5165  0.1841  0.7228
18037SOL     OW56117   3.600   5.104  10.823  0.1068  0.0109 -0.0165
18037SOL    HW156118   3.641   5.082  10.907 -1.1462 -1.6794  0.1955
18037SOL    HW256119   3.579   5.197  10.831 -0.3386 -0.1987  1.6983
18038SOL     OW56120   1.706   8.569   2.376 -0.1411  0.6939  0.0803
18038SOL    HW156121   1.688   8.658   2.348  1.6552  0.6473 -1.4267
18038SOL    HW256122   1.796   8.553   2.348  0.4300 -0.7687  2.4579
18039SOL     OW56123   7.966   1.240   1.024  0.0144 -0.3688 -0.4882
18039SOL    HW156124   7.976   1.322   1.073  0.3908 -0.3999 -0.5140
18039SOL    HW256125   8.050   1.228   0.980  0.3443 -1.3529  0.3957
18040SOL     OW56126   7.114   8.144   9.444 -0.5310  0.2376  0.0522
18040SOL    HW156127   7.172   8.221   9.445 -1.2066  0.7795  2.2184
18040SOL    HW256128   7.033   8.177   9.404 -1.0388  0.8804  1.5347
18041SOL     OW56129   7.815   5.057  10.806 -0.3255 -0.6858  0.4046
18041SOL    HW156130   7.817   5.041  10.711  0.5722 -1.5327  0.5604
18041SOL    HW256131   7.828   4.971  10.845  1.2186 -0.0883  1.2844
18042SOL     OW56132   2.930   9.605   5.760 -0.1285 -0.0861 -1.0464
18042SOL    HW156133   2.879   9.561   5.827 -2.9059  3.6023 -0.3983
18042SOL    HW256134   3.021   9.579   5.778 -0.8468 -0.3115  3.3753
18043SOL     OW56135   9.807   1.780   8.913  0.2804  0.2449 -0.1682
18043SOL    HW156136   9.738   1.716   8.895 -0.2834  0.6442  0.5081
18043SOL    HW256137   9.865   1.775   8.837 -0.3281 -0.3141 -0.6081
18044SOL     OW56138   5.591  10.729   7.982  0.0759  0.0540  0.0040
18044SOL    HW156139   5.554  10.642   7.998  0.2595 -0.5415 -2.3476
18044SOL    HW256140   5.676  10.727   8.026  0.6175 -1.4569 -1.0181
18045SOL     OW56141   2.655   3.070  10.691  0.4095  0.2319 -0.3456
18045SOL    HW156142   2.584   3.079  10.628  1.1165 -0.7497 -1.3267
18045SOL    HW256143   2.734   3.090  10.641  0.8454  1.3119  0.7237
18046SOL     OW56144  10.919   6.788   7.319 -0.0169 -0.1708  0.2916
18046SOL    HW156145  10.834   6.783   7.275 -0.3226 -0.4253  0.8931
18046SOL    HW256146  10.980   6.743   7.260 -0.3097 -0.0328 -0.1196
18047SOL     OW56147   3.389   0.637  10.941 -0.1544  0.2121 -0.5923
18047SOL    HW156148   3.352   0.640  11.029 -0.1442  0.9612 -0.6096
18047SOL    HW256149   3.440   0.556  10.939 -0.7835 -0.1966 -0.1658
18048SOL     OW56150   5.844   1.122   3.053  0.1992 -0.5630 -0.5981
18048SOL    HW156151   5.893   1.133   3.135  0.4023  1.4885 -0.9409
18048SOL    HW256152   5.880   1.042   3.014 -0.8716 -2.4214  1.9246
18049SOL     OW56153   9.400   2.281   1.968 -0.7030 -0.2290  0.2087
18049SOL    HW156154   9.316   2.287   1.924 -1.8529 -2.0298  1.9783
18049SOL    HW256155   9.464   2.270   1.898 -2.3615 -2.3262 -1.0583
18050SOL     OW56156   6.292   2.768   4.030 -0.4697  0.1456  0.1675
18050SOL    HW156157   6.339   2.687   4.052  0.8813  0.7417 -0.3967
18050SOL    HW256158   6.219   2.771   4.092 -1.1353 -1.9801 -0.4145
18051SOL     OW56159   4.673   7.293   7.427  0.1945 -0.3150  0.1826
18051SOL    HW156160   4.719   7.376   7.412 -1.6153  0.6532 -0.3456
18051SOL    HW256161   4.678   7.247   7.343  0.2520 -0.2340  0.1415
18052SOL     OW56162   7.224   8.889   0.369  0.1028  0.1822 -0.2455
18052SOL    HW156163   7.308   8.848   0.350  0.3435  0.2477  0.6356
18052SOL    HW256164   7.187   8.836   0.440  0.2958  1.2952  0.7207
18053SOL     OW56165   3.442   4.428   0.814 -0.6349 -0.1451  0.2153
18053SOL    HW156166   3.405   4.404   0.729 -1.4405  1.6279  0.0277
18053SOL    HW256167   3.405   4.364   0.875  2.0221 -3.1772 -1.0296
18054SOL     OW56168   8.378  10.390   0.336 -0.0683 -0.6899 -0.7954
18054SOL    HW156169   8.369  10.485   0.324  1.1910 -0.4305  0.1567
18054SOL    HW256170   8.473  10.375   0.337 -0.2517 -1.9572 -0.8282
18055SOL     OW56171   6.292   4.088   4.093  0.2079  0.1519 -0.1345
18055SOL    HW156172   6.379   4.091   4.131 -0.1728  2.5453  0.7477
18055SOL    HW256173   6.295   4.150   4.020 -0.5322 -0.3380 -0.5982
18056SOL     OW56174   0.779   4.898   9.990 -1.2337 -0.0018 -0.0082
18056SOL    HW156175   0.808   4.975  10.038 -0.8497 -0.2996  0.2415
18056SOL    HW256176   0.686   4.912   9.976 -1.1567  0.5281 -0.0021
18057SOL     OW56177   1.825   9.658   5.960 -0.0276 -0.3249 -0.0674
18057SOL    HW156178   1.768   9.735   5.951 -0.0984 -0.2108  1.1748
18057SOL    HW256179   1.913   9.692   5.943  0.0355  0.2318  1.2031
18058SOL     OW56180   9.360   5.498   7.567  0.4554 -0.5717  0.4873
18058SOL    HW156181   9.391   5.496   7.477 -1.1886 -2.0639 -0.1248
18058SOL    HW256182   9.282   5.554   7.564  0.6593 -0.2506  1.0876
18059SOL     OW56183   2.282   5.169   9.222  0.3031  0.5622  0.0809
18059SOL    HW156184   2.267   5.260   9.197  0.1151  1.9319  4.3312
18059SOL    HW256185   2.377   5.163   9.235  0.7405 -0.8390 -2.9166
18060SOL     OW56186   9.136   9.314   1.944  0.0828 -0.8240  0.7118
18060SOL    HW156187   9.199   9.386   1.940 -0.1071 -0.5668  1.9560
18060SOL    HW256188   9.175   9.251   2.004  0.0897 -1.6129 -0.1120
18061SOL     OW56189   0.285   5.022   7.889 -0.2740  0.5186  0.6654
18061SOL    HW156190   0.332   4.967   7.952  1.0015  0.9048  0.0747
18061SOL    HW256191   0.341   5.099   7.878 -0.5049  0.4782 -0.8970
18062SOL     OW56192   4.441   5.265   1.433  0.1112 -0.2925 -0.2107
18062SOL    HW156193   4.463   5.188   1.382 -0.8719  0.4892 -1.8982
18062SOL    HW256194   4.374   5.310   1.382  0.3926  1.5009  0.8881
18063SOL     OW56195   9.177   7.270   9.447 -0.0634  0.4922  0.5436
18063SOL    HW156196   9.213   7.181   9.443  1.2799  1.0265 -0.0213
18063SOL    HW256197   9.121   7.270   9.525  1.6110 -0.2720  1.8135
18064SOL     OW56198   7.565   5.088   6.404 -0.5338  0.3280  0.3522
18064SOL    HW156199   7.610   5.144   6.340  0.4785  0.0282  0.7900
18064SOL    HW256200   7.563   5.001   6.363 -1.4734  0.5079 -0.0202
18065SOL     OW56201   6.132   8.542   1.126 -0.5392 -0.4540 -0.1551
18065SOL    HW156202   6.087   8.521   1.208 -2.5645  0.2822 -0.9994
18065SOL    HW256203   6.134   8.638   1.125 -0.4548 -0.4628 -0.9119
18066SOL     OW56204   2.634   9.487   4.021  0.1987 -0.4771 -0.1606
18066SOL    HW156205   2.545   9.498   3.989  0.6831  1.5036 -1.0168
18066SOL    HW256206   2.626   9.497   4.116 -0.3144  1.8109 -0.3682
18067SOL     OW56207   5.952  10.555   2.812  0.0296 -0.0978 -0.4491
18067SOL    HW156208   5.936  10.491   2.881  0.5999  1.0105  0.7546
18067SOL    HW256209   6.040  10.588   2.829  0.6098 -0.5519 -2.3507
18068SOL     OW56210   9.700   4.038   0.351 -0.9056 -0.3424 -0.5710
18068SOL    HW156211   9.685   3.956   0.397  0.6099  0.2174  1.0034
18068SOL    HW256212   9.648   4.030   0.270 -2.7008 -1.8369  0.6467
18069SOL     OW56213   3.967   3.122   6.418  0.3985  0.0900  0.2137
18069SOL    HW156214   3.921   3.133   6.335  1.3053 -0.2015 -0.3400
18069SOL    HW256215   4.022   3.200   6.427  1.6827 -0.7053 -0.3795
18070SOL     OW56216  10.387   7.659  10.055  0.0062  0.3677  0.5052
18070SOL    HW156217  10.365   7.706   9.975  1.6282  0.9699  0.3802
18070SOL    HW256218  10.446   7.589  10.027  1.2089  1.0497  1.2314
18071SOL     OW56219   5.744   7.193   9.923 -0.6120  0.4975  0.3729
18071SOL    HW156220   5.776   7.256   9.988 -0.4159 -0.4724  1.2413
18071SOL    HW256221   5.744   7.109   9.969 -1.9422  0.0374 -0.4162
18072SOL     OW56222   0.872  10.666   3.249  0.2165 -0.4679  0.1298
18072SOL    HW156223   0.821  10.660   3.330 -0.3025 -0.3402 -0.1801
18072SOL    HW256224   0.923  10.747   3.259  2.3558 -1.8968  1.5517
18073SOL     OW56225   6.091   6.636   8.309  0.0523 -0.5774 -0.3096
18073SOL    HW156226   6.094   6.540   8.304 -0.4086 -0.6180  0.1008
18073SOL    HW256227   6.158   6.665   8.248  0.5760 -1.1718 -0.0287
18074SOL     OW56228   5.668   4.556   8.407  0.3417  0.3471  0.7890
18074SOL    HW156229   5.756   4.592   8.397  0.2544  0.3162 -0.2439
18074SOL    HW256230   5.678   4.486   8.472  1.4757 -0.8838 -0.6043
18075SOL     OW56231   9.218   4.257   1.106  0.1271 -0.0729 -0.1819
18075SOL    HW156232   9.147   4.222   1.161 -1.1742 -0.1034 -1.8080
18075SOL    HW256233   9.206   4.215   1.021  0.3524  2.0433 -1.3273
18076SOL     OW56234   5.330   0.836   0.287  0.9167 -0.2006 -0.6481
18076SOL    HW156235   5.389   0.911   0.277  1.6509 -0.7245 -0.2926
18076SOL    HW256236   5.283   0.854   0.368  0.6657  0.1564 -0.8673
18077SOL     OW56237   4.487   0.376  10.250  0.2719  0.2950  0.2132
18077SOL    HW156238   4.541   0.305  10.215  2.0821  0.3371  2.7114
18077SOL    HW256239   4.522   0.392  10.337 -2.5491  1.7195  1.1893
18078SOL     OW56240   7.248   6.045   9.054 -0.9566  1.0815  0.0640
18078SOL    HW156241   7.188   6.022   9.125 -0.6193 -0.1718 -0.0284
18078SOL    HW256242   7.329   5.999   9.076  0.0192  2.7736  0.2188
18079SOL     OW56243   4.889   3.458   6.721 -0.4039 -1.0977  0.0287
18079SOL    HW156244   4.957   3.391   6.715 -0.8166 -1.4559 -0.9933
18079SOL    HW256245   4.934   3.536   6.754  0.0149 -1.9416  1.5327
18080SOL     OW56246   0.660   6.437   5.019 -0.4164  0.3889  0.3784
18080SOL    HW156247   0.615   6.412   4.938  0.3666  0.4098 -0.0810
18080SOL    HW256248   0.690   6.354   5.056 -0.2563  0.4225  0.3276
18081SOL     OW56249   4.355   2.091   1.965 -0.3075 -0.0559 -0.1024
18081SOL    HW156250   4.378   2.072   1.874 -0.2720  0.3153 -0.1724
18081SOL    HW256251   4.410   2.032   2.016 -1.5175 -1.4704 -0.3608
18082SOL     OW56252   5.256   1.386   9.658 -0.4824  0.3609 -0.3069
18082SOL    HW156253   5.350   1.382   9.678 -0.6586  2.5246  1.2693
18082SOL    HW256254   5.245   1.328   9.582  1.9237 -0.7810  0.1292
18083SOL     OW56255  10.177   7.006   3.282 -0.0341  0.2861  0.3234
18083SOL    HW156256  10.216   7.093   3.287 -0.4306  0.4404  0.7308
18083SOL    HW256257  10.095   7.013   3.331 -1.2258  0.3258 -1.5587
18084SOL     OW56258   5.608   3.468  10.682  0.1464  0.5589 -0.5097
18084SOL    HW156259   5.555   3.398  10.645 -0.2448  1.2384 -1.2604
18084SOL    HW256260   5.697   3.451  10.651 -0.1697  1.1063 -1.7855
18085SOL     OW56261   2.102   2.210   5.762  0.1414  0.0947  0.4805
18085SOL    HW156262   2.117   2.148   5.691  3.4630  0.8450  0.3929
18085SOL    HW256263   2.065   2.287   5.718  0.4264 -0.1138 -0.1385
18086SOL     OW56264   0.945   4.208   3.074  0.5160 -0.0811  0.1968
18086SOL    HW156265   0.850   4.200   3.083  0.2686  1.3656 -0.9698
18086SOL    HW256266   0.960   4.297   3.044  2.0336 -1.1264 -2.5055
18087SOL     OW56267   6.828   4.020   2.139 -0.1813  0.0661  0.5137
18087SOL    HW156268   6.828   3.934   2.096 -0.2474 -0.7071  2.0102
18087SOL    HW256269   6.846   4.001   2.231  1.3827  1.7909  0.6282
18088SOL     OW56270   2.977   3.365   7.275  0.1288 -0.2277  0.0223
18088SOL    HW156271   3.059   3.332   7.240  1.1666  1.4808  0.7021
18088SOL    HW256272   2.941   3.419   7.205  0.8494  0.9983  0.5615
18089SOL     OW56273   7.313   6.164   8.286 -0.2612 -0.2748  0.4286
18089SOL    HW156274   7.333   6.251   8.321 -0.5089  0.3642 -0.9272
18089SOL    HW256275   7.314   6.106   8.362 -0.5679  0.9980  1.4359
18090SOL     OW56276   0.824   6.932  10.658  0.5253 -0.0267  0.1187
18090SOL    HW156277   0.903   6.929  10.712  0.8799 -1.8966 -0.4260
18090SOL    HW256278   0.848   6.989  10.585  1.0061  0.2638  0.4904
18091SOL     OW56279   2.744   4.186   9.815 -0.1685  0.1186 -0.4770
18091SOL    HW156280   2.830   4.188   9.857 -1.1238  1.3091  1.6047
18091SOL    HW256281   2.761   4.213   9.724  1.4952  1.9424  0.2930
18092SOL     OW56282   1.493   2.320  10.834  0.0380 -0.0660  0.3360
18092SOL    HW156283   1.450   2.270  10.903 -0.2181  0.2091  0.3813
18092SOL    HW256284   1.422   2.373  10.796  0.5508  1.2954  1.2161
18093SOL     OW56285   7.969   6.058   8.508  0.5853  0.6069 -0.1134
18093SOL    HW156286   7.940   6.141   8.545  1.5820  0.3261  1.3909
18093SOL    HW256287   8.060   6.074   8.482  0.8344 -0.0331  0.3264
18094SOL     OW56288  10.487   0.228   4.881  0.1673 -0.1687 -0.6818
18094SOL    HW156289  10.408   0.249   4.930  0.7606  2.5415 -0.7415
18094SOL    HW256290  10.544   0.186   4.945  0.2323  1.6802  0.5675
18095SOL     OW56291   2.531   2.874   1.086  0.2816 -0.3007 -0.0652
18095SOL    HW156292   2.500   2.825   1.010  2.3846 -0.4552 -0.8786
18095SOL    HW256293   2.574   2.951   1.048  1.8498 -0.6604  0.8982
18096SOL     OW56294  10.387   4.668   8.039 -0.9248 -0.4517  0.7106
18096SOL    HW156295  10.446   4.733   8.001 -0.3018 -1.7897 -0.7255
18096SOL    HW256296  10.310   4.669   7.982 -0.4106 -1.7540 -0.0704
18097SOL     OW56297   8.047   6.250   8.766 -0.2287  0.2388  0.1382
18097SOL    HW156298   8.035   6.155   8.768  0.3464  0.1711  0.7437
18097SOL    HW256299   8.051   6.276   8.858  2.0792  0.5072  0.0157
18098SOL     OW56300   2.609   4.444   9.366 -0.1300  0.4072 -0.2383
18098SOL    HW156301   2.584   4.470   9.455  0.8090  0.9064 -0.1053
18098SOL    HW256302   2.632   4.351   9.374 -1.4961  0.0447 -0.2843
18099SOL     OW56303   3.236   3.165   5.496  0.1253 -0.7306  0.4277
18099SOL    HW156304   3.209   3.195   5.410  1.4773  1.5818  0.7209
18099SOL    HW256305   3.330   3.150   5.488  0.6570  1.3325  1.8740
18100SOL     OW56306   2.075   8.919   6.645 -0.6289  0.2369  0.1630
18100SOL    HW156307   2.027   8.995   6.613 -3.0855 -1.2336  0.1553
18100SOL    HW256308   2.012   8.871   6.698  1.3235 -1.0008  1.4781
18101SOL     OW56309   1.963   6.574   8.062  0.4808 -0.4294 -0.0450
18101SOL    HW156310   1.941   6.648   8.118  0.6759 -0.4513  0.0620
18101SOL    HW256311   1.975   6.501   8.122  0.4008 -0.5207 -0.1406
18102SOL     OW56312   1.271   5.605   7.671  0.0691  0.3456  0.2559
18102SOL    HW156313   1.234   5.651   7.596  0.3628 -2.5577 -1.8204
18102SOL    HW256314   1.366   5.609   7.658  0.1257 -0.1937  0.4700
18103SOL     OW56315   0.915   2.915   5.703 -0.3255  0.4551  0.0034
18103SOL    HW156316   0.905   2.840   5.762  0.6453  0.3287  0.0134
18103SOL    HW256317   1.003   2.948   5.720  0.1898  0.0868 -1.7630
18104SOL     OW56318   5.768   8.107   8.669 -0.5969  0.3833  0.5958
18104SOL    HW156319   5.701   8.041   8.685 -1.0290  0.9751  1.3561
18104SOL    HW256320   5.841   8.082   8.726 -0.3295 -0.0446  0.0634
18105SOL     OW56321   5.550   5.096   1.811  0.2744 -0.2401  0.1318
18105SOL    HW156322   5.542   5.132   1.900  1.7024 -2.2408  1.1469
18105SOL    HW256323   5.613   5.024   1.820 -1.1777 -1.9019 -2.0879
18106SOL     OW56324   7.356  10.855   2.743 -0.1275  0.1575  0.4252
18106SOL    HW156325   7.305  10.806   2.809  0.0567  0.9464  1.1823
18106SOL    HW256326   7.445  10.854   2.776 -0.2302  1.5670  0.8359
18107SOL     OW56327   3.196   0.468   2.632  0.2042  0.1319 -0.2280
18107SOL    HW156328   3.256   0.486   2.704  0.8133  1.6651 -1.0562
18107SOL    HW256329   3.203   0.545   2.575 -1.4489 -0.3099 -1.1137
18108SOL     OW56330   7.831   3.667  10.679  0.3001 -0.0082 -0.1417
18108SOL    HW156331   7.909   3.719  10.660  0.1255  0.5419  0.5980
18108SOL    HW256332   7.774   3.681  10.604  0.5965  0.2118 -0.3278
18109SOL     OW56333   1.101  10.866   7.370 -0.1164 -0.1598  0.1857
18109SOL    HW156334   1.147  10.821   7.441  2.4564 -0.7855 -1.7118
18109SOL    HW256335   1.067  10.946   7.411 -1.7907 -2.0800  2.8374
18110SOL     OW56336   8.911   7.960   6.488  0.3543  0.5370 -0.1077
18110SOL    HW156337   8.929   8.051   6.513 -0.1116  0.7975 -0.7154
18110SOL    HW256338   8.834   7.936   6.540  1.8287 -0.2868  1.8177
18111SOL     OW56339   3.210   3.103  10.925 -0.3120 -0.1024  0.0544
18111SOL    HW156340   3.182   3.016  10.954 -1.1182 -0.4596 -1.6241
18111SOL    HW256341   3.130   3.144  10.891  0.1360  1.1410  0.4334
18112SOL     OW56342   2.823   4.726   0.834  0.2818 -0.0238  0.0975
18112SOL    HW156343   2.849   4.802   0.886 -0.6273  1.6143 -1.6890
18112SOL    HW256344   2.843   4.651   0.889  1.8444  1.4634  1.6860
18113SOL     OW56345   3.421   4.985   6.670  0.0436  0.4090  0.4342
18113SOL    HW156346   3.400   4.995   6.762 -0.8873  0.9241  0.1845
18113SOL    HW256347   3.429   5.075   6.637 -0.5575  0.2535 -0.1747
18114SOL     OW56348   1.021   2.179  10.632 -0.4322  0.5253 -0.2921
18114SOL    HW156349   1.004   2.224  10.715  1.2609  2.1368 -0.7528
18114SOL    HW256350   1.003   2.245  10.566 -0.5005 -0.3370 -1.1447
18115SOL     OW56351   3.435   1.718   6.596  0.4687  0.7511  0.4529
18115SOL    HW156352   3.348   1.755   6.607  1.1729  2.6602  0.1347
18115SOL    HW256353   3.424   1.649   6.531 -0.5772  1.9390 -0.6822
18116SOL     OW56354   3.024   0.708   9.727 -0.2478 -0.9298  0.0876
18116SOL    HW156355   2.959   0.770   9.760  0.8597  0.3589 -0.0724
18116SOL    HW256356   3.070   0.678   9.806 -1.0161 -1.8479  0.2024
18117SOL     OW56357   7.558   7.415   8.089  0.3630 -0.2740 -0.4041
18117SOL    HW156358   7.607   7.459   8.019 -0.5649 -0.9019 -1.4720
18117SOL    HW256359   7.593   7.326   8.091 -0.1714 -0.4915 -0.6218
18118SOL     OW56360   2.588   9.732   0.913  0.7287  0.3424  0.0983
18118SOL    HW156361   2.615   9.655   0.962 -0.8570 -0.3827 -0.1272
18118SOL    HW256362   2.618   9.715   0.823  1.7557  0.7202  0.3514
18119SOL     OW56363   5.631   6.993   5.590 -0.3287  0.9030  0.1434
18119SOL    HW156364   5.704   6.947   5.631 -0.7673  0.5777  0.5751
18119SOL    HW256365   5.672   7.060   5.536  0.3398 -0.1793 -0.7256
18120SOL     OW56366   6.483   1.025   0.501  0.2368  0.3398 -0.3026
18120SOL    HW156367   6.390   1.023   0.481  0.2913 -1.2865 -0.4921
18120SOL    HW256368   6.501   0.940   0.541  1.1488  1.5400  2.0692
18121SOL     OW56369   2.853   2.659   8.684 -0.2978 -0.0359  0.2978
18121SOL    HW156370   2.801   2.735   8.710  1.6718  1.2298  0.7744
18121SOL    HW256371   2.825   2.640   8.595 -0.9081  1.1877  0.2080
18122SOL     OW56372  10.440   9.879   6.000  0.1048  0.1912  0.0597
18122SOL    HW156373  10.390   9.915   6.073 -0.8503 -0.0950 -0.4406
18122SOL    HW256374  10.465   9.955   5.948  0.2626  0.3392  0.3464
18123SOL     OW56375   2.945   5.718   9.441 -0.0600 -0.0946  0.4621
18123SOL    HW156376   2.898   5.695   9.521  0.3403  0.4636  0.8638
18123SOL    HW256377   2.891   5.786   9.401  0.7360  1.0501  1.2811
18124SOL     OW56378   1.261   1.873   3.908  0.3520 -0.7200  0.0465
18124SOL    HW156379   1.267   1.950   3.964  0.0457 -1.5482  1.2628
18124SOL    HW256380   1.171   1.874   3.874  0.4266 -0.4073 -0.1366
18125SOL     OW56381   9.395   2.484   9.148  0.2696 -0.3348 -0.1303
18125SOL    HW156382   9.387   2.436   9.230 -1.9753 -0.0722 -0.1359
18125SOL    HW256383   9.406   2.575   9.174 -0.3779 -0.2596 -0.1104
18126SOL     OW56384   0.423   6.432   8.530  0.4136  0.2108 -0.4711
18126SOL    HW156385   0.387   6.345   8.512 -0.7765  0.6537 -0.3078
18126SOL    HW256386   0.466   6.423   8.615 -0.4048 -0.0146 -0.0805
18127SOL     OW56387   9.306   5.106   9.083 -0.0184  0.7701  0.4454
18127SOL    HW156388   9.258   5.059   9.014  0.3219  0.4498  0.4193
18127SOL    HW256389   9.398   5.098   9.057  0.1281  0.4732  1.0431
18128SOL     OW56390   5.605   7.195   3.560  0.2243  0.6494  0.0975
18128SOL    HW156391   5.684   7.207   3.613 -0.0266  1.5756  0.2780
18128SOL    HW256392   5.637   7.157   3.478  0.6043 -0.9573  0.9409
18129SOL     OW56393   5.630   8.392   0.807 -0.5329 -0.0812  0.2898
18129SOL    HW156394   5.677   8.459   0.858  0.6257  0.6125 -1.5607
18129SOL    HW256395   5.617   8.433   0.721  0.8373 -2.4373 -1.1589
18130SOL     OW56396   6.785   4.671   7.766 -0.5394  0.9275  0.4502
18130SOL    HW156397   6.712   4.650   7.708  0.6954 -1.3002 -0.4211
18130SOL    HW256398   6.771   4.616   7.843  0.7590 -0.4242 -0.2250
18131SOL     OW56399   4.155   7.738   7.487 -0.2750 -0.2420 -0.4443
18131SOL    HW156400   4.128   7.680   7.416 -0.7564  0.2021 -0.6280
18131SOL    HW256401   4.246   7.760   7.467  0.0791 -1.3147 -0.1109
18132SOL     OW56402   6.783   6.587   9.769 -0.6650 -0.1843 -0.1490
18132SOL    HW156403   6.717   6.550   9.710 -0.9812 -0.6425  0.4719
18132SOL    HW256404   6.841   6.637   9.713 -0.1252 -1.7756 -1.0605
18133SOL     OW56405   7.126   6.703   2.884 -0.2672  0.6210 -0.1326
18133SOL    HW156406   7.115   6.739   2.796 -0.0633 -0.0602 -0.4415
18133SOL    HW256407   7.061   6.632   2.889  0.1395  0.2586  0.0433
18134SOL     OW56408   9.847   5.174   8.415  0.6656  0.1075  0.2576
18134SOL    HW156409   9.816   5.249   8.364 -1.1412 -0.9707 -0.3453
18134SOL    HW256410   9.901   5.124   8.353 -0.7205 -0.6831 -0.3762
18135SOL     OW56411   3.514   7.735   3.823 -0.3460  0.5395 -0.7888
18135SOL    HW156412   3.436   7.754   3.770 -1.4510  0.7760  0.8571
18135SOL    HW256413   3.488   7.757   3.912  2.8432  4.3141 -0.5571
18136SOL     OW56414   1.983   3.876   2.805 -0.2158 -0.0508 -0.7479
18136SOL    HW156415   2.066   3.897   2.763  0.6283 -1.1836  0.2890
18136SOL    HW256416   1.997   3.895   2.897 -1.2225  0.0408 -0.6009
18137SOL     OW56417   7.099   1.579   8.244 -0.0863  0.1008  0.2171
18137SOL    HW156418   7.116   1.625   8.326 -1.0860 -0.7615  0.9448
18137SOL    HW256419   7.140   1.493   8.256 -1.8507 -0.7403  0.6298
18138SOL     OW56420   9.556   8.559   6.672 -0.2432 -0.4073  0.2402
18138SOL    HW156421   9.530   8.493   6.737 -0.1506 -1.2512 -0.5629
18138SOL    HW256422   9.516   8.529   6.591 -0.9450  1.0226  0.0372
18139SOL     OW56423   4.853   7.111   2.547 -0.3263 -0.1500  0.0600
18139SOL    HW156424   4.855   7.181   2.482  1.2491  1.5122  1.7705
18139SOL    HW256425   4.905   7.040   2.509  0.7974  0.8963 -0.4049
18140SOL     OW56426   6.748   6.358   7.653  0.2015 -0.2899 -0.3015
18140SOL    HW156427   6.807   6.380   7.581  0.8306 -0.6508  0.1001
18140SOL    HW256428   6.742   6.439   7.704 -0.6107  0.1081 -0.9987
18141SOL     OW56429   2.362  10.347   8.428  0.1207  0.1954 -0.7196
18141SOL    HW156430   2.357  10.316   8.338 -0.7186  1.0223 -0.9750
18141SOL    HW256431   2.361  10.267   8.481 -1.4925 -0.2708 -1.3805
18142SOL     OW56432   6.029   2.378   6.525 -0.2880  0.6568  0.0359
18142SOL    HW156433   6.074   2.414   6.601 -1.3467 -1.2691  1.6724
18142SOL    HW256434   5.987   2.453   6.483  0.5949  1.8009  1.1454
18143SOL     OW56435   9.331   3.464  10.811  0.2356 -0.4735 -0.0921
18143SOL    HW156436   9.248   3.504  10.783 -0.3503 -0.3155  1.7527
18143SOL    HW256437   9.310   3.371  10.823  0.3681 -0.4574  0.2571
18144SOL     OW56438   0.071   0.500  10.465  0.3597  0.3929  0.1053
18144SOL    HW156439   0.079   0.443  10.541  0.7216  1.5137  0.9165
18144SOL    HW256440   0.002   0.562  10.488  1.4657  1.6577  0.1329
18145SOL     OW56441   0.141   7.335  10.238 -0.3698  0.0100  0.4384
18145SOL    HW156442   0.136   7.341  10.143  1.4522 -1.1654  0.2211
18145SOL    HW256443   0.212   7.394  10.262 -0.3599 -0.2211  0.9964
18146SOL     OW56444   6.119   1.812   8.599  0.6893 -0.6032 -0.1026
18146SOL    HW156445   6.206   1.840   8.571  1.1593 -2.0639 -0.2337
18146SOL    HW256446   6.130   1.788   8.691  0.4978 -1.0171 -0.1830
18147SOL     OW56447   7.017   9.255   2.673 -0.2437 -0.1223 -0.1369
18147SOL    HW156448   6.987   9.329   2.620  1.1525  1.3501  1.0301
18147SOL    HW256449   6.939   9.226   2.720 -1.2566 -0.7590 -2.0991
18148SOL     OW56450   6.009   8.277   3.496 -0.0734 -0.3617 -0.0706
18148SOL    HW156451   6.093   8.308   3.462 -0.3997  1.1860  0.4262
18148SOL    HW256452   6.020   8.281   3.592 -1.0988  1.1071  0.0199
18149SOL     OW56453   2.649   6.706   1.181  0.1724 -0.4137 -0.5104
18149SOL    HW156454   2.722   6.684   1.238 -0.2926  1.0673  0.7298
18149SOL    HW256455   2.687   6.712   1.094  1.2363 -1.0544 -0.1105
18150SOL     OW56456   5.236   5.148   0.687  0.1827  0.2140  0.1455
18150SOL    HW156457   5.229   5.055   0.665  0.2743  0.2988 -0.2461
18150SOL    HW256458   5.329   5.163   0.700  0.1869  0.2896  0.0329
18151SOL     OW56459   0.130  10.782   1.024 -0.1200  0.5414 -0.1555
18151SOL    HW156460   0.196  10.823   1.081  0.0514 -0.2128  0.1995
18151SOL    HW256461   0.120  10.694   1.060  0.3722 -0.1334 -1.6172
18152SOL     OW56462   8.400   2.264   1.877 -0.2699 -0.0436  0.0542
18152SOL    HW156463   8.451   2.259   1.796 -3.0723  0.6631 -1.8818
18152SOL    HW256464   8.384   2.172   1.900  0.0660 -0.2563 -0.5253
18153SOL     OW56465   8.444   1.614   6.809 -0.3418 -0.2462 -0.2455
18153SOL    HW156466   8.406   1.620   6.721 -0.4359  0.3151 -0.1668
18153SOL    HW256467   8.382   1.658   6.866 -0.6052 -1.1862  0.2194
18154SOL     OW56468   5.680   4.150  10.502  0.0248  0.1048 -0.1786
18154SOL    HW156469   5.604   4.208  10.504  1.9865  2.8406  0.8995
18154SOL    HW256470   5.706   4.141  10.593  0.4874 -1.5554 -0.4379
18155SOL     OW56471   3.760   7.336   6.994  0.7721 -0.7025  0.2012
18155SOL    HW156472   3.733   7.261   6.940 -0.8715  0.1706 -0.2465
18155SOL    HW256473   3.726   7.318   7.081 -2.0666  0.7046 -0.5093
18156SOL     OW56474   5.545   2.215   0.702  0.3344  0.0911 -0.0558
18156SOL    HW156475   5.584   2.155   0.638 -1.9095  0.3975 -1.8588
18156SOL    HW256476   5.479   2.162   0.747  0.2058  0.5162  0.2665
18157SOL     OW56477   7.865   0.964   8.848 -0.0659 -0.0935 -0.6799
18157SOL    HW156478   7.798   1.026   8.877  1.7133  2.2155 -1.3013
18157SOL    HW256479   7.909   0.937   8.929 -1.0643 -0.8993 -0.3726
18158SOL     OW56480   4.266   4.891   6.674 -0.7238 -0.0936 -0.3111
18158SOL    HW156481   4.228   4.814   6.632 -1.2033 -0.0186 -0.0240
18158SOL    HW256482   4.310   4.938   6.603 -1.5925  0.0737 -0.7543
18159SOL     OW56483   4.349   1.341   0.307  0.0629 -0.0845 -0.1546
18159SOL    HW156484   4.329   1.416   0.363  2.2413  0.9568 -0.6582
18159SOL    HW256485   4.412   1.290   0.357 -0.2904 -0.8085 -0.4305
18160SOL     OW56486   1.080   9.194   7.418  0.2824 -0.5556  0.2533
18160SOL    HW156487   1.084   9.245   7.499 -0.8871 -2.3946  1.5566
18160SOL    HW256488   1.124   9.249   7.353 -0.4405  1.8420  1.6534
18161SOL     OW56489   3.104   3.052  10.310 -0.0903  0.9336  0.1935
18161SOL    HW156490   3.044   3.123  10.291 -0.4191  0.8436  0.8610
18161SOL    HW256491   3.068   2.977  10.263 -1.7366  0.3366  2.2805
18162SOL     OW56492   0.549   4.251   7.942  0.1772 -0.3222 -0.0050
18162SOL    HW156493   0.536   4.262   8.036  0.6420 -1.2836  0.1812
18162SOL    HW256494   0.519   4.162   7.923  3.0978 -1.3549 -0.1665
18163SOL     OW56495   5.650   5.690   7.559 -0.8161  0.2479 -0.1116
18163SOL    HW156496   5.712   5.621   7.532  0.6770  1.4012  0.2296
18163SOL    HW256497   5.564   5.650   7.548  0.0058 -1.8430  0.5164
18164SOL     OW56498   7.214   4.475   7.662  0.5733 -0.7082  0.1354
18164SOL    HW156499   7.273   4.483   7.736 -0.3842 -1.3117  0.9821
18164SOL    HW256500   7.227   4.556   7.612  0.7982 -0.0284  1.2693
18165SOL     OW56501  10.203   9.196  10.151  0.0113 -0.6024 -0.4858
18165SOL    HW156502  10.168   9.113  10.119 -1.2786 -0.4600  0.4956
18165SOL    HW256503  10.144   9.262  10.116 -0.3425 -0.3009  0.6310
18166SOL     OW56504   5.957   7.430  10.810  0.1319 -0.1875  0.0280
18166SOL    HW156505   5.999   7.391  10.733 -1.2345  1.2570 -1.5436
18166SOL    HW256506   5.894   7.364  10.839 -1.8040  0.4925 -2.2933
18167SOL     OW56507   9.247  10.489   2.497  0.5327  0.2460 -0.3923
18167SOL    HW156508   9.264  10.474   2.590 -1.2103 -2.1866 -0.4057
18167SOL    HW256509   9.332  10.517   2.462  1.4633  0.2225  1.7076
18168SOL     OW56510   9.747   2.281   0.439  0.5251  0.2223  0.0682
18168SOL    HW156511   9.752   2.225   0.362 -0.7764  1.8006 -1.2398
18168SOL    HW256512   9.835   2.317   0.449  1.7826 -2.9398  1.7521
18169SOL     OW56513   2.159   2.129   6.576  0.0451  0.2384  0.0254
18169SOL    HW156514   2.155   2.038   6.607  0.8192  0.9504  2.4374
18169SOL    HW256515   2.229   2.129   6.511  0.8938 -0.6860  0.8983
18170SOL     OW56516  10.709   4.198   7.282 -0.0122  0.1859 -0.1849
18170SOL    HW156517  10.688   4.106   7.266  0.3479  0.1322 -0.3641
18170SOL    HW256518  10.714   4.237   7.194  2.0780 -0.1304 -0.2635
18171SOL     OW56519   0.445   2.689   4.133 -0.3909  0.0414  0.4773
18171SOL    HW156520   0.468   2.757   4.197 -0.0288 -0.3080  0.7267
18171SOL    HW256521   0.350   2.693   4.126 -0.3961  0.3592  0.7313
18172SOL     OW56522   3.127   0.941   4.129 -0.3646 -0.2101  0.1576
18172SOL    HW156523   3.201   0.976   4.080 -1.3538  2.9843  0.7163
18172SOL    HW256524   3.159   0.932   4.218 -0.6944  1.7483  0.5307
18173SOL     OW56525   7.328   6.855   9.070 -0.4747 -0.2020  0.3383
18173SOL    HW156526   7.402   6.910   9.096 -0.2407 -1.0745  1.5843
18173SOL    HW256527   7.338   6.846   8.975  0.4849  0.4357  0.3607
18174SOL     OW56528   5.723   4.346   7.252  0.3685  0.6484 -0.1767
18174SOL    HW156529   5.803   4.314   7.210  0.2532  2.9257 -2.3459
18174SOL    HW256530   5.736   4.441   7.258 -2.5977  1.2420 -1.6684
18175SOL     OW56531   3.883   3.630   0.749  0.1066 -0.3959  0.7811
18175SOL    HW156532   3.975   3.643   0.771  0.4317 -0.6696 -0.3705
18175SOL    HW256533   3.837   3.702   0.793  1.1113  0.9050 -0.2450
18176SOL     OW56534   1.204   2.324   1.133 -0.0777  0.0729  0.0614
18176SOL    HW156535   1.277   2.384   1.146 -0.2034 -0.0220  1.3345
18176SOL    HW256536   1.181   2.295   1.222 -2.8573  1.5316 -0.0850
18177SOL     OW56537   5.599   5.583   5.980  0.5459  0.2531 -0.1373
18177SOL    HW156538   5.664   5.646   6.011  2.1928 -1.0787 -0.7517
18177SOL    HW256539   5.616   5.575   5.886 -0.2220 -0.4384 -0.2307
18178SOL     OW56540   3.011  10.947   8.299  0.4381  0.1895 -0.1063
18178SOL    HW156541   3.052  10.937   8.213 -0.6341  0.0578 -0.6158
18178SOL    HW256542   2.965  11.031   8.293  0.3238  0.1580  0.3313
18179SOL     OW56543   5.003   6.314   1.713  0.8565  0.3318  0.9145
18179SOL    HW156544   4.988   6.395   1.663  0.1021 -0.4066 -0.0971
18179SOL    HW256545   4.929   6.310   1.774 -1.5151 -1.6031 -1.8083
18180SOL     OW56546   4.798   7.786   7.404  0.0126 -0.2584 -0.0456
18180SOL    HW156547   4.755   7.740   7.332  0.2888  0.3936 -0.6274
18180SOL    HW256548   4.739   7.859   7.424 -1.3976 -1.8336  2.1150
18181SOL     OW56549   6.466   3.938   3.932  0.3435 -0.2094 -0.8027
18181SOL    HW156550   6.529   4.007   3.950  0.5676 -0.6418  0.1270
18181SOL    HW256551   6.441   3.904   4.018 -2.8494  1.4073 -0.9547
18182SOL     OW56552   2.359   7.986   9.060 -0.6983  0.1058 -0.5520
18182SOL    HW156553   2.391   7.901   9.031 -0.3001  0.2018 -0.4013
18182SOL    HW256554   2.268   7.970   9.085  0.4541 -1.2549  3.5094
18183SOL     OW56555   1.734   8.247   6.770 -0.0327 -0.1217 -0.1008
18183SOL    HW156556   1.664   8.192   6.734 -2.1558  1.6445  1.0479
18183SOL    HW256557   1.735   8.324   6.713  0.4095  0.2298  0.3749
18184SOL     OW56558   4.070   6.433   0.627 -0.1603 -0.2629  0.1365
18184SOL    HW156559   3.983   6.398   0.612  0.0280 -0.7655  0.2214
18184SOL    HW256560   4.071   6.516   0.578 -0.3558 -0.7280 -0.6623
18185SOL     OW56561   5.140   2.103  10.996  0.2045  0.5652  0.0231
18185SOL    HW156562   5.084   2.124  10.922 -2.8770 -3.3255  0.8938
18185SOL    HW256563   5.112   2.163  11.065 -0.7088  0.7490 -0.4891
18186SOL     OW56564   8.000   8.070   8.191 -0.0316 -0.1335  0.2830
18186SOL    HW156565   7.910   8.101   8.188  0.3957  1.4488  2.0577
18186SOL    HW256566   7.993   7.977   8.214 -1.2218 -0.5083 -1.3951
18187SOL     OW56567  10.464   6.039   8.013 -0.5531  0.1519  0.1336
18187SOL    HW156568  10.542   5.983   8.004 -1.3413 -1.0733  0.6147
18187SOL    HW256569  10.391   5.981   7.991 -1.3749  1.1283  0.2373
18188SOL     OW56570   4.718   4.784   9.513 -0.2225  0.3282  0.6363
18188SOL    HW156571   4.763   4.822   9.437  1.5060 -1.1348  0.8589
18188SOL    HW256572   4.625   4.788   9.490  0.2471 -0.1779 -1.6541
18189SOL     OW56573   9.727   0.381   4.097 -0.2344 -0.2280  0.2627
18189SOL    HW156574   9.811   0.413   4.130 -1.0383  0.8069  1.4061
18189SOL    HW256575   9.698   0.448   4.035 -0.7964  0.0589  0.8277
18190SOL     OW56576   6.071   2.585   6.075  0.1492 -0.2719  0.1451
18190SOL    HW156577   6.085   2.511   6.134  0.0697 -0.8516 -0.5430
18190SOL    HW256578   6.035   2.654   6.130 -0.8891 -1.1426  0.5885
18191SOL     OW56579   7.769   1.999   3.575  0.0711 -0.2661 -0.0814
18191SOL    HW156580   7.760   1.982   3.481 -0.0114 -0.3536 -0.0576
18191SOL    HW256581   7.842   2.060   3.581 -1.2812  1.4999 -0.3967
18192SOL     OW56582   7.345   2.644   3.794 -0.1012  0.4389 -0.0008
18192SOL    HW156583   7.351   2.650   3.889  1.4425  0.2500 -0.0626
18192SOL    HW256584   7.406   2.574   3.770 -1.5176 -0.5095 -1.0334
18193SOL     OW56585   4.282   6.200   3.551  0.3786 -0.3263  0.0968
18193SOL    HW156586   4.365   6.242   3.531 -0.1382  0.6718 -0.0112
18193SOL    HW256587   4.297   6.106   3.536  1.1149 -0.0201 -1.1306
18194SOL     OW56588   0.778   6.075   8.247 -0.0956  0.0267 -0.1671
18194SOL    HW156589   0.766   5.982   8.229 -0.2972  0.3546 -1.9093
18194SOL    HW256590   0.697   6.116   8.217  0.3960  0.8629 -0.3925
18195SOL     OW56591   0.557   6.663  10.664 -0.2003  0.4299 -0.3286
18195SOL    HW156592   0.595   6.741  10.705 -1.4173  0.8466  0.0626
18195SOL    HW256593   0.465   6.686  10.650 -0.8342 -1.2849  0.7258
18196SOL     OW56594   1.301   9.451   7.371 -0.1947  0.4159 -0.5657
18196SOL    HW156595   1.360   9.476   7.300  0.7611  1.5462  0.5790
18196SOL    HW256596   1.350   9.386   7.422  0.5466  2.1109  0.9798
18197SOL     OW56597   3.918   6.205   9.586  0.3162  0.1021 -0.0987
18197SOL    HW156598   3.898   6.216   9.679  1.7830  1.5824  0.0916
18197SOL    HW256599   3.909   6.293   9.550  1.2307 -0.1814 -1.0424
18198SOL     OW56600   2.085  10.248   6.760  0.0536 -0.7447  0.0018
18198SOL    HW156601   2.169  10.286   6.786 -0.6523  0.6414  0.3686
18198SOL    HW256602   2.029  10.324   6.744 -0.9845 -1.6438 -0.7371
18199SOL     OW56603   4.653   4.165   0.949 -0.3174  0.2399 -0.9308
18199SOL    HW156604   4.582   4.172   1.013  0.0480  1.4207 -0.6359
18199SOL    HW256605   4.671   4.071   0.944  0.1655  0.1631  1.2743
18200SOL     OW56606   8.897   7.559  10.635 -0.1476 -0.2025  0.1544
18200SOL    HW156607   8.872   7.544  10.726 -1.1080 -0.1778 -0.0969
18200SOL    HW256608   8.993   7.562  10.637 -0.1305 -0.9085  1.0507
18201SOL     OW56609  10.470   6.069   4.182  0.0992 -0.9003 -0.2389
18201SOL    HW156610  10.480   6.150   4.132  1.9419  0.4260  2.0825
18201SOL    HW256611  10.403   6.089   4.246 -3.1089 -2.9669 -2.6198
18202SOL     OW56612   0.526   6.230   0.157  0.0969 -0.1751 -0.3019
18202SOL    HW156613   0.500   6.290   0.227  1.1772 -2.2343  2.0106
18202SOL    HW256614   0.444   6.189   0.129 -0.5755  1.8542 -1.5296
18203SOL     OW56615   5.003   7.471   1.311  0.4764  0.1276 -0.3242
18203SOL    HW156616   5.010   7.418   1.390 -0.7523 -1.0991 -0.9872
18203SOL    HW256617   4.917   7.449   1.275  0.5184  1.5446 -1.3818
18204SOL     OW56618   1.175   2.998   4.431  0.2584  0.2766  0.0488
18204SOL    HW156619   1.142   3.034   4.513  0.7077 -0.0857  0.3953
18204SOL    HW256620   1.167   2.903   4.441  2.7501  0.0577  0.7800
18205SOL     OW56621   6.395  10.361   1.021 -0.4715 -0.3337 -0.1767
18205SOL    HW156622   6.364  10.446   0.990  0.3669 -0.5441 -1.6940
18205SOL    HW256623   6.323  10.301   1.003 -0.8783 -0.0473  0.4543
18206SOL     OW56624   4.664   3.452   1.832  0.6684 -0.1875 -0.0458
18206SOL    HW156625   4.618   3.432   1.914 -1.3351  0.3736 -0.9589
18206SOL    HW256626   4.635   3.384   1.771  0.3843  0.6429 -0.8649
18207SOL     OW56627   2.518   1.984   9.223 -0.4127 -0.4798  0.7729
18207SOL    HW156628   2.478   2.069   9.241 -1.8143 -0.9522  0.0938
18207SOL    HW256629   2.585   2.002   9.157 -0.6396  0.1129  0.6997
18208SOL     OW56630   2.617   3.392   7.224  0.3587  0.5926  0.2824
18208SOL    HW156631   2.540   3.448   7.227 -0.0652  0.0323 -0.0620
18208SOL    HW256632   2.594   3.316   7.277  0.1572 -0.2108 -0.9146
18209SOL     OW56633   4.832   6.562  11.080  0.6210 -0.4718  0.2631
18209SOL    HW156634   4.880   6.482  11.061 -1.8276 -2.3210  1.3462
18209SOL    HW256635   4.805   6.553  11.171  0.3788  1.6594  0.4461
18210SOL     OW56636   8.633   2.733   9.594  0.4472 -0.5860  0.1484
18210SOL    HW156637   8.612   2.789   9.520  1.0026 -1.1039 -0.4216
18210SOL    HW256638   8.694   2.668   9.558  0.2658 -1.2028  0.9211
18211SOL     OW56639   7.456   1.099  10.567  0.0041  0.1609 -0.8315
18211SOL    HW156640   7.541   1.117  10.608 -0.3127  1.6285 -0.7718
18211SOL    HW256641   7.402   1.066  10.639  0.3716 -0.3425 -0.7739
18212SOL     OW56642   1.420   9.208   5.662  0.5949  0.2221  0.3114
18212SOL    HW156643   1.413   9.303   5.651  0.0937  0.0770 -0.6913
18212SOL    HW256644   1.401   9.172   5.576  1.8563 -0.7569  0.4061
18213SOL     OW56645   3.611   6.216  10.002  0.0284 -0.2611 -0.0710
18213SOL    HW156646   3.606   6.251   9.913 -1.1405  1.9168  0.7616
18213SOL    HW256647   3.562   6.134  10.000  2.1543 -1.5783 -1.9474
18214SOL     OW56648   1.498   1.841  10.914 -0.0324 -0.2002 -0.1297
18214SOL    HW156649   1.417   1.843  10.965 -0.3363 -1.0465 -0.5622
18214SOL    HW256650   1.486   1.769  10.853  1.0692 -0.3642 -0.1706
18215SOL     OW56651   5.298  10.544   4.749 -0.4828 -0.0005  0.2737
18215SOL    HW156652   5.303  10.451   4.772 -0.1762 -0.6505 -2.1281
18215SOL    HW256653   5.221  10.550   4.693 -0.3115  1.1211  0.1439
18216SOL     OW56654   9.897   1.823   8.638  0.4385  0.4116 -0.4750
18216SOL    HW156655   9.825   1.887   8.642  0.1247  0.2783 -2.7277
18216SOL    HW256656   9.976   1.876   8.636  0.2509  0.6773 -0.9581
18217SOL     OW56657   9.986   4.122   5.418  0.3346 -0.0464 -0.7528
18217SOL    HW156658   9.893   4.131   5.395  0.6132 -0.1895 -2.0305
18217SOL    HW256659  10.023   4.208   5.403  0.1187  0.4770  1.3818
18218SOL     OW56660   2.068   3.816   1.008  0.2076 -0.2381 -0.2632
18218SOL    HW156661   2.153   3.774   0.994  0.0070 -0.0553 -2.4368
18218SOL    HW256662   2.025   3.812   0.923 -0.6285  2.5941 -0.0926
18219SOL     OW56663  10.066   4.132   0.006  0.3434 -0.0255 -0.0820
18219SOL    HW156664  10.026   4.097  -0.074 -0.7427  1.0257 -0.0325
18219SOL    HW256665  10.157   4.105   0.001 -0.0362 -1.2628 -0.9333
18220SOL     OW56666   2.448   9.660   8.318  0.3378 -0.0454 -0.0317
18220SOL    HW156667   2.367   9.640   8.365  0.2139 -0.1277 -0.2776
18220SOL    HW256668   2.435   9.749   8.285  0.3031 -0.0977 -0.1609
18221SOL     OW56669   5.608   5.150   0.587  0.1686 -0.1927 -0.1832
18221SOL    HW156670   5.568   5.120   0.668  0.9378  0.0060  0.2890
18221SOL    HW256671   5.537   5.191   0.538  0.0290  1.3729  1.2258
18222SOL     OW56672   9.348   2.489  10.844  0.0456  0.3209 -0.3249
18222SOL    HW156673   9.423   2.546  10.861  1.2238 -1.1950 -0.2829
18222SOL    HW256674   9.301   2.486  10.927 -1.1613  2.7155 -0.8129
18223SOL     OW56675   1.261   4.167   4.551  0.1662 -0.0513  0.1726
18223SOL    HW156676   1.212   4.215   4.617  1.6397 -0.9386  1.9900
18223SOL    HW256677   1.276   4.081   4.590  2.4108 -0.0906 -0.6589
18224SOL     OW56678   3.282   5.104   5.854 -0.2759  0.6573 -0.3099
18224SOL    HW156679   3.348   5.056   5.804 -0.5501  0.8269 -0.8485
18224SOL    HW256680   3.330   5.143   5.926  0.0338 -0.0428 -0.1240
18225SOL     OW56681   7.877   0.044   1.846 -0.1489 -0.4712  0.1693
18225SOL    HW156682   7.788   0.081   1.845 -0.4702 -0.6581  4.5784
18225SOL    HW256683   7.933   0.118   1.870  1.6370  0.3829 -5.2175
18226SOL     OW56684   6.960   4.077   0.272  0.6546  0.3404 -0.4433
18226SOL    HW156685   7.010   3.997   0.285 -0.0361  0.0134  0.2751
18226SOL    HW256686   6.872   4.047   0.251 -0.2429  0.8563  2.2418
18227SOL     OW56687   4.747   4.252   7.549 -0.0981  0.5123  0.0536
18227SOL    HW156688   4.800   4.210   7.481  0.0160 -0.3094  0.6314
18227SOL    HW256689   4.718   4.335   7.510  2.7190  1.6531  0.1565
18228SOL     OW56690   2.689   4.153   9.324  0.0769 -0.1338 -1.0699
18228SOL    HW156691   2.733   4.077   9.286 -0.5639 -0.7698 -0.5722
18228SOL    HW256692   2.621   4.116   9.380  0.9039  0.7387  0.6133
18229SOL     OW56693   6.328   1.403   2.206  0.3633  0.3988  0.3078
18229SOL    HW156694   6.385   1.326   2.207  0.7268  0.6616 -0.0799
18229SOL    HW256695   6.338   1.441   2.294 -0.0502 -0.1619  0.6032
18230SOL     OW56696   4.965   2.300   6.255  0.1400 -0.2467 -0.1713
18230SOL    HW156697   4.937   2.211   6.276  1.1849  0.2245  4.1365
18230SOL    HW256698   4.927   2.354   6.324  0.8545  2.4562 -1.7323
18231SOL     OW56699   2.249   7.550   6.697  0.0377  0.3512  0.6345
18231SOL    HW156700   2.280   7.601   6.772 -1.2830  3.5712 -0.8280
18231SOL    HW256701   2.169   7.508   6.729  0.3151  0.4300  1.4648
18232SOL     OW56702   4.786   9.540   0.957 -0.0075  0.3053  0.9733
18232SOL    HW156703   4.757   9.448   0.957  0.5975  0.0736 -0.9628
18232SOL    HW256704   4.744   9.579   0.881  1.3002  1.1078  0.6298
18233SOL     OW56705   3.785   1.430   7.448 -0.0136  0.0427  0.0357
18233SOL    HW156706   3.874   1.456   7.424 -0.0711  0.8636  0.6705
18233SOL    HW256707   3.773   1.465   7.536 -1.2237  0.5849 -0.3313
18234SOL     OW56708  10.037   3.345   2.242 -0.0749  0.3158 -0.5427
18234SOL    HW156709   9.993   3.370   2.323  0.9754  0.6371 -0.0539
18234SOL    HW256710   9.972   3.364   2.174 -2.1453 -2.7414  0.3585
18235SOL     OW56711   2.731   9.355  10.872 -0.4878 -0.1338 -0.0531
18235SOL    HW156712   2.793   9.300  10.918  0.9810  1.4536 -0.0538
18235SOL    HW256713   2.731   9.321  10.782 -1.1664 -1.3816  0.3857
18236SOL     OW56714   3.358   9.172   3.835 -0.1197  0.1867 -0.2032
18236SOL    HW156715   3.436   9.214   3.871  0.0509 -0.9734  0.8553
18236SOL    HW256716   3.323   9.236   3.772  1.3106  0.9848 -0.2309
18237SOL     OW56717   1.259   5.298   1.285 -0.7976  0.1684 -0.2565
18237SOL    HW156718   1.293   5.322   1.371  0.2668  0.3398 -0.6975
18237SOL    HW256719   1.250   5.203   1.288 -1.3979  0.2417  0.2596
18238SOL     OW56720   9.634   6.563   0.677  0.1010  0.2305  0.2000
18238SOL    HW156721   9.600   6.608   0.599 -1.7579 -1.1035  0.1626
18238SOL    HW256722   9.566   6.499   0.699  0.4962  0.6260  3.0051
18239SOL     OW56723   9.018   2.120   9.895 -0.5065  0.0014 -0.2602
18239SOL    HW156724   9.069   2.185   9.847 -0.2462 -0.8197 -1.1206
18239SOL    HW256725   8.928   2.132   9.863 -0.6704  0.7136  0.4477
18240SOL     OW56726   8.943   7.840   8.501 -0.3182 -0.1077  0.5088
18240SOL    HW156727   9.029   7.871   8.528  0.3913 -0.6501 -1.0038
18240SOL    HW256728   8.937   7.752   8.538 -0.0892 -0.1819  0.3749
18241SOL     OW56729   6.552   3.257   1.016 -0.0704 -0.2516  0.0626
18241SOL    HW156730   6.529   3.257   0.924 -0.1754  1.0547  0.0782
18241SOL    HW256731   6.474   3.224   1.060  0.1862 -1.4548 -0.3399
18242SOL     OW56732   6.904   7.078   9.515  0.4622 -0.3496 -0.2141
18242SOL    HW156733   6.905   7.015   9.587 -0.1952  0.6665  0.7034
18242SOL    HW256734   6.811   7.095   9.499  0.6176 -0.1766 -0.9598
18243SOL     OW56735   3.045   3.954   0.631 -0.5339  0.1476 -0.3202
18243SOL    HW156736   3.063   3.865   0.660  1.4838  0.8539  0.7904
18243SOL    HW256737   3.061   3.952   0.537  0.3003 -0.4855 -0.1782
18244SOL     OW56738   8.014   0.540   9.578  0.2082  0.0168  0.0957
18244SOL    HW156739   8.078   0.482   9.535 -0.0437  0.6553 -1.1911
18244SOL    HW256740   7.931   0.494   9.570  0.3577 -0.4626  1.0965
18245SOL     OW56741   2.130   6.210   4.752  0.2280  0.4927  1.0006
18245SOL    HW156742   2.102   6.255   4.672 -1.1434  1.6183  2.0841
18245SOL    HW256743   2.168   6.278   4.807 -0.8238  0.1325  2.2015
18246SOL     OW56744   5.574   6.736   0.949 -0.2227  0.2028 -0.0032
18246SOL    HW156745   5.540   6.646   0.945 -0.3564  0.1854  1.0792
18246SOL    HW256746   5.597   6.757   0.859 -0.6735 -0.7337 -0.3556
18247SOL     OW56747   5.011   3.014   6.983 -0.6913 -0.3450 -0.1012
18247SOL    HW156748   4.979   2.961   6.910  2.5680 -1.1072 -1.1742
18247SOL    HW256749   4.984   2.966   7.061 -0.7179 -1.7851 -0.9630
18248SOL     OW56750   3.104  11.046   1.890 -0.9075 -0.3733  1.1718
18248SOL    HW156751   3.071  11.101   1.961 -1.6779  0.5371  0.1484
18248SOL    HW256752   3.038  10.977   1.881 -1.3546  0.1042  0.6792
18249SOL     OW56753   9.091   6.213   9.225  0.2550  0.2756  0.0387
18249SOL    HW156754   9.056   6.287   9.276 -1.5281 -0.0369 -0.6486
18249SOL    HW256755   9.148   6.254   9.160  0.5606  0.8980  0.6812
18250SOL     OW56756   2.461   8.600   9.105  0.0035 -0.0231 -0.8747
18250SOL    HW156757   2.509   8.672   9.064 -0.0907  0.3212 -0.4031
18250SOL    HW256758   2.524   8.560   9.165 -0.2527  0.3556 -0.3407
18251SOL     OW56759   5.502   3.225   4.362 -0.6410  0.2238  0.3551
18251SOL    HW156760   5.571   3.160   4.375  0.6615  1.0477 -1.9888
18251SOL    HW256761   5.433   3.178   4.314 -1.5834 -0.4556  2.2482
18252SOL     OW56762   5.428   0.985   2.733  0.2448  0.0904  0.1994
18252SOL    HW156763   5.470   0.901   2.711 -0.0503 -0.7180  2.4801
18252SOL    HW256764   5.469   1.011   2.815  1.0781  2.7773 -0.9763
18253SOL     OW56765   9.554   1.707   8.420 -0.0221 -0.1014 -0.0649
18253SOL    HW156766   9.494   1.671   8.355  0.2252 -1.1107  0.2497
18253SOL    HW256767   9.503   1.776   8.464 -0.6460 -0.3329 -0.4123
18254SOL     OW56768   0.812   8.113  10.960 -0.2596 -0.6951  0.4228
18254SOL    HW156769   0.788   8.201  10.932  0.0161 -0.0839  1.9517
18254SOL    HW256770   0.875   8.083  10.895 -1.2265 -0.2423 -0.7550
18255SOL     OW56771   0.082   0.359   7.023  0.2572 -0.2107  0.1828
18255SOL    HW156772   0.001   0.397   7.056 -0.2288  1.0156 -2.1854
18255SOL    HW256773   0.067   0.265   7.023 -0.7367 -0.0633  0.8237
18256SOL     OW56774   3.787   9.106  10.639 -0.1550 -0.0029 -0.1049
18256SOL    HW156775   3.881   9.107  10.653 -0.3567 -0.9822  1.6028
18256SOL    HW256776   3.776   9.074  10.549  1.1223 -0.3810 -0.1409
18257SOL     OW56777   3.540   6.924  10.704 -0.1184  0.1372 -0.5340
18257SOL    HW156778   3.581   6.841  10.679 -1.0021  0.0011 -1.5872
18257SOL    HW256779   3.505   6.960  10.622 -2.5745 -0.0261  0.3622
18258SOL     OW56780   0.910   1.183   1.328 -0.2950 -0.2648 -0.1198
18258SOL    HW156781   0.815   1.183   1.344 -0.5292 -0.3217 -1.3945
18258SOL    HW256782   0.942   1.106   1.376 -1.1298 -1.1191 -0.8888
18259SOL     OW56783   0.790   0.179   3.245 -0.1026  0.1350 -0.3243
18259SOL    HW156784   0.698   0.206   3.246 -0.1287  0.0544 -0.5404
18259SOL    HW256785   0.831   0.235   3.179 -0.1217 -0.2375 -0.6521
18260SOL     OW56786   2.900   9.659   8.536 -0.2613  0.6147 -0.0092
18260SOL    HW156787   2.901   9.630   8.627  0.0950  0.6631  0.0043
18260SOL    HW256788   2.839   9.733   8.536 -0.0328  0.8110  0.2573
18261SOL     OW56789   5.659   2.342   6.416  0.0522 -0.3881 -0.4750
18261SOL    HW156790   5.680   2.407   6.483 -0.0490 -1.3818  0.5457
18261SOL    HW256791   5.622   2.268   6.464 -1.7385 -0.4419 -1.7836
18262SOL     OW56792   5.535   2.189   1.788  0.5073 -0.8540  0.0362
18262SOL    HW156793   5.448   2.168   1.756  0.0488 -0.1421  0.7644
18262SOL    HW256794   5.520   2.231   1.873  1.5775 -1.0564  0.3444
18263SOL     OW56795   0.694   8.278   0.584 -0.1600 -0.4075 -0.6600
18263SOL    HW156796   0.686   8.224   0.505 -1.2979  0.0052 -0.8516
18263SOL    HW256797   0.762   8.342   0.562 -0.5391 -0.2294 -1.3542
18264SOL     OW56798   2.708   7.638   0.298  0.0214 -0.1647 -0.0220
18264SOL    HW156799   2.677   7.628   0.388 -1.0027 -1.6445 -0.5124
18264SOL    HW256800   2.727   7.732   0.290 -2.2900  0.4757  0.9967
18265SOL     OW56801   9.141   5.112   3.857 -0.1979 -0.6516  0.0783
18265SOL    HW156802   9.199   5.175   3.899  0.7655 -0.9316 -0.7909
18265SOL    HW256803   9.062   5.162   3.836 -0.2639 -0.2551  1.2353
18266SOL     OW56804   8.352   6.580  10.563  0.2111  0.4924 -0.2000
18266SOL    HW156805   8.277   6.601  10.618  0.9065  1.8771  0.2454
18266SOL    HW256806   8.374   6.489  10.586  0.1168  0.8505  1.3623
18267SOL     OW56807   3.137  10.454   4.751  0.1741 -0.3632  0.0594
18267SOL    HW156808   3.079  10.528   4.734 -1.2918 -1.4233  0.2707
18267SOL    HW256809   3.079  10.384   4.780  1.4954 -1.6816 -0.3448
18268SOL     OW56810   4.486   5.271   9.641 -0.7666 -0.5241 -0.3286
18268SOL    HW156811   4.548   5.321   9.694 -1.1611 -1.3296  0.9335
18268SOL    HW256812   4.400   5.306   9.664 -1.0293 -1.5903  0.3793
18269SOL     OW56813   9.751   5.402   4.778  0.9286  0.5627 -0.0323
18269SOL    HW156814   9.840   5.388   4.811  0.7530  0.1496  0.2788
18269SOL    HW256815   9.718   5.476   4.829 -0.3368 -1.7289  2.8503
18270SOL     OW56816   9.555   5.819   9.715 -0.1454 -0.2832  0.6070
18270SOL    HW156817   9.616   5.873   9.765  0.3520  0.8207 -1.1165
18270SOL    HW256818   9.607   5.788   9.640 -1.4595 -0.0081 -0.4462
18271SOL     OW56819   2.298   9.340   3.471  0.1923 -0.0483 -0.0673
18271SOL    HW156820   2.301   9.424   3.516 -1.3227 -0.2370  0.4303
18271SOL    HW256821   2.389   9.308   3.475  0.2675  0.2436  2.2902
18272SOL     OW56822   6.168   4.476   3.456  0.2985  0.0408  0.2588
18272SOL    HW156823   6.211   4.461   3.372 -0.4079 -1.1377  0.0927
18272SOL    HW256824   6.239   4.469   3.520  0.3325 -2.5046  0.0481
18273SOL     OW56825   7.316  10.550   0.807 -0.2647  0.2655  0.5337
18273SOL    HW156826   7.238  10.553   0.863 -1.9546  1.1437 -1.7058
18273SOL    HW256827   7.347  10.460   0.813 -0.5831  0.2424  2.5452
18274SOL     OW56828   3.475   1.786   2.512  0.6090  0.6546 -0.3356
18274SOL    HW156829   3.444   1.871   2.543  1.5540  0.4856  1.2100
18274SOL    HW256830   3.467   1.728   2.588  1.8783 -0.1200 -0.7567
18275SOL     OW56831   1.089   1.380   3.514 -0.2701 -0.1688  0.1619
18275SOL    HW156832   1.141   1.400   3.436  0.2185  0.3538  0.6048
18275SOL    HW256833   1.000   1.370   3.482  0.1055 -1.1470 -0.6294
18276SOL     OW56834   2.073   2.914   0.971  0.2525  0.2391 -0.4611
18276SOL    HW156835   2.048   2.903   0.879  0.6049 -0.4999 -0.4733
18276SOL    HW256836   2.109   3.003   0.976 -1.6589  1.0844 -0.5928
18277SOL     OW56837   3.292   5.022   9.167  0.2516 -0.1476  0.0273
18277SOL    HW156838   3.382   4.997   9.146 -0.0728 -0.7503 -0.6668
18277SOL    HW256839   3.273   5.097   9.110  0.3518  0.0730  0.2770
18278SOL     OW56840   6.144   6.017   1.786  0.6302 -0.0753 -0.0598
18278SOL    HW156841   6.075   6.051   1.842  0.2830 -1.7882  0.6275
18278SOL    HW256842   6.122   6.049   1.698 -0.4012  0.3218  0.3367
18279SOL     OW56843   8.123   5.648   5.860  0.7778  0.0606  0.6585
18279SOL    HW156844   8.081   5.658   5.945  0.2824 -0.0835  0.4335
18279SOL    HW256845   8.196   5.587   5.876  0.5144 -0.1895  0.9199
18280SOL     OW56846   2.644   5.723   8.297 -0.4229 -0.1668  0.4897
18280SOL    HW156847   2.657   5.818   8.297 -0.9361 -0.0904  0.8049
18280SOL    HW256848   2.550   5.712   8.313 -0.1136 -0.7544  2.0383
18281SOL     OW56849   3.262   6.928   0.170 -0.1651 -0.1116 -0.2637
18281SOL    HW156850   3.170   6.954   0.174 -0.4917 -1.3444  2.3341
18281SOL    HW256851   3.310   7.010   0.162 -1.4463  0.6692 -0.1743
18282SOL     OW56852   9.120  10.014  10.828  0.0289 -0.2586 -0.0351
18282SOL    HW156853   9.187   9.997  10.762  0.6320 -1.9660  0.9445
18282SOL    HW256854   9.151   9.969  10.906 -2.1612 -0.9619  0.5153
18283SOL     OW56855   1.315   9.464   2.950  0.5043  0.0566 -0.2219
18283SOL    HW156856   1.361   9.500   2.874  0.9422 -1.0538 -0.5084
18283SOL    HW256857   1.275   9.540   2.993  0.3190  0.7108 -1.5105
18284SOL     OW56858  10.489   9.838   9.278  0.1907 -0.3231  0.1545
18284SOL    HW156859  10.554   9.794   9.334 -0.3604  0.9001  1.8407
18284SOL    HW256860  10.534   9.917   9.248  0.2379 -0.6245 -0.5973
18285SOL     OW56861   2.656  11.068   1.113  0.5269  0.0662 -0.1518
18285SOL    HW156862   2.751  11.075   1.105  0.4748 -0.8409 -1.8986
18285SOL    HW256863   2.642  10.999   1.178  1.0501 -0.1421 -0.2604
18286SOL     OW56864   1.465   6.538   9.730  0.0729  0.0080 -0.5011
18286SOL    HW156865   1.511   6.454   9.739  0.0369 -0.0580 -0.8805
18286SOL    HW256866   1.534   6.601   9.710  0.2587  0.3130  1.0373
18287SOL     OW56867   5.644   3.655   0.142  0.4131 -0.4877 -0.5556
18287SOL    HW156868   5.646   3.700   0.227 -0.2772 -0.5313 -0.5112
18287SOL    HW256869   5.635   3.563   0.164 -0.5163 -0.4319 -0.6863
18288SOL     OW56870   8.049   5.335   5.954 -0.3751 -0.3816 -0.2718
18288SOL    HW156871   8.119   5.328   5.890  0.3191 -0.8566  0.5243
18288SOL    HW256872   8.093   5.354   6.037 -1.3057  0.9911 -0.0450
18289SOL     OW56873   2.378   1.770   6.438 -0.1443 -0.3551  0.1533
18289SOL    HW156874   2.365   1.691   6.490 -1.4485 -0.4111 -0.2244
18289SOL    HW256875   2.331   1.754   6.357  0.7321  0.2757 -0.5041
18290SOL     OW56876   6.407   4.803   9.695  0.3991 -0.5384  0.0880
18290SOL    HW156877   6.417   4.893   9.724 -0.5227 -0.6235  0.6775
18290SOL    HW256878   6.469   4.795   9.622  0.3645  0.6113 -0.0807
18291SOL     OW56879   6.241   4.144   0.293 -0.2148 -0.1788 -0.0448
18291SOL    HW156880   6.261   4.050   0.287 -1.3694 -0.4578  0.2739
18291SOL    HW256881   6.304   4.177   0.357 -1.4312 -1.2522  1.7950
18292SOL     OW56882   1.650   3.530   0.413  0.0116 -0.6707  0.1749
18292SOL    HW156883   1.576   3.550   0.470  0.6201 -0.8054  1.0201
18292SOL    HW256884   1.669   3.612   0.368 -3.0419 -1.4174 -2.9832
18293SOL     OW56885   7.123   1.877   4.310 -0.0152 -0.8681  0.1833
18293SOL    HW156886   7.175   1.946   4.269  0.7776 -1.1283  0.7413
18293SOL    HW256887   7.182   1.836   4.372 -0.2645 -2.5130 -0.6310
18294SOL     OW56888   3.341   2.901   9.112  0.1949  0.0071  0.0114
18294SOL    HW156889   3.308   2.991   9.121 -1.2106 -0.3494 -1.1001
18294SOL    HW256890   3.403   2.905   9.039 -0.6038 -0.0765 -0.6928
18295SOL     OW56891   6.721  10.826   0.693 -0.0509  0.1347  0.1341
18295SOL    HW156892   6.739  10.883   0.768  1.1542  0.3077 -0.2755
18295SOL    HW256893   6.712  10.739   0.731 -0.5961  0.3894  0.6088
18296SOL     OW56894   4.946   9.587  10.905 -0.7061 -0.2437  0.2948
18296SOL    HW156895   4.938   9.673  10.946  1.2857 -0.5537  1.5066
18296SOL    HW256896   4.932   9.525  10.977 -0.2787 -0.8782 -0.1577
18297SOL     OW56897   8.871   7.981   8.267 -0.1951  0.7771  0.0808
18297SOL    HW156898   8.784   7.947   8.285  0.4363 -2.1270 -1.7223
18297SOL    HW256899   8.922   7.960   8.345 -1.1775  3.2603  1.5144
18298SOL     OW56900   3.487   9.037   1.771 -0.3359 -0.0902 -0.0413
18298SOL    HW156901   3.561   9.023   1.713 -0.7466 -0.2020 -0.5406
18298SOL    HW256902   3.519   9.101   1.835  1.1440 -2.2551  1.5259
18299SOL     OW56903   4.451   5.728   7.325 -0.2643  0.2002 -0.0748
18299SOL    HW156904   4.371   5.778   7.305 -0.6596 -0.3189  0.1788
18299SOL    HW256905   4.505   5.789   7.376 -0.0278  0.9146 -1.1507
18300SOL     OW56906   5.711   2.777   2.073 -0.6596 -0.4717 -0.5791
18300SOL    HW156907   5.669   2.850   2.118 -1.4992  0.6253 -2.9340
18300SOL    HW256908   5.787   2.816   2.029  0.2694 -1.5312  0.0409
18301SOL     OW56909   0.603   8.600   8.072 -0.2014 -0.6488  0.5794
18301SOL    HW156910   0.605   8.612   8.167  0.3962  1.5154  0.3432
18301SOL    HW256911   0.684   8.640   8.041 -1.3185  0.5383 -0.9884
18302SOL     OW56912   9.980   7.584   1.404 -0.2494 -0.3264  0.3120
18302SOL    HW156913   9.981   7.620   1.493 -0.9785  0.7284 -0.0835
18302SOL    HW256914  10.045   7.636   1.357 -2.5632  1.8239 -0.7270
18303SOL     OW56915   2.755   0.433   9.923 -0.4684 -0.3687 -0.0631
18303SOL    HW156916   2.744   0.420   9.829 -0.8672 -1.0789  0.0743
18303SOL    HW256917   2.667   0.455   9.955 -0.0922  1.2405 -0.0509
18304SOL     OW56918   6.915   9.088   4.748 -0.6356  0.3029  0.3102
18304SOL    HW156919   6.934   9.118   4.837 -0.1656 -0.9726  0.6502
18304SOL    HW256920   6.832   9.131   4.727 -0.1940  1.5173  0.9195
18305SOL     OW56921   9.757   4.365   0.966 -0.2274  0.1922  0.3665
18305SOL    HW156922   9.822   4.296   0.950 -0.3332  0.5768 -2.2686
18305SOL    HW256923   9.679   4.319   0.996  0.7460 -0.4285  2.0667
18306SOL     OW56924   8.950   4.830  11.005  0.1901 -0.0431 -0.0221
18306SOL    HW156925   8.987   4.900  10.952  2.8858  0.9421  2.8695
18306SOL    HW256926   9.000   4.752  10.979 -1.3402 -0.5130 -1.7237
18307SOL     OW56927   0.386   2.294   7.199 -0.3995  0.1349  0.9685
18307SOL    HW156928   0.456   2.278   7.262 -0.7645  1.1463  1.6404
18307SOL    HW256929   0.305   2.286   7.250 -0.6632  1.9827  0.8809
18308SOL     OW56930   1.647   2.046   6.966 -0.2387  0.1442 -0.4170
18308SOL    HW156931   1.731   2.053   6.919 -0.8978  0.7641 -1.5434
18308SOL    HW256932   1.581   2.040   6.897 -1.0001 -2.9103  0.4268
18309SOL     OW56933   8.341   9.997   5.258 -0.4351  0.0263 -0.0761
18309SOL    HW156934   8.386   9.957   5.184 -3.8070 -0.4165 -2.0899
18309SOL    HW256935   8.370  10.089   5.257  2.0162 -0.6754  0.1969
18310SOL     OW56936   0.740   9.308   2.607 -0.0813 -0.0380 -0.0089
18310SOL    HW156937   0.711   9.238   2.665  0.0633 -0.0746  0.0185
18310SOL    HW256938   0.827   9.331   2.639 -0.2394  0.3441  0.1592
18311SOL     OW56939   5.404   3.911   9.987  0.1269 -0.5309  0.1139
18311SOL    HW156940   5.372   3.820   9.986 -1.1561 -0.0982  0.1735
18311SOL    HW256941   5.340   3.958  10.040  1.1344  0.2998  0.6087
18312SOL     OW56942   8.294   8.511  10.358  0.2607  0.1273 -0.3684
18312SOL    HW156943   8.372   8.566  10.354  0.5238 -0.1140  0.9750
18312SOL    HW256944   8.225   8.564  10.317  0.7922  0.9547 -0.2154
18313SOL     OW56945   1.227   0.196  10.014  0.2551 -0.2181 -0.2560
18313SOL    HW156946   1.239   0.288  10.036 -0.8861  0.1045 -0.8894
18313SOL    HW256947   1.215   0.152  10.099 -0.6692  0.4583 -0.0242
18314SOL     OW56948   9.930  10.697   8.268 -0.0571  0.2932  0.6127
18314SOL    HW156949   9.950  10.650   8.349 -1.3592  0.0600  0.8190
18314SOL    HW256950   9.933  10.630   8.200 -1.6969 -0.0828  0.8771
18315SOL     OW56951  10.553   0.995   4.685 -0.2893 -0.3744 -0.0585
18315SOL    HW156952  10.547   1.071   4.627  1.2832 -1.5376 -1.8765
18315SOL    HW256953  10.495   1.017   4.758 -1.5192  1.6555 -1.4980
18316SOL     OW56954   4.643   4.670  10.635  1.0606  0.0581  0.7460
18316SOL    HW156955   4.558   4.667  10.591  1.0846 -1.6640  0.7432
18316SOL    HW256956   4.691   4.739  10.590  0.7087 -0.9133 -1.2440
18317SOL     OW56957   1.433   4.529   4.178  0.2093  0.2925 -0.4795
18317SOL    HW156958   1.493   4.594   4.141 -0.5717  0.8800 -0.7414
18317SOL    HW256959   1.412   4.472   4.104  1.5835 -0.8287 -0.0543
18318SOL     OW56960   9.749   8.381   7.918 -0.1021  0.5151 -0.2491
18318SOL    HW156961   9.830   8.419   7.955  0.7536 -0.3454 -1.1873
18318SOL    HW256962   9.724   8.442   7.849  0.2062  0.3568 -0.5011
18319SOL     OW56963   5.983   1.262   2.528 -0.1106 -0.1670 -0.4150
18319SOL    HW156964   5.977   1.319   2.451 -0.2693  0.8422  0.3148
18319SOL    HW256965   5.898   1.220   2.534 -1.4805  2.4968  1.2036
18320SOL     OW56966   4.690   7.041   9.198 -0.7514 -0.2051  0.2250
18320SOL    HW156967   4.640   7.059   9.278  1.5387 -1.0205  1.9461
18320SOL    HW256968   4.760   7.107   9.199 -1.1442  0.2994 -1.5989
18321SOL     OW56969   4.374   8.144  10.440 -0.3729  0.3486 -0.2765
18321SOL    HW156970   4.467   8.131  10.460 -0.4546 -0.0636 -0.1642
18321SOL    HW256971   4.338   8.182  10.520 -0.3113  0.4689 -0.3054
18322SOL     OW56972   8.428   0.954   2.371  0.3185 -0.0519 -0.7005
18322SOL    HW156973   8.441   0.871   2.325  0.6654 -0.3975  0.0095
18322SOL    HW256974   8.448   0.934   2.462 -0.3116  0.6394 -0.4036
18323SOL     OW56975   2.336   3.028   1.225  0.4256  0.2484  0.9755
18323SOL    HW156976   2.358   2.966   1.155 -1.7506  0.3419  0.1386
18323SOL    HW256977   2.317   2.972   1.301  2.0578  0.1145  1.3223
18324SOL     OW56978   0.200  11.079   2.817  0.1373  0.6597  0.0071
18324SOL    HW156979   0.118  11.029   2.823  1.0807 -0.6915  2.8640
18324SOL    HW256980   0.171  11.170   2.805 -1.8055  0.2402  1.1179
18325SOL     OW56981   2.507  10.502   3.616 -0.0497 -0.1307 -0.0644
18325SOL    HW156982   2.464  10.417   3.624 -0.0452 -0.2659 -1.2562
18325SOL    HW256983   2.596  10.481   3.589 -0.0086  0.2502 -0.2307
18326SOL     OW56984   5.540  10.047  10.049 -0.7047  0.5859 -0.2771
18326SOL    HW156985   5.569  10.078   9.964  0.0740 -0.4750 -0.4132
18326SOL    HW256986   5.569   9.955  10.053  1.1113  1.1638  1.9316
18327SOL     OW56987   3.606   8.055   1.234 -0.2285  0.1569 -0.7416
18327SOL    HW156988   3.594   8.048   1.329 -1.6917  1.2040 -0.8221
18327SOL    HW256989   3.532   8.108   1.204  0.1027 -0.3162 -2.5047
18328SOL     OW56990   6.333   3.350   3.575  0.0131  0.0369 -0.0982
18328SOL    HW156991   6.270   3.421   3.588  2.5814  2.3024  1.1862
18328SOL    HW256992   6.303   3.305   3.497 -1.8268  2.5390 -0.9769
18329SOL     OW56993   0.349   2.678   1.611 -0.5318 -0.1332 -0.3529
18329SOL    HW156994   0.274   2.668   1.552 -0.5342 -0.7477 -0.2513
18329SOL    HW256995   0.418   2.716   1.557 -0.4175 -1.0254 -0.8530
18330SOL     OW56996   2.425   9.277   5.643  0.2941 -0.5994  0.0683
18330SOL    HW156997   2.378   9.205   5.685  0.1338 -1.0548 -0.8760
18330SOL    HW256998   2.511   9.275   5.684  1.2640 -3.1099 -1.7966
18331SOL     OW56999   7.136   0.296   1.914 -0.1592 -0.9395  0.2566
18331SOL    HW157000   7.125   0.215   1.864  0.3744 -0.3878 -0.7797
18331SOL    HW257001   7.230   0.303   1.929  0.2164  0.9448 -2.2503
18332SOL     OW57002   2.609   7.715   9.714  0.1743  0.3188 -0.0997
18332SOL    HW157003   2.607   7.700   9.809  0.5221 -0.2730 -0.1797
18332SOL    HW257004   2.653   7.799   9.704  1.4127 -0.2632  0.2080
18333SOL     OW57005   3.202   4.785   6.692 -0.3521  0.0104 -0.5605
18333SOL    HW157006   3.274   4.848   6.692  0.1495 -0.5462  0.2386
18333SOL    HW257007   3.231   4.715   6.634  0.2598 -0.7513  0.6226
18334SOL     OW57008   7.139   5.133   8.694  0.0695 -0.0322 -0.1807
18334SOL    HW157009   7.152   5.134   8.789  0.8103 -1.7161 -0.2451
18334SOL    HW257010   7.113   5.223   8.673 -1.4753  0.0613  1.7907
18335SOL     OW57011   2.461   1.544   9.710 -0.1680  0.0340 -0.0096
18335SOL    HW157012   2.425   1.595   9.782 -1.2787  0.4617 -0.8357
18335SOL    HW257013   2.386   1.496   9.675 -0.6814  2.8387 -3.3794
18336SOL     OW57014   2.760   8.455   1.371 -0.4115 -0.1984  0.0941
18336SOL    HW157015   2.732   8.524   1.311  1.8924  0.3267 -0.4526
18336SOL    HW257016   2.854   8.446   1.357 -0.5525 -3.3547  0.2656
18337SOL     OW57017   8.459   1.128   8.742  0.3545  0.5609 -0.0945
18337SOL    HW157018   8.471   1.195   8.809  1.2265 -0.3851  0.7517
18337SOL    HW257019   8.378   1.082   8.768 -0.7410  1.8065 -1.1774
18338SOL     OW57020   1.262   7.392   0.982 -0.2766 -0.0942  0.4576
18338SOL    HW157021   1.320   7.319   1.001  0.3116  0.3386  0.3634
18338SOL    HW257022   1.312   7.470   1.008 -0.8296  0.2845  0.4114
18339SOL     OW57023  10.495   0.322  10.041 -0.2992  0.5209  0.4483
18339SOL    HW157024  10.481   0.413  10.017 -0.7173  0.3592  0.0819
18339SOL    HW257025  10.421   0.275  10.003 -0.7294  0.1939  1.6486
18340SOL     OW57026   1.179   3.078   8.061  0.3443  0.0020 -0.5478
18340SOL    HW157027   1.243   3.129   8.011 -0.1766  1.1900 -0.0636
18340SOL    HW257028   1.113   3.143   8.087 -0.4301 -0.9727 -0.0364
18341SOL     OW57029   0.171   2.236   6.739  0.3185  0.0349  0.6401
18341SOL    HW157030   0.140   2.151   6.769  2.0066 -0.6381  0.6080
18341SOL    HW257031   0.250   2.253   6.792  0.8130  0.9006 -0.3363
18342SOL     OW57032   2.777   1.686   5.622  0.0366  0.6086 -0.2249
18342SOL    HW157033   2.785   1.595   5.649  1.0849  1.2865  1.9757
18342SOL    HW257034   2.859   1.706   5.577  0.6749  1.0020  1.0909
18343SOL     OW57035   0.352   3.663   4.290  0.0077  0.5764  0.2242
18343SOL    HW157036   0.313   3.742   4.327  0.4290  1.3829 -1.0061
18343SOL    HW257037   0.428   3.646   4.347 -0.1367  0.9990  0.5520
18344SOL     OW57038   1.604   7.106  10.186 -0.0041  0.5494 -0.7051
18344SOL    HW157039   1.529   7.159  10.158 -1.0114  1.9336  3.7370
18344SOL    HW257040   1.656   7.165  10.239  1.2852 -1.7852  0.7866
18345SOL     OW57041   3.852   2.752   0.951 -0.6039 -0.2787  0.3475
18345SOL    HW157042   3.938   2.711   0.942 -0.3290  0.2456  0.5641
18345SOL    HW257043   3.854   2.794   1.037 -0.9640 -0.0007  0.2236
18346SOL     OW57044   8.941   8.425   0.684 -0.1576  0.0877  0.7708
18346SOL    HW157045   9.010   8.394   0.626 -2.3289 -1.5821 -1.1115
18346SOL    HW257046   8.957   8.519   0.693  1.3431  0.0401 -0.9836
18347SOL     OW57047  10.476   6.271  10.372 -0.2062  0.7276 -0.2969
18347SOL    HW157048  10.433   6.241  10.292 -0.2986  0.9216 -0.3203
18347SOL    HW257049  10.419   6.241  10.443 -0.2380  0.7461 -0.3145
18348SOL     OW57050  10.254   3.571   2.475 -0.0475  0.5916 -0.8417
18348SOL    HW157051  10.195   3.644   2.460  0.8913  0.9367 -3.4031
18348SOL    HW257052  10.331   3.591   2.421  0.9337 -1.4813 -0.3231
18349SOL     OW57053   0.440  10.269   0.884  0.0931 -0.2406 -0.2351
18349SOL    HW157054   0.474  10.180   0.894 -2.2673 -1.1639  0.2019
18349SOL    HW257055   0.402  10.270   0.796 -1.4814 -0.2977  0.4122
18350SOL     OW57056   1.641   7.842   2.155 -0.4977  0.4222 -0.2432
18350SOL    HW157057   1.628   7.899   2.079  0.4415 -2.0066 -2.4260
18350SOL    HW257058   1.568   7.779   2.150 -0.6845  0.5039  1.1750
18351SOL     OW57059   3.492  10.245   0.244 -0.2081  0.5933 -0.0234
18351SOL    HW157060   3.500  10.150   0.243  3.2095  0.7066 -2.4304
18351SOL    HW257061   3.477  10.269   0.152 -1.3595  2.3979  0.5770
18352SOL     OW57062   3.794   6.839   7.081 -0.5787  1.0612 -0.1232
18352SOL    HW157063   3.703   6.812   7.068 -1.0366  1.3577  2.0443
18352SOL    HW257064   3.837   6.761   7.116  0.7143  0.1242 -3.4164
18353SOL     OW57065   1.776   6.705   3.238  0.1165 -0.4500  0.1335
18353SOL    HW157066   1.776   6.763   3.162  0.1088 -0.3579  0.2047
18353SOL    HW257067   1.719   6.633   3.212 -0.2831 -0.1725  0.2402
18354SOL     OW57068   7.736   8.147   8.166  0.1243 -0.2888 -0.1494
18354SOL    HW157069   7.704   8.151   8.076 -1.7626  1.9322  0.5160
18354SOL    HW257070   7.672   8.093   8.212  0.4469 -0.4718  0.0918
18355SOL     OW57071   6.637   0.203   8.788 -0.0394 -0.7293  0.0220
18355SOL    HW157072   6.648   0.115   8.825  1.3368 -0.1741  1.0144
18355SOL    HW257073   6.667   0.195   8.698 -1.9666 -1.7446 -0.5845
18356SOL     OW57074   5.368   0.667  10.201  0.5453 -0.3786 -0.1417
18356SOL    HW157075   5.365   0.578  10.165  2.6285 -0.6423  0.2194
18356SOL    HW257076   5.461   0.688  10.206  0.2350  0.8212  2.2125
18357SOL     OW57077   3.090  10.984   0.028  0.3224  0.5114 -0.1760
18357SOL    HW157078   3.115  10.893   0.042  0.5860  0.7872  1.4069
18357SOL    HW257079   3.172  11.028   0.004  0.6140  0.6687  1.0194
18358SOL     OW57080   2.306   8.229   8.836 -0.1889 -0.0543 -0.0675
18358SOL    HW157081   2.400   8.244   8.850  0.1081 -1.2962 -0.6623
18358SOL    HW257082   2.280   8.298   8.774  0.7098 -0.7021 -1.2031
18359SOL     OW57083   2.933   5.902   8.661  0.3116  0.0491  0.0180
18359SOL    HW157084   2.919   5.808   8.661  0.1221  0.0751  0.5208
18359SOL    HW257085   2.949   5.924   8.753  0.8891  0.4254 -0.1662
18360SOL     OW57086   0.137  10.655  10.961 -0.0981  0.9559  0.1414
18360SOL    HW157087   0.202  10.630  10.896  0.1536  0.3165  0.6227
18360SOL    HW257088   0.057  10.612  10.934  0.5695 -1.3420  1.5168
18361SOL     OW57089   0.431   2.658   7.532 -0.2306 -0.2182  0.1069
18361SOL    HW157090   0.500   2.717   7.562 -1.6593  0.2356  2.7682
18361SOL    HW257091   0.448   2.575   7.577 -0.0258 -0.9282 -1.2083
18362SOL     OW57092   1.076   1.988  10.064 -0.5124  0.3615 -0.6567
18362SOL    HW157093   1.079   1.983   9.968  0.4739  0.9601 -0.6783
18362SOL    HW257094   1.132   1.916  10.093 -1.6758 -0.4932 -0.4926
18363SOL     OW57095  10.512   5.564   0.535  0.5167 -0.1182 -0.7076
18363SOL    HW157096  10.544   5.601   0.618  0.5213 -1.9679  0.1623
18363SOL    HW257097  10.590   5.553   0.481  0.5897  0.5460 -0.7435
18364SOL     OW57098   9.504   4.857   1.907  0.0775 -0.7730  0.0293
18364SOL    HW157099   9.441   4.923   1.880 -0.0513 -0.9438 -0.0910
18364SOL    HW257100   9.538   4.821   1.825  2.2221  1.0752  0.0144
18365SOL     OW57101   1.736   0.780   6.849 -0.6157 -0.0806  0.4537
18365SOL    HW157102   1.667   0.808   6.789 -1.2788  2.8649  2.3850
18365SOL    HW257103   1.700   0.701   6.891 -0.8674 -1.1400 -1.6477
18366SOL     OW57104   4.387   4.157  10.523 -0.5098 -0.2084  0.5411
18366SOL    HW157105   4.437   4.238  10.536 -0.2273 -0.6908  2.8147
18366SOL    HW257106   4.406   4.131  10.433  1.0578  1.1375  0.4427
18367SOL     OW57107  10.864   6.790   8.653 -0.1328 -0.1191  0.3009
18367SOL    HW157108  10.830   6.788   8.742  1.3500 -0.0047  0.8945
18367SOL    HW257109  10.853   6.701   8.621  0.8065 -0.5833  1.2028
18368SOL     OW57110   8.651   0.901   0.958  0.1239 -0.2370  0.3994
18368SOL    HW157111   8.726   0.856   0.996  1.2479  0.6592 -0.6750
18368SOL    HW257112   8.680   0.991   0.945 -0.9464  0.0044 -0.5515
18369SOL     OW57113  10.585   7.343   7.889 -0.3842  0.3372  0.4722
18369SOL    HW157114  10.641   7.408   7.846 -0.9944  1.1649  0.9027
18369SOL    HW257115  10.523   7.395   7.941 -2.2024 -0.5076 -0.7438
18370SOL     OW57116   2.485   8.686   9.410  0.3760  0.1582  0.5378
18370SOL    HW157117   2.495   8.596   9.380 -0.3758  0.0185  0.6957
18370SOL    HW257118   2.422   8.681   9.482 -1.1243  1.0254 -0.6556
18371SOL     OW57119   2.920   7.544  10.419  0.3885  0.5089 -0.0416
18371SOL    HW157120   2.931   7.450  10.405 -0.2929  0.5039 -0.5502
18371SOL    HW257121   2.891   7.551  10.510 -0.2970  0.1739 -0.2315
18372SOL     OW57122   2.255   0.404   9.024  0.2830  0.4421  0.4463
18372SOL    HW157123   2.171   0.420   8.981  0.6400  2.4744  0.4063
18372SOL    HW257124   2.249   0.314   9.055 -1.3079  0.0408 -0.8868
18373SOL     OW57125   2.026   3.411   9.987 -0.1160 -0.0135 -0.3480
18373SOL    HW157126   2.024   3.501   9.952 -0.7491 -0.7082 -2.2396
18373SOL    HW257127   2.097   3.413  10.052  0.1195  1.7674 -0.5890
18374SOL     OW57128   7.755  10.619   6.861  0.1017  0.1119 -0.1871
18374SOL    HW157129   7.698  10.595   6.934  2.2349  0.0812  1.6014
18374SOL    HW257130   7.835  10.567   6.875  1.1237  1.1812 -1.7306
18375SOL     OW57131   2.651   6.075   7.829  0.2188  0.2892 -0.0610
18375SOL    HW157132   2.667   5.996   7.776 -0.2022  0.5223 -0.5541
18375SOL    HW257133   2.611   6.042   7.909  0.0692 -0.0085 -0.2546
18376SOL     OW57134   3.813   4.750   1.008 -0.7943 -0.1370 -0.0123
18376SOL    HW157135   3.847   4.683   0.950 -0.3360 -0.4914  0.6521
18376SOL    HW257136   3.841   4.723   1.096  0.5728  1.5979  0.1485
18377SOL     OW57137   7.403   4.958   0.201 -0.4798  0.2818  0.1839
18377SOL    HW157138   7.335   4.894   0.222 -0.1658 -0.1030  0.0300
18377SOL    HW257139   7.485   4.909   0.205 -0.3200  0.4290 -0.9762
18378SOL     OW57140   9.983   8.716   6.216 -0.4615  0.0782 -0.3741
18378SOL    HW157141   9.955   8.703   6.125  1.2757  0.6789 -1.0409
18378SOL    HW257142   9.978   8.811   6.229 -1.6680 -0.0810  0.5253
18379SOL     OW57143   9.036   2.304   2.252 -0.7739  0.3649 -0.2540
18379SOL    HW157144   9.114   2.289   2.307 -0.2828 -0.2843 -1.0930
18379SOL    HW257145   8.990   2.376   2.294  0.1827  0.6266  0.3736
18380SOL     OW57146   5.995   9.449   6.158 -0.2028  1.2718 -0.5598
18380SOL    HW157147   5.947   9.380   6.112 -0.5753  1.7667 -0.9374
18380SOL    HW257148   5.943   9.466   6.237  1.1317 -0.4976  0.7842
18381SOL     OW57149   9.820   4.830   3.410  0.1873  0.5325 -0.4883
18381SOL    HW157150   9.880   4.819   3.484 -0.7865 -2.7227  0.0016
18381SOL    HW257151   9.742   4.870   3.448  0.3265  0.4481 -0.1134
18382SOL     OW57152   4.360   3.019   7.143 -0.5049 -0.5488 -0.5960
18382SOL    HW157153   4.453   3.003   7.159 -1.0487 -1.8522  1.6543
18382SOL    HW257154   4.357   3.112   7.119  1.2971 -0.2082  0.2366
18383SOL     OW57155   5.834   8.380   9.344 -1.0626 -0.4290  0.0331
18383SOL    HW157156   5.785   8.446   9.394  2.4270  1.3940  1.4249
18383SOL    HW257157   5.805   8.297   9.381 -1.4145  0.6776  2.4653
18384SOL     OW57158   9.067   2.643   3.223  0.3115 -0.0223  0.5261
18384SOL    HW157159   9.153   2.649   3.183  0.5938  1.7121  1.3028
18384SOL    HW257160   9.051   2.730   3.259 -1.3755 -0.5653  1.2008
18385SOL     OW57161   1.683   3.359   2.113  0.3233 -0.5714 -0.6286
18385SOL    HW157162   1.673   3.303   2.190  1.8745 -2.2139 -1.5308
18385SOL    HW257163   1.777   3.356   2.093  0.0678  0.3497 -2.1895
18386SOL     OW57164   8.113   9.270   2.649 -0.0744 -0.4622 -0.5638
18386SOL    HW157165   8.137   9.184   2.614 -0.5371 -0.8005 -0.0768
18386SOL    HW257166   8.120   9.259   2.744  3.1204  1.0028 -0.5217
18387SOL     OW57167   5.758  10.965  10.193 -0.5000  0.2781 -0.1829
18387SOL    HW157168   5.791  10.937  10.279 -0.7019  1.3394  0.2631
18387SOL    HW257169   5.793  11.054  10.182  1.7004 -0.7398 -2.3880
18388SOL     OW57170   8.939   5.064   4.393 -0.2211  0.4785  0.8183
18388SOL    HW157171   8.928   5.141   4.337 -1.2571 -0.2632 -0.0461
18388SOL    HW257172   8.989   5.096   4.468  1.1192  1.5336 -0.4627
18389SOL     OW57173   2.247   1.549   8.672 -0.1102  0.4522 -0.0334
18389SOL    HW157174   2.210   1.491   8.606  0.9512 -0.7866  0.4431
18389SOL    HW257175   2.319   1.594   8.628  0.0593  0.2564  0.0460
18390SOL     OW57176   4.006   2.044   7.944 -0.2179 -0.6483 -0.0759
18390SOL    HW157177   3.992   1.950   7.928 -1.1673 -0.4294 -0.6249
18390SOL    HW257178   3.933   2.086   7.899  0.3722  0.3778 -0.0855
18391SOL     OW57179   0.037   5.150   3.295 -0.1810  0.3772 -0.1006
18391SOL    HW157180  -0.004   5.082   3.241  0.9068 -0.3364 -0.0841
18391SOL    HW257181   0.131   5.129   3.291  0.2590  2.2336 -0.5652
18392SOL     OW57182   7.919   8.863  10.053 -0.1802  0.0524  0.4509
18392SOL    HW157183   7.955   8.913   9.980 -1.1292  0.4037  0.2063
18392SOL    HW257184   7.920   8.924  10.127 -1.5659  0.5502  0.0922
18393SOL     OW57185   4.704   3.711   6.156  0.7076 -0.4641  0.4293
18393SOL    HW157186   4.770   3.666   6.105  0.4033  1.5835 -1.9710
18393SOL    HW257187   4.754   3.765   6.218  1.3241  0.5720 -0.9240
18394SOL     OW57188   4.181   0.765   4.885  0.4228  0.4338  0.7436
18394SOL    HW157189   4.227   0.848   4.901  0.9284  0.6176 -1.3437
18394SOL    HW257190   4.184   0.755   4.790 -1.2438 -1.0811  0.8123
18395SOL     OW57191   5.218   1.198   5.495 -0.3266 -0.1078 -0.3607
18395SOL    HW157192   5.170   1.141   5.555 -0.0273 -0.6616 -0.6418
18395SOL    HW257193   5.285   1.239   5.550 -0.8907  0.4069 -0.0400
18396SOL     OW57194   5.445   0.346   6.364 -0.1490  0.3560  0.4212
18396SOL    HW157195   5.506   0.354   6.290 -0.0675  1.1726  0.5720
18396SOL    HW257196   5.443   0.252   6.382  1.7936  0.3795  0.9958
18397SOL     OW57197   4.578  10.809  10.358  0.5021 -0.0755  0.6697
18397SOL    HW157198   4.631  10.767  10.290 -0.1931 -2.8150  1.7055
18397SOL    HW257199   4.511  10.858  10.310  1.0191 -0.5618 -0.5951
18398SOL     OW57200   1.479   0.942   2.673 -0.2125  0.8186 -0.3891
18398SOL    HW157201   1.505   1.023   2.631 -2.1661  1.5443 -0.3069
18398SOL    HW257202   1.384   0.938   2.661 -0.2564 -1.1075  0.2183
18399SOL     OW57203   2.502   6.075  10.062 -0.0241  0.2760  0.4336
18399SOL    HW157204   2.575   6.137  10.050  0.1918 -0.1735 -0.6865
18399SOL    HW257205   2.468   6.095  10.149  1.5931  0.3397  1.0912
18400SOL     OW57206   8.537   5.016   5.153  0.1357  0.3175 -0.1522
18400SOL    HW157207   8.536   4.922   5.173 -4.3981 -0.1768 -1.5273
18400SOL    HW257208   8.547   5.021   5.058 -1.9945  0.9606 -0.3999
18401SOL     OW57209   3.018  10.607  10.416  0.1969 -0.2902 -0.6320
18401SOL    HW157210   3.008  10.610  10.320 -1.9225  0.7038 -0.4299
18401SOL    HW257211   3.043  10.696  10.440  0.8292 -0.5655 -0.2368
18402SOL     OW57212   3.319   3.672   3.224 -0.1508  0.1841  0.5304
18402SOL    HW157213   3.236   3.641   3.260  0.0374  0.3616  1.1254
18402SOL    HW257214   3.380   3.670   3.298  0.7622 -1.2786 -0.2132
18403SOL     OW57215   5.570   5.130   7.335  0.1387 -0.0695  0.3902
18403SOL    HW157216   5.542   5.210   7.380  0.8982  0.0697  0.6427
18403SOL    HW257217   5.665   5.127   7.350  0.2694 -0.4790 -0.4881
18404SOL     OW57218   5.538   4.809   3.166  0.3824  0.1058  0.7591
18404SOL    HW157219   5.475   4.750   3.125 -0.2065  1.7756 -0.8783
18404SOL    HW257220   5.552   4.878   3.101 -0.3031  2.7484  3.2345
18405SOL     OW57221   1.973   3.040   7.886 -0.2562  0.0843  0.1046
18405SOL    HW157222   1.896   3.045   7.942 -1.2501 -1.7492 -1.0059
18405SOL    HW257223   2.046   3.062   7.944 -1.3481 -0.6935  1.8643
18406SOL     OW57224   1.635   2.052   9.446 -0.1538 -0.3978 -0.1969
18406SOL    HW157225   1.595   2.020   9.526 -2.1524  0.6340 -0.7122
18406SOL    HW257226   1.652   2.145   9.463 -1.0468 -0.0507 -1.0861
18407SOL     OW57227  10.004   5.102   6.889  0.2445 -0.3352 -0.0307
18407SOL    HW157228  10.034   5.063   6.971  1.2176  1.9533  0.7871
18407SOL    HW257229  10.030   5.039   6.822 -1.8815 -2.9892  1.4282
18408SOL     OW57230   8.553   5.668   8.793  0.6084  0.1473 -0.0714
18408SOL    HW157231   8.563   5.577   8.766 -0.7500  0.4120 -1.5942
18408SOL    HW257232   8.582   5.719   8.718 -0.8953  0.9350 -0.1593
18409SOL     OW57233   6.562   9.638  11.075 -0.2662 -0.1277  0.2603
18409SOL    HW157234   6.603   9.714  11.116 -0.0006 -0.6346  0.9487
18409SOL    HW257235   6.474   9.635  11.112  0.3194 -1.2124  1.6736
18410SOL     OW57236   5.616   5.008   4.622 -0.4979  0.5340 -0.8911
18410SOL    HW157237   5.564   4.933   4.592 -0.4864 -0.0146  0.3901
18410SOL    HW257238   5.689   4.969   4.669 -0.2713  1.3479 -0.5578
18411SOL     OW57239   1.802  10.662   9.929  0.0616 -0.4157  0.5552
18411SOL    HW157240   1.854  10.582   9.936 -0.7838 -0.8300  3.0228
18411SOL    HW257241   1.850  10.726   9.982 -0.6741 -0.1135  0.8742
18412SOL     OW57242   7.524   6.557   4.387  0.1513 -0.0058 -0.0775
18412SOL    HW157243   7.490   6.493   4.325 -1.9349 -0.9595  1.8962
18412SOL    HW257244   7.477   6.638   4.366  0.3879  0.0293 -0.4952
18413SOL     OW57245   7.107   4.248   6.422 -0.0660  0.7746 -0.5446
18413SOL    HW157246   7.126   4.159   6.452  0.7979  1.6456  1.7984
18413SOL    HW257247   7.085   4.296   6.502 -1.5020  2.4615 -1.8647
18414SOL     OW57248   4.045   8.588   9.844 -0.4747  0.8564  0.1290
18414SOL    HW157249   4.081   8.505   9.876 -0.8251  0.9613  0.8218
18414SOL    HW257250   4.086   8.601   9.759  0.0207  0.2590  0.2689
18415SOL     OW57251   6.720   8.013   3.150  1.0089 -0.2376 -0.1722
18415SOL    HW157252   6.662   7.947   3.111 -1.2394  0.6164  1.5456
18415SOL    HW257253   6.746   8.068   3.076 -0.0961 -0.8494 -1.0534
18416SOL     OW57254   9.560   4.707   7.000  0.0602 -0.0725 -0.1527
18416SOL    HW157255   9.501   4.655   7.054  0.2005  0.2527  0.3118
18416SOL    HW257256   9.573   4.653   6.922  0.3616 -0.8306  0.4084
18417SOL     OW57257   3.288   2.404   3.470  0.0960  0.4142 -0.3217
18417SOL    HW157258   3.255   2.331   3.523 -0.3689  0.9348  0.1165
18417SOL    HW257259   3.294   2.368   3.381 -2.2062  0.4265 -0.5394
18418SOL     OW57260   3.100   7.109   1.857  0.4055  0.4787  0.0403
18418SOL    HW157261   3.127   7.019   1.876  1.0426  0.0871 -2.3237
18418SOL    HW257262   3.019   7.121   1.906 -1.1761 -2.3676 -1.5927
18419SOL     OW57263   2.758  10.965  10.103  0.0975 -0.5596 -0.1284
18419SOL    HW157264   2.720  10.978  10.190 -0.7736 -3.0118 -0.0699
18419SOL    HW257265   2.851  10.952  10.120 -0.4563 -4.3769  0.9770
18420SOL     OW57266   9.309   3.446   1.366  0.1169 -0.2229 -0.5354
18420SOL    HW157267   9.341   3.367   1.409  0.7094 -0.6287 -1.6858
18420SOL    HW257268   9.376   3.466   1.300  0.3322  1.6411  0.1904
18421SOL     OW57269   1.986   6.014   3.055  0.5742 -0.1948  0.3172
18421SOL    HW157270   2.017   6.038   3.142 -1.0807  2.6005  0.2636
18421SOL    HW257271   1.988   6.096   3.005 -2.8247 -0.6452 -0.8444
18422SOL     OW57272   3.170   4.272   3.141  0.0433  0.3834  0.3812
18422SOL    HW157273   3.087   4.313   3.164  0.1181  0.1799  1.0358
18422SOL    HW257274   3.236   4.319   3.192  0.3487  0.6272 -0.2312
18423SOL     OW57275   6.725   2.191   7.969  1.1423 -0.2897 -0.0425
18423SOL    HW157276   6.811   2.185   7.928  1.0771 -1.1375 -0.0700
18423SOL    HW257277   6.680   2.111   7.942  0.8141 -0.4795  1.0210
18424SOL     OW57278   3.809   3.636   0.176 -0.4927  0.2258 -0.1735
18424SOL    HW157279   3.746   3.589   0.121 -0.2221  0.4440 -0.6831
18424SOL    HW257280   3.763   3.650   0.259 -0.8629 -0.2256 -0.2969
18425SOL     OW57281   6.176   5.618   1.304  0.1056  0.3689  0.3520
18425SOL    HW157282   6.209   5.690   1.251 -1.3005 -0.2987 -1.5185
18425SOL    HW257283   6.231   5.620   1.383  2.0761  1.5999 -0.9541
18426SOL     OW57284   3.074   7.373   4.713 -0.2807 -0.2202 -0.2259
18426SOL    HW157285   3.150   7.379   4.771  0.1979  2.2646 -1.0162
18426SOL    HW257286   3.019   7.305   4.753  1.1432 -0.2678  1.7866
18427SOL     OW57287   5.497   3.582   5.996  0.7635 -0.3689 -0.7703
18427SOL    HW157288   5.463   3.626   5.917 -1.0596  1.8455  1.0959
18427SOL    HW257289   5.546   3.651   6.041 -0.7771 -0.6417  1.4564
18428SOL     OW57290   9.749  10.774   1.870 -0.6944  0.7712  0.6108
18428SOL    HW157291   9.807  10.820   1.931  0.7298  0.4560 -0.4331
18428SOL    HW257292   9.778  10.804   1.783  0.8067 -2.5333 -0.1833
18429SOL     OW57293   2.887   7.162   7.929 -0.0833  0.2759  0.7920
18429SOL    HW157294   2.964   7.216   7.945 -0.4479  1.5641 -1.4024
18429SOL    HW257295   2.914   7.101   7.861 -1.4853  2.0961 -1.5233
18430SOL     OW57296   6.527   2.326   1.762  0.1973  0.0904  0.7087
18430SOL    HW157297   6.510   2.418   1.783  0.4783  0.1066  0.8647
18430SOL    HW257298   6.440   2.287   1.753  0.0596  0.6076 -0.3927
18431SOL     OW57299   0.659   8.337   9.717 -0.1910  0.3333 -0.3844
18431SOL    HW157300   0.728   8.272   9.705 -0.1060  0.3658 -0.0685
18431SOL    HW257301   0.705   8.421   9.723 -0.3934  0.6853 -2.6895
18432SOL     OW57302   7.101  10.532   0.186  0.0937  0.0164 -0.2065
18432SOL    HW157303   7.076  10.487   0.105  2.8808 -1.8074 -0.1939
18432SOL    HW257304   7.094  10.465   0.254 -2.3388  1.5602  1.2051
18433SOL     OW57305   1.909   6.580   5.201 -0.7590  0.3529 -0.6561
18433SOL    HW157306   1.908   6.495   5.156 -1.4738  0.8749 -1.6619
18433SOL    HW257307   1.836   6.628   5.163 -1.4839  0.7925  1.1619
18434SOL     OW57308   8.727   5.023   1.184  0.4819 -0.0381 -0.2740
18434SOL    HW157309   8.807   5.009   1.133  0.4974  0.8970 -0.5232
18434SOL    HW257310   8.684   5.097   1.142 -0.6316 -0.6566 -0.2683
18435SOL     OW57311  10.573   0.475   1.038  0.1415  0.2027 -0.2874
18435SOL    HW157312  10.503   0.463   0.974 -0.2418 -0.5387  0.2659
18435SOL    HW257313  10.529   0.507   1.117  0.3628 -0.6687  0.1961
18436SOL     OW57314  10.324   2.772   2.000 -0.4344  0.6423  0.3478
18436SOL    HW157315  10.279   2.691   2.025 -0.2759 -0.2480 -1.9503
18436SOL    HW257316  10.276   2.803   1.923 -0.3824  2.6893  1.0734
18437SOL     OW57317   1.574   6.298   9.766  0.5098  0.1752  0.6377
18437SOL    HW157318   1.539   6.229   9.823  2.0346 -1.7385 -0.6164
18437SOL    HW257319   1.656   6.323   9.808  0.9685 -0.2765  0.0299
18438SOL     OW57320   2.366   6.605   6.331 -0.1797 -0.5296  0.1605
18438SOL    HW157321   2.306   6.679   6.340 -0.1162  0.0824 -3.1238
18438SOL    HW257322   2.443   6.629   6.382 -0.9845  0.6923  0.8412
18439SOL     OW57323   1.396   5.595   6.738  0.3495  0.3233  0.5055
18439SOL    HW157324   1.468   5.641   6.782  1.5408  1.8120 -2.6635
18439SOL    HW257325   1.437   5.515   6.705  0.5694  1.0530 -1.0850
18440SOL     OW57326   4.635   6.886   3.390  0.2115  0.3314 -0.2173
18440SOL    HW157327   4.659   6.978   3.382  0.8072  0.1003 -1.2576
18440SOL    HW257328   4.653   6.864   3.481 -0.8293  1.4711  0.2923
18441SOL     OW57329   5.229   1.437   1.554 -0.2802  0.3235  0.1874
18441SOL    HW157330   5.172   1.508   1.525 -0.4894  0.1239  0.1063
18441SOL    HW257331   5.170   1.370   1.588 -0.0241  0.6401  1.2807
18442SOL     OW57332   8.235   7.204   0.750  0.0180 -0.3686  0.0307
18442SOL    HW157333   8.330   7.220   0.751 -0.1591  0.7426  0.6227
18442SOL    HW257334   8.218   7.169   0.663  1.3768 -3.3511  0.8459
18443SOL     OW57335  10.875   3.748   1.790 -0.2672  0.2949  0.4805
18443SOL    HW157336  10.840   3.668   1.830  0.1276  0.6433  1.5464
18443SOL    HW257337  10.862   3.816   1.856 -1.4118  1.3267 -0.7492
18444SOL     OW57338   2.702   0.593   3.483  0.1578 -0.5162 -0.5359
18444SOL    HW157339   2.637   0.662   3.494  1.1422  0.4328 -0.5101
18444SOL    HW257340   2.695   0.541   3.563 -0.4666 -0.3377 -0.4697
18445SOL     OW57341   4.932   7.889   2.249 -0.2526  0.2025 -0.7241
18445SOL    HW157342   4.855   7.915   2.299 -1.1468  0.5305 -2.1975
18445SOL    HW257343   5.001   7.947   2.279 -0.8731  0.6858 -0.1902
18446SOL     OW57344   6.387  10.094   1.240  0.1567  0.1217  0.5921
18446SOL    HW157345   6.404  10.018   1.295  1.5209 -0.8601 -1.0826
18446SOL    HW257346   6.435  10.166   1.282 -1.5817  0.2682  2.4845
18447SOL     OW57347   2.801   6.346   9.015  0.3179 -0.3623 -0.4769
18447SOL    HW157348   2.825   6.431   8.978 -0.6713 -0.2351 -0.8525
18447SOL    HW257349   2.878   6.291   9.001  0.2305 -0.1157 -2.0949
18448SOL     OW57350  10.489   1.504   0.668 -0.1330  0.4765 -0.4829
18448SOL    HW157351  10.409   1.556   0.657  1.4670  2.7182 -2.8800
18448SOL    HW257352  10.488   1.444   0.593  0.6343  0.8555 -0.8039
18449SOL     OW57353   7.386   3.128  10.283 -0.0566  0.1674 -0.0941
18449SOL    HW157354   7.396   3.189  10.209 -0.4318  1.3204  0.7813
18449SOL    HW257355   7.417   3.177  10.359  1.0385 -1.2536  0.4399
18450SOL     OW57356   3.625   6.788   1.920  0.6484 -0.3350  0.2779
18450SOL    HW157357   3.582   6.873   1.932  0.7348 -0.2132 -0.2663
18450SOL    HW257358   3.648   6.760   2.009 -0.0527 -0.1397  0.5278
18451SOL     OW57359   3.832  10.385   2.364 -0.0882  0.1320 -0.1272
18451SOL    HW157360   3.831  10.291   2.379  1.0430 -0.5433 -3.5205
18451SOL    HW257361   3.740  10.410   2.358 -0.3903 -1.2076 -1.3832
18452SOL     OW57362   6.576  10.122   8.316  0.1054 -0.9391  0.2738
18452SOL    HW157363   6.582  10.197   8.376 -2.8198 -0.9162  0.6671
18452SOL    HW257364   6.665  10.086   8.314  0.8988  0.6673  2.5093
18453SOL     OW57365   5.529  10.835   0.862  0.4834  0.2297  0.3924
18453SOL    HW157366   5.477  10.808   0.787  0.3243  0.0574  0.5644
18453SOL    HW257367   5.499  10.923   0.883  2.0478  1.2056 -1.1244
18454SOL     OW57368   5.486   6.988   9.475 -0.5810  0.0758  0.3439
18454SOL    HW157369   5.406   7.010   9.523 -2.0626 -1.4085 -1.3457
18454SOL    HW257370   5.482   6.894   9.462  2.1909 -0.3013  1.4085
18455SOL     OW57371   0.271   9.546   5.730 -0.4183  0.4546  0.5047
18455SOL    HW157372   0.308   9.597   5.658  0.9901 -1.8579 -0.5336
18455SOL    HW257373   0.330   9.563   5.804 -0.2638  0.7372  0.3195
18456SOL     OW57374   3.858   9.418   0.758  0.5784  0.2784  0.1070
18456SOL    HW157375   3.812   9.466   0.689 -1.9989  1.6259  2.5640
18456SOL    HW257376   3.932   9.474   0.781 -0.3375  1.3479  0.5114
18457SOL     OW57377   4.909  10.128   8.608 -0.4027 -0.3530 -0.6408
18457SOL    HW157378   4.871  10.158   8.691 -1.5672  0.2605 -1.3710
18457SOL    HW257379   4.986  10.078   8.634 -2.2592 -2.5846  0.9776
18458SOL     OW57380   2.478   9.681   6.717 -0.5994  0.3620  0.3117
18458SOL    HW157381   2.427   9.610   6.677  0.5291  0.2522 -1.0012
18458SOL    HW257382   2.411   9.737   6.757 -1.5862 -0.8865  0.5043
18459SOL     OW57383   0.860   2.342   5.300  0.8721 -0.4177  0.2639
18459SOL    HW157384   0.782   2.301   5.265  0.6553 -0.9873  1.3508
18459SOL    HW257385   0.846   2.342   5.395  0.4990  2.9156  0.3209
18460SOL     OW57386   4.117   6.363   8.782 -0.1904 -0.7577 -0.7176
18460SOL    HW157387   4.057   6.349   8.709  0.0274  1.7661 -1.4781
18460SOL    HW257388   4.070   6.424   8.840  0.4490 -1.1228  0.2042
18461SOL     OW57389   5.585   9.634   9.644 -0.0669  0.2194  0.7013
18461SOL    HW157390   5.640   9.679   9.579  0.0489 -0.3169  0.4273
18461SOL    HW257391   5.633   9.645   9.727  0.3424 -0.0546  0.5022
18462SOL     OW57392   2.225   3.321   2.195  0.3196 -0.0566 -0.1085
18462SOL    HW157393   2.195   3.390   2.135  0.9650 -0.2940 -0.7175
18462SOL    HW257394   2.155   3.256   2.192 -0.3999  0.6545  0.6402
18463SOL     OW57395   4.843   3.341   2.545 -0.1258 -0.3433 -0.3279
18463SOL    HW157396   4.767   3.298   2.583  0.0722  0.5729  1.1680
18463SOL    HW257397   4.816   3.362   2.455 -0.3319 -3.2059 -1.0318
18464SOL     OW57398   4.248   7.172  10.038 -0.0278 -0.0275 -0.2301
18464SOL    HW157399   4.206   7.242  10.087 -0.7926  0.2780 -1.2787
18464SOL    HW257400   4.179   7.139   9.979  0.6503 -0.8566 -0.5808
18465SOL     OW57401   5.159   7.217   8.789 -0.3770  0.1759 -0.6350
18465SOL    HW157402   5.173   7.135   8.740 -1.6820  0.9092 -2.3432
18465SOL    HW257403   5.246   7.254   8.798  0.1712 -1.1130 -0.3372
18466SOL     OW57404   5.776   1.256   5.756 -0.3478  0.5026  0.0946
18466SOL    HW157405   5.782   1.254   5.660 -1.6070  1.2533 -0.0323
18466SOL    HW257406   5.866   1.251   5.786  0.1315  1.0954 -1.1649
18467SOL     OW57407   0.578   9.857   8.899  0.7392  0.1021 -0.3725
18467SOL    HW157408   0.529   9.865   8.817 -1.3137  1.4181  0.8952
18467SOL    HW257409   0.512   9.869   8.967  2.6249  0.4584  1.4671
18468SOL     OW57410   6.556   0.447   5.040 -0.6385  0.5977 -0.7165
18468SOL    HW157411   6.624   0.446   5.107 -0.7171  0.3241 -0.6418
18468SOL    HW257412   6.475   0.460   5.089 -0.8636 -1.0557 -0.6096
18469SOL     OW57413   0.568   4.409   4.423 -0.1765 -0.4350  0.3571
18469SOL    HW157414   0.500   4.474   4.443  0.5678  0.3742  0.3356
18469SOL    HW257415   0.550   4.384   4.333 -0.0230  0.3189  0.1064
18470SOL     OW57416   0.699   0.159   3.941 -0.0286 -0.6027  0.3133
18470SOL    HW157417   0.769   0.183   4.002  2.1675 -0.5070 -2.0207
18470SOL    HW257418   0.650   0.240   3.927  0.6313 -0.1589  0.5216
18471SOL     OW57419   3.261   2.627   6.339  0.4256  0.1720  0.1688
18471SOL    HW157420   3.212   2.555   6.380  0.1526 -0.3645 -1.0661
18471SOL    HW257421   3.331   2.584   6.291 -0.4251  0.6123 -1.5379
18472SOL     OW57422   6.730   0.688   1.134 -0.3220 -0.6161 -0.6207
18472SOL    HW157423   6.815   0.731   1.126  0.6791 -2.2327  0.7494
18472SOL    HW257424   6.674   0.735   1.072  0.8278  2.2055  0.3125
18473SOL     OW57425   8.111   9.991   0.622 -0.2588 -0.4705  0.0038
18473SOL    HW157426   8.137  10.028   0.537 -0.5850 -0.9207 -0.2978
18473SOL    HW257427   8.017   9.977   0.614 -0.6878  1.4234  1.2027
18474SOL     OW57428   2.669   5.527   3.240 -0.2437  0.4156  0.1159
18474SOL    HW157429   2.717   5.600   3.279  1.9414 -0.8717  0.0038
18474SOL    HW257430   2.588   5.521   3.291 -0.4275  2.8032  0.2006
18475SOL     OW57431   6.527   8.513   0.873  0.1738  0.3799 -0.0951
18475SOL    HW157432   6.511   8.606   0.859  0.6741  0.7391  1.4870
18475SOL    HW257433   6.612   8.497   0.831 -0.2335  0.4498 -0.9779
18476SOL     OW57434   6.671   4.369   0.288 -0.7267  0.1549 -0.3992
18476SOL    HW157435   6.629   4.340   0.207  0.5507 -2.2724 -0.3031
18476SOL    HW257436   6.760   4.333   0.282 -0.6881 -0.3695  2.1916
18477SOL     OW57437   8.775  10.711   9.462 -0.4671  0.1080 -0.0891
18477SOL    HW157438   8.755  10.782   9.524 -0.9764  0.4191 -0.5980
18477SOL    HW257439   8.689  10.686   9.426 -0.1583  0.0455 -0.7909
18478SOL     OW57440  10.325   4.730   7.463 -0.1730 -0.1056 -0.3944
18478SOL    HW157441  10.253   4.681   7.503 -1.5158  1.7012 -0.4524
18478SOL    HW257442  10.396   4.725   7.527 -1.5871  1.0132  1.3659
18479SOL     OW57443   3.284   7.715   4.917 -0.2542 -0.0043  0.1740
18479SOL    HW157444   3.199   7.692   4.955  0.9640 -2.2431  1.7661
18479SOL    HW257445   3.317   7.784   4.975 -0.2442 -0.3814  0.6238
18480SOL     OW57446  10.243   6.670   1.651  0.3275 -0.3436  0.3179
18480SOL    HW157447  10.158   6.625   1.643 -0.3449  0.8277  0.5790
18480SOL    HW257448  10.306   6.609   1.613 -0.7190 -0.9932 -0.4486
18481SOL     OW57449   2.988   2.377   8.550  0.3919  0.0042  0.0426
18481SOL    HW157450   2.952   2.335   8.472 -2.6009  1.9327  0.2306
18481SOL    HW257451   3.017   2.463   8.520  1.2855 -0.0689  0.6582
18482SOL     OW57452   1.258   6.866   9.362  0.1146  0.2441  0.5652
18482SOL    HW157453   1.322   6.795   9.362 -0.8861 -0.6880  0.4225
18482SOL    HW257454   1.276   6.915   9.282  0.9869  0.3239  0.8003
18483SOL     OW57455   7.054   5.688   3.111  0.3430 -0.7055 -0.5760
18483SOL    HW157456   6.964   5.706   3.081  1.3317  0.8077 -2.9710
18483SOL    HW257457   7.060   5.732   3.196 -0.9835 -0.1929 -0.7231
18484SOL     OW57458   9.337   5.338   3.666 -0.2040  0.1629 -0.4511
18484SOL    HW157459   9.314   5.428   3.689 -0.3002 -0.2304  1.0772
18484SOL    HW257460   9.401   5.347   3.595  1.1452  1.5039  0.8576
18485SOL     OW57461   4.605  10.918   1.219  0.0645 -0.3024 -0.2501
18485SOL    HW157462   4.667  10.964   1.275  0.0176 -0.7053  0.1419
18485SOL    HW257463   4.653  10.902   1.138  0.1181  0.3222 -0.3463
18486SOL     OW57464   5.317   0.341   3.251  0.0476  0.0635 -0.1325
18486SOL    HW157465   5.256   0.343   3.324  1.6748 -1.3441  1.3450
18486SOL    HW257466   5.318   0.250   3.222  0.1761  0.4078 -1.2866
18487SOL     OW57467   3.755   0.364  10.747 -0.3210  0.4567 -0.4808
18487SOL    HW157468   3.757   0.300  10.676  0.2340  1.9704 -1.8936
18487SOL    HW257469   3.846   0.373  10.774 -0.4580  0.3141  0.0449
18488SOL     OW57470   2.632   1.812   1.130  0.4049 -0.9138  0.3241
18488SOL    HW157471   2.716   1.841   1.166  0.5554 -3.3168  2.1835
18488SOL    HW257472   2.566   1.853   1.186  0.4571 -1.0611  0.4951
18489SOL     OW57473   3.205   0.293   5.767  0.6086 -0.1776 -0.2880
18489SOL    HW157474   3.193   0.268   5.859  1.3731 -1.6130 -0.5568
18489SOL    HW257475   3.199   0.211   5.719 -2.0035  0.7913 -1.8052
18490SOL     OW57476   8.591   2.386   4.668  0.0559 -0.2076 -0.8244
18490SOL    HW157477   8.603   2.292   4.657 -1.8912 -0.7353  0.9493
18490SOL    HW257478   8.596   2.400   4.763 -0.6014  1.3367 -0.9945
18491SOL     OW57479   0.836  10.361   2.023  0.6990 -0.7182  0.2375
18491SOL    HW157480   0.929  10.382   2.021  0.4744  0.3393  0.2266
18491SOL    HW257481   0.793  10.439   1.989 -0.2197 -1.0224  0.6659
18492SOL     OW57482   6.173   8.835   3.036 -0.1758  0.2356  0.3563
18492SOL    HW157483   6.097   8.827   3.093 -1.5652  0.3431 -1.3897
18492SOL    HW257484   6.138   8.825   2.947  1.8468  0.3097 -0.5176
18493SOL     OW57485   8.774   0.000   2.205  0.3056  0.3571 -0.2688
18493SOL    HW157486   8.714   0.018   2.133  2.6664  0.7537 -2.2795
18493SOL    HW257487   8.846  -0.049   2.165  0.8089 -1.1481  2.2501
18494SOL     OW57488   4.019   2.476   2.333  0.4821  0.0519 -0.0996
18494SOL    HW157489   4.089   2.541   2.332  0.4668  0.0653 -0.2405
18494SOL    HW257490   4.064   2.393   2.351  0.4714  0.1352  0.3358
18495SOL     OW57491   7.632   7.551   8.698 -0.3410 -0.0767 -0.2008
18495SOL    HW157492   7.571   7.610   8.743  2.2463  2.2261  0.5265
18495SOL    HW257493   7.635   7.583   8.608  0.4991  0.4885  0.0125
18496SOL     OW57494   7.383   9.053   6.238 -0.3501 -0.1300  0.0878
18496SOL    HW157495   7.408   9.026   6.327 -2.2378 -0.6644  0.5024
18496SOL    HW257496   7.463   9.091   6.201  0.0232  2.0260  2.7418
18497SOL     OW57497   3.588   5.006   0.285 -0.2705 -0.1458 -0.1372
18497SOL    HW157498   3.519   4.985   0.348 -1.2788  1.2916 -0.6913
18497SOL    HW257499   3.641   5.073   0.329  0.4890 -0.8953  0.0998
18498SOL     OW57500   7.239   1.729   1.684 -0.3204  0.0336  0.4963
18498SOL    HW157501   7.304   1.669   1.648  0.1576 -0.7310  2.4768
18498SOL    HW257502   7.289   1.806   1.711 -0.4394  0.0257  0.7455
18499SOL     OW57503   0.589   7.840   2.456 -0.0484 -0.0705  0.0263
18499SOL    HW157504   0.546   7.880   2.532  0.1142 -1.3390  0.8236
18499SOL    HW257505   0.581   7.746   2.472 -0.2917 -0.3704 -1.7081
18500SOL     OW57506   7.910   5.865   2.591  0.2522  0.4664  0.1016
18500SOL    HW157507   7.860   5.812   2.530  0.5259  1.7844 -1.3327
18500SOL    HW257508   7.976   5.909   2.537  0.4222  1.7707  1.3013
18501SOL     OW57509   6.326   4.180   2.323  0.7960  0.1885 -0.2582
18501SOL    HW157510   6.347   4.214   2.410  0.9439 -1.0080  0.1945
18501SOL    HW257511   6.411   4.163   2.282  0.7302 -0.6575 -0.0564
18502SOL     OW57512   8.048   7.886   2.629 -0.1882  0.5427  0.0434
18502SOL    HW157513   8.000   7.881   2.711 -1.2676  0.4629 -0.5786
18502SOL    HW257514   7.986   7.926   2.567 -1.1549 -3.5117 -1.9788
18503SOL     OW57515   3.321   4.847   3.069  0.2751 -0.3932 -0.0071
18503SOL    HW157516   3.378   4.914   3.106  1.2412 -1.2661  0.1216
18503SOL    HW257517   3.380   4.776   3.043 -0.7781 -1.4549  0.4134
18504SOL     OW57518   7.245   0.074   1.581 -0.0268 -0.3212  0.2233
18504SOL    HW157519   7.198   0.010   1.528 -2.2888  2.0071 -0.8174
18504SOL    HW257520   7.217   0.055   1.671 -3.4716  1.1167 -0.3562
18505SOL     OW57521   3.851   0.996  10.490 -0.3666 -0.1753  0.0289
18505SOL    HW157522   3.839   0.903  10.476 -1.6012  0.1662 -1.4621
18505SOL    HW257523   3.776   1.023  10.543 -0.2161  0.0415  0.1338
18506SOL     OW57524   4.595   3.980   2.022  0.2224  0.2671  0.5090
18506SOL    HW157525   4.504   3.992   2.046  0.0467  2.4697 -0.9120
18506SOL    HW257526   4.599   4.006   1.929  1.7363 -2.8767 -0.4412
18507SOL     OW57527   9.860   3.608   2.686 -0.1177 -0.2292  0.0126
18507SOL    HW157528   9.922   3.569   2.748  1.0748 -0.7502 -1.4626
18507SOL    HW257529   9.791   3.644   2.742  2.2765  1.8794  1.8665
18508SOL     OW57530   2.379   6.962   4.220  0.5593 -1.1068  0.1261
18508SOL    HW157531   2.470   6.940   4.237  0.3915 -1.5180  0.5121
18508SOL    HW257532   2.377   7.057   4.219  1.1616 -1.0954 -0.8329
18509SOL     OW57533   0.222   8.308   9.900 -0.0250  0.0391  0.3388
18509SOL    HW157534   0.317   8.308   9.915 -0.0747 -0.2446  0.6700
18509SOL    HW257535   0.195   8.397   9.923  0.5742  1.0544 -2.5480
18510SOL     OW57536   9.486   3.673   9.472 -0.3709 -0.4473  0.2079
18510SOL    HW157537   9.461   3.734   9.403 -0.0004  0.2026  0.6401
18510SOL    HW257538   9.450   3.710   9.552  2.3965  0.8727  0.9731
18511SOL     OW57539   3.216   6.325   5.194  0.1237  0.3148 -0.5107
18511SOL    HW157540   3.294   6.316   5.140  0.1466 -1.4744 -0.2283
18511SOL    HW257541   3.249   6.339   5.283  0.0899  3.5048 -0.8642
18512SOL     OW57542   2.182   9.647   3.544 -0.3224  0.0781  0.2275
18512SOL    HW157543   2.246   9.705   3.585  0.9225 -0.9800 -0.1533
18512SOL    HW257544   2.104   9.656   3.597  0.0426  1.6268  0.5336
18513SOL     OW57545   4.871   4.051   7.947 -0.0237 -0.2628 -0.3093
18513SOL    HW157546   4.964   4.065   7.929  0.5193 -1.6785  1.1349
18513SOL    HW257547   4.853   4.106   8.024  0.0507 -1.2117  0.4006
18514SOL     OW57548   4.062   4.713   3.727  0.1279 -0.0746 -0.2160
18514SOL    HW157549   4.120   4.753   3.662 -0.6364 -1.9236 -2.1372
18514SOL    HW257550   4.027   4.788   3.777  0.7950  1.4238 -1.8866
18515SOL     OW57551   9.798  10.566   0.437  0.3940  0.5472 -0.0022
18515SOL    HW157552   9.750  10.603   0.363  1.1620 -0.1640 -0.8900
18515SOL    HW257553   9.888  10.558   0.405  0.2383 -2.2355  0.0563
18516SOL     OW57554   9.369   7.977   0.064 -0.0777  0.4054 -0.2284
18516SOL    HW157555   9.401   7.956   0.151  0.2913  0.7935 -0.2722
18516SOL    HW257556   9.419   8.053   0.036 -0.0170  0.1384 -0.8824
18517SOL     OW57557   7.003   3.850  10.772 -0.5562  0.1112  0.0741
18517SOL    HW157558   7.050   3.771  10.744 -0.0175  1.0490 -1.8189
18517SOL    HW257559   7.071   3.917  10.781 -1.1472  0.6629  0.5202
18518SOL     OW57560   3.747   4.677   7.740  0.3119 -0.1183  0.0435
18518SOL    HW157561   3.738   4.679   7.645  1.0002  2.0515 -0.0438
18518SOL    HW257562   3.658   4.675   7.773 -0.1561  2.8672 -0.7214
18519SOL     OW57563   5.396   7.562   1.559 -0.0511 -0.1186 -0.3137
18519SOL    HW157564   5.463   7.496   1.576 -0.8067 -0.1784  3.2056
18519SOL    HW257565   5.441   7.646   1.571 -0.3507 -0.1456  1.1483
18520SOL     OW57566   3.600   3.744   0.702 -0.3951 -0.4083  0.1718
18520SOL    HW157567   3.588   3.738   0.797  0.0478 -2.1640  0.1509
18520SOL    HW257568   3.534   3.685   0.665 -1.1962  0.9553 -0.7068
18521SOL     OW57569   1.397   2.494   4.603 -0.4151  0.5366 -0.5561
18521SOL    HW157570   1.463   2.493   4.672 -0.6764  1.4697 -0.2799
18521SOL    HW257571   1.315   2.472   4.647 -0.6325  1.4162 -0.4971
18522SOL     OW57572   3.608   6.487   2.543  0.1671 -0.0066 -0.4674
18522SOL    HW157573   3.569   6.400   2.547  0.3688 -0.0445  1.7583
18522SOL    HW257574   3.688   6.480   2.595 -0.2962  1.7263  0.5545
18523SOL     OW57575  10.200   5.426   8.560  0.5611 -0.4316 -0.6213
18523SOL    HW157576  10.281   5.470   8.586  0.8435 -0.6367 -1.1439
18523SOL    HW257577  10.210   5.409   8.467  0.8125 -2.3591 -0.2697
18524SOL     OW57578   7.792   0.255  10.334  0.4528 -0.6736  0.0044
18524SOL    HW157579   7.862   0.252  10.269 -0.3377 -1.1101 -0.8419
18524SOL    HW257580   7.819   0.192  10.401 -0.1779 -2.5727 -1.4364
18525SOL     OW57581   4.554   5.895   5.372 -0.0193 -0.3766  0.1129
18525SOL    HW157582   4.640   5.889   5.413 -0.1158 -2.3137  0.1570
18525SOL    HW257583   4.568   5.868   5.281 -0.4981 -0.3198  0.0185
18526SOL     OW57584   0.562   7.135   6.623  0.3696 -0.2332  0.0433
18526SOL    HW157585   0.527   7.129   6.712  0.8301 -2.2715  0.1347
18526SOL    HW257586   0.606   7.051   6.609  0.0650 -0.0746 -2.2070
18527SOL     OW57587   9.083  10.756   8.656  0.1186  0.1876 -0.0216
18527SOL    HW157588   9.170  10.776   8.691 -0.8437  0.9640  2.1022
18527SOL    HW257589   9.045  10.842   8.636 -0.0024 -0.1716 -1.4548
18528SOL     OW57590   1.494   5.975   3.955  0.0987  0.1561 -0.0685
18528SOL    HW157591   1.428   6.039   3.980  0.0148 -0.0062  0.1201
18528SOL    HW257592   1.445   5.899   3.925  0.1906 -0.1292  0.4795
18529SOL     OW57593   3.220   5.902   5.807 -0.1827  0.3323  0.1418
18529SOL    HW157594   3.166   5.904   5.886 -2.1704 -0.3908 -1.1330
18529SOL    HW257595   3.205   5.816   5.768 -1.1047  1.4527 -2.2055
18530SOL     OW57596   0.557   7.921   7.830  0.2241  0.3122  0.0561
18530SOL    HW157597   0.482   7.959   7.877  0.0476  0.3200 -0.2323
18530SOL    HW257598   0.565   7.833   7.867 -0.9823 -0.3165 -1.0653
18531SOL     OW57599   5.987   6.981   7.997 -0.0835  0.2471 -0.1886
18531SOL    HW157600   5.907   6.971   7.947 -0.8795  0.1609  1.0417
18531SOL    HW257601   6.031   6.897   7.991 -0.3525  0.1248 -0.4483
18532SOL     OW57602  10.243   5.147   7.646  0.2691 -0.5170  0.2710
18532SOL    HW157603  10.331   5.112   7.660 -0.0608 -1.5594 -0.1926
18532SOL    HW257604  10.258   5.233   7.606  1.0783 -0.5600  0.4526
18533SOL     OW57605   8.186   5.998   1.922  0.2367 -0.4313  0.7760
18533SOL    HW157606   8.156   6.005   2.012 -1.5032  0.3922  0.1944
18533SOL    HW257607   8.110   5.963   1.874  0.9551 -0.4082 -0.4416
18534SOL     OW57608   1.298   7.441   0.243  0.2761 -0.5732  0.6665
18534SOL    HW157609   1.284   7.532   0.217 -1.0789 -0.9139  0.1382
18534SOL    HW257610   1.230   7.424   0.308 -0.0500 -1.4827  0.0918
18535SOL     OW57611   3.738  10.936   4.907  0.6105 -0.1246 -0.2225
18535SOL    HW157612   3.734  11.028   4.879 -1.1263  0.0414  0.5043
18535SOL    HW257613   3.820  10.930   4.957 -0.0381  1.4547  1.1181
18536SOL     OW57614  10.421   1.960   5.911  0.2377 -0.0312 -0.3881
18536SOL    HW157615  10.495   1.997   5.959  0.6535 -0.8253 -0.4006
18536SOL    HW257616  10.355   1.941   5.979  0.0273  0.7111 -0.3826
18537SOL     OW57617   6.903   9.359   3.607 -0.1003  0.0092 -0.2836
18537SOL    HW157618   6.946   9.432   3.563 -1.1820 -0.0080 -1.4188
18537SOL    HW257619   6.911   9.379   3.701 -0.7446  1.7822 -0.5824
18538SOL     OW57620   2.626   4.423  10.925  0.3550 -0.2441  0.3442
18538SOL    HW157621   2.680   4.459  10.995 -0.7481  0.0827  1.0520
18538SOL    HW257622   2.589   4.499  10.881  2.6569 -0.3474 -1.9914
18539SOL     OW57623   3.875   4.103   2.028 -0.2611  0.5172 -0.3437
18539SOL    HW157624   3.952   4.160   2.021 -0.7504  1.0627 -1.8517
18539SOL    HW257625   3.911   4.015   2.020  0.4727  0.5725  1.7131
18540SOL     OW57626   9.349   4.884  10.956 -0.2822  0.6536 -0.4000
18540SOL    HW157627   9.267   4.912  10.915 -1.8629 -0.2370  1.9060
18540SOL    HW257628   9.354   4.790  10.938 -0.4436  0.4681  0.4680
18541SOL     OW57629   4.990   3.221   2.713 -0.0844  0.1246  0.2037
18541SOL    HW157630   4.931   3.262   2.650  0.1274  0.3271  0.1376
18541SOL    HW257631   5.016   3.139   2.671 -1.6346 -0.7866  0.9422
18542SOL     OW57632   2.593   5.363   3.669 -0.0162 -0.3954 -0.1239
18542SOL    HW157633   2.658   5.325   3.728 -0.0189  0.3586  0.3781
18542SOL    HW257634   2.513   5.369   3.721 -0.1396 -0.1218 -0.3401
18543SOL     OW57635   2.189   8.105   7.996 -0.2705 -0.3810  0.1080
18543SOL    HW157636   2.232   8.067   7.919 -0.5021 -1.0825  0.3143
18543SOL    HW257637   2.259   8.149   8.043  0.0342 -0.6618 -0.0765
18544SOL     OW57638   6.564   4.684   9.493  0.2532  0.1764  0.0046
18544SOL    HW157639   6.650   4.689   9.534 -0.2669 -0.6011  1.2465
18544SOL    HW257640   6.573   4.612   9.430  0.9256  1.0906 -0.9906
18545SOL     OW57641   7.592   0.239   2.451 -0.2250  0.5407  0.3640
18545SOL    HW157642   7.573   0.332   2.445  0.6148  0.7774  1.0970
18545SOL    HW257643   7.629   0.228   2.539  0.1958 -0.3811  0.0829
18546SOL     OW57644   2.557   7.329  10.920  0.3548 -0.2079  0.3208
18546SOL    HW157645   2.540   7.367  10.834  1.4073  2.3724  1.1499
18546SOL    HW257646   2.651   7.343  10.934  0.6815 -2.5845  1.0386
18547SOL     OW57647   3.691   6.667   0.413  0.0522 -0.2593  0.0357
18547SOL    HW157648   3.690   6.742   0.472 -1.4222 -0.7889  0.7529
18547SOL    HW257649   3.638   6.695   0.338  0.4005 -0.2109 -0.1921
18548SOL     OW57650   6.713   2.741   7.320  0.5393  0.0902 -0.0043
18548SOL    HW157651   6.792   2.700   7.355 -0.8481 -1.1812  1.8811
18548SOL    HW257652   6.648   2.731   7.390 -0.5298  3.7017 -0.2752
18549SOL     OW57653   5.618   7.585  10.002  0.0077 -0.6832 -0.0461
18549SOL    HW157654   5.542   7.608  10.056 -1.0952  0.2892 -1.8987
18549SOL    HW257655   5.673   7.663  10.004  1.1812 -1.5087  1.5718
18550SOL     OW57656   4.330   2.408   6.106  0.2070  0.7036 -0.1261
18550SOL    HW157657   4.251   2.433   6.057 -0.0876  0.2996  0.1289
18550SOL    HW257658   4.397   2.395   6.039 -0.2783 -0.1669 -0.4681
18551SOL     OW57659   5.193   9.924  10.765  0.1616 -0.6740  0.3310
18551SOL    HW157660   5.110   9.932  10.718  0.3305 -0.7238  0.0191
18551SOL    HW257661   5.260   9.924  10.696  0.4864  0.2530  0.6306
18552SOL     OW57662   0.629   3.796   4.513  0.3338 -0.4924 -0.1166
18552SOL    HW157663   0.722   3.802   4.533  0.5760 -0.7028 -1.1346
18552SOL    HW257664   0.592   3.877   4.549  0.7334 -0.8340  1.1177
18553SOL     OW57665   2.838   8.611   9.324  0.0610 -0.2363 -0.1164
18553SOL    HW157666   2.842   8.578   9.235 -0.8635 -0.8194  0.0497
18553SOL    HW257667   2.769   8.560   9.366  0.5801 -0.0710  0.9774
18554SOL     OW57668   4.442   5.048   7.192  0.3705  0.1790  0.3794
18554SOL    HW157669   4.528   5.022   7.159 -0.5760 -0.6234 -1.7025
18554SOL    HW257670   4.457   5.072   7.283  3.1379  2.0252 -0.4249
18555SOL     OW57671   3.071   7.299   2.121 -0.0716  0.5754  0.0625
18555SOL    HW157672   3.052   7.380   2.074  0.3116  0.3138 -0.5451
18555SOL    HW257673   2.993   7.245   2.107  0.5313  0.0181 -1.3273
18556SOL     OW57674   8.874   3.879   1.213  0.3913 -0.2591  0.7225
18556SOL    HW157675   8.795   3.856   1.261 -0.4187 -0.6958 -0.7692
18556SOL    HW257676   8.916   3.795   1.195  0.6975 -0.0954  0.6645
18557SOL     OW57677   7.811   9.918   4.862  0.0259 -0.0818  0.4160
18557SOL    HW157678   7.760   9.902   4.941  0.4972 -0.8883  0.5702
18557SOL    HW257679   7.771   9.995   4.823 -0.1958  0.3498  1.4555
18558SOL     OW57680   0.734   7.331   3.970 -0.0308 -0.1137 -0.5321
18558SOL    HW157681   0.823   7.334   3.936 -0.6339 -0.9338 -2.3413
18558SOL    HW257682   0.705   7.422   3.969  0.4533  0.0430 -0.9021
18559SOL     OW57683   4.775   0.748   7.285 -0.0039 -0.3990  0.1773
18559SOL    HW157684   4.711   0.802   7.240 -0.7937  0.1961  1.9050
18559SOL    HW257685   4.778   0.666   7.235 -0.5605  0.3540 -1.1074
18560SOL     OW57686   4.491   7.207   8.011 -0.0385  0.0899  0.0301
18560SOL    HW157687   4.456   7.121   8.034 -1.1645  0.4100 -0.4283
18560SOL    HW257688   4.471   7.218   7.918  0.3832  0.7214  0.0022
18561SOL     OW57689   4.617   8.448   7.752 -0.5363  0.1530  0.1650
18561SOL    HW157690   4.704   8.420   7.781 -1.0075 -0.1291  1.3743
18561SOL    HW257691   4.558   8.379   7.783 -1.1925  0.2960 -0.7164
18562SOL     OW57692   5.194   8.552   8.430  0.2011  0.1536 -0.2227
18562SOL    HW157693   5.289   8.548   8.441  0.2833  0.7407 -0.6573
18562SOL    HW257694   5.161   8.577   8.516  0.2359 -2.1671  0.5511
18563SOL     OW57695   1.383   5.171   4.213 -0.0290  0.7650 -0.2246
18563SOL    HW157696   1.419   5.085   4.188 -1.8067 -0.3540  0.8434
18563SOL    HW257697   1.363   5.214   4.129 -0.2543 -0.3789 -0.7792
18564SOL     OW57698   6.163   1.454   9.964  0.3788 -0.0276  0.1876
18564SOL    HW157699   6.107   1.504   9.904  0.3441 -0.1697  0.1007
18564SOL    HW257700   6.189   1.517  10.031  0.5729  0.1792 -0.0825
18565SOL     OW57701   3.942   7.428   1.280 -0.0953  0.8213 -0.2280
18565SOL    HW157702   3.957   7.472   1.196 -0.1262 -1.1120 -1.3099
18565SOL    HW257703   3.849   7.408   1.280  0.1623 -0.4378 -0.4052
18566SOL     OW57704   9.032   4.559   8.105 -0.2227 -1.0023 -0.2076
18566SOL    HW157705   8.980   4.508   8.167  1.1040 -0.3558  1.5441
18566SOL    HW257706   9.056   4.496   8.036 -3.0184 -1.3700 -0.9807
18567SOL     OW57707   5.191   5.974   4.744  0.6063  0.2996 -0.1903
18567SOL    HW157708   5.195   5.978   4.840  2.9071  2.0365 -0.2871
18567SOL    HW257709   5.274   5.933   4.718  0.2494  0.3385 -1.4673
18568SOL     OW57710   7.004   2.040   5.679 -0.6430  0.0180 -0.2730
18568SOL    HW157711   6.921   2.085   5.664 -0.5399 -0.0466 -1.1104
18568SOL    HW257712   7.031   2.010   5.592  1.3643  2.0100 -0.4648
18569SOL     OW57713   3.193  10.874  10.814 -0.3650  0.0392  0.1229
18569SOL    HW157714   3.272  10.881  10.760  0.3594  0.8938  1.2435
18569SOL    HW257715   3.213  10.925  10.892 -1.9558  0.0778  0.5380
18570SOL     OW57716   2.887   9.205   1.847 -0.3810 -0.1598 -0.0960
18570SOL    HW157717   2.973   9.190   1.885  0.8249  0.3420 -2.4478
18570SOL    HW257718   2.851   9.117   1.835  0.1918 -0.4216  0.0405
18571SOL     OW57719   8.482   0.113   1.049  0.3305 -0.7207 -0.0947
18571SOL    HW157720   8.423   0.067   0.989 -0.0458 -0.5649  0.1532
18571SOL    HW257721   8.535   0.043   1.088  0.6742 -0.8095 -0.7075
18572SOL     OW57722   2.891   6.205   3.831  0.1049 -0.7357 -0.2048
18572SOL    HW157723   2.960   6.229   3.769 -0.5939  0.8331 -0.4482
18572SOL    HW257724   2.820   6.266   3.811 -1.7924 -2.9865 -0.6869
18573SOL     OW57725   2.981  10.285   5.326 -0.2266 -0.8981  0.0155
18573SOL    HW157726   3.016  10.313   5.242 -0.3510  2.4858  0.9570
18573SOL    HW257727   2.893  10.252   5.305 -0.8327  1.2376 -1.1027
18574SOL     OW57728   9.502   7.473  10.408 -0.0356 -0.8375  0.6570
18574SOL    HW157729   9.517   7.407  10.341 -1.3879 -0.0533 -0.4864
18574SOL    HW257730   9.586   7.483  10.451  1.5181  0.0880 -2.2991
18575SOL     OW57731   2.195   2.689   3.866  0.4504 -0.5582 -0.1189
18575SOL    HW157732   2.180   2.748   3.792  1.1988 -0.8075 -0.4825
18575SOL    HW257733   2.112   2.645   3.880  0.5484 -1.1991 -1.4336
18576SOL     OW57734   7.222   7.144   6.920  0.2568  0.1329 -0.0830
18576SOL    HW157735   7.159   7.161   6.850 -0.6051 -1.0191  0.3798
18576SOL    HW257736   7.297   7.105   6.876  0.5407  1.2545 -0.6065
18577SOL     OW57737   4.732   7.607   8.550 -0.1556 -0.2771 -0.1447
18577SOL    HW157738   4.752   7.598   8.643 -0.8024  1.1341  0.1509
18577SOL    HW257739   4.684   7.527   8.528  0.8901 -1.1023  0.4671
18578SOL     OW57740   3.089   1.065   5.777 -0.1342 -0.0680  0.1114
18578SOL    HW157741   3.159   1.002   5.796  0.6206  0.9893  0.9338
18578SOL    HW257742   3.048   1.031   5.697  0.4023 -1.4639  0.3892
18579SOL     OW57743   5.236   9.130   9.995  0.4926 -0.0546  0.3513
18579SOL    HW157744   5.214   9.181  10.073 -0.1777 -0.6340  0.5541
18579SOL    HW257745   5.165   9.149   9.933 -0.6762 -1.9684  1.0213
18580SOL     OW57746   6.605   5.929   0.661 -0.3131  0.2735 -0.1627
18580SOL    HW157747   6.516   5.899   0.677  0.1504 -1.5930 -0.7776
18580SOL    HW257748   6.615   5.927   0.566  0.3620  0.5240 -0.1087
18581SOL     OW57749   8.554   5.258   5.400 -0.2130 -0.0650  0.1031
18581SOL    HW157750   8.522   5.179   5.356  0.2041  0.1578 -0.6150
18581SOL    HW257751   8.520   5.250   5.490 -0.6149 -0.7971 -0.0980
18582SOL     OW57752   3.293   6.386   5.557 -0.0172 -0.2590 -0.0382
18582SOL    HW157753   3.227   6.453   5.538  0.3353 -0.1124 -0.7781
18582SOL    HW257754   3.353   6.429   5.618  0.8907  0.5431 -1.4371
18583SOL     OW57755   3.735   1.777   0.528  0.1147  0.1102  0.0940
18583SOL    HW157756   3.673   1.822   0.470  0.2883 -0.2690 -0.3908
18583SOL    HW257757   3.818   1.822   0.515  0.2927 -0.3626 -0.4045
18584SOL     OW57758   3.365   8.160   1.515 -0.2459  0.0950 -0.7622
18584SOL    HW157759   3.302   8.155   1.587 -0.8629  1.5893 -1.1638
18584SOL    HW257760   3.384   8.254   1.507  1.0177 -0.2099 -1.5219
18585SOL     OW57761   9.032   1.163  10.046  0.4130 -0.3132  0.3284
18585SOL    HW157762   9.069   1.229   9.988  0.5654  0.2436  1.0450
18585SOL    HW257763   9.041   1.081   9.998  2.3877 -0.1719  0.3974
18586SOL     OW57764   7.020   6.730   4.597  0.1289 -0.3373  0.2052
18586SOL    HW157765   7.031   6.795   4.527  1.9226  0.2555  0.9835
18586SOL    HW257766   7.110   6.707   4.622 -0.4422 -3.0204  0.0793
18587SOL     OW57767   8.750   7.731  10.086  0.1047 -0.4929 -0.4761
18587SOL    HW157768   8.827   7.675  10.098 -0.4655 -1.5903 -1.6155
18587SOL    HW257769   8.778   7.797  10.023  0.5421  0.0378  0.2570
18588SOL     OW57770   9.959   9.305  10.057 -0.0404 -0.5884 -0.5777
18588SOL    HW157771   9.882   9.272  10.010 -0.4154 -2.4018  1.1859
18588SOL    HW257772   9.926   9.331  10.143  0.9324  0.9801 -0.6484
18589SOL     OW57773   5.091   7.662   1.505  0.2991  0.5616  0.1595
18589SOL    HW157774   5.059   7.619   1.584 -2.5064  2.5387  0.2484
18589SOL    HW257775   5.083   7.595   1.437  1.3393 -0.7001  1.2211
18590SOL     OW57776   4.848   7.895   9.774  0.5827 -0.0416  0.1328
18590SOL    HW157777   4.909   7.834   9.733 -0.0517 -1.4814  1.2509
18590SOL    HW257778   4.809   7.846   9.846 -2.8460  0.3535 -1.2507
18591SOL     OW57779   7.463   0.383   1.209 -0.0517  0.0253 -0.3170
18591SOL    HW157780   7.451   0.453   1.145  0.5065  1.0720  0.6854
18591SOL    HW257781   7.550   0.348   1.192  0.6629  1.2237  0.6955
18592SOL     OW57782   2.798   5.398   1.673  0.1056 -0.2456  1.0479
18592SOL    HW157783   2.711   5.380   1.709 -0.6062  0.5724 -0.1836
18592SOL    HW257784   2.802   5.346   1.593  0.2490  0.6676  0.4464
18593SOL     OW57785   9.916   6.773   1.199  0.8605 -0.0454  0.0081
18593SOL    HW157786   9.886   6.815   1.280 -0.8366 -0.7667 -0.2195
18593SOL    HW257787   9.986   6.714   1.228  0.6024  0.0612  0.8713
18594SOL     OW57788   6.900   1.283   0.336  0.3664 -0.0643 -0.5672
18594SOL    HW157789   6.868   1.194   0.350 -0.4708  0.1658 -0.9788
18594SOL    HW257790   6.825   1.331   0.301 -0.0227  1.5311  2.1936
18595SOL     OW57791   5.091   8.332   7.469  0.2243 -0.4056 -0.3420
18595SOL    HW157792   5.016   8.287   7.429  0.8983 -1.2732 -0.6772
18595SOL    HW257793   5.167   8.296   7.423  0.9519 -0.6031  0.9560
18596SOL     OW57794   7.022   0.500   4.461  0.1468 -0.7539 -0.5372
18596SOL    HW157795   6.938   0.546   4.457 -0.2698 -1.2637  1.6067
18596SOL    HW257796   7.061   0.526   4.544  0.6271 -3.0081  0.0139
18597SOL     OW57797   3.088   5.987   2.440  0.3787  0.5358  0.2232
18597SOL    HW157798   3.099   6.023   2.528  1.3304 -0.4793  0.5407
18597SOL    HW257799   3.158   5.923   2.432 -2.2855 -2.6836  0.4148
18598SOL     OW57800   3.504   2.802   1.092 -0.1572 -0.4484  0.0002
18598SOL    HW157801   3.430   2.813   1.152 -0.5245 -2.5893  0.0237
18598SOL    HW257802   3.580   2.790   1.149  0.4725  2.6463 -0.0130
18599SOL     OW57803   5.257   7.557   0.697 -0.2156  0.4272 -0.0583
18599SOL    HW157804   5.195   7.600   0.755 -0.1854 -0.6097  0.7796
18599SOL    HW257805   5.337   7.549   0.750  0.3493  0.9552 -0.8185
18600SOL     OW57806   2.566   3.026   6.575 -0.1855  0.0265  0.2240
18600SOL    HW157807   2.538   3.112   6.607 -0.5854  0.4463 -1.1523
18600SOL    HW257808   2.636   3.047   6.512  0.8557 -0.7808  1.0734
18601SOL     OW57809   6.576   5.611   7.597  0.2051  0.2076 -0.0462
18601SOL    HW157810   6.526   5.626   7.517 -0.9348  0.6787  0.7145
18601SOL    HW257811   6.549   5.524   7.626  1.5419 -0.4814 -0.7940
18602SOL     OW57812   7.674   9.647   8.685 -0.3053  0.1625 -0.5105
18602SOL    HW157813   7.602   9.703   8.715 -1.0466 -0.8779 -0.2853
18602SOL    HW257814   7.634   9.561   8.673  1.1176 -0.7381  0.7206
18603SOL     OW57815   1.382   6.977   2.569  0.2659  0.1198 -0.1204
18603SOL    HW157816   1.465   6.966   2.614  0.0710 -2.3110 -0.2088
18603SOL    HW257817   1.362   6.890   2.534 -1.9060  0.8297 -0.8220
18604SOL     OW57818   4.011   4.634   2.341 -0.0555  0.4357 -0.1456
18604SOL    HW157819   3.962   4.700   2.292 -0.3708  0.9440  0.8159
18604SOL    HW257820   3.950   4.607   2.410  0.5457  0.0932  0.2574
18605SOL     OW57821   0.818   9.100   3.469  0.0588  0.0905 -0.8517
18605SOL    HW157822   0.763   9.028   3.502 -0.4326  1.3669  1.3223
18605SOL    HW257823   0.764   9.142   3.402 -0.1959 -0.7329 -1.1812
18606SOL     OW57824   3.593   5.512   2.448  0.1374 -0.1034 -0.1874
18606SOL    HW157825   3.587   5.533   2.355 -0.5886 -0.9468 -0.3391
18606SOL    HW257826   3.688   5.510   2.465  0.2922 -0.4850 -1.0337
18607SOL     OW57827   4.697   1.240   2.112  0.3769 -0.3215 -0.1586
18607SOL    HW157828   4.617   1.188   2.106  0.2634 -0.0306 -1.3869
18607SOL    HW257829   4.668   1.330   2.095  0.6448  0.1053  1.4919
18608SOL     OW57830   5.538   7.943   1.101  0.1840 -0.7688  0.4771
18608SOL    HW157831   5.592   8.013   1.066  0.5765 -0.5935  1.4074
18608SOL    HW257832   5.449   7.964   1.072  0.3579 -0.1081  0.4146
18609SOL     OW57833   3.219   4.955   0.669 -0.4837  0.0053  0.1009
18609SOL    HW157834   3.169   5.035   0.686 -0.9602 -0.5348  1.3036
18609SOL    HW257835   3.167   4.885   0.707 -0.0155 -0.8866 -0.8423
18610SOL     OW57836   4.415   4.353   7.646 -0.1359  0.9386  1.0633
18610SOL    HW157837   4.331   4.347   7.600  0.0579 -2.8110  0.8457
18610SOL    HW257838   4.467   4.415   7.595 -1.9815  1.5294 -0.1762
18611SOL     OW57839   2.288   0.674   5.660  0.4631  0.8359  0.3002
18611SOL    HW157840   2.360   0.719   5.704  0.8516  0.6812 -0.1678
18611SOL    HW257841   2.323   0.651   5.574 -0.2678  1.0995 -0.0791
18612SOL     OW57842   7.411   5.713   9.937 -0.5873  0.4354 -0.1486
18612SOL    HW157843   7.401   5.685  10.027 -1.7360 -1.7477 -0.8924
18612SOL    HW257844   7.501   5.745   9.931 -0.5104  0.6675  1.7403
18613SOL     OW57845   6.782   1.931   5.011  0.0169  0.0016 -0.1737
18613SOL    HW157846   6.702   1.906   5.057  0.1492 -2.8164 -1.2754
18613SOL    HW257847   6.751   1.964   4.926 -0.0249  0.7176  0.1119
18614SOL     OW57848  10.544   7.700   0.593  0.6165 -0.2569  0.2375
18614SOL    HW157849  10.467   7.724   0.542 -0.6337  1.6505  2.7742
18614SOL    HW257850  10.548   7.605   0.588 -1.3692 -0.3358 -0.7308
18615SOL     OW57851   7.168   0.171   6.626  0.1541 -0.0091 -0.0019
18615SOL    HW157852   7.086   0.154   6.580  0.4428 -0.0419 -0.5062
18615SOL    HW257853   7.233   0.116   6.582  0.2332 -0.8044  1.0891
18616SOL     OW57854   6.359   4.520   6.663 -0.2885 -0.7183 -0.0843
18616SOL    HW157855   6.387   4.603   6.702  0.2087 -0.7946 -0.2699
18616SOL    HW257856   6.367   4.456   6.734  0.3824 -0.8119 -0.2442
18617SOL     OW57857   5.552   4.730   5.530  0.5527  0.3703  0.1412
18617SOL    HW157858   5.632   4.751   5.482 -0.5602  2.7219 -0.8650
18617SOL    HW257859   5.487   4.712   5.462 -0.1574  0.0505  0.8871
18618SOL     OW57860   5.596   2.217   3.445 -0.6669  0.0583  0.0180
18618SOL    HW157861   5.603   2.300   3.493 -1.1269  0.4282 -0.5469
18618SOL    HW257862   5.602   2.243   3.352 -2.2291 -0.3868 -0.2208
18619SOL     OW57863   2.194   8.458   6.916  0.2527  0.6192  0.2945
18619SOL    HW157864   2.286   8.477   6.903  0.1758 -0.0802 -1.4867
18619SOL    HW257865   2.177   8.381   6.862 -1.1055 -0.0052  1.5492
18620SOL     OW57866   3.576   7.350   1.852  1.0359 -0.1078  0.1603
18620SOL    HW157867   3.519   7.379   1.924  0.5744  0.1627 -0.3124
18620SOL    HW257868   3.665   7.358   1.888  0.8059 -0.0844  0.7394
18621SOL     OW57869   7.690   7.656   0.091  0.5823  0.4090 -0.4335
18621SOL    HW157870   7.730   7.707   0.161  0.5410 -0.9991  0.6518
18621SOL    HW257871   7.649   7.582   0.135  0.8734 -0.7329 -1.9821
18622SOL     OW57872   7.985   5.588   3.031  0.2321  0.0911 -0.9951
18622SOL    HW157873   7.966   5.643   2.956 -1.8548 -0.8481 -1.2339
18622SOL    HW257874   7.939   5.506   3.013  0.5717 -0.5503  0.8143
18623SOL     OW57875   5.798   0.360   3.373  0.0817  0.1471  0.1128
18623SOL    HW157876   5.704   0.349   3.391  0.4508  0.0497  2.3349
18623SOL    HW257877   5.832   0.270   3.374  0.2874  0.2236 -0.1159
18624SOL     OW57878   1.133  10.646   3.542  0.0042  0.8231  0.3090
18624SOL    HW157879   1.171  10.631   3.629  1.3572 -0.6552 -0.4673
18624SOL    HW257880   1.169  10.730   3.515  1.6733  0.1249  0.1960
18625SOL     OW57881   6.049  10.805   1.406 -0.2283  0.0103  0.0705
18625SOL    HW157882   6.119  10.797   1.341 -0.1384  2.2836 -0.1992
18625SOL    HW257883   5.969  10.818   1.354 -0.6876 -1.3224  0.4000
18626SOL     OW57884   1.397   4.382   2.375  0.0436 -0.0912  0.2221
18626SOL    HW157885   1.403   4.366   2.281  1.2546  0.0860  0.2536
18626SOL    HW257886   1.303   4.383   2.394 -0.2108  0.1448 -1.0255
18627SOL     OW57887  10.813   7.841   0.417  0.6322  0.2220 -0.2958
18627SOL    HW157888  10.854   7.811   0.337  0.0736 -1.0979 -0.1068
18627SOL    HW257889  10.724   7.807   0.413  0.5341  0.3111  0.7931
18628SOL     OW57890   7.424   6.431   8.669 -0.3359 -0.0803 -0.4646
18628SOL    HW157891   7.464   6.518   8.666  1.3535 -0.7358  0.9773
18628SOL    HW257892   7.442   6.400   8.758 -2.2331 -1.3265 -0.4660
18629SOL     OW57893   1.888   2.759  10.282  0.2573  0.2151 -0.6419
18629SOL    HW157894   1.845   2.800  10.357  1.3824 -0.7511  0.5761
18629SOL    HW257895   1.894   2.667  10.305  4.0444  0.4289 -0.1152
18630SOL     OW57896   1.583   8.796   2.312 -0.1733  0.0682 -0.1097
18630SOL    HW157897   1.523   8.838   2.250 -0.2101  0.2045  0.0174
18630SOL    HW257898   1.570   8.843   2.394  1.7271  1.6158 -0.6149
18631SOL     OW57899   4.335   9.201   6.546 -0.2794 -0.0197 -0.0876
18631SOL    HW157900   4.295   9.247   6.472 -2.0855 -1.2257  0.0996
18631SOL    HW257901   4.384   9.129   6.506 -0.4662 -0.1061 -0.1599
18632SOL     OW57902   5.933   5.577   5.265  0.4251 -0.6957  0.0873
18632SOL    HW157903   5.865   5.593   5.330  0.0910  3.0143 -0.9228
18632SOL    HW257904   5.887   5.543   5.188 -0.5944  2.3909 -0.8171
18633SOL     OW57905   8.091   1.398   5.581  0.3714 -0.1709  0.1180
18633SOL    HW157906   8.161   1.431   5.526  0.1829 -0.3643 -0.2433
18633SOL    HW257907   8.135   1.339   5.642  0.5749  0.0081  0.1459
18634SOL     OW57908   5.199   4.926   8.051  0.8390 -0.8310  0.0564
18634SOL    HW157909   5.278   4.980   8.056  1.0998 -0.9180 -2.1907
18634SOL    HW257910   5.147   4.953   8.126  2.6810 -0.2670  1.1961
18635SOL     OW57911   3.898  11.049   1.526  0.2767  0.1355  0.0017
18635SOL    HW157912   3.891  10.962   1.487 -0.6502  0.4491 -0.5753
18635SOL    HW257913   3.989  11.075   1.513  0.2460 -0.2274 -0.9835
18636SOL     OW57914   4.687   8.474   3.780 -0.4269  0.1170  0.6184
18636SOL    HW157915   4.620   8.411   3.755 -1.3904  1.6225 -0.7921
18636SOL    HW257916   4.679   8.545   3.716  0.4547  1.7839  2.2447
18637SOL     OW57917   5.337   7.080   5.564 -0.4808  0.2219  0.2851
18637SOL    HW157918   5.348   7.047   5.475  0.9054 -0.6761  0.7522
18637SOL    HW257919   5.425   7.080   5.601 -1.0099  0.6768  1.6205
18638SOL     OW57920   4.555   6.436   2.529 -0.0991  0.4224  0.5222
18638SOL    HW157921   4.509   6.357   2.557  2.6162 -2.2351 -1.7600
18638SOL    HW257922   4.643   6.427   2.567  0.6550  1.6411 -0.8267
18639SOL     OW57923   8.316   1.553   9.141 -0.1978 -0.2232  0.0224
18639SOL    HW157924   8.337   1.639   9.106 -0.8659 -0.1056 -0.1100
18639SOL    HW257925   8.357   1.551   9.227 -0.3079  0.2920  0.0882
18640SOL     OW57926   2.346   8.210   4.312 -1.3787 -0.5263 -0.4352
18640SOL    HW157927   2.344   8.182   4.404  2.4395  2.7785  0.9841
18640SOL    HW257928   2.316   8.301   4.314 -1.4438 -0.4438 -2.5556
18641SOL     OW57929   3.645  10.248  10.975 -0.1447 -0.3043  0.0533
18641SOL    HW157930   3.728  10.203  10.991 -0.0558 -0.2543 -0.2774
18641SOL    HW257931   3.670  10.336  10.947 -0.3115 -0.2536  0.0600
18642SOL     OW57932   3.531   5.823   5.237 -0.7573  0.4069 -0.1577
18642SOL    HW157933   3.517   5.729   5.228 -0.6078  0.5033 -1.6411
18642SOL    HW257934   3.486   5.847   5.319 -0.4172 -1.0102  0.4664
18643SOL     OW57935   0.560   8.110   1.123  0.0499  0.2123  0.4900
18643SOL    HW157936   0.636   8.053   1.110 -1.1773 -1.0518 -1.8375
18643SOL    HW257937   0.587   8.194   1.088  0.3846 -0.2322 -0.3361
18644SOL     OW57938   1.118   2.614  11.089  0.1094  0.6740  0.3499
18644SOL    HW157939   1.147   2.705  11.081 -0.3019  0.7744 -0.0332
18644SOL    HW257940   1.172   2.578  11.160  1.8174  0.5871 -0.9352
18645SOL     OW57941   0.046   2.640   1.543 -0.1692  0.3779  0.2511
18645SOL    HW157942   0.021   2.730   1.564  0.5048  0.0548  2.7208
18645SOL    HW257943   0.070   2.643   1.450  1.4136  3.1172  0.6369
18646SOL     OW57944   1.831   3.610   3.910  0.4633  0.4953 -0.1294
18646SOL    HW157945   1.920   3.642   3.924 -0.0734  1.6031  0.9165
18646SOL    HW257946   1.789   3.618   3.996 -0.8721  0.6988 -0.7716
18647SOL     OW57947   8.079   1.052   2.562 -0.3281 -0.3370 -0.1675
18647SOL    HW157948   8.126   0.985   2.611  0.2167 -0.6015 -1.0149
18647SOL    HW257949   8.070   1.015   2.474  0.7306  1.0318 -0.8981
18648SOL     OW57950   6.805   6.396   3.294  0.3542  0.6526  0.2944
18648SOL    HW157951   6.768   6.381   3.381 -0.3485 -0.4825 -0.1684
18648SOL    HW257952   6.887   6.347   3.294  0.2545  0.4825  0.2616
18649SOL     OW57953   7.570   1.345   0.132 -0.3864  0.2911  0.1053
18649SOL    HW157954   7.634   1.341   0.061 -0.0027  2.0689  0.3151
18649SOL    HW257955   7.487   1.318   0.092 -0.1704  1.2442 -1.0277
18650SOL     OW57956  10.093   5.546   3.196 -0.0055  0.1199 -0.5475
18650SOL    HW157957  10.130   5.508   3.116 -0.5956 -1.2971 -0.1857
18650SOL    HW257958  10.002   5.566   3.174  0.0815  0.5798 -0.4941
18651SOL     OW57959   4.226   9.594  10.810 -0.0692  0.3162 -0.0827
18651SOL    HW157960   4.134   9.584  10.787 -0.0780 -0.2213  0.1897
18651SOL    HW257961   4.269   9.516  10.776  0.4850  1.0566 -1.1697
18652SOL     OW57962   1.856   7.363   6.465 -0.3787 -0.1952  0.0721
18652SOL    HW157963   1.835   7.339   6.556 -1.0733  0.7754  0.1730
18652SOL    HW257964   1.810   7.297   6.412  1.4491 -1.8619  0.4203
18653SOL     OW57965   3.613   2.734   9.419  0.3195  0.0341 -0.2507
18653SOL    HW157966   3.633   2.818   9.377 -0.2041  0.9938  1.3203
18653SOL    HW257967   3.569   2.683   9.351 -1.1605  1.7955 -0.7072
18654SOL     OW57968   8.962   7.532   9.901 -0.4201 -0.4645 -0.1842
18654SOL    HW157969   8.967   7.461   9.965 -1.6804 -0.7241 -0.3591
18654SOL    HW257970   9.025   7.597   9.932 -1.2378 -0.4347  1.5091
18655SOL     OW57971   2.755   3.170   7.925  0.0281  0.2027  0.1401
18655SOL    HW157972   2.802   3.196   7.846 -0.8487  0.2300 -0.3858
18655SOL    HW257973   2.665   3.199   7.910 -0.1843  0.0648  1.0829
18656SOL     OW57974   8.535   5.172   0.820  0.2532 -0.0210  0.6423
18656SOL    HW157975   8.457   5.220   0.792  0.8278  0.8465  0.4946
18656SOL    HW257976   8.514   5.080   0.804 -0.3167  0.2864 -0.4289
18657SOL     OW57977   2.727   2.726   5.512 -0.3575 -0.3417  0.3753
18657SOL    HW157978   2.658   2.662   5.526  2.1429 -3.0893  1.2338
18657SOL    HW257979   2.777   2.726   5.594  0.9188  1.2147 -0.3397
18658SOL     OW57980   2.247   5.403   1.456 -0.1965  0.7117  0.1596
18658SOL    HW157981   2.292   5.406   1.371 -0.5534 -0.6678 -0.1139
18658SOL    HW257982   2.157   5.426   1.436 -0.3436  0.1022  0.1062
18659SOL     OW57983   5.630   6.181  11.064 -0.9117 -0.3792  0.0358
18659SOL    HW157984   5.536   6.186  11.081 -0.9975  1.0035 -0.6566
18659SOL    HW257985   5.659   6.273  11.064  0.7601 -0.8352  1.8900
18660SOL     OW57986   0.705   2.874   7.512 -0.1426  0.0441 -1.1749
18660SOL    HW157987   0.688   2.930   7.588  1.7768  0.3258 -0.9009
18660SOL    HW257988   0.736   2.935   7.445 -0.6171 -0.3729 -1.7862
18661SOL     OW57989   3.231   0.015   5.210  0.2336  0.3837  0.6490
18661SOL    HW157990   3.194   0.102   5.225 -2.8984 -0.8239  0.7516
18661SOL    HW257991   3.216  -0.032   5.292 -0.1774 -0.8611 -0.1088
18662SOL     OW57992   5.482  11.059   9.638  0.3273  0.1590 -0.0203
18662SOL    HW157993   5.541  10.993   9.601  1.6869  0.8520  0.8326
18662SOL    HW257994   5.445  11.103   9.562  0.5511 -0.6016 -0.5869
18663SOL     OW57995   0.283   4.606   2.311 -0.0559  0.1303 -0.5027
18663SOL    HW157996   0.349   4.668   2.279 -1.8830  1.2171 -2.3806
18663SOL    HW257997   0.277   4.624   2.405  0.8348  1.4369 -0.6646
18664SOL     OW57998   6.119   3.777   2.347 -0.2756 -0.5648 -0.0596
18664SOL    HW157999   6.208   3.766   2.379 -0.2248 -1.3432 -0.4439
18664SOL    HW258000   6.122   3.853   2.290 -0.5735  1.4990  2.5191
18665SOL     OW58001   4.201  10.167   9.070 -0.6610  0.6070 -0.2276
18665SOL    HW158002   4.250  10.140   9.148 -2.1449  1.1011  0.9270
18665SOL    HW258003   4.232  10.256   9.053  1.3260 -0.2636 -1.6473
18666SOL     OW58004  10.034   0.448   1.592  0.0099  0.7272 -0.7926
18666SOL    HW158005  10.112   0.481   1.637 -0.4540  1.2744 -0.3775
18666SOL    HW258006  10.029   0.500   1.512 -0.3120  1.1722 -0.4877
18667SOL     OW58007   6.131   6.647   0.023 -0.0640  0.3933  0.4489
18667SOL    HW158008   6.037   6.662   0.016  0.1809  1.4108 -1.0949
18667SOL    HW258009   6.139   6.559   0.059 -1.5849  0.8822  2.1401
18668SOL     OW58010   4.955   6.393   4.582 -0.0877 -0.2024 -0.3925
18668SOL    HW158011   5.030   6.420   4.635 -0.4277  0.9260 -0.4662
18668SOL    HW258012   4.953   6.298   4.591 -0.1978 -0.0480  1.7223
18669SOL     OW58013   4.753   8.369   2.077  0.0421  0.5352 -0.2635
18669SOL    HW158014   4.668   8.405   2.103  0.4546  0.2849  1.5386
18669SOL    HW258015   4.817   8.418   2.129  0.8630 -0.5247 -0.2439
18670SOL     OW58016   9.013   4.989   5.515  0.5133 -0.5822 -0.0187
18670SOL    HW158017   9.017   5.001   5.420 -0.7647 -0.5813 -0.1014
18670SOL    HW258018   9.041   4.899   5.530  0.3815 -0.6956 -0.4396
18671SOL     OW58019   5.750   8.186  10.927 -0.8642  0.6828 -0.0941
18671SOL    HW158020   5.838   8.200  10.962 -0.3526 -2.2821  0.0258
18671SOL    HW258021   5.764   8.139  10.844 -2.3219  0.3287 -0.1718
18672SOL     OW58022   9.066   9.117   4.565 -0.1189 -0.0112 -0.1122
18672SOL    HW158023   9.144   9.172   4.554  0.0051 -0.0796  0.3817
18672SOL    HW258024   9.066   9.059   4.489 -0.6181  1.1130 -0.9979
18673SOL     OW58025   2.653   1.407   5.327  0.6130  0.5316  0.0716
18673SOL    HW158026   2.676   1.368   5.243  2.8625 -0.7952  1.1907
18673SOL    HW258027   2.708   1.485   5.334  0.6664  0.4659  0.4229
18674SOL     OW58028   0.819  10.017   0.966  0.5627 -0.1757  0.2548
18674SOL    HW158029   0.876  10.090   0.990 -0.0848  0.8295 -1.1284
18674SOL    HW258030   0.859   9.941   1.008  2.7641  0.5274 -0.4175
18675SOL     OW58031   5.138   9.628   6.629 -0.3579 -0.1689  0.3985
18675SOL    HW158032   5.094   9.634   6.544  1.0719 -1.8544 -0.5405
18675SOL    HW258033   5.067   9.607   6.691 -1.1357 -1.0752 -0.7516
18676SOL     OW58034   4.534   5.717   3.218  0.0476  0.4612  0.1407
18676SOL    HW158035   4.593   5.784   3.252 -1.0229  0.4009  2.3531
18676SOL    HW258036   4.460   5.766   3.183 -0.8333  0.4990  1.9516
18677SOL     OW58037   5.971   8.196   3.244  0.5511  0.4956  0.0276
18677SOL    HW158038   5.974   8.257   3.318 -0.7857 -1.2295  1.5805
18677SOL    HW258039   5.878   8.185   3.225  0.5866 -2.3968  1.0350
18678SOL     OW58040   4.508   2.995   2.061  0.2824  0.2887 -0.2272
18678SOL    HW158041   4.526   2.914   2.013  0.3112  0.3286 -0.2836
18678SOL    HW258042   4.424   3.025   2.027 -0.0019 -0.0178  0.1988
18679SOL     OW58043   4.059   9.365   4.735  0.1675  0.0395  0.4089
18679SOL    HW158044   4.038   9.272   4.726  0.6943  0.0255 -0.8050
18679SOL    HW258045   4.155   9.367   4.744  0.0284  0.3583  2.2007
18680SOL     OW58046   5.069  10.961   3.276 -1.1309  0.3523  0.0268
18680SOL    HW158047   5.153  10.989   3.238 -1.4222  1.3429  0.0710
18680SOL    HW258048   5.085  10.960   3.370 -0.5760 -1.5386 -0.0503
18681SOL     OW58049   6.949   5.646   4.058  0.3820  0.0858 -0.0515
18681SOL    HW158050   6.855   5.634   4.042  0.0254  0.0523  1.8515
18681SOL    HW258051   6.962   5.741   4.053 -0.1185  0.2528  1.3344
18682SOL     OW58052   2.064   7.377   2.855 -0.2429 -0.3615  0.6519
18682SOL    HW158053   2.067   7.327   2.936  0.6297 -1.0957  0.1844
18682SOL    HW258054   2.081   7.313   2.786  1.2330  0.6080  0.0613
18683SOL     OW58055   7.642   9.710   9.529  0.2003  0.2874  0.1974
18683SOL    HW158056   7.634   9.741   9.619  2.6664  2.3886 -0.1665
18683SOL    HW258057   7.577   9.760   9.480  0.1650  0.5830  0.5421
18684SOL     OW58058   5.374   4.353   7.144 -0.1737 -0.5727  0.7101
18684SOL    HW158059   5.390   4.429   7.200 -1.0315  0.3550 -0.2557
18684SOL    HW258060   5.286   4.367   7.109  1.3151  0.4520 -3.1626
18685SOL     OW58061   5.246   4.465   3.150 -0.5316 -0.2536  0.7432
18685SOL    HW158062   5.232   4.552   3.189  1.6176 -0.1532  1.4205
18685SOL    HW258063   5.223   4.404   3.220  0.1951 -0.1548  1.0763
18686SOL     OW58064   3.527   5.042   8.875  0.1362  0.8225 -0.0973
18686SOL    HW158065   3.490   5.101   8.809 -1.3236  0.0620 -0.0091
18686SOL    HW258066   3.614   5.077   8.893  0.3464  1.3943 -1.9969
18687SOL     OW58067   1.715   9.956   0.538  0.2993  0.0899  0.1461
18687SOL    HW158068   1.740  10.000   0.620 -1.3092 -0.2030  0.8220
18687SOL    HW258069   1.700   9.865   0.564 -0.8679  0.1348 -0.3322
18688SOL     OW58070   2.005   0.997   9.434  1.1146  0.2927  0.1340
18688SOL    HW158071   2.024   0.941   9.509  1.7753  0.8863  0.4183
18688SOL    HW258072   1.931   1.051   9.461 -1.1795 -2.0324 -0.9771
18689SOL     OW58073   5.105   5.125   6.131  0.7876  0.4430 -0.1186
18689SOL    HW158074   5.128   5.202   6.182  0.2669 -0.1104  0.9920
18689SOL    HW258075   5.179   5.113   6.072  1.8486  0.5994  1.1198
18690SOL     OW58076   8.731   6.756   5.297 -0.6140 -0.5008  0.3056
18690SOL    HW158077   8.775   6.820   5.242 -0.9406 -1.0143 -0.5864
18690SOL    HW258078   8.680   6.808   5.359  0.0769  0.0899  0.3872
18691SOL     OW58079   8.607   8.194   2.037 -0.3008  0.6355  0.0212
18691SOL    HW158080   8.541   8.262   2.052 -1.8392 -0.6756 -0.5330
18691SOL    HW258081   8.573   8.117   2.083 -0.3066 -0.7023 -2.0811
18692SOL     OW58082   1.756   4.622   1.518 -0.2895 -0.4001  0.6518
18692SOL    HW158083   1.758   4.547   1.577  0.5159  0.5010  1.8269
18692SOL    HW258084   1.848   4.642   1.501 -0.5043 -0.2458 -0.4042
18693SOL     OW58085   8.288   7.236  10.742  0.1512  0.2409 -0.4499
18693SOL    HW158086   8.357   7.302  10.739  0.5192  0.1498  2.8197
18693SOL    HW258087   8.207   7.287  10.731  0.5648  0.5008 -2.9833
18694SOL     OW58088   6.411   1.699   5.361  0.3433 -0.3502 -0.5401
18694SOL    HW158089   6.482   1.763   5.374  1.6108 -1.6587 -0.8245
18694SOL    HW258090   6.347   1.747   5.308  1.4259  0.5921 -1.0693
18695SOL     OW58091   3.591   2.112   4.761 -0.0425  0.3054 -0.1632
18695SOL    HW158092   3.560   2.166   4.834 -1.6799 -1.0285  0.2126
18695SOL    HW258093   3.577   2.167   4.683 -1.4150  0.5631  0.2292
18696SOL     OW58094   2.725   0.422   5.759  0.5373  0.2143  0.2842
18696SOL    HW158095   2.678   0.393   5.837 -1.1669 -1.4012 -1.2371
18696SOL    HW258096   2.798   0.361   5.751 -0.3723 -0.8325 -0.3600
18697SOL     OW58097   4.631   7.722   5.564 -0.1292 -0.5838 -0.0685
18697SOL    HW158098   4.616   7.657   5.496  0.4148  0.4973 -1.2667
18697SOL    HW258099   4.724   7.713   5.585  0.0409  0.0588 -0.5250
18698SOL     OW58100   3.061   2.486   5.103  0.5963 -0.7116  0.1093
18698SOL    HW158101   3.091   2.539   5.177  1.7145 -0.5202 -0.4592
18698SOL    HW258102   3.140   2.441   5.072  0.4362  0.1635 -1.7281
18699SOL     OW58103   6.383  10.320  10.967  0.1026 -0.0313  0.6327
18699SOL    HW158104   6.296  10.359  10.968 -0.0279 -0.2870 -0.2264
18699SOL    HW258105   6.369  10.229  10.941  0.6900  0.1114 -0.2139
18700SOL     OW58106   1.960   4.928   7.795 -0.1780 -0.4415 -0.4449
18700SOL    HW158107   2.028   4.988   7.825  0.8963 -1.0189 -1.6097
18700SOL    HW258108   1.878   4.977   7.802  0.5590  0.8187 -0.4969
18701SOL     OW58109   4.235   9.298   4.207  0.2258 -0.0186  0.3636
18701SOL    HW158110   4.299   9.245   4.254  0.6531 -1.1811 -1.4289
18701SOL    HW258111   4.266   9.298   4.117 -2.2041 -0.4689 -0.5244
18702SOL     OW58112  10.401   3.565   7.266 -0.0667 -0.1145  0.3161
18702SOL    HW158113  10.461   3.525   7.203  0.8291 -0.3686  1.2865
18702SOL    HW258114  10.412   3.659   7.254 -1.7810 -0.0985 -1.6045
18703SOL     OW58115   6.350   9.387   9.598 -0.3932  0.1481  0.3033
18703SOL    HW158116   6.309   9.420   9.518  0.3818  1.8280  0.5531
18703SOL    HW258117   6.433   9.349   9.568 -1.1852 -1.4486  0.0435
18704SOL     OW58118   0.353   9.360   4.878  0.3600 -0.0738  0.2898
18704SOL    HW158119   0.267   9.401   4.886 -0.6655 -2.1676  0.7947
18704SOL    HW258120   0.336   9.266   4.891  2.7256 -0.5508  0.4084
18705SOL     OW58121   8.211   9.772   2.925 -0.0964  0.3281 -0.1965
18705SOL    HW158122   8.122   9.779   2.959  0.1057 -0.7229  0.6156
18705SOL    HW258123   8.202   9.784   2.831 -1.4668 -2.1636 -0.4582
18706SOL     OW58124   5.016   5.180   1.936  0.1575 -1.0257  0.0062
18706SOL    HW158125   5.050   5.257   1.891 -0.5072 -1.4695 -1.3168
18706SOL    HW258126   5.093   5.139   1.975  0.7259 -0.4709 -0.5020
18707SOL     OW58127   0.131   6.096  10.198 -0.0444 -0.2964 -0.1227
18707SOL    HW158128   0.162   6.056  10.279  0.2039 -2.7645 -1.3237
18707SOL    HW258129   0.040   6.119  10.216 -0.3085 -1.7463  0.5931
18708SOL     OW58130   1.903   1.336   3.425 -0.1367  0.0318  0.8526
18708SOL    HW158131   1.898   1.394   3.501 -2.3113  0.2706  0.5901
18708SOL    HW258132   1.866   1.253   3.456 -0.6915  0.0181  0.1628
18709SOL     OW58133   1.851   6.286   1.098 -0.5141  0.0683 -0.8858
18709SOL    HW158134   1.919   6.354   1.104 -0.7152  0.3115 -1.3456
18709SOL    HW258135   1.893   6.215   1.048 -0.0422 -0.4800  0.2500
18710SOL     OW58136  10.502   6.962   0.508  0.4812  0.2163 -0.3431
18710SOL    HW158137  10.584   7.007   0.489  1.6529 -1.3774  0.7041
18710SOL    HW258138  10.520   6.870   0.488 -1.1231 -0.1352 -0.2930
18711SOL     OW58139   9.406  10.567   3.835  0.3797  0.1896 -0.5286
18711SOL    HW158140   9.457  10.643   3.861  0.8022 -0.4786  0.6853
18711SOL    HW258141   9.364  10.537   3.916  1.0188 -1.4348 -0.7481
18712SOL     OW58142   0.261   6.583  10.659  0.1915  0.1635 -0.0384
18712SOL    HW158143   0.312   6.502  10.650  0.4920  0.1040  1.8096
18712SOL    HW258144   0.242   6.589  10.752 -0.3311  1.9371 -0.2194
18713SOL     OW58145   5.374   4.307   4.392 -0.0582  0.0755  0.3933
18713SOL    HW158146   5.333   4.264   4.466 -1.5446  0.0861 -0.3818
18713SOL    HW258147   5.319   4.284   4.317  0.6579  1.1099 -0.4908
18714SOL     OW58148   2.340   2.489   5.698  0.2747  0.3545 -0.0637
18714SOL    HW158149   2.327   2.432   5.774  0.0339 -0.1536 -0.4851
18714SOL    HW258150   2.345   2.430   5.623  0.2503  0.8717 -0.4816
18715SOL     OW58151  10.432   1.859   8.490  0.3579 -0.3371  0.0699
18715SOL    HW158152  10.354   1.816   8.456  0.0181  0.6618 -0.4294
18715SOL    HW258153  10.463   1.914   8.418  1.5209 -0.7175  0.2611
18716SOL     OW58154   2.635   4.479   4.892  0.7298 -0.3853 -0.1236
18716SOL    HW158155   2.596   4.495   4.978 -0.5903 -0.5427 -0.6700
18716SOL    HW258156   2.628   4.385   4.879  0.4465 -0.2962 -0.6293
18717SOL     OW58157   5.368   9.079   4.813 -0.1720 -0.8056 -0.3307
18717SOL    HW158158   5.381   9.024   4.890 -1.4039 -1.5014 -0.5923
18717SOL    HW258159   5.310   9.149   4.844 -0.1400 -0.7230 -0.4582
18718SOL     OW58160   2.157   2.480   1.793 -0.0766  0.4760 -0.0267
18718SOL    HW158161   2.161   2.386   1.808  1.4025  0.8429  2.2835
18718SOL    HW258162   2.064   2.502   1.807 -0.4157 -0.5847 -0.4852
18719SOL     OW58163   9.633   3.936   5.220 -0.6754 -0.6593 -0.7072
18719SOL    HW158164   9.661   3.845   5.228  1.0400 -0.1401 -0.2928
18719SOL    HW258165   9.702   3.978   5.169 -1.0982  0.5495 -0.3136
18720SOL     OW58166   1.036   7.706   6.918 -0.1129  0.6966 -0.0997
18720SOL    HW158167   0.970   7.639   6.903 -0.7435  1.0073  1.1585
18720SOL    HW258168   1.079   7.717   6.833  1.8977 -3.2317  0.1701
18721SOL     OW58169   1.576   5.227   7.804 -0.3335 -0.1300  0.2306
18721SOL    HW158170   1.638   5.283   7.758 -1.3692  1.3431  0.5628
18721SOL    HW258171   1.539   5.171   7.736  0.2543  0.0194 -0.2223
18722SOL     OW58172   8.495   5.005   4.864  0.3665  0.1997  0.0160
18722SOL    HW158173   8.486   5.061   4.788  1.9397  0.0145 -0.3390
18722SOL    HW258174   8.555   4.936   4.837  0.3820 -0.2844  1.1940
18723SOL     OW58175   8.579   8.941   2.537  0.3558 -0.3615 -0.0037
18723SOL    HW158176   8.542   8.980   2.617  1.8891  1.4609 -0.1075
18723SOL    HW258177   8.504   8.901   2.493 -1.1803  1.6067  0.6704
18724SOL     OW58178   3.197   7.349   7.687  0.2443 -0.1561  0.4970
18724SOL    HW158179   3.262   7.418   7.701 -0.8606  0.6453  1.9775
18724SOL    HW258180   3.189   7.306   7.772 -1.2427 -0.1384  0.4019
18725SOL     OW58181   5.511   0.293   6.090 -0.2304 -0.3704  0.1448
18725SOL    HW158182   5.512   0.248   6.005 -1.2863 -1.5063  0.7113
18725SOL    HW258183   5.604   0.304   6.112  0.0510 -0.9393 -0.7077
18726SOL     OW58184   2.724   2.547   3.884 -0.3887  0.3916  0.1691
18726SOL    HW158185   2.805   2.599   3.883 -0.0822 -0.0890 -0.1280
18726SOL    HW258186   2.711   2.524   3.976 -0.0207  0.2107  0.1759
18727SOL     OW58187   3.603  10.933   0.827 -0.2719  0.2056  0.1425
18727SOL    HW158188   3.642  10.970   0.906 -0.9844 -1.3403  1.2765
18727SOL    HW258189   3.678  10.904   0.774  0.2818  2.6867 -0.5598
18728SOL     OW58190   0.081   6.636   2.669 -0.4358 -0.1925 -0.4136
18728SOL    HW158191   0.088   6.671   2.581  0.7839  0.3328 -0.1299
18728SOL    HW258192   0.156   6.577   2.678 -0.5358 -0.2280  0.2846
18729SOL     OW58193   2.843   7.146   4.434  0.2733 -0.0258 -0.0403
18729SOL    HW158194   2.813   7.181   4.518 -1.9257 -0.5559 -0.5393
18729SOL    HW258195   2.863   7.223   4.381 -2.3158  0.5124 -0.3650
18730SOL     OW58196   9.757   1.427   5.633  0.2377  0.6084 -0.1497
18730SOL    HW158197   9.737   1.340   5.597  0.0507  1.3583 -1.9835
18730SOL    HW258198   9.843   1.449   5.596  0.8379  0.7444  1.2531
18731SOL     OW58199   6.972   1.083   4.714 -0.1915 -0.5209  0.6268
18731SOL    HW158200   6.998   1.157   4.769 -0.9012 -0.8069  1.3876
18731SOL    HW258201   6.883   1.062   4.744 -1.7400  0.9939 -2.4449
18732SOL     OW58202   8.830  10.841   4.047 -0.0867  0.3319  0.6820
18732SOL    HW158203   8.767  10.860   3.978 -1.0607  0.3146  1.5496
18732SOL    HW258204   8.908  10.812   4.000 -0.3628  1.3365 -0.4491
18733SOL     OW58205   4.815   2.496   0.209  0.3473  0.8818  0.4503
18733SOL    HW158206   4.837   2.407   0.234 -0.0397  0.4400 -0.7284
18733SOL    HW258207   4.740   2.519   0.263  0.3772  0.4604  0.6734
18734SOL     OW58208   9.760   3.622   6.419 -0.8647 -0.1378 -0.0551
18734SOL    HW158209   9.798   3.536   6.439  1.4892  0.8126 -0.0313
18734SOL    HW258210   9.749   3.663   6.505  3.0662  1.4648 -0.0698
18735SOL     OW58211  10.828   3.847   2.553 -0.5548  1.1092 -0.0729
18735SOL    HW158212  10.847   3.930   2.510  1.1285  0.4352 -0.6661
18735SOL    HW258213  10.868   3.780   2.498 -1.0861 -0.0425  0.8786
18736SOL     OW58214   3.996   0.952   8.706  0.4834  0.2083  0.0118
18736SOL    HW158215   4.072   0.916   8.752  0.5685 -0.5936 -0.7342
18736SOL    HW258216   4.017   1.045   8.694  1.2383  0.0459  0.0370
18737SOL     OW58217   6.094   9.156   6.274  0.0150  0.1269  0.8093
18737SOL    HW158218   6.015   9.139   6.326 -1.7097 -0.4174 -1.7634
18737SOL    HW258219   6.061   9.173   6.186  2.6859  2.2528  0.0815
18738SOL     OW58220   5.273   6.743   0.774  0.6772 -0.4516 -0.1466
18738SOL    HW158221   5.295   6.662   0.820  0.9736 -0.5899 -0.5264
18738SOL    HW258222   5.234   6.799   0.842 -0.6132 -1.3371 -0.1374
18739SOL     OW58223   4.976   8.789   6.807  0.2502  0.5373 -0.1560
18739SOL    HW158224   4.908   8.856   6.805 -1.9002 -1.5469 -0.7829
18739SOL    HW258225   5.001   8.783   6.899 -1.5488  0.2940  0.3532
18740SOL     OW58226   3.573  10.146   0.747  0.8778  0.2509  0.4643
18740SOL    HW158227   3.619  10.062   0.754  0.2884 -0.0283  1.1016
18740SOL    HW258228   3.641  10.212   0.762  1.2133 -0.1368  0.6770
18741SOL     OW58229   7.282   7.953  10.818 -0.1760 -0.2740  0.5392
18741SOL    HW158230   7.339   7.931  10.744 -2.4136 -0.6667 -1.1491
18741SOL    HW258231   7.238   7.872  10.840 -2.0364  0.5581  0.0444
18742SOL     OW58232   7.802   6.984  10.771 -0.1062 -0.2015  0.1837
18742SOL    HW158233   7.865   7.036  10.821 -1.2345  1.0731  0.3274
18742SOL    HW258234   7.738   6.955  10.835 -1.2618  0.9851 -0.4080
18743SOL     OW58235   5.212   5.737   3.234 -0.5517  0.0009 -0.2853
18743SOL    HW158236   5.149   5.699   3.172 -2.5931  2.2609  0.2552
18743SOL    HW258237   5.162   5.744   3.316  1.2163 -0.3273  0.8726
18744SOL     OW58238   6.338   5.096   2.399 -0.0294 -0.2563 -0.1284
18744SOL    HW158239   6.297   5.178   2.424 -2.4191 -0.6860 -2.2531
18744SOL    HW258240   6.366   5.109   2.308 -0.0913 -1.6262 -0.3738
18745SOL     OW58241   0.308   9.078   7.848  0.6651  0.1468  0.1820
18745SOL    HW158242   0.340   8.995   7.883 -0.0937  0.7841  2.5919
18745SOL    HW258243   0.282   9.129   7.926  0.4483  2.3710 -1.2435
18746SOL     OW58244   6.003   6.399   1.652 -0.2772 -0.2841 -0.1830
18746SOL    HW158245   6.007   6.403   1.557  1.2052  2.2073 -0.1150
18746SOL    HW258246   5.954   6.477   1.677 -2.1962 -1.8036  1.1064
18747SOL     OW58247   6.424   7.880  10.123  0.2596  0.4942 -0.2940
18747SOL    HW158248   6.448   7.930  10.201  1.0676  1.3361 -1.0579
18747SOL    HW258249   6.445   7.938  10.050 -0.3815 -0.3182 -1.1534
18748SOL     OW58250   6.341   8.396   2.193  0.6339  0.0257  0.7072
18748SOL    HW158251   6.423   8.429   2.156  0.3649 -0.2912 -0.2218
18748SOL    HW258252   6.321   8.455   2.265  0.1058  1.9884 -0.9777
18749SOL     OW58253   7.824   3.751   3.987 -0.0545  0.0825 -0.7425
18749SOL    HW158254   7.858   3.747   3.898 -2.1380 -0.5522 -1.5779
18749SOL    HW258255   7.830   3.661   4.019 -2.7592 -0.5437 -1.7135
18750SOL     OW58256   1.238   7.388   8.324  0.0298  0.4459 -0.3289
18750SOL    HW158257   1.267   7.349   8.406  0.2283  0.7140 -0.2715
18750SOL    HW258258   1.318   7.411   8.277 -0.0638  1.7732  0.1138
18751SOL     OW58259   6.047   1.233  10.814 -0.5673  0.0670 -0.2712
18751SOL    HW158260   6.138   1.233  10.785 -0.9035 -0.7134 -1.4156
18751SOL    HW258261   6.008   1.309  10.770 -0.0991  1.4854  1.6168
18752SOL     OW58262   7.257   0.828   7.525 -0.1394 -0.0537 -0.1162
18752SOL    HW158263   7.191   0.802   7.590 -0.7727 -0.0456 -0.7471
18752SOL    HW258264   7.236   0.919   7.505 -0.5687 -0.3466 -1.0577
18753SOL     OW58265   8.810   9.662   3.271 -0.5671  0.0865 -0.6024
18753SOL    HW158266   8.836   9.589   3.215 -1.9399  0.4952 -1.8497
18753SOL    HW258267   8.844   9.640   3.358  0.2674 -1.3298 -1.2647
18754SOL     OW58268   0.800   3.189   4.181  0.4756 -0.3569  0.0993
18754SOL    HW158269   0.795   3.118   4.117 -3.1970 -0.5134  0.3399
18754SOL    HW258270   0.857   3.155   4.250  0.8870 -1.9702 -0.9779
18755SOL     OW58271   6.660   5.571   4.456 -0.1246 -0.0420 -0.6419
18755SOL    HW158272   6.681   5.665   4.452  1.3711 -0.3482 -0.4552
18755SOL    HW258273   6.608   5.562   4.536  0.3429  0.5333 -0.2573
18756SOL     OW58274   1.790   0.614   0.059 -0.9919 -0.8002  0.3453
18756SOL    HW158275   1.804   0.582  -0.030  1.2673 -0.6683  0.5807
18756SOL    HW258276   1.807   0.538   0.115 -2.6577 -0.9507  0.6875
18757SOL     OW58277   6.086   8.702   1.376 -0.3119  0.0422  0.7168
18757SOL    HW158278   6.003   8.748   1.373  0.3525  1.3681  1.4796
18757SOL    HW258279   6.071   8.627   1.433 -1.2288 -0.2899  0.0490
18758SOL     OW58280   6.365   8.566   7.178  0.6231  0.2544  0.2524
18758SOL    HW158281   6.310   8.571   7.100  0.6815  0.9624  0.2422
18758SOL    HW258282   6.320   8.622   7.242  1.9924  1.9392 -0.1895
18759SOL     OW58283   8.179   0.050   3.773 -0.4620  0.8306 -0.2216
18759SOL    HW158284   8.135  -0.027   3.738 -0.6852 -1.4727  4.3901
18759SOL    HW258285   8.125   0.077   3.847  2.6416  1.6453  1.9519
18760SOL     OW58286   3.290   9.653   0.577 -0.6613 -0.5210 -0.3052
18760SOL    HW158287   3.276   9.709   0.653  1.0433  0.3380 -0.5760
18760SOL    HW258288   3.203   9.644   0.538 -1.9191 -2.3003  2.5471
18761SOL     OW58289   1.738   8.267   2.363  0.2866  0.1097  0.0357
18761SOL    HW158290   1.646   8.288   2.350  0.5681  1.0753 -0.4822
18761SOL    HW258291   1.785   8.334   2.315  1.2742 -0.1364  0.6250
18762SOL     OW58292   2.091   9.380   3.780 -0.1923 -0.5919 -0.6212
18762SOL    HW158293   2.152   9.446   3.814 -2.3047  0.4878  1.4148
18762SOL    HW258294   2.026   9.431   3.732 -1.3903 -1.2257  0.2532
18763SOL     OW58295   8.099   2.645   0.217  0.2776  0.0064  0.0188
18763SOL    HW158296   8.036   2.716   0.202  1.2756  0.8419 -0.3409
18763SOL    HW258297   8.045   2.572   0.247 -0.5623  1.6663  2.9559
18764SOL     OW58298   6.587   7.501   5.073 -0.0494  0.8112 -0.3162
18764SOL    HW158299   6.590   7.407   5.088  0.6220  0.6064 -1.5781
18764SOL    HW258300   6.571   7.539   5.159 -0.9376 -0.4813  0.1171
18765SOL     OW58301  10.586   0.374   2.536  0.3392 -0.1055  0.2476
18765SOL    HW158302  10.671   0.393   2.498  0.3969 -1.1490 -0.1849
18765SOL    HW258303  10.583   0.279   2.542  0.0169 -0.0171  2.1556
18766SOL     OW58304   9.466   7.458   7.753  0.7835 -0.0376 -0.0998
18766SOL    HW158305   9.429   7.377   7.719 -2.2680  0.4808  1.5733
18766SOL    HW258306   9.496   7.436   7.841  1.2873  0.3319 -0.1738
18767SOL     OW58307   3.578   3.675   6.546 -0.5415  0.1661  0.3807
18767SOL    HW158308   3.603   3.675   6.638 -1.2295 -1.0106  0.5997
18767SOL    HW258309   3.549   3.764   6.528  2.2768  1.1937  0.5077
18768SOL     OW58310   5.476   6.452   1.152  0.1029  0.3465 -0.1865
18768SOL    HW158311   5.442   6.539   1.170  1.5800  0.8816  0.2117
18768SOL    HW258312   5.569   6.457   1.176  0.3769 -1.1408 -0.7936
18769SOL     OW58313   2.451   5.511   4.066 -0.0914 -0.8012 -0.1488
18769SOL    HW158314   2.465   5.446   4.136 -3.9503 -1.1410  0.5428
18769SOL    HW258315   2.452   5.595   4.111  0.9964 -0.6801 -0.3697
18770SOL     OW58316   8.633   0.035  10.955  0.0612  0.6150  0.3840
18770SOL    HW158317   8.557   0.092  10.955 -1.7312 -1.6277 -0.1696
18770SOL    HW258318   8.665   0.039  10.865  0.2655  1.1287  0.4774
18771SOL     OW58319   1.871   3.631   5.520 -0.0412  0.1013 -0.4037
18771SOL    HW158320   1.806   3.693   5.487  1.2404  0.9563 -1.4532
18771SOL    HW258321   1.955   3.677   5.509  0.7726 -1.0896  0.5886
18772SOL     OW58322   3.645   6.675   4.496 -0.2505  0.1924 -1.1179
18772SOL    HW158323   3.585   6.607   4.466 -0.1543 -0.7793  0.7500
18772SOL    HW258324   3.590   6.733   4.549 -0.1070  0.9950 -1.8165
18773SOL     OW58325   3.445   8.630   2.733 -0.0233 -0.0536 -0.4143
18773SOL    HW158326   3.382   8.702   2.730 -1.1536 -0.9451  0.7953
18773SOL    HW258327   3.447   8.596   2.643 -2.8092 -1.2103 -0.1437
18774SOL     OW58328   5.153   2.413   5.274 -0.0384  0.3704 -0.7753
18774SOL    HW158329   5.135   2.325   5.308  1.0787 -0.2358 -1.6920
18774SOL    HW258330   5.170   2.465   5.352 -0.7361 -0.2008 -0.2128
18775SOL     OW58331   8.970   2.768   1.102 -0.4821  0.2766  0.1571
18775SOL    HW158332   8.879   2.797   1.098 -0.1161  1.3681 -0.9067
18775SOL    HW258333   8.985   2.723   1.019 -0.4386 -1.2276  0.9297
18776SOL     OW58334   2.294   6.461   5.090  0.1144  0.5490  0.2566
18776SOL    HW158335   2.249   6.474   5.173 -1.1012 -3.3390  0.4088
18776SOL    HW258336   2.371   6.409   5.113 -1.3526 -2.4805 -1.0926
18777SOL     OW58337   4.226   3.962   5.098 -0.0931 -0.5843  0.0183
18777SOL    HW158338   4.251   3.970   5.006 -1.3394  1.5401 -0.1742
18777SOL    HW258339   4.138   3.998   5.103 -0.5418 -1.7849  1.8628
18778SOL     OW58340   3.578   8.924  10.476 -1.3926  0.3700  0.1563
18778SOL    HW158341   3.567   9.004  10.425  0.6567  0.0164 -0.9520
18778SOL    HW258342   3.534   8.856  10.426  2.0273 -0.3188 -2.2541
18779SOL     OW58343   0.735   9.656   7.181  0.3157  0.1353  0.1370
18779SOL    HW158344   0.791   9.699   7.246  0.6338 -0.1073  0.0215
18779SOL    HW258345   0.787   9.655   7.101  0.4282 -0.7277  0.2105
18780SOL     OW58346   8.836   8.272   2.906  0.1422  0.6243  0.1484
18780SOL    HW158347   8.853   8.181   2.928 -0.0925  0.8295  1.2436
18780SOL    HW258348   8.742   8.284   2.921  0.4038  1.3778  1.3576
18781SOL     OW58349  10.313   6.198   1.148  0.0320  0.1221  0.2780
18781SOL    HW158350  10.328   6.278   1.097  2.8021  0.2056  1.0356
18781SOL    HW258351  10.347   6.127   1.093 -1.2853 -0.4038  0.1180
18782SOL     OW58352   1.021   4.459   3.558  0.7113 -0.2023  0.4695
18782SOL    HW158353   0.993   4.529   3.501  2.2599  0.6630  0.7167
18782SOL    HW258354   1.014   4.380   3.505 -0.0774  0.2654 -0.1402
18783SOL     OW58355   2.574   6.224   3.326  0.2129 -0.0314  0.4227
18783SOL    HW158356   2.577   6.159   3.396  0.3215 -0.8513 -0.3252
18783SOL    HW258357   2.658   6.215   3.282  0.2530  0.6693  0.3505
18784SOL     OW58358   9.401   9.125   5.382  0.4323  0.0695  0.1956
18784SOL    HW158359   9.353   9.206   5.367 -0.9812 -0.5621  1.0501
18784SOL    HW258360   9.411   9.120   5.477  0.1737 -0.9178  0.1863
18785SOL     OW58361   7.607  10.568   9.253  0.0825  0.7926 -1.4054
18785SOL    HW158362   7.658  10.552   9.332 -0.7159 -1.6110 -1.3173
18785SOL    HW258363   7.563  10.651   9.270 -0.3200  0.1876  0.8345
18786SOL     OW58364   6.742  10.709   0.226  0.2030 -0.4158 -0.4131
18786SOL    HW158365   6.674  10.707   0.158  0.6520  0.1223 -0.8912
18786SOL    HW258366   6.715  10.781   0.283  0.5835  0.0775 -0.8421
18787SOL     OW58367   0.860   1.869  10.814 -0.6517 -0.2664 -0.7430
18787SOL    HW158368   0.833   1.843  10.902 -0.8450 -1.9061 -1.2429
18787SOL    HW258369   0.889   1.787  10.773  3.3337  1.0303 -0.8968
18788SOL     OW58370   1.325   5.767   2.115 -0.1318  0.2508 -0.5882
18788SOL    HW158371   1.398   5.726   2.068 -1.0722 -0.6949 -1.2533
18788SOL    HW258372   1.295   5.700   2.176  0.4385  1.1253  0.7130
18789SOL     OW58373   4.291   8.749   4.215  1.0032 -0.3773 -0.2072
18789SOL    HW158374   4.230   8.744   4.142  0.5945  0.4454  0.0721
18789SOL    HW258375   4.239   8.780   4.289  1.5811 -0.4384  0.2364
18790SOL     OW58376   8.334   8.271   6.275 -0.7885 -0.0591 -0.6517
18790SOL    HW158377   8.353   8.236   6.188 -0.3514  0.7077 -0.8758
18790SOL    HW258378   8.420   8.289   6.313 -0.9870 -0.0670 -0.1938
18791SOL     OW58379   3.382   2.869   8.625 -0.2215  0.1467 -0.5071
18791SOL    HW158380   3.342   2.813   8.691 -1.0520  0.2177 -0.9317
18791SOL    HW258381   3.452   2.816   8.587  2.0838  1.0197  2.2205
18792SOL     OW58382   3.509   9.256   9.631 -0.3906  0.5566 -1.0294
18792SOL    HW158383   3.605   9.264   9.637 -0.3690  1.2814 -2.0589
18792SOL    HW258384   3.487   9.187   9.693  0.8728 -0.0265 -1.1954
18793SOL     OW58385   6.463  10.043   6.308  0.2081  0.1676  0.1166
18793SOL    HW158386   6.518  10.106   6.356 -1.5980  1.9411  0.0031
18793SOL    HW258387   6.458  10.079   6.219  0.2501 -0.8997 -0.3294
18794SOL     OW58388   9.642   1.616  10.698 -0.7805 -0.1017 -0.3149
18794SOL    HW158389   9.604   1.528  10.701 -0.1714 -0.3472  1.1577
18794SOL    HW258390   9.732   1.601  10.668 -0.7306  0.0400 -0.2344
18795SOL     OW58391   5.307   9.347   4.305  0.3541 -0.7557  0.0313
18795SOL    HW158392   5.338   9.290   4.376  0.7038  0.7310  1.1195
18795SOL    HW258393   5.243   9.405   4.347  0.4397  0.0464 -0.9109
18796SOL     OW58394  10.932   4.336   1.784  0.1545  0.1181 -0.1108
18796SOL    HW158395  10.935   4.386   1.702 -0.1938 -2.7927 -2.0620
18796SOL    HW258396  10.841   4.307   1.791  0.4700 -0.7275  0.5875
18797SOL     OW58397   7.703   3.142   2.048  0.3405 -0.1286 -0.3936
18797SOL    HW158398   7.772   3.076   2.046 -0.0331 -0.5152 -1.0018
18797SOL    HW258399   7.624   3.094   2.022 -0.2405  0.2144  0.6579
18798SOL     OW58400   9.339   5.944   9.345 -0.5548 -0.3717 -0.4576
18798SOL    HW158401   9.252   5.961   9.381  0.2451 -0.5877  1.7279
18798SOL    HW258402   9.322   5.904   9.259 -2.5909 -0.4468 -0.0701
18799SOL     OW58403   1.675   2.502   4.386 -0.1650 -0.2721  0.2078
18799SOL    HW158404   1.606   2.548   4.339  0.3749 -1.7839 -2.2606
18799SOL    HW258405   1.756   2.544   4.357  0.1411 -0.7542  0.3544
18800SOL     OW58406   1.876   4.407   7.601 -0.4467 -0.0322  0.1048
18800SOL    HW158407   1.906   4.497   7.595 -1.2506  0.2827  0.6954
18800SOL    HW258408   1.782   4.411   7.585 -0.3814 -0.8584 -0.5896
18801SOL     OW58409   6.148   6.752   2.415  0.3287  0.3216 -0.4545
18801SOL    HW158410   6.109   6.813   2.352 -1.3253 -1.6624 -1.4576
18801SOL    HW258411   6.086   6.750   2.488 -1.1654 -2.1977 -1.6757
18802SOL     OW58412   3.260   5.671   8.869 -0.8397 -0.1318 -0.0646
18802SOL    HW158413   3.317   5.687   8.793 -0.1718 -0.6313  0.3254
18802SOL    HW258414   3.318   5.682   8.945 -1.8306  1.8465  0.4582
18803SOL     OW58415   7.029   0.108   6.037 -0.5513  0.1738  0.1830
18803SOL    HW158416   7.055   0.127   5.947 -1.1337 -0.5866 -0.1603
18803SOL    HW258417   7.094   0.151   6.091  0.5763 -0.4707 -0.6261
18804SOL     OW58418   4.379   7.624   2.471 -0.1763  0.5028 -0.1980
18804SOL    HW158419   4.389   7.606   2.564 -1.3154 -0.1351 -0.1758
18804SOL    HW258420   4.415   7.547   2.427  0.6620  0.9485 -0.2980
18805SOL     OW58421   1.299   3.898   6.155 -0.2775  0.2449  0.5217
18805SOL    HW158422   1.330   3.812   6.182  1.2755  0.3967 -0.6332
18805SOL    HW258423   1.204   3.893   6.161 -0.2131 -1.5544  0.4648
18806SOL     OW58424   4.337   4.238   6.582 -0.2289  0.3654 -0.8046
18806SOL    HW158425   4.383   4.276   6.507  0.5049 -0.6836 -0.9109
18806SOL    HW258426   4.267   4.186   6.543  1.3711 -1.8270 -0.9327
18807SOL     OW58427   3.681   9.425   5.299 -0.6148  0.1808  0.3700
18807SOL    HW158428   3.750   9.387   5.352 -1.3471 -0.7087  0.7121
18807SOL    HW258429   3.623   9.468   5.362  0.7909  2.9420 -0.0830
18808SOL     OW58430  10.480   2.136   3.463  0.3278 -0.3737 -0.3422
18808SOL    HW158431  10.405   2.076   3.465  0.1320 -0.1132  0.2286
18808SOL    HW258432  10.452   2.211   3.515  1.1877 -0.5087  0.3322
18809SOL     OW58433   1.853   6.761   2.739  0.3287  0.0210  0.2817
18809SOL    HW158434   1.791   6.813   2.688 -0.3509 -1.0015  0.0518
18809SOL    HW258435   1.936   6.808   2.729 -0.6229  2.1166  1.6402
18810SOL     OW58436   2.719   8.663   4.342 -0.3229 -0.0996  0.3347
18810SOL    HW158437   2.706   8.657   4.247 -1.8722  0.9412  0.4355
18810SOL    HW258438   2.743   8.575   4.369  0.9832 -0.2410 -1.1235
18811SOL     OW58439   4.764   8.505   0.850 -0.1913 -0.1648  0.4095
18811SOL    HW158440   4.705   8.579   0.861  1.4937  1.6588 -1.7866
18811SOL    HW258441   4.740   8.444   0.919 -3.7158  1.0258  0.4200
18812SOL     OW58442   0.561   6.375   9.228 -0.2646  0.3407  0.3433
18812SOL    HW158443   0.625   6.389   9.157 -0.5748 -0.2638 -0.0663
18812SOL    HW258444   0.595   6.427   9.301  0.2278  0.7316 -0.1489
18813SOL     OW58445   1.158   4.705   1.153  0.3132 -0.4298 -0.1475
18813SOL    HW158446   1.072   4.745   1.168 -0.1770 -0.4847 -2.4491
18813SOL    HW258447   1.218   4.778   1.143  0.2944 -0.3696  0.1718
18814SOL     OW58448   5.205   5.356   3.309  0.0288 -0.3271  0.2142
18814SOL    HW158449   5.171   5.304   3.382 -0.6746 -0.8967 -0.4987
18814SOL    HW258450   5.298   5.364   3.326 -0.2092 -0.0106  1.4402
18815SOL     OW58451   2.384   7.850   2.373  0.3934  0.2247  0.3607
18815SOL    HW158452   2.354   7.820   2.459  1.8462  0.0058  0.8298
18815SOL    HW258453   2.463   7.901   2.393  0.8651 -0.0140 -0.8657
18816SOL     OW58454   1.233   6.264   2.604  0.1326  0.4289 -0.4798
18816SOL    HW158455   1.173   6.190   2.614 -1.7085  1.9154 -0.0353
18816SOL    HW258456   1.312   6.226   2.565  0.4073 -2.2676  2.3542
18817SOL     OW58457   3.818   9.960   7.751  0.2402 -0.3774  0.2314
18817SOL    HW158458   3.727   9.949   7.778  0.0984 -0.6280 -0.3288
18817SOL    HW258459   3.840  10.050   7.774  0.5341 -0.9245  2.3542
18818SOL     OW58460   6.384   9.665   6.975 -0.1810 -0.3991  0.4105
18818SOL    HW158461   6.349   9.623   6.897 -0.1210 -0.1309  0.2355
18818SOL    HW258462   6.381   9.759   6.955  2.0502 -0.3917 -0.2492
18819SOL     OW58463   0.983   4.369   3.817 -0.5856  0.2939  0.4339
18819SOL    HW158464   0.962   4.278   3.796  0.4952  0.0836  0.2322
18819SOL    HW258465   0.966   4.418   3.736  0.6543 -0.0369 -0.0428
18820SOL     OW58466   8.526   3.547   5.571 -0.5755 -0.4016  0.1857
18820SOL    HW158467   8.543   3.471   5.626 -1.0699 -0.9161 -0.3493
18820SOL    HW258468   8.506   3.617   5.632 -0.4264 -0.7843  0.6772
18821SOL     OW58469   5.850   7.921   2.256 -0.4671  0.1621  0.6707
18821SOL    HW158470   5.881   8.011   2.264 -0.1981  0.0160  1.4223
18821SOL    HW258471   5.918   7.877   2.205  0.1481  0.0531  1.5510
18822SOL     OW58472   8.817   0.202   6.152 -0.0608  0.0400  0.2519
18822SOL    HW158473   8.732   0.208   6.196  0.3853 -1.9536  1.5325
18822SOL    HW258474   8.880   0.194   6.224  0.7690 -2.6144 -0.6422
18823SOL     OW58475   4.264   3.476   1.746  0.0605 -0.1102 -0.1075
18823SOL    HW158476   4.190   3.444   1.797 -0.9512  0.4692 -1.1602
18823SOL    HW258477   4.303   3.398   1.708  1.1456 -0.6129  1.8792
18824SOL     OW58478   6.235   2.957   6.053  0.0958  0.3400 -0.6099
18824SOL    HW158479   6.192   2.950   6.139 -0.7996 -1.9549 -1.1597
18824SOL    HW258480   6.301   2.888   6.054  0.8488  1.0350 -1.3737
18825SOL     OW58481   4.354  10.703   5.309  0.0999 -0.0613 -0.0894
18825SOL    HW158482   4.426  10.684   5.248 -1.4166 -0.9632 -1.7030
18825SOL    HW258483   4.393  10.692   5.395  2.1456  0.4832 -0.8721
18826SOL     OW58484   9.064  10.350   3.937 -0.0253 -0.4608 -0.1435
18826SOL    HW158485   9.028  10.292   4.003 -0.1713  1.5843  1.6782
18826SOL    HW258486   9.066  10.297   3.857 -1.9235 -2.3356  0.9520
18827SOL     OW58487   9.152   0.866   5.522 -0.0747  0.5391  0.1225
18827SOL    HW158488   9.079   0.850   5.462 -0.6815 -0.3271  1.0647
18827SOL    HW258489   9.228   0.831   5.476 -0.3827  0.6837 -0.5107
18828SOL     OW58490   2.511   8.247   9.686  0.9503  0.0835  0.4584
18828SOL    HW158491   2.504   8.343   9.691 -0.9510  0.0176  0.0883
18828SOL    HW258492   2.526   8.220   9.777 -1.7763  0.6125  1.1703
18829SOL     OW58493   8.555   3.099   3.766 -0.0719 -0.4497  0.6028
18829SOL    HW158494   8.502   3.152   3.707  0.7152 -0.2032  0.1009
18829SOL    HW258495   8.509   3.105   3.850 -1.6960 -1.5447 -0.1583
18830SOL     OW58496   2.745   5.688   4.381  0.0065  0.0527  0.6306
18830SOL    HW158497   2.765   5.678   4.474 -1.5310  0.3995  1.0219
18830SOL    HW258498   2.796   5.764   4.354 -0.6613  0.8719  1.5743
18831SOL     OW58499   1.974   0.880   4.874 -0.2994 -0.0248 -0.2671
18831SOL    HW158500   1.893   0.894   4.825 -0.0804  0.4535 -0.5008
18831SOL    HW258501   2.043   0.896   4.810 -0.0007 -2.3265 -0.6067
18832SOL     OW58502   8.352  10.302   9.571  0.3026 -0.3684 -0.4752
18832SOL    HW158503   8.421  10.327   9.510  0.6527 -0.1297  0.0064
18832SOL    HW258504   8.321  10.386   9.607  0.2078 -0.5141 -0.2148
18833SOL     OW58505   4.625   3.880   4.377  0.3184 -0.4578 -0.2119
18833SOL    HW158506   4.682   3.809   4.346  1.4755 -0.4755  1.7401
18833SOL    HW258507   4.645   3.886   4.471 -1.3171  1.0459  0.0820
18834SOL     OW58508   6.322   9.637   0.546 -0.1445  0.4611  0.7641
18834SOL    HW158509   6.320   9.654   0.640 -0.3021  1.4068  0.5942
18834SOL    HW258510   6.230   9.637   0.521 -0.2722 -1.8550  0.9429
18835SOL     OW58511   8.937   9.718   8.821  0.3466 -0.2236 -0.4726
18835SOL    HW158512   8.853   9.749   8.786 -0.2758  0.3015  1.3501
18835SOL    HW258513   9.001   9.782   8.791 -0.1434  0.1598 -0.7207
18836SOL     OW58514   4.338   2.165   7.258 -0.0925  0.0870  0.5579
18836SOL    HW158515   4.258   2.215   7.242  0.3443  0.4435 -0.6526
18836SOL    HW258516   4.408   2.230   7.248  0.5545 -0.8627 -2.0249
18837SOL     OW58517   5.158   3.825   8.045  0.0895 -0.6241  0.5559
18837SOL    HW158518   5.249   3.810   8.020 -0.3885 -1.8127 -0.6049
18837SOL    HW258519   5.121   3.871   7.969 -0.5137 -1.0525  0.5854
18838SOL     OW58520   6.243   0.560   0.095 -0.9239  0.1172 -0.5833
18838SOL    HW158521   6.226   0.598   0.181  1.0352 -0.7341  0.2345
18838SOL    HW258522   6.278   0.473   0.114 -2.6417 -1.0358 -2.3334
18839SOL     OW58523   0.429   8.355   4.467 -0.5194 -0.0765 -0.1147
18839SOL    HW158524   0.489   8.368   4.395 -2.1879  0.1354 -1.5380
18839SOL    HW258525   0.444   8.264   4.495  1.3636  0.3797  0.5027
18840SOL     OW58526   1.521   8.149   2.225  0.2354 -0.0202  0.0943
18840SOL    HW158527   1.557   8.165   2.138 -1.8825  2.5536 -0.4194
18840SOL    HW258528   1.538   8.056   2.241  0.0006 -0.7938 -3.4191
18841SOL     OW58529   7.331   1.018  10.812  1.0180  0.6820  0.0815
18841SOL    HW158530   7.288   0.982  10.889  0.7856 -1.9120 -1.1559
18841SOL    HW258531   7.261   1.062  10.764  0.7696  0.6476  0.4082
18842SOL     OW58532   2.743   9.197   2.966 -0.1019 -0.2723  0.3481
18842SOL    HW158533   2.790   9.140   2.905  0.1481 -0.0607  0.3420
18842SOL    HW258534   2.699   9.137   3.026 -1.0854 -0.5060 -0.5859
18843SOL     OW58535   5.495   3.606   3.659  0.1591 -0.0518  0.4568
18843SOL    HW158536   5.526   3.662   3.730  0.9997  1.5417 -1.0868
18843SOL    HW258537   5.567   3.543   3.645 -0.2277 -0.7034  1.3235
18844SOL     OW58538   3.052   8.729   1.769 -0.0984 -0.5310  0.2204
18844SOL    HW158539   3.112   8.787   1.816 -1.9505  2.7303 -1.1355
18844SOL    HW258540   3.103   8.698   1.695  0.4891  0.7465  0.0538
18845SOL     OW58541   3.390   8.404   2.885 -0.2196 -0.3207  0.0233
18845SOL    HW158542   3.423   8.476   2.831  0.8092 -0.6415  0.2066
18845SOL    HW258543   3.385   8.440   2.973 -1.9727  0.2262 -0.2700
18846SOL     OW58544   4.483   3.346   5.961  0.5185 -0.5333 -0.3950
18846SOL    HW158545   4.530   3.398   5.895  1.3568 -0.3467  0.3238
18846SOL    HW258546   4.539   3.269   5.974 -0.3164 -1.2426 -0.8704
18847SOL     OW58547  10.950  11.070   5.700  0.4106 -0.4873  0.2732
18847SOL    HW158548  11.023  11.008   5.708  1.6266  0.4445 -2.3914
18847SOL    HW258549  10.894  11.033   5.632  0.9079  1.0596 -1.0170
18848SOL     OW58550   9.814   5.380   8.220  0.0784 -0.2607  0.6289
18848SOL    HW158551   9.876   5.351   8.153 -0.6429  0.4441 -0.3648
18848SOL    HW258552   9.823   5.475   8.222  0.2186 -0.2786  1.6877
18849SOL     OW58553   4.715   5.631   2.427  0.1234  0.0174  0.4399
18849SOL    HW158554   4.623   5.607   2.437 -0.0592 -0.1862 -1.4558
18849SOL    HW258555   4.718   5.683   2.347  1.3894  1.6430  1.4780
18850SOL     OW58556   2.252   7.400   3.094 -0.1328  0.6011  0.0495
18850SOL    HW158557   2.181   7.336   3.089 -0.5045  0.9888  0.2838
18850SOL    HW258558   2.329   7.348   3.118 -0.2793  0.1402 -0.4555
18851SOL     OW58559   1.859   4.078  10.812  0.4687 -0.3448 -0.2584
18851SOL    HW158560   1.873   4.029  10.730  1.6661  1.1268 -0.9692
18851SOL    HW258561   1.803   4.151  10.787 -0.5909 -0.8169  0.6298
18852SOL     OW58562  10.115   4.062   5.991 -0.4075  0.3445 -0.4524
18852SOL    HW158563  10.039   4.119   6.000  0.4449  1.4092  0.2921
18852SOL    HW258564  10.186   4.109   6.035  1.2121  0.3869 -2.8868
18853SOL     OW58565   1.684  10.255   0.105 -0.5992 -0.1188 -0.1044
18853SOL    HW158566   1.668  10.173   0.057 -2.1121 -0.5787  1.1027
18853SOL    HW258567   1.682  10.229   0.197 -1.4387  1.3357  0.3063
18854SOL     OW58568   3.943   7.152   3.906 -0.0328  0.2607 -0.0503
18854SOL    HW158569   4.028   7.125   3.872 -0.9403 -2.3740 -0.3972
18854SOL    HW258570   3.921   7.086   3.972 -1.6977  1.0449  0.2227
18855SOL     OW58571   4.120   0.238   7.608  0.3021  0.6686  0.0851
18855SOL    HW158572   4.176   0.301   7.564  0.3819  1.4804  1.3172
18855SOL    HW258573   4.172   0.158   7.614  0.1333  0.3918 -1.6454
18856SOL     OW58574   4.485   6.501   7.849 -0.4332 -0.2573  0.3122
18856SOL    HW158575   4.506   6.507   7.756  0.9787 -0.6110  0.5731
18856SOL    HW258576   4.392   6.480   7.852 -1.1237  2.2454 -0.9609
18857SOL     OW58577   0.217   8.168   4.287  0.3526 -0.7917  0.0441
18857SOL    HW158578   0.281   8.208   4.346  0.8164  0.6246 -1.3502
18857SOL    HW258579   0.210   8.078   4.317  1.1159 -0.3134  1.7880
18858SOL     OW58580   3.771  10.113   2.306  0.2445  0.0351  0.0788
18858SOL    HW158581   3.828  10.039   2.327  1.7173  0.8270 -0.9869
18858SOL    HW258582   3.712  10.079   2.238  2.1222  0.2726 -1.7828
18859SOL     OW58583   0.914   8.430   0.454  0.2361  0.3273  0.0886
18859SOL    HW158584   0.987   8.467   0.503  0.8006 -2.1576  1.2584
18859SOL    HW258585   0.948   8.348   0.418 -1.3288  0.2284 -1.2787
18860SOL     OW58586   6.061   4.492   4.636 -0.0046 -0.0328  0.2120
18860SOL    HW158587   6.149   4.474   4.671  0.3226  0.8953 -0.1000
18860SOL    HW258588   6.073   4.570   4.582 -1.3062  1.0221  1.3746
18861SOL     OW58589   5.679   0.909   7.749 -0.0424 -0.1055  0.1441
18861SOL    HW158590   5.660   0.873   7.663  0.7368  1.4218 -0.6977
18861SOL    HW258591   5.682   0.833   7.807  1.1916 -1.3653 -1.4890
18862SOL     OW58592   5.029  10.087  10.987 -0.6446  0.9653 -0.3018
18862SOL    HW158593   4.952  10.039  10.955  0.0694  0.9061 -2.0354
18862SOL    HW258594   5.103  10.046  10.942  0.1051  2.8682 -0.8927
18863SOL     OW58595   7.084   5.555   2.246 -0.5004 -0.1632 -0.2219
18863SOL    HW158596   7.140   5.508   2.308 -1.2093  0.0645  0.6162
18863SOL    HW258597   7.121   5.643   2.242 -1.1057  0.1527  0.7644
18864SOL     OW58598  10.269   8.403   7.053  0.4568  0.5851  0.2956
18864SOL    HW158599  10.235   8.486   7.087  0.1598  0.8150 -0.5336
18864SOL    HW258600  10.191   8.353   7.029  0.6184 -0.1048  1.1516
18865SOL     OW58601   5.880   3.550   1.357 -0.4576 -0.6083  0.1654
18865SOL    HW158602   5.902   3.466   1.317 -1.3464 -0.5246 -0.5316
18865SOL    HW258603   5.785   3.556   1.350 -0.5107  0.0056  1.1250
18866SOL     OW58604   9.910   5.170   1.532 -0.5088  0.4590  0.5802
18866SOL    HW158605   9.924   5.264   1.520 -1.0378  0.6159  1.1864
18866SOL    HW258606   9.899   5.136   1.443  2.4854  0.4930  0.0970
18867SOL     OW58607   5.771   4.432   3.835 -0.4670  0.3560  0.1696
18867SOL    HW158608   5.853   4.413   3.881  0.8346 -0.2607 -2.2641
18867SOL    HW258609   5.792   4.504   3.776 -1.5175 -0.1495 -0.8727
18868SOL     OW58610   4.742   1.424   2.671  0.3862  0.1477  0.3445
18868SOL    HW158611   4.734   1.502   2.726  0.3648  1.7426 -1.7460
18868SOL    HW258612   4.835   1.404   2.671  0.7729  1.6777 -0.9067
18869SOL     OW58613   1.694   6.545   1.820  0.0504  0.3508 -0.0460
18869SOL    HW158614   1.733   6.624   1.783 -0.1277  1.7455  2.5097
18869SOL    HW258615   1.620   6.526   1.763  0.6187  1.5070 -1.2204
18870SOL     OW58616   6.390   0.932   7.046 -0.1227 -0.0108 -0.2984
18870SOL    HW158617   6.300   0.943   7.016 -0.2321  2.4911  0.6340
18870SOL    HW258618   6.383   0.927   7.142  0.7730  3.0762  0.0601
18871SOL     OW58619  11.051   6.401   3.242  0.0759  0.0853  0.0445
18871SOL    HW158620  11.061   6.433   3.332  1.1771  1.8515 -0.6515
18871SOL    HW258621  11.000   6.469   3.198 -0.2404 -0.6439 -0.7454
18872SOL     OW58622   7.771   6.176   6.935  0.2361  0.1839 -0.4500
18872SOL    HW158623   7.748   6.149   7.024  0.4923  1.4154  0.0058
18872SOL    HW258624   7.718   6.120   6.879 -0.1969 -0.3670  0.4814
18873SOL     OW58625   4.648   7.356   4.804  0.1307  0.2512 -0.0498
18873SOL    HW158626   4.593   7.305   4.863  1.1445  1.4463  2.0309
18873SOL    HW258627   4.738   7.333   4.827  0.5625  0.8326 -1.0576
18874SOL     OW58628   7.067   9.915   7.835  0.0532 -0.2960  0.0548
18874SOL    HW158629   7.095   9.839   7.785 -1.9817 -0.7383 -0.5128
18874SOL    HW258630   6.993   9.950   7.786 -0.4479  0.7212  1.4695
18875SOL     OW58631   2.047   7.457   9.086 -0.0470 -0.4170 -0.2589
18875SOL    HW158632   2.009   7.416   9.163  0.4622 -0.4686 -0.0261
18875SOL    HW258633   2.130   7.494   9.118 -0.4914  0.7840 -0.4626
18876SOL     OW58634   1.529  10.007   2.606 -0.0401 -0.3899  0.4514
18876SOL    HW158635   1.532   9.917   2.575  1.7481  0.2352 -1.3634
18876SOL    HW258636   1.463  10.049   2.551  0.1869 -0.2305  0.3039
18877SOL     OW58637   3.835   3.756   1.023 -0.0500  0.0483  0.1021
18877SOL    HW158638   3.833   3.757   1.119  0.5822 -1.1005  0.1499
18877SOL    HW258639   3.801   3.842   0.997  0.9561  0.8710  1.3715
18878SOL     OW58640   4.064   5.045   3.809 -0.1993 -0.2909  0.9328
18878SOL    HW158641   4.064   5.107   3.736 -1.7073 -1.1879  0.1386
18878SOL    HW258642   4.151   5.054   3.848  0.0201  1.4730  0.1236
18879SOL     OW58643  10.949   0.081   4.419 -0.2259 -0.2233 -0.2051
18879SOL    HW158644  10.940   0.024   4.496 -0.6727 -1.3322 -1.0559
18879SOL    HW258645  10.958   0.169   4.456 -2.8598 -0.3968  1.0895
18880SOL     OW58646  10.035   5.758   4.458 -0.3267  0.1266  0.2456
18880SOL    HW158647  10.104   5.697   4.482 -0.1827 -0.0861 -0.6634
18880SOL    HW258648  10.032   5.820   4.530  1.6408  0.8450 -0.2225
18881SOL     OW58649   1.656   7.948   1.346 -0.2293  0.0446 -0.2270
18881SOL    HW158650   1.576   7.920   1.391 -0.8323  0.1175 -1.2240
18881SOL    HW258651   1.625   7.987   1.264  0.8061  0.4911 -0.4223
18882SOL     OW58652   6.517   8.149   3.961  0.2593 -0.5446  0.0078
18882SOL    HW158653   6.604   8.189   3.959 -0.0752  0.3071 -3.1875
18882SOL    HW258654   6.530   8.061   3.925 -0.3980  0.3225 -2.5579
18883SOL     OW58655   0.742   1.214   2.483  0.3441  0.2771  0.9318
18883SOL    HW158656   0.821   1.164   2.460  0.4034  0.5025  0.6336
18883SOL    HW258657   0.671   1.151   2.476  0.3748  0.3141  0.2071
18884SOL     OW58658   1.415   4.238   3.690  0.0572  0.3840  0.4126
18884SOL    HW158659   1.388   4.230   3.598 -1.7182  0.1698  0.9174
18884SOL    HW258660   1.403   4.331   3.710  1.1129  0.5650  0.2491
18885SOL     OW58661   3.599   9.249   1.903 -0.0524 -0.4460 -0.4101
18885SOL    HW158662   3.572   9.252   1.995 -0.6250  1.2596 -0.5938
18885SOL    HW258663   3.693   9.261   1.906 -0.2495  1.2609 -0.0872
18886SOL     OW58664  10.890   0.058   7.209 -0.4291 -0.5599  0.2533
18886SOL    HW158665  10.966   0.001   7.218 -0.9431 -1.2523  0.2044
18886SOL    HW258666  10.903   0.102   7.125 -1.0569 -2.1391 -0.7025
18887SOL     OW58667   6.333  10.803   2.237 -0.3881  0.4963 -0.3631
18887SOL    HW158668   6.336  10.739   2.165  0.0943  0.5139 -0.3603
18887SOL    HW258669   6.424  10.830   2.249 -0.6728  1.7929 -0.9100
18888SOL     OW58670   6.007   2.312   5.777 -0.2399  0.1323 -0.0438
18888SOL    HW158671   6.023   2.246   5.709  0.2389 -0.3587  0.5299
18888SOL    HW258672   5.968   2.385   5.730 -1.1257 -0.6940 -0.6424
18889SOL     OW58673   6.427  10.317   3.440  0.3000  0.1745  0.3546
18889SOL    HW158674   6.360  10.371   3.398 -0.0173 -0.8885 -0.5922
18889SOL    HW258675   6.439  10.244   3.379  0.3589 -1.0589  1.7944
18890SOL     OW58676   3.603   8.495   0.085  0.2828 -0.0916 -0.6178
18890SOL    HW158677   3.695   8.515   0.069  0.4959 -1.1659 -0.7743
18890SOL    HW258678   3.598   8.400   0.085 -1.0582 -0.0587 -1.9581
18891SOL     OW58679   1.095   5.246   0.447 -0.3483 -0.1637 -0.2191
18891SOL    HW158680   1.037   5.322   0.441  0.5081  0.6982  1.6338
18891SOL    HW258681   1.110   5.220   0.356 -1.3513  1.3505 -0.8540
18892SOL     OW58682   6.957   6.301   7.475 -0.5893  0.1906 -0.4009
18892SOL    HW158683   7.036   6.341   7.512 -0.9399  1.8231 -1.2949
18892SOL    HW258684   6.933   6.360   7.403 -1.7375 -1.1318 -1.1451
18893SOL     OW58685   3.532  10.287  10.428 -0.3032 -0.3995 -0.2171
18893SOL    HW158686   3.487  10.290  10.344 -0.8805  0.7440  0.1123
18893SOL    HW258687   3.467  10.252  10.489 -0.4964  0.4525  0.0891
18894SOL     OW58688   7.183   0.281   2.606 -0.2263  0.1461  0.2465
18894SOL    HW158689   7.214   0.371   2.592  0.2146  0.1457  1.1567
18894SOL    HW258690   7.165   0.248   2.518  0.2185  0.9110 -0.1426
18895SOL     OW58691   9.959   6.221   5.319  0.3043  0.0657  0.0150
18895SOL    HW158692   9.910   6.187   5.245  0.4914 -0.5026  0.1497
18895SOL    HW258693   9.911   6.299   5.346 -1.0186 -0.9312  0.6604
18896SOL     OW58694   0.375  10.356   4.735 -0.2725  0.4455  0.2360
18896SOL    HW158695   0.355  10.442   4.700 -0.3975  0.0692 -0.6531
18896SOL    HW258696   0.369  10.297   4.660 -1.7112 -0.5846  1.0878
18897SOL     OW58697   4.187   1.490   3.324 -0.6550  0.1327  0.6749
18897SOL    HW158698   4.263   1.548   3.314 -0.6572  0.3802  1.9136
18897SOL    HW258699   4.119   1.546   3.360 -1.3416 -0.1678 -0.1212
18898SOL     OW58700   1.644   9.549   1.111 -0.8353  0.3325  0.7359
18898SOL    HW158701   1.610   9.519   1.027  0.9272 -0.3811  0.2391
18898SOL    HW258702   1.687   9.471   1.148  2.0949  1.6396  0.3429
18899SOL     OW58703   7.764   6.717   6.643  0.2942  0.3898  0.0990
18899SOL    HW158704   7.829   6.704   6.574 -0.5096 -1.5138 -0.3744
18899SOL    HW258705   7.696   6.651   6.625 -2.5867  3.2103 -0.3341
18900SOL     OW58706   6.251   5.510   5.209  0.8847  0.4917  0.3313
18900SOL    HW158707   6.256   5.430   5.157  0.1659  1.1561 -0.7979
18900SOL    HW258708   6.341   5.540   5.215  1.5001 -1.4790  2.5872
18901SOL     OW58709   4.776   7.770   3.826  0.3261  0.3273  0.4173
18901SOL    HW158710   4.702   7.710   3.812 -0.0368  0.8184  0.1639
18901SOL    HW258711   4.839   7.746   3.758 -0.3085  0.9724 -0.4267
18902SOL     OW58712   4.752   0.591   2.148 -0.1621 -0.8117  0.5554
18902SOL    HW158713   4.829   0.534   2.151 -0.4403 -1.1791  0.7516
18902SOL    HW258714   4.687   0.540   2.101  0.9211  0.9719 -3.2995
18903SOL     OW58715   6.828   9.858   5.772 -0.5031 -0.0876  0.2493
18903SOL    HW158716   6.739   9.893   5.764  0.0052  1.6815  1.7560
18903SOL    HW258717   6.854   9.838   5.682 -1.7340  1.1760 -0.4236
18904SOL     OW58718   0.848   8.537   8.830  0.5202  0.3116 -0.4549
18904SOL    HW158719   0.888   8.621   8.853 -1.0931  1.0186 -0.1353
18904SOL    HW258720   0.795   8.514   8.906  1.6699 -1.4979 -0.1432
18905SOL     OW58721   6.113   7.570   2.045 -0.8467  0.3715 -0.2636
18905SOL    HW158722   6.108   7.666   2.044 -0.9944  0.4047 -2.4936
18905SOL    HW258723   6.141   7.548   2.134  1.3384  2.6032 -0.2730
18906SOL     OW58724   5.669   7.746   4.694  0.0248 -0.1126 -0.8123
18906SOL    HW158725   5.699   7.748   4.603  1.1241  1.9298 -0.4568
18906SOL    HW258726   5.719   7.816   4.737 -0.0675 -1.3752  1.4946
18907SOL     OW58727   2.754   5.498   2.403  0.0497  0.1598 -0.0344
18907SOL    HW158728   2.711   5.547   2.473 -0.1089  0.4611 -0.3408
18907SOL    HW258729   2.806   5.432   2.449  1.2611  1.3854  0.4420
18908SOL     OW58730   3.333   2.854   4.765 -0.5952 -0.0860 -0.3108
18908SOL    HW158731   3.340   2.895   4.851 -0.8229 -1.2060  0.2584
18908SOL    HW258732   3.330   2.760   4.783  0.2785 -0.3896 -1.5984
18909SOL     OW58733   6.947   5.688   1.938 -0.4243 -0.4413  0.2173
18909SOL    HW158734   6.919   5.644   2.018  0.6017 -3.0520 -0.7419
18909SOL    HW258735   7.023   5.638   1.908 -1.3605 -0.2366 -2.9026
18910SOL     OW58736   9.983   7.716   6.991 -0.1390 -0.0079 -0.8796
18910SOL    HW158737   9.999   7.802   7.029 -1.6306 -0.3696  0.7308
18910SOL    HW258738   9.940   7.733   6.908 -0.8084  0.8204 -0.3768
18911SOL     OW58739   5.147   6.487   6.172 -0.5773 -0.0771 -0.4119
18911SOL    HW158740   5.242   6.473   6.170 -0.2718  1.1570  1.9408
18911SOL    HW258741   5.110   6.399   6.177  0.4600 -0.5552 -0.8360
18912SOL     OW58742   2.073   9.553   4.028  0.2497 -0.4487 -0.4575
18912SOL    HW158743   2.168   9.563   4.036 -0.0615  1.9082  4.3932
18912SOL    HW258744   2.043   9.637   3.992 -0.0713 -0.0410  0.7073
18913SOL     OW58745   4.520   6.714   8.487 -0.0718  0.0804 -0.0065
18913SOL    HW158746   4.572   6.753   8.557 -0.7825 -0.8287  1.0687
18913SOL    HW258747   4.559   6.627   8.474  1.1838  0.8829 -2.0238
18914SOL     OW58748   9.483   8.740   5.920 -0.3661  0.0818 -0.6011
18914SOL    HW158749   9.540   8.673   5.883 -0.4294 -2.0402  2.7428
18914SOL    HW258750   9.412   8.749   5.856  1.6384 -0.0209 -3.0225
18915SOL     OW58751   2.693   4.823   5.152  0.4340 -0.0204 -0.6014
18915SOL    HW158752   2.772   4.777   5.182 -0.1022  0.4041  1.6405
18915SOL    HW258753   2.621   4.766   5.178 -0.1612  1.3311  0.8310
18916SOL     OW58754   3.581   0.550   7.051  0.2961  0.1936  0.5111
18916SOL    HW158755   3.654   0.493   7.078 -1.3406 -1.3968  1.8293
18916SOL    HW258756   3.509   0.490   7.033 -1.2595  1.7886  1.0700
18917SOL     OW58757   3.252   7.807   5.793 -0.2801  0.2931 -0.4370
18917SOL    HW158758   3.242   7.887   5.844 -0.7604 -0.3509  0.5281
18917SOL    HW258759   3.330   7.765   5.829 -0.0511  0.3053 -0.9122
18918SOL     OW58760   8.135   7.784   4.050  0.2137  0.6775 -0.2634
18918SOL    HW158761   8.067   7.718   4.041  1.6367 -0.9986  0.6346
18918SOL    HW258762   8.120   7.823   4.136  0.0850  0.6810 -0.2867
18919SOL     OW58763   8.280   5.395   1.201  0.5202 -0.4319 -0.7003
18919SOL    HW158764   8.229   5.348   1.135  1.1725 -0.5328 -1.1458
18919SOL    HW258765   8.370   5.362   1.189  0.4859 -1.1562  0.8774
18920SOL     OW58766   3.939   8.843   5.194 -0.3514 -0.5458  0.6368
18920SOL    HW158767   3.862   8.853   5.138 -0.1171  0.7704  0.5238
18920SOL    HW258768   3.905   8.854   5.283 -0.2120  0.7424  0.5527
18921SOL     OW58769   6.966   8.660   2.006 -0.3878 -0.1315 -0.3960
18921SOL    HW158770   6.948   8.566   2.005 -0.2414 -0.1602 -0.3463
18921SOL    HW258771   6.990   8.681   1.915 -1.1568  0.0045 -0.5747
18922SOL     OW58772   3.463   3.507   9.722 -0.0111 -0.0282 -0.1646
18922SOL    HW158773   3.418   3.431   9.686  1.4990 -1.2460  0.4201
18922SOL    HW258774   3.548   3.508   9.679  0.2965  0.8543  0.4356
18923SOL     OW58775   3.572   8.715   8.668 -0.4478 -0.3273 -0.6478
18923SOL    HW158776   3.660   8.753   8.663 -0.6863  0.2888 -0.2668
18923SOL    HW258777   3.587   8.620   8.671  0.3275 -0.1911  1.5885
18924SOL     OW58778   2.886   1.445   5.919  0.5031  0.0710 -0.0299
18924SOL    HW158779   2.811   1.442   5.979  0.3548 -1.0285 -0.2493
18924SOL    HW258780   2.934   1.525   5.944 -0.4246  0.4817  0.4820
18925SOL     OW58781  10.256   4.701   0.666  0.3957  0.7111  0.4507
18925SOL    HW158782  10.268   4.795   0.684 -0.2709  0.5709  1.7735
18925SOL    HW258783  10.323   4.658   0.720  1.1316  0.4266 -0.6461
18926SOL     OW58784   3.713   2.060  10.690  0.1491 -0.1766  0.3586
18926SOL    HW158785   3.778   2.079  10.622  0.2722  2.2275  1.0504
18926SOL    HW258786   3.648   2.130  10.682 -0.7581 -0.8270  1.6162
18927SOL     OW58787   4.744   1.270   9.181 -0.2234  0.7184 -0.0450
18927SOL    HW158788   4.648   1.278   9.188 -0.2776  2.5169 -1.8941
18927SOL    HW258789   4.760   1.176   9.176 -1.9543  0.3966 -0.1709
18928SOL     OW58790   9.576   2.351   5.439 -0.0045 -0.0947  0.1420
18928SOL    HW158791   9.637   2.314   5.503  0.1010 -1.6620 -0.8144
18928SOL    HW258792   9.632   2.386   5.370 -0.0274 -3.7960 -2.0089
18929SOL     OW58793  10.126   0.247  10.755 -0.4233 -0.1484  0.1207
18929SOL    HW158794  10.145   0.297  10.675 -1.8776  1.8204  0.9164
18929SOL    HW258795  10.161   0.159  10.737 -0.0331  0.4250 -2.3690
18930SOL     OW58796   7.947   5.465   4.194  0.0595 -0.3516  0.1614
18930SOL    HW158797   8.031   5.482   4.151  1.2401  0.8240  2.6636
18930SOL    HW258798   7.968   5.471   4.288 -2.6370 -1.0874  0.8843
18931SOL     OW58799   5.567   8.673   2.761 -0.2027  0.0308 -0.1678
18931SOL    HW158800   5.595   8.627   2.682 -2.9278 -0.5886 -0.8663
18931SOL    HW258801   5.622   8.635   2.830  0.4644 -1.2876 -1.3519
18932SOL     OW58802   4.484   8.409   6.533  0.2641 -0.2550 -0.0407
18932SOL    HW158803   4.405   8.419   6.585  0.9554  0.1702  0.9705
18932SOL    HW258804   4.513   8.320   6.550  0.4475 -0.1415  0.2477
18933SOL     OW58805   7.106   6.661  10.830 -0.2540 -0.2192  0.4251
18933SOL    HW158806   7.121   6.732  10.767 -0.5616 -0.1457  0.4308
18933SOL    HW258807   7.117   6.702  10.915  0.4005 -0.3741  0.4190
18934SOL     OW58808   2.640   5.096   4.576  0.0154  0.5901  0.3118
18934SOL    HW158809   2.701   5.159   4.614 -1.0083  0.9397  1.4479
18934SOL    HW258810   2.674   5.079   4.488  1.0137  1.7523  0.4525
18935SOL     OW58811  10.989   9.671   1.419 -0.9336 -0.6197 -0.1975
18935SOL    HW158812  10.948   9.637   1.498 -1.3670  1.2447  0.4208
18935SOL    HW258813  10.926   9.653   1.349 -0.5847 -2.1957 -0.1534
18936SOL     OW58814   8.743   7.008  10.038 -0.6390 -0.2969 -0.1571
18936SOL    HW158815   8.793   7.023  10.118 -0.9805 -1.0301  0.2062
18936SOL    HW258816   8.687   7.085  10.030  0.0775  0.2312 -0.2208
18937SOL     OW58817  10.300   5.808   7.959  0.2408  0.0478 -0.8217
18937SOL    HW158818  10.325   5.765   7.877 -1.7838 -1.9240 -0.5022
18937SOL    HW258819  10.331   5.749   8.028  0.7842  1.0536 -0.1694
18938SOL     OW58820   4.698  10.913   9.355  0.2296 -0.9257 -0.1713
18938SOL    HW158821   4.636  10.885   9.288 -1.2272 -0.6360  1.0207
18938SOL    HW258822   4.682  10.853   9.429  0.6851 -0.2323  0.5050
18939SOL     OW58823   1.697   4.881   4.852  0.7642  0.2959 -0.1660
18939SOL    HW158824   1.667   4.955   4.800 -0.5628  0.8173  1.2828
18939SOL    HW258825   1.790   4.873   4.831  0.2893  0.4233 -2.6349
18940SOL     OW58826   0.833   9.032   6.112  0.2958 -0.9887 -0.4163
18940SOL    HW158827   0.816   9.085   6.034 -1.1320 -1.4247 -0.4200
18940SOL    HW258828   0.828   9.095   6.185 -1.1739 -1.0399 -0.4404
18941SOL     OW58829   8.537   7.492   2.818  0.3008  0.1460  0.0433
18941SOL    HW158830   8.628   7.473   2.793  0.4874  0.5932  0.3754
18941SOL    HW258831   8.539   7.497   2.914 -0.1797 -0.3693  0.0850
18942SOL     OW58832   0.932   9.429   0.545 -0.2593 -0.5631  0.0270
18942SOL    HW158833   0.948   9.458   0.455  0.4781 -0.3075  0.2402
18942SOL    HW258834   0.836   9.432   0.553 -0.3110 -0.1573 -0.6073
18943SOL     OW58835   7.002   3.151   4.048  0.7314 -0.1964 -0.1090
18943SOL    HW158836   7.091   3.185   4.040 -0.0116  1.6034 -1.2074
18943SOL    HW258837   6.982   3.117   3.961 -0.1542  0.7605 -0.2972
18944SOL     OW58838   8.915   0.665   3.286 -0.0049  0.2789 -0.4777
18944SOL    HW158839   8.854   0.640   3.217  0.0956 -0.0717 -0.4408
18944SOL    HW258840   8.901   0.759   3.298 -1.8006 -0.0929  0.7432
18945SOL     OW58841   3.020   9.576   0.482  0.2633  0.1546  0.3122
18945SOL    HW158842   2.992   9.567   0.574 -0.1855  1.3519  0.2983
18945SOL    HW258843   3.007   9.488   0.446 -2.0721  0.2726  0.7073
18946SOL     OW58844   0.315   3.089   7.352 -0.1020  0.0227 -0.0269
18946SOL    HW158845   0.343   3.047   7.433  1.2005  0.2068 -0.3477
18946SOL    HW258846   0.271   3.020   7.303  0.0029 -0.3560  0.4029
18947SOL     OW58847   1.963   9.088   8.411 -0.3918 -0.4742  0.2587
18947SOL    HW158848   2.008   9.113   8.492 -0.1100 -0.5882  0.1391
18947SOL    HW258849   1.887   9.146   8.408 -0.5813 -0.6941  0.7692
18948SOL     OW58850   3.749   0.114   3.789  0.2836  0.1293 -0.7411
18948SOL    HW158851   3.824   0.076   3.835 -0.7315 -0.2786  0.6542
18948SOL    HW258852   3.786   0.154   3.711  1.6806 -1.8940 -1.1883
18949SOL     OW58853   4.794   9.840   4.937  0.5037  0.4498 -0.1131
18949SOL    HW158854   4.720   9.853   4.996  1.8838  1.9981  1.3893
18949SOL    HW258855   4.842   9.765   4.972 -0.3379 -0.6122 -1.1388
18950SOL     OW58856   5.791   9.358   5.319 -0.1795 -0.2365  0.1115
18950SOL    HW158857   5.730   9.318   5.257 -0.1960  0.5086 -0.3753
18950SOL    HW258858   5.874   9.360   5.272  0.1342 -0.8973  0.6294
18951SOL     OW58859   5.329   8.991  11.000  0.7868  0.3774 -0.1686
18951SOL    HW158860   5.389   9.059  11.032  0.5573  1.2610 -1.4965
18951SOL    HW258861   5.315   9.014  10.908 -1.0077 -0.2398 -0.0859
18952SOL     OW58862   1.842   5.212   5.010  0.3995  0.6177  0.2304
18952SOL    HW158863   1.882   5.297   4.988  0.5051  0.7608  0.9487
18952SOL    HW258864   1.915   5.150   5.003  0.5123  0.7163  0.5138
18953SOL     OW58865   9.158   4.987   8.592  0.0613  0.6017  0.1184
18953SOL    HW158866   9.098   4.942   8.532  0.3224  0.5625 -0.1180
18953SOL    HW258867   9.130   5.079   8.589  1.6418  1.1091 -2.0611
18954SOL     OW58868   4.738   6.038   5.763 -0.0354  0.1804  0.3432
18954SOL    HW158869   4.767   5.963   5.712  0.7076  0.7172 -0.0445
18954SOL    HW258870   4.810   6.101   5.755 -0.0445  0.3928  1.8005
18955SOL     OW58871  11.010   5.114   5.780 -0.2793  0.0833 -0.7279
18955SOL    HW158872  11.099   5.149   5.773 -0.4954  0.6389 -0.7289
18955SOL    HW258873  10.978   5.110   5.690 -0.6888  1.0372 -0.6390
18956SOL     OW58874   2.020   7.430   8.678  0.3945  0.2592 -0.0769
18956SOL    HW158875   2.058   7.404   8.594  0.2769  0.7452 -0.2826
18956SOL    HW258876   2.041   7.523   8.686  0.4269  0.2087  0.4446
18957SOL     OW58877   2.597   8.626   3.674 -0.1382 -0.7664  0.0156
18957SOL    HW158878   2.560   8.639   3.762  1.3680 -0.8736  0.7020
18957SOL    HW258879   2.690   8.648   3.684  0.7407 -3.6103 -0.7805
18958SOL     OW58880   2.109   9.217  10.675  0.1295 -0.3393  0.1523
18958SOL    HW158881   2.105   9.291  10.615  2.3574 -0.4794 -0.2507
18958SOL    HW258882   2.018   9.190  10.686 -0.5665  1.3346 -1.0790
18959SOL     OW58883   8.785   1.336   3.881  0.2873 -0.1831  0.2636
18959SOL    HW158884   8.749   1.328   3.793  1.4479  0.7802 -0.3160
18959SOL    HW258885   8.709   1.358   3.936 -0.4356 -0.7652 -0.4812
18960SOL     OW58886  10.495   0.867  11.082  0.2841  0.3468 -0.1355
18960SOL    HW158887  10.422   0.815  11.116  0.7236  1.1868  2.3183
18960SOL    HW258888  10.573   0.824  11.119  0.9016  0.6257 -1.0938
18961SOL     OW58889   9.961  11.078   6.382 -0.1201 -0.5261 -0.5503
18961SOL    HW158890  10.042  11.057   6.335 -0.2661 -1.8284 -0.2640
18961SOL    HW258891   9.909  11.126   6.318  1.1060  0.8954 -0.5385
18962SOL     OW58892   2.130   0.834  10.856 -0.1562 -0.2386  0.3933
18962SOL    HW158893   2.206   0.775  10.852 -1.0289 -1.5405  1.8242
18962SOL    HW258894   2.164   0.913  10.898  0.4323 -0.7628  0.9287
18963SOL     OW58895   5.910   7.925   4.799 -0.0329 -0.9410  0.5624
18963SOL    HW158896   5.951   7.851   4.844  1.9752  0.3442  0.9915
18963SOL    HW258897   5.969   7.944   4.726 -0.8108 -0.1259  0.1287
18964SOL     OW58898   3.286   8.902   9.716  0.1980  0.0138 -0.1392
18964SOL    HW158899   3.380   8.918   9.727  0.2995 -0.1093 -0.7650
18964SOL    HW258900   3.245   8.986   9.737  0.4360  0.0203  0.3074
18965SOL     OW58901   5.246   4.169  10.749 -0.1035 -0.1133 -0.1740
18965SOL    HW158902   5.201   4.162  10.665  0.2966  2.0124 -0.6246
18965SOL    HW258903   5.200   4.238  10.796 -0.1334 -1.0587  1.2677
18966SOL     OW58904   7.106   1.924   6.304  0.6142  0.2079 -0.1563
18966SOL    HW158905   7.197   1.905   6.279 -0.0334  0.1345 -2.7442
18966SOL    HW258906   7.113   1.967   6.389  2.9283 -1.3995  0.5693
18967SOL     OW58907  10.202   0.721   3.485  0.3685 -0.0665  0.2888
18967SOL    HW158908  10.294   0.742   3.494  0.2961  0.0062  0.8776
18967SOL    HW258909  10.201   0.632   3.447  0.6699  0.1514 -0.2362
18968SOL     OW58910   6.112   8.109   5.622  0.1548  0.5351  0.3076
18968SOL    HW158911   6.204   8.083   5.627  0.6521  2.0857 -0.3652
18968SOL    HW258912   6.076   8.090   5.709  1.2744  0.5637  0.7808
18969SOL     OW58913   5.001   9.203   6.704 -0.2423  0.1409 -0.2552
18969SOL    HW158914   5.079   9.238   6.748  0.9075 -1.2281 -1.1352
18969SOL    HW258915   4.940   9.184   6.776  1.2080 -1.1057  0.7172
18970SOL     OW58916   1.837  10.669   6.312  0.4970  0.3842  0.5932
18970SOL    HW158917   1.847  10.736   6.380  4.1445  1.0040 -0.3272
18970SOL    HW258918   1.903  10.603   6.334  1.4738  0.3870 -1.9814
18971SOL     OW58919   0.181   2.706   3.475 -0.0166  0.5541  0.0204
18971SOL    HW158920   0.143   2.786   3.438  3.2970  1.9977 -0.5871
18971SOL    HW258921   0.183   2.722   3.569 -0.5845  0.5907  0.0293
18972SOL     OW58922   6.752   3.161   5.228  0.1820 -0.1751  0.3620
18972SOL    HW158923   6.810   3.174   5.153 -0.1890  0.5418  0.1858
18972SOL    HW258924   6.668   3.199   5.200 -0.0932 -0.3248  0.9665
18973SOL     OW58925   7.361   2.903   7.135  0.0705 -0.3940 -0.1426
18973SOL    HW158926   7.421   2.939   7.071  0.4920 -1.0115 -0.1030
18973SOL    HW258927   7.376   2.955   7.214  0.2157 -0.2377 -0.2738
18974SOL     OW58928   3.988   7.518   3.743 -0.1234  0.1573 -0.1571
18974SOL    HW158929   3.958   7.595   3.695 -1.3728  0.0231  0.3904
18974SOL    HW258930   3.918   7.498   3.804  0.0020 -1.6472 -0.5367
18975SOL     OW58931  11.065   5.601   5.903 -0.1448  0.5940  0.5143
18975SOL    HW158932  11.099   5.551   5.828 -1.6548 -0.4103  0.4648
18975SOL    HW258933  11.125   5.675   5.911 -0.0958  0.8818 -1.8555
18976SOL     OW58934   5.553   2.383   5.303 -0.1075  0.1036 -0.3878
18976SOL    HW158935   5.463   2.405   5.328 -0.1526 -0.4577 -0.0366
18976SOL    HW258936   5.576   2.449   5.237 -0.7729  0.2590 -0.4793
18977SOL     OW58937   1.275   9.922   9.927  0.1815 -0.7571  0.2889
18977SOL    HW158938   1.264   9.831   9.955  4.3888 -1.8705 -0.8646
18977SOL    HW258939   1.234   9.925   9.840 -0.6045 -1.3400  0.6247
18978SOL     OW58940   0.196  10.721   9.827 -0.2353  0.3506 -0.1313
18978SOL    HW158941   0.209  10.811   9.798 -0.3676  0.3453 -0.2104
18978SOL    HW258942   0.157  10.729   9.915 -1.5167  0.3891 -0.6786
18979SOL     OW58943   1.418   0.607   9.751 -0.1454  0.2849  0.3447
18979SOL    HW158944   1.412   0.606   9.656 -0.4949  0.1332  0.3665
18979SOL    HW258945   1.490   0.667   9.770 -0.8657  1.2674  0.0247
18980SOL     OW58946   2.513   8.037   2.970 -0.5394  0.2452  0.0361
18980SOL    HW158947   2.458   8.020   2.893  0.1584  0.5181 -0.5432
18980SOL    HW258948   2.602   8.035   2.935 -0.1892 -0.1109  0.9424
18981SOL     OW58949   3.735   4.529   0.311 -0.0312  0.0734 -0.3207
18981SOL    HW158950   3.675   4.580   0.258 -0.0848  0.2519 -0.0869
18981SOL    HW258951   3.703   4.537   0.400  1.0098  1.1394 -0.0197
18982SOL     OW58952   3.765   5.037   1.843 -0.8181  0.0851 -0.1566
18982SOL    HW158953   3.735   5.007   1.928 -0.9113  1.8868  0.4974
18982SOL    HW258954   3.686   5.066   1.798 -0.5721  0.7840 -0.1483
18983SOL     OW58955   3.935   8.319   4.666 -0.0691  0.0581  0.2478
18983SOL    HW158956   3.907   8.275   4.747  0.7437 -1.2480 -0.1489
18983SOL    HW258957   3.928   8.413   4.686 -2.2296 -0.2083  0.9876
18984SOL     OW58958   4.568   7.592   6.720  0.6234  0.1853  0.0153
18984SOL    HW158959   4.615   7.642   6.787  0.1662 -1.2645  1.4936
18984SOL    HW258960   4.598   7.502   6.731 -0.9864 -0.4355 -0.3154
18985SOL     OW58961   5.394   4.060   4.917 -0.2907  0.2305  0.6193
18985SOL    HW158962   5.397   4.027   4.828  0.9019  0.7102  0.4559
18985SOL    HW258963   5.334   4.135   4.914 -4.5051 -2.7397  1.3636
18986SOL     OW58964   2.828   2.758   9.703  0.3417 -0.2354  0.1119
18986SOL    HW158965   2.780   2.793   9.778  0.7623  0.1256  0.2213
18986SOL    HW258966   2.765   2.703   9.657  0.1141 -0.5711  0.8084
18987SOL     OW58967   7.133   3.213   4.420  0.5205 -0.3340  0.2338
18987SOL    HW158968   7.195   3.283   4.441  0.9091 -0.8812  0.9726
18987SOL    HW258969   7.061   3.257   4.375 -0.8257  1.1338  3.5319
18988SOL     OW58970   7.259   7.004   5.100 -0.0696 -0.2619  0.7414
18988SOL    HW158971   7.164   7.005   5.087 -0.1535  1.4458  1.2654
18988SOL    HW258972   7.279   7.091   5.135  1.7995 -0.2921 -0.1547
18989SOL     OW58973   4.798  10.775   2.394  0.4024  0.0692  0.6263
18989SOL    HW158974   4.823  10.735   2.311  0.9396 -0.3417  0.9816
18989SOL    HW258975   4.875  10.765   2.450  0.2863  0.9490  0.9582
18990SOL     OW58976   0.651   6.742   7.469 -0.4387  0.5590 -0.5192
18990SOL    HW158977   0.711   6.688   7.418 -0.3914 -0.1210  0.2304
18990SOL    HW258978   0.700   6.821   7.490  0.2073 -0.0007  0.1100
18991SOL     OW58979   1.595   1.821   8.828  0.9046 -0.2950 -0.7260
18991SOL    HW158980   1.565   1.884   8.763  4.0771 -0.2586 -2.3689
18991SOL    HW258981   1.675   1.860   8.864  0.6918 -1.5584  1.3037
18992SOL     OW58982   5.350   9.189   9.106 -0.5125  0.2598  0.3730
18992SOL    HW158983   5.337   9.112   9.050 -0.9888  1.5845 -1.4264
18992SOL    HW258984   5.266   9.202   9.149 -0.2572 -0.5477  1.1415
18993SOL     OW58985   7.065   7.665   1.941 -0.0535  0.5971 -0.2044
18993SOL    HW158986   7.024   7.620   2.015  0.3911  0.6295  0.0657
18993SOL    HW258987   7.073   7.598   1.873  1.1977  0.0760  0.4181
18994SOL     OW58988   2.944   9.421  10.505 -0.4294  0.2016 -0.1069
18994SOL    HW158989   2.921   9.453  10.417  0.0715  2.9555  0.6623
18994SOL    HW258990   3.037   9.401  10.500 -0.8503 -1.8934 -0.7347
18995SOL     OW58991   3.731   8.166   1.722 -0.6084 -0.3760 -0.0957
18995SOL    HW158992   3.772   8.087   1.759 -0.7071 -1.4917 -2.1941
18995SOL    HW258993   3.663   8.189   1.785 -0.1757 -1.6167  0.8739
18996SOL     OW58994   5.792   8.338  10.136  0.0092  0.2433 -0.7055
18996SOL    HW158995   5.862   8.398  10.162  1.0061 -1.3529  0.4439
18996SOL    HW258996   5.726   8.395  10.098  2.0109  1.7993 -2.0748
18997SOL     OW58997   2.250   6.880   7.637  0.0644  0.2711 -0.0875
18997SOL    HW158998   2.298   6.816   7.585  0.8104 -0.7340  1.7204
18997SOL    HW258999   2.158   6.858   7.622  0.2956 -1.0954  0.2905
18998SOL     OW59000   6.023   7.940   5.412 -0.2226  0.0965  0.2209
18998SOL    HW159001   6.054   8.002   5.478 -1.5320  2.1008 -0.9365
18998SOL    HW259002   6.102   7.915   5.364  0.7744 -1.4889  2.5051
18999SOL     OW59003   8.721   5.709   2.094 -0.2140 -0.1822 -0.0342
18999SOL    HW159004   8.717   5.791   2.045 -0.0413  0.0346  0.3112
18999SOL    HW259005   8.752   5.735   2.181  0.0457 -0.6401  0.0107
19000SOL     OW59006   0.930   6.801  10.172  0.2207 -0.0881  0.1566
19000SOL    HW159007   0.941   6.896  10.182  0.2534  0.0497 -1.0743
19000SOL    HW259008   0.852   6.780  10.222 -0.2091  0.7096 -0.1703
19001SOL     OW59009   8.696   7.025   5.901  0.5390  0.1082 -0.3529
19001SOL    HW159010   8.788   7.037   5.923  0.5809  1.1216 -1.0292
19001SOL    HW259011   8.694   6.942   5.853  1.1607  0.2759 -0.6826
19002SOL     OW59012   7.487   6.923   5.941 -0.0368 -0.5601 -0.7567
19002SOL    HW159013   7.580   6.903   5.952 -0.1741 -0.8337 -0.0121
19002SOL    HW259014   7.483   6.983   5.867  0.7020 -0.7949 -0.9923
19003SOL     OW59015   8.543   1.716   4.695 -0.0648 -0.6931  0.0578
19003SOL    HW159016   8.539   1.786   4.761 -2.0380 -1.3803  0.7156
19003SOL    HW259017   8.634   1.685   4.700  0.7518  1.4888  0.0662
19004SOL     OW59018   9.495   4.412   2.632 -0.2748 -0.0435 -0.0641
19004SOL    HW159019   9.423   4.445   2.578  1.6282 -0.9768 -3.5487
19004SOL    HW259020   9.559   4.483   2.633  1.0452 -1.1118 -1.9366
19005SOL     OW59021   1.891   4.192   4.094 -0.6089  0.0296  0.4211
19005SOL    HW159022   1.895   4.118   4.034 -0.1633  1.5748 -1.5537
19005SOL    HW259023   1.799   4.218   4.095 -0.4884  0.4921 -0.2351
19006SOL     OW59024   4.188   3.222   8.668  0.0359  0.0853 -0.1083
19006SOL    HW159025   4.211   3.130   8.659  1.1376  0.3351 -0.0562
19006SOL    HW259026   4.099   3.222   8.702  0.5285 -0.9631  1.2417
19007SOL     OW59027   9.514   6.782   7.975 -0.9525 -0.2679 -0.0545
19007SOL    HW159028   9.514   6.870   8.012 -1.1484 -0.2273 -0.1485
19007SOL    HW259029   9.509   6.724   8.051  0.2119 -0.2307  0.0644
19008SOL     OW59030   4.308   6.182   6.240  0.4128  0.2732 -0.0169
19008SOL    HW159031   4.356   6.253   6.196  2.6707 -1.2600 -0.2305
19008SOL    HW259032   4.309   6.110   6.178  1.7762 -1.2349  1.6283
19009SOL     OW59033   7.728   0.900  10.418  0.1424  0.0148 -0.2187
19009SOL    HW159034   7.777   0.888  10.499 -0.5965 -0.0248  0.2336
19009SOL    HW259035   7.788   0.949  10.362  0.4658  0.5387  0.5526
19010SOL     OW59036   3.914   8.599   0.879  0.0588  0.5448 -0.2006
19010SOL    HW159037   3.858   8.677   0.878  0.0593  0.5459 -1.2091
19010SOL    HW259038   3.942   8.589   0.788 -0.7794 -1.2457 -0.3084
19011SOL     OW59039   7.105   8.385   6.723  0.1010 -0.1266  0.0220
19011SOL    HW159040   7.173   8.331   6.764  0.4302 -0.1239 -0.5168
19011SOL    HW259041   7.024   8.337   6.739  0.1830  0.0224  0.9350
19012SOL     OW59042   2.420   5.206   3.059 -0.2137 -0.9013  0.0115
19012SOL    HW159043   2.371   5.284   3.034  0.6703 -0.7463 -1.3587
19012SOL    HW259044   2.421   5.151   2.980  1.3708 -1.1125  0.1370
19013SOL     OW59045   0.572   9.495   7.939 -0.1891 -0.0410  0.5883
19013SOL    HW159046   0.512   9.452   7.879 -0.9403 -0.0001  1.2880
19013SOL    HW259047   0.517   9.521   8.014  1.0617 -2.0704  2.3312
19014SOL     OW59048   4.669   6.236   6.910 -0.1421  0.3286 -0.4410
19014SOL    HW159049   4.659   6.328   6.884  2.2894 -0.0329 -3.1642
19014SOL    HW259050   4.593   6.192   6.872 -0.0840  0.8629 -1.1954
19015SOL     OW59051   2.362   6.890   3.692 -0.0411  0.4721  0.5280
19015SOL    HW159052   2.373   6.953   3.621 -0.7388  0.2977  0.2512
19015SOL    HW259053   2.436   6.905   3.750 -0.7732  2.2974  1.0362
19016SOL     OW59054   5.923   6.436   8.736 -0.1334  0.0221 -0.3073
19016SOL    HW159055   5.863   6.371   8.772  1.5054 -0.9542  0.8277
19016SOL    HW259056   5.950   6.400   8.651  0.1032 -0.3533 -0.0745
19017SOL     OW59057   0.241   7.399   2.629 -0.2075  0.1949 -0.5929
19017SOL    HW159058   0.271   7.332   2.690 -0.1215  0.0889 -0.7512
19017SOL    HW259059   0.149   7.377   2.612 -0.6116  0.9475  0.4706
19018SOL     OW59060   6.336   5.176   9.015  0.3930 -0.3016  0.1056
19018SOL    HW159061   6.393   5.251   8.998  0.6600 -0.5245  0.0216
19018SOL    HW259062   6.254   5.198   8.970 -0.3245  0.9525  1.8918
19019SOL     OW59063  10.012   5.904   7.695  0.3204 -0.0543 -0.2662
19019SOL    HW159064  10.016   5.985   7.747 -0.7668 -1.0749  1.5107
19019SOL    HW259065  10.101   5.892   7.662  1.6016 -0.2562  2.9152
19020SOL     OW59066   0.204   0.441  10.752 -0.8094  0.4694  0.1709
19020SOL    HW159067   0.281   0.386  10.736 -1.7711 -1.0042  0.3952
19020SOL    HW259068   0.240   0.527  10.772  0.6890  0.5439 -2.3996
19021SOL     OW59069   6.482  10.229   9.961  0.2711  0.5817 -0.0814
19021SOL    HW159070   6.481  10.267  10.049  3.3415  1.5630 -0.3465
19021SOL    HW259071   6.575  10.212   9.944 -0.4526 -1.7556 -2.2622
19022SOL     OW59072   5.994   7.073   5.928  0.6017  0.3117  0.3904
19022SOL    HW159073   5.964   7.161   5.952  2.6670  0.8861  1.1133
19022SOL    HW259074   6.007   7.028   6.011  0.2939 -0.4114  0.0503
19023SOL     OW59075   3.063   3.866   1.235 -0.1263 -0.8599 -0.2165
19023SOL    HW159076   3.068   3.799   1.303 -3.8478 -0.7504  0.3895
19023SOL    HW259077   3.077   3.949   1.281  1.5085 -0.9765 -0.4346
19024SOL     OW59078  10.149   1.049   5.163 -0.5850 -0.3227 -0.1233
19024SOL    HW159079  10.201   1.117   5.121  1.6691 -0.6527  1.9020
19024SOL    HW259080  10.059   1.065   5.133  0.4529  0.9776 -2.8933
19025SOL     OW59081   8.388   1.770   3.376  0.0850 -0.0615 -0.3399
19025SOL    HW159082   8.393   1.864   3.359 -1.8150  0.0927 -0.2057
19025SOL    HW259083   8.368   1.732   3.290 -1.5948 -0.0732  0.0327
19026SOL     OW59084   3.924   1.826   5.992 -0.0179 -0.3328 -0.5607
19026SOL    HW159085   3.841   1.790   6.024 -0.1799  0.0159 -0.5871
19026SOL    HW259086   3.981   1.750   5.982  1.1128 -0.3002  3.5544
19027SOL     OW59087   5.035   6.248   6.148 -0.1501 -0.5867  0.4512
19027SOL    HW159088   5.028   6.206   6.234  0.6880 -0.1898  0.7259
19027SOL    HW259089   5.040   6.175   6.086 -1.4391 -0.8805  0.6579
19028SOL     OW59090   9.628   3.188   0.147  0.0082 -0.2875 -0.5126
19028SOL    HW159091   9.703   3.134   0.171 -0.7529 -0.7872  0.8429
19028SOL    HW259092   9.642   3.271   0.192  0.8035  0.4345 -2.0022
19029SOL     OW59093   5.621  10.619   4.883 -0.2414  0.0449  0.0502
19029SOL    HW159094   5.528  10.624   4.903 -0.2812 -0.9050  0.1358
19029SOL    HW259095   5.624  10.597   4.790 -0.0941  0.3680 -0.0237
19030SOL     OW59096   5.115  10.747   4.974 -0.1341 -0.1962 -0.1082
19030SOL    HW159097   5.126  10.665   5.022  0.6147 -0.2321 -0.3300
19030SOL    HW259098   5.113  10.814   5.042  1.8965 -0.1440 -0.0351
19031SOL     OW59099   6.694   2.460   6.213  0.5779  0.2031  0.0002
19031SOL    HW159100   6.611   2.508   6.222  0.4639  0.4059 -1.6810
19031SOL    HW259101   6.733   2.463   6.300 -2.1259 -1.7336  1.4391
19032SOL     OW59102  10.005   3.964   3.720 -0.0662  0.2972  0.3351
19032SOL    HW159103   9.964   4.050   3.717  2.0178  1.4362  1.8768
19032SOL    HW259104  10.074   3.967   3.654  0.2571 -0.0446  0.6518
19033SOL     OW59105   5.289   5.894   6.162  0.2233 -0.0190  0.0963
19033SOL    HW159106   5.197   5.886   6.188 -0.1036  1.0795 -0.6167
19033SOL    HW259107   5.312   5.808   6.128 -1.2805  0.2934 -1.8890
19034SOL     OW59108   4.929   6.399   8.612  0.4133 -0.0274 -0.6841
19034SOL    HW159109   5.014   6.386   8.571  0.6465  0.3392 -0.3263
19034SOL    HW259110   4.949   6.425   8.702 -0.1011 -1.8490 -0.0063
19035SOL     OW59111   1.482   1.618   8.070  0.0916 -0.7148 -1.2330
19035SOL    HW159112   1.425   1.582   8.139 -0.9934  0.7149 -1.3480
19035SOL    HW259113   1.526   1.541   8.034  0.4094 -1.5594  0.7901
19036SOL     OW59114   7.694   7.861   7.277  0.5839  0.3104  0.4291
19036SOL    HW159115   7.666   7.811   7.200 -1.2636  1.0284  0.5755
19036SOL    HW259116   7.774   7.905   7.250 -0.0835  0.6385 -1.1373
19037SOL     OW59117   5.449   4.515  10.361 -0.0018 -0.0267  0.2904
19037SOL    HW159118   5.529   4.550  10.322 -0.5363  2.3983  1.1474
19037SOL    HW259119   5.464   4.520  10.456 -0.8708 -0.2577  0.4518
19038SOL     OW59120   4.831   6.359  10.642  0.3885  0.7269  0.4384
19038SOL    HW159121   4.751   6.309  10.624 -0.1335  1.7749 -0.2770
19038SOL    HW259122   4.802   6.429  10.701  1.1470  0.0874  1.5811
19039SOL     OW59123   2.238   8.031   4.135 -0.3399  0.3504  0.0184
19039SOL    HW159124   2.267   8.065   4.219 -0.2971 -0.4568  0.3452
19039SOL    HW259125   2.261   7.938   4.138  0.1675  0.4278 -1.1118
19040SOL     OW59126  11.099   3.167   0.941 -0.2192  0.2703 -0.4182
19040SOL    HW159127  11.157   3.242   0.926 -1.4006  0.9767 -1.7386
19040SOL    HW259128  11.096   3.123   0.856  0.1376 -1.0693  0.2428
19041SOL     OW59129  11.020   1.191   9.074  0.2057 -0.3307 -0.3636
19041SOL    HW159130  11.036   1.276   9.115  0.3586 -0.0926 -0.9040
19041SOL    HW259131  11.026   1.209   8.980  0.9486 -1.0846 -0.4639
19042SOL     OW59132   9.332   3.307   6.307  0.2089  0.7371  0.1689
19042SOL    HW159133   9.341   3.220   6.345  0.4967  1.3973  1.6854
19042SOL    HW259134   9.260   3.299   6.245  1.9856 -1.2427 -1.8107
19043SOL     OW59135   4.272   2.742   1.531  0.6505 -0.1091 -0.6436
19043SOL    HW159136   4.221   2.666   1.505 -0.7229  0.9945 -1.2932
19043SOL    HW259137   4.326   2.763   1.455  0.0541  0.3229 -0.9647
19044SOL     OW59138  10.539   0.290   8.763 -0.0313 -0.2428  0.3892
19044SOL    HW159139  10.491   0.335   8.693 -0.4105  1.9362  1.9541
19044SOL    HW259140  10.623   0.267   8.723 -0.0171  1.4402 -0.6636
19045SOL     OW59141   1.293   7.182   3.873 -0.3743 -0.4567 -0.4242
19045SOL    HW159142   1.245   7.102   3.851  0.9726 -1.1891 -0.8464
19045SOL    HW259143   1.380   7.169   3.835 -0.5968  1.9443 -1.9487
19046SOL     OW59144   5.802   4.883   5.680  0.2086 -0.4360  0.5005
19046SOL    HW159145   5.857   4.914   5.608  1.2002 -0.6518  1.1496
19046SOL    HW259146   5.863   4.866   5.752 -0.7724 -0.0996  1.4441
19047SOL     OW59147   5.739   6.390   4.094  0.0587 -0.3307  0.0111
19047SOL    HW159148   5.753   6.312   4.146 -1.0333 -0.9849 -0.6356
19047SOL    HW259149   5.824   6.409   4.054  0.8924  0.1445  1.9221
19048SOL     OW59150   5.909   3.702   8.187  0.7208 -0.1004  0.5847
19048SOL    HW159151   5.841   3.749   8.235  0.5182 -0.9995  1.2100
19048SOL    HW259152   5.947   3.767   8.129 -1.0999  0.2922 -0.2430
19049SOL     OW59153   7.647   7.237   6.265  0.0461  0.0233  0.0952
19049SOL    HW159154   7.569   7.279   6.227  1.0349  1.1803 -0.7352
19049SOL    HW259155   7.693   7.201   6.190  0.4579 -0.4074  0.5562
19050SOL     OW59156   2.705   5.650  10.550  0.3436  0.7963  0.1163
19050SOL    HW159157   2.659   5.702  10.616  1.0704 -0.5943  1.8000
19050SOL    HW259158   2.643   5.582  10.526 -0.2593  1.8190 -1.3860
19051SOL     OW59159   9.391   9.269   6.921  1.0485 -0.6222  0.0046
19051SOL    HW159160   9.368   9.212   6.994 -1.6455 -1.5547 -1.4455
19051SOL    HW259161   9.357   9.355   6.946  0.5133 -0.8381  0.0154
19052SOL     OW59162   2.951   7.739   2.278  0.2190  0.4759 -0.6466
19052SOL    HW159163   2.892   7.690   2.221 -0.2328 -1.6828  1.5514
19052SOL    HW259164   2.903   7.820   2.298 -0.5970  0.2075 -1.4508
19053SOL     OW59165   9.978   5.120   9.024 -0.0548 -0.1504 -0.1149
19053SOL    HW159166  10.068   5.090   9.040  0.4255  1.6379  0.7618
19053SOL    HW259167   9.936   5.115   9.110 -2.0114 -4.3736 -1.0333
19054SOL     OW59168   5.954   8.716  11.007  0.2397  0.5075 -0.3154
19054SOL    HW159169   5.968   8.749  10.918  0.8111  1.7423  0.1961
19054SOL    HW259170   6.037   8.735  11.052  0.3801 -1.1534  0.1898
19055SOL     OW59171  10.689   9.255   5.022  0.6228  0.1209  0.0793
19055SOL    HW159172  10.638   9.176   5.036  2.1973 -0.6758  1.6944
19055SOL    HW259173  10.712   9.253   4.929 -0.7663 -0.3911 -0.2742
19056SOL     OW59174   1.961   8.763   8.043 -0.3934  0.1033  0.1180
19056SOL    HW159175   2.036   8.705   8.059  0.2603  1.3786  2.0859
19056SOL    HW259176   2.000   8.851   8.037 -1.7491  0.9074  2.0823
19057SOL     OW59177   5.143   7.382   8.177 -0.2134  0.4457 -0.3178
19057SOL    HW159178   5.102   7.438   8.110 -0.0413 -0.6322 -1.3719
19057SOL    HW259179   5.135   7.432   8.258 -1.5147  1.2892 -0.9168
19058SOL     OW59180   7.843   3.928   6.141  0.1552  0.1786 -0.3297
19058SOL    HW159181   7.932   3.907   6.114  0.3533  0.4517  0.0959
19058SOL    HW259182   7.795   3.846   6.131  0.0293  0.4514 -2.2209
19059SOL     OW59183   0.626   2.875   9.674 -0.5904 -0.0634 -0.3936
19059SOL    HW159184   0.531   2.858   9.673 -0.3305 -1.7752  0.2856
19059SOL    HW259185   0.664   2.793   9.705  0.8880  1.6469  2.6953
19060SOL     OW59186   4.294   3.676   4.182 -0.2769 -0.0724 -0.0037
19060SOL    HW159187   4.252   3.590   4.176  1.0345 -0.6891 -0.5507
19060SOL    HW259188   4.267   3.722   4.102 -1.0624  0.0862  0.3386
19061SOL     OW59189  10.829   0.198  10.710  1.0684  0.2347 -0.0772
19061SOL    HW159190  10.903   0.140  10.727  0.0886 -1.2525 -0.7316
19061SOL    HW259191  10.804   0.179  10.619  0.0010  0.8438  0.0774
19062SOL     OW59192  10.045   2.273   2.961 -0.0586  0.0586 -0.1372
19062SOL    HW159193  10.105   2.346   2.951  1.6969 -1.2780  0.1686
19062SOL    HW259194   9.968   2.311   3.003  0.1356  2.0025 -1.3950
19063SOL     OW59195   3.688   5.628   9.806 -0.0989 -0.2999 -0.1149
19063SOL    HW159196   3.627   5.563   9.772  0.0985 -1.1238  1.0649
19063SOL    HW259197   3.635   5.685   9.861 -0.2192  0.4054 -0.9304
19064SOL     OW59198   5.213   9.953   5.467 -0.1268  0.0494  0.1668
19064SOL    HW159199   5.264   9.930   5.545 -0.2270  0.4986  0.3641
19064SOL    HW259200   5.279   9.969   5.399  0.0282  1.1399  0.5540
19065SOL     OW59201   6.680   8.793   7.760  0.0205  0.1394 -0.0371
19065SOL    HW159202   6.633   8.745   7.827  0.1779  0.2276  0.1354
19065SOL    HW259203   6.733   8.857   7.808  0.5323 -0.1462 -0.2129
19066SOL     OW59204   9.189   6.328   1.581 -0.2467 -0.0541 -0.2802
19066SOL    HW159205   9.266   6.309   1.526  1.5049 -0.8863  2.2728
19066SOL    HW259206   9.154   6.241   1.603 -0.9367  0.2675 -0.1081
19067SOL     OW59207   2.603   7.825   7.033  0.0565 -0.3777 -0.8397
19067SOL    HW159208   2.663   7.876   6.979  1.8357  0.3094  1.6150
19067SOL    HW259209   2.536   7.888   7.061  0.4268 -0.1698 -0.4150
19068SOL     OW59210   5.701   7.573   9.727  0.2523  0.4754 -0.2811
19068SOL    HW159211   5.678   7.577   9.820  1.8218 -1.6539  0.2712
19068SOL    HW259212   5.656   7.495   9.694  0.5607  0.6050 -1.0280
19069SOL     OW59213   7.762   8.041   8.970 -0.0907 -0.1812  0.1192
19069SOL    HW159214   7.735   7.950   8.955 -1.8178  0.3120 -0.0005
19069SOL    HW259215   7.717   8.066   9.050  0.3044  0.6018  0.1011
19070SOL     OW59216   0.862   6.120  10.704  0.1758  0.0451 -0.3122
19070SOL    HW159217   0.937   6.154  10.754  1.3072  0.5591 -2.2353
19070SOL    HW259218   0.785   6.148  10.754  1.2169 -0.5573  1.7755
19071SOL     OW59219   2.466   4.241   6.310  0.0169  0.2675 -0.1312
19071SOL    HW159220   2.426   4.201   6.388 -0.0225 -0.6440 -0.6084
19071SOL    HW259221   2.540   4.184   6.289 -0.3756  0.1174 -1.1519
19072SOL     OW59222   7.058   8.944   1.905 -0.5433 -0.0339  0.4038
19072SOL    HW159223   7.129   8.977   1.850 -0.5859 -0.8096 -0.1385
19072SOL    HW259224   7.102   8.887   1.968 -0.6212 -0.0396  0.4525
19073SOL     OW59225  10.403   6.598   3.216  0.4204 -0.0979 -0.0081
19073SOL    HW159226  10.424   6.537   3.286  1.2607 -0.6321 -0.7078
19073SOL    HW259227  10.488   6.619   3.176  0.1323  1.3321  0.0506
19074SOL     OW59228   9.263   9.427   1.576  0.7501 -0.0183 -0.1521
19074SOL    HW159229   9.217   9.500   1.616  2.2854  1.8940 -1.6534
19074SOL    HW259230   9.194   9.372   1.538 -0.4961  0.0188  1.9433
19075SOL     OW59231   1.733   9.995   9.637  0.1045  0.6547 -0.1077
19075SOL    HW159232   1.669   9.940   9.591  0.5292  0.5611 -0.5935
19075SOL    HW259233   1.689  10.079   9.645  0.8274  1.3806 -2.7143
19076SOL     OW59234   5.118   1.134   9.772 -0.2198 -0.0842  0.4393
19076SOL    HW159235   5.192   1.182   9.736  0.7586 -0.7960  1.4206
19076SOL    HW259236   5.158   1.062   9.821 -1.6168 -2.3040 -1.4729
19077SOL     OW59237   9.385   2.803   7.954 -0.3952 -0.3972 -0.3605
19077SOL    HW159238   9.291   2.816   7.938 -0.6138 -0.0766  1.0631
19077SOL    HW259239   9.397   2.708   7.953 -0.6677 -0.4314 -0.8614
19078SOL     OW59240   3.838   6.182   4.820  0.6982  0.0267  0.1613
19078SOL    HW159241   3.921   6.173   4.775  0.8212 -1.9427  0.7137
19078SOL    HW259242   3.858   6.233   4.899  1.0646  0.8375 -0.4437
19079SOL     OW59243   8.518   5.769   3.138 -0.5489  0.6771  0.0813
19079SOL    HW159244   8.435   5.812   3.151 -0.6425  0.5763 -0.1701
19079SOL    HW259245   8.519   5.747   3.044 -1.2876 -1.4393  0.5130
19080SOL     OW59246   7.972   5.790   6.709 -0.5440  0.2451 -0.3404
19080SOL    HW159247   7.890   5.752   6.678 -0.2572 -2.3236  1.7265
19080SOL    HW259248   8.038   5.725   6.688  0.9503  2.0361 -1.4868
19081SOL     OW59249   5.306   6.756   6.040  0.3299 -0.1763 -0.1193
19081SOL    HW159250   5.351   6.684   6.084 -2.4134 -0.8679  1.8734
19081SOL    HW259251   5.350   6.835   6.069  1.7407 -0.9039 -0.2295
19082SOL     OW59252   4.148   5.536   0.633  0.2330 -0.3250  0.0003
19082SOL    HW159253   4.170   5.495   0.717  0.0749  2.7106  1.7045
19082SOL    HW259254   4.211   5.499   0.571  1.0243 -1.9610  1.6583
19083SOL     OW59255   5.074   8.789   6.415  0.5625 -0.5527 -0.1066
19083SOL    HW159256   5.092   8.769   6.323 -0.9586 -0.1228 -0.5122
19083SOL    HW259257   5.093   8.707   6.461 -0.7322 -1.4561 -1.1003
19084SOL     OW59258   3.912   1.479   5.264 -0.3591 -0.1535  0.0727
19084SOL    HW159259   3.893   1.558   5.214  1.3559 -0.5967 -1.3462
19084SOL    HW259260   3.880   1.408   5.209 -1.6175 -0.5077  1.2091
19085SOL     OW59261   3.286  10.113   7.325  0.7529 -0.1665  0.1811
19085SOL    HW159262   3.339  10.193   7.317 -0.1432  0.3656 -0.6142
19085SOL    HW259263   3.281  10.097   7.419  0.2156  1.2204  0.4173
19086SOL     OW59264   3.748   6.793   7.960  0.2799  0.1855  0.2686
19086SOL    HW159265   3.801   6.728   7.916  1.9100  1.0722  0.8521
19086SOL    HW259266   3.703   6.744   8.030  3.2694  0.0032  2.2216
19087SOL     OW59267   6.083   8.029   7.735 -0.2932 -0.4482 -0.2547
19087SOL    HW159268   6.146   7.957   7.735  1.4891  0.9053  2.6475
19087SOL    HW259269   6.120   8.094   7.675  0.5607 -0.1611  0.5390
19088SOL     OW59270   6.466   9.232   8.639  0.2056 -0.0967 -0.0887
19088SOL    HW159271   6.435   9.193   8.720  1.0261  0.5316  0.5467
19088SOL    HW259272   6.514   9.161   8.595 -0.9620 -0.6878 -0.4589
19089SOL     OW59273   2.577   2.214   9.404 -0.3860  0.7714 -0.0016
19089SOL    HW159274   2.526   2.283   9.447  0.4088  1.7994 -0.6547
19089SOL    HW259275   2.662   2.254   9.387 -0.6361  0.4451 -2.4798
19090SOL     OW59276   7.675   5.092   8.332  0.0257  0.5475  0.6509
19090SOL    HW159277   7.616   5.165   8.349 -0.8701 -0.3404  1.4457
19090SOL    HW259278   7.712   5.071   8.417  0.0074 -0.1591  0.4860
19091SOL     OW59279   4.533   3.036   0.625 -0.0982  0.2591  0.6990
19091SOL    HW159280   4.565   2.987   0.549 -2.6676  0.8955 -0.9048
19091SOL    HW259281   4.600   3.102   0.642  0.5692  0.0538 -0.9796
19092SOL     OW59282   5.156   9.514   8.416  0.9844  0.1161 -0.2587
19092SOL    HW159283   5.165   9.428   8.458  1.5552  0.6005  0.6520
19092SOL    HW259284   5.071   9.546   8.445  0.9376  0.0268 -0.2948
19093SOL     OW59285   2.983   5.710   6.376  0.2937 -0.2262 -0.3102
19093SOL    HW159286   2.888   5.719   6.369  0.1796 -1.0985 -0.0024
19093SOL    HW259287   3.000   5.716   6.470  0.7618  1.7549 -0.4716
19094SOL     OW59288   6.372   8.790   5.203 -0.4439 -0.1784 -0.1653
19094SOL    HW159289   6.280   8.810   5.225 -0.5517 -1.3143  0.4854
19094SOL    HW259290   6.372   8.696   5.186  0.6081 -0.1829 -0.1566
19095SOL     OW59291   4.564   7.340  11.071  0.4183  0.1641 -0.2929
19095SOL    HW159292   4.474   7.330  11.041  0.8655  0.0571 -1.7154
19095SOL    HW259293   4.557   7.382  11.156 -0.9477  1.2440 -0.8986
19096SOL     OW59294  10.971   2.832   2.496  0.0029 -0.3284 -0.5456
19096SOL    HW159295  10.891   2.849   2.545  0.5498 -0.7737  0.5321
19096SOL    HW259296  11.035   2.893   2.532  0.3228 -0.4190 -0.9473
19097SOL     OW59297   5.634   8.064   2.531  0.5772  0.0571 -0.0245
19097SOL    HW159298   5.581   8.137   2.563  0.1360 -0.4778  0.4895
19097SOL    HW259299   5.590   7.986   2.565  0.2459 -0.5304 -1.6831
19098SOL     OW59300   6.529   6.565   0.459 -0.5107  0.1774 -0.3231
19098SOL    HW159301   6.603   6.619   0.488 -0.0152 -0.8518  0.3958
19098SOL    HW259302   6.534   6.568   0.363  1.0476 -0.6045 -0.3060
19099SOL     OW59303   0.188   4.386   1.163 -0.4080 -0.0357  0.0557
19099SOL    HW159304   0.255   4.452   1.147  0.5917 -0.6321  1.5581
19099SOL    HW259305   0.235   4.303   1.158 -0.7678 -0.4153  2.2179
19100SOL     OW59306   4.008   3.886   3.277 -0.2942  0.4422  0.0691
19100SOL    HW159307   4.018   3.799   3.237 -0.0572  0.3520  0.3279
19100SOL    HW259308   4.049   3.878   3.363 -0.0381  0.8900 -0.0105
19101SOL     OW59309   7.829   4.706  10.451  0.4810  0.2466  0.3514
19101SOL    HW159310   7.850   4.654  10.529 -1.7431  0.8588  1.4521
19101SOL    HW259311   7.756   4.659  10.411  1.1845  0.2992 -1.0328
19102SOL     OW59312   7.608  10.027   3.722 -0.4002  0.0231  0.2137
19102SOL    HW159313   7.559  10.094   3.674  0.5358  0.5559 -0.0113
19102SOL    HW259314   7.653  10.074   3.792 -0.2711 -0.4728  0.4762
19103SOL     OW59315   0.988   6.854   0.434 -0.4077 -0.1054 -0.1495
19103SOL    HW159316   0.980   6.792   0.361 -1.4062  0.1284 -0.2427
19103SOL    HW259317   1.006   6.798   0.510 -0.2304 -0.4172 -0.4132
19104SOL     OW59318  10.590   7.323   9.015  0.0016 -0.2322  1.1206
19104SOL    HW159319  10.613   7.305   9.107  0.2411 -0.3819  1.0324
19104SOL    HW259320  10.623   7.411   8.998 -1.5440  0.5022  1.6838
19105SOL     OW59321   3.076   9.791   8.886 -0.7634 -0.4759  0.2888
19105SOL    HW159322   2.999   9.844   8.866 -1.1336 -0.7172  1.0406
19105SOL    HW259323   3.128   9.793   8.806 -1.2817  0.1505 -0.0393
19106SOL     OW59324   7.462   7.666   9.015  0.1275 -0.5892  0.4084
19106SOL    HW159325   7.403   7.631   8.949  0.4430 -1.0182  0.3462
19106SOL    HW259326   7.457   7.604   9.087 -0.0958 -0.2070  0.7287
19107SOL     OW59327   4.970  10.607  10.052  0.2893 -0.1324 -0.0830
19107SOL    HW159328   4.979  10.671   9.982  0.4684  0.7866  0.7633
19107SOL    HW259329   5.001  10.525  10.013  0.5476  0.3925 -1.0211
19108SOL     OW59330   1.604   5.611   9.875  0.5098 -0.2908  0.1363
19108SOL    HW159331   1.670   5.645   9.935 -0.5418  0.3261  0.9839
19108SOL    HW259332   1.642   5.623   9.788  1.9268 -0.9077  0.6347
19109SOL     OW59333   5.070   0.634   7.684 -0.1010 -0.3462  0.1377
19109SOL    HW159334   5.126   0.561   7.657  0.5895  0.3632 -0.4044
19109SOL    HW259335   5.120   0.712   7.662 -0.0031  0.3177  2.4264
19110SOL     OW59336   6.253  10.277   3.654 -0.3917  0.8541 -0.3562
19110SOL    HW159337   6.282  10.300   3.566 -0.2935  1.6840 -0.1095
19110SOL    HW259338   6.250  10.360   3.702  0.3701  0.3123  0.6730
19111SOL     OW59339  10.630   8.446   8.718  0.5469 -0.3340  0.0103
19111SOL    HW159340  10.589   8.491   8.645  2.0796  0.8013 -0.1918
19111SOL    HW259341  10.706   8.500   8.740  1.4051 -1.8624  0.9538
19112SOL     OW59342   6.904   2.148   5.192  0.2865  0.5432 -0.5613
19112SOL    HW159343   6.886   2.077   5.131  0.3592  0.1702 -0.1474
19112SOL    HW259344   6.870   2.226   5.147 -0.4488  0.1537 -0.7076
19113SOL     OW59345   2.280   8.591   2.272 -0.2344 -0.0588 -0.5180
19113SOL    HW159346   2.284   8.518   2.334  1.2830  0.5063  0.0986
19113SOL    HW259347   2.248   8.665   2.324 -0.9678 -0.0600 -0.9429
19114SOL     OW59348   7.542   6.633  10.637 -0.7378 -0.3401 -0.7301
19114SOL    HW159349   7.624   6.606  10.677 -0.2792  2.9603  0.9044
19114SOL    HW259350   7.479   6.634  10.710 -0.8889  1.9476 -0.8139
19115SOL     OW59351   1.058   1.661  10.200  0.2412 -0.1752  0.4013
19115SOL    HW159352   1.131   1.631  10.147  1.2172  1.1993  0.9005
19115SOL    HW259353   1.003   1.584  10.212  1.0132 -0.9648 -0.9456
19116SOL     OW59354   2.842   6.594  10.101  0.3538  0.3578 -0.6825
19116SOL    HW159355   2.929   6.557  10.117  0.0543 -0.2736 -0.4593
19116SOL    HW259356   2.858   6.685  10.080  0.9859  0.5911  0.6590
19117SOL     OW59357   4.635   5.787   7.643 -0.0103  0.0168  0.0176
19117SOL    HW159358   4.646   5.842   7.565 -1.2388  0.0092 -0.1824
19117SOL    HW259359   4.640   5.698   7.610  1.3625  0.0019  0.2465
19118SOL     OW59360   8.129   5.479   8.769  0.1954  0.6412 -0.1427
19118SOL    HW159361   8.152   5.386   8.768 -0.2326  0.5286 -1.2057
19118SOL    HW259362   8.137   5.505   8.861 -0.6024 -0.6878  0.3388
19119SOL     OW59363   8.102   6.683   7.149 -0.2860  0.1926 -0.0893
19119SOL    HW159364   8.099   6.680   7.244 -1.3420 -0.2045 -0.1177
19119SOL    HW259365   8.176   6.740   7.128  0.9601 -0.9774  0.9476
19120SOL     OW59366   4.549  10.638   3.322 -0.4026  0.2623 -0.0741
19120SOL    HW159367   4.498  10.702   3.371  0.1819  0.2263  0.5960
19120SOL    HW259368   4.640  10.658   3.344 -0.2152 -0.8393  0.1893
19121SOL     OW59369   7.718   2.501   9.462 -0.1823  0.0892  0.2577
19121SOL    HW159370   7.697   2.562   9.391 -0.1549  0.9925  1.0098
19121SOL    HW259371   7.718   2.415   9.420  1.8296  0.7748 -1.2823
19122SOL     OW59372   7.796   5.379   6.638  0.2539  0.1761 -0.2275
19122SOL    HW159373   7.766   5.469   6.624 -1.2496 -0.2189  0.2927
19122SOL    HW259374   7.856   5.385   6.712  0.2300  0.7578 -0.2489
19123SOL     OW59375   5.202   0.770   4.620 -0.0230  0.2046 -0.0995
19123SOL    HW159376   5.181   0.806   4.534  1.5177  1.9527  0.2002
19123SOL    HW259377   5.165   0.834   4.682  2.1952  1.0376  0.4564
19124SOL     OW59378   3.603   9.151  10.852  0.3674  0.2861  0.1552
19124SOL    HW159379   3.664   9.119  10.918  0.2151  0.1486  0.2299
19124SOL    HW259380   3.651   9.144  10.769 -0.1752 -1.5452 -0.0420
19125SOL     OW59381   4.619   6.146   1.295 -0.0032 -0.0513  0.4800
19125SOL    HW159382   4.676   6.131   1.220  0.3509  1.5201  0.3964
19125SOL    HW259383   4.553   6.077   1.290 -0.7286  0.7348 -2.0241
19126SOL     OW59384   0.519   9.897   6.840 -0.2550 -0.5045 -0.5130
19126SOL    HW159385   0.539   9.955   6.766 -0.0477  0.7105  0.4714
19126SOL    HW259386   0.520   9.954   6.917 -0.7527 -1.6905  0.4078
19127SOL     OW59387   3.684   5.167   9.856  0.9652  0.2352 -0.1756
19127SOL    HW159388   3.690   5.214   9.940  2.1126  0.2876 -0.2715
19127SOL    HW259389   3.750   5.209   9.801 -1.2403  1.7213 -1.8973
19128SOL     OW59390   9.600   4.766   6.117 -0.1428  0.0779  0.2916
19128SOL    HW159391   9.543   4.787   6.043 -0.0579 -0.7489 -0.0260
19128SOL    HW259392   9.667   4.708   6.080  1.1378  1.3267  0.5815
19129SOL     OW59393   8.395   8.309   6.021  0.0008  0.8012  0.2669
19129SOL    HW159394   8.467   8.368   5.999  0.6269 -0.2407 -0.5524
19129SOL    HW259395   8.325   8.334   5.962 -0.4134  1.9599  1.2092
19130SOL     OW59396   9.924   0.814   2.992  0.0453  0.0901  0.6318
19130SOL    HW159397   9.908   0.903   3.023  0.6335 -0.0986  1.5284
19130SOL    HW259398   9.958   0.825   2.903  1.7306  0.8857  1.3339
19131SOL     OW59399   8.364   0.975   6.916 -0.2308 -0.8522 -0.2306
19131SOL    HW159400   8.353   0.940   6.828  1.1693 -0.3161 -0.6378
19131SOL    HW259401   8.368   0.899   6.973  2.1301 -1.3908 -1.0232
19132SOL     OW59402   5.238   3.163   9.317 -0.5732  0.0270  0.0994
19132SOL    HW159403   5.237   3.132   9.226 -0.4922  1.3377 -0.3636
19132SOL    HW259404   5.312   3.223   9.321 -0.1691 -0.5222  1.2261
19133SOL     OW59405   4.088   8.003   4.407  0.2683 -0.3317 -0.1215
19133SOL    HW159406   4.111   7.912   4.388  1.7555  0.3635 -1.9757
19133SOL    HW259407   4.162   8.036   4.458 -0.9736 -0.5168  1.9240
19134SOL     OW59408  10.444   5.243  11.020  0.7101 -0.1811 -0.0931
19134SOL    HW159409  10.473   5.184  11.090 -0.7683  0.5731  1.2223
19134SOL    HW259410  10.390   5.189  10.963 -1.5648  0.0512  1.7192
19135SOL     OW59411   1.200   5.029   8.632 -0.3965 -0.2824  0.0386
19135SOL    HW159412   1.137   4.964   8.664  0.8291 -1.6333 -0.2319
19135SOL    HW259413   1.269   4.978   8.590  1.6666  1.0207  1.6174
19136SOL     OW59414   8.233   7.258   9.690  0.1223 -0.3282  0.7245
19136SOL    HW159415   8.286   7.221   9.760  0.2548 -0.8385  0.3593
19136SOL    HW259416   8.143   7.240   9.716  0.1797 -0.6910  0.6686
19137SOL     OW59417   7.228   4.616   6.294  0.4711  0.2114  0.6127
19137SOL    HW159418   7.192   4.571   6.218  0.1700 -0.3962  1.1132
19137SOL    HW259419   7.236   4.708   6.266  1.6815 -0.2441 -0.6190
19138SOL     OW59420   8.986   3.978   8.891  0.2968 -0.2235  0.0359
19138SOL    HW159421   8.957   4.031   8.817  2.8392 -1.7036 -2.1879
19138SOL    HW259422   8.951   3.890   8.872  0.7638 -0.5662  0.7337
19139SOL     OW59423  10.147   2.774   6.631  0.2485 -0.1583  0.6020
19139SOL    HW159424  10.065   2.748   6.673  0.5329 -0.5639  0.9160
19139SOL    HW259425  10.198   2.813   6.702 -0.9618  3.2520 -0.2342
19140SOL     OW59426   9.730   5.958   2.299 -0.4993 -0.3078  0.6428
19140SOL    HW159427   9.769   5.893   2.358 -1.0518 -0.8393  0.4329
19140SOL    HW259428   9.744   6.042   2.344  1.9607 -0.3009  0.0120
19141SOL     OW59429   9.238   8.879   7.647  0.2974  0.1536 -0.3919
19141SOL    HW159430   9.223   8.880   7.553  0.5321  1.3641 -0.4349
19141SOL    HW259431   9.183   8.807   7.680  1.9663 -1.8122 -1.6960
19142SOL     OW59432   7.138   1.203  10.662 -0.6067 -0.6388 -0.0749
19142SOL    HW159433   7.114   1.292  10.637 -0.6781 -1.1971 -2.1706
19142SOL    HW259434   7.107   1.149  10.590  1.5978 -2.0827 -0.0350
19143SOL     OW59435   0.499  10.129   4.190  1.0043  0.0745 -0.6434
19143SOL    HW159436   0.546  10.101   4.111  1.7532  0.5437 -0.3765
19143SOL    HW259437   0.561  10.187   4.235  0.9036 -0.8408  0.7133
19144SOL     OW59438  10.499   3.592   4.178  0.4419 -0.6346  0.1566
19144SOL    HW159439  10.501   3.672   4.125 -0.3138  0.4852  1.7455
19144SOL    HW259440  10.585   3.552   4.162  1.5060  1.3311  0.5231
19145SOL     OW59441   1.701   5.507   6.712 -0.3211 -0.8185  0.1871
19145SOL    HW159442   1.683   5.502   6.806 -0.5967 -0.4325  0.1598
19145SOL    HW259443   1.641   5.444   6.673  1.0437 -2.3117  0.4130
19146SOL     OW59444  11.010   6.987   8.073 -0.3039 -0.1697 -0.1027
19146SOL    HW159445  11.103   6.961   8.078 -0.4273 -0.5244  0.4742
19146SOL    HW259446  10.994   6.999   7.979 -0.3472 -2.6986 -0.4935
19147SOL     OW59447   3.014   6.030  10.028 -0.2662  0.0990 -0.1010
19147SOL    HW159448   2.968   5.999   9.950  0.0753 -0.5345 -0.0575
19147SOL    HW259449   3.050   5.951  10.068 -0.8972  0.3493  1.0052
19148SOL     OW59450   6.168   9.284   1.359  0.2431  0.2648 -0.2828
19148SOL    HW159451   6.233   9.256   1.424  0.6028 -0.8485 -1.0895
19148SOL    HW259452   6.084   9.258   1.397  0.4307 -0.1599 -0.1522
19149SOL     OW59453   0.562   2.082   9.646 -0.1205  0.0449  0.4341
19149SOL    HW159454   0.631   2.095   9.712 -2.0936  1.0440  2.4348
19149SOL    HW259455   0.577   1.993   9.613  1.8772  0.1046  1.0653
19150SOL     OW59456   8.110   4.586   4.839  0.3652 -0.7254 -0.1088
19150SOL    HW159457   8.139   4.516   4.781 -0.5360 -0.9871 -0.2604
19150SOL    HW259458   8.155   4.664   4.807  1.3226 -1.2118  0.0197
19151SOL     OW59459   2.002   2.053  10.591 -0.4993  0.4688  0.3860
19151SOL    HW159460   1.937   1.995  10.551 -0.7507  0.2188  1.1446
19151SOL    HW259461   2.085   2.029  10.549 -0.1935 -1.9292  2.1225
19152SOL     OW59462   3.312   5.446   6.219 -0.3512 -0.2899  0.6907
19152SOL    HW159463   3.275   5.451   6.308 -1.5641 -1.8876  0.3275
19152SOL    HW259464   3.348   5.357   6.213  0.9447  0.2570  0.0172
19153SOL     OW59465   2.051   4.580   6.930  0.4749 -0.1629  0.3286
19153SOL    HW159466   2.010   4.576   6.844 -0.4428  0.1592  0.7437
19153SOL    HW259467   2.087   4.669   6.936 -1.4021  0.5797  1.1339
19154SOL     OW59468   3.046   6.237   7.282 -0.4370  0.0490 -0.5717
19154SOL    HW159469   3.064   6.191   7.364  2.5330 -0.7181 -1.5447
19154SOL    HW259470   2.996   6.174   7.230  0.0759 -0.5108 -0.3916
19155SOL     OW59471   7.773   7.916   6.637  0.0444  0.6077  0.2786
19155SOL    HW159472   7.833   7.854   6.596 -1.0360 -0.2247 -0.0833
19155SOL    HW259473   7.780   7.899   6.731 -1.7056 -1.5127  0.1038
19156SOL     OW59474   3.514   7.172   2.296 -0.7867 -0.1848  0.0192
19156SOL    HW159475   3.452   7.196   2.227 -0.1786  0.2867 -0.3669
19156SOL    HW259476   3.538   7.081   2.275 -1.2911 -0.3496  0.1353
19157SOL     OW59477   7.000   6.435   2.023 -0.0168 -0.4839 -0.1211
19157SOL    HW159478   7.027   6.518   2.063 -0.7363  0.2655 -1.1313
19157SOL    HW259479   6.972   6.381   2.096  0.8406  0.0185  0.5973
19158SOL     OW59480   4.954   5.396   4.128 -0.3513 -0.1498  0.0377
19158SOL    HW159481   4.977   5.329   4.193 -0.2240  0.1898  0.3403
19158SOL    HW259482   4.868   5.368   4.096 -0.4064 -0.3307  0.3348
19159SOL     OW59483   2.842   7.324   9.521 -0.8863 -0.0412  0.4666
19159SOL    HW159484   2.933   7.322   9.547 -1.1225  1.2703  1.4796
19159SOL    HW259485   2.809   7.236   9.540 -0.2099 -0.0786  1.5219
19160SOL     OW59486   9.546   9.290   8.363 -0.3059 -0.5082  0.1223
19160SOL    HW159487   9.604   9.341   8.306 -0.8501 -0.1503 -0.1244
19160SOL    HW259488   9.457   9.313   8.333 -0.6479  0.3842  1.6810
19161SOL     OW59489   8.039   3.449   8.906 -0.0702  0.2719 -0.4227
19161SOL    HW159490   8.103   3.394   8.952  0.2581  1.5169  0.6885
19161SOL    HW259491   8.079   3.467   8.821  1.9347  2.3850  0.8422
19162SOL     OW59492   3.134   9.481   8.518  0.6463  0.0938 -0.3573
19162SOL    HW159493   3.061   9.543   8.518  1.6391  1.5463  3.1703
19162SOL    HW259494   3.197   9.517   8.456 -0.3480  0.4791 -1.1716
19163SOL     OW59495   8.548   4.141  10.253 -0.6798 -0.1123  0.4363
19163SOL    HW159496   8.532   4.130  10.347  0.5211 -1.3272  0.5280
19163SOL    HW259497   8.465   4.117  10.212 -1.1186  0.1286  1.1647
19164SOL     OW59498   6.485   3.053   2.036 -0.5776 -0.5409  0.2106
19164SOL    HW159499   6.514   3.101   2.113 -0.3005 -0.6079  0.1485
19164SOL    HW259500   6.446   3.120   1.980  1.4611 -0.0355 -0.7040
19165SOL     OW59501   2.182   8.561   7.257  0.3391 -0.1398 -0.2234
19165SOL    HW159502   2.214   8.508   7.184  1.5140  0.3470 -0.0892
19165SOL    HW259503   2.249   8.630   7.268  0.3890 -0.4105  1.5319
19166SOL     OW59504   6.424   5.704  10.412 -0.1789 -0.4838  0.3908
19166SOL    HW159505   6.377   5.771  10.363 -0.0597 -0.5354  0.2010
19166SOL    HW259506   6.512   5.703  10.373 -0.4029 -1.2748 -0.1359
19167SOL     OW59507   3.568   7.831   8.635 -0.0542  0.1534  0.2703
19167SOL    HW159508   3.648   7.822   8.584  2.0293 -2.2090  3.6238
19167SOL    HW259509   3.577   7.915   8.681  0.2062  0.1279  0.2623
19168SOL     OW59510   3.497   6.560   8.331 -0.2391 -0.3867  0.2203
19168SOL    HW159511   3.440   6.636   8.329 -1.2302 -1.1163  0.0960
19168SOL    HW259512   3.493   6.530   8.422 -0.1098 -0.4770  0.1958
19169SOL     OW59513   4.634   3.063   8.919  0.4941  0.2594  0.0632
19169SOL    HW159514   4.642   3.146   8.872  0.1266  0.2599 -0.0000
19169SOL    HW259515   4.666   2.997   8.857  2.1409  0.5019  0.6227
19170SOL     OW59516   1.542   8.254   0.936  0.2468  0.2180  0.1427
19170SOL    HW159517   1.555   8.313   1.010  0.0637  2.2069 -1.3171
19170SOL    HW259518   1.463   8.288   0.893  1.0386 -0.1190 -1.6289
19171SOL     OW59519   7.000   0.569  10.453 -0.8522  0.2995 -0.6585
19171SOL    HW159520   7.062   0.509  10.494 -1.2298  0.0785 -0.4056
19171SOL    HW259521   7.055   0.632  10.406 -0.4386  0.1083 -0.4356
19172SOL     OW59522   5.858   4.936   0.155  0.0913 -0.5945 -0.0749
19172SOL    HW159523   5.917   4.924   0.081  0.4103  0.4715 -0.0110
19172SOL    HW259524   5.915   4.956   0.229 -0.2237 -1.6643  0.4782
19173SOL     OW59525   9.824   5.255   8.654 -0.4573 -0.6087 -0.1347
19173SOL    HW159526   9.826   5.232   8.561 -1.6664 -1.2665 -0.0184
19173SOL    HW259527   9.741   5.219   8.686 -0.6562  0.7017  0.9222
19174SOL     OW59528   9.949   7.169   6.881  0.5557  0.1428 -0.4385
19174SOL    HW159529   9.981   7.255   6.854  0.9662  0.3744  0.7399
19174SOL    HW259530   9.956   7.169   6.977  0.3145 -1.1078 -0.4001
19175SOL     OW59531   4.320   0.324   7.145 -0.1517  0.2355  0.3753
19175SOL    HW159532   4.362   0.331   7.230 -0.9127  0.8680  0.7130
19175SOL    HW259533   4.295   0.414   7.123  1.5060  0.3451 -1.2897
19176SOL     OW59534   0.134   9.291   5.925  0.1012 -0.4817  0.8686
19176SOL    HW159535   0.179   9.207   5.934  1.0754 -0.1022 -0.3128
19176SOL    HW259536   0.200   9.350   5.888 -1.2731  0.1696 -0.6188
19177SOL     OW59537   0.223   8.874   4.535 -0.4642 -0.1225  0.3881
19177SOL    HW159538   0.174   8.808   4.485 -0.7586  0.0032  0.5028
19177SOL    HW259539   0.298   8.827   4.571  0.2277 -0.0223 -0.8808
19178SOL     OW59540   4.694   8.755  10.154 -0.2588  0.4545 -0.1015
19178SOL    HW159541   4.616   8.811  10.157  0.0241  0.8445  2.0793
19178SOL    HW259542   4.765   8.812  10.184  0.4570 -0.4715 -0.0005
19179SOL     OW59543   5.618   1.256   3.821  0.3057  0.2990  0.0743
19179SOL    HW159544   5.561   1.205   3.764 -0.7704  1.6192 -0.0948
19179SOL    HW259545   5.564   1.275   3.897  1.7068 -1.3967  1.5829
19180SOL     OW59546   5.194   9.611   3.276  0.4059  0.1628  0.3154
19180SOL    HW159547   5.214   9.521   3.254 -0.4609  0.0830 -0.2108
19180SOL    HW259548   5.141   9.605   3.356  0.2027  0.1929  0.1838
19181SOL     OW59549   9.423   3.816   3.938 -0.3882  0.3015  0.2735
19181SOL    HW159550   9.444   3.758   3.865 -0.0520  1.3153 -0.4531
19181SOL    HW259551   9.390   3.758   4.006  0.4404 -0.8072 -0.2402
19182SOL     OW59552  11.089  10.951   3.628  0.2798 -0.1153  0.1219
19182SOL    HW159553  11.094  10.944   3.724 -1.7501  1.1457  0.3765
19182SOL    HW259554  11.009  10.904   3.605 -0.2140  1.1081 -0.7337
19183SOL     OW59555   8.207   7.801  10.899 -0.5467  0.0413  0.3119
19183SOL    HW159556   8.235   7.774  10.986  0.6044 -0.4099 -0.1811
19183SOL    HW259557   8.282   7.849  10.863 -0.3189 -1.3096 -1.1040
19184SOL     OW59558   9.473  10.209   5.667  0.3424  1.2772  0.1018
19184SOL    HW159559   9.421  10.207   5.747  0.3201  0.5201  0.0779
19184SOL    HW259560   9.421  10.261   5.606  0.3383  1.8174  0.5628
19185SOL     OW59561   8.749  10.132   0.491  0.2536  0.7294  0.5373
19185SOL    HW159562   8.814  10.105   0.555 -1.2640  1.4321  2.4864
19185SOL    HW259563   8.692  10.056   0.480 -2.3617  1.9165  3.9020
19186SOL     OW59564   5.483   1.664  10.923 -0.1082  0.0432 -0.8762
19186SOL    HW159565   5.555   1.691  10.867 -0.0942  0.7560 -0.5205
19186SOL    HW259566   5.421   1.621  10.863  1.4914 -2.4395 -0.9008
19187SOL     OW59567   3.501   4.845   1.623  0.1524 -0.1052 -0.2210
19187SOL    HW159568   3.525   4.771   1.680  0.7502  0.2880  0.0402
19187SOL    HW259569   3.584   4.878   1.590  0.1526  2.1627  1.8070
19188SOL     OW59570   2.004   7.327   7.702 -0.0538  0.1653 -0.0561
19188SOL    HW159571   2.081   7.277   7.729  0.9884  1.7168 -0.0143
19188SOL    HW259572   1.930   7.281   7.741  0.9815 -0.5926  1.0705
19189SOL     OW59573   4.384   7.358   5.203  0.2692  0.4440  0.0792
19189SOL    HW159574   4.441   7.413   5.257  1.2413  0.7284 -1.1582
19189SOL    HW259575   4.443   7.322   5.137 -0.7127 -0.5790 -0.2680
19190SOL     OW59576   0.469   9.415   9.479 -0.3164  0.2671  0.5273
19190SOL    HW159577   0.409   9.419   9.405 -0.6839  0.6055  0.8389
19190SOL    HW259578   0.554   9.394   9.440 -0.3106  1.3920 -0.1003
19191SOL     OW59579   7.502   5.171   9.396  0.1124  0.1273 -0.0092
19191SOL    HW159580   7.516   5.264   9.412  0.1223  0.1227  0.0087
19191SOL    HW259581   7.584   5.140   9.358  0.2814  0.0164  0.4467
19192SOL     OW59582   9.059   5.356   6.084  0.1833  0.7186  0.1620
19192SOL    HW159583   9.032   5.383   5.996  0.9050 -0.2459 -0.3805
19192SOL    HW259584   8.978   5.326   6.126  0.0881 -0.4803 -0.8118
19193SOL     OW59585   6.142   5.740   2.002 -0.0606  0.1964 -0.0441
19193SOL    HW159586   6.191   5.728   2.084  0.8537  1.5922 -0.3693
19193SOL    HW259587   6.208   5.761   1.937 -0.3890 -3.5083 -1.8597
19194SOL     OW59588   2.438   8.479   2.894  0.3614  0.8712  0.4780
19194SOL    HW159589   2.531   8.496   2.904  0.7947  0.1377 -1.7472
19194SOL    HW259590   2.424   8.477   2.799 -1.8126  0.4485  0.7557
19195SOL     OW59591   7.612   7.756   9.517 -0.4056 -0.0080  0.1882
19195SOL    HW159592   7.670   7.761   9.593 -2.5680  0.3020  1.8969
19195SOL    HW259593   7.627   7.668   9.482  0.5996 -0.1693  0.9867
19196SOL     OW59594   6.029   1.668   3.325 -0.5879  0.6340 -0.1802
19196SOL    HW159595   6.116   1.635   3.304 -1.4017 -1.6849 -0.1855
19196SOL    HW259596   5.976   1.645   3.249 -1.3541  1.4686  0.0829
19197SOL     OW59597   1.958   8.264   1.586 -0.1329  0.0476 -0.0410
19197SOL    HW159598   1.901   8.189   1.568  0.1693 -0.5478  1.3333
19197SOL    HW259599   2.045   8.225   1.598 -0.0076  0.5769  0.8675
19198SOL     OW59600   7.164   8.855  10.427  0.1879  0.6454 -0.7973
19198SOL    HW159601   7.107   8.867  10.351 -1.1631 -1.0340 -0.1176
19198SOL    HW259602   7.184   8.761  10.428 -0.8369  0.3695  1.5698
19199SOL     OW59603   6.014   1.198   7.578  0.4196  0.2188 -0.5708
19199SOL    HW159604   5.990   1.168   7.666  0.6797  2.0706  0.1903
19199SOL    HW259605   5.936   1.183   7.525  0.1442 -0.6165  0.0514
19200SOL     OW59606   4.140   7.393   3.365 -0.3580  0.1439  0.6221
19200SOL    HW159607   4.051   7.370   3.337 -0.1520 -1.2500  1.0501
19200SOL    HW259608   4.150   7.350   3.450  0.8727 -0.0718  0.3904
19201SOL     OW59609  10.129   4.637  10.856 -0.2448  0.2203 -0.1465
19201SOL    HW159610  10.153   4.703  10.922 -0.3246 -1.2998  1.4700
19201SOL    HW259611  10.173   4.557  10.886 -0.3298 -0.5391 -1.9412
19202SOL     OW59612   3.912   6.839  10.160 -0.0350 -0.4137 -0.3517
19202SOL    HW159613   3.992   6.877  10.121  0.5676 -0.9675  0.3238
19202SOL    HW259614   3.919   6.745  10.142 -0.2331 -0.5443  0.2358
19203SOL     OW59615   4.587   6.923   7.705  0.3499  0.0017 -0.2328
19203SOL    HW159616   4.508   6.967   7.674  0.3295  0.1180 -0.0185
19203SOL    HW259617   4.587   6.839   7.659  1.2925  0.9004 -1.9753
19204SOL     OW59618   5.512   5.032   8.153  0.1728 -0.0786 -0.2339
19204SOL    HW159619   5.530   5.120   8.186  2.8847  0.2847 -2.2735
19204SOL    HW259620   5.496   5.044   8.059  0.4686 -1.7325 -0.5355
19205SOL     OW59621   3.740   9.957   8.100  0.1738  0.4307  0.4879
19205SOL    HW159622   3.820   9.985   8.056  0.0550  0.6185  0.3912
19205SOL    HW259623   3.673  10.018   8.070 -0.0032  0.2829  0.5803
19206SOL     OW59624  10.851   9.909   9.005 -0.0441 -0.2032 -0.1897
19206SOL    HW159625  10.908   9.983   8.987  0.0590  0.1574  1.4564
19206SOL    HW259626  10.766   9.933   8.968  0.7911 -0.7424 -2.6615
19207SOL     OW59627   0.089   2.529   5.501 -0.4143  0.4117 -0.3468
19207SOL    HW159628   0.025   2.591   5.537 -1.3746  0.4538 -2.0157
19207SOL    HW259629   0.054   2.506   5.415 -0.0061 -2.3430  0.1316
19208SOL     OW59630   8.449   9.343   0.796 -0.3047  0.5301  0.6876
19208SOL    HW159631   8.421   9.403   0.727 -0.3679  0.4250  0.6198
19208SOL    HW259632   8.427   9.256   0.761 -1.2373  0.5258  1.2572
19209SOL     OW59633   6.450   4.432   1.265  0.3575  0.1390  0.3022
19209SOL    HW159634   6.463   4.513   1.315  0.0094  0.9791 -0.9193
19209SOL    HW259635   6.537   4.394   1.258  0.8791  1.4240 -0.7403
19210SOL     OW59636   6.904   9.125   5.037 -0.0508  0.2181 -0.8496
19210SOL    HW159637   6.862   9.044   5.065 -0.1580  0.0359 -1.5147
19210SOL    HW259638   6.873   9.191   5.099  0.0479 -0.2486 -0.2942
19211SOL     OW59639   1.954   3.179   4.989 -0.2837  0.2845 -0.0326
19211SOL    HW159640   1.971   3.110   5.053  0.9223  0.9138  0.3538
19211SOL    HW259641   1.873   3.151   4.945 -0.8205 -0.4435  1.3507
19212SOL     OW59642  10.248   8.814   5.167  0.4421 -0.4830  0.4118
19212SOL    HW159643  10.338   8.803   5.198  0.5217 -0.0853  0.3211
19212SOL    HW259644  10.199   8.843   5.244  1.0301  2.4915 -0.2319
19213SOL     OW59645   7.769   7.677   4.662  0.2646  0.1350 -0.5815
19213SOL    HW159646   7.687   7.707   4.623 -0.8175 -0.2388  1.2994
19213SOL    HW259647   7.744   7.605   4.719  1.9637 -0.2096 -0.2243
19214SOL     OW59648   6.109   6.241   2.170  0.1183 -0.7785  1.0081
19214SOL    HW159649   6.068   6.300   2.233  0.9303 -0.8935  1.6578
19214SOL    HW259650   6.036   6.196   2.128 -0.4685 -0.0268  1.2009
19215SOL     OW59651   1.272   8.626   8.858  0.2757 -0.0363  0.4825
19215SOL    HW159652   1.268   8.713   8.820 -0.0620  0.2248  1.0894
19215SOL    HW259653   1.344   8.583   8.813 -0.3164  0.1385 -0.6692
19216SOL     OW59654   0.989   6.471   0.505  0.5207 -0.4206 -0.3822
19216SOL    HW159655   1.000   6.420   0.586  0.2770  0.3473  0.1364
19216SOL    HW259656   0.913   6.432   0.462  1.0677 -1.2887 -0.6017
19217SOL     OW59657   4.572   5.023   8.476  0.0217  0.0873 -0.2772
19217SOL    HW159658   4.570   5.004   8.570 -0.0716 -0.3334 -0.3588
19217SOL    HW259659   4.657   4.989   8.447  0.8598  1.8623 -0.0240
19218SOL     OW59660   2.940   6.586   5.842 -0.0431  0.0404 -0.2083
19218SOL    HW159661   2.960   6.628   5.926  1.8335  2.5003 -1.7398
19218SOL    HW259662   3.026   6.572   5.802 -0.9306  0.1639 -2.2754
19219SOL     OW59663  10.196   6.078   3.907  0.2439 -0.1408  0.0665
19219SOL    HW159664  10.147   6.078   3.990  1.2188 -1.2310  0.6727
19219SOL    HW259665  10.217   5.986   3.892  0.5765  0.1130 -1.1094
19220SOL     OW59666   0.140   9.254   1.340 -0.3220  0.5762 -0.1917
19220SOL    HW159667   0.101   9.169   1.319  0.0026  0.4146 -0.1554
19220SOL    HW259668   0.072   9.318   1.319 -0.3251  0.3561 -0.8837
19221SOL     OW59669   8.743   1.642  10.287 -0.8662 -0.0532 -0.0135
19221SOL    HW159670   8.672   1.699  10.314 -0.1057  1.3862 -0.8959
19221SOL    HW259671   8.802   1.699  10.238  1.3193 -1.0002  1.3659
19222SOL     OW59672  10.361   4.157   4.519 -0.1148  0.0602  0.1042
19222SOL    HW159673  10.272   4.143   4.488 -0.6562  0.1891  1.5082
19222SOL    HW259674  10.356   4.238   4.569  0.9480  0.4160 -0.3474
19223SOL     OW59675   7.980   5.173   8.638 -0.2923 -0.1344 -0.1055
19223SOL    HW159676   7.921   5.231   8.686 -1.6074 -0.7174 -0.9507
19223SOL    HW259677   8.011   5.225   8.565 -0.0108  0.0690  0.1562
19224SOL     OW59678   8.657   7.384  10.864 -0.3326 -0.1034 -0.2819
19224SOL    HW159679   8.578   7.439  10.862  0.7937  1.7515  1.8277
19224SOL    HW259680   8.729   7.446  10.868  1.1733 -1.7648 -0.4257
19225SOL     OW59681   5.936   3.545   3.464  0.8030 -0.2362 -0.3579
19225SOL    HW159682   5.980   3.481   3.408  0.9965 -0.6650  0.2810
19225SOL    HW259683   5.956   3.518   3.553  0.9529  0.7612 -0.0763
19226SOL     OW59684   4.880   9.401  11.088  0.1297 -0.3619 -0.0637
19226SOL    HW159685   4.791   9.365  11.093  0.6179 -1.7563 -1.0620
19226SOL    HW259686   4.910   9.403  11.179 -1.0554  0.5115  0.3345
19227SOL     OW59687  11.045  10.318   8.876 -0.1654  0.3471  0.0624
19227SOL    HW159688  11.005  10.363   8.951 -0.8365  0.8781 -0.6018
19227SOL    HW259689  11.038  10.225   8.897 -1.4239  0.4378  0.1396
19228SOL     OW59690   2.017   5.513   6.377  0.2414  0.1689 -0.2584
19228SOL    HW159691   2.049   5.464   6.301 -3.0459  0.3452 -1.9822
19228SOL    HW259692   2.012   5.448   6.447 -0.9109 -1.2522 -1.5645
19229SOL     OW59693   6.241   8.066   4.942 -0.5821  0.2660 -0.1008
19229SOL    HW159694   6.252   8.012   5.020 -1.4335 -1.7305 -1.2698
19229SOL    HW259695   6.154   8.105   4.952 -1.1989 -0.9292 -0.5294
19230SOL     OW59696   5.741   6.785   2.043 -0.1257 -0.1775 -0.0113
19230SOL    HW159697   5.700   6.826   2.119 -0.8731  1.2037 -1.1261
19230SOL    HW259698   5.684   6.710   2.022  1.2810 -1.9676  2.0672
19231SOL     OW59699   1.425   1.014   9.522  0.0898 -0.0704  0.0754
19231SOL    HW159700   1.434   1.103   9.488  1.1016  0.5760  1.8983
19231SOL    HW259701   1.347   0.980   9.479 -0.0630  1.5265 -1.0068
19232SOL     OW59702   2.329  10.547   8.986 -0.1021 -0.0954  0.5812
19232SOL    HW159703   2.358  10.518   9.072 -1.1792 -0.1938  0.9317
19232SOL    HW259704   2.303  10.638   8.999  1.2633  0.4070 -0.0294
19233SOL     OW59705   4.802   3.257   5.072  0.2955 -0.1080 -0.3503
19233SOL    HW159706   4.707   3.259   5.078  0.2948  1.5123 -0.4811
19233SOL    HW259707   4.830   3.219   5.155 -0.4361  0.3204  0.1003
19234SOL     OW59708  10.608   7.830   5.905  0.1466 -0.1119 -0.2596
19234SOL    HW159709  10.527   7.784   5.929  0.0213 -0.4648 -1.3456
19234SOL    HW259710  10.603   7.913   5.953 -1.6756  0.6145 -1.5995
19235SOL     OW59711   8.026   5.002   6.009 -0.3578 -0.4906  0.5911
19235SOL    HW159712   8.088   5.074   6.020 -0.0304 -1.0316  2.7550
19235SOL    HW259713   7.945   5.034   6.048 -0.7476 -0.6510 -0.0766
19236SOL     OW59714   7.968   0.753   5.503 -0.0976  0.3222  0.9032
19236SOL    HW159715   8.059   0.780   5.490 -0.2322  1.0430  1.4075
19236SOL    HW259716   7.930   0.821   5.558 -0.8108 -0.2343  1.1183
19237SOL     OW59717   9.854  10.266   5.650 -0.2278  0.4148 -0.2078
19237SOL    HW159718   9.946  10.250   5.633 -0.4860 -2.2040  0.4991
19237SOL    HW259719   9.819  10.301   5.568  1.2335  0.8351 -0.6700
19238SOL     OW59720   9.171   6.230   9.571  0.3994 -0.7537 -0.0334
19238SOL    HW159721   9.114   6.165   9.530 -0.8738 -0.8343  1.7514
19238SOL    HW259722   9.240   6.245   9.506  0.1321 -3.0492 -0.9626
19239SOL     OW59723   6.680   3.081   9.549 -0.1606 -0.0610 -0.1341
19239SOL    HW159724   6.706   3.172   9.559 -1.9299  0.4731 -0.1713
19239SOL    HW259725   6.716   3.055   9.464 -3.5443  2.0790 -2.4487
19240SOL     OW59726   1.450   2.006   7.176 -0.5528  1.1126 -0.7692
19240SOL    HW159727   1.512   1.976   7.110  1.9504 -0.4159  2.0300
19240SOL    HW259728   1.371   1.955   7.160 -0.3894  1.4739 -3.0812
19241SOL     OW59729   7.310   7.618   7.329  0.0132 -0.2121 -0.3885
19241SOL    HW159730   7.388   7.563   7.327 -2.5133 -4.1184 -2.2069
19241SOL    HW259731   7.282   7.617   7.420 -0.0469 -2.1873 -0.3887
19242SOL     OW59732   6.734  11.079   7.604 -0.4457  0.0926 -0.2538
19242SOL    HW159733   6.827  11.082   7.625 -0.8601  1.0425  1.6547
19242SOL    HW259734   6.711  10.986   7.611  0.2879 -0.1052 -0.4383
19243SOL     OW59735   3.558   8.399   6.587  0.2409  0.7955  0.0877
19243SOL    HW159736   3.569   8.367   6.498 -0.1609  0.7510  0.0533
19243SOL    HW259737   3.616   8.344   6.640 -0.7441 -0.2787  0.0913
19244SOL     OW59738   8.394   1.790  10.663 -0.0022  0.1402 -0.0349
19244SOL    HW159739   8.411   1.885  10.659  1.2948 -0.0873 -2.4463
19244SOL    HW259740   8.301   1.782  10.643 -0.0930  0.9096  0.0198
19245SOL     OW59741   6.233   7.196   8.442  0.7741  0.1305  0.0868
19245SOL    HW159742   6.194   7.170   8.358 -0.4800  0.5914  0.4989
19245SOL    HW259743   6.187   7.277   8.465  0.4818 -0.4364  1.6162
19246SOL     OW59744   7.623   6.777   7.604  0.3835 -0.5749 -0.8099
19246SOL    HW159745   7.603   6.803   7.514  0.7781 -2.1294 -1.3768
19246SOL    HW259746   7.718   6.771   7.607  0.5865  2.0500  0.5063
19247SOL     OW59747   6.709   4.916   6.033  0.4646  0.2489  0.6415
19247SOL    HW159748   6.679   5.004   6.058 -0.7097 -0.2313  1.0163
19247SOL    HW259749   6.645   4.886   5.969  1.0027 -0.2327  0.3225
19248SOL     OW59750   3.146   8.442  10.660 -0.6034  0.2129  0.2445
19248SOL    HW159751   3.056   8.413  10.672 -1.1189  1.2794 -0.7616
19248SOL    HW259752   3.187   8.433  10.746 -1.4363 -1.0214  0.5335
19249SOL     OW59753   0.205   5.888   5.389 -0.0658 -0.0578  0.1983
19249SOL    HW159754   0.218   5.863   5.298  0.9422  1.0660  0.0134
19249SOL    HW259755   0.110   5.899   5.397 -0.0725  1.1134 -1.0822
19250SOL     OW59756   2.304   9.250   4.808  0.2948 -0.0397  0.1949
19250SOL    HW159757   2.215   9.213   4.812 -0.0906  0.8959  0.5985
19250SOL    HW259758   2.313   9.300   4.889  0.6227  1.1181 -0.5324
19251SOL     OW59759   4.812   3.316   9.189  0.3462 -0.0435 -0.1631
19251SOL    HW159760   4.725   3.280   9.172 -0.1699  0.5287  1.1228
19251SOL    HW259761   4.801   3.411   9.179  1.1413 -0.0385 -1.2324
19252SOL     OW59762   8.315   9.764   7.672 -0.7211 -0.0136 -0.2168
19252SOL    HW159763   8.245   9.800   7.726 -1.6778  0.6527 -1.8356
19252SOL    HW259764   8.396   9.790   7.717 -1.4633  0.9626  0.6025
19253SOL     OW59765   0.973   5.992   3.250 -0.0725  0.1526  0.1943
19253SOL    HW159766   0.922   5.992   3.331 -0.8200  0.4883 -0.2652
19253SOL    HW259767   0.972   6.083   3.221  0.2764  0.0516 -0.1494
19254SOL     OW59768   4.166   5.342   7.563 -0.0396  0.4409 -0.1316
19254SOL    HW159769   4.223   5.272   7.593 -1.2048  0.2536  1.8091
19254SOL    HW259770   4.225   5.406   7.524  1.3299 -0.3656  0.5593
19255SOL     OW59771   5.280  10.072   9.303 -0.5150 -0.0301  0.1932
19255SOL    HW159772   5.331   9.991   9.306  0.6505  0.7055  0.8542
19255SOL    HW259773   5.299  10.109   9.217  1.6843  1.2196  1.1513
19256SOL     OW59774   8.914   5.880   4.609 -0.7283  0.4839  0.3076
19256SOL    HW159775   8.957   5.863   4.693 -1.0384  0.1969  0.4096
19256SOL    HW259776   8.841   5.939   4.631 -0.0003  1.5203  0.0406
19257SOL     OW59777   2.117   3.074   8.103  0.5045  0.4540 -0.2916
19257SOL    HW159778   2.048   3.118   8.153  0.1944  1.0873 -1.2385
19257SOL    HW259779   2.170   3.029   8.169  0.1464  1.3050  0.5972
19258SOL     OW59780   3.353   8.017   3.151 -0.0814 -0.1019 -0.0235
19258SOL    HW159781   3.365   8.013   3.056 -0.3813 -1.0161 -0.0323
19258SOL    HW259782   3.287   7.950   3.170  2.0693 -2.0302  1.1498
19259SOL     OW59783   1.148   9.814   8.934 -0.0662 -0.1929 -0.3338
19259SOL    HW159784   1.158   9.741   8.995  0.7025 -0.7957 -1.1420
19259SOL    HW259785   1.073   9.864   8.967  1.4004  0.5258  2.0911
19260SOL     OW59786   4.614   5.178  10.457  0.4553 -0.0057 -0.2717
19260SOL    HW159787   4.595   5.111  10.390  1.1055  0.0375 -0.5075
19260SOL    HW259788   4.708   5.193  10.449  0.6645 -0.4523  1.0889
19261SOL     OW59789  10.983   8.054   8.629  0.3824 -0.6891  0.2181
19261SOL    HW159790  10.918   8.118   8.658  1.5900  0.3507  0.7404
19261SOL    HW259791  11.020   8.093   8.549  0.0695 -1.4899 -0.3304
19262SOL     OW59792   2.897   7.529   3.205  0.2711  0.8300 -0.5110
19262SOL    HW159793   2.871   7.495   3.291  0.2439  0.1555 -0.7787
19262SOL    HW259794   2.915   7.622   3.220  0.3692  0.6944  0.2477
19263SOL     OW59795   3.853  10.118   1.017  0.3340  0.1802  0.7202
19263SOL    HW159796   3.853  10.066   1.097 -1.6539  0.0988  0.7176
19263SOL    HW259797   3.836  10.054   0.947  2.1686  0.2302  0.1749
19264SOL     OW59798   8.533   4.887   6.922  0.0877  0.0542  0.3741
19264SOL    HW159799   8.524   4.797   6.892 -1.0057  0.1910  0.2347
19264SOL    HW259800   8.626   4.906   6.915  0.2418 -0.8547 -0.2093
19265SOL     OW59801   3.843   9.234   9.327  0.5421 -0.1480  0.5583
19265SOL    HW159802   3.937   9.234   9.310  0.2323  1.8014 -1.7329
19265SOL    HW259803   3.804   9.213   9.242 -1.1148  2.9598  0.4288
19266SOL     OW59804   5.363   1.684   8.266  0.0402 -0.3134 -0.2129
19266SOL    HW159805   5.304   1.732   8.208 -0.9120 -1.4351 -0.2014
19266SOL    HW259806   5.374   1.599   8.225  0.7630 -0.5206  0.3710
19267SOL     OW59807   4.687   0.224  10.393  0.3036  0.2459 -0.8528
19267SOL    HW159808   4.743   0.152  10.422  1.1045  1.4709  0.8022
19267SOL    HW259809   4.665   0.202  10.302  0.7029 -1.9349 -0.4714
19268SOL     OW59810   3.610   4.170  10.957 -0.0508  0.0691 -0.1113
19268SOL    HW159811   3.656   4.087  10.946  0.3028 -0.3812  3.4435
19268SOL    HW259812   3.679   4.236  10.958  0.2115 -0.1820  1.4994
19269SOL     OW59813   2.263   1.249   7.357  0.1053 -0.1240  0.3259
19269SOL    HW159814   2.271   1.211   7.445 -1.6145 -2.0706 -0.2791
19269SOL    HW259815   2.339   1.217   7.310  0.4145 -0.0479  0.7620
19270SOL     OW59816   1.893   3.539   8.993 -0.2668  0.0118  0.2657
19270SOL    HW159817   1.927   3.450   9.001 -0.9490 -0.1567  1.4255
19270SOL    HW259818   1.824   3.532   8.927 -0.0073 -0.2221  0.0156
19271SOL     OW59819   2.536   6.243   0.866  0.3301 -0.4082  0.6391
19271SOL    HW159820   2.604   6.180   0.889 -0.0315 -1.0372  0.0160
19271SOL    HW259821   2.495   6.207   0.788  0.0416  0.5465  0.3285
19272SOL     OW59822   5.958   5.878   8.693 -0.5747 -0.3729 -0.1749
19272SOL    HW159823   6.039   5.828   8.696 -0.8750 -0.8916 -0.5415
19272SOL    HW259824   5.889   5.811   8.697 -0.9902  0.1131  1.2202
19273SOL     OW59825   2.379   1.963   9.894  0.5959 -0.2846 -0.1421
19273SOL    HW159826   2.395   1.994   9.805  1.6105 -1.3803 -0.3712
19273SOL    HW259827   2.284   1.966   9.904  0.5234  0.7294 -0.9200
19274SOL     OW59828   6.885   6.103   7.839 -0.3121 -0.1060 -0.0206
19274SOL    HW159829   6.845   6.117   7.926 -2.2146 -0.5999 -0.7625
19274SOL    HW259830   6.978   6.117   7.854 -0.7254  1.2503  1.8179
19275SOL     OW59831   4.057   6.129   5.912 -0.1473  0.6469  0.2365
19275SOL    HW159832   4.012   6.200   5.958 -3.5286 -0.5993 -0.8163
19275SOL    HW259833   4.069   6.062   5.979  1.4024  1.4445  0.8090
19276SOL     OW59834   1.868   3.912   0.087  0.3515  0.7961  0.3107
19276SOL    HW159835   1.929   3.956   0.028  0.8564 -0.2085  0.0615
19276SOL    HW259836   1.781   3.930   0.051  0.5338  1.7383  0.3296
19277SOL     OW59837   8.571   5.761   4.854  0.1265  0.1607 -0.4124
19277SOL    HW159838   8.653   5.768   4.904  0.4368  1.2604 -1.0602
19277SOL    HW259839   8.547   5.668   4.861  1.1883 -0.0856  0.1540
19278SOL     OW59840   7.496   7.294  10.612  0.6287  0.2156  0.0436
19278SOL    HW159841   7.558   7.223  10.595 -1.6001 -2.0362  0.8802
19278SOL    HW259842   7.477   7.288  10.705 -0.6590  1.0312 -0.1468
19279SOL     OW59843   2.633   8.352   3.783 -0.0487  0.1638  0.1533
19279SOL    HW159844   2.632   8.390   3.695 -0.9168 -0.6280 -0.2000
19279SOL    HW259845   2.540   8.344   3.807  0.1898  0.8672  1.3722
19280SOL     OW59846   6.327   4.340   9.063  0.1662 -0.1478 -0.0585
19280SOL    HW159847   6.328   4.430   9.031 -0.3955 -0.6373 -1.5429
19280SOL    HW259848   6.413   4.328   9.104  0.6192  0.7582 -0.7125
19281SOL     OW59849   7.314   3.730   4.025  0.0019 -0.1900 -0.2090
19281SOL    HW159850   7.402   3.706   3.997 -0.9153 -0.9078 -2.7941
19281SOL    HW259851   7.319   3.824   4.041  1.6080 -0.5024  1.4321
19282SOL     OW59852   6.180   5.184   5.772  0.4224  0.0180 -0.1101
19282SOL    HW159853   6.159   5.272   5.740 -0.0868 -0.0804 -0.0482
19282SOL    HW259854   6.221   5.199   5.858 -0.2844  0.1603  0.2058
19283SOL     OW59855   0.800   3.936   6.400 -0.2149  0.2106  0.3368
19283SOL    HW159856   0.828   3.941   6.491  0.3420 -2.4964  0.4067
19283SOL    HW259857   0.706   3.949   6.402 -0.2612 -0.2509  1.3601
19284SOL     OW59858   2.776   8.806   5.541 -0.3352  0.0742  0.9480
19284SOL    HW159859   2.737   8.729   5.582 -2.7769  0.0281 -1.1877
19284SOL    HW259860   2.760   8.877   5.603  1.6143 -0.9989  2.7748
19285SOL     OW59861   5.432   5.358   3.853 -0.1251  0.2160  0.2217
19285SOL    HW159862   5.498   5.415   3.815  0.0300  1.4466  2.2100
19285SOL    HW259863   5.351   5.407   3.847 -0.4439 -0.3598 -0.2162
19286SOL     OW59864   6.820   3.257  10.900 -0.2130 -0.3906 -0.3746
19286SOL    HW159865   6.857   3.265  10.812  2.0300  0.3714  0.5599
19286SOL    HW259866   6.733   3.221  10.886 -0.2994  0.6020 -2.9714
19287SOL     OW59867   7.126   2.981   3.040 -0.4777 -0.3718 -0.8016
19287SOL    HW159868   7.139   2.925   2.963  0.5747 -0.1750 -0.7750
19287SOL    HW259869   7.049   3.034   3.018 -0.1984 -0.3245 -1.7182
19288SOL     OW59870   3.169   3.311   5.256  0.7592 -0.1666 -0.1037
19288SOL    HW159871   3.143   3.402   5.268  0.8230 -0.0659 -0.7057
19288SOL    HW259872   3.245   3.315   5.198  0.7119 -0.6075 -0.2007
19289SOL     OW59873   5.089  10.233   0.098 -0.2080 -0.5426 -0.0965
19289SOL    HW159874   5.072  10.172   0.027 -1.2296 -1.1706  0.6545
19289SOL    HW259875   5.142  10.183   0.160  1.2676  0.2141 -0.6899
19290SOL     OW59876   7.488  10.784   8.250 -0.0472  0.4774 -0.4122
19290SOL    HW159877   7.399  10.779   8.284 -0.0692 -0.2287 -0.5694
19290SOL    HW259878   7.505  10.698   8.214  0.1050  1.1059 -1.8879
19291SOL     OW59879   8.007   7.381   0.858 -0.3397  0.3867  0.2693
19291SOL    HW159880   8.066   7.452   0.883  0.6142 -1.1656  2.8243
19291SOL    HW259881   8.059   7.327   0.798 -0.5304  1.0010 -0.4635
19292SOL     OW59882   5.107   3.003   6.482 -0.7104 -0.0237  0.3356
19292SOL    HW159883   5.130   2.993   6.390 -1.6634  0.1232  0.0823
19292SOL    HW259884   5.190   2.987   6.529 -0.7356 -2.5700 -0.3890
19293SOL     OW59885   1.797   0.434   7.445  0.7508 -0.0555 -0.2287
19293SOL    HW159886   1.792   0.345   7.480 -0.2578 -0.1239 -0.5172
19293SOL    HW259887   1.890   0.452   7.437  0.9690 -0.8549  0.4265
19294SOL     OW59888   6.015   3.399   0.042 -0.0496 -0.4036  0.1679
19294SOL    HW159889   6.109   3.385   0.032  0.0159  0.0013  0.1916
19294SOL    HW259890   5.975   3.348  -0.028  0.0327 -2.5388  1.5878
19295SOL     OW59891   5.120   5.522   4.533  0.3902 -0.0822  0.1633
19295SOL    HW159892   5.093   5.574   4.609 -1.0340 -0.3029 -0.1664
19295SOL    HW259893   5.092   5.433   4.555 -0.4988 -0.0598 -0.8269
19296SOL     OW59894   3.272   1.363   6.841  0.4092  0.2159  0.1176
19296SOL    HW159895   3.257   1.269   6.845  0.8511  0.1988  2.2292
19296SOL    HW259896   3.187   1.402   6.863  0.1042  0.3619 -1.1983
19297SOL     OW59897   3.580   7.169  10.052  0.6312  0.1281  0.2575
19297SOL    HW159898   3.588   7.109   9.978 -1.0931  1.9674 -1.5631
19297SOL    HW259899   3.633   7.245  10.028  1.1345  0.2215  1.5599
19298SOL     OW59900   3.817   2.308   2.493 -0.3161  0.0463  0.1166
19298SOL    HW159901   3.877   2.361   2.441 -1.0386 -0.2484 -1.0693
19298SOL    HW259902   3.748   2.283   2.431 -1.2431 -0.2734  1.2483
19299SOL     OW59903   0.633   2.437   3.764  0.0983 -0.3969  0.3280
19299SOL    HW159904   0.556   2.488   3.741 -0.2570 -0.8635  0.4652
19299SOL    HW259905   0.614   2.349   3.733  1.6998  0.0154 -2.0989
19300SOL     OW59906   3.490   6.776   7.111  0.0337 -0.8691 -0.2159
19300SOL    HW159907   3.462   6.842   7.047  2.1086  0.1679 -0.1106
19300SOL    HW259908   3.424   6.782   7.181  0.4404  1.4788  0.0308
19301SOL     OW59909  11.071   4.628   6.526  0.0589  0.6047 -0.0073
19301SOL    HW159910  11.131   4.661   6.460 -0.5396  0.5368 -0.5895
19301SOL    HW259911  10.984   4.654   6.496 -0.3115 -0.3333  0.2044
19302SOL     OW59912   4.650   2.821   2.976  0.0171  0.1178 -0.1110
19302SOL    HW159913   4.717   2.755   2.963 -1.3532 -1.4982  0.6301
19302SOL    HW259914   4.638   2.861   2.889  0.6104 -0.8718 -0.6624
19303SOL     OW59915   7.431   8.159   0.859  0.2476 -0.3179  0.0126
19303SOL    HW159916   7.377   8.130   0.932 -0.3509  1.2400  0.2206
19303SOL    HW259917   7.377   8.223   0.813  1.4559  0.3909 -0.4705
19304SOL     OW59918   7.565   6.138   8.527 -0.4251 -0.6263  0.1735
19304SOL    HW159919   7.637   6.124   8.466  1.7156 -2.5213  2.8687
19304SOL    HW259920   7.564   6.233   8.542  1.4885 -0.5410 -0.0160
19305SOL     OW59921   2.993  10.894   9.207  0.0250 -0.0637 -0.6957
19305SOL    HW159922   3.073  10.923   9.251 -0.0686  1.1262 -1.2581
19305SOL    HW259923   2.947  10.975   9.186 -1.0317 -0.7042 -0.9501
19306SOL     OW59924   2.152   1.358   3.288 -0.3778 -0.2499  0.0442
19306SOL    HW159925   2.202   1.372   3.368  1.3901  0.4808 -1.1469
19306SOL    HW259926   2.062   1.343   3.319  0.5418 -1.8299  2.2513
19307SOL     OW59927   7.198   0.678   6.718  0.1365 -0.1719  0.4131
19307SOL    HW159928   7.141   0.747   6.752 -0.7289 -0.9314  0.5497
19307SOL    HW259929   7.168   0.664   6.628  1.2802  0.6282 -0.1142
19308SOL     OW59930  10.557  10.993   0.812  0.2000 -0.8888  0.1690
19308SOL    HW159931  10.489  10.929   0.791 -1.6320  0.9765  0.0387
19308SOL    HW259932  10.535  11.023   0.900  0.3097  0.3516 -0.2076
19309SOL     OW59933   0.675  10.055   3.682 -0.0874  0.1334 -0.0643
19309SOL    HW159934   0.752  10.079   3.733  0.0797 -0.8672  0.1615
19309SOL    HW259935   0.607  10.115   3.714  0.5815  1.0445 -0.2908
19310SOL     OW59936   3.581   7.621   2.754 -0.2650 -0.0343 -0.2456
19310SOL    HW159937   3.622   7.681   2.692 -2.5911  0.7330 -1.1575
19310SOL    HW259938   3.615   7.535   2.730  3.6444  0.8297  1.4979
19311SOL     OW59939   0.368   2.785   5.744  0.2921  0.3192 -0.0643
19311SOL    HW159940   0.437   2.800   5.679  0.7305  0.1594  0.3558
19311SOL    HW259941   0.289   2.823   5.705  0.7028  0.8621 -0.3790
19312SOL     OW59942   5.442   2.091   9.602  0.0307 -0.1887 -0.1134
19312SOL    HW159943   5.444   2.152   9.528 -1.1169  1.0748  0.8397
19312SOL    HW259944   5.467   2.007   9.564  0.3717  0.6000 -1.7443
19313SOL     OW59945   2.318   4.935   0.342  0.0447 -0.7281  0.0484
19313SOL    HW159946   2.333   4.919   0.435  2.6757  2.5144  0.3806
19313SOL    HW259947   2.237   4.986   0.339 -0.1102 -0.9466  0.5689
19314SOL     OW59948   6.652  10.052   5.564  0.2745  0.6174  0.0357
19314SOL    HW159949   6.723  10.116   5.562 -0.4244  1.3993 -1.3757
19314SOL    HW259950   6.637  10.030   5.472  0.2294 -1.3029  0.4576
19315SOL     OW59951   4.752   7.597   8.835 -0.5787  0.4381 -0.4017
19315SOL    HW159952   4.672   7.556   8.867  0.2293 -0.9136 -0.0393
19315SOL    HW259953   4.821   7.534   8.855  1.0176  2.6898  1.8160
19316SOL     OW59954   4.577   5.026   2.132 -0.0071 -0.6439 -0.0323
19316SOL    HW159955   4.650   5.060   2.079 -0.2228  1.2663  0.8130
19316SOL    HW259956   4.511   5.001   2.067  0.0742  0.8184 -0.7276
19317SOL     OW59957   4.285   9.742   4.274 -0.1642  0.2918  0.2195
19317SOL    HW159958   4.336   9.777   4.202 -2.7174  1.8448 -0.9716
19317SOL    HW259959   4.319   9.786   4.352  0.8456  0.6214 -0.3885
19318SOL     OW59960   3.170   7.916   4.016 -0.3050  0.2588 -0.3057
19318SOL    HW159961   3.187   7.824   4.034 -1.5084 -0.3359 -1.9550
19318SOL    HW259962   3.255   7.951   3.988  0.5851  0.1643  2.0585
19319SOL     OW59963   6.645   6.655   8.584  0.0633  0.2249  0.4361
19319SOL    HW159964   6.697   6.705   8.522  0.9108 -1.3017 -0.1457
19319SOL    HW259965   6.571   6.712   8.606  0.8917  1.6297 -0.3095
19320SOL     OW59966   1.420   9.347  10.526 -0.5425  0.2744 -0.5669
19320SOL    HW159967   1.508   9.353  10.563 -0.4768  0.0844 -0.6882
19320SOL    HW259968   1.408   9.430  10.481 -0.3023  0.1797 -0.8108
19321SOL     OW59969  10.627   2.367   3.165 -0.2660 -0.4495  0.7281
19321SOL    HW159970  10.612   2.310   3.090  1.8656 -1.0279  0.6782
19321SOL    HW259971  10.708   2.414   3.144  0.6984 -1.0206  2.8679
19322SOL     OW59972   4.264   9.766   9.851 -0.1722  0.4961  0.0066
19322SOL    HW159973   4.272   9.859   9.870 -0.2106  0.4943  0.0328
19322SOL    HW259974   4.179   9.742   9.888  0.8890 -0.0976  2.2111
19323SOL     OW59975   2.074   5.759   1.574  0.2303 -0.3467 -0.7604
19323SOL    HW159976   1.985   5.790   1.584  0.3802 -0.2335  0.3602
19323SOL    HW259977   2.125   5.836   1.549 -0.0060 -0.4518 -1.5970
19324SOL     OW59978   8.367  10.722   3.720  0.5766  0.4177 -0.2928
19324SOL    HW159979   8.399  10.812   3.725  1.3409  0.1875 -0.7506
19324SOL    HW259980   8.442  10.668   3.746 -0.0303 -0.0741  0.4937
19325SOL     OW59981   3.881   1.975   1.145 -0.3371  0.5608  0.2094
19325SOL    HW159982   3.854   1.992   1.236 -2.3133 -0.6312 -0.1041
19325SOL    HW259983   3.805   1.999   1.093  0.4188  0.2645 -1.0652
19326SOL     OW59984   8.689   9.845   7.191  0.5450 -0.0961 -0.3504
19326SOL    HW159985   8.636   9.846   7.271 -0.2983 -0.6294 -0.8778
19326SOL    HW259986   8.644   9.905   7.132  1.6001  0.8915 -0.1748
19327SOL     OW59987   8.437   7.457   7.506 -0.5263  0.3874 -0.1108
19327SOL    HW159988   8.450   7.543   7.545  0.3208  0.8440 -1.3331
19327SOL    HW259989   8.503   7.452   7.437 -1.8681 -0.4186 -1.3959
19328SOL     OW59990   8.956   7.568  10.209  0.1237 -0.0923 -0.3302
19328SOL    HW159991   9.000   7.484  10.215  1.6086  0.4376 -2.4871
19328SOL    HW259992   9.017   7.623  10.160 -1.4717  1.7688 -0.3310
19329SOL     OW59993   6.230   0.907  10.075 -0.6073 -0.2898  0.8146
19329SOL    HW159994   6.291   0.842  10.039  1.1208  1.1447  1.0055
19329SOL    HW259995   6.173   0.857  10.133 -0.7421 -1.9634 -0.6605
19330SOL     OW59996   8.561   3.592   1.503  0.7611 -0.2335 -0.4123
19330SOL    HW159997   8.520   3.524   1.557  0.1722  0.8105  0.5012
19330SOL    HW259998   8.632   3.547   1.458  0.9033 -1.2818  0.8027
19331SOL     OW59999   1.223   3.340  10.182  0.5330  0.2483  0.3961
19331SOL    HW160000   1.128   3.343  10.178  0.5138 -0.2655  0.3486
19331SOL    HW260001   1.242   3.299  10.267  0.6765 -0.9057 -0.1739
19332SOL     OW60002   5.404  10.541   2.180 -0.2455 -0.1290 -0.0104
19332SOL    HW160003   5.358  10.550   2.264 -0.3039  1.5635 -0.1879
19332SOL    HW260004   5.433  10.630   2.160  0.9470 -0.7556 -1.1318
19333SOL     OW60005   2.393   5.880   1.926  0.1526 -0.0570  0.3558
19333SOL    HW160006   2.430   5.921   2.004 -1.3026  1.8825  0.0922
19333SOL    HW260007   2.435   5.925   1.853  0.5372 -0.9496  0.0165
19334SOL     OW60008   9.550   2.684   5.198 -0.6639 -0.3791 -0.3550
19334SOL    HW160009   9.491   2.634   5.255 -0.6722 -1.1640 -1.0275
19334SOL    HW260010   9.638   2.653   5.223 -0.7003 -1.2112 -1.1865
19335SOL     OW60011   1.893   6.235   4.382  0.0649  0.4187 -1.2685
19335SOL    HW160012   1.890   6.276   4.296  1.4697  0.6329 -1.2260
19335SOL    HW260013   1.878   6.142   4.365 -1.9074  0.7289 -1.4902
19336SOL     OW60014   0.999   6.941   5.353 -0.0060  0.3505  0.4043
19336SOL    HW160015   0.955   7.014   5.396  0.9369  0.8926  0.4679
19336SOL    HW260016   0.965   6.941   5.264 -0.7164  0.2636  0.6647
19337SOL     OW60017   3.789   4.025   3.404 -0.1834  0.0569  0.0576
19337SOL    HW160018   3.725   3.990   3.342  0.9433 -1.2837 -0.3923
19337SOL    HW260019   3.872   3.987   3.378  0.3142 -0.7280  2.5061
19338SOL     OW60020   7.689   3.611   7.581  0.0087 -0.3108 -0.3381
19338SOL    HW160021   7.783   3.596   7.573  0.0310 -2.5018  2.5156
19338SOL    HW260022   7.655   3.594   7.493  2.1293 -0.6355 -1.1526
19339SOL     OW60023  10.002   4.585   5.695  0.1647 -0.1510  0.0809
19339SOL    HW160024   9.930   4.524   5.680  1.4854 -1.8805  0.4565
19339SOL    HW260025   9.983   4.625   5.780 -1.8232  1.6628 -1.1169
19340SOL     OW60026   2.729   4.161  11.075 -0.7247  0.0921  0.4372
19340SOL    HW160027   2.736   4.228  11.143  1.2345 -0.5429  0.9405
19340SOL    HW260028   2.685   4.205  11.002  0.5927  1.9889  0.7196
19341SOL     OW60029   7.777   8.627   6.502  0.1171  0.1668 -0.1461
19341SOL    HW160030   7.836   8.618   6.576 -0.6409  0.8114  0.5694
19341SOL    HW260031   7.825   8.681   6.439  0.2161  0.8779  0.5205
19342SOL     OW60032   9.208   8.782   1.324  0.3386 -0.2094 -0.4151
19342SOL    HW160033   9.264   8.718   1.281  1.0649 -0.2021  0.4732
19342SOL    HW260034   9.150   8.814   1.255  1.4490 -0.2032 -1.3786
19343SOL     OW60035   7.260   3.689  10.415 -0.4026 -0.0866  0.9340
19343SOL    HW160036   7.334   3.728  10.461 -1.3163  2.8471  0.1590
19343SOL    HW260037   7.293   3.670  10.327 -0.4217  0.8734  0.7032
19344SOL     OW60038   7.561   9.081   8.459 -0.1580 -0.1541 -0.0315
19344SOL    HW160039   7.583   9.020   8.529  0.3977  0.5861  0.4552
19344SOL    HW260040   7.638   9.139   8.453 -1.5960  2.0513  1.2055
19345SOL     OW60041   7.919   8.463  10.421  1.1236  0.5929  0.0315
19345SOL    HW160042   7.964   8.509  10.492 -0.0959  1.3895  0.3083
19345SOL    HW260043   7.953   8.503  10.341  0.3825  1.7240  0.2597
19346SOL     OW60044   5.814  10.612   7.076  0.4340 -0.3795 -0.0098
19346SOL    HW160045   5.834  10.575   6.990 -1.2745 -0.3971 -0.4362
19346SOL    HW260046   5.724  10.586   7.092  0.4368  0.4121  1.3903
19347SOL     OW60047   1.059   0.428   9.586 -0.4006  0.4653 -0.5832
19347SOL    HW160048   1.013   0.357   9.541 -1.0582  0.2098  0.4634
19347SOL    HW260049   1.140   0.386   9.617 -0.6455  0.2487 -0.2314
19348SOL     OW60050   2.231   8.853  10.551  0.0623 -0.2032  0.3880
19348SOL    HW160051   2.276   8.906  10.617  1.4133  0.7802 -1.2489
19348SOL    HW260052   2.191   8.782  10.601  0.4826  0.8497  2.3324
19349SOL     OW60053   0.600   0.564   8.016  0.2286  0.4714  0.2712
19349SOL    HW160054   0.533   0.631   8.026  0.3095  0.7449 -0.8830
19349SOL    HW260055   0.593   0.536   7.924  3.5984  2.6077 -0.8280
19350SOL     OW60056   8.294   4.933   9.254  0.0663  0.1382  0.5137
19350SOL    HW160057   8.305   4.991   9.329 -0.0063  0.5557  0.2108
19350SOL    HW260058   8.308   4.990   9.178 -0.9540 -0.0195  0.1900
19351SOL     OW60059   6.995   1.613   4.158  0.0769  0.0204 -0.1823
19351SOL    HW160060   6.949   1.624   4.074 -1.2077  0.0749  0.4932
19351SOL    HW260061   6.972   1.691   4.207  0.3225 -0.3017  0.4494
19352SOL     OW60062   5.345   8.655   9.040 -0.2784  0.1242  0.1023
19352SOL    HW160063   5.354   8.583   8.978 -0.4574 -1.5138  1.8898
19352SOL    HW260064   5.288   8.621   9.109  0.4956  1.5830  1.5424
19353SOL     OW60065  10.268   7.753   6.583 -0.0879 -0.3475 -0.0619
19353SOL    HW160066  10.349   7.756   6.532 -0.8556 -0.6513 -1.3576
19353SOL    HW260067  10.252   7.660   6.597  0.2445 -0.2574  0.9677
19354SOL     OW60068   0.361   5.876   8.816 -0.3653 -0.3067 -0.0549
19354SOL    HW160069   0.372   5.828   8.898 -1.6086  0.4304  0.5862
19354SOL    HW260070   0.377   5.811   8.748 -0.5891 -1.2686  0.7810
19355SOL     OW60071   7.393   1.463   8.525 -0.8193 -0.0087  0.0239
19355SOL    HW160072   7.338   1.458   8.603 -0.0471  0.1569  0.5795
19355SOL    HW260073   7.364   1.388   8.472 -0.7534 -0.6473  0.8585
19356SOL     OW60074   7.103   7.260   6.703  0.3320 -0.0382  0.4351
19356SOL    HW160075   7.148   7.206   6.638  0.1347  1.4158 -0.9543
19356SOL    HW260076   7.118   7.350   6.675 -3.1311  0.5560  0.0647
19357SOL     OW60077   1.976   0.637   0.393  0.6745 -0.1419 -0.4450
19357SOL    HW160078   2.007   0.704   0.331  2.5100 -0.9090 -0.4386
19357SOL    HW260079   1.920   0.581   0.340  0.4596  0.4474 -0.8637
19358SOL     OW60080  10.253   2.818   7.627  0.5408 -0.5146  0.2042
19358SOL    HW160081  10.235   2.725   7.609  0.7855 -0.6361  0.5713
19358SOL    HW260082  10.176   2.848   7.674 -0.1460 -0.1689 -1.1113
19359SOL     OW60083  11.059   9.951   8.295 -0.0095 -0.1475  0.0227
19359SOL    HW160084  11.061  10.037   8.337  0.6963 -0.2842  0.2777
19359SOL    HW260085  11.066   9.970   8.201  0.5157  0.0570  0.1023
19360SOL     OW60086   6.621   5.449   6.323 -0.4388 -0.2014  0.1365
19360SOL    HW160087   6.698   5.505   6.321 -0.9146  0.4544 -0.2852
19360SOL    HW260088   6.549   5.508   6.345 -1.2147 -0.2770 -1.9108
19361SOL     OW60089   7.876   6.473   5.640 -0.8036 -0.2189  0.1535
19361SOL    HW160090   7.840   6.422   5.713  1.2734 -1.7701  0.2118
19361SOL    HW260091   7.870   6.414   5.565 -0.1941  0.2147 -0.2425
19362SOL     OW60092   0.978   7.015   6.954 -0.1188 -0.0517  0.0776
19362SOL    HW160093   1.053   6.962   6.982  0.2794  0.0004 -0.8425
19362SOL    HW260094   0.996   7.103   6.989  1.5539  0.6120 -2.1522
19363SOL     OW60095  10.135   9.744   1.490 -0.1554 -0.0912  0.0013
19363SOL    HW160096  10.197   9.679   1.522 -0.6721 -1.0741 -0.9278
19363SOL    HW260097  10.049   9.705   1.507 -0.5285  1.0375  0.8374
19364SOL     OW60098   6.473   4.071  10.297 -0.0945  0.5064 -0.6075
19364SOL    HW160099   6.407   4.037  10.236  0.2102 -2.1088  0.4358
19364SOL    HW260100   6.521   3.994  10.327 -0.1072  1.6727  2.8169
19365SOL     OW60101   8.373   6.888   6.373 -0.6132 -0.0168 -0.0280
19365SOL    HW160102   8.331   6.818   6.423 -1.8315  0.5339 -0.2383
19365SOL    HW260103   8.301   6.948   6.352  0.3544  1.1500 -0.0913
19366SOL     OW60104  10.927   5.451   5.626  0.3448 -0.2716  0.4301
19366SOL    HW160105  10.988   5.521   5.604  0.3005 -0.5235 -0.5235
19366SOL    HW260106  10.871   5.442   5.549 -0.2516 -0.7249  0.9025
19367SOL     OW60107   5.512   6.904   1.320  0.1421  1.2335  0.0429
19367SOL    HW160108   5.544   6.946   1.240 -0.7143  2.3497  0.2473
19367SOL    HW260109   5.440   6.961   1.349 -2.7561 -1.6420 -0.9816
19368SOL     OW60110  10.851   7.058   9.456  0.1211  0.2014  0.0252
19368SOL    HW160111  10.786   7.012   9.510  1.1030 -4.1608 -2.0491
19368SOL    HW260112  10.915   7.092   9.519 -1.7361  0.5803  1.8311
19369SOL     OW60113   2.510   2.728   8.556  0.1259 -0.4812  0.7293
19369SOL    HW160114   2.547   2.663   8.495  3.4797 -0.2512  2.2949
19369SOL    HW260115   2.465   2.676   8.622  0.9231 -1.0916  0.8050
19370SOL     OW60116   5.456   2.515   9.986  0.5728 -0.7762  0.0334
19370SOL    HW160117   5.470   2.433   9.937 -2.3114 -1.7007  0.5692
19370SOL    HW260118   5.428   2.578   9.920  0.8158 -0.7953 -0.0904
19371SOL     OW60119   3.011   4.665   4.026  0.0098  0.1129 -0.0704
19371SOL    HW160120   3.041   4.581   3.992  1.1178  0.6373 -0.4528
19371SOL    HW260121   2.952   4.699   3.959  0.3131  0.0564 -0.3723
19372SOL     OW60122   5.769   5.299   0.820 -0.2350 -0.0106  0.4032
19372SOL    HW160123   5.696   5.328   0.764  1.8577  0.0559 -2.5207
19372SOL    HW260124   5.742   5.212   0.849 -1.7742  0.2915  0.0191
19373SOL     OW60125   1.555   7.284   9.666 -0.7992  0.1783  0.4683
19373SOL    HW160126   1.481   7.329   9.706  0.2190  0.5441  2.0259
19373SOL    HW260127   1.561   7.322   9.578 -3.0933 -0.6461 -0.1204
19374SOL     OW60128   0.451   9.354   9.200 -0.8615  0.1337 -0.0046
19374SOL    HW160129   0.439   9.449   9.192 -0.3783  0.2830  0.8744
19374SOL    HW260130   0.526   9.334   9.145 -0.5039  0.3816  0.3888
19375SOL     OW60131   0.147   6.543   6.764 -0.3428 -0.2353  0.1826
19375SOL    HW160132   0.133   6.504   6.850 -0.3684 -2.3779 -0.7095
19375SOL    HW260133   0.070   6.597   6.748 -1.0614 -1.0163  0.9065
19376SOL     OW60134   2.829   1.178   8.525  0.1307 -0.2886  1.2672
19376SOL    HW160135   2.780   1.226   8.458  1.0596 -0.0461  0.7343
19376SOL    HW260136   2.912   1.226   8.533  0.4069 -0.8535  1.9206
19377SOL     OW60137   5.091  10.105  10.488  0.2804 -0.0596  0.0306
19377SOL    HW160138   5.034  10.047  10.538  0.7510  0.9814  1.8789
19377SOL    HW260139   5.118  10.172  10.551  1.2640  1.0849 -1.5357
19378SOL     OW60140   3.174   7.378  10.383  0.4760  0.4374 -0.0978
19378SOL    HW160141   3.191   7.472  10.389 -0.8934  0.6083  2.9247
19378SOL    HW260142   3.242   7.338  10.437  0.3637 -0.2015 -0.4205
19379SOL     OW60143   0.883  10.643   9.338 -0.0278  0.9091 -0.1242
19379SOL    HW160144   0.849  10.554   9.333 -0.5552  1.1062 -0.0235
19379SOL    HW260145   0.923  10.648   9.425  1.0926  0.3887 -0.5890
19380SOL     OW60146   6.239  10.289   4.517 -0.3174 -0.2954  0.6827
19380SOL    HW160147   6.260  10.275   4.610  0.8270 -1.1653  0.3179
19380SOL    HW260148   6.274  10.212   4.473 -0.1675  0.4696 -0.5770
19381SOL     OW60149   8.243   7.309   9.128 -0.1357  0.1889 -0.2465
19381SOL    HW160150   8.164   7.291   9.178  0.0608  0.0548  0.0221
19381SOL    HW260151   8.298   7.232   9.141  0.1591  0.4044 -0.1940
19382SOL     OW60152   5.234  10.637  10.867  0.2521 -0.2909  0.0806
19382SOL    HW160153   5.296  10.710  10.862 -1.6624  1.3499 -1.1157
19382SOL    HW260154   5.244  10.603  10.956  0.3675  2.2257  1.0931
19383SOL     OW60155   0.938   7.183   7.588 -0.1917 -0.0358  0.1849
19383SOL    HW160156   1.025   7.221   7.576 -0.2848 -0.0217 -0.4769
19383SOL    HW260157   0.878   7.252   7.558 -0.3733 -0.5740 -0.7122
19384SOL     OW60158   2.354   9.285   6.643  0.6766 -0.2606 -0.0603
19384SOL    HW160159   2.446   9.299   6.619  1.2353 -0.3443  1.8737
19384SOL    HW260160   2.310   9.268   6.560  2.1321  1.2409 -1.2142
19385SOL     OW60161   8.430   9.368   2.193 -0.3629 -0.1410  0.2422
19385SOL    HW160162   8.495   9.409   2.250 -0.2290 -0.0203  0.0047
19385SOL    HW260163   8.475   9.356   2.109 -0.7906  0.3870 -0.0754
19386SOL     OW60164  10.104   8.804   2.595 -0.0326  0.0854 -0.2667
19386SOL    HW160165  10.021   8.850   2.585 -0.5034 -0.8100 -0.5831
19386SOL    HW260166  10.154   8.825   2.516 -0.1816  0.1608 -0.3401
19387SOL     OW60167   6.870   4.748   8.359 -0.1987  0.0173  0.0730
19387SOL    HW160168   6.915   4.760   8.443 -0.0368 -0.4361  0.0553
19387SOL    HW260169   6.843   4.836   8.333  1.1351  0.3640 -0.1732
19388SOL     OW60170   8.262   2.316   0.799 -0.0749  0.1200 -0.3847
19388SOL    HW160171   8.331   2.274   0.747 -0.8103 -0.0372 -1.2485
19388SOL    HW260172   8.201   2.245   0.819  0.5263  0.0254  1.2968
19389SOL     OW60173   2.069   8.417   4.340  0.0417 -0.2017 -0.1501
19389SOL    HW160174   2.096   8.503   4.373  1.1070  0.2456 -2.0170
19389SOL    HW260175   1.990   8.434   4.290 -0.0370 -0.3998 -0.0944
19390SOL     OW60176   5.436   8.917  10.548 -0.3075  0.6677 -0.5412
19390SOL    HW160177   5.498   8.956  10.610 -0.6490  2.3852 -1.2462
19390SOL    HW260178   5.466   8.946  10.462  2.4916 -4.6787 -1.8373
19391SOL     OW60179   0.259   5.735   3.611  0.3992  0.2959  0.7083
19391SOL    HW160180   0.229   5.784   3.534 -0.4016 -0.6854  0.3637
19391SOL    HW260181   0.182   5.732   3.668  0.8485  0.5976  1.3454
19392SOL     OW60182   6.078   0.749   7.294  0.2281 -0.8288  0.3531
19392SOL    HW160183   6.044   0.770   7.207 -1.9414 -0.8861  1.1346
19392SOL    HW260184   6.088   0.833   7.337  0.7617 -0.8360  0.2474
19393SOL     OW60185   7.615   5.636   7.888 -0.2230 -0.0271  0.0423
19393SOL    HW160186   7.653   5.628   7.800  0.8089  0.0292  0.4668
19393SOL    HW260187   7.691   5.649   7.946 -0.8823 -0.1062  0.9469
19394SOL     OW60188   4.842   6.256   3.812  0.3670  0.2375 -0.2244
19394SOL    HW160189   4.818   6.296   3.895 -1.2965 -0.8476 -0.1407
19394SOL    HW260190   4.782   6.183   3.802  2.5729 -1.6201 -0.8738
19395SOL     OW60191   7.727   5.818   1.335 -0.1470  0.1932  0.3008
19395SOL    HW160192   7.766   5.771   1.261  0.1932 -0.8517  1.1256
19395SOL    HW260193   7.716   5.752   1.403 -2.9531  0.5448  0.2999
19396SOL     OW60194   5.134  10.318  10.658 -0.6471 -0.1361 -0.5737
19396SOL    HW160195   5.099  10.392  10.708 -2.4083 -2.3369  1.7654
19396SOL    HW260196   5.204  10.282  10.713 -1.2993 -1.4627 -0.5623
19397SOL     OW60197   6.205   4.005   2.161  0.1262 -1.1488  0.2429
19397SOL    HW160198   6.239   4.080   2.210  1.2627 -1.0570 -0.6277
19397SOL    HW260199   6.110   4.012   2.168  0.2444 -1.2688  2.5955
19398SOL     OW60200   3.289   9.896   9.093 -0.0758 -0.2064 -0.3221
19398SOL    HW160201   3.217   9.841   9.063 -1.3245  0.7741  0.7780
19398SOL    HW260202   3.257   9.985   9.084  1.0172  0.2543  0.1556
19399SOL     OW60203   3.030   4.484  10.942 -0.4867 -0.1751 -0.1268
19399SOL    HW160204   2.972   4.489  11.018 -1.1826  0.2003 -0.6749
19399SOL    HW260205   3.108   4.533  10.969 -1.7743  2.3023 -0.5527
19400SOL     OW60206   9.404   7.958   9.047 -0.0461  0.4392  0.3465
19400SOL    HW160207   9.356   7.888   9.003 -0.0805  1.5936 -1.5716
19400SOL    HW260208   9.388   8.035   8.994  1.8950  1.4043  1.0580
19401SOL     OW60209   4.264  10.011   9.493 -0.5149  0.4777 -0.3234
19401SOL    HW160210   4.337  10.006   9.555 -0.5898 -0.4937 -0.2997
19401SOL    HW260211   4.200  10.068   9.535  0.0134  0.9255 -0.1213
19402SOL     OW60212   7.309   7.874   9.142  0.5995 -0.0955 -0.2023
19402SOL    HW160213   7.365   7.928   9.086 -0.2262  1.1386  0.1347
19402SOL    HW260214   7.328   7.784   9.114  2.4527  0.2938 -0.3667
19403SOL     OW60215  10.989   0.698   7.940  0.3351  0.3056 -0.0974
19403SOL    HW160216  10.943   0.645   8.005 -0.5360  0.7373 -0.3409
19403SOL    HW260217  11.076   0.714   7.977  1.2430 -2.6305 -0.7002
19404SOL     OW60218   2.286   9.162  10.029  0.0904  0.6781 -0.1258
19404SOL    HW160219   2.316   9.089  10.083 -0.7729  0.1168 -0.3865
19404SOL    HW260220   2.204   9.190  10.070 -0.6914  0.1086 -1.2514
19405SOL     OW60221   1.923   7.859  11.018  0.5671 -0.4748  0.2438
19405SOL    HW160222   2.000   7.889  11.066  0.9588  1.3682 -1.4221
19405SOL    HW260223   1.862   7.933  11.023 -0.5623 -1.3914  0.3793
19406SOL     OW60224   7.189   4.656  10.820  0.6955  0.1518 -0.4196
19406SOL    HW160225   7.195   4.724  10.888 -2.3192  0.0094  0.1084
19406SOL    HW260226   7.235   4.581  10.858 -0.7699  0.1303  1.4364
19407SOL     OW60227   0.202   5.533   8.598  0.1516 -0.3885  0.3405
19407SOL    HW160228   0.176   5.535   8.506 -0.6883 -1.0256  0.5494
19407SOL    HW260229   0.127   5.570   8.645  1.4717  2.0903  0.6089
19408SOL     OW60230   9.524   6.704  10.673  0.0191 -0.2542 -0.3781
19408SOL    HW160231   9.589   6.774  10.685  0.4645 -0.5437 -1.0456
19408SOL    HW260232   9.571   6.624  10.697  0.1770 -0.5613 -1.6423
19409SOL     OW60233   3.977   4.168   7.326 -0.1290 -0.3367  0.6204
19409SOL    HW160234   3.983   4.253   7.371 -0.1985 -0.2417  0.4533
19409SOL    HW260235   3.889   4.168   7.289  0.7520  0.6760 -1.6456
19410SOL     OW60236   7.369   7.616   9.290  0.1018  0.1391 -0.0015
19410SOL    HW160237   7.388   7.533   9.334 -1.3153 -1.1224 -1.6078
19410SOL    HW260238   7.283   7.641   9.321 -0.0927  0.2304 -0.6048
19411SOL     OW60239   4.011   5.151   5.995  0.8560 -0.0515 -0.3972
19411SOL    HW160240   4.084   5.209   6.020  0.4373  1.4508 -2.3653
19411SOL    HW260241   3.935   5.187   6.041  0.9367 -0.2341 -0.1166
19412SOL     OW60242   6.736   1.323   2.466 -0.2359  0.0015 -0.4792
19412SOL    HW160243   6.679   1.312   2.542 -1.5015 -1.4606 -1.5755
19412SOL    HW260244   6.709   1.407   2.428  0.5088  0.8153  0.7250
19413SOL     OW60245   9.464   8.438   6.045  0.3641 -0.2795  0.1712
19413SOL    HW160246   9.518   8.477   5.976 -2.2305 -0.6001 -2.2102
19413SOL    HW260247   9.433   8.512   6.096  1.9400  0.0015  0.7982
19414SOL     OW60248   7.195   5.649   1.255 -1.0483  0.4108  0.4624
19414SOL    HW160249   7.224   5.593   1.327  1.0904  0.6543 -0.1332
19414SOL    HW260250   7.101   5.632   1.247 -1.0223 -0.8146  2.2360
19415SOL     OW60251   8.265   3.868  10.428 -0.3009 -0.4251 -0.4518
19415SOL    HW160252   8.336   3.899  10.484 -1.5588 -0.4197  1.1802
19415SOL    HW260253   8.237   3.946  10.380  1.1043 -0.5330 -1.5032
19416SOL     OW60254   9.024   1.488   0.728 -0.3390 -0.5395 -0.3464
19416SOL    HW160255   9.112   1.451   0.726 -0.5032 -0.9275 -0.4359
19416SOL    HW260256   8.966   1.414   0.710 -0.5835  0.0224 -1.9903
19417SOL     OW60257   4.007   6.683   8.401  0.0204  0.3028  0.1136
19417SOL    HW160258   3.993   6.598   8.443 -0.5923  1.1172  1.6369
19417SOL    HW260259   3.970   6.673   8.313  0.3661 -1.1273  0.1051
19418SOL     OW60260   2.989   1.394  10.791 -0.2846 -0.1095  0.3685
19418SOL    HW160261   2.947   1.449  10.725 -0.4168 -1.2255 -0.5155
19418SOL    HW260262   2.921   1.333  10.818  0.0391 -0.2595  0.8540
19419SOL     OW60263   5.043  10.366   9.926 -0.0761  0.4220  0.1515
19419SOL    HW160264   5.030  10.294   9.864 -1.7314  0.5311  0.3289
19419SOL    HW260265   5.005  10.335  10.008  1.1555  0.6899  0.8465
19420SOL     OW60266   4.443   9.530   7.123 -0.4229  0.3627  0.2104
19420SOL    HW160267   4.477   9.531   7.034 -0.5075  1.2161  0.1804
19420SOL    HW260268   4.391   9.610   7.130  0.1065  0.6364  1.2190
19421SOL     OW60269   0.656  10.236   1.501  0.1594 -0.0398  0.1522
19421SOL    HW160270   0.578  10.239   1.444  0.7098 -1.7411 -0.7465
19421SOL    HW260271   0.710  10.309   1.471  0.9784 -1.5762 -2.3951
19422SOL     OW60272   6.763   7.510   2.629  0.8033  0.8571 -0.1748
19422SOL    HW160273   6.783   7.488   2.538  0.4911 -1.5653  0.2701
19422SOL    HW260274   6.676   7.471   2.645  1.6308 -0.4066  1.6246
19423SOL     OW60275   3.403   9.356   1.359 -0.1933 -0.6821  0.1106
19423SOL    HW160276   3.439   9.274   1.324 -1.0045 -1.7733  1.6896
19423SOL    HW260277   3.437   9.360   1.449 -0.7598  0.3509  0.2877
19424SOL     OW60278   5.411   8.879   8.692  0.3946 -0.5299 -0.1675
19424SOL    HW160279   5.334   8.906   8.643  1.3483  1.2819 -0.7514
19424SOL    HW260280   5.457   8.818   8.634  0.1198 -0.5410 -0.3739
19425SOL     OW60281   0.844   7.560   6.627  0.4633 -0.1561  0.0447
19425SOL    HW160282   0.857   7.499   6.699 -0.4315 -1.3412 -0.7728
19425SOL    HW260283   0.794   7.632   6.666  0.0147 -0.7689  0.6296
19426SOL     OW60284   6.721   6.611   4.111  0.1949  0.4788 -0.2726
19426SOL    HW160285   6.796   6.568   4.068  1.3018 -0.2521  2.1786
19426SOL    HW260286   6.758   6.647   4.192 -1.7991  1.5812  0.1983
19427SOL     OW60287   1.620   4.415   2.789 -0.0457  0.1360  0.2504
19427SOL    HW160288   1.606   4.508   2.768 -0.3369  0.5982  2.3362
19427SOL    HW260289   1.592   4.369   2.710 -0.9588  1.7569 -0.4286
19428SOL     OW60290   4.914   6.889  10.428 -0.0903  0.0617 -0.8252
19428SOL    HW160291   4.842   6.826  10.428 -0.1621  0.1070  0.8639
19428SOL    HW260292   4.948   6.888  10.517  1.4483  0.6986 -1.3579
19429SOL     OW60293   3.084   0.824   0.692  0.5022 -0.4493 -0.2021
19429SOL    HW160294   3.134   0.888   0.742  0.0825 -0.7304  0.5900
19429SOL    HW260295   3.126   0.740   0.711 -0.4343 -0.7270  0.7037
19430SOL     OW60296  10.606   2.694   5.050 -0.5386 -0.6175 -0.1843
19430SOL    HW160297  10.617   2.722   4.959  1.4098 -0.7116 -0.0090
19430SOL    HW260298  10.541   2.624   5.045 -0.8951 -0.2323 -1.4126
19431SOL     OW60299   7.056   0.831   2.742 -0.4004 -0.6253 -0.5395
19431SOL    HW160300   7.115   0.890   2.695 -0.2828 -0.0617  0.2829
19431SOL    HW260301   7.102   0.812   2.824 -0.5097 -1.7430 -0.7201
19432SOL     OW60302   9.478   3.917  10.415 -0.1613 -0.2668 -0.3649
19432SOL    HW160303   9.529   3.858  10.471  0.8935  0.6307 -0.3363
19432SOL    HW260304   9.429   3.971  10.476  2.9496  2.5006 -0.0118
19433SOL     OW60305   4.134   8.950   3.806  0.0734  0.1402 -0.1650
19433SOL    HW160306   4.143   8.974   3.713 -1.0235 -0.2089 -0.3799
19433SOL    HW260307   4.203   8.999   3.850 -0.1443  1.2530 -1.0028
19434SOL     OW60308   3.733   4.790   7.112 -0.5176  0.1058 -0.2974
19434SOL    HW160309   3.811   4.737   7.129  0.1478  1.0498 -0.3283
19434SOL    HW260310   3.764   4.863   7.058 -0.9797  1.6532  1.4161
19435SOL     OW60311   0.276   8.945   1.163  0.5484  0.5013  0.1085
19435SOL    HW160312   0.278   8.920   1.070 -0.5017  0.6913  0.0216
19435SOL    HW260313   0.196   8.906   1.196  0.9973  0.3051  0.9924
19436SOL     OW60314   2.885   6.712  10.637  0.2509 -0.3314  0.3709
19436SOL    HW160315   2.958   6.683  10.692  0.5980 -2.3299 -1.0461
19436SOL    HW260316   2.838   6.776  10.692  1.4017 -1.1365  2.4112
19437SOL     OW60317   2.542   0.308   8.944 -0.3638  0.3196  0.1207
19437SOL    HW160318   2.551   0.344   8.856  0.3450  0.1605  0.1229
19437SOL    HW260319   2.463   0.349   8.979 -1.1268 -0.2569 -0.8908
19438SOL     OW60320   2.384  10.023   6.697 -0.2699  0.2799  0.1302
19438SOL    HW160321   2.463   9.991   6.653 -1.1421 -4.0139  1.2435
19438SOL    HW260322   2.319  10.033   6.627  0.4693  1.2620 -0.4424
19439SOL     OW60323   9.101   1.221  10.654  0.2064 -0.5883 -0.0787
19439SOL    HW160324   9.138   1.294  10.703  0.0541 -1.8442  2.0689
19439SOL    HW260325   9.108   1.247  10.562  0.9001  1.7337  0.5586
19440SOL     OW60326   6.478   0.758   0.602  0.1533  0.1505 -0.1037
19440SOL    HW160327   6.554   0.706   0.629 -0.3842 -1.2639 -1.2011
19440SOL    HW260328   6.420   0.696   0.559  0.4456  1.9862 -3.5111
19441SOL     OW60329   6.439   5.582   1.060 -0.3832  0.0768 -0.2537
19441SOL    HW160330   6.356   5.537   1.044 -0.2027 -0.4979  0.3967
19441SOL    HW260331   6.456   5.569   1.153  0.2552  0.5151 -0.3001
19442SOL     OW60332   8.683   8.860  11.007  0.1484 -0.0050 -0.4159
19442SOL    HW160333   8.704   8.950  11.029  1.5995  0.4297 -3.1535
19442SOL    HW260334   8.604   8.866  10.953  0.8111 -0.2102 -1.4442
19443SOL     OW60335   6.264   6.099   8.563  0.0977 -0.0035 -0.0770
19443SOL    HW160336   6.306   6.136   8.485  0.7483  2.3434  1.2917
19443SOL    HW260337   6.173   6.127   8.556  0.3382  0.9149  0.3938
19444SOL     OW60338   4.251   5.849   9.676 -0.0517 -0.3499  0.5677
19444SOL    HW160339   4.193   5.883   9.744 -2.5154 -0.8302 -1.1499
19444SOL    HW260340   4.201   5.859   9.595  3.1245  1.1494 -1.4030
19445SOL     OW60341   5.936   4.577   3.645 -0.4085  0.1310 -0.1060
19445SOL    HW160342   5.909   4.655   3.595 -0.7287 -0.7977 -1.4328
19445SOL    HW260343   6.013   4.545   3.599  1.8987  1.5908  2.4616
19446SOL     OW60344   3.742   4.688   1.668  0.0013  0.0006  0.4280
19446SOL    HW160345   3.734   4.682   1.573  1.3120 -2.5770  0.3833
19446SOL    HW260346   3.834   4.713   1.683  0.3040 -1.3169  0.9652
19447SOL     OW60347   4.587   7.258  10.330 -0.3962 -0.0177  0.3147
19447SOL    HW160348   4.522   7.218  10.387 -1.0834  3.1366  1.9470
19447SOL    HW260349   4.657   7.287  10.389 -0.3373  1.8399 -0.5815
19448SOL     OW60350   8.620  10.988   3.438 -0.2037  0.0777 -0.0614
19448SOL    HW160351   8.591  10.924   3.503  1.5515 -0.2126  0.4910
19448SOL    HW260352   8.539  11.027   3.405 -1.2009 -0.7938  1.2499
19449SOL     OW60353   2.614   1.495   0.219 -0.3203 -0.3584  0.3284
19449SOL    HW160354   2.699   1.525   0.249 -0.4615  0.8843 -0.4535
19449SOL    HW260355   2.598   1.543   0.138 -1.5211 -0.9720  0.1734
19450SOL     OW60356   0.470   3.694   8.229  0.1374 -0.3110 -0.0116
19450SOL    HW160357   0.531   3.622   8.241  3.9618  2.3369 -1.5729
19450SOL    HW260358   0.441   3.716   8.318  2.8864 -0.6420  1.0502
19451SOL     OW60359   6.824   6.633   1.343  0.2798 -0.1969  0.1084
19451SOL    HW160360   6.807   6.593   1.258  1.4361 -1.4438  0.4419
19451SOL    HW260361   6.860   6.563   1.397  2.5166  1.2547  0.6773
19452SOL     OW60362   5.789   8.298  10.574  0.3885 -0.0090  0.1990
19452SOL    HW160363   5.699   8.291  10.542  0.5499  0.5756 -0.4069
19452SOL    HW260364   5.800   8.222  10.632 -0.0378 -0.9111 -0.8661
19453SOL     OW60365  10.712   5.942   9.082  0.4537  0.1308  0.2461
19453SOL    HW160366  10.714   6.002   9.156 -1.3884  0.9388 -0.3027
19453SOL    HW260367  10.802   5.912   9.073  1.2595  2.1194  1.1150
19454SOL     OW60368   3.166   1.861   2.189 -0.1438 -0.0602 -0.2417
19454SOL    HW160369   3.122   1.834   2.108 -1.2954 -1.1929  0.7029
19454SOL    HW260370   3.248   1.902   2.160  0.2530 -1.8777 -1.9413
19455SOL     OW60371   4.102   5.915   2.800 -0.3195 -0.0683  0.1552
19455SOL    HW160372   4.065   5.975   2.735  1.8341  1.2872  0.0742
19455SOL    HW260373   4.112   5.968   2.879 -1.7729 -1.3768  1.2760
19456SOL     OW60374   4.669   3.142   5.974  0.0689 -0.4424 -0.5046
19456SOL    HW160375   4.642   3.113   6.061  2.6206  0.3548  0.6613
19456SOL    HW260376   4.734   3.078   5.947  1.3981  0.8358 -0.4987
19457SOL     OW60377   3.023   6.167   0.844 -0.2450  0.1352  0.4103
19457SOL    HW160378   3.047   6.159   0.752 -1.5336 -0.5954  0.1182
19457SOL    HW260379   3.098   6.132   0.892 -0.6015 -1.9727 -0.4594
19458SOL     OW60380   3.494   3.777   7.673 -0.0950  0.0250 -0.1302
19458SOL    HW160381   3.553   3.781   7.598 -0.7790 -1.6562 -0.8052
19458SOL    HW260382   3.511   3.858   7.722  3.4500 -0.7804  0.2328
19459SOL     OW60383   6.017   3.063   1.354 -0.2316  0.1914  0.4862
19459SOL    HW160384   6.072   3.028   1.284 -0.6129  0.7871 -0.1189
19459SOL    HW260385   5.933   3.017   1.345 -0.7977  1.3527 -0.4283
19460SOL     OW60386   3.954   6.513   3.156  0.5181  0.6380  0.5674
19460SOL    HW160387   3.895   6.583   3.183  0.7334  1.3175 -0.6521
19460SOL    HW260388   3.902   6.433   3.165 -0.9076  1.2941 -1.2295
19461SOL     OW60389  10.537   7.168   2.710 -0.0471  0.4333 -0.0368
19461SOL    HW160390  10.548   7.227   2.635  0.1660  1.1043  0.5036
19461SOL    HW260391  10.443   7.151   2.714  0.0735 -0.5647 -1.1623
19462SOL     OW60392   9.093   5.480   3.579 -0.0691 -0.5688 -0.3623
19462SOL    HW160393   9.145   5.488   3.659  1.9507 -2.0412 -1.4264
19462SOL    HW260394   9.143   5.528   3.513 -0.9689 -0.5839 -1.0826
19463SOL     OW60395   0.926   7.732   7.472 -0.0825 -0.1667 -0.1279
19463SOL    HW160396   0.942   7.757   7.563 -2.0004 -1.6413  0.6906
19463SOL    HW260397   0.885   7.809   7.434  2.2751  1.0829 -0.2886
19464SOL     OW60398   1.573   5.504   1.122 -0.0676 -0.2506 -0.2421
19464SOL    HW160399   1.657   5.543   1.098 -0.1909  0.0097 -0.2491
19464SOL    HW260400   1.564   5.522   1.216  1.0291 -2.3872  0.3465
19465SOL     OW60401   5.463   8.125   2.313  0.0943  0.2286 -0.2489
19465SOL    HW160402   5.477   8.218   2.331  1.4115  0.3072 -1.4845
19465SOL    HW260403   5.544   8.083   2.342  0.4377 -0.2152 -1.7752
19466SOL     OW60404   6.394   7.609   7.826  0.0145 -0.1693  0.0603
19466SOL    HW160405   6.404   7.575   7.915 -0.2516 -0.7668 -0.1331
19466SOL    HW260406   6.412   7.534   7.769 -1.3867 -0.2302 -0.3537
19467SOL     OW60407   1.809  10.220   6.431  0.0056 -0.0343  0.0658
19467SOL    HW160408   1.754  10.182   6.500 -0.1620  1.0264  0.5370
19467SOL    HW260409   1.827  10.147   6.371  0.2007 -0.9907  1.2562
19468SOL     OW60410   2.433   7.365   9.088 -0.7744 -0.4946  0.1461
19468SOL    HW160411   2.512   7.412   9.113 -0.6505 -0.4579 -0.2997
19468SOL    HW260412   2.361   7.424   9.114 -0.6375 -0.2920  0.0708
19469SOL     OW60413   4.146   8.927   0.142  0.2753 -0.2506 -0.9627
19469SOL    HW160414   4.058   8.945   0.109 -0.5165 -0.3348  1.0044
19469SOL    HW260415   4.171   9.008   0.187 -0.2666 -1.3836  1.4995
19470SOL     OW60416   5.580   8.510   0.029 -0.2006 -0.2915  0.6396
19470SOL    HW160417   5.574   8.603   0.011  1.9570  0.3402  2.5801
19470SOL    HW260418   5.577   8.468  -0.057 -1.3514  1.5231 -0.2602
19471SOL     OW60419   3.074  10.217   7.940 -0.4002  0.5850  0.3058
19471SOL    HW160420   3.052  10.142   7.884  0.3343  0.2561  0.4497
19471SOL    HW260421   2.991  10.238   7.984 -0.7818  0.3069 -0.2631
19472SOL     OW60422   0.891   6.495   9.982 -0.3862  0.3233  0.2484
19472SOL    HW160423   0.813   6.521   9.933 -0.0177 -1.0174 -1.1266
19472SOL    HW260424   0.865   6.417  10.030 -0.2786  0.6982  0.9319
19473SOL     OW60425   9.516   4.965   7.196 -0.6662  0.0127 -0.5836
19473SOL    HW160426   9.459   4.948   7.121 -1.0928 -0.1490 -0.2273
19473SOL    HW260427   9.604   4.970   7.158 -0.8866  0.0423 -1.1096
19474SOL     OW60428  11.025  10.497   0.712 -0.2344 -0.4226 -0.4035
19474SOL    HW160429  10.950  10.469   0.765 -0.9573  2.5387  0.3267
19474SOL    HW260430  11.097  10.503   0.774  0.3212 -1.9275 -0.8470
19475SOL     OW60431   2.222   5.689   4.195 -1.0928 -0.2654  0.0835
19475SOL    HW160432   2.303   5.706   4.242 -1.2032  0.0872  0.1520
19475SOL    HW260433   2.156   5.681   4.264 -0.7727 -2.6694  0.1665
19476SOL     OW60434   8.674   3.020   0.524  0.0681 -0.3270 -0.2480
19476SOL    HW160435   8.580   3.032   0.518  0.0384 -0.4793 -0.1139
19476SOL    HW260436   8.689   2.931   0.491  0.1713 -0.2754 -0.3381
19477SOL     OW60437   8.364   0.470   4.670  0.1003 -0.0377  0.1809
19477SOL    HW160438   8.306   0.398   4.646 -0.1046 -0.3166  1.4496
19477SOL    HW260439   8.451   0.431   4.676  0.0412 -0.1189  0.5447
19478SOL     OW60440   4.273  10.145  10.158 -0.0192  0.1867 -0.2474
19478SOL    HW160441   4.323  10.113  10.233 -1.0149  0.7661  0.7023
19478SOL    HW260442   4.197  10.189  10.197 -0.6083  0.4302 -1.6047
19479SOL     OW60443   3.773   0.900   9.930 -0.0728 -0.2220  0.1432
19479SOL    HW160444   3.762   0.943  10.015  3.1467 -0.8606  1.0276
19479SOL    HW260445   3.721   0.820   9.937  0.1563 -0.2856  1.5628
19480SOL     OW60446   2.524   4.108   7.674 -0.1166  0.4374  0.3127
19480SOL    HW160447   2.434   4.075   7.672  0.0988 -0.1692  0.2231
19480SOL    HW260448   2.524   4.175   7.742 -0.8370  1.0521 -0.2814
19481SOL     OW60449   9.659   6.490   9.630  0.3351 -0.5519  0.6663
19481SOL    HW160450   9.709   6.556   9.583 -0.5133 -0.2599  0.1509
19481SOL    HW260451   9.658   6.521   9.721  0.2821 -0.0515  0.5018
19482SOL     OW60452  10.733   5.427   7.495  0.2764  0.1992  0.2370
19482SOL    HW160453  10.814   5.476   7.490  0.5314 -0.0614  1.3655
19482SOL    HW260454  10.700   5.423   7.405  1.0612  1.0492 -0.0930
19483SOL     OW60455   7.585   6.497   4.650 -0.4576  0.0951  0.1259
19483SOL    HW160456   7.572   6.516   4.557  3.1364 -0.6835 -0.7035
19483SOL    HW260457   7.617   6.579   4.688  0.9405 -0.3047 -0.0990
19484SOL     OW60458   4.859   0.471   9.821 -0.3611 -0.1133 -0.3456
19484SOL    HW160459   4.888   0.468   9.912 -0.1978  0.2196 -0.3836
19484SOL    HW260460   4.884   0.386   9.784  2.1543  0.7707 -0.8459
19485SOL     OW60461   8.123   8.320   9.412  0.2136 -0.2515  0.6468
19485SOL    HW160462   8.110   8.409   9.380  0.5737 -0.6806 -0.7654
19485SOL    HW260463   8.114   8.327   9.507 -1.5331  0.9693  0.4358
19486SOL     OW60464   0.060   5.451   6.712 -0.0353  0.6498 -0.8749
19486SOL    HW160465   0.148   5.433   6.746 -0.7779  0.1501  0.8914
19486SOL    HW260466   0.014   5.367   6.717 -0.9127  1.1165 -0.8265
19487SOL     OW60467   6.765  10.959   3.707 -0.4247 -0.1124  0.2340
19487SOL    HW160468   6.748  10.920   3.621  0.0323 -0.6666  0.3922
19487SOL    HW260469   6.681  10.956   3.752 -0.6788  0.2198 -0.2035
19488SOL     OW60470   3.748   8.904   1.607 -0.0874 -0.0692  0.1211
19488SOL    HW160471   3.672   8.886   1.551  0.2748  0.9472 -0.7574
19488SOL    HW260472   3.822   8.902   1.547  0.6873 -1.6155  1.0702
19489SOL     OW60473   3.994   5.305   4.903  0.4888 -0.3050 -0.3272
19489SOL    HW160474   4.027   5.293   4.992  1.3407 -2.5992 -0.8655
19489SOL    HW260475   4.064   5.353   4.858  1.8448 -2.4453 -0.6603
19490SOL     OW60476   6.617   5.686   0.319  0.2290  0.0741  0.1157
19490SOL    HW160477   6.587   5.679   0.228 -2.5862 -1.5818  1.0296
19490SOL    HW260478   6.667   5.606   0.334  0.5650  0.2759  0.0890
19491SOL     OW60479   4.752   6.178   6.047 -0.6129  0.0266 -0.2286
19491SOL    HW160480   4.781   6.266   6.073  2.0504 -1.2070  1.4609
19491SOL    HW260481   4.833   6.133   6.022 -1.0042 -3.2851  3.4065
19492SOL     OW60482   2.280   7.148   4.645 -0.4428  0.0572  0.4304
19492SOL    HW160483   2.213   7.133   4.712 -0.2225  0.1365  0.6740
19492SOL    HW260484   2.257   7.231   4.605 -0.2314  0.3163  0.8352
19493SOL     OW60485   1.318   0.196   6.785  0.7111  0.5264 -0.1399
19493SOL    HW160486   1.346   0.286   6.798 -0.0733  0.8406 -0.5504
19493SOL    HW260487   1.252   0.181   6.852 -0.0062  0.6511 -0.8010
19494SOL     OW60488   4.408   3.173  10.391 -0.1855 -0.4435 -0.2184
19494SOL    HW160489   4.419   3.218  10.475  1.4070 -0.2417 -0.5107
19494SOL    HW260490   4.370   3.088  10.414 -3.5715  1.0232  0.3281
19495SOL     OW60491   0.316   9.344   1.760  0.0538 -0.0164  0.0005
19495SOL    HW160492   0.359   9.364   1.677 -0.8725 -0.2208 -0.5401
19495SOL    HW260493   0.356   9.262   1.789 -0.3515 -0.4979 -0.7753
19496SOL     OW60494   7.700  10.283   7.034  0.6140 -0.2887  0.1047
19496SOL    HW160495   7.655  10.350   7.086 -0.7666 -0.9174 -0.2357
19496SOL    HW260496   7.771  10.330   6.990 -0.0821  0.8627  0.1735
19497SOL     OW60497   7.292   1.840   6.508 -0.0049  0.4501 -0.1699
19497SOL    HW160498   7.385   1.818   6.518 -0.3866 -1.1356  0.1945
19497SOL    HW260499   7.250   1.757   6.487 -1.5503  0.8622  1.1312
19498SOL     OW60500   8.231   9.399  10.481  0.0536 -0.3670 -0.3448
19498SOL    HW160501   8.274   9.484  10.483 -0.9514  0.1466  0.0163
19498SOL    HW260502   8.236   9.368  10.572 -2.4650  0.8203  0.2761
19499SOL     OW60503   5.456   8.742   3.295 -0.2528 -0.6753  0.7668
19499SOL    HW160504   5.432   8.821   3.344  0.3782 -1.3154  2.1571
19499SOL    HW260505   5.497   8.775   3.215 -0.0115  0.4146  1.3248
19500SOL     OW60506  10.538  10.854  10.977  0.2261  0.3162  0.0434
19500SOL    HW160507  10.539  10.819  11.066 -1.9555  1.1814  0.4653
19500SOL    HW260508  10.607  10.920  10.976 -0.7700  1.4503  1.6293
19501SOL     OW60509   2.125   3.172   6.991  0.2231 -0.1297 -0.3588
19501SOL    HW160510   2.105   3.188   7.083  0.3064 -0.7465 -0.2337
19501SOL    HW260511   2.154   3.081   6.987 -2.3944 -0.9943 -1.4228
19502SOL     OW60512   2.682   2.876   0.190 -0.4097 -0.8273  0.3086
19502SOL    HW160513   2.608   2.935   0.209 -0.3249 -0.5483 -0.2130
19502SOL    HW260514   2.668   2.848   0.100  0.7285  0.1372 -0.1992
19503SOL     OW60515   8.524   6.474   0.762 -0.2246 -0.0814  0.3393
19503SOL    HW160516   8.460   6.405   0.781 -1.5974  0.9754 -0.2652
19503SOL    HW260517   8.588   6.432   0.705 -0.7624 -0.9840  0.3781
19504SOL     OW60518   8.700   7.902   8.688 -0.0506  0.6418  0.5471
19504SOL    HW160519   8.745   7.842   8.628 -2.2419 -0.7403  0.1547
19504SOL    HW260520   8.742   7.987   8.673  1.8670 -0.3825 -0.3036
19505SOL     OW60521   1.350   8.841   0.118 -0.5096  0.5495  0.9603
19505SOL    HW160522   1.354   8.869   0.210  0.3173  1.2805  0.7138
19505SOL    HW260523   1.375   8.919   0.069  1.3036 -0.4435  0.2187
19506SOL     OW60524   2.695   7.496   5.769 -0.1643  0.0371  0.1622
19506SOL    HW160525   2.749   7.500   5.691 -0.4886  1.3013 -0.0221
19506SOL    HW260526   2.664   7.586   5.782 -0.2436 -0.1701  1.6477
19507SOL     OW60527   6.282   7.520   1.691  0.4125 -0.2192  0.3117
19507SOL    HW160528   6.268   7.472   1.772  0.9056 -0.6384  0.1547
19507SOL    HW260529   6.304   7.453   1.626  0.3384  0.1403 -0.0903
19508SOL     OW60530   6.883   9.748  11.056  0.2891 -0.1896  0.0738
19508SOL    HW160531   6.854   9.829  11.098 -1.2289 -0.8728  0.4305
19508SOL    HW260532   6.929   9.777  10.977  1.0277  1.0415  0.9157
19509SOL     OW60533   0.020   1.921   8.031  0.0191 -0.1261  0.7304
19509SOL    HW160534  -0.019   1.834   8.037 -0.4706  0.1124  1.0356
19509SOL    HW260535   0.018   1.954   8.121  2.4614 -0.7677  1.0894
19510SOL     OW60536   1.627   4.661   4.033 -0.2012  0.1289  0.2244
19510SOL    HW160537   1.651   4.651   3.941 -1.3719 -0.7204 -0.0122
19510SOL    HW260538   1.641   4.754   4.052  2.0142 -0.0695 -0.2113
19511SOL     OW60539   3.656  10.829   7.306  0.0564  0.1152 -0.3119
19511SOL    HW160540   3.592  10.864   7.368 -0.5644  1.2341 -1.5127
19511SOL    HW260541   3.731  10.887   7.315 -0.2319  0.6073 -0.9287
19512SOL     OW60542   3.919   1.097   3.282  0.2459  0.0272 -0.4766
19512SOL    HW160543   3.859   1.126   3.212  0.3360 -0.6930 -0.8555
19512SOL    HW260544   3.940   1.006   3.260 -0.0870 -0.3598  0.7460
19513SOL     OW60545   7.602   6.567   3.996 -0.2909  0.2996 -0.3167
19513SOL    HW160546   7.661   6.503   4.035  0.7792  1.5313  0.1372
19513SOL    HW260547   7.594   6.540   3.904  1.8672  0.6925 -0.6796
19514SOL     OW60548   0.174   6.034  10.834  0.1490 -0.3957  0.0920
19514SOL    HW160549   0.160   5.953  10.787  1.6669 -0.8568  0.3787
19514SOL    HW260550   0.252   6.073  10.793 -0.3975  0.7903  0.1250
19515SOL     OW60551   5.076   8.691   8.852  0.9268  0.1434 -0.1239
19515SOL    HW160552   5.063   8.597   8.856  2.0340  0.0183  1.0787
19515SOL    HW260553   5.171   8.702   8.841  1.1697  1.1192  2.3331
19516SOL     OW60554   6.804   0.310   3.915  0.3700  0.3779  0.3993
19516SOL    HW160555   6.830   0.288   4.005  0.4434  1.0107  0.5358
19516SOL    HW260556   6.887   0.328   3.871  0.6321 -2.7256 -0.5940
19517SOL     OW60557   7.327   0.614   8.349  0.3179  0.0704  0.5839
19517SOL    HW160558   7.382   0.691   8.359  0.8866  0.2183 -2.4615
19517SOL    HW260559   7.383   0.551   8.303 -1.3762 -0.5619 -0.7455
19518SOL     OW60560   1.272   4.025   9.805 -0.4227  0.1365 -0.1701
19518SOL    HW160561   1.309   4.018   9.893  0.1956 -1.9656 -0.5416
19518SOL    HW260562   1.270   4.119   9.788  1.1092  0.5233  1.3887
19519SOL     OW60563   4.994   6.149  10.344 -0.1939  0.1937  0.1517
19519SOL    HW160564   5.085   6.170  10.365  0.8458 -1.5364 -2.1652
19519SOL    HW260565   4.963   6.222  10.292 -0.2807  0.9600  1.2531
19520SOL     OW60566   4.768   2.986   3.781  0.5753  0.2710  0.0585
19520SOL    HW160567   4.802   2.954   3.698  1.0605  1.2912 -0.1488
19520SOL    HW260568   4.699   3.047   3.757  0.4068  0.2233  0.4160
19521SOL     OW60569   4.701   2.816   4.425  0.2312 -0.0149 -0.3709
19521SOL    HW160570   4.694   2.821   4.520 -1.1059  1.4188 -0.4964
19521SOL    HW260571   4.670   2.729   4.403 -0.3098 -0.0356  0.4477
19522SOL     OW60572   3.145  10.254   9.702 -0.0965  0.5619  0.2752
19522SOL    HW160573   3.117  10.170   9.665  2.0751 -0.1035 -0.0398
19522SOL    HW260574   3.241  10.253   9.692 -0.0413  3.2654 -0.0929
19523SOL     OW60575   8.568   7.449   0.046 -0.2521 -0.4075  0.2352
19523SOL    HW160576   8.577   7.366   0.093  3.7864  0.4346  1.2761
19523SOL    HW260577   8.612   7.514   0.101  1.0333  1.4813 -2.7197
19524SOL     OW60578   0.714   0.406   7.075 -0.1261  0.7285 -0.1771
19524SOL    HW160579   0.772   0.351   7.128  0.7183  0.9795 -0.8124
19524SOL    HW260580   0.628   0.398   7.116  0.0774 -0.6974  0.0289
19525SOL     OW60581   2.118  10.247   2.278 -0.2371  0.2667 -0.0834
19525SOL    HW160582   2.193  10.285   2.324  0.8726 -0.2946 -1.3204
19525SOL    HW260583   2.114  10.157   2.309 -0.0413  0.1432 -0.4026
19526SOL     OW60584   7.054   2.495   2.835  0.3398  0.2872  0.3155
19526SOL    HW160585   7.099   2.506   2.919 -1.0243 -0.6261  1.1877
19526SOL    HW260586   7.030   2.402   2.832  0.4211  0.2871 -1.1274
19527SOL     OW60587   0.853   1.753  11.050  0.2632  0.3348 -0.0832
19527SOL    HW160588   0.860   1.776  11.142  0.0569 -0.5272  0.1624
19527SOL    HW260589   0.858   1.657  11.049 -0.5898  0.2806 -0.8880
19528SOL     OW60590   2.257   4.945   2.211 -0.1073  0.2423 -0.2464
19528SOL    HW160591   2.346   4.913   2.228 -0.1900  0.1599  0.0418
19528SOL    HW260592   2.269   5.035   2.183  0.2027 -0.2950 -1.9677
19529SOL     OW60593   5.049  10.376   5.365  0.1829  0.2522 -0.5113
19529SOL    HW160594   4.973  10.406   5.315 -1.5509 -1.5809  0.8596
19529SOL    HW260595   5.022  10.293   5.403  1.3961  1.3631  3.2756
19530SOL     OW60596   3.038   4.733   9.858 -0.3447  0.0458  0.2432
19530SOL    HW160597   2.982   4.684   9.799  0.9766  0.6570 -1.6120
19530SOL    HW260598   3.126   4.700   9.841  0.3181  1.6655  0.3605
19531SOL     OW60599   5.998   9.395   2.517  0.3332 -0.2104 -0.2650
19531SOL    HW160600   6.008   9.472   2.462  0.0908  0.7669  1.0111
19531SOL    HW260601   6.070   9.338   2.492  0.8035  0.6411 -0.8926
19532SOL     OW60602   6.824   8.820  10.311  0.6248  0.2470 -0.3623
19532SOL    HW160603   6.759   8.790  10.375  1.7167 -0.9400  0.2372
19532SOL    HW260604   6.786   8.900  10.275 -0.6831  0.1698  0.7269
19533SOL     OW60605   2.250  10.846   6.825 -0.1885  0.5346 -0.1363
19533SOL    HW160606   2.215  10.768   6.868  1.9113  0.0691  0.8096
19533SOL    HW260607   2.235  10.831   6.732 -0.4564 -0.6571  0.0849
19534SOL     OW60608   7.985   9.005   1.477 -0.1375  0.4620 -0.2715
19534SOL    HW160609   8.012   8.999   1.385  0.0407 -0.9972 -0.1457
19534SOL    HW260610   7.897   9.041   1.473 -0.0420  0.6403 -0.9994
19535SOL     OW60611  10.482   2.659   1.621  0.2182  0.3208  0.0792
19535SOL    HW160612  10.409   2.599   1.637  1.8529 -2.1584 -1.0970
19535SOL    HW260613  10.449   2.745   1.648 -2.1555 -1.1165  2.1824
19536SOL     OW60614   3.258   8.152   2.472  0.1389  0.4280 -0.0660
19536SOL    HW160615   3.275   8.062   2.498 -0.0170  0.5987  0.6461
19536SOL    HW260616   3.236   8.197   2.554  1.7294  1.4643 -0.1506
19537SOL     OW60617   3.714   7.572   7.176 -0.4317 -0.2341  0.3394
19537SOL    HW160618   3.769   7.523   7.115 -1.0394 -0.1816 -0.2613
19537SOL    HW260619   3.720   7.662   7.145  0.4483  0.0436  1.2671
19538SOL     OW60620   4.731   9.092   7.190  0.4774  0.5034  0.5939
19538SOL    HW160621   4.762   9.084   7.280 -0.8409 -0.4755  0.9872
19538SOL    HW260622   4.643   9.129   7.197 -0.1453 -0.7572 -0.1918
19539SOL     OW60623   4.201  10.649   4.435  0.1576 -0.4385 -0.1068
19539SOL    HW160624   4.131  10.660   4.371 -0.6448  3.4480  1.1573
19539SOL    HW260625   4.282  10.659   4.385 -0.4082  1.0000 -0.7669
19540SOL     OW60626   2.108   4.931   1.271 -0.4290  0.0269 -0.0816
19540SOL    HW160627   2.082   4.883   1.192 -1.1773  0.5316 -0.1613
19540SOL    HW260628   2.026   4.968   1.304  0.0639  0.8857  0.2104
19541SOL     OW60629   5.105  10.447   2.489 -0.5934 -0.4056  0.3194
19541SOL    HW160630   5.176  10.510   2.502 -1.0255 -0.0333  0.8938
19541SOL    HW260631   5.150  10.367   2.459 -0.0982  0.3292 -0.9735
19542SOL     OW60632   1.823   7.016   5.219 -0.1574 -0.3005 -0.3406
19542SOL    HW160633   1.756   6.947   5.225 -0.1574 -0.1574  1.6334
19542SOL    HW260634   1.897   6.973   5.176 -0.7425 -1.0473 -0.6353
19543SOL     OW60635   4.890   8.408   4.157  0.1812 -0.2174 -0.1551
19543SOL    HW160636   4.821   8.374   4.214 -1.4269  1.9258 -0.6766
19543SOL    HW260637   4.947   8.458   4.215 -0.6601  0.7960 -0.1664
19544SOL     OW60638   7.857   0.555   8.238  0.2640 -0.0718  0.2172
19544SOL    HW160639   7.787   0.587   8.180  0.9047 -2.1783 -1.8530
19544SOL    HW260640   7.882   0.471   8.201  2.0688 -0.6274  2.5118
19545SOL     OW60641   6.042   2.639   0.355 -0.1119 -0.0375 -0.0347
19545SOL    HW160642   5.956   2.619   0.394 -0.4185 -0.1693 -0.7575
19545SOL    HW260643   6.105   2.618   0.424 -0.5780 -1.1967  0.0685
19546SOL     OW60644   3.623   8.906   3.780  0.5748 -0.6568  0.2669
19546SOL    HW160645   3.628   8.846   3.854 -0.1051 -0.4029  0.5248
19546SOL    HW260646   3.705   8.956   3.783  1.7545 -2.4303 -0.7197
19547SOL     OW60647   8.758  10.813   6.112 -0.1239  0.1179 -0.5895
19547SOL    HW160648   8.778  10.833   6.204 -1.0956  1.2816 -0.6057
19547SOL    HW260649   8.775  10.719   6.104 -0.1716 -0.0354  0.8328
19548SOL     OW60650   2.741   5.220   0.574 -0.2876  0.1962  0.2839
19548SOL    HW160651   2.783   5.135   0.558  0.2154  0.5897 -0.5194
19548SOL    HW260652   2.647   5.202   0.565 -0.2578 -0.4986  1.1978
19549SOL     OW60653   8.131   5.466   1.906 -0.1370 -0.2878 -0.4080
19549SOL    HW160654   8.186   5.391   1.884 -0.9049 -1.4028  1.2506
19549SOL    HW260655   8.179   5.513   1.974  1.2686  1.9589 -2.7655
19550SOL     OW60656   2.630   0.146   1.880  0.7643 -0.0331  0.4981
19550SOL    HW160657   2.720   0.144   1.847  0.4092 -0.8219 -0.4631
19550SOL    HW260658   2.617   0.237   1.907  1.8164  0.1121  0.5594
19551SOL     OW60659   8.045   5.783   1.836  0.6762  0.4520  0.2710
19551SOL    HW160660   8.102   5.805   1.763  1.1281  0.0239  0.4853
19551SOL    HW260661   8.062   5.690   1.852 -1.6556 -0.2828 -1.0506
19552SOL     OW60662  10.157   8.356   9.158 -0.4196 -0.3860 -0.2735
19552SOL    HW160663  10.174   8.280   9.103  1.6491 -0.3048  0.1514
19552SOL    HW260664  10.210   8.426   9.119 -2.4074  0.9198 -0.7505
19553SOL     OW60665   4.633   6.930   2.977 -0.3344  0.7429 -0.7267
19553SOL    HW160666   4.672   6.928   2.890  2.0876  2.5374  0.1968
19553SOL    HW260667   4.580   7.009   2.979  1.3077  1.8693  0.0179
19554SOL     OW60668   7.776   9.736   4.675 -0.2403 -0.3819 -0.1200
19554SOL    HW160669   7.809   9.794   4.744  0.3391 -0.2399 -0.5104
19554SOL    HW260670   7.770   9.650   4.717  0.5331 -0.3878 -0.0084
19555SOL     OW60671   0.105   0.678   6.210 -0.2360 -0.5411 -0.2364
19555SOL    HW160672   0.129   0.746   6.147 -0.8517  0.3077  0.4032
19555SOL    HW260673   0.073   0.605   6.157 -0.7677  0.1601 -0.9096
19556SOL     OW60674   0.746   2.019  10.625  0.3993  0.0764 -0.3921
19556SOL    HW160675   0.815   2.041  10.562  0.3604 -0.6024 -0.6756
19556SOL    HW260676   0.782   1.946  10.675 -0.9873 -1.9087 -2.1044
19557SOL     OW60677   9.230   4.206   4.995 -0.4141 -0.1400  0.4552
19557SOL    HW160678   9.201   4.164   4.914  2.1737  0.4152 -0.8422
19557SOL    HW260679   9.273   4.137   5.045  0.7913  0.1687 -0.1205
19558SOL     OW60680   7.680   8.022   3.338  0.4319 -0.3346  0.0892
19558SOL    HW160681   7.672   7.927   3.328  1.0060 -0.6239  1.9820
19558SOL    HW260682   7.663   8.057   3.250 -1.5785 -2.0473 -0.2832
19559SOL     OW60683   4.005   6.766   2.625 -0.3948  0.4219  0.2277
19559SOL    HW160684   4.027   6.728   2.710  0.2842  1.3019  0.4519
19559SOL    HW260685   4.056   6.846   2.620 -1.4697  1.0883 -0.4365
19560SOL     OW60686   4.980   9.666   7.207 -0.0056 -0.4051  0.1992
19560SOL    HW160687   4.916   9.605   7.171  1.4225 -1.3534 -0.8328
19560SOL    HW260688   5.022   9.618   7.278  0.6933 -0.4176 -0.2109
19561SOL     OW60689   9.035  10.807   3.101  0.5074 -0.1811  0.0413
19561SOL    HW160690   8.953  10.762   3.082  0.1295  0.7365 -0.5757
19561SOL    HW260691   9.029  10.889   3.051  1.7744 -0.0831  0.0344
19562SOL     OW60692   5.710   8.752   0.364  0.0365 -0.8469 -0.3681
19562SOL    HW160693   5.743   8.751   0.274  2.0298  1.0675  0.2281
19562SOL    HW260694   5.616   8.767   0.355  0.3355  0.3943 -2.1598
19563SOL     OW60695   1.780   8.024   3.776  0.1561 -0.6721  0.0080
19563SOL    HW160696   1.762   7.965   3.703 -2.0588 -1.1225  0.8489
19563SOL    HW260697   1.827   8.098   3.736  0.2713 -1.5723 -1.6011
19564SOL     OW60698   0.704   2.618   9.007  0.3609 -0.2219  0.9556
19564SOL    HW160699   0.614   2.629   9.035  0.5157 -0.7653  1.7024
19564SOL    HW260700   0.750   2.694   9.045  0.1274  0.3625  0.1008
19565SOL     OW60701   4.975   8.052  10.480 -0.1347 -0.1740 -0.7475
19565SOL    HW160702   4.902   8.043  10.418 -0.6745  0.3080 -0.1901
19565SOL    HW260703   4.933   8.060  10.565  0.5806  0.0081 -0.4056
19566SOL     OW60704   3.615   9.560   8.550 -0.2678 -0.0573 -0.7513
19566SOL    HW160705   3.674   9.586   8.479 -0.1952 -0.6512 -0.9082
19566SOL    HW260706   3.621   9.465   8.553 -0.4542 -0.0512 -0.1010
19567SOL     OW60707   4.029   2.985   8.766  0.0008  0.5188  0.3437
19567SOL    HW160708   4.084   2.929   8.821 -1.4880  0.8268  2.2822
19567SOL    HW260709   3.964   2.926   8.730  0.5417  0.4401 -0.5185
19568SOL     OW60710   7.359   7.889   1.592 -0.1627  0.9796 -0.3548
19568SOL    HW160711   7.328   7.847   1.511 -0.8434  0.5942  0.0957
19568SOL    HW260712   7.300   7.856   1.660  2.4982 -1.5290  0.9526
19569SOL     OW60713   2.817   8.169   0.637  0.0562  0.5001 -0.2277
19569SOL    HW160714   2.729   8.141   0.613  0.4903 -0.9490 -0.2215
19569SOL    HW260715   2.867   8.162   0.556  0.1243  1.5271 -0.2811
19570SOL     OW60716   8.791   4.125  10.554  0.4356 -0.6046  0.5806
19570SOL    HW160717   8.696   4.121  10.544  0.6208 -1.5075 -1.2304
19570SOL    HW260718   8.814   4.044  10.600  0.2110  0.4001  2.5509
19571SOL     OW60719   1.621   1.951   5.252  0.2669 -0.3319 -0.2727
19571SOL    HW160720   1.551   2.000   5.210  1.7329  0.2882 -2.1223
19571SOL    HW260721   1.592   1.939   5.342 -2.4867 -0.7014 -1.1344
19572SOL     OW60722   8.576   4.752   3.279 -0.3396 -0.1911  0.0292
19572SOL    HW160723   8.632   4.796   3.215  0.2744  0.0328  0.7142
19572SOL    HW260724   8.606   4.661   3.278  0.0152 -0.0792  0.3687
19573SOL     OW60725   1.455   6.088   8.358 -0.5513 -0.4083 -0.1727
19573SOL    HW160726   1.509   6.093   8.437  0.4811 -0.5658 -0.8605
19573SOL    HW260727   1.426   5.997   8.354  0.4844 -0.7244 -0.6812
19574SOL     OW60728   0.591   5.233   1.864  0.1360  0.2474  0.3664
19574SOL    HW160729   0.570   5.326   1.856 -1.6580  0.0237  1.7149
19574SOL    HW260730   0.622   5.223   1.954  1.2641 -0.3128 -0.0697
19575SOL     OW60731  10.100   4.609   0.887  0.0613  0.2633 -0.4202
19575SOL    HW160732  10.137   4.616   0.799  1.6700  0.2646  0.2240
19575SOL    HW260733  10.008   4.587   0.873  0.4628 -0.4890 -2.0952
19576SOL     OW60734   2.571   1.714   7.679  0.0894  0.0521 -0.0879
19576SOL    HW160735   2.582   1.753   7.766  0.5404  0.0588 -0.1432
19576SOL    HW260736   2.538   1.626   7.696  0.1518  0.0626  0.0898
19577SOL     OW60737   4.004   8.724  10.732  0.0331 -0.1515 -0.1878
19577SOL    HW160738   3.931   8.678  10.773 -0.1473  0.7639  0.5787
19577SOL    HW260739   3.963   8.778  10.664  0.1603 -0.6357 -0.6483
19578SOL     OW60740   5.569   8.315   0.294 -0.3443 -0.1932 -0.3616
19578SOL    HW160741   5.539   8.370   0.367  0.2495  1.8875 -1.6243
19578SOL    HW260742   5.490   8.301   0.241 -0.3266  0.1880 -0.4921
19579SOL     OW60743   9.529   4.673   1.703 -0.1899 -0.1458  0.1342
19579SOL    HW160744   9.553   4.606   1.767  0.6431 -0.4100 -0.4304
19579SOL    HW260745   9.528   4.627   1.619  1.0385  0.6509 -0.3580
19580SOL     OW60746   4.168   8.387   4.058 -0.0475 -0.1286 -0.9172
19580SOL    HW160747   4.187   8.421   4.145  0.0505  0.8660 -1.3128
19580SOL    HW260748   4.110   8.313   4.073 -1.8485  1.3700 -0.1022
19581SOL     OW60749  10.618  10.690   3.880  0.1381  0.5146 -0.0711
19581SOL    HW160750  10.688  10.626   3.868 -1.1675 -1.4147  1.8074
19581SOL    HW260751  10.587  10.708   3.791  0.3159 -1.7905 -0.6573
19582SOL     OW60752   5.869   2.509  10.197  0.1873 -0.3118 -0.3926
19582SOL    HW160753   5.798   2.561  10.233  2.2405  1.8274  0.8487
19582SOL    HW260754   5.891   2.552  10.114  3.1458  2.3362  1.4987
19583SOL     OW60755   3.495   9.194   9.213 -0.0132 -0.2230 -0.6397
19583SOL    HW160756   3.428   9.166   9.151  0.3923 -0.6517 -0.8899
19583SOL    HW260757   3.542   9.114   9.237  1.7928  0.3262 -2.1000
19584SOL     OW60758   7.025   1.174  10.427  0.5064 -0.5612 -0.0432
19584SOL    HW160759   7.039   1.263  10.396  2.0985 -0.7091  0.1870
19584SOL    HW260760   6.930   1.161  10.422  0.2532  1.1514 -0.0230
19585SOL     OW60761   3.964   7.384   4.761  0.6245  0.3009 -0.7529
19585SOL    HW160762   4.036   7.420   4.709  1.3023  0.0486 -0.0169
19585SOL    HW260763   3.931   7.458   4.811  0.3944  0.4073 -1.0572
19586SOL     OW60764   2.217   8.507   0.604  0.0047  0.5333 -0.0129
19586SOL    HW160765   2.251   8.489   0.516  0.3443  0.7098  0.0809
19586SOL    HW260766   2.148   8.572   0.590 -1.3983 -0.9485 -0.3851
19587SOL     OW60767   5.597   8.013  11.073 -0.0458 -0.6919 -0.0972
19587SOL    HW160768   5.620   8.062  10.994 -0.4035  0.0451  0.2509
19587SOL    HW260769   5.644   8.057  11.143 -0.4567 -0.7729  0.2354
19588SOL     OW60770   0.994   5.060   5.953 -0.2186 -0.5347  0.4441
19588SOL    HW160771   0.942   5.099   6.024  0.1201 -0.8713  0.8799
19588SOL    HW260772   1.042   4.988   5.995 -0.3629 -1.0265 -0.2210
19589SOL     OW60773   9.532   9.663   9.431  0.6166 -0.3239  0.1427
19589SOL    HW160774   9.618   9.668   9.472  1.2043  0.9031 -1.1721
19589SOL    HW260775   9.471   9.652   9.504  1.9299 -2.0275  1.0371
19590SOL     OW60776   4.544   0.455   2.048  0.0631  0.0444 -0.1285
19590SOL    HW160777   4.566   0.367   2.079 -1.5752 -0.0998  0.7386
19590SOL    HW260778   4.535   0.446   1.953 -0.1425 -0.7506 -0.0404
19591SOL     OW60779   4.084  10.106   7.219  0.7631  0.1869 -0.4798
19591SOL    HW160780   4.033  10.164   7.276 -0.4853 -0.6936 -0.6566
19591SOL    HW260781   4.100  10.158   7.140 -1.1207  0.0429 -1.0104
19592SOL     OW60782   8.748   7.417   6.561 -0.0581 -0.2590  0.4917
19592SOL    HW160783   8.801   7.345   6.595 -0.9245 -1.2107 -0.0774
19592SOL    HW260784   8.665   7.375   6.536 -0.3514  0.8280 -0.4580
19593SOL     OW60785   0.365   5.352   8.920 -0.1143 -0.0693 -0.0945
19593SOL    HW160786   0.429   5.359   8.990 -0.0436  1.6630 -0.2878
19593SOL    HW260787   0.411   5.385   8.843 -0.3118 -1.5976 -0.9082
19594SOL     OW60788   6.424  11.089  10.030  0.4655  0.0141  0.3493
19594SOL    HW160789   6.389  11.002  10.049 -0.5105 -0.2532 -2.2300
19594SOL    HW260790   6.486  11.106  10.101 -0.3775 -2.1477  1.7055
19595SOL     OW60791   3.812   8.990   9.489  0.3251 -0.2081 -0.2386
19595SOL    HW160792   3.833   9.050   9.417  0.1347 -0.9779 -0.9429
19595SOL    HW260793   3.871   9.017   9.559  0.2003  0.8459 -0.5173
19596SOL     OW60794   3.597   6.179   6.853 -0.5585  0.6773  0.1460
19596SOL    HW160795   3.647   6.251   6.890  0.0818  0.7179 -0.7588
19596SOL    HW260796   3.617   6.104   6.909  0.2867  0.7665 -0.0208
19597SOL     OW60797   3.673  10.651   0.482  0.0390  0.5202 -0.1049
19597SOL    HW160798   3.594  10.705   0.477 -0.0095  0.9195  2.9424
19597SOL    HW260799   3.741  10.710   0.514  0.6399 -0.5999  0.7711
19598SOL     OW60800   2.187   9.121   3.071  0.2374  0.2823  0.3326
19598SOL    HW160801   2.241   9.113   2.993  1.0359 -0.1090  0.9169
19598SOL    HW260802   2.188   9.215   3.091 -0.3133  0.4414 -0.3574
19599SOL     OW60803   4.996   7.900   1.021 -0.0139 -0.3432  0.1136
19599SOL    HW160804   5.026   7.844   0.950  1.4117 -0.0001  0.4088
19599SOL    HW260805   4.944   7.967   0.977  0.3156 -0.4993 -0.5406
19600SOL     OW60806   5.553  10.577   0.455  0.6997  0.3119  0.0090
19600SOL    HW160807   5.576  10.493   0.495  1.5638  1.5148  2.2378
19600SOL    HW260808   5.574  10.566   0.362 -0.8970 -2.4689 -0.1417
19601SOL     OW60809   3.578   3.066   0.423 -0.2424 -0.4686  0.2482
19601SOL    HW160810   3.516   3.066   0.351  0.4982 -3.1055 -0.4661
19601SOL    HW260811   3.540   3.007   0.488  0.0158  0.3986  1.2174
19602SOL     OW60812   7.398   9.045   9.160 -0.3801  0.5854  1.0988
19602SOL    HW160813   7.454   9.036   9.082 -0.2504  0.0448  1.2511
19602SOL    HW260814   7.323   9.096   9.129 -1.6513 -1.8106 -0.1070
19603SOL     OW60815   0.095   7.992   7.743 -0.2911  0.4432 -1.1174
19603SOL    HW160816   0.151   8.063   7.773 -0.0194  0.3550 -1.4078
19603SOL    HW260817   0.155   7.928   7.705 -0.6060  0.4554 -1.6529
19604SOL     OW60818   0.720   3.368   0.998 -0.1067  0.1262 -0.8245
19604SOL    HW160819   0.649   3.380   0.934 -0.3067 -1.5443 -0.9649
19604SOL    HW260820   0.707   3.279   1.031  0.3318  0.7498  1.1539
19605SOL     OW60821  10.771   5.332   2.033 -0.3044  0.0651 -0.0539
19605SOL    HW160822  10.847   5.315   1.977  0.7274  2.1850  0.5865
19605SOL    HW260823  10.711   5.382   1.978  0.2151  1.1753  0.3610
19606SOL     OW60824  10.354   4.034   3.873  0.0925 -0.0862 -0.4008
19606SOL    HW160825  10.380   4.123   3.897  0.2430 -0.2674  0.1018
19606SOL    HW260826  10.408   4.013   3.797  3.0478 -1.2493  1.8356
19607SOL     OW60827   9.623   9.248   6.433 -0.1309 -0.4309  0.0013
19607SOL    HW160828   9.534   9.223   6.455 -1.0938  1.7142 -1.1954
19607SOL    HW260829   9.669   9.250   6.518 -1.5639 -0.2690  0.8092
19608SOL     OW60830   5.775   1.231   8.843  0.2158  0.4128  0.1300
19608SOL    HW160831   5.793   1.299   8.908  0.5491 -0.5724  1.1082
19608SOL    HW260832   5.783   1.275   8.759 -0.0486  1.6833  0.7567
19609SOL     OW60833   3.660   7.674   4.983 -0.3719  0.4018 -0.6009
19609SOL    HW160834   3.615   7.594   4.956  0.3532  0.0392 -0.7649
19609SOL    HW260835   3.590   7.736   5.002 -0.9296  0.0150 -1.3401
19610SOL     OW60836   4.676   6.497   1.683  0.5041  0.0975  0.2772
19610SOL    HW160837   4.660   6.571   1.623 -2.0408  0.1950  0.9805
19610SOL    HW260838   4.700   6.425   1.625 -0.8803  0.4624 -0.7994
19611SOL     OW60839   6.436   8.009   2.828 -0.3706 -0.0776  0.3274
19611SOL    HW160840   6.465   8.091   2.788  0.0016 -0.2333  0.2702
19611SOL    HW260841   6.398   7.959   2.755  2.6876 -1.4696 -0.4689
19612SOL     OW60842   9.647  10.143   3.871 -0.0376 -0.2353 -0.1583
19612SOL    HW160843   9.559  10.174   3.892 -0.0376 -0.7855  0.6818
19612SOL    HW260844   9.690  10.220   3.832 -0.7771  0.1276 -0.2852
19613SOL     OW60845   7.954  10.492   0.275 -0.2438  0.0232 -0.4829
19613SOL    HW160846   7.859  10.490   0.287 -0.4100  1.5581 -1.2618
19613SOL    HW260847   7.989  10.509   0.363 -0.8153  1.0962 -0.4400
19614SOL     OW60848   0.160  10.952   9.478  0.1974 -0.7050  0.7802
19614SOL    HW160849   0.210  10.871   9.467 -0.5858 -1.2523  1.1597
19614SOL    HW260850   0.207  11.017   9.425  0.0184 -1.7517 -0.7101
19615SOL     OW60851   9.821   2.464  10.640 -0.0797  0.0337  0.6639
19615SOL    HW160852   9.813   2.411  10.561 -3.2999  1.1192  0.0822
19615SOL    HW260853   9.867   2.543  10.611  0.9537 -0.6207  0.4996
19616SOL     OW60854   3.497   3.423   3.718 -0.3679 -0.7948 -0.8566
19616SOL    HW160855   3.547   3.403   3.639 -2.6205 -2.6827 -1.9505
19616SOL    HW260856   3.405   3.418   3.689 -1.2375  0.9695  1.3418
19617SOL     OW60857   2.677   4.983   9.234 -0.1124  0.0318 -0.2017
19617SOL    HW160858   2.723   4.909   9.194  1.0257  0.5827  0.0461
19617SOL    HW260859   2.627   4.944   9.305 -0.9365 -0.7363 -1.1736
19618SOL     OW60860   7.222   5.583   4.151 -0.2639  0.1455  0.2080
19618SOL    HW160861   7.131   5.598   4.125 -0.3219  0.1587  0.4145
19618SOL    HW260862   7.255   5.671   4.173 -0.5708 -0.0033  1.3162
19619SOL     OW60863   1.781   1.896  10.459 -0.6940 -0.1746 -0.3843
19619SOL    HW160864   1.795   1.814  10.412 -0.5484  0.0533 -0.7426
19619SOL    HW260865   1.710   1.940  10.412 -1.9263 -0.8405  0.7960
19620SOL     OW60866   5.496   9.163   8.820  0.1116  0.1128 -0.6235
19620SOL    HW160867   5.565   9.216   8.861 -1.1048  1.7625 -0.5786
19620SOL    HW260868   5.456   9.116   8.893  0.3032  0.2297 -0.4424
19621SOL     OW60869   3.473   0.884   0.527 -0.0341  0.4072 -0.2579
19621SOL    HW160870   3.529   0.950   0.569 -0.7234  0.9038 -0.0854
19621SOL    HW260871   3.485   0.805   0.579  1.6299  0.0534 -1.0977
19622SOL     OW60872   5.141   8.368   9.881 -0.3530  0.3013 -0.4497
19622SOL    HW160873   5.067   8.407   9.834  1.1160 -0.1591 -3.3549
19622SOL    HW260874   5.190   8.443   9.915 -0.8100  0.7255 -0.7062
19623SOL     OW60875   6.789   6.420   0.230  0.2389 -0.4430 -0.3109
19623SOL    HW160876   6.861   6.364   0.258  0.5668  1.2602  2.6892
19623SOL    HW260877   6.710   6.374   0.260  0.2466 -1.0042 -1.1359
19624SOL     OW60878   4.186   8.382   3.106  0.2681 -0.3208  1.0267
19624SOL    HW160879   4.255   8.346   3.161  1.7242 -0.7635 -1.0004
19624SOL    HW260880   4.142   8.306   3.069  1.4616 -0.1167 -0.9606
19625SOL     OW60881   8.510   7.154   7.566 -0.8880 -0.2384 -0.5909
19625SOL    HW160882   8.475   7.228   7.616  0.9088 -0.2485  0.8267
19625SOL    HW260883   8.435   7.097   7.549 -2.1649  1.5107 -1.0239
19626SOL     OW60884   7.467   9.686  11.044  0.0122 -0.4588  0.2526
19626SOL    HW160885   7.402   9.723  11.104  0.1016  0.1429 -0.0219
19626SOL    HW260886   7.466   9.592  11.065  0.6699 -0.1571  1.7937
19627SOL     OW60887   8.693   8.260   6.645 -0.0541  0.2546 -0.7488
19627SOL    HW160888   8.672   8.168   6.662 -1.4985  0.4471 -1.3294
19627SOL    HW260889   8.787   8.261   6.629  0.2690 -0.8642  0.8897
19628SOL     OW60890   1.989   4.234   1.825  0.2590  0.3468  0.2939
19628SOL    HW160891   2.001   4.262   1.735  0.9809 -0.6956  0.0458
19628SOL    HW260892   1.978   4.315   1.875 -1.3795  0.9013 -0.8790
19629SOL     OW60893   7.703   7.624  10.916 -0.3987  0.2022  0.8528
19629SOL    HW160894   7.730   7.532  10.911 -3.5479 -0.8404  1.1457
19629SOL    HW260895   7.705   7.645  11.009  3.2151  1.5276  0.6390
19630SOL     OW60896   6.379   1.613  10.188 -0.3383 -0.0325  0.1039
19630SOL    HW160897   6.348   1.573  10.269  0.7596  0.7759  0.9626
19630SOL    HW260898   6.441   1.550  10.152  0.6202  0.4124  0.9223
19631SOL     OW60899   4.345   7.629   0.163 -0.3557 -0.8041 -0.4157
19631SOL    HW160900   4.440   7.631   0.157 -0.4334 -0.5634 -1.9647
19631SOL    HW260901   4.321   7.714   0.200  0.0988 -1.6666  2.0592
19632SOL     OW60902   9.038   2.813   2.314  0.1671 -0.4306  0.2395
19632SOL    HW160903   9.014   2.903   2.289  1.0788 -0.5296 -1.1146
19632SOL    HW260904   8.989   2.757   2.254  1.1578 -0.7395 -0.3150
19633SOL     OW60905   4.207   4.218   8.765 -0.1175 -0.0015  0.0531
19633SOL    HW160906   4.203   4.200   8.859 -0.6573 -0.6701 -0.0975
19633SOL    HW260907   4.142   4.287   8.751 -0.9198 -0.7686 -0.0287
19634SOL     OW60908   4.121   8.372   1.894 -0.2681 -0.0457  0.1813
19634SOL    HW160909   4.171   8.386   1.814 -1.1428  0.0884 -0.3560
19634SOL    HW260910   4.182   8.390   1.965  0.1057  1.2774 -0.4611
19635SOL     OW60911   8.190  10.438   1.292  0.0353  0.0702  0.4154
19635SOL    HW160912   8.199  10.349   1.257  1.1353 -0.0225  0.8973
19635SOL    HW260913   8.096  10.455   1.290 -0.2069 -1.1788  0.5030
19636SOL     OW60914   8.590   5.488  10.530 -0.6285  0.1079  0.1475
19636SOL    HW160915   8.658   5.556  10.533  0.1006 -0.6407  1.3016
19636SOL    HW260916   8.556   5.493  10.440 -0.0184  1.4293 -0.0421
19637SOL     OW60917   6.587   6.917   8.069  0.5219  0.0430  0.4570
19637SOL    HW160918   6.617   6.866   8.145 -0.2569  0.2495  0.9178
19637SOL    HW260919   6.509   6.963   8.101  1.2174  1.5447  0.0558
19638SOL     OW60920   8.212   5.147   8.031  0.0352 -0.0547  0.4979
19638SOL    HW160921   8.246   5.086   8.097 -0.4747 -0.3203  0.5191
19638SOL    HW260922   8.140   5.192   8.075 -0.3881 -0.3187  0.0859
19639SOL     OW60923   1.627   2.955   2.252 -0.2015  0.2668 -0.5039
19639SOL    HW160924   1.605   2.967   2.345  1.2802  1.3284 -0.2480
19639SOL    HW260925   1.638   2.860   2.243 -0.4819  0.1347  0.3879
19640SOL     OW60926   2.751   4.283   8.831 -0.0145 -0.0748 -0.1628
19640SOL    HW160927   2.762   4.363   8.883 -0.8593 -1.0196  1.5578
19640SOL    HW260928   2.752   4.314   8.740  0.7003  1.7507  0.4048
19641SOL     OW60929   9.505   7.594  10.058  0.1949 -0.1656  0.1330
19641SOL    HW160930   9.467   7.507  10.040 -1.5723  0.2773  1.4491
19641SOL    HW260931   9.588   7.575  10.101 -0.8222 -1.2830  1.7376
19642SOL     OW60932   2.676   9.646   3.080  0.3031 -0.5432 -0.0367
19642SOL    HW160933   2.731   9.584   3.031 -1.8590 -2.1191 -0.6223
19642SOL    HW260934   2.635   9.592   3.148 -0.7935  0.4929  0.1523
19643SOL     OW60935   6.161   8.713   6.036  0.0722 -0.5051 -0.4486
19643SOL    HW160936   6.132   8.801   6.013  1.1933  0.1667  0.5987
19643SOL    HW260937   6.186   8.674   5.952  3.0439  1.5049 -0.6327
19644SOL     OW60938   7.211   8.552   4.661  0.4895  0.2106 -0.2039
19644SOL    HW160939   7.130   8.541   4.611 -0.4863  0.1818  1.3168
19644SOL    HW260940   7.214   8.646   4.681  0.1825  0.0300  0.7540
19645SOL     OW60941   8.495   6.561   9.467  0.0767  0.1941 -0.3456
19645SOL    HW160942   8.426   6.519   9.518  0.1903 -1.2712 -1.3573
19645SOL    HW260943   8.551   6.489   9.438  1.5862  1.2684 -0.2243
19646SOL     OW60944   4.501   4.958   4.353  0.0812  0.2048 -0.0128
19646SOL    HW160945   4.571   4.893   4.364 -0.4403 -0.3361  0.1680
19646SOL    HW260946   4.536   5.021   4.290  0.2657 -0.7134 -0.8398
19647SOL     OW60947   7.449   9.523   1.004 -0.1962  0.3179 -0.5167
19647SOL    HW160948   7.367   9.474   1.005 -0.3417  0.4898  1.6388
19647SOL    HW260949   7.516   9.458   0.985 -0.4879 -0.6064  1.3562
19648SOL     OW60950   6.997   8.009   0.833  0.2673  0.2970 -0.4941
19648SOL    HW160951   7.012   8.097   0.869  0.0325  0.4322 -0.7163
19648SOL    HW260952   6.925   7.973   0.885  0.3882  0.2236 -0.3791
19649SOL     OW60953   1.244  10.807   8.581 -0.6200  0.1838 -0.5162
19649SOL    HW160954   1.319  10.818   8.640  0.6120 -0.6464 -1.8637
19649SOL    HW260955   1.170  10.845   8.629  0.4808  0.2547  1.2087
19650SOL     OW60956   2.042   7.564   5.256 -0.2724  0.0742 -0.0981
19650SOL    HW160957   2.114   7.501   5.245 -1.0684 -0.4514 -3.0910
19650SOL    HW260958   1.963   7.515   5.233 -1.1215  1.6767 -0.7725
19651SOL     OW60959   0.310   8.407   1.255 -0.0363  0.0225 -0.2373
19651SOL    HW160960   0.360   8.373   1.180  0.1847 -0.1833  0.0021
19651SOL    HW260961   0.239   8.344   1.267  0.5770 -0.5561  0.4279
19652SOL     OW60962   2.627   7.110   9.943  0.1595 -0.2593  0.5799
19652SOL    HW160963   2.547   7.060   9.931  1.1480 -2.0875  1.1342
19652SOL    HW260964   2.697   7.044   9.936  1.7426  1.5075 -1.6479
19653SOL     OW60965   3.267   8.464   3.387  0.1587  0.8746  0.4743
19653SOL    HW160966   3.338   8.419   3.341 -0.2584  1.0517 -0.3502
19653SOL    HW260967   3.294   8.462   3.479 -0.0418 -1.4429  0.5456
19654SOL     OW60968   2.292   8.477  10.258 -0.1801 -0.1885 -0.5710
19654SOL    HW160969   2.264   8.389  10.231 -0.8472 -0.3935  0.6856
19654SOL    HW260970   2.238   8.536  10.207 -0.5453 -0.5385 -0.5979
19655SOL     OW60971   0.723  11.060   0.474  0.5403  0.1980 -0.1326
19655SOL    HW160972   0.784  11.010   0.529 -0.3419  0.5187  1.1787
19655SOL    HW260973   0.776  11.088   0.400  1.9335  0.2409  0.8333
19656SOL     OW60974   1.531   5.567   3.924 -0.6192  0.6063 -1.1617
19656SOL    HW160975   1.460   5.625   3.895 -0.8765  0.6534 -0.4593
19656SOL    HW260976   1.493   5.516   3.996 -0.8739 -1.5101 -2.6982
19657SOL     OW60977   6.110   1.292   8.432  0.3676 -0.5466  0.2118
19657SOL    HW160978   6.073   1.359   8.489 -2.0091 -1.5998  0.0293
19657SOL    HW260979   6.112   1.333   8.345  1.9444  0.3083  0.6067
19658SOL     OW60980   6.783   5.427  10.604 -0.0224  0.4865  0.3146
19658SOL    HW160981   6.781   5.412  10.509  4.1933  0.5838  0.0131
19658SOL    HW260982   6.789   5.522  10.613  1.5454  0.3946  0.4922
19659SOL     OW60983   8.421   9.176   4.522  0.0769 -0.1257 -0.8650
19659SOL    HW160984   8.391   9.167   4.431  1.1382  0.5842 -1.3070
19659SOL    HW260985   8.517   9.178   4.515  0.1766 -0.3171  0.3046
19660SOL     OW60986   5.129   1.382   6.164 -0.2000  0.0149 -0.1830
19660SOL    HW160987   5.078   1.302   6.163  1.4944 -1.1264 -0.0876
19660SOL    HW260988   5.097   1.433   6.090 -2.9383  0.3743  1.1451
19661SOL     OW60989   2.465   6.422   3.717  0.4797  0.3301  0.1012
19661SOL    HW160990   2.516   6.484   3.665  0.5143 -0.0171 -0.2821
19661SOL    HW260991   2.380   6.464   3.729  0.5043  0.4504 -0.1487
19662SOL     OW60992   4.932   0.872   3.315 -0.1359 -0.6265 -0.0722
19662SOL    HW160993   4.977   0.950   3.284 -1.7487  0.3280 -0.1088
19662SOL    HW260994   4.975   0.800   3.268 -0.6560  0.5169 -2.4365
19663SOL     OW60995   5.784   7.051  11.025  0.0412 -0.2644 -0.4369
19663SOL    HW160996   5.811   7.081  11.112  1.5456 -1.5868 -0.4045
19663SOL    HW260997   5.808   7.124  10.967 -0.6395  0.4816  0.1904
19664SOL     OW60998   0.546   5.907   4.449  0.5667 -0.0061 -1.2345
19664SOL    HW160999   0.641   5.895   4.453  0.7213  1.1134 -1.2845
19664SOL    HW261000   0.521   5.866   4.366  0.8834 -0.9652 -0.8761
19665SOL     OW61001   9.801   2.554   5.342  0.1310  0.0833  0.5922
19665SOL    HW161002   9.858   2.496   5.391 -0.0991 -2.0621 -1.4937
19665SOL    HW261003   9.845   2.566   5.258  0.4791  3.5528  1.1235
19666SOL     OW61004   1.721   8.957   1.127 -0.9329  0.2012  0.1316
19666SOL    HW161005   1.801   8.930   1.172 -1.0502  0.1695  0.3224
19666SOL    HW261006   1.732   8.924   1.037 -1.9526 -2.3172  0.8534
19667SOL     OW61007   7.480   1.570   9.643  0.4819  0.2076 -0.4922
19667SOL    HW161008   7.478   1.513   9.719  1.0351  2.2180  1.1415
19667SOL    HW261009   7.554   1.629   9.659  0.7280  0.5800 -2.6881
19668SOL     OW61010   4.029   3.199   1.902  0.3330 -0.4211 -0.0751
19668SOL    HW161011   3.959   3.164   1.847  1.6478 -0.7508 -1.6029
19668SOL    HW261012   3.994   3.282   1.934 -0.9440 -0.8156 -0.3872
19669SOL     OW61013   9.156   2.338   9.813 -0.0752  0.0640 -0.5169
19669SOL    HW161014   9.215   2.386   9.756  0.5071  0.8112  0.6649
19669SOL    HW261015   9.209   2.316   9.890 -0.8852 -0.7192 -0.1619
19670SOL     OW61016   3.581   8.916   2.507  0.4859  0.2210 -0.3078
19670SOL    HW161017   3.580   8.922   2.603 -1.2272  0.4915 -0.3199
19670SOL    HW261018   3.569   8.823   2.489  1.9210  0.0037 -0.2837
19671SOL     OW61019   0.595   5.241   2.157  0.5377 -0.4563 -0.5304
19671SOL    HW161020   0.565   5.325   2.193 -0.1770 -2.2083  3.4647
19671SOL    HW261021   0.515   5.188   2.151  1.4320 -2.0115  0.6793
19672SOL     OW61022   5.428   9.356   8.093 -0.6564 -0.4397  0.5482
19672SOL    HW161023   5.365   9.396   8.034 -0.9607 -0.9956  0.4862
19672SOL    HW261024   5.380   9.286   8.137  0.2586 -1.8663 -0.5944
19673SOL     OW61025   5.611   9.761  10.014  0.3212  0.4055  0.3123
19673SOL    HW161026   5.657   9.725  10.089  1.4788  2.6348  0.7599
19673SOL    HW261027   5.657   9.726   9.938 -0.1611 -0.9744  0.6223
19674SOL     OW61028   1.687   9.384   8.730 -0.4783 -0.2337 -0.0993
19674SOL    HW161029   1.777   9.353   8.733 -0.7411 -1.0458 -0.2451
19674SOL    HW261030   1.671   9.403   8.637 -0.5417 -0.3673 -0.1159
19675SOL     OW61031   6.071   6.835   5.387  0.7978  0.1126 -0.0436
19675SOL    HW161032   6.015   6.912   5.388 -0.2342 -0.6212 -0.1256
19675SOL    HW261033   6.135   6.851   5.457  0.8255  1.1870 -0.2981
19676SOL     OW61034   1.848   8.270   2.713 -0.4646  0.1829  0.0723
19676SOL    HW161035   1.787   8.328   2.668  1.4491  1.3450 -1.2149
19676SOL    HW261036   1.862   8.198   2.652 -1.4614 -0.7354  0.8984
19677SOL     OW61037   9.404   5.398   0.667 -0.3537  0.1248  0.0753
19677SOL    HW161038   9.314   5.365   0.666 -0.3509  0.1219 -0.2358
19677SOL    HW261039   9.421   5.424   0.576  0.4014 -1.0912 -0.1607
19678SOL     OW61040   1.817   6.341   6.970  0.3856 -0.3100  0.2709
19678SOL    HW161041   1.904   6.359   6.933  0.0818  0.8418  0.0957
19678SOL    HW261042   1.830   6.343   7.064  0.4574  0.4218  0.2535
19679SOL     OW61043   3.744   6.045   1.931 -0.2296  0.6816 -0.3067
19679SOL    HW161044   3.726   5.960   1.970 -0.4673  1.0750  0.4606
19679SOL    HW261045   3.684   6.050   1.856  1.8543 -1.0638 -2.2404
19680SOL     OW61046   6.350   7.984   1.491 -0.0799 -0.4776 -0.2304
19680SOL    HW161047   6.285   7.967   1.559 -0.1017 -0.8510 -0.3439
19680SOL    HW261048   6.370   8.078   1.500  1.6547 -0.9604  1.8234
19681SOL     OW61049  10.081   6.994   2.382  0.3282  0.0921  0.7961
19681SOL    HW161050  10.085   6.908   2.339  0.5476 -0.3168  1.6091
19681SOL    HW261051  10.032   6.978   2.463 -1.2475  1.1237  0.0857
19682SOL     OW61052   4.291   8.592   2.959  1.0692 -0.0805 -0.1812
19682SOL    HW161053   4.385   8.598   2.972  0.9395 -1.3785  1.7469
19682SOL    HW261054   4.261   8.532   3.028 -1.2974  1.0726 -0.1232
19683SOL     OW61055   4.138   1.181  10.958 -0.6309  0.7124  0.2471
19683SOL    HW161056   4.082   1.153  11.030  0.9404 -1.4209  0.7579
19683SOL    HW261057   4.225   1.190  10.998  0.2220 -0.2697 -1.2837
19684SOL     OW61058   4.770   8.689   5.104  0.1716 -0.4034 -0.1349
19684SOL    HW161059   4.708   8.753   5.069 -0.7171  0.0783  2.1609
19684SOL    HW261060   4.835   8.741   5.151  0.3420 -1.0970  0.4235
19685SOL     OW61061   0.016   5.428   4.995  0.3624  0.1526  0.0468
19685SOL    HW161062   0.016   5.487   5.070 -0.4141  0.6138 -0.3032
19685SOL    HW261063   0.012   5.486   4.919 -2.0952 -0.3282 -0.2741
19686SOL     OW61064   3.463   6.481   4.419  0.0650 -0.0406 -0.0465
19686SOL    HW161065   3.498   6.403   4.463  0.9041  1.0825  1.3782
19686SOL    HW261066   3.370   6.462   4.406 -0.0960 -0.6590  1.7536
19687SOL     OW61067   2.308   5.438  10.974 -0.3865 -0.0575 -0.3920
19687SOL    HW161068   2.276   5.510  10.919 -1.8652 -0.7215 -0.4533
19687SOL    HW261069   2.317   5.476  11.061 -0.7339  0.3185 -0.5169
19688SOL     OW61070   4.036  10.657   1.838  0.4757  0.0197  0.7973
19688SOL    HW161071   3.974  10.588   1.813  0.3957  0.3097  0.1760
19688SOL    HW261072   4.108  10.610   1.878  0.3076 -0.4113  0.6087
19689SOL     OW61073   6.977  10.444   5.656  0.5520  0.3794  0.1417
19689SOL    HW161074   7.073  10.454   5.654  0.7341  0.4436  3.4807
19689SOL    HW261075   6.944  10.533   5.657  0.4614  0.3589 -0.6416
19690SOL     OW61076   7.025   9.559   2.800 -0.4646  0.4392  0.3958
19690SOL    HW161077   6.949   9.585   2.748 -0.1621 -0.1304 -0.3496
19690SOL    HW261078   6.993   9.488   2.856 -0.4010 -0.0778 -0.2047
19691SOL     OW61079   0.892   8.173   2.606 -0.1249  0.6352  0.4408
19691SOL    HW161080   0.822   8.157   2.668 -0.5003 -0.8406 -0.3151
19691SOL    HW261081   0.859   8.242   2.549 -1.1459 -0.3241 -0.1527
19692SOL     OW61082   2.720  10.747   2.186  0.1741  0.3408 -0.0767
19692SOL    HW161083   2.797  10.713   2.233  2.0354  0.7760 -2.6033
19692SOL    HW261084   2.647  10.730   2.245  2.0132 -1.3069  1.9115
19693SOL     OW61085   3.954   2.189   4.958 -0.2058 -0.1267 -0.6223
19693SOL    HW161086   3.942   2.156   5.047 -0.8189  0.2643 -0.5528
19693SOL    HW261087   4.048   2.205   4.951  0.0359 -1.3975 -0.4889
19694SOL     OW61088   5.301   8.591   3.095 -0.0733  0.2910  0.0380
19694SOL    HW161089   5.384   8.588   3.142 -0.2593  0.8063  0.4005
19694SOL    HW261090   5.322   8.559   3.007  0.1978 -1.0253  0.5645
19695SOL     OW61091  10.261   7.408   0.561  0.0118  0.0285 -0.1668
19695SOL    HW161092  10.323   7.344   0.597 -0.4029  0.3293  1.1281
19695SOL    HW261093  10.202   7.428   0.634 -0.7291  0.8326 -0.9627
19696SOL     OW61094   3.491   4.589  10.880 -0.0034 -0.1273 -0.1750
19696SOL    HW161095   3.432   4.543  10.939  1.3904 -1.4050  0.2665
19696SOL    HW261096   3.440   4.665  10.850 -2.1303 -1.5731 -0.4158
19697SOL     OW61097   9.463   2.029  10.700 -0.2903 -0.0770  0.0936
19697SOL    HW161098   9.441   2.082  10.624 -1.3875 -1.2919 -0.4658
19697SOL    HW261099   9.445   2.086  10.775  0.6057  1.0596 -0.5133
19698SOL     OW61100   4.056   4.947  10.066 -0.1071 -0.0225  0.4188
19698SOL    HW161101   4.139   4.905  10.087  0.4288  0.9366  0.2526
19698SOL    HW261102   4.033   4.913   9.980 -0.8419 -1.7101  1.2321
19699SOL     OW61103   5.648   4.610   6.115 -0.4224  0.0250 -0.3080
19699SOL    HW161104   5.582   4.542   6.127 -0.4722  0.3381  1.4394
19699SOL    HW261105   5.702   4.605   6.194  1.5719 -0.0996 -1.5964
19700SOL     OW61106   9.383   6.280   1.993  0.6447  0.4247  1.2191
19700SOL    HW161107   9.357   6.360   2.037 -0.2569  1.1198 -0.4700
19700SOL    HW261108   9.403   6.218   2.064 -1.4131  1.2398  2.5773
19701SOL     OW61109   3.585   2.165   3.382 -0.8010  0.7848  0.1129
19701SOL    HW161110   3.579   2.121   3.467 -0.5967 -0.1646 -0.3544
19701SOL    HW261111   3.675   2.149   3.353  0.0606  3.5215  0.9835
19702SOL     OW61112   8.900   6.118   1.120  0.7692  0.5669  0.0262
19702SOL    HW161113   8.867   6.199   1.081  1.5748  0.9330  0.0812
19702SOL    HW261114   8.833   6.053   1.100  0.3416  1.1357 -0.4475
19703SOL     OW61115   0.830   0.357   2.519  0.3573  0.2616  0.4253
19703SOL    HW161116   0.818   0.452   2.521  0.7405  0.3056  0.7941
19703SOL    HW261117   0.885   0.341   2.442 -1.4126  0.1228 -0.8781
19704SOL     OW61118   8.937   7.462   4.040 -0.4487  0.2710  0.2817
19704SOL    HW161119   8.967   7.408   4.112 -1.3443  1.3077  1.4752
19704SOL    HW261120   8.866   7.412   4.000 -0.0632 -0.2293  0.2106
19705SOL     OW61121   7.777   5.434   5.409  0.3945  0.3724  0.1462
19705SOL    HW161122   7.791   5.417   5.502 -1.8595  0.8496  0.6367
19705SOL    HW261123   7.815   5.358   5.365  0.7996 -0.2454  1.4957
19706SOL     OW61124   5.740   6.995   3.410 -0.0334  0.3114 -0.2302
19706SOL    HW161125   5.822   7.019   3.454 -0.3383  1.0396 -0.0310
19706SOL    HW261126   5.704   6.925   3.464 -0.0804  0.7450  0.3209
19707SOL     OW61127   5.005   9.190   8.931 -0.4176  0.0109  0.0861
19707SOL    HW161128   4.990   9.222   9.020 -0.1505 -2.3754  1.0649
19707SOL    HW261129   4.985   9.096   8.936  1.6285 -0.6059 -1.8556
19708SOL     OW61130   3.379   2.956   9.645 -0.5919 -0.0057 -0.1448
19708SOL    HW161131   3.406   2.999   9.564  0.3928 -0.2123  0.0653
19708SOL    HW261132   3.298   2.911   9.622  0.0870 -0.7130 -1.2376
19709SOL     OW61133   7.018   6.079   8.344 -0.4432  0.1145 -0.3434
19709SOL    HW161134   6.950   6.074   8.411 -1.9107 -0.5254 -1.8218
19709SOL    HW261135   7.023   6.172   8.321  0.1692  0.3590  0.7169
19710SOL     OW61136   3.888   8.013   1.455 -0.2628  0.1268  0.1464
19710SOL    HW161137   3.897   7.940   1.516 -1.6017 -0.6283 -0.5293
19710SOL    HW261138   3.793   8.030   1.451 -0.1152  0.8087 -0.9673
19711SOL     OW61139   4.947   0.485  10.819 -0.0672 -0.2750  1.0799
19711SOL    HW161140   4.965   0.570  10.777  0.3206  0.0635  1.9109
19711SOL    HW261141   4.851   0.477  10.817 -0.0478 -0.4202 -0.1447
19712SOL     OW61142   9.433   9.124   0.806  0.0828 -0.2959  0.1711
19712SOL    HW161143   9.514   9.155   0.847  1.2038 -2.4455 -0.2597
19712SOL    HW261144   9.391   9.071   0.874  0.6477 -1.7377 -0.5583
19713SOL     OW61145   3.991  10.195   2.609  0.2489 -0.1503  0.3429
19713SOL    HW161146   4.069  10.244   2.635  0.6510 -0.5057 -0.1773
19713SOL    HW261147   4.022  10.132   2.544 -0.4892 -0.2463  0.0715
19714SOL     OW61148   3.546   1.871   4.642 -0.2575  0.4462  0.0096
19714SOL    HW161149   3.610   1.883   4.571 -1.5396  1.3731 -1.0331
19714SOL    HW261150   3.566   1.941   4.704 -0.4001  0.8736 -0.4244
19715SOL     OW61151   0.516   1.878   8.088  0.1422 -0.7331  0.2907
19715SOL    HW161152   0.610   1.863   8.081  0.0917 -0.3847 -1.5562
19715SOL    HW261153   0.487   1.813   8.152  1.8966  0.4582  2.4217
19716SOL     OW61154   0.292   6.932   3.557  0.1673 -0.2078  0.2838
19716SOL    HW161155   0.352   6.858   3.560 -1.1496 -1.3568 -0.3945
19716SOL    HW261156   0.211   6.898   3.596 -1.0250  0.2996 -1.6235
19717SOL     OW61157   5.713   6.064   7.360 -0.0665  0.0744  0.3568
19717SOL    HW161158   5.684   6.145   7.402 -2.2715 -0.6682  0.3959
19717SOL    HW261159   5.767   6.020   7.426  1.0966  1.4150  0.3662
19718SOL     OW61160   1.411   4.001   9.446 -0.3028  0.0368  0.1005
19718SOL    HW161161   1.357   3.952   9.508 -0.1883 -1.1266 -0.6846
19718SOL    HW261162   1.372   4.088   9.444 -1.6403 -0.5354  0.1836
19719SOL     OW61163   9.469   8.278  10.422  0.1639  0.0826 -0.2587
19719SOL    HW161164   9.378   8.249  10.419 -0.1633  0.8000  1.3473
19719SOL    HW261165   9.521   8.198  10.426 -0.4408 -0.3246 -0.5516
19720SOL     OW61166   6.709   6.782   1.963  0.4408 -0.7833  0.1259
19720SOL    HW161167   6.622   6.775   1.924 -0.1234 -0.0115  1.1847
19720SOL    HW261168   6.697   6.840   2.039  2.1102  0.3240 -0.3862
19721SOL     OW61169   3.558  10.483   0.978  0.1950 -0.0033  0.6919
19721SOL    HW161170   3.556  10.466   0.884  0.7728  0.4471  0.5952
19721SOL    HW261171   3.512  10.566   0.988 -2.3981 -1.3625  1.1374
19722SOL     OW61172   0.252   1.324   9.553 -0.3023 -0.1240 -0.3844
19722SOL    HW161173   0.321   1.278   9.504  2.8326  0.8703  2.6329
19722SOL    HW261174   0.195   1.254   9.586  0.7228 -1.2681 -0.9548
19723SOL     OW61175   2.132   6.221   2.346  0.0618  0.3524  0.0582
19723SOL    HW161176   2.073   6.149   2.370  0.2874  0.3800  0.7217
19723SOL    HW261177   2.084   6.300   2.369 -0.0111  0.4061 -0.2697
19724SOL     OW61178   6.489   0.039   2.175  0.2518 -0.1526  0.1329
19724SOL    HW161179   6.531  -0.047   2.170 -1.2346 -0.8635 -0.8817
19724SOL    HW261180   6.403   0.021   2.214  0.6303  1.1888  1.7064
19725SOL     OW61181   7.687   7.969   2.698  0.0146 -0.4389  0.3383
19725SOL    HW161182   7.620   7.902   2.685  0.1445 -0.4779 -0.1611
19725SOL    HW261183   7.660   8.040   2.639  0.1730 -0.2782  0.4602
19726SOL     OW61184   0.033   7.039   1.710  0.1296  0.7470 -0.1415
19726SOL    HW161185   0.020   7.021   1.803  0.5705  1.9136  0.1530
19726SOL    HW261186   0.112   7.092   1.705  0.6161 -0.0350 -1.2688
19727SOL     OW61187   2.703   8.972  10.984 -0.0154  0.4085 -0.0193
19727SOL    HW161188   2.772   9.037  10.971 -0.2338  0.8494  0.8978
19727SOL    HW261189   2.745   8.901  11.033 -0.5016  1.3055  1.7902
19728SOL     OW61190   6.376   9.302   3.737 -0.2783  0.6684 -0.2362
19728SOL    HW161191   6.412   9.215   3.717  1.6092  1.4924 -0.6920
19728SOL    HW261192   6.312   9.287   3.806  1.0727 -0.9158  0.7341
19729SOL     OW61193   2.705   4.892   7.835  0.0391 -0.4555 -0.1410
19729SOL    HW161194   2.623   4.939   7.850  0.0550 -0.6603  0.6792
19729SOL    HW261195   2.761   4.954   7.789 -0.7091 -0.4467 -1.0720
19730SOL     OW61196   9.232   8.676   9.827 -0.3466  1.1231 -0.2368
19730SOL    HW161197   9.202   8.722   9.749 -1.6865 -1.1903 -1.1833
19730SOL    HW261198   9.315   8.637   9.801 -1.3290 -0.5921 -0.9750
19731SOL     OW61199  10.325   6.869  10.548  0.1144  0.8576 -0.0677
19731SOL    HW161200  10.368   6.785  10.533 -1.2260  0.0992  0.1364
19731SOL    HW261201  10.349   6.922  10.471 -0.6695 -0.4318 -1.2574
19732SOL     OW61202   7.978   4.468  10.307  0.7928  0.0716 -0.3213
19732SOL    HW161203   7.890   4.435  10.328  1.1828 -2.2187 -1.8967
19732SOL    HW261204   7.965   4.518  10.226  1.1856 -2.2266 -1.9017
19733SOL     OW61205   8.211  10.289   5.413 -0.4623 -0.2098 -0.5778
19733SOL    HW161206   8.277  10.351   5.381  0.8851 -1.8448 -1.1487
19733SOL    HW261207   8.217  10.294   5.508 -0.2361  0.3802 -0.6187
19734SOL     OW61208   7.624   6.391   2.680  0.3441  0.4975  0.0144
19734SOL    HW161209   7.653   6.362   2.767 -2.9389  0.0106  1.0924
19734SOL    HW261210   7.633   6.486   2.682  0.1312  0.5077  0.9974
19735SOL     OW61211   1.576   6.543   3.152 -0.6485  0.4385 -0.3373
19735SOL    HW161212   1.631   6.469   3.128 -0.2289  0.6215  0.0510
19735SOL    HW261213   1.499   6.502   3.194  0.1763  0.2590  1.0640
19736SOL     OW61214   4.230   1.156   2.204 -0.1912  0.1814 -0.3399
19736SOL    HW161215   4.194   1.160   2.116  2.0329  0.3513 -1.3162
19736SOL    HW261216   4.252   1.247   2.225  2.3897 -0.1793 -1.0814
19737SOL     OW61217   2.332   3.377  10.140  0.4198 -0.2117 -0.3540
19737SOL    HW161218   2.272   3.343  10.206  1.5573 -0.2201  0.7072
19737SOL    HW261219   2.325   3.472  10.148  1.8369 -0.1931  1.0225
19738SOL     OW61220   3.757   4.487  11.020  0.1646  0.7461 -0.4093
19738SOL    HW161221   3.684   4.497  10.960 -0.3440  1.2725  0.2778
19738SOL    HW261222   3.729   4.532  11.100  0.9761  0.3940  0.0889
19739SOL     OW61223   8.192   0.717   7.344 -0.3218  0.2325 -0.0973
19739SOL    HW161224   8.105   0.681   7.363 -0.6140  0.5763 -0.7574
19739SOL    HW261225   8.203   0.788   7.408 -0.4621  0.0909  0.0849
19740SOL     OW61226   3.261   6.219   9.802 -0.4790 -0.0902 -0.4437
19740SOL    HW161227   3.280   6.149   9.740  1.8583 -1.0570  1.2040
19740SOL    HW261228   3.337   6.277   9.796 -1.4615  1.2347 -0.3685
19741SOL     OW61229   3.973   5.696   1.112 -0.4348 -0.1396 -0.0825
19741SOL    HW161230   4.002   5.677   1.201 -0.4845 -0.2078 -0.0810
19741SOL    HW261231   3.880   5.673   1.111 -0.2875 -0.7398 -0.3284
19742SOL     OW61232   6.601   8.130   7.553  1.0943  0.1072  0.3345
19742SOL    HW161233   6.616   8.038   7.537  1.8045  0.3114 -0.1904
19742SOL    HW261234   6.686   8.165   7.579  0.7006  0.4905  1.1756
19743SOL     OW61235   7.009   2.798   1.838  0.2365  0.0076  0.0092
19743SOL    HW161236   7.050   2.714   1.858 -0.7106 -0.8140 -1.3329
19743SOL    HW261237   7.000   2.841   1.923  1.1433 -1.0503  0.6675
19744SOL     OW61238   1.672   6.053   3.753 -0.1671  0.1479 -0.5685
19744SOL    HW161239   1.731   5.978   3.742 -0.9340 -0.3785 -1.2036
19744SOL    HW261240   1.608   6.024   3.817  0.1315  0.6419 -0.0419
19745SOL     OW61241   3.061   3.756   6.616 -0.3860 -0.3042  0.4042
19745SOL    HW161242   3.017   3.829   6.659 -0.4247  0.4905 -0.9147
19745SOL    HW261243   3.054   3.683   6.678 -0.0276  0.8981  1.9102
19746SOL     OW61244   9.118   1.942   6.003  0.1420 -0.1115  0.1303
19746SOL    HW161245   9.056   1.988   6.059  0.4106  0.9267 -0.4014
19746SOL    HW261246   9.138   2.004   5.933  0.9438 -0.8321 -0.2990
19747SOL     OW61247   4.918   7.694   7.095 -0.2757 -0.2250  0.0208
19747SOL    HW161248   4.830   7.729   7.113  0.3302  1.2604  0.1815
19747SOL    HW261249   4.908   7.648   7.011 -1.4375 -1.0173  0.5517
19748SOL     OW61250   4.325   2.022   0.496 -0.5797  0.2507 -0.6309
19748SOL    HW161251   4.420   2.034   0.492 -0.5567  1.9281  2.1143
19748SOL    HW261252   4.289   2.091   0.440 -0.2157 -0.5721 -1.9111
19749SOL     OW61253   3.071   2.924   4.643  0.1527 -0.2560 -0.0933
19749SOL    HW161254   3.137   2.875   4.693 -1.1116 -0.8575  1.0397
19749SOL    HW261255   3.090   2.903   4.552 -0.1589 -2.6579  0.3253
19750SOL     OW61256   2.987   7.825   6.357 -0.3894 -0.1801  0.2511
19750SOL    HW161257   2.947   7.742   6.333  0.3638 -0.4156 -0.2239
19750SOL    HW261258   3.065   7.801   6.407  0.1417  0.2160 -0.3673
19751SOL     OW61259   4.492   1.684  10.626  0.0946  0.1521  0.0633
19751SOL    HW161260   4.456   1.729  10.550 -0.3413 -1.3416 -0.6535
19751SOL    HW261261   4.587   1.684  10.611 -0.0266 -0.6170 -0.7847
19752SOL     OW61262   2.353   4.221   2.898  0.4832 -0.2865  0.2388
19752SOL    HW161263   2.403   4.208   2.979 -0.3113 -1.8074  0.5141
19752SOL    HW261264   2.265   4.189   2.918  0.0477  0.0918 -0.9810
19753SOL     OW61265   5.549   7.469   3.964  0.5829 -0.3948 -0.2114
19753SOL    HW161266   5.603   7.531   3.915  1.1587 -1.6159 -1.1652
19753SOL    HW261267   5.466   7.468   3.916  1.1332 -1.5598 -1.2019
19754SOL     OW61268   0.867   7.307   1.818  0.5936 -0.5436  0.3801
19754SOL    HW161269   0.870   7.399   1.793 -2.6275  0.1959  2.1675
19754SOL    HW261270   0.900   7.305   1.908  1.4022 -1.2977  0.0831
19755SOL     OW61271   3.121  11.005   2.287  1.2523 -0.8992 -0.8961
19755SOL    HW161272   3.197  10.959   2.252  2.0467 -1.6719  1.6322
19755SOL    HW261273   3.147  11.032   2.375 -1.3133 -1.0364  0.0010
19756SOL     OW61274   3.108   1.797   9.042  0.4456  0.5639 -0.6251
19756SOL    HW161275   3.192   1.822   9.004  0.2407 -1.7862 -2.9597
19756SOL    HW261276   3.113   1.702   9.051 -2.0247  0.3090 -1.0926
19757SOL     OW61277   1.084   5.589   3.568  0.2078 -0.0487 -0.9438
19757SOL    HW161278   1.090   5.675   3.610 -1.3885  0.5550 -1.8339
19757SOL    HW261279   1.164   5.582   3.517  0.4818  0.8109 -0.6581
19758SOL     OW61280   8.967   4.554   2.614 -0.3429 -0.3080 -0.1833
19758SOL    HW161281   8.899   4.582   2.676  2.4732  3.1553  1.7478
19758SOL    HW261282   8.944   4.597   2.532 -0.6395  0.6887  0.4020
19759SOL     OW61283   7.272   8.539   5.286 -0.1119  0.3959  0.3732
19759SOL    HW161284   7.336   8.473   5.261  0.1673  0.4456  0.9252
19759SOL    HW261285   7.190   8.491   5.296  0.2542 -0.0390  1.5687
19760SOL     OW61286   2.589   1.710  10.405  0.5064 -0.5127 -0.0160
19760SOL    HW161287   2.633   1.783  10.361  1.7180 -0.9176  0.4938
19760SOL    HW261288   2.561   1.746  10.489 -0.6110 -0.1228 -0.5248
19761SOL     OW61289   4.492   5.980   4.977  0.7588 -0.4950 -0.1293
19761SOL    HW161290   4.451   6.062   5.006  1.3084 -0.7946  1.5993
19761SOL    HW261291   4.517   5.997   4.886 -1.0174  0.5144 -0.4809
19762SOL     OW61292   3.661   2.967   6.222 -0.0992 -0.2849  0.8135
19762SOL    HW161293   3.755   2.968   6.242 -0.0538 -0.2729  0.6009
19762SOL    HW261294   3.630   3.052   6.252  0.1541  0.1189 -0.0361
19763SOL     OW61295   3.683   9.899   5.300 -0.2838 -0.3717 -0.1715
19763SOL    HW161296   3.717   9.968   5.243 -1.8488  0.4896 -0.1273
19763SOL    HW261297   3.601   9.872   5.258 -0.4594 -1.1331  0.6264
19764SOL     OW61298   5.582   8.384   3.169 -0.3110 -0.2571 -0.3395
19764SOL    HW161299   5.671   8.399   3.136 -0.3287  1.1279  0.1611
19764SOL    HW261300   5.527   8.384   3.090 -0.0719  0.7278 -0.5207
19765SOL     OW61301   8.274   4.121   0.480 -0.2062 -0.0528 -0.0350
19765SOL    HW161302   8.255   4.054   0.414 -0.4397  1.0939 -1.1762
19765SOL    HW261303   8.356   4.092   0.520 -0.3593 -1.0731 -0.4180
19766SOL     OW61304   3.144   4.255   2.721 -0.0529  1.0765 -0.4194
19766SOL    HW161305   3.169   4.195   2.791 -0.2551 -0.2133 -1.4097
19766SOL    HW261306   3.049   4.257   2.722 -0.0446  1.6073 -0.2193
19767SOL     OW61307   5.508   5.207   9.169  0.3804  0.7571 -0.4327
19767SOL    HW161308   5.490   5.266   9.095 -2.4569  0.8303  0.1759
19767SOL    HW261309   5.468   5.252   9.244  2.8137  0.4851  1.1273
19768SOL     OW61310   5.268   1.492   7.162  0.3777 -0.4400  0.3233
19768SOL    HW161311   5.308   1.428   7.103  2.0206 -0.0582  0.9733
19768SOL    HW261312   5.304   1.576   7.134 -1.4736  0.2166 -0.2909
19769SOL     OW61313   7.025   8.319   2.542  0.4099  0.4111  0.5413
19769SOL    HW161314   6.933   8.342   2.536  0.1924 -0.6811 -0.9417
19769SOL    HW261315   7.031   8.233   2.501  1.8632 -0.2279  1.9890
19770SOL     OW61316   5.225  10.830   2.768 -0.2147 -0.0567  0.5684
19770SOL    HW161317   5.258  10.895   2.706 -0.0191 -0.1642  0.5610
19770SOL    HW261318   5.301  10.777   2.791 -0.4096 -0.3954  0.4416
19771SOL     OW61319   5.189   8.243   6.505  0.3519  0.1472  0.1598
19771SOL    HW161320   5.107   8.289   6.489  0.8343  0.5778 -1.2144
19771SOL    HW261321   5.179   8.159   6.460  0.5113  0.0257  0.3486
19772SOL     OW61322   5.213  10.640   3.885  0.1722  0.1668  0.2298
19772SOL    HW161323   5.196  10.574   3.817 -2.3312  0.5131  0.4074
19772SOL    HW261324   5.179  10.721   3.848  1.7481  1.0565  0.6617
19773SOL     OW61325   6.166   6.903   0.252 -0.2763 -0.4625  0.6744
19773SOL    HW161326   6.156   6.829   0.192  0.2915  0.3339 -0.4460
19773SOL    HW261327   6.254   6.937   0.233 -0.4202  0.3244  1.3663
19774SOL     OW61328   4.746   7.032   4.030  0.5380 -0.0042  0.0998
19774SOL    HW161329   4.672   7.060   4.083 -0.1722 -1.4407 -0.0754
19774SOL    HW261330   4.807   6.994   4.093  0.6915  0.2932  0.1322
19775SOL     OW61331   4.115   5.691   5.161 -0.4686  0.9704 -0.3736
19775SOL    HW161332   4.158   5.776   5.152  0.1641  0.6053 -0.9748
19775SOL    HW261333   4.184   5.627   5.140 -1.6575  0.4018 -2.9234
19776SOL     OW61334   5.309  10.350   4.991  0.2054 -0.0117 -0.7408
19776SOL    HW161335   5.221  10.314   4.983  0.1360 -0.2704  0.8649
19776SOL    HW261336   5.317  10.375   5.083  2.6474 -2.2256 -0.2318
19777SOL     OW61337   4.044  10.246  10.258 -0.5280 -0.5308 -0.3356
19777SOL    HW161338   4.059  10.291  10.341 -0.9458 -3.1410  1.2479
19777SOL    HW261339   3.954  10.268  10.234 -1.0601 -1.2353  0.9242
19778SOL     OW61340   9.689  10.284   3.025  0.1113 -0.6593  0.0782
19778SOL    HW161341   9.701  10.373   3.058 -0.7568 -0.6094  0.2782
19778SOL    HW261342   9.598  10.262   3.047 -0.3500 -0.8253 -1.7560
19779SOL     OW61343   3.616   9.386   1.102  0.3813 -0.0921  0.0905
19779SOL    HW161344   3.599   9.479   1.119 -2.9146 -0.3118 -1.1602
19779SOL    HW261345   3.646   9.351   1.185  0.1391  1.7894  1.0211
19780SOL     OW61346   4.604  10.541   1.634 -0.1649 -0.2818  0.9071
19780SOL    HW161347   4.541  10.470   1.620 -1.1615  1.0190 -2.3259
19780SOL    HW261348   4.561  10.618   1.597  3.4917  0.5316 -2.3501
19781SOL     OW61349   7.363   8.179   8.629  0.4927 -0.1991 -0.2119
19781SOL    HW161350   7.305   8.175   8.553  0.5091  0.4122 -0.2592
19781SOL    HW261351   7.429   8.244   8.606  0.9544 -0.5853  0.0125
19782SOL     OW61352   8.370   0.424   0.334 -0.5941  0.2019 -0.6333
19782SOL    HW161353   8.313   0.371   0.280 -0.1910 -0.0828 -0.7845
19782SOL    HW261354   8.372   0.380   0.419  2.0983 -1.7908 -1.5805
19783SOL     OW61355   8.396   1.053   3.577  0.0261 -0.2005  0.6680
19783SOL    HW161356   8.327   1.110   3.609  1.1892  1.7025 -0.0135
19783SOL    HW261357   8.475   1.082   3.624  1.3072  1.0842 -2.0523
19784SOL     OW61358   7.503  10.158   0.095 -0.3986  0.2825  0.5587
19784SOL    HW161359   7.548  10.078   0.069 -0.0766  0.5898  0.1627
19784SOL    HW261360   7.411  10.142   0.074 -0.2538  0.2262 -0.0399
19785SOL     OW61361   7.225   8.288   2.694 -0.3947  0.4157 -0.4851
19785SOL    HW161362   7.137   8.303   2.660 -0.9397  0.3742  0.8412
19785SOL    HW261363   7.224   8.197   2.724  0.2545  0.2702 -0.8773
19786SOL     OW61364   3.928   2.882   3.935 -0.2470  0.0203 -0.0583
19786SOL    HW161365   3.972   2.857   3.854  1.1443  1.0668  0.3207
19786SOL    HW261366   3.996   2.878   4.002 -0.9848  0.6770  0.7667
19787SOL     OW61367   1.465   1.477   9.330  0.1914  0.5480 -0.4771
19787SOL    HW161368   1.490   1.516   9.246 -0.7502  0.5313 -0.7805
19787SOL    HW261369   1.398   1.413   9.307 -0.4938  0.9520  0.3353
19788SOL     OW61370   2.577   6.219   8.940  0.3053 -0.1711  0.2202
19788SOL    HW161371   2.647   6.284   8.950 -0.6585  1.0580 -0.7060
19788SOL    HW261372   2.601   6.149   9.001  3.5028 -0.8506 -1.5571
19789SOL     OW61373   8.493  10.130   4.496 -0.3529  1.0944  0.1546
19789SOL    HW161374   8.555  10.065   4.464 -0.9131  0.9307 -0.6217
19789SOL    HW261375   8.542  10.211   4.500  0.1383  0.7897  0.3611
19790SOL     OW61376   7.512   7.444   0.720  0.3586 -0.2522 -0.7795
19790SOL    HW161377   7.500   7.503   0.646 -1.6346  0.8211  0.3042
19790SOL    HW261378   7.570   7.491   0.779 -0.8612  0.4742 -0.1236
19791SOL     OW61379   3.578   9.549   3.354 -0.0420 -0.5847 -0.5062
19791SOL    HW161380   3.615   9.622   3.304  1.7158  0.9644  2.7100
19791SOL    HW261381   3.647   9.482   3.352  0.6623  0.0659  0.9388
19792SOL     OW61382   1.869   6.903   1.392 -0.0228  0.0973 -0.1843
19792SOL    HW161383   1.821   6.979   1.424  0.2354 -0.2677  1.1396
19792SOL    HW261384   1.883   6.849   1.470  0.6764 -0.8216 -0.9201
19793SOL     OW61385   9.060   6.572   8.568 -0.1999  0.3981  0.2391
19793SOL    HW161386   9.111   6.526   8.636 -1.7165 -0.0586  1.1037
19793SOL    HW261387   9.115   6.647   8.544  1.8001 -1.1427 -0.3340
19794SOL     OW61388   4.007   1.020   6.678  0.0766  0.3417 -0.1698
19794SOL    HW161389   4.011   1.048   6.769 -0.6718  0.0044 -0.0256
19794SOL    HW261390   4.031   1.098   6.627 -0.7156  0.8784  0.2646
19795SOL     OW61391   6.058   4.651   3.894 -0.6797  0.2694  0.4290
19795SOL    HW161392   6.071   4.682   3.804 -0.4266 -1.9598 -0.3686
19795SOL    HW261393   6.140   4.673   3.939  0.0999 -0.5685 -0.5300
19796SOL     OW61394   9.865   5.740   2.404  0.3955  0.1798 -0.0863
19796SOL    HW161395   9.902   5.657   2.434 -1.4376 -0.6379  0.0550
19796SOL    HW261396   9.886   5.743   2.310  0.8290 -0.2368 -0.0053
19797SOL     OW61397   1.015  10.616  10.264  0.2447  0.3820 -0.6675
19797SOL    HW161398   1.023  10.623  10.169 -2.5214 -0.5653 -1.0758
19797SOL    HW261399   1.024  10.523  10.282  1.0658  0.5930  0.0630
19798SOL     OW61400   9.095   5.448   5.403 -0.3977 -0.2266 -0.3271
19798SOL    HW161401   9.175   5.410   5.439 -0.4129 -1.0306 -1.1067
19798SOL    HW261402   9.025   5.390   5.434 -0.3981 -1.0073 -1.7193
19799SOL     OW61403   8.930   8.362   0.355  0.0065 -0.5589 -0.2765
19799SOL    HW161404   8.928   8.279   0.307 -0.8461 -1.1557  0.7533
19799SOL    HW261405   8.984   8.344   0.432 -1.0004 -0.4522  0.4605
19800SOL     OW61406   4.955   7.776   2.525  0.6052  0.4601 -0.0838
19800SOL    HW161407   4.993   7.758   2.439  1.2120 -0.5724  0.3806
19800SOL    HW261408   4.918   7.692   2.553  0.9824  0.6094  0.9262
19801SOL     OW61409   7.175   0.619   0.248  0.1077  0.0156 -0.2015
19801SOL    HW161410   7.171   0.585   0.337 -0.5207  0.7451  0.0675
19801SOL    HW261411   7.264   0.600   0.218  0.9476  1.4053  1.2600
19802SOL     OW61412   2.122   0.683   5.262 -0.3004  0.0560 -0.3731
19802SOL    HW161413   2.152   0.592   5.267 -0.9337 -0.2214 -1.3080
19802SOL    HW261414   2.104   0.707   5.353 -0.1598 -0.7629 -0.1187
19803SOL     OW61415   2.957   6.333   4.145 -0.3671  0.4310 -0.6662
19803SOL    HW161416   3.005   6.321   4.064 -2.0849  0.0967 -1.6882
19803SOL    HW261417   2.905   6.253   4.155  1.5861 -0.6752  2.1151
19804SOL     OW61418  10.073   1.143   9.480 -0.3194 -0.3720  0.0650
19804SOL    HW161419   9.996   1.119   9.532 -0.1597  0.2815  0.6205
19804SOL    HW261420  10.066   1.238   9.469  0.7767 -0.1958  0.7493
19805SOL     OW61421   7.825   4.022   7.359 -0.2802 -0.5197 -0.8511
19805SOL    HW161422   7.790   4.110   7.373  0.0183 -0.1869 -2.1040
19805SOL    HW261423   7.892   4.012   7.427 -1.7734 -0.6285  0.6807
19806SOL     OW61424  10.540  10.421   2.235  0.1220 -0.6437  0.4113
19806SOL    HW161425  10.612  10.474   2.269  1.3247 -0.2675 -2.4470
19806SOL    HW261426  10.462  10.473   2.252  1.0762  1.2816 -0.6519
19807SOL     OW61427   8.055   8.755   1.097 -0.1055 -0.0112 -0.0673
19807SOL    HW161428   7.972   8.725   1.135 -0.5301  1.9943  0.7512
19807SOL    HW261429   8.043   8.746   1.003 -1.7659  1.2913 -0.0429
19808SOL     OW61430   4.069   2.732   7.359  0.2384 -0.1635 -0.6303
19808SOL    HW161431   4.163   2.726   7.342  0.3466  0.0296 -0.0966
19808SOL    HW261432   4.030   2.742   7.272  0.8391  1.5627 -0.7414
19809SOL     OW61433   6.848   0.617   5.799  0.3790 -0.0657 -0.2803
19809SOL    HW161434   6.926   0.564   5.816  0.9104 -0.0093 -2.3526
19809SOL    HW261435   6.791   0.560   5.748 -0.8132  0.0321  0.8853
19810SOL     OW61436   8.152   6.601   5.547 -0.4563  0.2277 -0.0551
19810SOL    HW161437   8.111   6.515   5.553 -1.1310  0.4821 -0.8280
19810SOL    HW261438   8.109   6.653   5.616  1.9443 -0.7954  2.3591
19811SOL     OW61439   5.641   9.102   4.477 -0.4853  0.1358 -0.1414
19811SOL    HW161440   5.624   9.011   4.502 -1.4844  0.6242  1.0178
19811SOL    HW261441   5.719   9.096   4.421 -0.7541 -1.4667 -0.4152
19812SOL     OW61442  10.692   2.582   0.742  0.7253 -0.0542  0.0452
19812SOL    HW161443  10.660   2.616   0.826 -0.5538  1.6117 -1.0354
19812SOL    HW261444  10.640   2.503   0.727 -0.6218  0.8130 -0.1174
19813SOL     OW61445   8.784   9.589   9.111 -0.8640  0.2997 -0.2639
19813SOL    HW161446   8.777   9.558   9.021  1.4865  0.6997 -0.6398
19813SOL    HW261447   8.847   9.530   9.152 -0.4349  1.2803  0.5445
19814SOL     OW61448   5.710   9.076   5.205  0.0677  0.0679 -0.2434
19814SOL    HW161449   5.757   9.049   5.285 -0.1040  0.6699  0.0671
19814SOL    HW261450   5.618   9.070   5.228 -0.0552 -1.7422 -1.0613
19815SOL     OW61451   5.782   9.974   3.525  0.7462  0.8881 -0.2176
19815SOL    HW161452   5.699  10.020   3.511  0.9375  1.3589  0.1776
19815SOL    HW261453   5.775   9.937   3.613 -0.4438 -2.0542 -1.4184
19816SOL     OW61454   2.428   3.355   4.460 -0.0307  0.2656  0.2707
19816SOL    HW161455   2.400   3.446   4.466 -2.1188 -0.0987 -2.2763
19816SOL    HW261456   2.516   3.359   4.423  1.0756  1.2494  2.7964
19817SOL     OW61457   0.843   1.672   0.258  0.3075  0.0369  0.5126
19817SOL    HW161458   0.847   1.654   0.351  2.5778 -0.8286  0.2986
19817SOL    HW261459   0.750   1.666   0.236 -0.3861  1.2265  2.8601
19818SOL     OW61460   8.337   2.850   2.631  0.3759  0.2562  0.0545
19818SOL    HW161461   8.266   2.839   2.568 -0.3059 -1.4732  1.0465
19818SOL    HW261462   8.314   2.791   2.703  1.2756  1.9330  1.7943
19819SOL     OW61463   3.740  10.572   7.605  0.0101 -0.5926  0.0376
19819SOL    HW161464   3.736  10.588   7.700 -0.2055  1.3961 -0.2657
19819SOL    HW261465   3.829  10.598   7.580 -0.7313  1.4284 -0.6745
19820SOL     OW61466   3.199   8.337   4.537  0.1329  0.2059 -0.6607
19820SOL    HW161467   3.125   8.369   4.589 -0.2605  0.3663 -1.2997
19820SOL    HW261468   3.245   8.276   4.595  0.5927  1.5124  0.3869
19821SOL     OW61469   2.107   2.066   7.100  0.0493 -0.0490  0.1819
19821SOL    HW161470   2.067   2.049   7.185 -0.5307  2.0770  0.3667
19821SOL    HW261471   2.059   2.009   7.039 -1.7818  0.8235  0.7504
19822SOL     OW61472   5.285   7.890   6.458 -0.1607  0.1790  0.2628
19822SOL    HW161473   5.200   7.854   6.431  0.3615 -0.6355 -0.3388
19822SOL    HW261474   5.334   7.814   6.491  0.8823  0.3540 -0.8214
19823SOL     OW61475   8.326   4.477   7.722 -0.4020 -0.4280  0.1521
19823SOL    HW161476   8.383   4.547   7.690  0.3575 -0.5319  1.2240
19823SOL    HW261477   8.261   4.466   7.652 -0.1674  0.9027 -0.3151
19824SOL     OW61478   5.578   7.242   7.735  0.6838 -0.0998 -0.2680
19824SOL    HW161479   5.660   7.270   7.693  0.6799  1.0854  0.4933
19824SOL    HW261480   5.549   7.318   7.785 -1.3527 -0.1977 -1.2102
19825SOL     OW61481   9.579   1.403   1.131 -0.0329  0.5222 -0.8228
19825SOL    HW161482   9.633   1.473   1.167  0.0121 -0.2802  0.7353
19825SOL    HW261483   9.642   1.334   1.107 -0.2046  0.3880 -0.8877
19826SOL     OW61484   2.201   9.178   5.274 -0.0887 -0.0630 -0.0811
19826SOL    HW161485   2.265   9.176   5.203  1.1271 -1.3109  0.9843
19826SOL    HW261486   2.173   9.087   5.283  1.1134 -0.2781  2.1413
19827SOL     OW61487   9.808   8.051  10.206 -0.2331  0.5149  0.5759
19827SOL    HW161488   9.810   7.999  10.126 -2.0064 -0.3192  1.0070
19827SOL    HW261489   9.765   8.133  10.181 -1.4923 -0.0568  0.8064
19828SOL     OW61490   5.233   0.518   5.377 -0.0576 -0.4588  0.1706
19828SOL    HW161491   5.307   0.579   5.380 -1.5680  1.5554 -0.7203
19828SOL    HW261492   5.270   0.436   5.346  2.1035 -0.0603  1.5469
19829SOL     OW61493   2.696   2.632   5.103 -0.2143 -0.3005  0.0781
19829SOL    HW161494   2.604   2.659   5.111 -0.2683  0.1895 -1.6959
19829SOL    HW261495   2.745   2.699   5.151 -0.8265 -1.1875  2.0142
19830SOL     OW61496   4.758   8.015   2.654  0.3228  0.3591 -0.1697
19830SOL    HW161497   4.805   7.935   2.680 -2.4255 -1.1689  0.5333
19830SOL    HW261498   4.673   7.983   2.622 -1.9840  3.0429  2.6771
19831SOL     OW61499   9.857   1.850   0.272 -0.0975 -0.5179 -0.0106
19831SOL    HW161500   9.879   1.852   0.179 -0.2395 -1.3794 -0.0693
19831SOL    HW261501   9.784   1.789   0.278  1.5645 -2.5007  0.9941
19832SOL     OW61502   7.156  10.042   3.210 -0.2508 -0.1845  0.3856
19832SOL    HW161503   7.219  10.045   3.282  0.3402 -1.1261 -0.0624
19832SOL    HW261504   7.152   9.949   3.187  2.9751  0.4113 -3.6792
19833SOL     OW61505   3.409   0.646   8.446 -0.3857  0.3579 -0.0472
19833SOL    HW161506   3.418   0.553   8.463 -2.0029  0.5246  2.2284
19833SOL    HW261507   3.315   0.660   8.436 -0.4394  2.0164  1.9756
19834SOL     OW61508   0.022   0.033  10.080  0.1738  0.3722  0.3445
19834SOL    HW161509  -0.003   0.069  10.165 -0.7846 -0.5636  0.4911
19834SOL    HW261510  -0.061   0.024  10.033  0.4768 -0.7326 -0.0285
19835SOL     OW61511   7.518   8.185   6.262  0.1096 -0.3135  0.5075
19835SOL    HW161512   7.480   8.115   6.209 -0.2345 -1.0074  1.6249
19835SOL    HW261513   7.607   8.195   6.230 -0.3142 -0.1936 -0.6848
19836SOL     OW61514   1.476   9.189   1.872  0.0943  0.0660  0.2040
19836SOL    HW161515   1.508   9.177   1.783 -0.9677 -1.3476 -0.0188
19836SOL    HW261516   1.540   9.144   1.927  0.4979  0.5344  0.1251
19837SOL     OW61517   4.947   5.721   0.531 -0.2937  0.5571  0.1939
19837SOL    HW161518   4.988   5.783   0.471 -0.1610  1.5390  1.2582
19837SOL    HW261519   4.932   5.771   0.611  1.2534 -1.1711  1.6582
19838SOL     OW61520   5.528   9.187   9.879 -0.2245  0.0474 -0.2588
19838SOL    HW161521   5.566   9.101   9.860  0.5671  0.0084  1.3183
19838SOL    HW261522   5.489   9.177   9.966  1.5581  1.7569  0.8171
19839SOL     OW61523   4.258   7.550   8.501  0.0839 -0.1629  0.3896
19839SOL    HW161524   4.191   7.483   8.494 -0.0388 -0.1431  1.3616
19839SOL    HW261525   4.339   7.503   8.522 -0.0528  0.0143  1.3205
19840SOL     OW61526   3.124   5.943   4.199 -0.6720  0.1126 -0.2696
19840SOL    HW161527   3.121   5.893   4.280  0.2384 -2.3283 -1.6225
19840SOL    HW261528   3.035   5.977   4.188 -1.4599 -1.5551  0.5571
19841SOL     OW61529   3.395   4.941   7.564  0.1465  0.8385 -0.3074
19841SOL    HW161530   3.465   4.939   7.628 -0.9459  1.8236  0.9725
19841SOL    HW261531   3.335   4.872   7.592 -1.4999  2.7559  1.1974
19842SOL     OW61532   3.849   9.269   2.004  0.0632  0.2473  0.4753
19842SOL    HW161533   3.906   9.241   2.075 -1.0442  2.8230  2.5773
19842SOL    HW261534   3.909   9.296   1.934  1.1807 -2.5291  0.2665
19843SOL     OW61535  10.982   7.623   5.280  0.0382  0.0700  0.1150
19843SOL    HW161536  10.972   7.566   5.204  2.7551  0.5306 -0.7233
19843SOL    HW261537  11.012   7.706   5.243 -0.6744  1.0116  1.5539
19844SOL     OW61538   1.892   9.704   5.477  0.1591 -0.4437  0.4318
19844SOL    HW161539   1.826   9.669   5.417  0.6817 -0.8008  0.0532
19844SOL    HW261540   1.948   9.629   5.497 -0.0837 -0.3590  1.4811
19845SOL     OW61541   8.944   9.258   0.496 -0.7148 -0.1890  0.6257
19845SOL    HW161542   8.949   9.164   0.509 -0.4480 -0.2964 -0.1907
19845SOL    HW261543   8.853   9.281   0.513 -1.6418 -1.1348 -2.4757
19846SOL     OW61544   1.840   3.648   0.127 -0.6370  0.0538  0.2512
19846SOL    HW161545   1.887   3.620   0.049 -0.2259  2.0817 -0.3033
19846SOL    HW261546   1.842   3.744   0.123 -2.2525  0.2109  1.7711
19847SOL     OW61547   8.999   8.830   3.235 -0.2481 -0.3422 -0.3739
19847SOL    HW161548   8.925   8.773   3.254 -0.4662  0.2260  0.5262
19847SOL    HW261549   9.032   8.856   3.321 -0.1133  0.8326 -0.7652
19848SOL     OW61550   8.767   1.211   1.905  0.0808  0.2422  0.4190
19848SOL    HW161551   8.704   1.139   1.900  2.6488 -2.1046 -1.4861
19848SOL    HW261552   8.804   1.205   1.993 -0.1625 -0.3655  0.4804
19849SOL     OW61553   3.112   8.052   4.255 -0.0677 -0.0785 -0.9013
19849SOL    HW161554   3.134   8.000   4.178  0.0791 -0.9951 -0.2593
19849SOL    HW261555   3.086   7.987   4.321 -0.8444  0.7247 -0.3865
19850SOL     OW61556   5.535   4.606  10.613 -0.2737 -0.0203 -0.3090
19850SOL    HW161557   5.515   4.691  10.573 -0.0181  0.6134  0.8557
19850SOL    HW261558   5.629   4.594  10.599 -0.1226  0.3522  0.3680
19851SOL     OW61559   4.401   8.111   0.544 -0.5365 -0.5550 -0.4400
19851SOL    HW161560   4.409   8.193   0.594 -1.1521 -0.6439 -0.1923
19851SOL    HW261561   4.457   8.049   0.591 -0.3895 -0.3879 -0.3925
19852SOL     OW61562   3.681   1.739   1.206 -0.8451  0.0729  0.3898
19852SOL    HW161563   3.720   1.782   1.130 -1.5225  0.8747  0.4769
19852SOL    HW261564   3.685   1.646   1.186 -1.3619  0.2927 -0.8060
19853SOL     OW61565   6.391   0.929   0.796  0.0357  0.6059 -0.0842
19853SOL    HW161566   6.297   0.909   0.790  0.1614  0.2472 -1.1563
19853SOL    HW261567   6.430   0.878   0.725  1.2616 -0.4665  1.3024
19854SOL     OW61568   9.508   2.127   9.715  0.1558  0.7202  0.5372
19854SOL    HW161569   9.550   2.155   9.634  3.3222  0.7664  2.0408
19854SOL    HW261570   9.457   2.050   9.690  1.3492  0.4896 -1.4246
19855SOL     OW61571   1.824  10.749   5.088  0.4207  0.1261 -0.0383
19855SOL    HW161572   1.850  10.659   5.108 -1.6548 -0.3699  0.7877
19855SOL    HW261573   1.738  10.740   5.047  0.0796  1.7394  0.2550
19856SOL     OW61574   8.588   9.136   4.094  0.4673  0.1454 -0.0975
19856SOL    HW161575   8.589   9.226   4.061 -0.9034  0.2368  0.0700
19856SOL    HW261576   8.637   9.086   4.029  0.3804  0.8470 -0.7106
19857SOL     OW61577   9.081   1.885   0.389  0.0995  0.6566  0.1630
19857SOL    HW161578   9.132   1.888   0.470 -1.6350  0.2923  1.3384
19857SOL    HW261579   9.045   1.796   0.387 -0.7010  0.9800 -0.4469
19858SOL     OW61580   3.529   5.446   7.552 -0.3156  0.3301 -0.0377
19858SOL    HW161581   3.449   5.396   7.561 -0.4040  0.3327 -0.7656
19858SOL    HW261582   3.545   5.449   7.458  0.5318  0.3350  0.0976
19859SOL     OW61583   3.572  10.949   1.246 -0.4147 -0.0294 -0.5616
19859SOL    HW161584   3.584  10.965   1.340 -0.1594 -0.1313 -0.5771
19859SOL    HW261585   3.519  11.023   1.216 -0.0802  0.2685 -0.4348
19860SOL     OW61586   6.261   0.378   2.947 -0.5900 -0.0125  0.0742
19860SOL    HW161587   6.328   0.338   3.002 -0.9867 -1.3637 -0.4032
19860SOL    HW261588   6.287   0.356   2.857 -0.1169  1.9079 -0.3277
19861SOL     OW61589   3.020   5.545   8.840 -0.1819 -0.3351 -0.2463
19861SOL    HW161590   3.101   5.596   8.849 -0.6356  0.2406  0.7454
19861SOL    HW261591   3.048   5.462   8.801  0.9288 -0.2428  0.3123
19862SOL     OW61592   8.340   2.482   3.579  0.2455  0.0995 -0.3151
19862SOL    HW161593   8.417   2.430   3.600  0.2227 -0.4293 -1.4630
19862SOL    HW261594   8.325   2.535   3.657  0.1623 -1.7352  0.9790
19863SOL     OW61595   7.582   4.206   3.487 -0.0330  0.4394 -0.3794
19863SOL    HW161596   7.635   4.126   3.491 -0.8417 -0.0780  0.7070
19863SOL    HW261597   7.562   4.217   3.395 -0.6857 -1.1648 -0.4645
19864SOL     OW61598   7.478  10.159   5.391 -0.4676  0.0544 -0.4419
19864SOL    HW161599   7.497  10.190   5.303  0.0625 -0.6377 -0.5844
19864SOL    HW261600   7.433  10.232   5.433  0.5178  0.9257 -0.8392
19865SOL     OW61601   7.898   5.641   9.005  0.3367  0.4486  0.2339
19865SOL    HW161602   7.808   5.672   9.001  0.0994 -0.2505 -3.5831
19865SOL    HW261603   7.948   5.716   9.036 -1.0382  2.5800 -2.3036
19866SOL     OW61604   1.222  10.305  10.798 -0.3853  0.2127 -0.2019
19866SOL    HW161605   1.247  10.373  10.861 -0.9852  1.6097 -1.4165
19866SOL    HW261606   1.127  10.309  10.795 -0.3462  0.6029 -1.6282
19867SOL     OW61607   4.294   0.470   4.903 -0.1368 -0.3355  0.5614
19867SOL    HW161608   4.290   0.429   4.817  0.1576 -2.7261  1.6013
19867SOL    HW261609   4.202   0.486   4.926 -0.1725  1.9344 -0.8226
19868SOL     OW61610   8.990   8.369   3.291 -0.2049 -0.3751 -0.1914
19868SOL    HW161611   9.055   8.410   3.234  0.4426  0.1872  0.9170
19868SOL    HW261612   8.928   8.439   3.311  0.1408 -0.2882  0.6051
19869SOL     OW61613   1.222   5.688  10.684  0.3722  0.3661 -0.1534
19869SOL    HW161614   1.278   5.762  10.707 -0.8029  1.3826 -0.5382
19869SOL    HW261615   1.134   5.714  10.710  0.1153 -1.4632  1.0160
19870SOL     OW61616  10.158   8.839   0.612  0.1352 -0.2184  0.6047
19870SOL    HW161617  10.233   8.882   0.570  1.0608 -1.6716  0.7182
19870SOL    HW261618  10.089   8.844   0.546  0.3158  1.0932  0.4744
19871SOL     OW61619   2.337   3.027   4.418 -0.2153  0.1718  0.2631
19871SOL    HW161620   2.366   2.953   4.472  0.3410  1.3743  1.6802
19871SOL    HW261621   2.343   3.103   4.476 -1.9720  1.1681 -0.7676
19872SOL     OW61622   7.015   6.755   4.960  0.3463 -0.0260 -0.3918
19872SOL    HW161623   7.051   6.840   4.985 -0.0611 -0.4929  2.0427
19872SOL    HW261624   6.925   6.774   4.932  0.6167  0.4621 -0.9339
19873SOL     OW61625   2.970   2.146   8.683  0.0319  0.0398 -0.5708
19873SOL    HW161626   2.889   2.173   8.726  0.1979  1.1524 -0.9205
19873SOL    HW261627   2.982   2.210   8.613 -0.1243 -1.5872 -2.1734
19874SOL     OW61628   6.679   5.793   8.569  0.1402 -0.7604 -0.1224
19874SOL    HW161629   6.604   5.849   8.589  1.5489  1.3098 -0.2835
19874SOL    HW261630   6.683   5.731   8.641 -1.4575 -0.6462  0.0977
19875SOL     OW61631  10.617   2.215   2.949  0.0903  0.0753  0.7793
19875SOL    HW161632  10.661   2.167   2.880 -0.7828  0.1357  0.1634
19875SOL    HW261633  10.532   2.171   2.958  0.4763 -0.4379  2.3628
19876SOL     OW61634   5.246   7.040   2.585  0.4949  0.0811 -0.2358
19876SOL    HW161635   5.186   6.979   2.543  1.4743 -0.3538 -1.0709
19876SOL    HW261636   5.282   7.091   2.512  0.1283  1.2593  0.3906
19877SOL     OW61637   5.275   3.494   5.084 -0.6781 -0.0621 -0.4961
19877SOL    HW161638   5.343   3.487   5.017 -2.3244 -1.4705 -2.1297
19877SOL    HW261639   5.244   3.584   5.077  1.2645  0.7800  0.6436
19878SOL     OW61640  10.088   1.158   0.296  0.1877 -0.2490  0.0549
19878SOL    HW161641  10.070   1.075   0.252 -1.5885 -0.0092  0.2612
19878SOL    HW261642  10.033   1.156   0.375  0.7003  0.7987  0.4558
19879SOL     OW61643   0.059   5.796   2.871 -0.3478  0.5290 -0.4141
19879SOL    HW161644   0.116   5.730   2.831  0.2017 -0.5204  1.9374
19879SOL    HW261645   0.029   5.850   2.798  2.4282  0.1791 -1.9171
19880SOL     OW61646   8.296   0.966   1.855  0.4857 -0.0899 -0.2705
19880SOL    HW161647   8.266   1.037   1.912  1.2327  0.6473 -0.7636
19880SOL    HW261648   8.313   0.893   1.914  1.7575  0.8219  0.5508
19881SOL     OW61649   1.002   6.192   0.947 -0.4008  0.9423  0.5983
19881SOL    HW161650   0.952   6.160   1.022 -2.2311  0.6918 -0.6706
19881SOL    HW261651   1.086   6.220   0.984 -1.2113  0.7363  2.7042
19882SOL     OW61652   4.683   0.152   4.136  0.4957 -0.0051  0.4656
19882SOL    HW161653   4.658   0.243   4.121 -1.8870 -0.2974  2.1212
19882SOL    HW261654   4.644   0.104   4.062 -1.0657 -0.0265  1.2608
19883SOL     OW61655  10.011   2.397  10.881 -0.0545  0.0835 -0.8927
19883SOL    HW161656  10.083   2.444  10.839 -0.0929  0.9275 -0.0548
19883SOL    HW261657   9.932   2.434  10.843 -0.0709  0.1800 -0.7653
19884SOL     OW61658   9.167   6.759   1.296  0.0825  0.2281 -0.3941
19884SOL    HW161659   9.154   6.712   1.378  1.3257  1.2148  0.4098
19884SOL    HW261660   9.261   6.751   1.278  0.0735  1.2176 -0.9734
19885SOL     OW61661   5.195   1.748   9.045  0.7547  0.2488 -0.0977
19885SOL    HW161662   5.213   1.787   8.960 -0.4518  2.7510  0.6854
19885SOL    HW261663   5.281   1.740   9.087  1.2912 -0.4813 -1.3054
19886SOL     OW61664   8.839   7.940   5.948  0.4031 -0.1067 -0.3139
19886SOL    HW161665   8.842   7.887   5.869 -2.4433 -1.6125  0.4720
19886SOL    HW261666   8.819   8.028   5.918  3.0408  0.2170 -1.4570
19887SOL     OW61667   4.488   0.934   9.731  0.5925 -0.5350 -0.2300
19887SOL    HW161668   4.563   0.987   9.756 -1.7467  1.8064  2.6661
19887SOL    HW261669   4.491   0.858   9.789  1.1993 -0.9328 -0.7772
19888SOL     OW61670   3.325   0.134   8.976 -0.0838 -0.2495  0.0193
19888SOL    HW161671   3.335   0.117   8.882 -0.8256  0.2817 -0.1700
19888SOL    HW261672   3.244   0.184   8.982 -0.0123 -0.2334  0.9455
19889SOL     OW61673   5.547   6.032   9.622 -0.2388 -0.2616  0.1676
19889SOL    HW161674   5.577   5.958   9.569  0.7659 -0.3055  0.7772
19889SOL    HW261675   5.598   6.107   9.591  0.3639 -0.2899  1.0568
19890SOL     OW61676   8.447   7.908   5.649 -0.7522 -0.1561  0.2322
19890SOL    HW161677   8.480   7.844   5.712  0.3734  1.2071  1.0829
19890SOL    HW261678   8.357   7.924   5.676 -0.7230 -0.6310  0.6228
19891SOL     OW61679   6.021   7.685   2.420  0.0702 -0.3733  0.2331
19891SOL    HW161680   6.007   7.771   2.381 -1.3323 -0.8485 -0.3487
19891SOL    HW261681   5.948   7.673   2.480  1.0369 -0.5765  1.4255
19892SOL     OW61682   5.672   7.758   0.935 -0.1780 -0.1001  0.2019
19892SOL    HW161683   5.725   7.799   0.867 -0.6139  1.9154  1.0044
19892SOL    HW261684   5.621   7.830   0.973 -0.9330 -1.3800  1.7594
19893SOL     OW61685   1.867   7.317   4.461  0.0559 -0.1142  0.9163
19893SOL    HW161686   1.781   7.276   4.448  0.3799 -0.9987  1.4117
19893SOL    HW261687   1.926   7.265   4.406  0.1269  1.1017 -0.1855
19894SOL     OW61688   3.654   6.758   3.607 -0.0834  0.3197 -0.1366
19894SOL    HW161689   3.606   6.756   3.524  0.0520  0.3886 -0.2171
19894SOL    HW261690   3.746   6.762   3.581  0.0904 -1.9262 -0.0014
19895SOL     OW61691   9.675   9.621   2.378  0.5710 -0.4966 -0.0035
19895SOL    HW161692   9.757   9.585   2.411 -0.4358 -1.7554  1.2688
19895SOL    HW261693   9.620   9.544   2.363 -0.2098  0.2847 -1.3597
19896SOL     OW61694   5.777   9.685   5.433  0.3052  0.1316 -0.6895
19896SOL    HW161695   5.804   9.597   5.459  0.7253  0.4000 -0.2131
19896SOL    HW261696   5.704   9.706   5.492  0.4065  0.2258 -0.5984
19897SOL     OW61697  10.235   9.488   5.119 -0.2763  0.6749 -0.0032
19897SOL    HW161698  10.281   9.405   5.128  1.3603  1.6837  1.6413
19897SOL    HW261699  10.146   9.470   5.150 -0.4112 -0.7932 -1.1520
19898SOL     OW61700   4.558   2.579   3.876 -0.0319 -0.1570  0.3095
19898SOL    HW161701   4.653   2.566   3.885 -0.1600 -1.4252 -0.1048
19898SOL    HW261702   4.536   2.540   3.792 -0.8338  0.7239  0.0931
19899SOL     OW61703   4.363   1.916   7.113  0.7236  0.0301 -0.3601
19899SOL    HW161704   4.450   1.877   7.104  0.6886 -0.3260  0.6809
19899SOL    HW261705   4.378   2.000   7.157  0.3038 -1.6209  3.3223
19900SOL     OW61706   1.126   2.820   1.673  0.1915  0.3339 -0.1554
19900SOL    HW161707   1.036   2.824   1.641  0.2978 -0.5570 -0.6039
19900SOL    HW261708   1.120   2.769   1.753  0.0868  1.6174  0.6809
19901SOL     OW61709   5.338   4.761   3.779  0.2255 -0.3738  0.3060
19901SOL    HW161710   5.389   4.685   3.807  2.5397  0.9952  0.0425
19901SOL    HW261711   5.391   4.802   3.710 -1.4968  0.8587 -0.3600
19902SOL     OW61712   9.308   1.244   8.538  0.1092  0.0461  0.0175
19902SOL    HW161713   9.237   1.245   8.474 -0.3424  0.7812  0.5083
19902SOL    HW261714   9.385   1.274   8.489  0.3410 -1.7536 -0.7763
19903SOL     OW61715   6.111   4.692   4.465  0.2658  0.2195 -0.1004
19903SOL    HW161716   6.055   4.770   4.471  0.4106  0.4532 -1.4199
19903SOL    HW261717   6.197   4.722   4.493 -0.2344 -0.1387  1.9278
19904SOL     OW61718   6.207  10.688   2.463  0.3572 -0.0740  0.1009
19904SOL    HW161719   6.142  10.625   2.432 -0.1952  0.2891  0.5007
19904SOL    HW261720   6.235  10.734   2.385  0.1656 -0.2628 -0.0818
19905SOL     OW61721   2.613   2.876   4.886  0.0825  0.3575 -0.2123
19905SOL    HW161722   2.603   2.908   4.976  2.2604  1.7300 -0.3778
19905SOL    HW261723   2.524   2.858   4.857 -0.6726 -0.6334  2.3574
19906SOL     OW61724   3.843   9.682   9.278 -0.5507  0.4743  0.2232
19906SOL    HW161725   3.764   9.694   9.330 -1.7647 -3.4811 -0.3801
19906SOL    HW261726   3.829   9.733   9.199 -1.9050  0.8589  0.6981
19907SOL     OW61727   4.739   4.072   5.261 -0.3616  0.1880  0.3058
19907SOL    HW161728   4.707   4.155   5.225 -0.8477 -0.1393 -0.0292
19907SOL    HW261729   4.670   4.043   5.321 -1.9826 -1.7657 -2.2737
19908SOL     OW61730   9.806   7.423   9.074  0.6682 -0.6744 -0.1050
19908SOL    HW161731   9.842   7.443   9.161 -0.6596 -0.8388  0.5070
19908SOL    HW261732   9.838   7.493   9.018 -0.3007  0.7325  1.0294
19909SOL     OW61733   3.339   8.776  10.780  0.0790 -0.4801 -0.3726
19909SOL    HW161734   3.330   8.748  10.871  0.4304 -0.0388 -0.1950
19909SOL    HW261735   3.434   8.782  10.767  0.0550  2.1734  0.1071
19910SOL     OW61736   4.324  10.759   7.279  0.0994 -0.0355  0.2833
19910SOL    HW161737   4.418  10.740   7.268  0.2416 -0.4363  1.8755
19910SOL    HW261738   4.288  10.751   7.191  1.4353 -0.6461 -0.2477
19911SOL     OW61739   9.793   4.810   5.702  0.7485  0.1259 -0.5519
19911SOL    HW161740   9.862   4.874   5.685  0.7416  0.2211 -0.2226
19911SOL    HW261741   9.716   4.863   5.725  1.5532  0.0073  2.9956
19912SOL     OW61742   5.110   2.089   1.904 -0.0050 -0.5334 -0.1922
19912SOL    HW161743   5.026   2.116   1.940  0.1734 -0.9384  0.5410
19912SOL    HW261744   5.140   2.019   1.961  0.2347 -1.2798 -1.1982
19913SOL     OW61745   1.145   5.011   4.135  0.4729  0.2056 -0.0011
19913SOL    HW161746   1.170   4.947   4.068  0.7821 -1.4443  1.6117
19913SOL    HW261747   1.225   5.026   4.185 -0.1380  0.1465  1.0040
19914SOL     OW61748   3.714   7.658   8.796 -0.0521  0.0460 -0.5108
19914SOL    HW161749   3.685   7.726   8.735 -0.2715  0.7903  0.3972
19914SOL    HW261750   3.808   7.671   8.803 -0.2337  1.0421  0.5347
19915SOL     OW61751   4.528   8.408   2.969 -0.2176  0.1223 -0.1157
19915SOL    HW161752   4.567   8.434   2.886 -0.1400  1.5049  0.3257
19915SOL    HW261753   4.594   8.430   3.035 -1.5035  2.1551  0.6028
19916SOL     OW61754   4.958   8.396   8.826  0.5017 -0.4431  0.2518
19916SOL    HW161755   5.007   8.320   8.795 -0.1281 -0.3183 -1.1797
19916SOL    HW261756   4.903   8.363   8.896  1.9339 -0.7798  1.2478
19917SOL     OW61757   1.138   8.994  10.431 -0.3362  0.2295 -0.2920
19917SOL    HW161758   1.188   8.961  10.505 -1.4885  0.4115  0.5840
19917SOL    HW261759   1.122   9.086  10.451 -0.8532  0.2227 -0.6414
19918SOL     OW61760   3.386  10.183   3.314  0.3323  0.1312  0.0853
19918SOL    HW161761   3.410  10.247   3.381  0.0948 -1.1027  1.4075
19918SOL    HW261762   3.464  10.174   3.260  0.7801  0.6278  0.6357
19919SOL     OW61763   8.749  11.078   2.741  0.0024 -0.3879  0.0952
19919SOL    HW161764   8.782  11.166   2.725  0.9516 -0.9082 -0.9182
19919SOL    HW261765   8.816  11.020   2.705 -0.1941 -1.5503  1.4988
19920SOL     OW61766   0.867   2.406   7.007  0.1268 -0.5961 -0.2096
19920SOL    HW161767   0.856   2.485   6.953  0.7247  0.1846  0.7715
19920SOL    HW261768   0.875   2.440   7.096  0.0130 -1.8072  0.2707
19921SOL     OW61769   5.750   3.677   7.831  0.0555  0.1037  0.2435
19921SOL    HW161770   5.759   3.619   7.755 -1.4661 -0.6538  0.6097
19921SOL    HW261771   5.794   3.758   7.804  0.6101 -0.5635 -0.9762
19922SOL     OW61772   1.701   8.068   3.248  0.1412 -0.1246 -0.2804
19922SOL    HW161773   1.639   8.141   3.241  1.4786  1.1166  0.4198
19922SOL    HW261774   1.746   8.067   3.163  1.8383  1.4995  0.5475
19923SOL     OW61775   8.253   1.549   5.337 -0.2058 -0.1450  0.1942
19923SOL    HW161776   8.266   1.462   5.298 -0.3207  0.3274 -0.9282
19923SOL    HW261777   8.339   1.574   5.370 -0.5409 -1.4887  2.3292
19924SOL     OW61778   6.435   9.959   9.580 -0.0226 -0.1586 -0.1580
19924SOL    HW161779   6.450  10.046   9.618 -1.6553 -0.2160  0.7275
19924SOL    HW261780   6.510   9.907   9.609 -0.4733  0.2083  1.8275
19925SOL     OW61781   9.928   0.811  10.383 -0.1696 -0.0784  0.0789
19925SOL    HW161782   9.933   0.784  10.291  2.7999 -0.6498  0.3132
19925SOL    HW261783   9.887   0.736  10.428  0.8210 -0.9406 -0.4190
19926SOL     OW61784   5.745  10.171   2.489  0.4080 -0.2673  0.0530
19926SOL    HW161785   5.802  10.243   2.517  2.3627 -1.9510  0.6729
19926SOL    HW261786   5.711  10.135   2.571  1.7184 -1.7597 -0.0168
19927SOL     OW61787   4.358   5.410   3.464  0.2719  0.1074 -0.2314
19927SOL    HW161788   4.334   5.320   3.487 -0.2970  0.2799 -0.1382
19927SOL    HW261789   4.430   5.430   3.523  0.4550 -0.3158 -0.3051
19928SOL     OW61790   4.601   3.577   2.670 -0.0872  0.6343  0.0415
19928SOL    HW161791   4.653   3.593   2.749  2.2012  1.6309 -1.5356
19928SOL    HW261792   4.564   3.663   2.648  1.4321  0.9979 -1.3067
19929SOL     OW61793  10.897   1.859   1.847  0.4168 -0.4548 -0.3839
19929SOL    HW161794  10.822   1.914   1.825  0.5253 -0.8530 -1.9077
19929SOL    HW261795  10.948   1.911   1.909  0.1390  0.8499 -1.2162
19930SOL     OW61796   6.693  10.439   9.379  0.1056 -0.2042 -0.2427
19930SOL    HW161797   6.627  10.370   9.374  1.4983 -1.6032 -0.3786
19930SOL    HW261798   6.693  10.465   9.472 -0.9194  0.1380 -0.3282
19931SOL     OW61799   4.455   6.035   8.154 -0.2889  0.1459 -0.2177
19931SOL    HW161800   4.476   5.992   8.072  0.8921  0.4135 -0.0654
19931SOL    HW261801   4.471   5.969   8.222  2.2762  0.9764  0.0853
19932SOL     OW61802   8.176   7.453   5.920  0.2183  0.6587 -0.3299
19932SOL    HW161803   8.199   7.460   6.013 -1.8653  0.9189  0.2075
19932SOL    HW261804   8.231   7.381   5.888 -0.3022 -0.6611  1.5529
19933SOL     OW61805   4.031   9.408   1.841  0.1609 -0.6604 -0.8421
19933SOL    HW161806   4.113   9.413   1.792  0.0191 -0.8055 -1.0955
19933SOL    HW261807   3.966   9.444   1.782  0.2761  0.8842 -0.0844
19934SOL     OW61808   3.607   1.208   1.559  0.5549 -0.3032  0.2742
19934SOL    HW161809   3.655   1.127   1.579  0.1073  0.0323  3.1321
19934SOL    HW261810   3.532   1.179   1.508  1.2354 -1.4698 -0.1091
19935SOL     OW61811  10.308  10.695  10.575  0.2796 -0.3333  0.9945
19935SOL    HW161812  10.394  10.729  10.600 -0.3118  1.4606  0.6900
19935SOL    HW261813  10.284  10.745  10.497 -0.2956 -2.0295  0.0380
19936SOL     OW61814   3.669  10.704   4.202  0.1274  0.1279  0.2452
19936SOL    HW161815   3.584  10.689   4.162 -0.5308 -0.6300  1.8406
19936SOL    HW261816   3.712  10.618   4.201  0.8292  0.4678 -0.3912
19937SOL     OW61817   9.800   0.245   5.684  0.1416 -0.1202  0.1982
19937SOL    HW161818   9.841   0.170   5.727 -2.7712 -1.9953 -0.0096
19937SOL    HW261819   9.763   0.296   5.756 -1.6508 -1.3320  0.1944
19938SOL     OW61820   1.826   4.763   5.451  0.0688 -0.1811  0.0555
19938SOL    HW161821   1.850   4.686   5.502 -0.7323  0.2152  1.0608
19938SOL    HW261822   1.743   4.792   5.488 -0.6008  0.0635 -1.5448
19939SOL     OW61823   1.861   4.606   5.883  0.0911  0.2308 -0.1692
19939SOL    HW161824   1.909   4.639   5.808 -0.1812 -0.7206 -0.7839
19939SOL    HW261825   1.918   4.624   5.958  1.0185 -0.1157 -0.7765
19940SOL     OW61826   7.435  10.572   1.742  0.7859 -0.2672  0.4256
19940SOL    HW161827   7.357  10.618   1.712  0.6598 -1.0727 -0.5064
19940SOL    HW261828   7.413  10.545   1.832 -0.2244 -0.9606 -0.0150
19941SOL     OW61829   2.850   9.819   5.626  0.4773  0.5110 -0.0004
19941SOL    HW161830   2.780   9.832   5.690 -1.7007 -0.7904 -2.0052
19941SOL    HW261831   2.898   9.743   5.658  0.0849  0.5048  0.5977
19942SOL     OW61832   0.700  10.326   0.502  0.3475  0.2238 -0.3437
19942SOL    HW161833   0.760  10.393   0.536 -0.6639  0.4191  1.1179
19942SOL    HW261834   0.627  10.376   0.464 -0.6017 -0.0102  1.1001
19943SOL     OW61835  11.074   9.945   2.545 -0.3736  0.3404 -0.5178
19943SOL    HW161836  11.028   9.883   2.602 -1.2732  0.6852 -0.8448
19943SOL    HW261837  11.131   9.890   2.491 -0.7808 -0.1561 -0.4537
19944SOL     OW61838   0.926   1.524   6.561  0.2099 -0.1264  0.2518
19944SOL    HW161839   0.990   1.575   6.611  0.7667 -2.1363  1.7459
19944SOL    HW261840   0.972   1.496   6.483  1.2550 -1.5930  1.3390
19945SOL     OW61841   1.738   8.674   5.515 -0.2022 -0.3738 -0.6887
19945SOL    HW161842   1.760   8.605   5.452  1.1675  0.3741 -1.0821
19945SOL    HW261843   1.817   8.729   5.518 -0.1479 -0.4614  1.8056
19946SOL     OW61844   4.720   0.546   8.303  0.4867  0.2330 -0.3939
19946SOL    HW161845   4.801   0.595   8.285  0.1099  1.1721  0.3747
19946SOL    HW261846   4.650   0.610   8.291 -0.0433 -0.1944  0.3250
19947SOL     OW61847   4.469   6.388   8.850 -0.1796 -0.7892  0.2380
19947SOL    HW161848   4.543   6.335   8.880  0.0591 -0.5511  0.0842
19947SOL    HW261849   4.419   6.408   8.929  0.6257  0.1217  0.5434
19948SOL     OW61850   3.198   9.293   0.159 -0.1413 -0.2413 -0.2174
19948SOL    HW161851   3.167   9.383   0.161 -2.8178 -1.0775 -0.8238
19948SOL    HW261852   3.155   9.250   0.233  3.9491 -0.3169  2.4375
19949SOL     OW61853   4.306   2.506   2.975 -0.3258  0.3155 -0.4247
19949SOL    HW161854   4.283   2.417   3.003 -3.0174  0.7410 -0.9889
19949SOL    HW261855   4.317   2.554   3.057 -1.5750  0.0408 -0.0689
19950SOL     OW61856   4.188   7.405   6.241 -0.1058  0.5400  0.3442
19950SOL    HW161857   4.278   7.380   6.220 -0.7692 -2.0117  0.2009
19950SOL    HW261858   4.177   7.382   6.333 -0.4726  1.4017  0.5310
19951SOL     OW61859   4.478   7.887   6.088 -0.1459 -0.0834  0.5774
19951SOL    HW161860   4.573   7.888   6.101 -0.2124  0.3945  1.0611
19951SOL    HW261861   4.466   7.919   5.999  0.0952  1.0063  0.9127
19952SOL     OW61862   6.932  10.900   6.927 -0.4653  0.2426 -0.1301
19952SOL    HW161863   6.901  10.941   6.846  0.2766  0.8755 -0.1041
19952SOL    HW261864   6.967  10.816   6.900 -2.3104 -0.5707 -0.1441
19953SOL     OW61865   4.237   6.863  10.619 -0.1887  0.3453 -0.3369
19953SOL    HW161866   4.326   6.851  10.587 -0.4355 -1.3589 -0.4749
19953SOL    HW261867   4.204   6.938  10.569  0.5722 -0.1338 -1.6135
19954SOL     OW61868   3.725   5.985   2.767 -0.1877 -0.1142 -0.0575
19954SOL    HW161869   3.771   6.068   2.778  1.7246 -1.1051 -0.2766
19954SOL    HW261870   3.687   5.990   2.679  0.9162  0.0806 -0.5373
19955SOL     OW61871   6.227   6.632   9.619 -0.2941  0.1011  0.0753
19955SOL    HW161872   6.225   6.594   9.531 -2.4763  0.1259  0.0763
19955SOL    HW261873   6.248   6.725   9.605 -0.3448  0.0412 -0.4001
19956SOL     OW61874   6.470  10.547   5.592 -0.6669 -0.2467  0.3170
19956SOL    HW161875   6.502  10.463   5.625  0.4107 -0.4255 -1.0913
19956SOL    HW261876   6.376  10.545   5.611 -1.0099 -2.5513 -1.1702
19957SOL     OW61877   0.571   3.976   8.666 -0.4074  0.3112  0.3533
19957SOL    HW161878   0.618   4.057   8.645  0.6874 -0.5356 -0.5821
19957SOL    HW261879   0.629   3.929   8.726 -0.9177  0.1036  0.6900
19958SOL     OW61880   6.562   8.243   3.148 -0.1860 -0.2230 -0.4893
19958SOL    HW161881   6.540   8.151   3.131 -0.3695 -0.5669  1.3376
19958SOL    HW261882   6.477   8.284   3.163  0.0246 -0.3967  1.4147
19959SOL     OW61883  10.104   5.327   2.283  0.0968 -0.3031  0.5290
19959SOL    HW161884  10.191   5.329   2.323  0.0600 -0.1984  0.6038
19959SOL    HW261885  10.051   5.275   2.343 -0.3343  1.0847  1.3657
19960SOL     OW61886   1.034   7.025   0.006  0.1190  0.0422  0.1229
19960SOL    HW161887   0.951   7.061   0.035  0.5251  1.7592 -0.7148
19960SOL    HW261888   1.085   7.015   0.087 -0.6336 -0.3627  0.5605
19961SOL     OW61889   0.355   6.371   5.840  0.3462  0.4503 -0.4277
19961SOL    HW161890   0.291   6.369   5.768  2.0983  0.7084 -2.0653
19961SOL    HW261891   0.439   6.352   5.798  1.2723 -0.6506  1.7825
19962SOL     OW61892   2.516  10.056   2.909 -0.0964 -0.3954  0.8276
19962SOL    HW161893   2.537  10.145   2.937 -1.6045 -0.5534  2.7712
19962SOL    HW261894   2.569  10.000   2.966  1.1370 -0.7835 -0.6451
19963SOL     OW61895   4.999   0.819   1.636  0.3046 -1.0290 -0.1228
19963SOL    HW161896   4.962   0.756   1.574  3.2140 -2.2984 -0.7381
19963SOL    HW261897   5.082   0.780   1.664  0.6366  1.0173  2.1164
19964SOL     OW61898   4.770   9.917   3.835  0.5320  0.3706 -0.3386
19964SOL    HW161899   4.715   9.981   3.789  1.0454  1.8118  0.9757
19964SOL    HW261900   4.754   9.934   3.928  0.0057 -2.0421  0.0756
19965SOL     OW61901   5.770   0.102   4.631 -0.4629  0.2571 -0.1488
19965SOL    HW161902   5.777   0.098   4.726 -1.7408  2.9023  0.1529
19965SOL    HW261903   5.681   0.071   4.612  0.1777 -1.3773 -0.6394
19966SOL     OW61904   5.042   1.357   1.199 -0.8803  0.1522 -0.3182
19966SOL    HW161905   5.015   1.278   1.154 -0.2383 -0.4721  0.3674
19966SOL    HW261906   5.066   1.328   1.287  0.2141  0.9579 -0.3311
19967SOL     OW61907   5.198   6.727   7.314  0.1261  0.3667 -0.5837
19967SOL    HW161908   5.152   6.675   7.249 -0.2706  0.8127 -0.6662
19967SOL    HW261909   5.141   6.802   7.329  0.9926  1.1238 -0.9734
19968SOL     OW61910   8.201   2.845  10.851 -0.6448 -0.4092 -0.0520
19968SOL    HW161911   8.234   2.901  10.922 -2.6377  0.5547  0.1605
19968SOL    HW261912   8.226   2.891  10.771 -1.2216  0.1614  0.0960
19969SOL     OW61913   1.867   6.993   9.515  0.0489  0.5935 -0.4165
19969SOL    HW161914   1.942   6.976   9.459 -0.5473 -2.7216 -0.4067
19969SOL    HW261915   1.904   7.003   9.603  0.6464  2.0562 -0.7906
19970SOL     OW61916   3.281   7.793   5.486  0.7167  0.1017  0.3100
19970SOL    HW161917   3.345   7.864   5.479  2.2155 -1.1513  0.7020
19970SOL    HW261918   3.270   7.781   5.581  0.1956  0.0343  0.2430
19971SOL     OW61919   1.733   0.835  10.644  0.3864 -0.1792  0.3133
19971SOL    HW161920   1.704   0.832  10.735 -0.2995  1.1622  0.1675
19971SOL    HW261921   1.737   0.743  10.617  0.8124 -0.6096  1.7506
19972SOL     OW61922   5.665   7.008   7.265 -0.4898 -0.5894 -0.9452
19972SOL    HW161923   5.632   6.980   7.179 -0.9879  0.1604 -1.0104
19972SOL    HW261924   5.682   6.927   7.312  1.9164 -1.1033 -2.5236
19973SOL     OW61925   7.573   2.447   0.588 -0.3325  0.6628  0.4805
19973SOL    HW161926   7.636   2.519   0.585  1.5475 -0.8467  1.3476
19973SOL    HW261927   7.554   2.435   0.681  0.7744 -1.0225  0.5411
19974SOL     OW61928   8.101   7.205   3.007  0.0961  0.3448  0.0564
19974SOL    HW161929   8.072   7.285   3.052  0.4024  0.7150 -0.4012
19974SOL    HW261930   8.167   7.235   2.945  1.2083 -0.4322  0.8286
19975SOL     OW61931   3.227   4.069   9.842 -0.2484 -0.3153 -0.4003
19975SOL    HW161932   3.310   4.118   9.842 -0.1853 -0.4137 -1.1516
19975SOL    HW261933   3.252   3.982   9.874 -0.1187 -0.2488 -0.3174
19976SOL     OW61934   7.539   6.140   2.321 -0.1426 -0.0757  0.6078
19976SOL    HW161935   7.561   6.067   2.380  0.4971  0.4894  1.0918
19976SOL    HW261936   7.501   6.098   2.244 -0.7698 -0.8523  1.3189
19977SOL     OW61937   3.544   1.937   7.232 -0.4744 -0.0222  0.5571
19977SOL    HW161938   3.534   1.859   7.177  0.8663 -0.3319  0.7071
19977SOL    HW261939   3.508   1.912   7.317  0.5308 -0.7304  0.7983
19978SOL     OW61940   5.776  10.580  10.322 -0.0159  0.3773  0.4119
19978SOL    HW161941   5.871  10.577  10.321  0.0177  0.5336  1.8015
19978SOL    HW261942   5.749  10.491  10.297  0.4820  0.4056 -0.2454
19979SOL     OW61943   4.736   6.345   5.207 -0.0582  0.2246 -0.1861
19979SOL    HW161944   4.736   6.439   5.190  1.2310 -0.0387 -2.0169
19979SOL    HW261945   4.814   6.330   5.261  0.7343  0.0333 -1.3446
19980SOL     OW61946   2.820   8.039   7.361 -0.4784  0.0616  0.3870
19980SOL    HW161947   2.730   8.062   7.340 -0.3436 -0.2523 -0.5974
19980SOL    HW261948   2.849   7.985   7.288  0.6963  0.6337  0.3995
19981SOL     OW61949   4.839   5.451   3.687  0.0492 -0.6814  0.5159
19981SOL    HW161950   4.904   5.388   3.717  0.0450 -0.9083  0.0558
19981SOL    HW261951   4.861   5.532   3.733 -1.5916 -1.6440  3.2986
19982SOL     OW61952   6.548   8.952   5.366 -0.0758  0.0643 -0.7341
19982SOL    HW161953   6.472   8.910   5.326 -0.5361  0.8574 -0.7249
19982SOL    HW261954   6.623   8.915   5.320 -0.4942 -0.3982 -1.0570
19983SOL     OW61955   4.364  10.054   8.133  0.0752  0.2331  0.6379
19983SOL    HW161956   4.350  10.044   8.039 -0.9587  1.3442  0.6538
19983SOL    HW261957   4.418  10.132   8.142 -0.7183  0.7519  1.0076
19984SOL     OW61958   2.473   9.996   1.870  0.5327  0.2043  0.0678
19984SOL    HW161959   2.456   9.903   1.882 -0.9965  0.4053 -0.4034
19984SOL    HW261960   2.401  10.040   1.915  1.9780  1.2155  1.5157
19985SOL     OW61961   9.900   6.770   9.032  0.3759 -0.2341  0.0820
19985SOL    HW161962   9.810   6.785   9.060  1.2058  0.7378  2.6136
19985SOL    HW261963   9.905   6.808   8.945 -1.6832 -0.4888 -0.1984
19986SOL     OW61964   0.072   3.851   5.774  0.2762  0.3021 -0.7044
19986SOL    HW161965   0.105   3.763   5.756  1.0482  0.4912 -0.2438
19986SOL    HW261966   0.133   3.910   5.730  0.2692  0.6354 -0.2759
19987SOL     OW61967   3.957   8.880  10.231 -0.4895  0.1152 -0.0050
19987SOL    HW161968   3.980   8.806  10.174 -0.5357  1.4223 -1.7868
19987SOL    HW261969   3.896   8.843  10.294  0.7474 -1.7360  0.1810
19988SOL     OW61970   7.738   8.219   6.539  0.9121  0.1476  0.0729
19988SOL    HW161971   7.814   8.248   6.489  0.8415  0.4791  0.1562
19988SOL    HW261972   7.773   8.151   6.597  1.3265  0.8916  0.7176
19989SOL     OW61973   2.512  10.090   5.045 -0.1503  0.0020  0.3159
19989SOL    HW161974   2.541  10.051   4.963 -0.8691 -0.4778  0.2875
19989SOL    HW261975   2.483  10.178   5.021 -0.3107 -0.1205  0.0596
19990SOL     OW61976   4.221   5.081   4.546 -0.4246 -0.2211 -0.3512
19990SOL    HW161977   4.251   5.070   4.637  2.5327 -0.8423 -1.2789
19990SOL    HW261978   4.165   5.006   4.530  0.3805 -1.0306  0.4985
19991SOL     OW61979   3.168   7.731   3.526 -0.1698 -0.7658 -0.0335
19991SOL    HW161980   3.126   7.817   3.532  1.1035 -0.1391  0.2185
19991SOL    HW261981   3.101   7.670   3.556 -1.2131  0.0924 -0.5490
19992SOL     OW61982   1.094   6.473   8.613  1.0692  0.0111 -0.0761
19992SOL    HW161983   1.076   6.418   8.537  0.8279 -0.7306  0.5053
19992SOL    HW261984   1.184   6.502   8.601  0.2789  1.9286 -1.8834
19993SOL     OW61985   6.677   8.553   4.739  0.1375  0.3893  0.3306
19993SOL    HW161986   6.705   8.635   4.781  0.2072  0.1829  0.6827
19993SOL    HW261987   6.707   8.484   4.797 -0.3278  0.1262  0.2619
19994SOL     OW61988  10.232  10.826  10.353 -0.0331 -0.0941 -0.0771
19994SOL    HW161989  10.170  10.844  10.283 -0.3812 -0.3930  0.1501
19994SOL    HW261990  10.301  10.891  10.342  0.0728 -0.3307 -0.8867
19995SOL     OW61991   7.335   2.370   2.323  0.2042  0.7318  0.9809
19995SOL    HW161992   7.288   2.406   2.398 -2.0234  0.5459 -0.2560
19995SOL    HW261993   7.342   2.442   2.261  2.1622  0.9238  1.3513
19996SOL     OW61994   5.764   1.453   9.485  0.5057  0.4192 -0.3622
19996SOL    HW161995   5.754   1.490   9.573 -0.0485 -0.4309 -0.0469
19996SOL    HW261996   5.703   1.379   9.484  0.4879  0.4333 -1.4760
19997SOL     OW61997   2.870   9.842   1.282 -0.2850  0.3270  0.2310
19997SOL    HW161998   2.855   9.901   1.209 -0.8838  0.5949  0.5624
19997SOL    HW261999   2.784   9.805   1.302 -0.2943  0.8728  1.3074
19998SOL     OW62000   5.026   9.604   6.886 -0.1113 -0.0607 -0.1914
19998SOL    HW162001   5.083   9.658   6.941 -1.3253  0.2413  0.8347
19998SOL    HW262002   5.079   9.527   6.866  1.1112  0.7977 -0.3973
19999SOL     OW62003   7.150   1.174   6.910 -0.7577  0.3935  0.1632
19999SOL    HW162004   7.163   1.172   7.004  0.8623 -2.7061 -0.0017
19999SOL    HW262005   7.208   1.243   6.878 -2.2594  2.3507  1.4558
20000SOL     OW62006   7.033   1.299   7.428 -0.1131 -1.0087  0.2749
20000SOL    HW162007   7.007   1.277   7.338  0.5043  0.7599 -0.3859
20000SOL    HW262008   6.953   1.331   7.469 -0.2564 -1.1761  0.1251
20001SOL     OW62009   5.140   8.579   4.700  0.6919 -0.1861 -0.4464
20001SOL    HW162010   5.111   8.651   4.644  0.4090 -1.5370 -2.1372
20001SOL    HW262011   5.234   8.594   4.711  0.1742  2.1954  2.0236
20002SOL     OW62012   7.890   7.269   6.376  0.1971 -0.3106  0.1893
20002SOL    HW162013   7.804   7.283   6.337  0.0541 -0.3531  0.4906
20002SOL    HW262014   7.943   7.341   6.341 -0.0825 -0.0119  0.3712
20003SOL     OW62015   8.098   1.985   4.081 -0.0013 -0.1218  0.4168
20003SOL    HW162016   8.133   1.898   4.099 -0.0051 -0.0980  0.5418
20003SOL    HW262017   8.173   2.043   4.091  0.5233 -0.3264 -1.7638
20004SOL     OW62018   1.502   8.858   6.287  0.1948 -0.0213  0.3338
20004SOL    HW162019   1.525   8.930   6.228 -1.9988  0.6078  0.1467
20004SOL    HW262020   1.510   8.896   6.375  0.2005  0.0893  0.2857
20005SOL     OW62021   6.092  10.081   4.345 -0.3597 -0.1026  0.4132
20005SOL    HW162022   6.184  10.057   4.333 -0.0524  1.5708 -1.1267
20005SOL    HW262023   6.082  10.093   4.440  1.0390 -0.2251  0.5939
20006SOL     OW62024   1.281   0.789   5.214  0.5088  0.2542 -0.4594
20006SOL    HW162025   1.366   0.818   5.247 -0.3557  1.6287  0.6812
20006SOL    HW262026   1.249   0.864   5.163 -1.5103  1.2452  2.0407
20007SOL     OW62027   2.612   8.968   3.082 -0.4035  0.2493  0.2607
20007SOL    HW162028   2.545   8.970   3.150 -1.0595  0.4386 -0.3774
20007SOL    HW262029   2.656   8.884   3.093  0.7927  1.0474  2.1225
20008SOL     OW62030   6.667   9.997   7.681 -0.0862  0.2011  0.0131
20008SOL    HW162031   6.575  10.006   7.654  0.6199  0.5657 -2.4661
20008SOL    HW262032   6.687  10.081   7.723 -0.4345  0.7943 -0.9635
20009SOL     OW62033   7.078   5.072   6.380  0.6654 -0.5300  0.5486
20009SOL    HW162034   7.030   5.122   6.446  0.6027  0.7736 -0.4513
20009SOL    HW262035   7.070   4.981   6.409  1.1316  0.0446  2.6358
20010SOL     OW62036   2.158  10.536   1.285  0.3040  0.6572  0.5154
20010SOL    HW162037   2.074  10.535   1.239  0.3456 -0.1507  0.4464
20010SOL    HW262038   2.136  10.561   1.375  0.1504  1.6638  0.2116
20011SOL     OW62039   2.588   2.404   3.644  0.4524 -0.3803  0.2557
20011SOL    HW162040   2.671   2.390   3.599 -0.0097 -1.6078 -0.2754
20011SOL    HW262041   2.612   2.426   3.734  1.3497 -0.7396  0.1118
20012SOL     OW62042   9.162   8.593   0.424 -0.1540  0.4335 -0.0179
20012SOL    HW162043   9.073   8.612   0.454 -0.2612  0.1328 -0.1376
20012SOL    HW262044   9.150   8.565   0.333  0.0676  0.4232 -0.0429
20013SOL     OW62045   3.964   9.031   2.943  0.4581  0.1458  0.3430
20013SOL    HW162046   3.969   9.033   2.847  2.2438  1.1154  0.4214
20013SOL    HW262047   3.926   8.945   2.963  0.2735 -0.1685 -1.2079
20014SOL     OW62048   3.843   2.225   6.103 -0.5320 -0.6468  0.1757
20014SOL    HW162049   3.750   2.225   6.082 -0.2517 -0.4634 -1.1470
20014SOL    HW262050   3.881   2.160   6.044  0.2860 -0.1965  0.1901
20015SOL     OW62051   1.775  10.555   6.013 -1.3533 -0.2102  0.5132
20015SOL    HW162052   1.692  10.564   5.967 -1.9514  2.1425  1.8658
20015SOL    HW262053   1.751  10.556   6.106  0.1292 -0.4251  0.9246
20016SOL     OW62054   6.507   7.419   8.008  0.2267 -0.2162  0.6772
20016SOL    HW162055   6.559   7.430   8.088  0.0759 -1.2858  0.9309
20016SOL    HW262056   6.557   7.355   7.957 -0.4283 -0.6422  0.5669
20017SOL     OW62057   2.579   6.671   4.992  0.5400 -0.2733  0.3419
20017SOL    HW162058   2.673   6.673   4.972  0.3164 -0.3743 -0.7777
20017SOL    HW262059   2.571   6.603   5.059  1.6557  1.8644  2.8364
20018SOL     OW62060   4.641   1.897   8.205  0.0458 -0.5119 -0.1066
20018SOL    HW162061   4.671   1.807   8.217 -0.6454 -0.6674  0.5286
20018SOL    HW262062   4.608   1.900   8.115 -0.1274 -0.9569 -0.0615
20019SOL     OW62063   3.022   5.036   2.746 -0.3113 -0.5285 -0.1997
20019SOL    HW162064   3.014   4.981   2.824  1.2146  2.1420  2.0640
20019SOL    HW262065   3.116   5.049   2.735 -0.5775  2.0403 -0.1706
20020SOL     OW62066  10.564   5.718   2.372  0.4307 -0.2003 -0.0697
20020SOL    HW162067  10.530   5.770   2.446 -0.3385  0.2433 -0.7192
20020SOL    HW262068  10.487   5.698   2.320  1.1380  0.8837 -1.6168
20021SOL     OW62069   1.429   8.503   6.535 -0.1203 -0.4070 -0.2531
20021SOL    HW162070   1.482   8.516   6.457 -0.1451 -0.0477 -0.2112
20021SOL    HW262071   1.394   8.590   6.555 -0.2979 -0.5410  0.0233
20022SOL     OW62072   1.473   9.235   3.057  0.1923  0.1683  0.4075
20022SOL    HW162073   1.429   9.312   3.022  0.0355 -0.2695 -0.3668
20022SOL    HW262074   1.404   9.169   3.063  0.7963 -0.6530 -1.1997
20023SOL     OW62075   9.145   8.488   9.196  0.4082 -0.0836 -0.2405
20023SOL    HW162076   9.139   8.402   9.153 -0.2227 -1.3631  2.1987
20023SOL    HW262077   9.190   8.470   9.279  0.7696  2.0600  0.0814
20024SOL     OW62078   4.104   7.988   1.259  0.0569 -0.3417 -0.4403
20024SOL    HW162079   4.030   7.993   1.321  0.7181  1.3166  0.2602
20024SOL    HW262080   4.177   7.958   1.312  0.4228  0.2553 -0.5995
20025SOL     OW62081  10.756   4.838   6.913  0.4204 -0.0140  0.8414
20025SOL    HW162082  10.735   4.895   6.838  0.4181 -0.4283  0.5221
20025SOL    HW262083  10.819   4.775   6.877  0.3375 -0.2787  1.1651
20026SOL     OW62084   2.552   8.048   7.293 -0.5318 -0.7642 -0.1241
20026SOL    HW162085   2.606   8.076   7.218 -0.7542 -0.3952 -0.1476
20026SOL    HW262086   2.469   8.019   7.253 -0.9379  0.1596  0.0411
20027SOL     OW62087   1.299  10.110   4.675  0.3248 -0.6690  0.5174
20027SOL    HW162088   1.341  10.149   4.598  1.0276  0.2983  1.3458
20027SOL    HW262089   1.363  10.046   4.707 -0.2045 -1.4778  0.0009
20028SOL     OW62090   1.100   4.127   3.666 -0.5098  0.8115  0.0662
20028SOL    HW162091   1.191   4.155   3.659 -0.7079  1.3557 -0.4190
20028SOL    HW262092   1.083   4.080   3.584 -0.8934  1.4031 -0.2014
20029SOL     OW62093   6.043   8.731  10.700 -0.3515  0.3597  0.1578
20029SOL    HW162094   6.133   8.704  10.716 -0.3268 -1.3880 -2.3716
20029SOL    HW262095   5.994   8.650  10.689 -2.1815  1.2808  1.0014
20030SOL     OW62096   1.863   0.901   7.624 -0.1052  0.2298  0.2843
20030SOL    HW162097   1.902   0.985   7.600 -0.6249  0.0633 -1.2439
20030SOL    HW262098   1.874   0.846   7.547 -0.1624 -0.9822  1.1100
20031SOL     OW62099   8.748  11.022   6.831 -0.2160  0.2027  0.0950
20031SOL    HW162100   8.710  11.056   6.912 -0.4168  0.7004 -0.2077
20031SOL    HW262101   8.804  11.092   6.799  0.1121 -0.1132 -0.0379
20032SOL     OW62102  10.274   7.129   2.661 -0.1303  0.6829  0.0687
20032SOL    HW162103  10.202   7.084   2.704 -0.7539  0.6190 -0.9957
20032SOL    HW262104  10.233   7.177   2.589  0.9381  0.1963 -0.9016
20033SOL     OW62105   5.698   4.095   9.322 -0.1278  0.0574  0.6323
20033SOL    HW162106   5.701   4.084   9.417 -0.2221  0.0558  0.6352
20033SOL    HW262107   5.760   4.029   9.289  0.0422  0.1820  0.7017
20034SOL     OW62108  10.533   9.048   1.880  0.2212 -0.1565 -0.7647
20034SOL    HW162109  10.530   8.971   1.823 -1.4181 -1.3095  0.7617
20034SOL    HW262110  10.442   9.077   1.886  0.3411 -0.0480  1.1806
20035SOL     OW62111   5.409  10.365   9.745 -0.3557 -0.2587  0.7138
20035SOL    HW162112   5.328  10.396   9.784 -0.5516 -0.3682  0.3894
20035SOL    HW262113   5.383  10.326   9.662  0.0179 -0.3630  0.6437
20036SOL     OW62114   7.288  10.783   8.450  0.6844 -0.1173  0.5661
20036SOL    HW162115   7.358  10.782   8.515  1.1750 -0.8661  0.0505
20036SOL    HW262116   7.261  10.691   8.443  1.4625 -0.2631 -1.1232
20037SOL     OW62117   2.488  10.026   2.237 -0.0175 -0.4699  0.0323
20037SOL    HW162118   2.566  10.056   2.190  0.2441 -1.5807 -0.2645
20037SOL    HW262119   2.517   9.947   2.282 -0.3710  0.3429  1.7700
20038SOL     OW62120   0.589   9.309   1.206  0.0529 -0.7484 -0.1629
20038SOL    HW162121   0.521   9.358   1.160  2.1695  3.4278  0.5979
20038SOL    HW262122   0.544   9.268   1.280 -1.8231  1.0176 -0.2375
20039SOL     OW62123   1.379   9.589   3.811 -0.0719  0.0693  0.9019
20039SOL    HW162124   1.338   9.518   3.761 -0.8195  0.9575  0.2169
20039SOL    HW262125   1.351   9.575   3.901  0.7222 -1.1552  0.9797
20040SOL     OW62126   0.621   9.274   1.631 -0.0910 -0.0973  0.0139
20040SOL    HW162127   0.541   9.292   1.582 -0.0949 -0.8926 -0.2806
20040SOL    HW262128   0.591   9.243   1.716 -0.1329 -1.8438 -0.6077
20041SOL     OW62129   0.427   5.929   3.692 -0.0122 -0.3302 -0.0622
20041SOL    HW162130   0.455   5.904   3.780 -0.8173  0.8077  0.5369
20041SOL    HW262131   0.363   5.863   3.668  1.1730 -1.4192 -0.3677
20042SOL     OW62132   9.311   8.347   7.590 -0.2173  0.2664  0.0643
20042SOL    HW162133   9.371   8.276   7.615  0.8057  0.9110 -0.4775
20042SOL    HW262134   9.284   8.386   7.673 -0.8017 -0.7609  0.3682
20043SOL     OW62135   2.141  10.513   7.151  0.2035  0.2281  0.9626
20043SOL    HW162136   2.174  10.430   7.116 -0.9823  0.4088 -0.7291
20043SOL    HW262137   2.217  10.555   7.191  0.6591 -2.0454  2.7160
20044SOL     OW62138   6.616   9.669   2.885  0.6069  0.1761  0.3640
20044SOL    HW162139   6.676   9.731   2.928  1.1963 -0.9806  1.2617
20044SOL    HW262140   6.620   9.693   2.792  2.9444 -0.2229  0.2900
20045SOL     OW62141   5.147   9.847  10.393  0.2693  0.4369  0.3332
20045SOL    HW162142   5.094   9.835  10.314 -0.0768  1.0908  0.4623
20045SOL    HW262143   5.134   9.938  10.418  0.9845  0.4437  0.7164
20046SOL     OW62144   0.265   3.931   9.375  0.0122  0.0965 -0.7113
20046SOL    HW162145   0.199   3.879   9.422 -0.9225 -0.0688 -2.1509
20046SOL    HW262146   0.331   3.951   9.441 -0.9586 -0.6322  0.5226
20047SOL     OW62147   0.230   1.521   2.114 -0.5321 -0.3377 -0.8473
20047SOL    HW162148   0.226   1.591   2.179 -1.0014  0.8385 -2.0786
20047SOL    HW262149   0.321   1.494   2.113 -0.3560  0.2153 -0.2793
20048SOL     OW62150   9.306   8.432   2.763  0.2821 -0.2665  0.4193
20048SOL    HW162151   9.381   8.413   2.819  0.1828  0.8306  0.9671
20048SOL    HW262152   9.257   8.499   2.812 -0.3701 -0.0554 -0.5021
20049SOL     OW62153   7.192   6.728   9.496  0.0350  0.6917 -0.0432
20049SOL    HW162154   7.166   6.738   9.405 -0.1938  1.4868  0.1057
20049SOL    HW262155   7.178   6.814   9.536 -0.8710  0.0969  1.0010
20050SOL     OW62156   4.307   1.003   9.044  0.1711  0.3382  0.3888
20050SOL    HW162157   4.316   0.961   9.130  1.5452  0.0478  0.1229
20050SOL    HW262158   4.380   1.063   9.039 -0.4229  1.0263 -0.2257
20051SOL     OW62159   1.539   9.151   7.146  0.3266 -0.2723  0.3370
20051SOL    HW162160   1.487   9.158   7.066  0.7669 -2.7869 -0.2628
20051SOL    HW262161   1.540   9.240   7.183 -1.6302  0.5063 -1.3295
20052SOL     OW62162   8.268   2.049   2.033 -0.2604 -0.2363  0.1851
20052SOL    HW162163   8.178   2.019   2.047 -0.2944  0.4749  1.6616
20052SOL    HW262164   8.295   2.084   2.118  0.5589  1.8254 -0.8582
20053SOL     OW62165   5.800   5.596   6.256  0.0621  0.4915  0.3793
20053SOL    HW162166   5.802   5.673   6.199 -0.1906  0.5762  0.4828
20053SOL    HW262167   5.884   5.598   6.302 -0.5567  1.5544  1.4917
20054SOL     OW62168   3.555   1.240   5.373  0.2715  0.1996  0.0376
20054SOL    HW162169   3.517   1.252   5.286  0.7998 -0.4590 -0.2875
20054SOL    HW262170   3.598   1.155   5.370 -2.0266 -1.1587  1.8014
20055SOL     OW62171   5.619  10.018   1.171 -0.2560 -0.0308 -0.9394
20055SOL    HW162172   5.550   9.979   1.225  1.2366  1.6336  2.5426
20055SOL    HW262173   5.672   9.944   1.142 -0.3805 -1.0126  1.1195
20056SOL     OW62174   1.164   1.311   2.425  0.2664 -0.2563  0.3281
20056SOL    HW162175   1.124   1.284   2.342  0.2577 -0.0344  0.2588
20056SOL    HW262176   1.258   1.310   2.407  0.2202  2.1812 -0.4636
20057SOL     OW62177   7.365   9.243   9.356  0.0765  0.6110  0.2632
20057SOL    HW162178   7.426   9.298   9.306  2.0784 -1.2476  0.5056
20057SOL    HW262179   7.376   9.156   9.320 -0.7944 -0.1933  1.8195
20058SOL     OW62180   4.813   1.931   3.840  0.0872  0.5724  1.0450
20058SOL    HW162181   4.781   1.856   3.889  0.0673 -0.5235 -0.5657
20058SOL    HW262182   4.877   1.895   3.779 -0.5833  1.6921 -0.3977
20059SOL     OW62183   2.566   0.210  10.137  0.4026  0.8098  0.3000
20059SOL    HW162184   2.539   0.301  10.128  1.1305  0.8080 -4.2435
20059SOL    HW262185   2.656   0.215  10.169 -0.2107  1.5054  2.0175
20060SOL     OW62186   1.185   8.347   3.083  0.1276 -0.0940  0.0624
20060SOL    HW162187   1.118   8.343   3.151  1.5029  1.8198  1.6638
20060SOL    HW262188   1.154   8.414   3.022 -0.1951 -0.4281 -0.1445
20061SOL     OW62189   1.980   9.944   7.599  0.1878 -0.3233  0.3855
20061SOL    HW162190   1.918   9.977   7.535  0.9241  0.5158  0.0837
20061SOL    HW262191   1.927   9.929   7.678 -0.2606  1.2515  0.4262
20062SOL     OW62192   2.766   6.101   0.911  0.1849  0.3628 -0.6714
20062SOL    HW162193   2.852   6.107   0.869  0.0429 -0.3037 -1.0820
20062SOL    HW262194   2.767   6.015   0.954 -0.5773 -0.0255 -1.3958
20063SOL     OW62195   5.750  10.718   9.845 -0.2096  0.0073 -0.0922
20063SOL    HW162196   5.724  10.628   9.868  0.8651 -0.0778  0.8419
20063SOL    HW262197   5.792  10.709   9.760  0.3526 -0.4652  0.2266
20064SOL     OW62198   3.404   8.785   9.443 -0.0576 -0.3750  0.1711
20064SOL    HW162199   3.460   8.754   9.514 -0.8007 -1.0229  0.4855
20064SOL    HW262200   3.319   8.801   9.484 -0.4106 -0.4703 -0.5089
20065SOL     OW62201   4.010   6.629   2.886 -0.6706 -0.2899 -0.0835
20065SOL    HW162202   3.978   6.710   2.925  1.0974  1.0156 -1.2032
20065SOL    HW262203   4.082   6.602   2.944 -0.5230 -0.4235 -0.3254
20066SOL     OW62204   7.475  10.225   1.871 -0.6643  0.5579  0.3782
20066SOL    HW162205   7.547  10.198   1.928 -1.7974  0.8912  2.0513
20066SOL    HW262206   7.433  10.297   1.917 -1.3770  1.1412 -1.1168
20067SOL     OW62207   8.364   1.195   4.504 -0.3706  0.2401 -0.2097
20067SOL    HW162208   8.355   1.179   4.598 -2.4388 -0.1162 -0.4208
20067SOL    HW262209   8.457   1.186   4.487 -0.0696 -0.6140  1.6474
20068SOL     OW62210   4.656   8.814   4.569 -0.4330 -0.5702  0.6464
20068SOL    HW162211   4.694   8.863   4.642  0.6416 -0.5189  0.0795
20068SOL    HW262212   4.563   8.833   4.572 -0.1081  1.1322  0.7350
20069SOL     OW62213   8.402   7.415   8.941 -0.7641 -0.5528 -0.0379
20069SOL    HW162214   8.419   7.502   8.978 -2.3912 -0.1507 -0.1612
20069SOL    HW262215   8.367   7.364   9.015 -0.6917 -0.8128 -0.1821
20070SOL     OW62216   5.073   8.861   5.976  0.8003  0.1249  0.0977
20070SOL    HW162217   4.984   8.832   5.955  1.1084 -1.9773  1.4642
20070SOL    HW262218   5.062   8.944   6.022 -0.4049  0.1373 -0.1996
20071SOL     OW62219   0.531   7.280   1.773 -0.2353  0.2591 -0.4124
20071SOL    HW162220   0.596   7.313   1.835 -0.4156  0.0717 -0.1197
20071SOL    HW262221   0.489   7.358   1.738 -1.3934  0.3296  1.0636
20072SOL     OW62222   0.824   7.092   2.386 -0.0249 -0.3710 -0.2914
20072SOL    HW162223   0.895   7.073   2.324  0.7146  1.5945 -0.1448
20072SOL    HW262224   0.827   7.187   2.396 -2.0121 -0.3623  0.5636
20073SOL     OW62225   8.005   0.237   5.697  0.1681  0.0240  0.0248
20073SOL    HW162226   8.014   0.332   5.707  1.2450 -0.0410 -0.2474
20073SOL    HW262227   8.017   0.203   5.786  0.4555  0.0968  0.0147
20074SOL     OW62228   2.083   9.374   2.275 -0.5544  0.1608 -0.3277
20074SOL    HW162229   2.114   9.298   2.225 -2.6219 -0.4490 -0.7956
20074SOL    HW262230   2.147   9.384   2.345  0.2747 -1.4641 -0.7886
20075SOL     OW62231   9.773   1.660   2.840 -0.0573 -0.7416  0.2385
20075SOL    HW162232   9.682   1.652   2.813 -0.1668 -5.3573  1.2173
20075SOL    HW262233   9.769   1.714   2.919 -1.1897  2.7937 -1.9989
20076SOL     OW62234   5.305   8.637   5.744 -0.8138  0.0288  0.3485
20076SOL    HW162235   5.313   8.553   5.699  2.2717  0.4797 -0.1825
20076SOL    HW262236   5.293   8.701   5.673  2.2707  0.5411  0.1643
20077SOL     OW62237   1.001   6.758   9.929 -0.4516 -0.2271  0.1369
20077SOL    HW162238   0.968   6.669   9.923 -1.1440 -0.1013  1.5614
20077SOL    HW262239   0.968   6.790  10.014  0.5329  1.0650  0.0634
20078SOL     OW62240   4.109  10.715   5.447 -0.1026 -0.2514  0.1008
20078SOL    HW162241   4.189  10.686   5.402  0.5599 -0.2341  1.2480
20078SOL    HW262242   4.045  10.645   5.429 -0.1793  0.2199 -1.6851
20079SOL     OW62243   7.302   4.048   2.021  0.1306  0.1896  0.2386
20079SOL    HW162244   7.306   4.138   1.989  0.0189  0.5750  1.2676
20079SOL    HW262245   7.225   4.011   1.978 -1.3575  1.3938  1.7016
20080SOL     OW62246   7.288   7.364   3.702  0.0269 -0.5211  0.4627
20080SOL    HW162247   7.254   7.401   3.783  1.3098  0.7703  0.4524
20080SOL    HW262248   7.216   7.310   3.668 -1.7894  1.5578  0.7683
20081SOL     OW62249   0.686   9.462   0.454  0.0524  0.0834 -0.0289
20081SOL    HW162250   0.683   9.506   0.369  0.9204  1.9843  0.8624
20081SOL    HW262251   0.599   9.474   0.490 -0.3932 -0.9384 -0.7279
20082SOL     OW62252   9.823   9.127   2.865 -0.4147  0.0289 -0.2158
20082SOL    HW162253   9.766   9.059   2.899 -3.1418  2.0602 -0.3643
20082SOL    HW262254   9.779   9.209   2.888  3.0358  1.8781  0.6447
20083SOL     OW62255   4.505   7.600   6.215 -0.6421 -0.1582 -0.3949
20083SOL    HW162256   4.580   7.586   6.272  0.0932  0.5801 -1.1327
20083SOL    HW262257   4.536   7.574   6.128 -0.9145  1.0399 -0.8762
20084SOL     OW62258   9.645   9.747   1.936  0.4426 -0.2544  0.4356
20084SOL    HW162259   9.590   9.783   1.867  0.9376  0.9090  0.6231
20084SOL    HW262260   9.654   9.654   1.914 -0.3737 -0.1470 -0.4007
20085SOL     OW62261   1.822   5.377   7.288 -0.4267  0.0134  0.2169
20085SOL    HW162262   1.859   5.351   7.204  1.6468  0.0254  1.0728
20085SOL    HW262263   1.860   5.462   7.306 -0.0097 -0.4409  1.6254
20086SOL     OW62264   6.220   5.183   9.345  0.5785  0.0362  0.3260
20086SOL    HW162265   6.205   5.130   9.267  1.2600 -0.2461  0.3810
20086SOL    HW262266   6.174   5.266   9.327 -2.1415 -1.2011  1.0158
20087SOL     OW62267   7.559   5.821   6.108  0.9098 -0.0127 -0.0421
20087SOL    HW162268   7.484   5.864   6.149  0.1432 -1.8990  0.6897
20087SOL    HW262269   7.541   5.825   6.014  0.0310 -0.1505  0.1075
20088SOL     OW62270   5.093   8.678   7.428 -0.2322 -0.2774  1.2749
20088SOL    HW162271   5.008   8.644   7.400 -0.0253 -0.3721  0.7472
20088SOL    HW262272   5.082   8.696   7.521 -0.5601 -1.1264  1.4066
20089SOL     OW62273   9.622   4.243   3.178 -0.3138  0.0613  0.0436
20089SOL    HW162274   9.610   4.163   3.128 -0.2798 -0.2087  0.4598
20089SOL    HW262275   9.601   4.218   3.268 -0.3676  0.5365  0.1639
20090SOL     OW62276   5.085   8.008   3.464  0.2715  0.4370  0.3568
20090SOL    HW162277   5.145   8.016   3.538  1.5879 -0.9407 -0.5168
20090SOL    HW262278   5.142   7.997   3.388 -1.0763 -0.1233 -0.6119
20091SOL     OW62279   3.462   1.141   0.235 -0.3021 -0.1766  0.0336
20091SOL    HW162280   3.428   1.077   0.172 -0.3453  0.5874 -0.7409
20091SOL    HW262281   3.553   1.154   0.211 -0.8796  1.8005 -1.3681
20092SOL     OW62282   5.844   6.786   3.019 -0.0258 -0.1917 -0.4650
20092SOL    HW162283   5.857   6.737   3.100  0.6145  1.4652  0.4765
20092SOL    HW262284   5.812   6.872   3.047  3.5595  1.7506 -1.6025
20093SOL     OW62285   0.193   0.720  10.734  0.5277  0.3083 -0.1330
20093SOL    HW162286   0.205   0.788  10.801 -0.9014  0.0516  0.4259
20093SOL    HW262287   0.106   0.685  10.752  1.0636 -1.3779 -0.6844
20094SOL     OW62288   5.907   3.362   5.745  0.0375 -0.2956  0.2184
20094SOL    HW162289   5.840   3.295   5.733 -0.6143  0.2835  0.5578
20094SOL    HW262290   5.858   3.444   5.751  0.7724  0.1283  0.5463
20095SOL     OW62291   8.377   5.289   4.713 -0.1857 -0.2022  0.1347
20095SOL    HW162292   8.310   5.352   4.686  1.2667  0.8287 -1.2567
20095SOL    HW262293   8.346   5.205   4.679 -0.7371  0.2819 -0.5822
20096SOL     OW62294   7.736   9.109   1.439 -0.5967  0.0972  0.2447
20096SOL    HW162295   7.689   9.035   1.478 -1.3505  0.5654  0.2384
20096SOL    HW262296   7.672   9.152   1.383  0.3742 -0.3583 -1.2810
20097SOL     OW62297   2.085   0.041   9.802 -0.3522  0.3522  0.0629
20097SOL    HW162298   2.029   0.118   9.814 -1.1037  0.6601 -4.0791
20097SOL    HW262299   2.094   0.033   9.707  4.5128 -1.2792  0.4144
20098SOL     OW62300   9.491   9.368   2.696  0.0901 -0.0380 -0.3592
20098SOL    HW162301   9.421   9.314   2.734 -0.2059  0.4482 -0.2039
20098SOL    HW262302   9.461   9.458   2.709 -0.7067  0.1629 -2.9644
20099SOL     OW62303   3.433   7.798   3.537 -0.1709 -0.1877 -0.4561
20099SOL    HW162304   3.457   7.773   3.448 -1.6868  2.9433 -1.9074
20099SOL    HW262305   3.342   7.772   3.546  0.2851 -1.4766  0.6307
20100SOL     OW62306   0.094  10.188   4.226  0.2320  0.0964  0.0854
20100SOL    HW162307   0.023  10.240   4.263  1.1438  1.1418  0.4374
20100SOL    HW262308   0.156  10.253   4.193  0.8734 -0.7955 -0.4917
20101SOL     OW62309   9.413   6.401   2.604 -0.3037 -0.3576  0.2832
20101SOL    HW162310   9.466   6.357   2.537 -0.3353 -1.7159  1.1169
20101SOL    HW262311   9.380   6.330   2.659  0.3047  0.7747  2.1776
20102SOL     OW62312   0.095   5.546   3.366 -0.0907  0.3512  0.3441
20102SOL    HW162313   0.090   5.595   3.284 -1.2476 -0.9031 -0.3827
20102SOL    HW262314   0.012   5.564   3.410 -1.1126 -1.9060 -0.5423
20103SOL     OW62315   1.356   3.054   4.221 -0.3239  0.2527  0.1013
20103SOL    HW162316   1.447   3.074   4.242  0.0975 -0.4553 -0.9335
20103SOL    HW262317   1.316   3.026   4.303  0.5722 -0.0371  0.4405
20104SOL     OW62318   4.326   1.954   3.411  0.1183 -0.1133 -0.1420
20104SOL    HW162319   4.255   1.930   3.472 -0.1062  2.0245  0.5037
20104SOL    HW262320   4.403   1.909   3.446 -0.8210 -2.3521 -0.7591
20105SOL     OW62321   4.263   0.666   9.717 -0.3506 -0.0580  0.1845
20105SOL    HW162322   4.206   0.682   9.792 -2.1298  0.8904 -1.3089
20105SOL    HW262323   4.208   0.683   9.641  2.0034  1.1084 -1.3451
20106SOL     OW62324   2.382   7.071   0.518  0.2462 -0.0969 -0.2154
20106SOL    HW162325   2.294   7.037   0.502  0.2176 -1.0400  1.7010
20106SOL    HW262326   2.440   7.002   0.483  0.1935 -0.6289  0.7126
20107SOL     OW62327   8.450   9.820   8.998  0.2504  0.6376  0.5119
20107SOL    HW162328   8.506   9.893   8.972 -0.1605  0.8150  0.0958
20107SOL    HW262329   8.382   9.860   9.053 -0.0449  0.5945  0.1841
20108SOL     OW62330   1.940   6.941   8.922  0.3798  0.1388 -0.0899
20108SOL    HW162331   1.975   7.022   8.886 -0.2695  0.3589 -0.2447
20108SOL    HW262332   1.881   6.908   8.854  1.2210 -0.8639 -0.3471
20109SOL     OW62333   3.800   2.950   5.544 -0.0176  0.1673 -0.2557
20109SOL    HW162334   3.838   3.035   5.566  0.6055 -0.6348  2.0196
20109SOL    HW262335   3.712   2.971   5.514  0.1633  1.6233  0.1240
20110SOL     OW62336   0.841   2.825   2.935 -0.1350 -0.0122 -0.0404
20110SOL    HW162337   0.877   2.907   2.970  0.9927 -0.8294  0.7893
20110SOL    HW262338   0.878   2.757   2.992 -1.9731 -1.0170  0.0176
20111SOL     OW62339   3.348   5.019   4.666 -0.7085  0.4233 -0.1576
20111SOL    HW162340   3.365   4.938   4.618  0.4618  1.4200 -1.4973
20111SOL    HW262341   3.435   5.051   4.690 -1.1406  1.3861  0.1751
20112SOL     OW62342  10.251   7.241   7.289 -0.5870  0.1525 -0.2407
20112SOL    HW162343  10.318   7.212   7.351 -0.7750  0.6884  0.2195
20112SOL    HW262344  10.284   7.324   7.254 -0.9247  0.3281 -0.1477
20113SOL     OW62345   7.596  10.650   4.558 -0.4091 -0.2399 -0.4255
20113SOL    HW162346   7.600  10.685   4.648 -0.2376 -0.6229 -0.2827
20113SOL    HW262347   7.537  10.710   4.512  0.4995  0.7050 -0.3905
20114SOL     OW62348  10.015   9.302   3.909  0.2054 -0.3394 -0.1463
20114SOL    HW162349   9.945   9.365   3.925 -0.2868 -0.4035 -1.8404
20114SOL    HW262350  10.087   9.354   3.874  0.7621 -0.3796  0.8936
20115SOL     OW62351   8.568   9.903   8.531 -0.7634  0.1588  0.7164
20115SOL    HW162352   8.496   9.841   8.524 -1.0478  0.3420  1.7332
20115SOL    HW262353   8.532   9.987   8.502  0.6949 -0.7360 -4.6435
20116SOL     OW62354   1.004   9.853   6.877  0.4275 -0.0123  0.0762
20116SOL    HW162355   0.958   9.903   6.944  0.6182  0.5502 -0.2079
20116SOL    HW262356   0.994   9.762   6.904  0.1724  0.1848  0.6580
20117SOL     OW62357   7.004   2.721  10.699 -0.1056 -0.6843  0.2329
20117SOL    HW162358   7.090   2.687  10.724 -0.0056 -0.5252  0.1056
20117SOL    HW262359   6.988   2.684  10.612  0.8201  1.0378 -0.7295
20118SOL     OW62360   7.126   3.783   2.112 -0.8226  0.0955  0.2172
20118SOL    HW162361   7.125   3.832   2.194  1.5624  1.2775 -0.3797
20118SOL    HW262362   7.104   3.848   2.045  3.0799  0.7356 -0.6703
20119SOL     OW62363   4.878   8.756   8.374 -0.4240  0.6219 -0.3058
20119SOL    HW162364   4.787   8.785   8.369 -1.8644 -3.1640  0.6926
20119SOL    HW262365   4.899   8.757   8.467  0.0991  0.2747 -0.4126
20120SOL     OW62366   5.125   8.217   8.461 -0.9804 -0.5689 -0.4200
20120SOL    HW162367   5.055   8.177   8.409 -1.1657 -0.7366 -0.0508
20120SOL    HW262368   5.080   8.253   8.537 -0.7852  0.1681 -0.6497
20121SOL     OW62369   1.569   2.665   3.777  0.1192  0.1060  0.1265
20121SOL    HW162370   1.496   2.721   3.802  0.9114  0.1122  2.7459
20121SOL    HW262371   1.528   2.583   3.748 -0.9389  0.7408 -0.2139
20122SOL     OW62372   1.982  10.117   8.314  0.0353 -0.1732 -0.1532
20122SOL    HW162373   1.972  10.047   8.379  0.6611  0.6500  0.8590
20122SOL    HW262374   2.045  10.082   8.251  2.4837  0.4049  1.7987
20123SOL     OW62375   4.009   0.454   5.028  0.4267 -0.5801  0.0732
20123SOL    HW162376   4.014   0.524   5.093  0.6260 -0.2612 -0.2891
20123SOL    HW262377   3.987   0.376   5.080  0.2002 -0.2557  0.4758
20124SOL     OW62378   0.988   4.860   2.236 -0.4322  0.1507  0.3036
20124SOL    HW162379   1.051   4.791   2.254 -0.8511 -0.6977 -1.3371
20124SOL    HW262380   0.999   4.881   2.144 -0.4052  2.2174  0.7157
20125SOL     OW62381   2.905   5.670   1.634 -0.3052  0.7583  0.2377
20125SOL    HW162382   2.855   5.589   1.646  0.0563  0.5419  0.2780
20125SOL    HW262383   2.839   5.735   1.610 -0.5724  0.4068  0.0148
20126SOL     OW62384   9.507  10.572   7.819  0.2670  0.3686 -1.1088
20126SOL    HW162385   9.433  10.511   7.820 -0.1610  0.8873 -0.2824
20126SOL    HW262386   9.472  10.651   7.779  0.1246  0.9079  0.0466
20127SOL     OW62387   5.652   1.116   4.577  0.1047 -0.4637  0.1937
20127SOL    HW162388   5.557   1.116   4.583  0.0833 -2.5789  0.5808
20127SOL    HW262389   5.681   1.080   4.661  1.4228  2.7500  1.2585
20128SOL     OW62390   3.122   9.692  10.259 -0.6327  0.1143  0.5696
20128SOL    HW162391   3.123   9.723  10.168 -1.1137 -0.3950  0.3820
20128SOL    HW262392   3.192   9.741  10.302  0.7331 -0.8268 -0.4884
20129SOL     OW62393   2.740   3.604   9.771  0.3088  0.9769 -0.7176
20129SOL    HW162394   2.705   3.617   9.859  0.9286  0.9836 -0.4670
20129SOL    HW262395   2.797   3.680   9.757  0.6580  0.6825 -0.9011
20130SOL     OW62396   7.503   0.620   5.115 -0.6541 -0.0358 -0.4415
20130SOL    HW162397   7.465   0.585   5.195 -0.0038 -0.4020 -0.2846
20130SOL    HW262398   7.489   0.714   5.121  1.0791  0.1950  1.0507
20131SOL     OW62399   1.012   7.295   6.406 -0.2162 -0.2326 -0.2292
20131SOL    HW162400   1.012   7.219   6.349  0.8367 -1.4759  1.3431
20131SOL    HW262401   0.920   7.311   6.426 -0.4034 -1.9136  0.4157
20132SOL     OW62402   1.739   8.397   4.200 -0.1655 -0.3230  0.0560
20132SOL    HW162403   1.694   8.348   4.130  1.9977 -2.4701  0.0276
20132SOL    HW262404   1.759   8.331   4.266  2.3283  0.5767  0.3248
20133SOL     OW62405   3.430   0.050   5.502 -0.6402  0.0097 -0.2028
20133SOL    HW162406   3.512   0.015   5.467  1.0497  1.0547  2.4019
20133SOL    HW262407   3.418   0.133   5.456  1.3376  1.1869  1.2322
20134SOL     OW62408   7.288   3.059   8.809 -0.4768  0.7883  0.0344
20134SOL    HW162409   7.306   3.014   8.727  0.7372  1.2477  0.0207
20134SOL    HW262410   7.308   3.151   8.790  0.7032  0.7761  1.0648
20135SOL     OW62411   5.013   1.136   3.574 -0.3838 -0.4984  0.1654
20135SOL    HW162412   5.075   1.143   3.501  0.2418 -0.7143  0.6728
20135SOL    HW262413   4.930   1.113   3.532  0.0668 -1.0488 -0.4451
20136SOL     OW62414   4.607   1.761   9.002 -0.3233 -0.0737  0.2238
20136SOL    HW162415   4.693   1.723   9.020 -0.0549  0.0171 -0.7569
20136SOL    HW262416   4.563   1.764   9.086  0.5703 -0.2995  0.7096
20137SOL     OW62417   5.216   5.971   5.899  0.9782 -0.0221 -0.4101
20137SOL    HW162418   5.260   5.957   5.815  2.3482  1.5422 -0.0001
20137SOL    HW262419   5.284   5.955   5.965 -0.0838 -1.2605  0.4449
20138SOL     OW62420   0.713   4.802   7.558 -0.2173  0.0906 -0.9005
20138SOL    HW162421   0.789   4.843   7.600 -0.3260 -0.8731  0.2870
20138SOL    HW262422   0.717   4.710   7.585 -1.8077  0.0208 -0.8042
20139SOL     OW62423   7.458   6.692   9.569 -0.5066  1.1556 -0.0403
20139SOL    HW162424   7.388   6.751   9.541 -2.5180  0.5367  3.0771
20139SOL    HW262425   7.496   6.734   9.646  0.7496  0.2100 -0.1014
20140SOL     OW62426   6.421   9.032   8.856 -0.1033 -0.4618 -0.3112
20140SOL    HW162427   6.369   8.952   8.860  1.4219 -1.5082 -0.6891
20140SOL    HW262428   6.509   9.005   8.880  0.3033  1.2768  0.3452
20141SOL     OW62429   5.285   1.986   4.955  0.1539 -0.5751  0.5576
20141SOL    HW162430   5.304   2.027   5.039  0.0279  0.7824 -0.0518
20141SOL    HW262431   5.206   1.934   4.970 -0.1143  0.0028  1.1665
20142SOL     OW62432   8.264   3.068   3.437 -0.2492  0.2246 -0.2449
20142SOL    HW162433   8.215   3.086   3.357 -1.7884 -1.1433  0.3243
20142SOL    HW262434   8.203   3.090   3.507  1.1145  1.4993  0.5882
20143SOL     OW62435   8.155   9.718   4.729  0.0989 -0.3644 -0.0411
20143SOL    HW162436   8.145   9.772   4.651 -0.4496 -1.5987 -0.8618
20143SOL    HW262437   8.066   9.703   4.760  0.3143  0.1081  0.8224
20144SOL     OW62438   3.168   6.230  10.544  0.4824  0.2201 -0.1943
20144SOL    HW162439   3.167   6.268  10.456 -0.0389 -0.2938 -0.4146
20144SOL    HW262440   3.080   6.244  10.578  0.4224 -0.3699 -0.0942
20145SOL     OW62441   3.187   0.406   1.116 -0.4453 -0.0914  0.2762
20145SOL    HW162442   3.097   0.415   1.085  0.0870  0.1730 -1.2839
20145SOL    HW262443   3.186   0.326   1.169 -1.0565 -1.6721 -1.9716
20146SOL     OW62444   4.850   7.608   6.294 -0.3608  0.3429  0.2676
20146SOL    HW162445   4.798   7.556   6.355  0.9473  1.1247  2.1335
20146SOL    HW262446   4.898   7.544   6.242 -0.5599 -0.3319  0.9054
20147SOL     OW62447  10.765   7.404   4.124  0.1208 -0.0318 -0.0341
20147SOL    HW162448  10.840   7.449   4.162 -0.9524  2.8935 -1.1394
20147SOL    HW262449  10.774   7.418   4.029 -1.0317 -0.9673 -0.3171
20148SOL     OW62450   5.548   7.951   8.761  0.4897  0.0788  0.1823
20148SOL    HW162451   5.551   7.858   8.784 -2.0782 -0.8318 -2.4995
20148SOL    HW262452   5.552   7.996   8.845  0.9558 -2.4800  1.6523
20149SOL     OW62453   5.437   8.359   8.799 -0.0970  0.0340  0.2819
20149SOL    HW162454   5.530   8.381   8.799  0.0293 -0.4246  1.8498
20149SOL    HW262455   5.421   8.320   8.884 -0.9846 -3.1693 -1.2057
20150SOL     OW62456   2.386  10.102   1.060 -0.3468  0.3580  0.0199
20150SOL    HW162457   2.387  10.171   1.126  1.7141  0.1669  0.2563
20150SOL    HW262458   2.448  10.131   0.993 -0.6690 -0.5227 -0.6926
20151SOL     OW62459   5.884   6.509   2.681  0.2145  0.0249  0.6426
20151SOL    HW162460   5.980   6.511   2.681  0.2219 -0.3131  1.2479
20151SOL    HW262461   5.861   6.472   2.595  0.6156  0.4401  0.3524
20152SOL     OW62462   5.900   2.072   8.739 -0.4826 -0.1459 -0.3458
20152SOL    HW162463   5.895   2.155   8.692  0.5673 -0.8519 -1.7997
20152SOL    HW262464   5.991   2.043   8.727 -1.1496 -2.1427 -1.1106
20153SOL     OW62465  10.645  10.746   9.187  0.0538  0.0231  0.2343
20153SOL    HW162466  10.628  10.778   9.098  1.6547 -0.1071 -0.1633
20153SOL    HW262467  10.689  10.662   9.173 -1.0620 -0.7448  1.1985
20154SOL     OW62468   2.955   3.905   5.233  0.2546 -0.3727  0.4377
20154SOL    HW162469   2.992   3.924   5.319 -0.9628  0.4675  0.8105
20154SOL    HW262470   2.888   3.972   5.221  0.1764 -0.6800 -1.0286
20155SOL     OW62471   0.010  10.214   4.874 -0.1209  0.4054  0.0287
20155SOL    HW162472  -0.061  10.152   4.891 -0.3035  0.5633 -0.1455
20155SOL    HW262473   0.015  10.268   4.953  0.0199  0.1878  0.1699
20156SOL     OW62474   0.903   8.984   6.785  0.0529  0.1428 -0.1571
20156SOL    HW162475   0.962   9.034   6.842 -1.1469 -1.3953  2.6090
20156SOL    HW262476   0.949   8.901   6.771 -0.2895 -0.0273 -0.2706
20157SOL     OW62477   2.357   4.773   0.124  0.4372  0.3040  0.1710
20157SOL    HW162478   2.343   4.837   0.194 -0.5206  2.4471 -1.8280
20157SOL    HW262479   2.411   4.820   0.060 -0.2556 -0.8971 -1.3553
20158SOL     OW62480   0.758  10.961   2.704 -0.3302 -0.5101 -0.8327
20158SOL    HW162481   0.663  10.960   2.695 -0.4088  1.4012 -0.5827
20158SOL    HW262482   0.782  11.053   2.696  1.5315 -0.9785 -1.0780
20159SOL     OW62483   7.778   1.338  10.135 -0.5388  0.1324 -0.3099
20159SOL    HW162484   7.771   1.431  10.154 -0.6907  0.1539 -0.4749
20159SOL    HW262485   7.859   1.330  10.084  0.5372 -0.0807  1.3363
20160SOL     OW62486   6.392   5.665   5.739  0.4135  0.0491 -0.1228
20160SOL    HW162487   6.407   5.570   5.739  3.2267  0.4099 -0.2946
20160SOL    HW262488   6.391   5.689   5.832  0.9315 -0.0294 -0.0895
20161SOL     OW62489   8.414   7.123   9.860 -0.5388 -0.2069  0.1240
20161SOL    HW162490   8.356   7.047   9.861 -0.8827  0.0471 -0.0942
20161SOL    HW262491   8.404   7.163   9.946 -1.6664  0.5551 -0.3350
20162SOL     OW62492   6.043   6.968   2.269  0.3238  0.2154 -0.2184
20162SOL    HW162493   6.070   7.003   2.185 -0.1146 -0.8101 -0.8034
20162SOL    HW262494   6.021   7.046   2.321 -0.0844  0.8401 -1.2818
20163SOL     OW62495  10.513   9.115   1.025 -0.0339 -0.4589 -0.8622
20163SOL    HW162496  10.572   9.041   1.039 -1.9571 -1.7471  1.1736
20163SOL    HW262497  10.446   9.082   0.965  1.2158  1.0108 -3.2154
20164SOL     OW62498   5.367  10.202   3.289  0.3201 -0.8184 -0.3667
20164SOL    HW162499   5.389  10.287   3.252  0.7406 -0.6342  0.2934
20164SOL    HW262500   5.353  10.146   3.213  1.4499 -0.5240 -0.8050
20165SOL     OW62501   1.571   2.741   8.034  0.2313  0.3734  0.0793
20165SOL    HW162502   1.506   2.758   8.102  0.6390  0.5556  0.4271
20165SOL    HW262503   1.526   2.761   7.952 -0.2149  0.2997  0.3047
20166SOL     OW62504   4.682  10.727   7.926 -0.1563  0.2644  0.3570
20166SOL    HW162505   4.751  10.735   7.992 -0.5626  1.0222  0.7068
20166SOL    HW262506   4.728  10.738   7.843 -0.0366  2.4067  0.6371
20167SOL     OW62507   9.596  10.351   6.998  0.0300  0.2458  0.1428
20167SOL    HW162508   9.504  10.376   7.011 -0.5202 -0.6322 -1.7559
20167SOL    HW262509   9.609  10.277   7.058 -0.3002  0.7847  0.8937
20168SOL     OW62510   3.241  10.233  10.257  0.7933 -0.4421  0.6362
20168SOL    HW162511   3.261  10.147  10.222 -0.8274 -1.6807  2.5591
20168SOL    HW262512   3.149  10.228  10.284 -0.1462  2.6917 -1.3779
20169SOL     OW62513   1.511  10.617   1.464 -0.2429  0.3471 -0.6286
20169SOL    HW162514   1.523  10.622   1.559 -1.3164  1.4035 -0.5156
20169SOL    HW262515   1.565  10.688   1.429 -0.6960  0.6680 -0.6950
20170SOL     OW62516   2.062   7.135   2.319  0.1538 -0.1006 -0.0193
20170SOL    HW162517   1.997   7.069   2.343 -1.7707  1.8719  0.5483
20170SOL    HW262518   2.070   7.191   2.397  2.5359 -0.2066 -0.0952
20171SOL     OW62519   5.431   8.933   7.193 -0.1870  0.4877  0.0165
20171SOL    HW162520   5.505   8.881   7.163 -1.3071 -0.4429 -1.2790
20171SOL    HW262521   5.469   9.015   7.223  1.5556 -0.6955  1.2731
20172SOL     OW62522   1.684  10.788   7.269  0.1361  0.3077 -0.1038
20172SOL    HW162523   1.730  10.870   7.253 -0.4984  0.8834  0.8675
20172SOL    HW262524   1.705  10.733   7.194  0.7418  1.2836 -0.6694
20173SOL     OW62525   3.344   9.983   5.533  0.0364  0.3955 -0.3669
20173SOL    HW162526   3.327  10.077   5.536  0.0044  0.3761  0.2226
20173SOL    HW262527   3.388   9.969   5.449  1.0155  1.1087  0.0040
20174SOL     OW62528   8.096   2.420   8.500  0.2244  0.3219 -0.0600
20174SOL    HW162529   8.097   2.371   8.417 -0.1225 -1.0710  0.7231
20174SOL    HW262530   8.187   2.446   8.513  0.0511  1.9316 -1.6193
20175SOL     OW62531   2.232  10.360   9.688  0.1442 -0.0809 -0.7586
20175SOL    HW162532   2.246  10.284   9.633 -0.5743 -0.0362 -1.0206
20175SOL    HW262533   2.145  10.391   9.663 -0.5024 -0.4817  0.9080
20176SOL     OW62534   7.165   3.028   7.015 -0.1364 -0.4943 -0.5609
20176SOL    HW162535   7.138   2.975   6.940  1.1322 -0.8831 -0.7631
20176SOL    HW262536   7.236   2.978   7.055 -0.1351  0.1921  0.3234
20177SOL     OW62537   1.579   7.934   5.195 -0.0721 -0.2608  0.9154
20177SOL    HW162538   1.490   7.965   5.215 -0.9666 -0.2060 -2.4601
20177SOL    HW262539   1.577   7.840   5.214 -2.0577 -0.9851 -2.1112
20178SOL     OW62540   6.269   4.964   3.884  0.0813 -0.3439  0.0671
20178SOL    HW162541   6.331   5.020   3.836  0.1030  0.8104  1.3828
20178SOL    HW262542   6.324   4.902   3.931  0.3976  1.3392  2.0709
20179SOL     OW62543   5.596   7.941   3.089 -0.5379  0.2569 -0.0606
20179SOL    HW162544   5.619   8.002   3.019 -0.6194 -0.7449 -0.9795
20179SOL    HW262545   5.523   7.890   3.054 -0.7025 -0.1414  0.8296
20180SOL     OW62546   3.682  10.111   1.511 -0.0067  0.2538  0.2251
20180SOL    HW162547   3.734  10.031   1.504 -1.8276 -0.7964 -2.7033
20180SOL    HW262548   3.601  10.084   1.554 -0.0843  0.8553  0.4724
20181SOL     OW62549   5.206   8.961   9.293 -0.2652 -0.0683  0.2452
20181SOL    HW162550   5.130   8.914   9.260 -1.5228  1.2051  1.2327
20181SOL    HW262551   5.190   9.052   9.268  2.1275 -0.0584 -1.6613
20182SOL     OW62552   6.521   2.593   9.745  0.1884 -0.2312  0.7320
20182SOL    HW162553   6.535   2.626   9.656 -1.7143 -0.9667  0.0984
20182SOL    HW262554   6.592   2.529   9.758  1.9216  1.5848  0.7296
20183SOL     OW62555   1.749   6.771   6.668  0.4697  0.4036 -0.1451
20183SOL    HW162556   1.774   6.850   6.717  1.1766  0.7726 -1.0781
20183SOL    HW262557   1.832   6.735   6.636 -0.0693  1.8655 -3.6438
20184SOL     OW62558   4.294   0.714   7.522 -0.0464 -0.3507 -0.7187
20184SOL    HW162559   4.352   0.689   7.451  0.6979 -0.7732  0.0201
20184SOL    HW262560   4.334   0.792   7.560  0.4249 -1.0342  0.2237
20185SOL     OW62561   8.719   7.828  10.930  0.2248  0.0860  0.0944
20185SOL    HW162562   8.802   7.841  10.884  0.2797 -2.4375 -0.6729
20185SOL    HW262563   8.744   7.797  11.017  0.0772  0.1316  0.1544
20186SOL     OW62564   9.030   5.795   2.610 -0.0851 -0.2451  0.4289
20186SOL    HW162565   8.990   5.713   2.640  0.7342 -0.2568  1.5786
20186SOL    HW262566   9.033   5.788   2.515  1.1027 -2.1221  0.5546
20187SOL     OW62567   3.824   5.842   9.326 -0.2899  0.2342  0.6965
20187SOL    HW162568   3.848   5.893   9.402  0.6743  0.7219  0.0822
20187SOL    HW262569   3.779   5.765   9.361  1.6726 -0.4229  1.8734
20188SOL     OW62570   4.764   5.841   7.881  0.0049  0.5116  0.1032
20188SOL    HW162571   4.839   5.896   7.860 -0.6563  1.1543 -0.6731
20188SOL    HW262572   4.719   5.829   7.797 -1.4158  1.1591  0.7309
20189SOL     OW62573   2.769   8.739   8.520 -0.3500  0.0117 -0.3268
20189SOL    HW162574   2.769   8.661   8.464 -0.3837  0.7913 -1.4336
20189SOL    HW262575   2.859   8.772   8.515 -0.5944  0.6353 -0.7163
20190SOL     OW62576   7.707  10.254   0.249  0.0391 -0.0881 -0.3428
20190SOL    HW162577   7.785  10.203   0.226 -0.7531 -1.4693 -0.0844
20190SOL    HW262578   7.646  10.236   0.178 -0.6377 -0.3775  0.3021
20191SOL     OW62579   9.050   7.057   3.644  0.5988 -0.9353  0.5101
20191SOL    HW162580   9.051   7.078   3.738  0.9423 -0.1749  0.3453
20191SOL    HW262581   9.109   6.983   3.635  0.9939 -0.6620  0.8226
20192SOL     OW62582   6.181   3.590   4.922  0.1039  0.4339  0.6194
20192SOL    HW162583   6.116   3.590   4.852 -0.0704  1.3516  0.7678
20192SOL    HW262584   6.254   3.539   4.887 -0.6457 -0.5420  0.4245
20193SOL     OW62585   4.051   3.607   8.021  0.0608  0.6799  0.1491
20193SOL    HW162586   4.023   3.522   8.055  0.1103 -0.0674 -1.6028
20193SOL    HW262587   4.143   3.614   8.045 -0.3802  1.0956  1.8922
20194SOL     OW62588   5.784   2.423  10.690 -0.4465 -0.3349  0.2697
20194SOL    HW162589   5.819   2.398  10.605  0.1292 -0.0894  0.4361
20194SOL    HW262590   5.702   2.469  10.670 -0.8443 -1.1707 -0.0993
20195SOL     OW62591   7.451   5.537   2.423  0.2130  0.0645  0.2175
20195SOL    HW162592   7.373   5.504   2.467 -0.1227 -0.9136 -1.0737
20195SOL    HW262593   7.520   5.530   2.489 -0.2289 -1.5656  0.5485
20196SOL     OW62594   8.072  10.016   1.648  0.6150 -0.1129 -0.0484
20196SOL    HW162595   8.160  10.044   1.675  1.1386 -0.7693 -1.0381
20196SOL    HW262596   8.067   9.924   1.675  0.4389 -0.2330 -0.4922
20197SOL     OW62597   5.064   5.894   8.906 -0.3670  0.3493 -0.6595
20197SOL    HW162598   4.976   5.860   8.895 -0.8942  1.0102  1.0616
20197SOL    HW262599   5.052   5.988   8.921  0.6066  0.4325 -0.3107
20198SOL     OW62600   2.763   5.262   9.505  0.0931 -0.4654  0.4277
20198SOL    HW162601   2.764   5.283   9.412 -0.2906 -0.1901  0.4839
20198SOL    HW262602   2.854   5.274   9.533 -0.0798  1.0829  0.4320
20199SOL     OW62603   8.607   3.967   6.704  0.1862  0.4410  0.2929
20199SOL    HW162604   8.596   4.058   6.729  1.0337 -0.1020  2.9404
20199SOL    HW262605   8.679   3.967   6.641  0.6765  1.5357  0.8380
20200SOL     OW62606   2.040  10.113   3.872 -0.8536 -0.0338  0.1624
20200SOL    HW162607   2.124  10.121   3.827 -2.0430 -0.5080 -2.3530
20200SOL    HW262608   2.049  10.037   3.929  0.5916  0.2790  0.3740
20201SOL     OW62609   1.662   4.740   7.842  0.3002 -0.2657 -0.6900
20201SOL    HW162610   1.682   4.833   7.853 -1.2326  0.1444 -1.1756
20201SOL    HW262611   1.624   4.733   7.755 -0.7063 -1.1414 -0.2099
20202SOL     OW62612   5.991   5.678   0.795 -0.3242  0.4945  0.5155
20202SOL    HW162613   6.067   5.662   0.851 -1.0546 -1.2558  1.0672
20202SOL    HW262614   5.973   5.593   0.754 -1.1114  1.2289 -0.7265
20203SOL     OW62615   4.443  10.426  10.572  0.3238 -0.5649  0.0252
20203SOL    HW162616   4.506  10.487  10.611 -0.1909 -0.8153  1.3334
20203SOL    HW262617   4.413  10.469  10.492  1.7621 -0.2145 -0.3458
20204SOL     OW62618   4.561  10.159  10.120  0.4001 -0.0685  0.8596
20204SOL    HW162619   4.479  10.110  10.122  0.6907 -0.5492  2.5737
20204SOL    HW262620   4.583  10.166  10.027 -2.0515  0.9222  0.2944
20205SOL     OW62621   3.694   9.138   5.202 -0.2388  0.2218  0.0022
20205SOL    HW162622   3.678   9.230   5.221  0.4719  0.2594  0.4227
20205SOL    HW262623   3.784   9.135   5.171 -0.2176 -0.3567  0.1167
20206SOL     OW62624   3.494   8.983   5.754  0.2776  0.2621 -0.3442
20206SOL    HW162625   3.413   9.010   5.797 -0.1519  1.0432 -1.5933
20206SOL    HW262626   3.478   8.892   5.728  0.2790  0.0152  0.5003
20207SOL     OW62627   4.446   8.336   8.450 -0.2785 -0.1381 -0.4388
20207SOL    HW162628   4.467   8.279   8.376 -0.6576 -0.3568 -0.3814
20207SOL    HW262629   4.452   8.279   8.526  0.0692  0.0778 -0.3022
20208SOL     OW62630   0.375   8.966   2.348  0.1167  0.4005  0.5585
20208SOL    HW162631   0.378   8.874   2.322 -1.4717 -0.1256  2.0463
20208SOL    HW262632   0.283   8.992   2.337  0.1375  1.2111  1.9971
20209SOL     OW62633   1.323   9.203   6.456 -0.0418  0.3714  0.1648
20209SOL    HW162634   1.287   9.219   6.369 -1.7241 -0.1862  0.7162
20209SOL    HW262635   1.410   9.168   6.440  0.1233  1.3720 -1.2516
20210SOL     OW62636   2.970   5.549   9.201 -0.1626 -0.6661 -0.2954
20210SOL    HW162637   2.945   5.603   9.126 -0.9236  0.2578  0.6112
20210SOL    HW262638   2.945   5.600   9.278  0.1272 -1.8229  0.5976
20211SOL     OW62639   3.957   9.011   1.839 -0.1750 -0.1439 -0.0967
20211SOL    HW162640   3.926   9.037   1.752 -1.1254 -0.2686  0.1838
20211SOL    HW262641   3.881   9.024   1.896 -0.7836 -3.4859  0.0774
20212SOL     OW62642   3.980   5.575   9.710  0.5467  0.0496 -0.4789
20212SOL    HW162643   3.987   5.560   9.615 -0.8126 -1.5788 -0.3747
20212SOL    HW262644   3.887   5.590   9.724  0.2885 -2.5020  0.9217
20213SOL     OW62645   2.866   6.863   8.380 -0.3782  0.1834  0.5725
20213SOL    HW162646   2.870   6.873   8.285 -0.8096 -0.5141  0.4715
20213SOL    HW262647   2.828   6.945   8.411  1.8474  1.3412  0.3640
20214SOL     OW62648   2.210   6.798   6.381  0.0640 -0.0413  0.2397
20214SOL    HW162649   2.135   6.843   6.341 -0.0755 -0.4661  0.0212
20214SOL    HW262650   2.268   6.869   6.410  0.6178  0.2823 -1.5607
20215SOL     OW62651   5.452   3.698  10.176  0.4422  0.0793  0.0665
20215SOL    HW162652   5.438   3.751  10.255  0.1279  1.4617 -0.8965
20215SOL    HW262653   5.530   3.646  10.197  1.3805  1.6505  0.6785
20216SOL     OW62654   7.634   7.096   4.956 -0.0975  0.6658 -0.2517
20216SOL    HW162655   7.564   7.152   4.924 -1.4015 -0.2206  0.9358
20216SOL    HW262656   7.609   7.008   4.929  1.6106  0.5314 -1.5563
20217SOL     OW62657   5.879   5.208   3.041  0.4089 -0.0899 -0.1461
20217SOL    HW162658   5.786   5.186   3.050  0.9637 -1.9838  1.7330
20217SOL    HW262659   5.879   5.296   3.003 -2.0893 -0.6953 -1.7505
20218SOL     OW62660   5.070   9.129   1.314  0.5269 -0.1254 -0.2669
20218SOL    HW162661   4.983   9.107   1.346  0.5320 -0.9414 -0.7752
20218SOL    HW262662   5.090   9.060   1.251  1.1850  0.5322 -0.7965
20219SOL     OW62663   2.886   7.123  10.669 -0.4874  0.5200 -0.4760
20219SOL    HW162664   2.879   7.145  10.761  0.7977 -0.0822 -0.2107
20219SOL    HW262665   2.814   7.062  10.653 -0.9788  0.9619  0.0055
20220SOL     OW62666   4.724  10.310   7.515 -0.1403  0.1124  0.4531
20220SOL    HW162667   4.756  10.335   7.602  1.2282 -0.3993  0.1266
20220SOL    HW262668   4.694  10.220   7.526 -0.2163  0.1368  0.4493
20221SOL     OW62669   5.919  10.018   6.495 -0.0605 -0.2696  0.1316
20221SOL    HW162670   5.852   9.956   6.468  0.8470 -0.2754 -2.4518
20221SOL    HW262671   5.977   9.968   6.553  0.3454 -1.7375 -1.4571
20222SOL     OW62672   5.777   9.405   4.033  0.2231 -0.3819  0.4919
20222SOL    HW162673   5.815   9.388   4.119  2.0508  1.1069  0.0478
20222SOL    HW262674   5.852   9.424   3.977 -1.1044  2.0283 -0.6301
20223SOL     OW62675   7.321   5.174   8.348  0.0555  0.4885  0.3879
20223SOL    HW162676   7.397   5.171   8.405  0.4789 -0.1629 -0.1956
20223SOL    HW262677   7.282   5.087   8.354 -0.1668  0.5611  0.0454
20224SOL     OW62678   5.070  11.001   8.109 -0.0964  0.3685  0.7880
20224SOL    HW162679   5.084  10.995   8.203 -0.9173  0.3973  0.9233
20224SOL    HW262680   5.145  10.957   8.070  1.4856  2.4261  1.3774
20225SOL     OW62681   1.771   9.117   7.893 -0.0867 -0.2536 -0.1516
20225SOL    HW162682   1.733   9.177   7.830  2.3122  1.1498 -0.3959
20225SOL    HW262683   1.814   9.050   7.840 -1.4974 -1.4278  0.1106
20226SOL     OW62684   3.983  10.331   1.169 -0.0018  0.2648 -0.0133
20226SOL    HW162685   3.924  10.286   1.109  0.7525  1.0736 -1.4450
20226SOL    HW262686   4.043  10.379   1.111  1.9842 -0.4181  1.3551
20227SOL     OW62687   6.915  10.071   4.870  0.1021 -0.4672  0.7814
20227SOL    HW162688   6.839  10.129   4.859  1.5696  1.7715  1.5812
20227SOL    HW262689   6.983  10.111   4.815  1.5579 -0.6873  2.3619
20228SOL     OW62690   2.230   0.116  10.003 -0.3809  0.0733  0.2310
20228SOL    HW162691   2.151   0.146  10.048  0.3975  1.8793  0.4405
20228SOL    HW262692   2.198   0.086   9.917 -1.1353  2.2662 -0.3048
20229SOL     OW62693   3.938   6.118   9.022  0.3058 -0.0209 -0.1920
20229SOL    HW162694   3.847   6.126   8.993  0.0064 -0.4351  0.6042
20229SOL    HW262695   3.966   6.208   9.039  0.3663  0.1988 -1.3489
20230SOL     OW62696   7.967   7.182  10.886 -0.0514 -0.2557  0.5120
20230SOL    HW162697   8.037   7.154  10.945  0.6364  1.4177  0.5603
20230SOL    HW262698   8.012   7.237  10.821 -1.4338  1.9837  1.3112
20231SOL     OW62699   5.738   0.096   9.444  0.2519  0.0375 -0.4588
20231SOL    HW162700   5.770   0.115   9.356 -1.9961  1.2742 -1.0948
20231SOL    HW262701   5.739   0.001   9.450 -0.0607 -0.1007 -2.0536
20232SOL     OW62702   2.225   8.680   7.808  0.1443  0.0810 -0.0115
20232SOL    HW162703   2.254   8.759   7.763 -2.7007  1.0050 -0.4348
20232SOL    HW262704   2.202   8.619   7.738  0.8095 -0.5360  0.2968
20233SOL     OW62705   0.205   9.876   2.953  0.0636  0.0319 -0.2783
20233SOL    HW162706   0.132   9.855   3.011 -0.2885  1.4742 -0.1730
20233SOL    HW262707   0.169   9.936   2.888  0.7254 -0.6788 -1.3422
20234SOL     OW62708   5.674  10.533   5.154  1.1506  0.0016 -0.7396
20234SOL    HW162709   5.632  10.448   5.170  0.7313  0.5778  1.6385
20234SOL    HW262710   5.717  10.523   5.069 -0.0064 -2.1272 -1.1534
20235SOL     OW62711   2.890   8.493   9.098  0.0348 -0.5164  0.3889
20235SOL    HW162712   2.852   8.473   9.013  0.4299 -1.3373  0.3879
20235SOL    HW262713   2.892   8.408   9.143  0.8051 -0.2883  0.8078
20236SOL     OW62714   4.840   1.159  10.060 -0.5451 -0.3581  0.5270
20236SOL    HW162715   4.872   1.115   9.981  0.7544 -0.4070  1.0593
20236SOL    HW262716   4.881   1.245  10.058 -1.1691 -0.0516  0.7301
20237SOL     OW62717   9.733   9.533   9.820  0.2059 -0.5923 -0.1705
20237SOL    HW162718   9.751   9.439   9.816  1.6133 -0.4151  0.9855
20237SOL    HW262719   9.730   9.553   9.914 -1.3520  0.3120 -0.3882
20238SOL     OW62720   3.067   5.176   0.685 -0.3804  0.7878  0.2494
20238SOL    HW162721   3.059   5.205   0.775  0.2760 -1.2585  1.0315
20238SOL    HW262722   2.996   5.113   0.673  0.5197 -0.2115 -0.0823
20239SOL     OW62723   7.440  10.823   0.518 -0.2645 -0.5050  0.4595
20239SOL    HW162724   7.371  10.788   0.462  0.9644  0.8139 -2.0482
20239SOL    HW262725   7.418  10.916   0.527  0.8391 -0.1926  0.1002
20240SOL     OW62726   0.425  10.111   4.512  0.8490 -0.4189 -0.3874
20240SOL    HW162727   0.494  10.164   4.473 -0.5587  0.7702 -1.4152
20240SOL    HW262728   0.365  10.094   4.439 -0.6200 -0.2380  0.7389
20241SOL     OW62729   1.507   3.616   0.152 -0.5811 -0.2282 -0.2650
20241SOL    HW162730   1.479   3.689   0.097  0.2516  0.0697 -0.3144
20241SOL    HW262731   1.591   3.645   0.188 -0.3968 -1.0327 -0.0319
20242SOL     OW62732   5.596   7.499   0.305 -0.5289 -0.5521  1.0588
20242SOL    HW162733   5.573   7.426   0.246  3.2172 -1.1989  0.0905
20242SOL    HW262734   5.586   7.577   0.251 -0.6204 -0.7691  0.7554
20243SOL     OW62735   1.928   5.192   8.307  0.5452  0.3246 -0.1938
20243SOL    HW162736   1.964   5.104   8.319 -1.8330 -0.7120 -0.2677
20243SOL    HW262737   1.978   5.246   8.369  3.5035 -0.5754 -1.5983
20244SOL     OW62738  10.381   8.499  10.230 -0.0306 -0.4054 -0.0351
20244SOL    HW162739  10.432   8.452  10.297 -0.1091  2.3757  2.1583
20244SOL    HW262740  10.436   8.496  10.152  1.9508 -0.4251  1.2908
20245SOL     OW62741   7.256   8.409   9.429 -0.2900 -0.1411 -0.0455
20245SOL    HW162742   7.210   8.454   9.500  1.5926 -1.0190  1.8246
20245SOL    HW262743   7.348   8.416   9.452  0.3156 -1.3796 -1.8777
20246SOL     OW62744   7.074   8.168  10.844 -0.3078  0.1884 -0.2589
20246SOL    HW162745   7.149   8.115  10.872 -0.7741  0.6972  2.1952
20246SOL    HW262746   7.028   8.113  10.781  1.0849 -0.9182 -0.3568
20247SOL     OW62747   9.884   6.571   0.427 -0.4864 -0.1054 -0.0871
20247SOL    HW162748   9.795   6.560   0.460 -0.1481 -1.3014  0.5086
20247SOL    HW262749   9.908   6.661   0.450 -2.2489  0.9621 -2.0995
20248SOL     OW62750   8.153   8.210   2.345  0.2859  0.2593  0.1530
20248SOL    HW162751   8.065   8.177   2.328  0.1675 -0.0905  1.3278
20248SOL    HW262752   8.198   8.137   2.388  0.6437  0.9443  0.9880
20249SOL     OW62753   1.340   0.201   3.254  0.1998  0.2423 -1.0758
20249SOL    HW162754   1.265   0.210   3.313  1.5275 -0.4347  0.8168
20249SOL    HW262755   1.318   0.128   3.197 -0.3374 -0.3236 -0.1549
20250SOL     OW62756   3.743   4.822  10.943 -0.2505 -0.4098 -0.6222
20250SOL    HW162757   3.664   4.837  10.995 -0.3771 -0.3137 -0.8409
20250SOL    HW262758   3.717   4.757  10.877 -0.1974 -0.2437 -0.8076
20251SOL     OW62759   3.997   7.116   5.523  0.0991 -0.0142 -0.1745
20251SOL    HW162760   4.001   7.117   5.427  1.6866 -3.6335 -0.2906
20251SOL    HW262761   4.043   7.036   5.548 -1.5816  0.0207  3.6002
20252SOL     OW62762   1.485   3.769   5.770 -0.1690 -0.2684 -0.2127
20252SOL    HW162763   1.577   3.749   5.787 -0.1736 -0.3756 -0.3126
20252SOL    HW262764   1.468   3.733   5.683 -0.0966  0.4266 -0.5271
20253SOL     OW62765   9.086   0.093  10.540 -0.0854 -0.0088 -0.3977
20253SOL    HW162766   9.034   0.112  10.461  0.6114 -1.0844 -1.1462
20253SOL    HW262767   9.090  -0.003  10.543 -1.5973 -0.0881  1.9722
20254SOL     OW62768   6.881  10.637   9.876  0.6104  0.5280  0.1023
20254SOL    HW162769   6.848  10.727   9.877  0.1821  0.4323 -1.8244
20254SOL    HW262770   6.816  10.588   9.826  1.9673 -0.3625 -0.8835
20255SOL     OW62771   5.763   0.279   8.233 -0.1918 -0.6457  0.1075
20255SOL    HW162772   5.836   0.338   8.250  1.1831 -2.1864 -0.1990
20255SOL    HW262773   5.764   0.217   8.306 -1.5397 -0.4051  0.3698
20256SOL     OW62774   8.634  10.374   0.091  0.2388 -0.0273  0.0230
20256SOL    HW162775   8.653  10.460   0.052  0.3656  0.9946  2.1721
20256SOL    HW262776   8.653  10.386   0.184 -1.1288 -1.9836  0.6119
20257SOL     OW62777  10.503   6.537   8.574 -0.4881 -0.1165 -0.4279
20257SOL    HW162778  10.545   6.614   8.537  0.9996  0.8197  2.8733
20257SOL    HW262779  10.560   6.464   8.549  0.0132  0.3489 -0.6529
20258SOL     OW62780   8.178   0.089   7.965 -0.3469 -0.4650 -0.2997
20258SOL    HW162781   8.260   0.043   7.982 -0.3229 -0.2842  0.0908
20258SOL    HW262782   8.135   0.038   7.897  0.1389 -0.5025 -0.5849
20259SOL     OW62783   7.801   2.745   2.405 -0.3581  0.3700  0.1792
20259SOL    HW162784   7.781   2.658   2.440 -0.3473  0.6605  0.9251
20259SOL    HW262785   7.889   2.763   2.437 -0.5801  0.8936  0.4995
20260SOL     OW62786   0.631   0.921   9.921 -0.0372 -0.1803  0.1172
20260SOL    HW162787   0.671   0.835   9.937 -0.8006 -1.1767 -2.7294
20260SOL    HW262788   0.705   0.982   9.924  0.6248 -0.9863  1.4705
20261SOL     OW62789   1.159   1.148   7.102  0.5119 -0.0736 -0.7786
20261SOL    HW162790   1.146   1.218   7.038 -2.0302  0.7911  0.5611
20261SOL    HW262791   1.219   1.186   7.166 -1.7171  1.4377  0.5467
20262SOL     OW62792   1.981   7.240   6.998 -0.7648  0.0503  0.3592
20262SOL    HW162793   2.055   7.183   7.020 -0.1319  0.4248 -0.7465
20262SOL    HW262794   1.904   7.183   7.002 -0.5184 -0.2055  2.1282
20263SOL     OW62795   1.331   9.801   7.192  0.1002 -0.7204 -0.2925
20263SOL    HW162796   1.390   9.867   7.156  1.3372 -1.9929 -0.7027
20263SOL    HW262797   1.300   9.838   7.274  0.8562  0.3082 -0.4607
20264SOL     OW62798   7.683   1.761   3.658 -0.2457  0.2815 -0.1008
20264SOL    HW162799   7.610   1.740   3.599  0.1315 -0.8355 -0.1898
20264SOL    HW262800   7.708   1.850   3.635 -0.7655  0.2164 -0.9379
20265SOL     OW62801  10.035   1.054   6.868  0.9671  0.0130  0.1812
20265SOL    HW162802  10.046   1.000   6.946 -0.0729 -1.0609 -0.3786
20265SOL    HW262803  10.114   1.039   6.817  0.2970 -1.7835 -0.4095
20266SOL     OW62804  10.800   2.353   3.826 -0.5472  0.3613  0.0032
20266SOL    HW162805  10.766   2.352   3.736 -0.5525  0.3515  0.0054
20266SOL    HW262806  10.857   2.276   3.830 -2.6308 -1.2444  0.8178
20267SOL     OW62807   7.787  11.012   8.905 -0.4731  0.3696 -0.1608
20267SOL    HW162808   7.814  11.057   8.825 -0.6716 -0.7354 -0.8710
20267SOL    HW262809   7.750  10.929   8.875  0.4148 -0.5447  1.1237
20268SOL     OW62810   4.998   4.120   0.597  0.0398 -0.1043  0.4860
20268SOL    HW162811   5.033   4.209   0.587  0.9298 -0.1373  2.7519
20268SOL    HW262812   4.946   4.124   0.677  0.9917 -1.8453  1.2564
20269SOL     OW62813   7.750   0.252   5.587 -0.3591 -0.2838  0.1137
20269SOL    HW162814   7.833   0.232   5.630  0.0243  0.1614 -0.3920
20269SOL    HW262815   7.773   0.260   5.494 -0.4315  2.4843  0.2436
20270SOL     OW62816   8.932   9.758  10.557 -0.1818 -0.5209 -0.2565
20270SOL    HW162817   8.884   9.749  10.475  1.8430  0.4377 -1.6280
20270SOL    HW262818   9.024   9.761  10.532  0.5825 -1.0156  2.1453
20271SOL     OW62819   8.440  10.497   5.825 -0.1591 -0.6410 -0.0856
20271SOL    HW162820   8.446  10.560   5.753 -1.2607 -1.5283 -0.9824
20271SOL    HW262821   8.531  10.485   5.853  0.5230 -1.5340 -2.4582
20272SOL     OW62822  10.258   3.056   6.104  0.2761 -0.0841  0.0891
20272SOL    HW162823  10.188   3.103   6.059  1.9114  1.5050 -0.9180
20272SOL    HW262824  10.334   3.113   6.096  1.3590 -1.0613  2.4312
20273SOL     OW62825   2.824   8.440   0.995  0.7278  0.0075  0.7128
20273SOL    HW162826   2.899   8.383   1.011  0.5919 -0.4588 -0.2455
20273SOL    HW262827   2.815   8.442   0.900  0.5349  1.3886  0.7418
20274SOL     OW62828   7.720   6.115   5.044 -0.5791  0.4628  0.2749
20274SOL    HW162829   7.659   6.104   5.117 -0.5782 -0.5304  0.1282
20274SOL    HW262830   7.675   6.176   4.985 -1.1465  0.2393  0.4714
20275SOL     OW62831   5.266   9.124   7.577  0.3294 -0.3115  0.1609
20275SOL    HW162832   5.308   9.039   7.592 -0.7703 -1.1498 -1.2899
20275SOL    HW262833   5.242   9.154   7.664 -0.6909 -2.2656  0.6109
20276SOL     OW62834   7.136   9.530   6.031  0.4277 -0.0412 -0.8044
20276SOL    HW162835   7.145   9.562   6.121 -0.1657 -1.0577 -0.3679
20276SOL    HW262836   7.204   9.576   5.983  1.3090 -0.0994  0.3386
20277SOL     OW62837   1.976   0.635   5.486 -0.4010 -0.1767 -0.3157
20277SOL    HW162838   1.902   0.592   5.529  0.6189 -2.7323 -0.9000
20277SOL    HW262839   2.033   0.663   5.558 -0.7373 -0.5119  0.0797
20278SOL     OW62840   6.580   3.571   6.374  0.5529 -0.5888  0.3536
20278SOL    HW162841   6.541   3.568   6.286  0.4573 -0.1973  0.3778
20278SOL    HW262842   6.538   3.647   6.415  1.0357 -0.4140  0.5268
20279SOL     OW62843   6.087  10.729   8.300 -0.5094 -0.4829  0.0106
20279SOL    HW162844   6.095  10.636   8.321  0.7901 -0.3383  0.2743
20279SOL    HW262845   6.170  10.751   8.257 -0.8670  0.5189 -0.2001
20280SOL     OW62846   4.816  10.048   0.551 -0.1736  0.2800 -0.0543
20280SOL    HW162847   4.816  10.140   0.580  0.5250 -0.0940  1.2259
20280SOL    HW262848   4.723  10.026   0.542 -0.3711  0.8862  0.4267
20281SOL     OW62849   7.785  10.423   2.316 -0.0280 -0.0033 -0.2294
20281SOL    HW162850   7.819  10.345   2.361  0.0704  1.0260  1.5778
20281SOL    HW262851   7.863  10.473   2.292 -0.0573 -0.7189 -1.9901
20282SOL     OW62852   9.410   8.472   4.813 -0.2848  0.0198 -0.5332
20282SOL    HW162853   9.428   8.565   4.799  1.0846 -0.2158 -0.5182
20282SOL    HW262854   9.491   8.428   4.789 -0.7603 -1.1391 -0.1076
20283SOL     OW62855   4.223  10.900   5.909  0.1568  0.0870  0.2680
20283SOL    HW162856   4.171  10.930   5.835 -1.7523 -1.2742  0.9987
20283SOL    HW262857   4.243  10.808   5.889 -0.6800 -0.3996  1.5533
20284SOL     OW62858  10.636   4.472  10.973  0.1769  0.4171  0.3512
20284SOL    HW162859  10.642   4.493  10.880  1.3779  1.1599  0.5693
20284SOL    HW262860  10.578   4.396  10.977  1.6886 -0.8981 -1.2050
20285SOL     OW62861  10.297   8.756  10.241  0.9150  0.2357 -0.1144
20285SOL    HW162862  10.334   8.668  10.235 -0.0904 -0.1744 -0.5051
20285SOL    HW262863  10.244   8.754  10.321  0.0728  0.1570 -0.6644
20286SOL     OW62864   1.721   9.279   4.303 -0.5781  0.9351 -0.2573
20286SOL    HW162865   1.771   9.198   4.295 -0.5419  1.0792 -1.6353
20286SOL    HW262866   1.783   9.348   4.277 -0.9809  1.2773 -0.3246
20287SOL     OW62867   7.818   1.521   8.380 -0.0404 -0.5405 -0.8428
20287SOL    HW162868   7.848   1.488   8.464 -2.1254 -0.5199 -0.0225
20287SOL    HW262869   7.802   1.443   8.327 -0.2366 -0.6375 -0.6440
20288SOL     OW62870   3.198   8.273   2.742 -0.4643  0.1630 -0.1254
20288SOL    HW162871   3.262   8.320   2.795 -3.1748  3.4367  0.5540
20288SOL    HW262872   3.143   8.227   2.806 -0.8309  0.1582 -0.4428
20289SOL     OW62873   1.010   8.011   3.082  0.1563  0.6049  0.1791
20289SOL    HW162874   1.091   7.971   3.052 -0.7495 -1.5706  0.4434
20289SOL    HW262875   0.977   7.952   3.150 -2.4573  0.4555 -1.0715
20290SOL     OW62876   6.622   5.001   6.391  0.1184 -0.2394 -0.4890
20290SOL    HW162877   6.610   5.063   6.463 -1.9889 -0.0056 -0.9945
20290SOL    HW262878   6.673   5.050   6.327  0.4347  0.1730  0.0628
20291SOL     OW62879   7.445   9.493   7.716 -0.0864 -0.2974 -0.5472
20291SOL    HW162880   7.540   9.501   7.706  0.1398  0.2671  1.4805
20291SOL    HW262881   7.426   9.538   7.799 -2.1560 -0.2219 -1.0079
20292SOL     OW62882   4.633   6.737  10.174  0.1534 -0.3860 -0.4402
20292SOL    HW162883   4.642   6.661  10.232 -0.2339 -0.0905  0.0098
20292SOL    HW262884   4.705   6.795  10.200 -1.4620  0.8765  1.4884
20293SOL     OW62885   8.439   7.677   7.283  0.6870  0.6617  0.5326
20293SOL    HW162886   8.504   7.607   7.288 -2.4084 -2.4557  0.4222
20293SOL    HW262887   8.458   7.721   7.200  1.1678 -1.8148 -0.7629
20294SOL     OW62888  10.254   4.989   0.675  0.2328 -0.0586 -0.1213
20294SOL    HW162889  10.328   5.031   0.630  1.3597 -1.3987  0.4013
20294SOL    HW262890  10.182   5.052   0.667  0.7547  0.3261 -2.6409
20295SOL     OW62891   7.332   9.794   0.942 -0.4013  0.2889 -0.0200
20295SOL    HW162892   7.367   9.707   0.962 -0.2383  0.5834  1.0647
20295SOL    HW262893   7.238   9.787   0.963 -0.4557  0.2713 -0.2721
20296SOL     OW62894   9.609   1.517   2.216 -0.3283  0.0195 -0.8366
20296SOL    HW162895   9.642   1.573   2.146  0.6633  0.1219 -0.3167
20296SOL    HW262896   9.632   1.564   2.296  1.3752 -1.5374 -0.3438
20297SOL     OW62897   1.249   5.825   7.450  0.4300 -0.0752  0.1654
20297SOL    HW162898   1.230   5.815   7.357  2.2441  1.5313 -0.4462
20297SOL    HW262899   1.169   5.863   7.487 -0.9425 -2.2937 -0.3299
20298SOL     OW62900   4.714   8.837   9.729  0.3325  0.8446 -0.2993
20298SOL    HW162901   4.739   8.753   9.768  3.1054  1.7033  0.0203
20298SOL    HW262902   4.652   8.875   9.791  0.5885 -0.1127  0.5736
20299SOL     OW62903   8.579   4.808   6.132  0.2890 -0.2123 -0.3084
20299SOL    HW162904   8.613   4.826   6.045 -0.5642  0.0573 -0.5989
20299SOL    HW262905   8.489   4.841   6.130  0.2010 -0.3662  0.6164
20300SOL     OW62906   4.566   8.886   7.070 -0.2233  0.6004 -0.2800
20300SOL    HW162907   4.627   8.945   7.114  0.4101  0.7712 -1.3492
20300SOL    HW262908   4.524   8.837   7.141 -0.1725  1.7526  0.5790
20301SOL     OW62909   7.426   4.049   7.228  0.3917  0.6914  0.2541
20301SOL    HW162910   7.495   4.037   7.162 -1.3654  1.8018 -1.8982
20301SOL    HW262911   7.404   4.142   7.223 -1.5081  0.2978  0.6130
20302SOL     OW62912   3.580   8.866   0.113 -0.0349  0.0402  0.0479
20302SOL    HW162913   3.652   8.842   0.055 -0.3451 -0.8471  0.0246
20302SOL    HW262914   3.616   8.858   0.201  0.8307  2.5876  0.0348
20303SOL     OW62915   4.388   8.930   9.713  0.3789 -0.5038 -0.7744
20303SOL    HW162916   4.308   8.956   9.758 -0.8621 -0.8799 -2.6491
20303SOL    HW262917   4.450   9.001   9.729 -0.7071  0.3328 -0.2211
20304SOL     OW62918   2.274  10.183   4.899  0.8143  0.3318  0.1734
20304SOL    HW162919   2.326  10.256   4.931  0.3439  1.0823 -0.7209
20304SOL    HW262920   2.184  10.206   4.921  0.6640  0.0310 -0.1157
20305SOL     OW62921   8.294   7.451   9.976  0.0225  0.3576  0.2303
20305SOL    HW162922   8.305   7.500   9.895  1.1752  0.9117  0.6939
20305SOL    HW262923   8.384   7.437  10.008 -0.3696 -0.6411  0.9428
20306SOL     OW62924   9.976   5.988   8.817  0.0934  0.4896  0.2433
20306SOL    HW162925   9.955   5.896   8.834  0.3574 -0.1059 -2.2569
20306SOL    HW262926  10.014   6.020   8.899  0.9329 -1.9087  0.8656
20307SOL     OW62927   0.143   8.560   4.918  0.4431 -0.1230  0.8034
20307SOL    HW162928   0.091   8.479   4.921  0.2614 -0.0347  0.1320
20307SOL    HW262929   0.082   8.625   4.884  1.1386 -0.1309 -0.5071
20308SOL     OW62930   4.453   9.166   3.351 -0.0694 -0.3511 -0.1331
20308SOL    HW162931   4.455   9.073   3.370 -0.9019 -0.6927 -1.5482
20308SOL    HW262932   4.371   9.179   3.302 -0.8213  1.4152  1.4196
20309SOL     OW62933   4.193   8.480   1.084  0.0472 -0.1113 -0.2165
20309SOL    HW162934   4.161   8.392   1.105 -0.7201 -0.2955 -2.0258
20309SOL    HW262935   4.116   8.536   1.090  0.2632  0.2038 -0.3788
20310SOL     OW62936   5.513   2.300   8.824 -0.4744  0.1527 -0.2610
20310SOL    HW162937   5.439   2.349   8.859 -1.2115 -2.0840  1.6130
20310SOL    HW262938   5.474   2.219   8.790  0.9861 -0.6172 -0.1803
20311SOL     OW62939   1.239   2.044   6.364  0.1154 -0.3788 -0.2862
20311SOL    HW162940   1.317   2.098   6.371  0.1791 -0.6671  1.6883
20311SOL    HW262941   1.174   2.087   6.419 -0.0739 -1.8628  0.7208
20312SOL     OW62942   9.825   6.899   7.259  0.3246 -0.6282  0.1478
20312SOL    HW162943   9.912   6.924   7.229  0.2136  1.3691  1.2937
20312SOL    HW262944   9.825   6.803   7.257  2.3459 -0.6628 -0.3847
20313SOL     OW62945   2.772   9.641  10.642  0.1507  0.3516  0.1266
20313SOL    HW162946   2.703   9.627  10.577  1.8169  1.6882 -2.0709
20313SOL    HW262947   2.818   9.557  10.646 -0.0571  0.2141 -0.3147
20314SOL     OW62948   2.702   7.594   7.592 -0.1526 -0.1730  0.0497
20314SOL    HW162949   2.773   7.540   7.627 -0.0239 -0.1017 -0.0972
20314SOL    HW262950   2.729   7.684   7.611 -1.0575 -0.1960  1.6047
20315SOL     OW62951   6.470   0.907   9.088  0.1485  0.1798  0.0890
20315SOL    HW162952   6.451   0.854   9.011 -0.1903  1.2168 -0.5601
20315SOL    HW262953   6.565   0.920   9.086  0.1176  0.3527 -0.2566
20316SOL     OW62954   4.935   1.296   7.027  0.8673 -0.4186  0.0816
20316SOL    HW162955   5.023   1.304   6.989  0.3703  0.2280 -0.9851
20316SOL    HW262956   4.917   1.203   7.026  0.6209 -0.3968 -1.9354
20317SOL     OW62957   8.146   2.057   5.980  0.0297 -0.2395  0.4927
20317SOL    HW162958   8.188   2.094   5.903 -0.8016  0.4664  0.3645
20317SOL    HW262959   8.172   1.965   5.980  0.0150 -0.2489 -0.6345
20318SOL     OW62960   8.548   7.930   0.551  0.4271  0.3739  0.0899
20318SOL    HW162961   8.474   7.979   0.587  0.2537  1.9039 -2.1940
20318SOL    HW262962   8.625   7.979   0.580  0.3386  1.0006 -0.7094
20319SOL     OW62963   3.192   2.920   3.698  0.2448 -0.2544  0.1672
20319SOL    HW162964   3.266   2.971   3.664  0.8093 -0.5749  0.8770
20319SOL    HW262965   3.221   2.892   3.785 -2.2117  2.8589  2.1881
20320SOL     OW62966  10.448   7.588   6.412 -0.4014 -0.3143 -0.1915
20320SOL    HW162967  10.522   7.636   6.373  0.4642 -1.3664  0.1155
20320SOL    HW262968  10.381   7.589   6.344  0.3028 -0.2720 -0.9033
20321SOL     OW62969  10.475   1.326   7.314 -0.0330  0.2199  0.2446
20321SOL    HW162970  10.491   1.337   7.220  2.3555 -1.7888  0.3085
20321SOL    HW262971  10.549   1.371   7.355 -0.9859  0.9562  1.1804
20322SOL     OW62972   4.056   8.137   4.112 -0.0333  0.9259  0.6744
20322SOL    HW162973   3.995   8.070   4.082 -1.0723  2.3857 -0.6033
20322SOL    HW262974   4.107   8.093   4.181  0.1835 -1.5273 -0.9252
20323SOL     OW62975  10.513   8.611   0.848  0.3952 -0.0599  0.0592
20323SOL    HW162976  10.451   8.677   0.877  0.6298  0.9514 -1.6137
20323SOL    HW262977  10.479   8.581   0.764  2.6944  1.3148 -1.4420
20324SOL     OW62978   4.421  10.613   1.959 -0.0261 -0.3641  0.5286
20324SOL    HW162979   4.494  10.557   1.933  1.0588  1.2201  0.0061
20324SOL    HW262980   4.344  10.572   1.921  0.7593 -1.3801 -0.0067
20325SOL     OW62981   5.849   5.785   1.691 -0.3274 -0.4044 -0.4923
20325SOL    HW162982   5.891   5.798   1.606 -0.4973 -1.4401 -0.7494
20325SOL    HW262983   5.869   5.695   1.714 -1.0057 -0.3948  0.1716
20326SOL     OW62984  10.890   0.194   3.449  0.1859 -0.9095  0.1472
20326SOL    HW162985  10.907   0.100   3.452 -1.3484 -1.3879 -2.8037
20326SOL    HW262986  10.962   0.230   3.398  0.0589 -0.6980  0.1152
20327SOL     OW62987   5.382  10.982   5.386  0.2915  0.0746  0.0058
20327SOL    HW162988   5.415  10.920   5.322  0.3872  0.3947 -0.2552
20327SOL    HW262989   5.447  10.981   5.456  0.2768 -0.1419  0.0151
20328SOL     OW62990   9.626   3.249   7.072  0.2785  0.1844 -0.4708
20328SOL    HW162991   9.676   3.293   7.141 -0.7476 -1.4275  1.4302
20328SOL    HW262992   9.540   3.290   7.075 -0.9500 -2.2479  1.8745
20329SOL     OW62993   7.056   9.108   3.838 -0.0620 -0.7904 -0.2566
20329SOL    HW162994   6.988   9.054   3.879 -0.0468 -2.5699 -2.3503
20329SOL    HW262995   7.135   9.054   3.842  0.9898  0.7618  1.0679
20330SOL     OW62996   3.450   1.129   8.778 -0.5978 -0.1239  0.1483
20330SOL    HW162997   3.401   1.135   8.696 -0.4606 -0.3769  0.0450
20330SOL    HW262998   3.540   1.110   8.750 -0.5848 -0.3886  0.3625
20331SOL     OW62999   7.362   8.421   5.545  0.5879  0.4607 -0.4113
20331SOL    HW163000   7.411   8.456   5.470 -0.0743 -0.2922 -1.2165
20331SOL    HW263001   7.293   8.368   5.506 -0.0794  0.4544  0.7361
20332SOL     OW63002  10.025  10.190  10.646  0.2356 -0.4305 -0.0415
20332SOL    HW163003   9.987  10.103  10.662 -1.3923 -0.3161 -2.6362
20332SOL    HW263004   9.952  10.250  10.661  1.0749  0.4159  0.7343
20333SOL     OW63005   7.104   1.637   9.748 -0.4621  0.1032 -0.1697
20333SOL    HW163006   7.024   1.679   9.781 -1.1495 -0.5999 -0.9243
20333SOL    HW263007   7.075   1.555   9.709  0.4669  0.4110 -1.5839
20334SOL     OW63008   2.269  10.281   7.344 -0.5006 -0.0336 -0.3416
20334SOL    HW163009   2.288  10.242   7.259 -0.7364 -0.6030 -0.1366
20334SOL    HW263010   2.176  10.304   7.340 -0.3720  0.4790 -0.4474
20335SOL     OW63011   8.744   7.965   9.437  0.3286 -0.3893  0.2427
20335SOL    HW163012   8.680   8.031   9.409  1.3715  0.1323 -1.0644
20335SOL    HW263013   8.727   7.953   9.530 -0.4605  1.0880  0.3282
20336SOL     OW63014   4.719   2.962   7.694 -0.3740  0.5065  0.1280
20336SOL    HW163015   4.808   2.997   7.684 -0.5327  1.4218  1.5260
20336SOL    HW263016   4.725   2.904   7.770 -1.1364  1.2626  0.7792
20337SOL     OW63017   1.518   9.683   2.221  0.3817  0.2190  0.3445
20337SOL    HW163018   1.434   9.657   2.185  0.1831  1.2506  0.0133
20337SOL    HW263019   1.577   9.611   2.200  0.2730  0.7479 -2.0464
20338SOL     OW63020   7.162  10.598  10.981  0.2313  0.5935  0.1086
20338SOL    HW163021   7.085  10.544  10.997  0.4491  1.1999  3.9994
20338SOL    HW263022   7.236  10.542  11.006  0.9117  0.8426 -1.2498
20339SOL     OW63023   3.045   9.384   7.760 -0.2827 -0.1863 -0.2644
20339SOL    HW163024   3.066   9.409   7.850  0.5111  2.6082 -1.1173
20339SOL    HW263025   2.960   9.342   7.765  0.0861 -0.7843  1.8626
20340SOL     OW63026   5.141   6.549   1.250 -0.1601  0.3224  0.2992
20340SOL    HW163027   5.218   6.602   1.229  0.9866 -1.7788 -1.2169
20340SOL    HW263028   5.140   6.546   1.346  3.9508 -2.4714  0.5379
20341SOL     OW63029   1.618   1.726   4.179 -0.4714  0.0884  0.0200
20341SOL    HW163030   1.577   1.799   4.226 -0.6537 -0.0943  0.1450
20341SOL    HW263031   1.593   1.740   4.087  0.4203  0.8104 -0.1350
20342SOL     OW63032   0.764  10.379   9.402  0.3304 -0.5448 -0.8374
20342SOL    HW163033   0.712  10.330   9.338 -1.8400  0.5806 -0.0311
20342SOL    HW263034   0.708  10.382   9.480  1.4911  1.0167 -0.0371
20343SOL     OW63035   6.995  10.425   7.530 -0.0771 -0.2921 -0.0161
20343SOL    HW163036   6.993  10.413   7.435 -2.0544  0.1307 -0.0596
20343SOL    HW263037   6.915  10.384   7.562 -0.3135  1.0952  1.2689
20344SOL     OW63038   0.718   7.615   2.221 -0.1809  0.2651  0.0625
20344SOL    HW163039   0.811   7.616   2.243  0.0426 -2.7710 -0.2939
20344SOL    HW263040   0.691   7.707   2.224  2.5289  1.1093  1.3232
20345SOL     OW63041   9.065   5.748  10.964 -0.4587  0.2116  0.1155
20345SOL    HW163042   9.016   5.688  11.020  1.1954 -0.0113  1.4123
20345SOL    HW263043   9.115   5.802  11.026 -2.1181  3.2308 -0.9362
20346SOL     OW63044  10.064   0.626   9.049 -0.5838 -0.2551  0.2905
20346SOL    HW163045  10.049   0.690   8.979 -2.9011  0.7942  1.6276
20346SOL    HW263046  10.158   0.613   9.050 -0.2330  1.7025 -1.2869
20347SOL     OW63047   3.906   6.889   5.973 -0.7211  0.0170 -0.3490
20347SOL    HW163048   3.854   6.815   5.940  1.6967 -1.2642 -1.5296
20347SOL    HW263049   3.932   6.863   6.061 -0.3257 -0.3181 -0.5604
20348SOL     OW63050   2.526   4.924  11.044 -0.9113 -0.5235  0.1673
20348SOL    HW163051   2.595   4.920  10.978 -0.5569 -1.6322  0.5805
20348SOL    HW263052   2.507   5.017  11.053  1.4869 -0.0414  0.9944
20349SOL     OW63053   7.976   1.920   5.076 -0.1915 -0.3301  0.0781
20349SOL    HW163054   8.017   1.842   5.039  1.6145  0.4764  0.2540
20349SOL    HW263055   7.883   1.899   5.081 -0.1495 -1.4253 -2.4653
20350SOL     OW63056   2.284   2.503   9.016 -0.1009  0.3726 -0.3506
20350SOL    HW163057   2.337   2.513   8.937  2.1788  1.6312  1.2421
20350SOL    HW263058   2.297   2.584   9.065 -0.5276 -0.8150  1.8683
20351SOL     OW63059   5.397  10.019   8.748 -0.5396 -0.6098  0.4270
20351SOL    HW163060   5.468  10.077   8.722 -1.9848  1.0787  0.0620
20351SOL    HW263061   5.439   9.934   8.761  1.4995  0.2875  0.0879
20352SOL     OW63062   5.239   8.100   1.302  0.1011 -0.3150  0.2376
20352SOL    HW163063   5.229   8.157   1.225  0.6549 -0.9053 -0.2814
20352SOL    HW263064   5.150   8.080   1.328 -0.1204  1.1425  0.6974
20353SOL     OW63065   1.284   8.991   9.509  0.0845 -0.2288  0.4950
20353SOL    HW163066   1.263   9.000   9.416  1.4232  0.6793  0.2544
20353SOL    HW263067   1.296   8.897   9.522  1.9213 -0.2185 -0.7531
20354SOL     OW63068   6.896   6.952   6.056  0.1194 -0.1778  0.3613
20354SOL    HW163069   6.954   7.000   5.997  0.7112  0.0169  1.0863
20354SOL    HW263070   6.821   6.927   6.002  0.7552 -0.1961 -0.5145
20355SOL     OW63071   3.828   9.654   0.192  0.1866  0.0454 -0.3838
20355SOL    HW163072   3.902   9.698   0.233  0.5358  1.1249 -2.0539
20355SOL    HW263073   3.828   9.566   0.230 -0.1020  1.1829  2.5362
20356SOL     OW63074   2.156   0.555  10.047 -0.1375  0.2087  0.1411
20356SOL    HW163075   2.061   0.547  10.042 -0.3943 -1.8436  4.3038
20356SOL    HW263076   2.171   0.648  10.062 -1.4936  0.4990 -0.1233
20357SOL     OW63077   9.758  10.745   5.663 -0.6364  0.2499 -0.1420
20357SOL    HW163078   9.851  10.764   5.655 -0.5568 -0.1067 -0.0476
20357SOL    HW263079   9.742  10.740   5.757 -0.8780  0.9243 -0.1359
20358SOL     OW63080  10.521   0.798   7.767  0.1302 -0.4716 -0.3954
20358SOL    HW163081  10.604   0.842   7.785  0.6161 -1.1909 -0.8218
20358SOL    HW263082  10.546   0.718   7.721 -0.4992 -2.5131  2.5049
20359SOL     OW63083   4.939   7.478   3.472  0.2829 -0.8124 -0.0559
20359SOL    HW163084   4.873   7.497   3.406 -1.1272 -0.4557  1.4067
20359SOL    HW263085   4.912   7.394   3.511  2.2692 -2.1329 -1.3058
20360SOL     OW63086   4.525   5.457   7.741 -0.2545  0.1472 -0.0971
20360SOL    HW163087   4.582   5.503   7.679  0.8528  0.6562  1.2296
20360SOL    HW263088   4.469   5.526   7.777 -1.5045 -0.2905 -1.1246
20361SOL     OW63089   1.766  10.440  10.611  0.5436 -0.4641  0.6319
20361SOL    HW163090   1.726  10.436  10.524  1.2765 -0.1280  0.2707
20361SOL    HW263091   1.781  10.349  10.636  1.4582 -0.5376 -0.1318
20362SOL     OW63092   6.197   0.097   7.940 -0.1060  0.3039 -0.2557
20362SOL    HW163093   6.188   0.040   8.016  0.5605 -1.3192 -1.3401
20362SOL    HW263094   6.290   0.095   7.919 -0.4417 -0.2698 -1.8164
20363SOL     OW63095   4.367   3.594  10.729 -0.0734  0.1969  0.1095
20363SOL    HW163096   4.450   3.627  10.695  0.0690 -0.7283 -0.4975
20363SOL    HW263097   4.392   3.533  10.798 -0.0504 -2.0508 -1.7442
20364SOL     OW63098   2.741   8.514   7.578 -0.1299 -0.1960  0.6742
20364SOL    HW163099   2.772   8.584   7.520 -1.2729  0.5699  0.9563
20364SOL    HW263100   2.753   8.550   7.666  0.9870 -1.0963  0.9064
20365SOL     OW63101   9.165   9.866   7.283 -0.5177 -0.2288 -0.4964
20365SOL    HW163102   9.109   9.813   7.225  0.0338 -0.8283 -0.4875
20365SOL    HW263103   9.164   9.953   7.242 -2.6392  0.1953  0.3026
20366SOL     OW63104   1.813   7.088   4.885  0.0938 -0.5659 -0.2130
20366SOL    HW163105   1.802   7.163   4.943  1.1201 -1.4554  1.1865
20366SOL    HW263106   1.729   7.081   4.838  0.2489  1.8970 -0.9709
20367SOL     OW63107   8.963   6.402   6.875 -0.3268 -0.4970 -0.0970
20367SOL    HW163108   9.011   6.337   6.823  1.8261  1.4392 -0.7367
20367SOL    HW263109   8.960   6.365   6.963  0.5925 -1.5839 -0.4957
20368SOL     OW63110   1.388   0.961   8.948  0.0648 -0.4379 -1.4030
20368SOL    HW163111   1.355   0.888   8.897 -0.1421 -1.7526  0.5169
20368SOL    HW263112   1.483   0.954   8.943  0.0455 -0.9691 -1.0769
20369SOL     OW63113   4.641   1.385   8.455 -0.2419 -0.2403 -0.2178
20369SOL    HW163114   4.546   1.376   8.467 -0.2161 -0.4759 -0.1810
20369SOL    HW263115   4.676   1.300   8.481 -0.0047 -0.1019 -0.0828
20370SOL     OW63116   2.289   0.944   1.958 -0.4923  0.2586 -0.0710
20370SOL    HW163117   2.195   0.957   1.947 -0.3763  0.2576 -1.1562
20370SOL    HW263118   2.310   0.987   2.042 -1.1626  1.7564 -0.6381
20371SOL     OW63119   6.117   9.492   1.194  0.5369  0.8575  0.0394
20371SOL    HW163120   6.025   9.466   1.183  0.6368  1.0930 -1.5414
20371SOL    HW263121   6.150   9.432   1.262 -0.8322  0.9360  0.8119
20372SOL     OW63122   0.914  10.175   7.776 -0.3868  0.1422  0.4328
20372SOL    HW163123   0.874  10.119   7.842  0.0643 -0.5773  0.1130
20372SOL    HW263124   1.005  10.183   7.804  0.0334 -0.9048 -0.5553
20373SOL     OW63125   2.499   0.475  10.041  0.3588  0.3189  0.8198
20373SOL    HW163126   2.411   0.462  10.004  1.0886  0.0455 -0.9190
20373SOL    HW263127   2.510   0.570  10.042  0.6448  0.3146 -0.5164
20374SOL     OW63128   1.762   7.370   1.769  0.3415 -0.0479  0.1544
20374SOL    HW163129   1.818   7.302   1.805 -0.3599  0.4598  2.3685
20374SOL    HW263130   1.677   7.329   1.759 -0.4809  0.7766  2.9204
20375SOL     OW63131   2.885   1.841   3.105  0.5076  0.3607 -0.2798
20375SOL    HW163132   2.836   1.863   3.027 -0.1797  4.3994  1.0418
20375SOL    HW263133   2.976   1.836   3.076  0.0920 -0.1037 -1.5733
20376SOL     OW63134   0.479  10.472   1.842 -0.3829  0.0198  0.6004
20376SOL    HW163135   0.528  10.425   1.910 -1.3375  0.7683  1.8507
20376SOL    HW263136   0.544  10.489   1.773  0.9377  0.3195  1.8672
20377SOL     OW63137   6.984   8.003   5.060 -0.1060 -0.6060  0.1321
20377SOL    HW163138   7.044   7.930   5.072 -0.1516 -0.4027  1.7537
20377SOL    HW263139   6.899   7.962   5.043  0.1447 -0.9011 -0.4384
20378SOL     OW63140   0.921   0.633   1.880  0.3749 -0.4245  0.0513
20378SOL    HW163141   0.952   0.555   1.834 -2.1532 -1.0120 -0.8165
20378SOL    HW263142   0.929   0.703   1.815  0.2210 -0.4959 -0.0444
20379SOL     OW63143  10.766   1.921   8.823 -0.2871 -0.0999 -0.2282
20379SOL    HW163144  10.721   1.930   8.907 -2.0980  1.1164 -1.2845
20379SOL    HW263145  10.700   1.886   8.763  0.6763  0.0183 -1.4107
20380SOL     OW63146   3.428   3.353   2.669 -0.1471 -0.0872 -0.3290
20380SOL    HW163147   3.393   3.441   2.657  0.8739  0.3980  0.1841
20380SOL    HW263148   3.459   3.328   2.582  1.0712  0.7298 -0.1469
20381SOL     OW63149   3.836   1.866   6.852 -0.4292 -0.0223  0.3644
20381SOL    HW163150   3.808   1.957   6.835 -0.8820 -0.5097 -1.7596
20381SOL    HW263151   3.842   1.826   6.765  0.9594 -1.7092  1.1804
20382SOL     OW63152   2.377   6.102   3.677 -0.0874  0.2742 -0.3074
20382SOL    HW163153   2.286   6.130   3.663  0.1509  1.4591  0.3528
20382SOL    HW263154   2.419   6.177   3.719  1.0162 -0.5257  0.0738
20383SOL     OW63155   3.637   0.110   7.190  0.2641 -0.1594  0.0305
20383SOL    HW163156   3.584   0.044   7.146  0.0355 -0.4631  0.7432
20383SOL    HW263157   3.647   0.077   7.279  1.8328 -0.2099 -0.1423
20384SOL     OW63158  10.626  10.626   4.680 -0.1359  0.0506 -0.6697
20384SOL    HW163159  10.711  10.583   4.670  0.4974  0.5567  1.7987
20384SOL    HW263160  10.573  10.564   4.730 -1.1043 -0.0496 -1.7610
20385SOL     OW63161   8.744   6.740   9.844  0.1916  0.2927  0.2678
20385SOL    HW163162   8.738   6.650   9.875 -1.5712 -0.9880 -3.2925
20385SOL    HW263163   8.656   6.776   9.856  0.2414  0.7078 -0.5739
20386SOL     OW63164   2.950   0.638   7.423  1.0195  0.1297 -0.1758
20386SOL    HW163165   2.938   0.705   7.356 -0.9157  1.7869  1.7106
20386SOL    HW263166   3.007   0.679   7.488  0.7428 -0.4873  0.4654
20387SOL     OW63167   3.012   3.092   9.215 -0.0386 -0.2457  0.6046
20387SOL    HW163168   2.964   3.030   9.160  1.4521 -1.2596  0.3594
20387SOL    HW263169   2.953   3.111   9.287 -1.0830 -0.8467 -0.0652
20388SOL     OW63170   5.521   0.219   5.185 -0.0038  0.7407  0.8249
20388SOL    HW163171   5.548   0.311   5.185  0.5107  0.6038  0.1262
20388SOL    HW263172   5.427   0.221   5.200  0.4121  1.2139  3.9339
20389SOL     OW63173   5.769   0.062   7.768 -0.9129  0.0094  0.4185
20389SOL    HW163174   5.814  -0.015   7.732  0.5108  0.7269  0.5958
20389SOL    HW263175   5.770   0.126   7.696 -1.2378  0.2038  0.5860
20390SOL     OW63176   5.608   3.078   7.746  0.2047 -0.6294 -0.5468
20390SOL    HW163177   5.552   3.063   7.669 -1.2468 -0.6472  0.4633
20390SOL    HW263178   5.606   3.173   7.759  1.4871 -0.4865 -1.2508
20391SOL     OW63179   5.723   9.096   9.551 -0.2209 -0.2986  0.0219
20391SOL    HW163180   5.677   9.180   9.558 -0.5981 -0.5774  1.1358
20391SOL    HW263181   5.750   9.091   9.460 -0.0354  1.1134 -0.0251
20392SOL     OW63182   5.246  10.640   7.536  0.5218 -0.2693  0.0422
20392SOL    HW163183   5.166  10.689   7.519  0.9657  0.5800  0.3532
20392SOL    HW263184   5.295  10.643   7.454  0.1048 -1.0642 -0.2487
20393SOL     OW63185  10.787   6.252   8.666  0.4946  0.3793 -0.3462
20393SOL    HW163186  10.878   6.275   8.647  0.2165  1.9059  0.0796
20393SOL    HW263187  10.739   6.275   8.586  0.5215 -0.8331 -0.7344
20394SOL     OW63188   3.056   2.421   6.482  0.0726  0.1791 -0.0378
20394SOL    HW163189   2.989   2.463   6.535  1.6873  1.7164  0.8861
20394SOL    HW263190   3.127   2.402   6.543  1.2258  0.2695 -1.3094
20395SOL     OW63191   6.550  10.841   4.930 -0.0096  0.0438  0.3804
20395SOL    HW163192   6.618  10.836   4.863  0.2280  1.8486  0.4253
20395SOL    HW263193   6.578  10.780   4.997  2.3351  1.6691  1.0231
20396SOL     OW63194   2.000   4.229   7.748  0.1889  0.1259  0.1572
20396SOL    HW163195   1.955   4.296   7.695  0.3840 -0.3677 -0.6413
20396SOL    HW263196   2.035   4.278   7.822  1.3042  1.1546 -0.9768
20397SOL     OW63197   0.728   5.180   7.463  0.2170  0.3452 -0.2485
20397SOL    HW163198   0.652   5.123   7.472 -0.2634  1.1766  1.2103
20397SOL    HW263199   0.793   5.126   7.417 -0.9459 -0.6439 -0.7999
20398SOL     OW63200   2.481   6.172   5.359  0.5782  0.1883  0.0639
20398SOL    HW163201   2.532   6.240   5.403  1.1536  1.2200 -2.0767
20398SOL    HW263202   2.393   6.208   5.352  0.2209 -0.4078  1.2204
20399SOL     OW63203   6.166   5.480   0.996 -0.0178 -0.0798  0.0871
20399SOL    HW163204   6.128   5.422   0.931  1.3441 -1.5805  0.5675
20399SOL    HW263205   6.144   5.439   1.080 -3.1091  2.6172  0.8031
20400SOL     OW63206   2.369   4.790   9.285 -0.1521  0.7186 -0.0473
20400SOL    HW163207   2.367   4.871   9.336 -1.1758  1.4802 -1.2402
20400SOL    HW263208   2.368   4.819   9.194 -0.0271 -0.6361 -0.5015
20401SOL     OW63209   5.151   2.157   9.051  0.0031  0.0670  0.1630
20401SOL    HW163210   5.152   2.110   9.134  0.6205 -0.9220 -0.3830
20401SOL    HW263211   5.065   2.137   9.013  0.8395 -2.0062 -0.7899
20402SOL     OW63212   0.232   7.049   0.933 -0.9400  0.1534  0.0521
20402SOL    HW163213   0.323   7.042   0.960 -1.0087 -0.0044  0.2481
20402SOL    HW263214   0.182   7.025   1.011 -1.1801  1.8692  0.4676
20403SOL     OW63215   2.106   0.029   8.164  0.1047 -0.1161 -0.5503
20403SOL    HW163216   2.170   0.031   8.235 -1.5971  0.5809  1.0487
20403SOL    HW263217   2.071  -0.060   8.166 -0.4593  0.1089  0.0057
20404SOL     OW63218   1.750   8.576   9.678 -0.0202  0.0843  0.0067
20404SOL    HW163219   1.752   8.669   9.652 -1.4403 -0.0589 -0.7399
20404SOL    HW263220   1.835   8.542   9.651  0.5325  1.1734  0.3031
20405SOL     OW63221   3.920   9.364   9.927 -0.2342  0.8718 -0.3011
20405SOL    HW163222   3.846   9.400   9.975 -0.8016 -0.0616 -0.4549
20405SOL    HW263223   3.910   9.398   9.838 -0.7170  0.4088 -0.4261
20406SOL     OW63224   4.709   8.504   1.653  0.6349  0.1704  0.8026
20406SOL    HW163225   4.695   8.414   1.680 -0.8148  0.5550  1.4246
20406SOL    HW263226   4.683   8.506   1.560  1.9395 -0.3127  0.4051
20407SOL     OW63227   8.556   7.479  10.156 -0.0275 -0.3739  0.2076
20407SOL    HW163228   8.623   7.524  10.105  0.1237 -0.3437  0.4331
20407SOL    HW263229   8.585   7.486  10.247  0.2028 -1.2475  0.2188
20408SOL     OW63230   8.221  10.584   4.440 -0.6515 -0.2664 -0.1281
20408SOL    HW163231   8.189  10.593   4.350 -0.7267 -1.7372 -0.2760
20408SOL    HW263232   8.175  10.508   4.475 -2.6423  1.8082  2.1154
20409SOL     OW63233   9.690   2.906   7.513  0.0384 -0.5049 -0.0523
20409SOL    HW163234   9.724   2.976   7.568 -1.9725 -1.1231  2.1332
20409SOL    HW263235   9.616   2.945   7.467 -1.2737 -1.1568  1.3917
20410SOL     OW63236   6.893   0.097   7.995 -0.3056 -0.0430 -0.0520
20410SOL    HW163237   6.811   0.134   8.027 -0.0405  1.7521 -1.2617
20410SOL    HW263238   6.909   0.143   7.913  1.5722 -0.8370 -0.1795
20411SOL     OW63239   5.719   6.820   4.158 -0.2686  0.0433  0.0968
20411SOL    HW163240   5.749   6.759   4.225 -0.3511 -1.2546 -1.0082
20411SOL    HW263241   5.764   6.902   4.178  2.7229 -1.3295 -0.4546
20412SOL     OW63242   1.503   1.310   0.753  0.3818 -0.3062 -0.0844
20412SOL    HW163243   1.455   1.373   0.699 -1.2523 -1.4728 -0.0943
20412SOL    HW263244   1.594   1.316   0.723  0.1728  1.6061 -0.4637
20413SOL     OW63245   8.549   7.346   5.344  0.1779  0.1176 -0.3219
20413SOL    HW163246   8.632   7.323   5.387 -0.2068 -1.9803 -0.5800
20413SOL    HW263247   8.572   7.356   5.251  0.0445 -1.2369 -0.5179
20414SOL     OW63248   0.743   9.822   4.128  0.1836  0.1886  0.1422
20414SOL    HW163249   0.794   9.750   4.090  1.8067 -0.1129  2.6177
20414SOL    HW263250   0.686   9.852   4.057  0.6074 -2.4565 -1.4575
20415SOL     OW63251   3.272   4.975   4.945 -0.0529  0.3452 -0.0345
20415SOL    HW163252   3.232   4.888   4.939  2.4426 -0.8433 -0.9687
20415SOL    HW263253   3.278   5.004   4.854 -0.8688  1.5383  0.2732
20416SOL     OW63254   3.903   6.542   0.238 -0.0091  0.1003 -0.3502
20416SOL    HW163255   3.847   6.583   0.305  0.7517  0.4269  0.0975
20416SOL    HW263256   3.895   6.448   0.254  0.6569  0.1937  0.6247
20417SOL     OW63257   6.870   1.193   3.975  0.5139 -0.7832 -0.0290
20417SOL    HW163258   6.938   1.216   4.038 -0.4462 -0.1418  0.8289
20417SOL    HW263259   6.852   1.100   3.992 -0.0973 -0.4898  1.0415
20418SOL     OW63260   3.147  10.487   5.858 -0.2055 -0.0631 -0.1080
20418SOL    HW163261   3.193  10.403   5.856 -0.3023 -0.1178 -0.0527
20418SOL    HW263262   3.062  10.467   5.899  0.2360  0.2870  1.0163
20419SOL     OW63263   2.901   0.077   8.372  0.4123 -0.0111  0.1918
20419SOL    HW163264   2.835   0.118   8.427 -0.1835  0.1089 -0.5954
20419SOL    HW263265   2.972   0.142   8.368  0.3852  0.0518  0.6667
20420SOL     OW63266   5.914   4.475   1.987  0.5170 -0.2660 -0.4521
20420SOL    HW163267   5.861   4.511   2.058 -3.3039 -2.1838 -2.0395
20420SOL    HW263268   5.955   4.398   2.025  0.1472 -0.1410  0.2248
20421SOL     OW63269   3.190   6.892   7.530 -0.2126  0.0265 -0.0008
20421SOL    HW163270   3.248   6.819   7.509  1.7057  1.4735  0.0644
20421SOL    HW263271   3.248   6.967   7.544 -2.0574  1.4173  0.6928
20422SOL     OW63272   7.759  10.848   4.288 -0.5180 -0.0990  0.4383
20422SOL    HW163273   7.721  10.761   4.281 -0.2401 -0.1096 -1.2819
20422SOL    HW263274   7.747  10.887   4.201  2.3617  0.2947  0.1200
20423SOL     OW63275   6.858   8.964  10.717  0.3328  0.6161  0.0991
20423SOL    HW163276   6.825   8.890  10.768 -1.4005  1.5348  0.3650
20423SOL    HW263277   6.815   9.040  10.755  1.6843  1.7263 -0.5080
20424SOL     OW63278   0.640   9.772   9.434 -0.0214  0.6860  0.2873
20424SOL    HW163279   0.589   9.853   9.432 -0.9327  0.1160 -0.4870
20424SOL    HW263280   0.654   9.756   9.527 -0.3628  1.4125  0.4751
20425SOL     OW63281   4.900   4.798   9.287  0.1147 -0.2198  0.1905
20425SOL    HW163282   4.917   4.892   9.279  1.0935 -0.4587 -0.7132
20425SOL    HW263283   4.981   4.762   9.321  0.1103 -0.8858 -0.4929
20426SOL     OW63284   3.825   4.041  10.830 -0.3157 -0.3699  0.4689
20426SOL    HW163285   3.863   4.106  10.771  0.4618 -0.0111  1.3469
20426SOL    HW263286   3.795   3.970  10.773 -1.2200  0.7710 -0.5115
20427SOL     OW63287   9.116   9.154   8.485 -0.0198  0.2712 -0.0427
20427SOL    HW163288   9.154   9.080   8.437  0.9244  1.1864 -0.7809
20427SOL    HW263289   9.023   9.151   8.464  0.3734  0.7383 -2.1736
20428SOL     OW63290  10.044   4.376   6.351 -0.1810  0.8075 -0.0215
20428SOL    HW163291  10.008   4.336   6.272 -2.1123  1.8326  0.2752
20428SOL    HW263292  10.062   4.467   6.326  2.7436  0.2748 -0.2680
20429SOL     OW63293   8.090   8.528   7.770  0.6927  0.0544 -0.9294
20429SOL    HW163294   7.994   8.535   7.771  0.6716 -0.2549 -0.4932
20429SOL    HW263295   8.114   8.518   7.862  1.0827 -0.6755 -1.1078
20430SOL     OW63296   3.748   1.433   5.715  0.3543  0.1939 -0.7276
20430SOL    HW163297   3.835   1.469   5.696  0.8551 -0.9355 -0.6418
20430SOL    HW263298   3.764   1.340   5.733 -0.5879  0.3675  1.3231
20431SOL     OW63299   1.509  10.140   1.661  0.1462 -0.2021  0.3536
20431SOL    HW163300   1.597  10.176   1.649 -0.2367  1.7093  2.5204
20431SOL    HW263301   1.521  10.046   1.655  1.6472  0.0505 -3.1673
20432SOL     OW63302   7.293   1.138   6.596  0.4389  0.3840  0.1098
20432SOL    HW163303   7.359   1.093   6.650  0.2785 -1.0754 -0.8598
20432SOL    HW263304   7.306   1.231   6.615  0.3814 -0.0538  2.6758
20433SOL     OW63305   7.174   9.060   9.600  0.3291  0.3605  0.4864
20433SOL    HW163306   7.189   8.999   9.672  1.1930  0.9141  0.7992
20433SOL    HW263307   7.260   9.102   9.586 -0.4096  2.0898  0.8263
20434SOL     OW63308   4.425   8.280   5.563  0.1564  0.3695  0.0715
20434SOL    HW163309   4.423   8.365   5.518  1.3309  0.0612 -0.5852
20434SOL    HW263310   4.332   8.256   5.572 -0.1441  0.3019 -2.4736
20435SOL     OW63311   7.954   0.616  10.485 -0.6152  0.0153 -0.5120
20435SOL    HW163312   7.991   0.674  10.417 -3.0265  2.2633 -0.0641
20435SOL    HW263313   7.866   0.595  10.453 -1.2867 -0.0058  1.2580
20436SOL     OW63314   5.401   9.477   5.879  0.2151  0.2598 -0.8332
20436SOL    HW163315   5.438   9.466   5.966  0.0387 -0.9598 -0.8913
20436SOL    HW263316   5.467   9.527   5.831  0.5874  0.4023 -0.1862
20437SOL     OW63317   2.145   3.341   0.440 -0.1019 -0.1453 -0.2388
20437SOL    HW163318   2.057   3.339   0.402  0.0533 -1.7919 -0.6203
20437SOL    HW263319   2.131   3.320   0.533 -0.2528  1.4683  0.1372
20438SOL     OW63320   2.233   7.342   9.514 -0.2322 -0.2360  0.2170
20438SOL    HW163321   2.303   7.289   9.553 -0.1310 -0.2660 -0.0050
20438SOL    HW263322   2.271   7.429   9.505  0.2063 -0.5313 -1.0440
20439SOL     OW63323   5.446   7.162   7.274 -0.0329  0.4449  0.4236
20439SOL    HW163324   5.529   7.114   7.272 -0.7054 -0.7255 -0.5323
20439SOL    HW263325   5.402   7.130   7.353 -1.0232 -1.5225 -0.8666
20440SOL     OW63326   8.529   2.182   9.064  0.4557  0.5509  0.1839
20440SOL    HW163327   8.457   2.235   9.097  0.7516  0.3872  1.1016
20440SOL    HW263328   8.525   2.101   9.115  1.0979  0.4134  0.0239
20441SOL     OW63329   8.552  10.216   7.324 -0.6611  0.1415 -0.5051
20441SOL    HW163330   8.460  10.195   7.309 -1.0211  1.7207 -0.6507
20441SOL    HW263331   8.566  10.200   7.417 -0.4062 -2.4395 -0.9110
20442SOL     OW63332   3.960  10.872   8.691  0.1263 -0.4910 -0.3714
20442SOL    HW163333   4.010  10.911   8.619 -1.0466  0.7617 -0.5428
20442SOL    HW263334   3.985  10.923   8.768 -0.0703 -0.5701 -0.2547
20443SOL     OW63335  11.086   0.188   4.089  0.3571 -0.3954 -0.6728
20443SOL    HW163336  11.005   0.205   4.042  0.0081 -0.6451 -0.1750
20443SOL    HW263337  11.076   0.099   4.124  0.2757  0.0593  0.5181
20444SOL     OW63338   5.844   7.407  10.068 -0.4495  0.5939 -0.2719
20444SOL    HW163339   5.801   7.487  10.096  0.3181  1.6802 -2.0106
20444SOL    HW263340   5.937   7.423  10.082 -0.2932  0.0023 -0.5916
20445SOL     OW63341   0.765   9.275   8.679  0.6090 -0.1088  0.3433
20445SOL    HW163342   0.778   9.203   8.617  0.3364 -0.3482  0.5588
20445SOL    HW263343   0.852   9.314   8.689  0.2502  1.5487 -2.0965
20446SOL     OW63344   2.108   3.244  10.366  0.0069  0.4174 -0.5595
20446SOL    HW163345   2.102   3.215  10.456  0.0995  1.3266 -0.2468
20446SOL    HW263346   2.055   3.324  10.362  0.1172  0.4707 -1.2683
20447SOL     OW63347   3.048   3.629   0.153  0.4304  0.5787  0.7094
20447SOL    HW163348   3.065   3.627   0.059 -1.0475  0.9663  0.4011
20447SOL    HW263349   3.126   3.668   0.191  1.0834  0.3299 -0.3437
20448SOL     OW63350   6.554   2.942   7.731  0.1145 -0.2212  0.2223
20448SOL    HW163351   6.533   2.948   7.824 -0.6200  2.3835 -0.0278
20448SOL    HW263352   6.650   2.953   7.727 -0.0225  1.4315  0.6284
20449SOL     OW63353   5.751   0.051   1.893  0.5922 -0.2924 -0.2222
20449SOL    HW163354   5.804  -0.024   1.865 -0.2169 -1.6244  1.5638
20449SOL    HW263355   5.684   0.059   1.826  1.4158 -0.3591 -1.0744
20450SOL     OW63356   4.909   9.650   5.126 -0.1135 -0.1645 -0.4964
20450SOL    HW163357   4.835   9.627   5.181 -0.7604 -0.1862 -1.3508
20450SOL    HW263358   4.986   9.626   5.178 -0.7053 -0.4575  0.2644
20451SOL     OW63359   9.659   7.401   8.373 -0.7189  0.0022 -0.5795
20451SOL    HW163360   9.656   7.457   8.296 -1.2265 -0.6990 -1.0800
20451SOL    HW263361   9.676   7.461   8.446 -1.2713  0.8021 -1.0994
20452SOL     OW63362   0.571   0.143  10.158 -0.3032  0.0049  0.2555
20452SOL    HW163363   0.565   0.139  10.253 -0.1319 -1.2120  0.2347
20452SOL    HW263364   0.481   0.158  10.129 -0.6737 -1.4230  0.5686
20453SOL     OW63365   5.616   6.881   9.036 -0.2811  0.2110 -0.2112
20453SOL    HW163366   5.692   6.939   9.030 -1.5364  2.0396  0.5993
20453SOL    HW263367   5.614   6.835   8.952  2.0846 -0.4323  0.0096
20454SOL     OW63368   1.702   8.072   9.798 -0.4228 -0.0347  0.4484
20454SOL    HW163369   1.627   8.126   9.772  0.2853  1.2630  1.0375
20454SOL    HW263370   1.741   8.119   9.872 -1.0879 -2.4817  2.4925
20455SOL     OW63371   0.719  10.069   9.157 -0.2010 -0.2082  0.1639
20455SOL    HW163372   0.677  10.139   9.207  2.4299  0.4386  1.6373
20455SOL    HW263373   0.774  10.024   9.220  0.9136 -1.3381 -1.5288
20456SOL     OW63374   1.914   9.577  10.782  0.2276  0.0479 -0.4247
20456SOL    HW163375   1.951   9.653  10.738 -0.4059  0.5931 -0.0320
20456SOL    HW263376   1.988   9.536  10.825  0.4920  0.7433 -0.2020
20457SOL     OW63377   3.426  10.748   8.332 -0.5881 -0.0283 -0.0381
20457SOL    HW163378   3.463  10.705   8.409 -1.0922  0.9490  0.7667
20457SOL    HW263379   3.467  10.703   8.258  0.6452 -0.3475  0.8048
20458SOL     OW63380   9.490   0.112   9.940  0.3477  0.1142  0.3359
20458SOL    HW163381   9.401   0.143   9.958 -0.0241  0.0316 -1.1979
20458SOL    HW263382   9.539   0.191   9.918 -0.5062 -0.1495 -3.1968
20459SOL     OW63383   3.765   6.031   4.047 -0.4483 -0.1131  0.2256
20459SOL    HW163384   3.735   6.087   4.119 -2.2662 -0.2004 -0.4121
20459SOL    HW263385   3.692   5.973   4.030  1.1721 -2.3204  0.4332
20460SOL     OW63386   3.776  10.158  10.430  0.1432 -0.4850  0.4207
20460SOL    HW163387   3.825  10.229  10.472 -0.2872  1.0760 -1.5716
20460SOL    HW263388   3.685  10.188  10.429  0.1827 -0.2731 -1.8780
20461SOL     OW63389   1.432   1.692   6.721 -0.4153 -0.4249 -0.2331
20461SOL    HW163390   1.419   1.707   6.815 -0.6591  1.6836 -0.5522
20461SOL    HW263391   1.479   1.770   6.691  0.8375 -1.6660 -1.6487
20462SOL     OW63392   3.213   2.088   5.780  0.5427 -0.1135  0.0241
20462SOL    HW163393   3.258   2.011   5.816 -0.0833 -1.3388 -1.7064
20462SOL    HW263394   3.233   2.158   5.842  2.4141 -1.2933  0.8384
20463SOL     OW63395   8.528   4.977   9.633 -0.0942 -0.4993 -0.1446
20463SOL    HW163396   8.563   4.961   9.545  0.5746 -0.7073  0.1513
20463SOL    HW263397   8.601   5.015   9.681 -0.2170 -1.1235  0.5490
20464SOL     OW63398   5.074   2.464   9.414  0.2648  0.0407 -0.3756
20464SOL    HW163399   5.158   2.448   9.372  1.0092  1.2452  0.5596
20464SOL    HW263400   5.018   2.498   9.344  1.1736  1.0713 -0.6322
20465SOL     OW63401   3.591   6.369  11.021  0.0856  0.0644 -0.0324
20465SOL    HW163402   3.570   6.337  11.109 -0.4456 -0.8177 -0.4621
20465SOL    HW263403   3.674   6.416  11.032 -0.2388  0.4155  1.0305
20466SOL     OW63404   3.679   3.760  10.388 -0.9276 -0.1223  0.7232
20466SOL    HW163405   3.775   3.758  10.387 -0.7460  2.4282  2.3137
20466SOL    HW263406   3.656   3.736  10.478 -1.9358 -2.4641 -0.1038
20467SOL     OW63407   1.703   1.739   6.509 -0.2181 -0.0234 -0.0727
20467SOL    HW163408   1.666   1.792   6.438 -1.2200  1.2625  1.3550
20467SOL    HW263409   1.667   1.651   6.494 -1.0807  0.4196 -0.6837
20468SOL     OW63410   1.953   7.664   1.692  0.2895 -0.2203  0.3312
20468SOL    HW163411   1.980   7.735   1.635 -2.0529  0.8147  0.4256
20468SOL    HW263412   1.931   7.592   1.633  0.6941 -0.1746  0.1228
20469SOL     OW63413   2.797   7.792   4.450 -0.0223 -0.0672 -0.6064
20469SOL    HW163414   2.884   7.828   4.432 -0.2643  2.2489  2.1036
20469SOL    HW263415   2.812   7.729   4.520 -0.3509 -0.8442 -1.2330
20470SOL     OW63416   0.096   9.016   2.353 -0.6937  0.3947  0.0543
20470SOL    HW163417   0.048   9.007   2.271  0.1934 -0.1540 -0.4216
20470SOL    HW263418   0.087   9.108   2.377 -0.0852  0.8168 -1.2230
20471SOL     OW63419  10.726   7.963   8.951 -0.3513  0.0239 -0.1700
20471SOL    HW163420  10.648   7.952   9.004 -0.1002  1.6559  0.5926
20471SOL    HW263421  10.788   7.897   8.984 -1.5157 -1.6371 -1.1306
20472SOL     OW63422   0.612   9.281   3.023 -0.0512 -0.0061  0.3763
20472SOL    HW163423   0.536   9.338   3.011  0.7545  1.0501  0.1300
20472SOL    HW263424   0.616   9.229   2.943 -1.8206 -1.7207  1.3233
20473SOL     OW63425   1.150   3.208   5.406 -0.1184  0.0702 -0.0845
20473SOL    HW163426   1.058   3.202   5.381  0.1653 -1.3975 -0.9237
20473SOL    HW263427   1.197   3.181   5.327  0.9266 -1.8039  1.1095
20474SOL     OW63428   7.000   6.438  10.929 -0.3629 -0.1648  0.2665
20474SOL    HW163429   7.032   6.514  10.880  0.3881 -0.1229  0.8038
20474SOL    HW263430   6.975   6.472  11.014 -0.7663 -0.3977  0.2458
20475SOL     OW63431   2.604   6.052   3.010  0.6924  0.5088 -0.4013
20475SOL    HW163432   2.595   6.058   2.915  0.5867 -0.1872 -0.4398
20475SOL    HW263433   2.523   6.010   3.039  1.4234 -0.8339 -0.1880
20476SOL     OW63434   5.431   9.905   0.594  0.3830  0.3827  0.4906
20476SOL    HW163435   5.470   9.941   0.674 -0.2455 -2.0217  1.9923
20476SOL    HW263436   5.341   9.938   0.594  0.3823  0.3852  0.8049
20477SOL     OW63437   1.995   6.228   8.449  0.0384 -0.4392 -0.1410
20477SOL    HW163438   1.966   6.144   8.484 -2.6402  0.3956 -0.1178
20477SOL    HW263439   2.086   6.213   8.424  0.3017 -2.7058  1.7948
20478SOL     OW63440   3.060   7.402   0.997  0.7940  0.1730 -0.1476
20478SOL    HW163441   3.149   7.423   1.023  0.3677  0.6407  1.0284
20478SOL    HW263442   3.062   7.310   0.971  1.5183  0.0394  0.3601
20479SOL     OW63443   5.402   1.444   0.697  0.0738  0.8204  0.0100
20479SOL    HW163444   5.340   1.458   0.625  0.2850 -0.9133 -0.5477
20479SOL    HW263445   5.357   1.384   0.756  0.2860  1.4701  0.8420
20480SOL     OW63446   0.372   3.515   3.710 -0.1123 -0.6727 -0.0278
20480SOL    HW163447   0.276   3.507   3.712 -0.1016 -0.7664  0.2318
20480SOL    HW263448   0.403   3.425   3.700 -0.0696 -0.5448 -1.1800
20481SOL     OW63449   0.069   8.474   0.858  0.1498  0.2841  0.8855
20481SOL    HW163450   0.148   8.430   0.889 -0.7415 -0.6590  1.9320
20481SOL    HW263451   0.016   8.404   0.820  0.6261  1.2188 -1.6488
20482SOL     OW63452   8.058   7.775   0.428 -0.2982 -0.6454  0.6718
20482SOL    HW163453   8.129   7.792   0.489  0.5260  0.1487 -0.4915
20482SOL    HW263454   8.089   7.703   0.373 -0.1005  0.1296 -0.2617
20483SOL     OW63455   3.374   8.078   4.802 -0.0150 -0.8510  0.1307
20483SOL    HW163456   3.456   8.097   4.848 -0.7381  0.9189  0.7809
20483SOL    HW263457   3.352   7.989   4.827  1.7319 -1.3899 -0.1139
20484SOL     OW63458   4.526   7.282   5.891 -0.3314 -0.0968  0.0981
20484SOL    HW163459   4.483   7.302   5.974  0.6337  1.7104  0.2281
20484SOL    HW263460   4.509   7.189   5.877 -1.4315 -0.2004  1.7714
20485SOL     OW63461   7.462   0.115   8.883 -0.3691 -0.3709 -0.0344
20485SOL    HW163462   7.482   0.058   8.809 -0.3703 -0.2498 -0.1268
20485SOL    HW263463   7.471   0.204   8.849 -0.1730 -0.3155  0.1629
20486SOL     OW63464   8.303   6.025   0.340  0.3372  0.3751  0.6083
20486SOL    HW163465   8.298   6.053   0.431 -0.4731 -1.1321  1.0489
20486SOL    HW263466   8.358   5.947   0.341 -0.8750 -0.5127  0.0301
20487SOL     OW63467   6.658   2.423   8.943  0.3466  0.0897  0.0364
20487SOL    HW163468   6.633   2.343   8.990 -0.6833  0.2143 -0.2588
20487SOL    HW263469   6.679   2.485   9.013 -2.0138  0.5446  0.4539
20488SOL     OW63470   6.676   9.077  10.508  0.2431  0.4058  0.0266
20488SOL    HW163471   6.714   8.996  10.541  1.1578  0.6485 -0.4169
20488SOL    HW263472   6.640   9.120  10.585 -2.2461 -1.4267  0.0128
20489SOL     OW63473   1.983   8.327   3.771  0.6337  0.0099  0.3266
20489SOL    HW163474   1.929   8.374   3.835 -0.2255 -0.7602  0.1655
20489SOL    HW263475   2.027   8.259   3.822 -1.1541 -1.5422 -0.1091
20490SOL     OW63476   5.875   6.627   8.501 -0.5659 -0.2643  0.1637
20490SOL    HW163477   5.957   6.649   8.458 -1.6568  0.5765 -1.5771
20490SOL    HW263478   5.899   6.616   8.593  1.5622 -0.5131 -0.3590
20491SOL     OW63479   4.426   0.911   8.619 -0.0289  0.3383 -0.3982
20491SOL    HW163480   4.490   0.927   8.550 -0.4217  1.4469 -0.5335
20491SOL    HW263481   4.350   0.875   8.573  0.3509 -0.6454 -0.2836
20492SOL     OW63482   7.481   4.678   8.014 -0.1527 -0.5379 -0.1987
20492SOL    HW163483   7.433   4.730   8.079  0.7390  0.9604 -0.6889
20492SOL    HW263484   7.425   4.603   7.998 -2.5321  1.2727 -0.9855
20493SOL     OW63485   5.725   9.959   8.747 -0.4116 -0.8084 -0.2512
20493SOL    HW163486   5.695  10.027   8.687 -0.5800  2.1539  2.8759
20493SOL    HW263487   5.820   9.969   8.750 -0.5015 -0.0832  0.8080
20494SOL     OW63488   7.069   3.923   7.487  0.1531  0.3062  0.7050
20494SOL    HW163489   7.152   3.928   7.441 -0.6441  0.5972 -0.7686
20494SOL    HW263490   7.082   3.855   7.553  1.1916 -0.5108 -0.3030
20495SOL     OW63491   4.652   8.024   7.477  0.2342  0.2757 -0.2093
20495SOL    HW163492   4.616   8.003   7.562 -0.2207  1.0863 -0.1957
20495SOL    HW263493   4.640   8.119   7.468  0.2679  0.1992 -1.1700
20496SOL     OW63494  10.296   9.593   8.189 -0.0583  0.6596  0.0343
20496SOL    HW163495  10.299   9.624   8.279 -0.1787  0.3794  0.1363
20496SOL    HW263496  10.267   9.669   8.138 -1.3972  0.4300  0.4238
20497SOL     OW63497   7.835   9.206   5.155  0.0601  0.1544 -0.3540
20497SOL    HW163498   7.812   9.119   5.187  2.4145 -0.4563 -0.1534
20497SOL    HW263499   7.803   9.266   5.223  1.0560 -0.8028  1.0140
20498SOL     OW63500   8.173  10.960   7.599  0.0840 -0.4421 -0.4874
20498SOL    HW163501   8.136  10.992   7.681  0.9198  1.6764 -0.8782
20498SOL    HW263502   8.152  10.866   7.598 -2.5692  0.0482  0.7003
20499SOL     OW63503   5.030   3.597  10.385  0.1371  0.4413 -0.1076
20499SOL    HW163504   5.071   3.556  10.308 -0.9378 -0.6808 -0.1218
20499SOL    HW263505   5.096   3.589  10.454  0.9555  1.0875 -0.7940
20500SOL     OW63506   6.992  10.935   9.613  0.4046  0.0039 -0.3072
20500SOL    HW163507   6.997  10.978   9.528 -1.4902 -0.7598 -0.8557
20500SOL    HW263508   6.923  10.982   9.660 -2.5023 -2.8664 -1.3075
20501SOL     OW63509   3.708   9.203   3.991  0.3619 -0.0541 -0.2460
20501SOL    HW163510   3.709   9.149   4.070  0.5231  0.6955  0.2749
20501SOL    HW263511   3.763   9.156   3.929  1.0399 -0.1571  0.4265
20502SOL     OW63512   5.099   9.020  10.631  0.4231  0.1315 -0.5086
20502SOL    HW163513   5.060   9.107  10.635  1.5481  0.6953 -1.4778
20502SOL    HW263514   5.193   9.035  10.629  0.7415 -1.1979  1.5614
20503SOL     OW63515   4.374   6.942   7.370  0.4413 -0.2041  0.2857
20503SOL    HW163516   4.413   7.003   7.432 -1.1108 -0.2564  1.3764
20503SOL    HW263517   4.351   6.996   7.295  0.4265  0.2810  0.6337
20504SOL     OW63518  10.694   6.727   7.119  0.1413  0.2651 -0.0806
20504SOL    HW163519  10.761   6.755   7.057  1.5617 -0.5742  0.9889
20504SOL    HW263520  10.673   6.637   7.094  0.0312  0.2456  0.0767
20505SOL     OW63521   1.965   7.423   9.380  0.1912 -0.1431 -0.3577
20505SOL    HW163522   1.952   7.510   9.417 -1.9512 -1.6739  3.0640
20505SOL    HW263523   2.037   7.386   9.430 -1.5987 -1.6586  1.2501
20506SOL     OW63524   3.222  10.830   4.761  0.4999 -0.2701  0.8938
20506SOL    HW163525   3.244  10.903   4.703 -2.3624 -0.8128 -1.0958
20506SOL    HW263526   3.292  10.766   4.745  1.7311  1.0172  0.8583
20507SOL     OW63527   7.292  10.699   0.260 -0.1938  0.2421 -0.1146
20507SOL    HW163528   7.236  10.630   0.225  0.3598  0.7306 -2.1238
20507SOL    HW263529   7.381  10.665   0.251 -0.0139  0.5475  0.4616
20508SOL     OW63530   3.707   0.888   6.747 -0.5952  0.5917  0.3644
20508SOL    HW163531   3.677   0.951   6.812 -0.1292  0.6509  0.5268
20508SOL    HW263532   3.784   0.847   6.787 -0.6157  0.2540  0.0676
20509SOL     OW63533  10.295   2.369   5.648 -0.0357  0.1996  0.4542
20509SOL    HW163534  10.252   2.381   5.733 -0.2994  0.5471  0.2782
20509SOL    HW263535  10.244   2.300   5.605 -2.1227  2.3493 -0.8052
20510SOL     OW63536   1.100   6.965   6.039  0.0166  0.1304 -0.3525
20510SOL    HW163537   1.027   6.918   6.000  0.6985 -0.8611 -0.4488
20510SOL    HW263538   1.178   6.921   6.006  0.6570  0.9163  0.0747
20511SOL     OW63539   9.368   3.114   0.271  0.3886 -0.1664  0.0646
20511SOL    HW163540   9.385   3.140   0.362  0.8936 -2.5584  0.7408
20511SOL    HW263541   9.450   3.130   0.226  0.3442  0.4210  0.1881
20512SOL     OW63542   7.917   3.805   3.235  0.4983  0.1184 -0.3977
20512SOL    HW163543   7.973   3.870   3.277  0.3258  0.0902 -0.1188
20512SOL    HW263544   7.840   3.854   3.206  0.9085  0.2640 -1.2880
20513SOL     OW63545   2.321   4.525   9.063  0.0438  0.5729  0.2298
20513SOL    HW163546   2.403   4.478   9.072  0.2083  0.6463 -0.7486
20513SOL    HW263547   2.343   4.616   9.081  0.3100  0.6832 -0.6284
20514SOL     OW63548   3.057   0.457   1.912  0.0682 -0.3148 -0.0596
20514SOL    HW163549   3.063   0.390   1.844 -1.0730 -0.5991  0.1010
20514SOL    HW263550   3.108   0.421   1.985 -2.0070 -1.8947  0.7048
20515SOL     OW63551   4.922   1.391   3.616 -0.1762 -0.1625  0.1596
20515SOL    HW163552   4.937   1.437   3.533 -0.9699  0.4702  0.3529
20515SOL    HW263553   4.956   1.303   3.601  0.4676  0.1925 -0.5512
20516SOL     OW63554   6.332   7.795  10.665 -0.6995 -0.0197  0.5689
20516SOL    HW163555   6.403   7.770  10.605 -0.2009  0.1357  1.0867
20516SOL    HW263556   6.270   7.723  10.659  0.0729 -0.7455  1.0063
20517SOL     OW63557   5.545   9.549   4.026  0.0789 -0.0681  0.3010
20517SOL    HW163558   5.616   9.485   4.042 -0.2527 -0.5667 -0.1829
20517SOL    HW263559   5.551   9.568   3.933  0.7222  1.2839  0.6005
20518SOL     OW63560   5.006  10.097   4.110  0.1281 -0.2467 -0.6238
20518SOL    HW163561   4.913  10.079   4.122  0.2229 -0.3791 -0.0769
20518SOL    HW263562   5.037  10.027   4.052 -0.0713 -0.3127 -0.6500
20519SOL     OW63563   4.657   9.450   9.081  0.2943 -0.0890  0.2382
20519SOL    HW163564   4.724   9.505   9.122 -1.0910  0.5150  1.7993
20519SOL    HW263565   4.644   9.490   8.995 -0.9160  2.3696  1.4565
20520SOL     OW63566   7.936   6.533   0.792  0.1570 -0.8122 -0.1231
20520SOL    HW163567   7.931   6.566   0.702 -2.0801 -0.2141  0.1543
20520SOL    HW263568   7.876   6.589   0.841  1.7433 -0.7894  1.8931
20521SOL     OW63569   9.026  10.872   9.844  0.5037  0.1252  0.9706
20521SOL    HW163570   9.073  10.844   9.766 -0.4927  0.5539  0.2015
20521SOL    HW263571   8.951  10.813   9.850  0.1998  0.5274  1.2030
20522SOL     OW63572   4.075   6.828   8.851 -0.3959 -0.5013  0.3549
20522SOL    HW163573   3.986   6.838   8.817 -0.1579  0.2194 -0.0804
20522SOL    HW263574   4.106   6.918   8.863  0.3559 -0.7432  0.2911
20523SOL     OW63575   4.591   7.608  10.887 -0.0932  0.3149 -0.3646
20523SOL    HW163576   4.597   7.557  10.968 -0.0974  0.9195  0.0190
20523SOL    HW263577   4.582   7.542  10.818 -0.9103 -0.1880  0.2025
20524SOL     OW63578   6.111   0.038   9.729 -0.7622  0.3106 -0.0145
20524SOL    HW163579   6.043   0.024   9.794 -1.8062  1.3234 -0.8361
20524SOL    HW263580   6.164   0.109   9.764  0.3420 -0.9563  0.9599
20525SOL     OW63581   4.209   2.468   0.846 -0.5795 -0.1642  0.0280
20525SOL    HW163582   4.251   2.509   0.770 -2.6944  1.4844 -0.3447
20525SOL    HW263583   4.166   2.390   0.811 -0.7140  0.0412 -0.2610
20526SOL     OW63584   4.800   4.477   1.932  0.0970  0.0417 -0.2398
20526SOL    HW163585   4.769   4.391   1.962  0.4038  0.2505  0.7308
20526SOL    HW263586   4.799   4.531   2.011 -0.2870  0.9917 -0.8850
20527SOL     OW63587   5.597   9.173   6.494  0.1937 -0.3953 -0.5486
20527SOL    HW163588   5.601   9.268   6.483 -1.7783 -0.1022  0.6675
20527SOL    HW263589   5.511   9.150   6.458 -0.4996 -1.2981  1.5680
20528SOL     OW63590   6.361   2.735   7.978 -0.3341 -0.0822  0.1875
20528SOL    HW163591   6.350   2.726   8.073 -0.0285  2.0177  0.4619
20528SOL    HW263592   6.273   2.724   7.943 -0.8678  1.3742  0.9631
20529SOL     OW63593   1.625   4.850   0.648  0.4123 -1.0236 -0.2736
20529SOL    HW163594   1.692   4.783   0.665 -0.0036 -1.5403 -0.6343
20529SOL    HW263595   1.560   4.805   0.594 -0.1171 -0.4633 -0.1077
20530SOL     OW63596   2.578  10.101   8.740  0.0238  0.5050  0.0662
20530SOL    HW163597   2.499  10.142   8.775 -0.3267  0.3923 -0.5734
20530SOL    HW263598   2.557  10.085   8.647  1.5291  2.3347 -0.6390
20531SOL     OW63599   5.152   3.418   0.395  0.6816 -0.3379  0.0818
20531SOL    HW163600   5.131   3.426   0.488 -0.3798 -0.9253 -0.0914
20531SOL    HW263601   5.197   3.499   0.373 -2.7410  1.7465  0.1416
20532SOL     OW63602   4.030   7.076   9.897  0.1654  0.1776 -0.2665
20532SOL    HW163603   4.006   7.013   9.829  0.5286 -0.3237  0.0647
20532SOL    HW263604   3.950   7.125   9.914 -0.3262 -0.7114  0.0153
20533SOL     OW63605   1.863   1.876   9.474  0.2984 -0.2283  0.0393
20533SOL    HW163606   1.921   1.923   9.534  1.4076  0.5848 -1.5854
20533SOL    HW263607   1.787   1.933   9.465 -0.2139 -0.6877  1.1636
20534SOL     OW63608  10.015   1.647   0.798 -0.3652  0.3548 -0.5481
20534SOL    HW163609   9.968   1.624   0.879  0.7242  0.7272  0.2065
20534SOL    HW263610  10.107   1.651   0.824  0.0142  0.4027 -1.8374
20535SOL     OW63611   3.712   1.219   0.997 -0.4928 -0.7378  0.3283
20535SOL    HW163612   3.770   1.246   0.925  0.9574 -1.0624  1.3430
20535SOL    HW263613   3.624   1.216   0.957 -0.1406  1.6601 -0.7646
20536SOL     OW63614   8.969   8.232   6.251 -0.0937 -0.1309  0.0767
20536SOL    HW163615   9.024   8.301   6.286 -0.5020  1.4154 -2.1218
20536SOL    HW263616   8.880   8.266   6.256 -0.3884 -0.7941 -0.3403
20537SOL     OW63617   7.744  10.152   4.560 -0.3309  0.3318  0.9272
20537SOL    HW163618   7.759  10.104   4.478  2.3630  2.9928 -0.3145
20537SOL    HW263619   7.670  10.209   4.541 -0.0492  0.5656  0.5018
20538SOL     OW63620   4.392   4.488   1.130 -0.2197  0.6098  0.0639
20538SOL    HW163621   4.406   4.512   1.039 -0.4372  2.3733  0.4647
20538SOL    HW263622   4.297   4.478   1.138 -0.0987 -1.0373 -0.2246
20539SOL     OW63623  10.953   6.234   9.809 -0.2054  0.4255  0.1064
20539SOL    HW163624  11.041   6.206   9.835 -0.3369  0.0112  0.1198
20539SOL    HW263625  10.952   6.224   9.714 -0.9892 -1.9013  0.2801
20540SOL     OW63626  10.191   8.935   4.663  0.0490 -0.2707  0.3235
20540SOL    HW163627  10.220   8.959   4.575 -0.7286 -1.3255 -0.2438
20540SOL    HW263628  10.233   9.000   4.721  0.2325  0.6928 -0.8500
20541SOL     OW63629   9.498   2.893  10.653 -0.0908  0.7107 -0.2105
20541SOL    HW163630   9.459   2.880  10.740 -0.9636  1.1070 -0.5283
20541SOL    HW263631   9.550   2.814  10.638 -0.9825  0.0365  0.1254
20542SOL     OW63632   9.599   9.020   8.877  0.3747 -0.2009 -0.2349
20542SOL    HW163633   9.589   8.944   8.820  0.9664  0.3933 -1.1695
20542SOL    HW263634   9.541   9.086   8.838 -0.6295 -0.3628  0.9393
20543SOL     OW63635  10.251   4.901   1.736  0.2940 -0.2083 -0.7900
20543SOL    HW163636  10.238   4.877   1.827  0.2871 -1.3862 -1.0897
20543SOL    HW263637  10.207   4.986   1.727  1.2267  0.4489  0.5532
20544SOL     OW63638   2.338   4.668  10.553 -0.0490 -0.0591 -0.3437
20544SOL    HW163639   2.405   4.601  10.543 -1.3472 -1.3433 -0.7137
20544SOL    HW263640   2.330   4.681  10.647  1.8967  1.3966 -0.3059
20545SOL     OW63641   5.658   9.850   7.711  0.1753  0.4618 -0.0071
20545SOL    HW163642   5.640   9.843   7.805  0.4018 -1.2152 -0.0606
20545SOL    HW263643   5.574   9.877   7.673  0.0598  1.0785  0.6545
20546SOL     OW63644  10.509   1.831   8.752  0.3138  0.0452 -0.9301
20546SOL    HW163645  10.533   1.740   8.769 -0.0955 -0.1765 -1.4990
20546SOL    HW263646  10.476   1.830   8.662 -0.3406  0.6237 -0.7036
20547SOL     OW63647   3.481   3.899   8.518 -0.0004  0.1722 -0.2365
20547SOL    HW163648   3.496   3.843   8.442  0.0822  0.6346 -0.5686
20547SOL    HW263649   3.467   3.838   8.591  0.2807 -0.2743 -0.5492
20548SOL     OW63650   8.671   2.962   8.806 -0.1724 -0.0114 -0.0712
20548SOL    HW163651   8.714   3.039   8.771  1.6378 -0.8911  0.1121
20548SOL    HW263652   8.649   2.909   8.728  0.8819 -0.4520 -0.0877
20549SOL     OW63653   3.353   3.275  10.157  0.4921 -0.3155 -0.7689
20549SOL    HW163654   3.302   3.252  10.080 -0.3433 -0.0264 -0.3142
20549SOL    HW263655   3.292   3.268  10.230  1.1137 -0.0136 -0.2036
20550SOL     OW63656   2.821   9.466   5.984  0.6899  0.3785  0.0765
20550SOL    HW163657   2.837   9.533   6.051  0.9508  0.0865  0.3110
20550SOL    HW263658   2.885   9.398   6.003 -1.0920 -1.0461  1.3145
20551SOL     OW63659   7.244   8.429  10.497  0.8801  0.0795 -0.3024
20551SOL    HW163660   7.310   8.360  10.507  0.7067 -0.0350  0.0707
20551SOL    HW263661   7.166   8.384  10.465  0.7703  0.1021 -0.0710
20552SOL     OW63662   3.525   8.910   4.108 -0.5371 -0.0626 -0.7726
20552SOL    HW163663   3.470   8.961   4.049 -0.2603  1.0471 -0.1085
20552SOL    HW263664   3.576   8.976   4.156  0.3822 -1.0060 -0.4168
20553SOL     OW63665   2.237   5.633   3.522 -0.8960  0.3298  0.5677
20553SOL    HW163666   2.192   5.554   3.491 -0.2898 -0.4941  1.7155
20553SOL    HW263667   2.171   5.678   3.576 -0.9894  0.1767  0.5824
20554SOL     OW63668   8.360   3.277   8.748  0.8455 -0.1757  0.3730
20554SOL    HW163669   8.415   3.327   8.688  2.2358 -1.4418  0.5456
20554SOL    HW263670   8.389   3.304   8.836 -1.0944  1.5776  0.5787
20555SOL     OW63671   8.882   2.105   0.337 -0.2407  0.2701 -0.8700
20555SOL    HW163672   8.949   2.039   0.316  1.0132  1.3240 -0.3153
20555SOL    HW263673   8.832   2.066   0.408 -0.0244 -0.4077 -1.0755
20556SOL     OW63674   8.043   6.580   2.208 -0.2882 -0.4372  0.0514
20556SOL    HW163675   8.006   6.519   2.272  1.0822 -2.7167 -1.1767
20556SOL    HW263676   8.059   6.660   2.257  2.3639 -2.5959  3.1455
20557SOL     OW63677   3.800   0.308   9.433  0.2580 -0.1652 -0.6839
20557SOL    HW163678   3.810   0.216   9.406  1.1627 -0.6738  1.1769
20557SOL    HW263679   3.710   0.330   9.412  0.2674 -1.2198 -1.9213
20558SOL     OW63680   9.410  10.942   5.559 -0.2612  0.6008 -0.0982
20558SOL    HW163681   9.339  10.997   5.526 -1.6833 -1.3226 -0.4927
20558SOL    HW263682   9.385  10.923   5.649 -0.2550 -0.0544 -0.2266
20559SOL     OW63683   3.025   6.070  10.752 -0.5853 -0.3523 -0.4839
20559SOL    HW163684   3.028   6.127  10.829  0.3147  1.0826 -1.5328
20559SOL    HW263685   2.963   6.113  10.693 -0.8399 -1.1318 -0.7908
20560SOL     OW63686   8.560   9.905   6.791 -0.2575  0.0884 -0.1821
20560SOL    HW163687   8.538   9.920   6.883 -0.9121 -0.0184 -0.3173
20560SOL    HW263688   8.619   9.977   6.768  0.6451 -0.3869  0.5679
20561SOL     OW63689   4.491   9.559   5.621  0.3357 -0.2824 -0.2675
20561SOL    HW163690   4.586   9.561   5.631  0.2581 -1.8025  1.1124
20561SOL    HW263691   4.472   9.471   5.588 -0.6397 -0.2024  0.0483
20562SOL     OW63692   6.373   5.965   7.155 -0.4738 -0.2526 -0.1581
20562SOL    HW163693   6.335   6.050   7.133  0.0531  0.1430  0.4085
20562SOL    HW263694   6.440   5.950   7.087 -0.9299 -0.4737 -0.5657
20563SOL     OW63695   4.853   2.182   6.997  0.3200 -0.7834  0.1880
20563SOL    HW163696   4.788   2.231   6.947  2.4072  0.4041 -1.5456
20563SOL    HW263697   4.886   2.246   7.061  1.3111 -0.6570 -0.4315
20564SOL     OW63698   5.785   1.296   4.433 -0.4334  0.2735  0.2079
20564SOL    HW163699   5.727   1.368   4.456  0.8246  1.0255  1.1520
20564SOL    HW263700   5.749   1.221   4.481 -1.2017  0.4852 -0.0258
20565SOL     OW63701   1.078   8.460   9.263  0.0330  0.5382 -0.2366
20565SOL    HW163702   1.130   8.411   9.199 -0.6977  0.1827 -0.5630
20565SOL    HW263703   1.092   8.552   9.240 -0.1396  0.4168 -0.8369
20566SOL     OW63704   5.968   3.194   2.666  0.1214 -0.5117 -0.6634
20566SOL    HW163705   6.003   3.136   2.733 -0.2963  2.2588  2.1893
20566SOL    HW263706   6.043   3.246   2.636 -0.3004  0.8661  0.5593
20567SOL     OW63707   4.607   0.455   3.882 -0.1569 -0.2029  0.2611
20567SOL    HW163708   4.634   0.450   3.973  0.3003  0.5602  0.1725
20567SOL    HW263709   4.517   0.487   3.886  0.1680  0.7255  0.4180
20568SOL     OW63710   1.773   9.091  10.988 -0.1968  0.0085 -0.0705
20568SOL    HW163711   1.691   9.064  10.947 -0.0823  3.2568 -2.9243
20568SOL    HW263712   1.758   9.181  11.017  2.4948  1.0537 -1.5038
20569SOL     OW63713  11.021   6.451  10.766  0.1558  0.0343  0.1301
20569SOL    HW163714  11.033   6.365  10.807 -0.6340 -0.6175 -0.9647
20569SOL    HW263715  11.101   6.499  10.788  2.2245 -2.1128 -2.0014
20570SOL     OW63716  10.215   8.654   4.272 -0.2517  0.4015  0.1756
20570SOL    HW163717  10.271   8.713   4.222 -1.9314  3.7308  1.9058
20570SOL    HW263718  10.126   8.677   4.247 -1.0117 -0.8411  1.5254
20571SOL     OW63719   9.956   2.975   7.293  0.0632 -0.0617 -0.3520
20571SOL    HW163720  10.042   3.000   7.260 -0.1970 -1.4009 -2.1930
20571SOL    HW263721   9.974   2.923   7.371  0.9651 -0.5162 -0.8425
20572SOL     OW63722   3.412   8.324   9.310 -0.1387  0.1140 -0.3388
20572SOL    HW163723   3.496   8.338   9.354  0.4808 -0.7936 -1.1910
20572SOL    HW263724   3.401   8.401   9.255 -0.0481  0.4037  0.0374
20573SOL     OW63725   3.388   8.336  10.804 -0.2949 -0.6505  0.3148
20573SOL    HW163726   3.311   8.324  10.860 -1.1340  0.0552 -0.6506
20573SOL    HW263727   3.422   8.422  10.828  0.5137 -1.1778  1.0987
20574SOL     OW63728   3.166   9.537  10.912  0.3380  0.2132  0.1293
20574SOL    HW163729   3.198   9.538  10.823 -0.1352 -1.0476 -0.0776
20574SOL    HW263730   3.150   9.445  10.932 -0.0678  0.5081  1.3273
20575SOL     OW63731   4.306   2.047   0.109  0.1043 -0.9388  0.3069
20575SOL    HW163732   4.287   2.087   0.024 -1.0670 -2.5888 -0.2611
20575SOL    HW263733   4.297   2.118   0.172  2.7350  0.7477 -1.0539
20576SOL     OW63734   9.069   2.418  10.387 -0.1462 -0.6134  0.1308
20576SOL    HW163735   9.046   2.330  10.416 -0.1267 -0.7185 -0.1671
20576SOL    HW263736   9.107   2.460  10.464  0.0035 -0.9237  0.2268
20577SOL     OW63737   0.859   6.003   1.963  0.1646 -0.5431 -0.1342
20577SOL    HW163738   0.951   6.004   1.937  0.4861  1.3881  0.8576
20577SOL    HW263739   0.861   6.011   2.059 -0.9846  1.2725 -0.2048
20578SOL     OW63740  10.113   7.392   7.512  0.5276  0.3161 -0.2631
20578SOL    HW163741  10.147   7.321   7.458  1.1846  1.2384 -1.0927
20578SOL    HW263742  10.062   7.348   7.580 -1.5961 -0.8566 -2.4694
20579SOL     OW63743   1.150  10.505   8.850  0.3000  0.7707 -0.0099
20579SOL    HW163744   1.092  10.556   8.793  1.1358  0.9307 -0.7371
20579SOL    HW263745   1.118  10.415   8.842 -0.0862  0.9152 -0.1027
20580SOL     OW63746   2.812   0.489   2.051  0.6803 -0.0455 -0.5900
20580SOL    HW163747   2.762   0.409   2.066 -0.0820  0.6120  0.5847
20580SOL    HW263748   2.899   0.460   2.026  0.8302 -1.2566  1.2076
20581SOL     OW63749   3.303   8.253   0.507  0.1265 -0.7212  0.0377
20581SOL    HW163750   3.322   8.244   0.600  1.7335 -1.2687 -0.3115
20581SOL    HW263751   3.260   8.338   0.499  2.5374  0.6858  0.9592
20582SOL     OW63752   2.891   6.519  10.444 -0.1510 -0.6457 -0.3271
20582SOL    HW163753   2.907   6.596  10.390  0.0653  0.0415  0.6795
20582SOL    HW263754   2.894   6.552  10.534 -0.0894 -1.8201  0.1220
20583SOL     OW63755   1.634   0.111   1.950 -0.7027 -0.0509 -0.5039
20583SOL    HW163756   1.722   0.094   1.916 -1.1628  0.0301 -1.7913
20583SOL    HW263757   1.648   0.150   2.036  0.5285  0.6171 -0.9954
20584SOL     OW63758   1.971   5.134   6.778  0.1235 -0.2908 -0.7177
20584SOL    HW163759   2.039   5.070   6.756 -0.8321 -1.9089  0.7909
20584SOL    HW263760   1.931   5.155   6.694  1.6961 -0.1864 -1.4893
20585SOL     OW63761   5.061   9.575  10.427 -0.1865  0.0693  0.4014
20585SOL    HW163762   5.112   9.655  10.413  0.3326 -0.5285 -1.4452
20585SOL    HW263763   4.994   9.578  10.359 -0.9623 -0.4663  1.1293
20586SOL     OW63764   2.341   6.814   8.103 -0.2377 -0.4811 -0.1503
20586SOL    HW163765   2.312   6.749   8.167  0.4366 -0.1852  0.4698
20586SOL    HW263766   2.293   6.791   8.023  2.6188 -4.1506 -1.1243
20587SOL     OW63767   9.234   6.807   3.564  0.0547  0.5268 -0.0221
20587SOL    HW163768   9.159   6.759   3.529 -2.1697  2.4727  1.7998
20587SOL    HW263769   9.252   6.765   3.648  0.0464  1.0078  0.2180
20588SOL     OW63770   7.979   0.027   9.218 -0.0441  0.6520 -0.3320
20588SOL    HW163771   7.971   0.030   9.313  1.4608  0.8339 -0.1876
20588SOL    HW263772   7.906  -0.028   9.189  0.3073 -0.5893  1.0415
20589SOL     OW63773   2.827   6.435   2.577  0.0297  0.3482  0.4895
20589SOL    HW163774   2.799   6.524   2.554 -0.2379  0.5794  1.6456
20589SOL    HW263775   2.903   6.419   2.521  0.8782  1.8050  1.1603
20590SOL     OW63776   2.698   2.537   1.581 -0.8898  0.0770  0.0075
20590SOL    HW163777   2.734   2.592   1.650 -1.3806  1.2105 -0.6210
20590SOL    HW263778   2.603   2.540   1.595 -0.8949 -1.2214  0.4066
20591SOL     OW63779   6.666   6.787   3.380  0.2190 -0.7647  0.1457
20591SOL    HW163780   6.708   6.747   3.303 -1.9298 -2.6338 -0.1489
20591SOL    HW263781   6.658   6.715   3.442 -1.2213 -0.1052  0.7507
20592SOL     OW63782   3.439   7.767  10.331 -0.0376 -0.7195  0.7544
20592SOL    HW163783   3.497   7.796  10.401  2.3439  1.8626 -2.0415
20592SOL    HW263784   3.354   7.807  10.353  0.8239  0.6250  1.8256
20593SOL     OW63785   3.200   5.193   6.416  0.0370 -0.0797 -0.1620
20593SOL    HW163786   3.140   5.247   6.468 -0.5334 -0.2173 -0.6661
20593SOL    HW263787   3.286   5.209   6.454 -0.1845  0.8533 -0.0324
20594SOL     OW63788   6.162   9.780   9.949 -0.4015 -0.2641 -0.2377
20594SOL    HW163789   6.213   9.738   9.879 -0.2790  0.4372 -0.5850
20594SOL    HW263790   6.134   9.863   9.910  1.6146  1.2347  1.2825
20595SOL     OW63791   3.670   6.406  10.190  0.2869  0.7090  0.0643
20595SOL    HW163792   3.644   6.340  10.126  0.4269  0.3713  0.3495
20595SOL    HW263793   3.588   6.441  10.223  0.2061  1.6655 -1.0801
20596SOL     OW63794   5.100  10.795   9.617  0.5692  0.6927 -0.4897
20596SOL    HW163795   5.180  10.743   9.618  1.6509  2.2217 -1.9397
20596SOL    HW263796   5.108  10.850   9.539 -0.0285  3.7052  1.4092
20597SOL     OW63797   7.525   8.433   8.213  0.4541  0.0335 -0.2256
20597SOL    HW163798   7.474   8.401   8.138 -0.5675  0.6063  0.1987
20597SOL    HW263799   7.614   8.442   8.179 -0.1149  0.9574 -1.5938
20598SOL     OW63800   4.630   3.542  10.815  0.2214  0.1040 -0.2800
20598SOL    HW163801   4.634   3.610  10.882  0.7276 -1.0158  0.8638
20598SOL    HW263802   4.708   3.557  10.761 -0.9274  1.8887 -1.5582
20599SOL     OW63803  10.977   1.872   5.492  0.3446  0.5096 -0.2597
20599SOL    HW163804  10.980   1.949   5.549  0.2775 -0.9003  1.7725
20599SOL    HW263805  10.992   1.798   5.552  1.4876 -0.9934 -2.2813
20600SOL     OW63806   1.456   4.314   0.022  0.1408 -0.0599  0.3866
20600SOL    HW163807   1.498   4.305   0.108 -0.2942 -0.0346  0.6060
20600SOL    HW263808   1.469   4.406  -0.001 -0.7682  0.2371  0.9786
20601SOL     OW63809   8.119   9.185   5.941 -0.5526  0.9706 -0.9189
20601SOL    HW163810   8.198   9.148   5.982 -0.5446  2.0640  0.1221
20601SOL    HW263811   8.152   9.240   5.871 -0.3880  1.2947 -0.5908
20602SOL     OW63812   5.221   4.046   8.651  0.4600 -0.4416  0.1234
20602SOL    HW163813   5.185   4.054   8.739  0.1788 -2.0177  0.1745
20602SOL    HW263814   5.303   4.096   8.654 -0.8196  1.7607  0.4763
20603SOL     OW63815   7.657   2.705   5.163 -0.2498  0.7795 -0.5355
20603SOL    HW163816   7.588   2.639   5.154  0.2111  0.1002  0.7020
20603SOL    HW263817   7.731   2.669   5.114 -0.3852  0.9678 -0.8868
20604SOL     OW63818   9.469   8.448   1.009 -0.2338 -0.5148 -0.7553
20604SOL    HW163819   9.432   8.359   1.013 -0.1047 -0.5814 -1.0426
20604SOL    HW263820   9.563   8.434   1.000 -0.2701 -0.3535 -1.3890
20605SOL     OW63821   1.491  10.073  10.017  0.1702  0.4168  0.1565
20605SOL    HW163822   1.471  10.167  10.019 -0.4192  0.2931  1.4403
20605SOL    HW263823   1.412  10.033   9.980 -0.0588  0.3359  0.7218
20606SOL     OW63824   6.061   7.508   1.133 -0.6089  0.0599  0.1968
20606SOL    HW163825   5.987   7.468   1.087 -0.3839 -2.4223  1.7790
20606SOL    HW263826   6.138   7.462   1.099 -0.1101  0.5733  0.6154
20607SOL     OW63827   3.163   5.168   3.264  0.0028 -0.8962  0.6583
20607SOL    HW163828   3.097   5.200   3.326  1.3010 -0.1744  1.7199
20607SOL    HW263829   3.118   5.098   3.216 -2.4718  1.4229 -0.6823
20608SOL     OW63830   4.846   8.017   0.025  0.2643 -0.1369  0.2316
20608SOL    HW163831   4.799   7.934   0.016  1.8468 -1.2544  1.6099
20608SOL    HW263832   4.779   8.079   0.050 -0.9340 -1.0264 -0.6377
20609SOL     OW63833   3.372   9.024  10.035 -1.1184  0.4949  0.1908
20609SOL    HW163834   3.430   8.974   9.977  0.1667  1.7780  0.3216
20609SOL    HW263835   3.291   9.034   9.984 -1.1934 -1.1655 -0.0644
20610SOL     OW63836   0.048   1.102  10.036 -0.0697  0.1114  0.2793
20610SOL    HW163837   0.076   1.063  10.119 -0.8036  0.9809  0.9626
20610SOL    HW263838   0.098   1.184  10.031  1.9980 -1.1442 -1.4832
20611SOL     OW63839   5.343   8.897   7.988  0.2126  0.2359 -0.0403
20611SOL    HW163840   5.375   8.872   8.075 -0.3339 -0.0319  0.0827
20611SOL    HW263841   5.259   8.854   7.980 -0.2463  1.1514 -0.2692
20612SOL     OW63842   7.993   6.770   9.889  0.1148 -0.0344  0.1177
20612SOL    HW163843   7.903   6.773   9.921  0.9461  1.6905  2.6206
20612SOL    HW263844   7.999   6.841   9.825 -0.5794 -0.9873 -1.0439
20613SOL     OW63845   5.190   8.089   3.724  0.0021 -0.5565  0.1536
20613SOL    HW163846   5.102   8.056   3.740 -0.2961  0.5347  0.9070
20613SOL    HW263847   5.248   8.015   3.743 -0.4971 -0.1656  3.8105
20614SOL     OW63848   0.342   4.376   9.827 -0.4216 -0.4365  0.2761
20614SOL    HW163849   0.271   4.395   9.889 -0.9479 -0.6889 -0.2415
20614SOL    HW263850   0.299   4.331   9.755  0.1229  0.1947 -0.4578
20615SOL     OW63851   4.228   2.200   8.625 -0.0049  0.3545 -0.0850
20615SOL    HW163852   4.143   2.165   8.652  0.2527 -0.1460  0.0913
20615SOL    HW263853   4.281   2.196   8.705  1.2917 -2.6921 -0.9718
20616SOL     OW63854   2.784   1.715   4.816 -0.6457 -0.3987 -1.2954
20616SOL    HW163855   2.825   1.718   4.730 -1.5449  0.8453 -1.7168
20616SOL    HW263856   2.759   1.806   4.834 -0.4271 -0.6144  0.3168
20617SOL     OW63857   3.148  10.227   1.952  0.0142  0.1032  0.1687
20617SOL    HW163858   3.187  10.183   2.027 -0.0827 -1.5492 -0.6973
20617SOL    HW263859   3.222  10.251   1.896  0.2785  3.0747  1.5631
20618SOL     OW63860   4.131   8.972   9.520  0.3389  0.3993  0.2978
20618SOL    HW163861   4.060   8.911   9.503  1.0673 -0.2374 -0.5727
20618SOL    HW263862   4.182   8.973   9.439  1.4533  0.6508  0.9767
20619SOL     OW63863   1.290   5.392  10.975 -0.6279  0.1131  0.2495
20619SOL    HW163864   1.298   5.365  10.883 -0.6841  1.1301 -0.0686
20619SOL    HW263865   1.205   5.435  10.980 -0.6396  0.0320  0.7926
20620SOL     OW63866   9.308   8.003  10.515 -0.0624  0.3375  0.6471
20620SOL    HW163867   9.273   8.023  10.601 -1.1746 -0.3282  0.3651
20620SOL    HW263868   9.277   8.074  10.459 -0.0537  0.3211  0.6208
20621SOL     OW63869   4.744   9.179   0.881  0.0390  0.2744 -0.2287
20621SOL    HW163870   4.818   9.138   0.927 -0.6501  0.8069  1.4205
20621SOL    HW263871   4.668   9.157   0.935 -1.0127 -0.1353 -1.8197
20622SOL     OW63872   5.461   3.334   9.307 -0.0777 -0.1889 -0.4216
20622SOL    HW163873   5.515   3.289   9.243 -2.3269 -1.1158 -1.7818
20622SOL    HW263874   5.464   3.426   9.282  0.7660 -0.2372 -0.5157
20623SOL     OW63875   3.093  10.988   1.307  0.0800 -0.1945 -0.1276
20623SOL    HW163876   3.097  10.981   1.403 -0.0307  0.7996 -0.0392
20623SOL    HW263877   3.112  10.899   1.276  0.5330 -0.4429  0.8069
20624SOL     OW63878   5.695   1.513   6.945  0.4939 -0.4645 -0.3121
20624SOL    HW163879   5.685   1.549   6.857  0.2561  0.5541  0.1230
20624SOL    HW263880   5.781   1.470   6.944  0.2176 -1.0412 -1.2253
20625SOL     OW63881   3.230   3.539   2.624  0.1118  0.3757  0.3248
20625SOL    HW163882   3.170   3.521   2.696 -0.0011  0.9611  0.3811
20625SOL    HW263883   3.172   3.552   2.548  0.2633 -1.2935 -0.1272
20626SOL     OW63884   6.412   8.978   1.049 -0.3889  0.0072 -0.2652
20626SOL    HW163885   6.401   9.040   0.977 -0.3359 -0.0573 -0.3283
20626SOL    HW263886   6.333   8.989   1.102 -1.3516 -1.3187 -1.3631
20627SOL     OW63887   4.160   9.133   3.161 -0.0894 -0.7382  0.6145
20627SOL    HW163888   4.156   9.229   3.164  2.3582 -0.4740 -1.2966
20627SOL    HW263889   4.111   9.110   3.082 -0.2110 -1.0155  0.7693
20628SOL     OW63890   1.237   9.297   5.231  0.2333  0.2621  0.7890
20628SOL    HW163891   1.167   9.349   5.272 -1.1235 -1.7653  1.1598
20628SOL    HW263892   1.245   9.334   5.143 -3.2779 -1.0796 -0.2805
20629SOL     OW63893   2.101   6.477   5.360 -0.4703  0.0789 -0.5626
20629SOL    HW163894   2.142   6.538   5.421 -1.3011  0.0256  0.0637
20629SOL    HW263895   2.031   6.528   5.319 -1.2114 -0.4419  0.0113
20630SOL     OW63896   8.649  11.093   8.554 -0.1328  0.3320 -0.2891
20630SOL    HW163897   8.561  11.095   8.589 -1.2102 -1.5504 -2.6017
20630SOL    HW263898   8.673  11.185   8.543 -1.4431  0.8826  1.1467
20631SOL     OW63899   4.262  10.588   1.161 -0.2770  0.3412 -0.0456
20631SOL    HW163900   4.256  10.528   1.235 -0.6263 -0.2315 -0.5282
20631SOL    HW263901   4.338  10.557   1.111 -0.2980  0.4650 -0.1548
20632SOL     OW63902  10.784   7.701  10.277  0.0731 -0.8133  0.0143
20632SOL    HW163903  10.806   7.792  10.297  0.0850 -0.4924 -1.3943
20632SOL    HW263904  10.769   7.660  10.363  0.9421  0.2853  0.7011
20633SOL     OW63905   7.902   0.375   1.554 -0.2187 -0.5952  0.6109
20633SOL    HW163906   7.974   0.312   1.561  0.4782  0.2456  1.3411
20633SOL    HW263907   7.859   0.370   1.640 -0.6104 -0.5949  0.4148
20634SOL     OW63908   2.313   8.540   0.338 -0.1495 -0.4242 -0.5085
20634SOL    HW163909   2.286   8.631   0.325 -0.2015 -0.2312  0.8178
20634SOL    HW263910   2.254   8.489   0.281 -0.5137  0.3159 -0.8005
20635SOL     OW63911   1.119   7.293   1.220  0.3593 -0.3281 -1.0623
20635SOL    HW163912   1.153   7.266   1.134  0.8085  0.9058 -1.2887
20635SOL    HW263913   1.195   7.289   1.277  0.3514  0.1108 -1.0206
20636SOL     OW63914   2.362   6.957   8.409 -0.3130  0.2563  0.0464
20636SOL    HW163915   2.333   6.962   8.318 -0.0338  0.4595 -0.0331
20636SOL    HW263916   2.322   6.876   8.443  1.2894 -0.9793 -0.8711
20637SOL     OW63917   1.095   2.717   1.314  1.4398  0.3799  0.7785
20637SOL    HW163918   1.045   2.788   1.353  0.9694 -0.2172  1.2848
20637SOL    HW263919   1.067   2.714   1.223 -2.8315 -2.6644  1.8671
20638SOL     OW63920   3.811   2.540   7.794 -0.1015  0.5137  0.6584
20638SOL    HW163921   3.741   2.487   7.755 -1.3933  2.1541  0.6476
20638SOL    HW263922   3.857   2.577   7.720  2.0526 -1.9817  0.5900
20639SOL     OW63923   3.711   1.567   9.365  0.4192 -0.5542  0.5232
20639SOL    HW163924   3.649   1.502   9.396 -0.4059 -0.2552 -0.4535
20639SOL    HW263925   3.739   1.535   9.279  2.1696 -1.0438  1.2281
20640SOL     OW63926   4.587   7.478   0.220  0.3445 -0.2072  0.2358
20640SOL    HW163927   4.676   7.449   0.241  0.4309  0.4863  0.8768
20640SOL    HW263928   4.531   7.430   0.281  0.4748  0.8194  1.1985
20641SOL     OW63929   7.207   7.755   1.406  0.9454  0.5278  0.5542
20641SOL    HW163930   7.134   7.809   1.373 -0.1331 -0.7261  0.8227
20641SOL    HW263931   7.218   7.688   1.339 -0.6806 -1.5314  2.2422
20642SOL     OW63932   4.478   6.817   3.737 -0.1312 -0.4244  0.0108
20642SOL    HW163933   4.464   6.733   3.693 -1.0675 -0.3542  0.1550
20642SOL    HW263934   4.480   6.795   3.831  1.4918 -0.5237 -0.0076
20643SOL     OW63935  10.952   5.384   2.694 -0.3309  0.7495  0.4512
20643SOL    HW163936  10.862   5.352   2.692 -0.3525  0.6483  1.9190
20643SOL    HW263937  10.955   5.455   2.630 -1.3755  0.5795  0.2075
20644SOL     OW63938   5.203   5.419   9.692 -0.0618 -0.1008  0.5263
20644SOL    HW163939   5.249   5.336   9.685 -0.1407 -0.0134 -1.6529
20644SOL    HW263940   5.214   5.445   9.784 -0.6022 -2.8035  1.4400
20645SOL     OW63941   1.485   7.798   9.694  0.7107  0.3309 -0.0836
20645SOL    HW163942   1.551   7.776   9.628  1.9128 -0.6817  1.3928
20645SOL    HW263943   1.527   7.777   9.778 -0.3663  2.5672  1.0963
20646SOL     OW63944   5.133   6.675  11.083  0.3603  0.1055  0.7783
20646SOL    HW163945   5.071   6.689  11.156  1.1424  0.7862  1.3295
20646SOL    HW263946   5.211   6.724  11.108 -0.1983  2.4922 -1.6513
20647SOL     OW63947   6.910  10.640   7.723 -0.1606 -0.0157 -0.3275
20647SOL    HW163948   6.991  10.672   7.764  0.5195  0.7920 -2.1968
20647SOL    HW263949   6.937  10.610   7.636 -1.5465 -1.6848 -0.2338
20648SOL     OW63950   4.502   7.113   9.432 -0.0270 -0.0949 -0.3575
20648SOL    HW163951   4.556   7.181   9.471 -1.2686 -0.3865  2.0719
20648SOL    HW263952   4.442   7.160   9.374 -0.7075  0.9248  1.0996
20649SOL     OW63953   4.248   6.244   9.968 -0.3223 -0.3684 -0.5442
20649SOL    HW163954   4.191   6.233  10.045 -1.5792 -2.2334 -1.6689
20649SOL    HW263955   4.189   6.238   9.893  1.0605  0.1338 -1.7212
20650SOL     OW63956   4.974   8.515   5.794  0.1319  0.1418  0.3012
20650SOL    HW163957   5.010   8.575   5.859 -2.0420  1.4333  0.4112
20650SOL    HW263958   4.879   8.516   5.809 -0.1837 -1.7425 -1.0523
20651SOL     OW63959   2.356   7.876   9.667  0.2343 -0.1022  0.3285
20651SOL    HW163960   2.439   7.835   9.692  1.6744  1.6792 -1.2449
20651SOL    HW263961   2.381   7.949   9.610 -2.4462  0.2792 -0.5082
20652SOL     OW63962   5.721   6.850   0.726 -0.1885  0.5013  0.2366
20652SOL    HW163963   5.783   6.778   0.717  0.3029  0.7077  1.6609
20652SOL    HW263964   5.741   6.909   0.653  1.0992  0.4194  0.5011
20653SOL     OW63965   1.319   9.072   1.214 -0.4068  0.1950  0.3458
20653SOL    HW163966   1.227   9.078   1.188 -0.5420  0.2285  0.8208
20653SOL    HW263967   1.342   8.980   1.199 -0.5161  0.1870  0.2220
20654SOL     OW63968   4.228   0.229   8.321  0.5939  0.2287 -0.0883
20654SOL    HW163969   4.137   0.206   8.301  0.6793 -2.6678  2.2708
20654SOL    HW263970   4.261   0.267   8.239 -1.8390 -1.4515 -2.0121
20655SOL     OW63971   4.680  10.944   9.859 -0.0944  0.7015 -0.0159
20655SOL    HW163972   4.627  10.893   9.798  0.4710  0.1061 -0.0330
20655SOL    HW263973   4.687  10.888   9.937  0.4454  0.7884  0.0059
20656SOL     OW63974   4.287   9.645   5.766  0.0839 -1.3193  0.4787
20656SOL    HW163975   4.336   9.603   5.695  0.8570 -1.0071  0.8151
20656SOL    HW263976   4.329   9.730   5.777 -0.2880 -1.2022  1.0474
20657SOL     OW63977   3.974   5.478   9.455 -0.0517 -0.2146  0.0351
20657SOL    HW163978   3.995   5.408   9.393  0.1923 -0.6675  0.6180
20657SOL    HW263979   3.901   5.525   9.415  0.5700 -0.0601 -0.9280
20658SOL     OW63980   9.330   3.734  10.274 -0.3733 -0.0696 -0.1773
20658SOL    HW163981   9.393   3.665  10.293 -0.0800  0.2437  0.0080
20658SOL    HW263982   9.369   3.813  10.311 -0.6289  0.2265 -0.5282
20659SOL     OW63983   7.575   0.916  10.045 -0.1302  0.3968  0.4440
20659SOL    HW163984   7.595   0.998  10.090  0.6269 -0.4085  1.6317
20659SOL    HW263985   7.635   0.913   9.971  1.9250 -0.3943  2.0467
20660SOL     OW63986   5.221   3.284  10.568  0.3817  0.5292 -0.2832
20660SOL    HW163987   5.291   3.343  10.539  1.5121 -0.8850 -0.5604
20660SOL    HW263988   5.224   3.289  10.663 -0.2663  1.7179 -0.3080
20661SOL     OW63989   5.226  10.590   3.207 -0.0838 -0.0734 -0.3974
20661SOL    HW163990   5.158  10.598   3.140 -1.2655 -0.0681  0.7741
20661SOL    HW263991   5.188  10.629   3.286  0.5658 -1.7329  0.7957
20662SOL     OW63992   7.587   8.029   4.881 -0.0944  1.0767 -0.8866
20662SOL    HW163993   7.611   8.040   4.973 -2.8455 -0.4967  0.1619
20662SOL    HW263994   7.660   7.980   4.843  0.3822  0.2930  0.9035
20663SOL     OW63995   3.071   5.161   3.831  0.3821 -0.0228  0.2461
20663SOL    HW163996   3.141   5.105   3.867  1.2440  1.2126  0.5441
20663SOL    HW263997   2.995   5.141   3.885  0.8395 -0.4691  0.7421
20664SOL     OW63998   2.038   8.835   8.465  0.0816 -0.1323 -0.4636
20664SOL    HW163999   2.016   8.924   8.439 -1.3081  0.1900  1.5868
20664SOL    HW264000   2.119   8.844   8.515  0.3784 -0.1317 -0.9463
20665SOL     OW64001   6.002  11.010   4.015  0.0398  0.0190 -0.2567
20665SOL    HW164002   6.011  11.000   3.921  2.3059  0.7549 -0.1848
20665SOL    HW264003   5.972  11.100   4.027  0.4942  0.1744 -0.2656
20666SOL     OW64004   4.423   9.584   0.853 -0.1292  0.3659 -0.1255
20666SOL    HW164005   4.494   9.567   0.791 -0.3254 -2.0488  0.1978
20666SOL    HW264006   4.444   9.528   0.928 -0.9406  1.7288  1.1564
20667SOL     OW64007   2.770   4.904  10.466  0.2136  0.2834 -0.1814
20667SOL    HW164008   2.864   4.921  10.454  0.3956 -0.6687 -0.1695
20667SOL    HW264009   2.766   4.846  10.541 -0.5031  1.4411  0.7075
20668SOL     OW64010   4.964   9.251  10.681 -0.7421 -0.6383  0.2516
20668SOL    HW164011   4.873   9.223  10.691 -0.5849 -0.9559  0.8779
20668SOL    HW264012   4.958   9.346  10.670 -1.1342 -0.5996  0.6978
20669SOL     OW64013   8.216   9.345   4.524 -0.0803  0.4300  0.2888
20669SOL    HW164014   8.184   9.294   4.450 -0.5017  0.7416  0.2526
20669SOL    HW264015   8.278   9.286   4.568  0.4137  0.3600 -0.4819
20670SOL     OW64016   7.711   9.975   7.477 -0.5828  0.0749 -0.3390
20670SOL    HW164017   7.768  10.048   7.453 -0.8201  0.2315 -0.4256
20670SOL    HW264018   7.767   9.918   7.530 -0.8363  1.0964  1.0995
20671SOL     OW64019   4.622   8.825   0.724 -0.2737 -0.1541 -0.2865
20671SOL    HW164020   4.612   8.897   0.786  0.1234  1.3741 -1.9363
20671SOL    HW264021   4.707   8.786   0.746 -0.6440 -0.3555  0.8339
20672SOL     OW64022   3.248   5.273   8.449  0.1904  0.5790 -0.1694
20672SOL    HW164023   3.268   5.361   8.482  0.8731  0.8255 -1.1775
20672SOL    HW264024   3.166   5.284   8.400  0.1384  0.6006 -0.0775
20673SOL     OW64025   9.716   8.385  10.705  0.0223 -0.2543 -0.2519
20673SOL    HW164026   9.719   8.300  10.748  2.7807  0.0020  0.2033
20673SOL    HW264027   9.706   8.448  10.777  1.3334 -0.0298 -0.2413
20674SOL     OW64028   6.091   5.897   8.389 -0.2151  0.1026  0.4113
20674SOL    HW164029   6.086   5.948   8.309  1.0784 -1.8008 -0.9747
20674SOL    HW264030   6.002   5.868   8.405 -0.3685 -0.1380 -0.8005
20675SOL     OW64031   2.133   6.798   6.817 -0.1778  0.0114 -0.6348
20675SOL    HW164032   2.076   6.763   6.749 -0.2209 -1.4895  0.1204
20675SOL    HW264033   2.125   6.893   6.809 -0.8798 -0.1451 -2.1127
20676SOL     OW64034   6.132   1.745   6.956 -0.3443 -0.6707 -0.9835
20676SOL    HW164035   6.175   1.662   6.935  1.9810 -0.6586  2.7271
20676SOL    HW264036   6.068   1.723   7.024  0.9565  0.5789  0.7381
20677SOL     OW64037   5.798   4.294  10.300 -0.1059  0.4887  0.2258
20677SOL    HW164038   5.719   4.322  10.254 -0.2591  0.1538  0.2781
20677SOL    HW264039   5.765   4.241  10.373  0.1162  1.3244  0.9446
20678SOL     OW64040   6.093  11.002   8.172 -0.2705 -0.4974  0.0635
20678SOL    HW164041   6.085  10.912   8.205 -0.9091 -1.1293 -1.6946
20678SOL    HW264042   6.012  11.016   8.123  0.7574  0.2269 -1.5135
20679SOL     OW64043   9.910   4.527   8.037  0.1019 -0.6124 -0.4363
20679SOL    HW164044   9.872   4.453   8.083 -2.2375  1.2705  0.8924
20679SOL    HW264045   9.971   4.565   8.100 -0.8848  0.2338  0.0407
20680SOL     OW64046   5.442   8.535   8.274  0.0654  0.1511  0.0254
20680SOL    HW164047   5.424   8.441   8.275  1.4917 -0.1562  0.4135
20680SOL    HW264048   5.501   8.547   8.199 -0.2582  0.7628 -0.1312
20681SOL     OW64049   6.715   8.072   6.809  0.1092 -0.1608  0.2263
20681SOL    HW164050   6.731   8.020   6.888 -0.4042  1.4142  1.4268
20681SOL    HW264051   6.665   8.147   6.840  2.8936  2.3536 -0.9243
20682SOL     OW64052   6.067   1.714   8.206 -0.3792  0.2309 -0.1340
20682SOL    HW164053   6.055   1.772   8.281  1.5127 -0.2242  0.5764
20682SOL    HW264054   6.113   1.769   8.141  0.9072 -0.2600  0.3251
20683SOL     OW64055  10.369   9.517  10.424  0.0668  0.1002 -0.4721
20683SOL    HW164056  10.438   9.523  10.491  0.9301  0.3294 -1.3654
20683SOL    HW264057  10.364   9.423  10.404 -0.5114 -0.0264  0.2247
20684SOL     OW64058   3.333   0.255   0.298 -0.0073 -0.6828 -0.4087
20684SOL    HW164059   3.307   0.198   0.370  1.0223 -2.2056 -1.2033
20684SOL    HW264060   3.252   0.275   0.252 -0.5417 -0.4593  0.6053
20685SOL     OW64061   9.507   5.822   5.867 -0.3370 -0.0352  0.6518
20685SOL    HW164062   9.515   5.917   5.878 -0.3098  0.4387 -2.5248
20685SOL    HW264063   9.583   5.797   5.814 -1.6010 -1.3657 -0.6319
20686SOL     OW64064   2.735   1.212   1.726 -0.3523  0.2728 -0.0201
20686SOL    HW164065   2.795   1.193   1.798  0.9966  1.1700 -0.8798
20686SOL    HW264066   2.681   1.133   1.719  0.7004 -0.5512  0.7855
20687SOL     OW64067   5.699   7.332  10.580  0.0060 -1.0533  0.2987
20687SOL    HW164068   5.778   7.369  10.540 -0.2134 -0.0958  0.7186
20687SOL    HW264069   5.711   7.345  10.674 -0.4349 -1.3456  0.3978
20688SOL     OW64070   9.311   0.283   4.234  0.1335  0.7065  0.0545
20688SOL    HW164071   9.216   0.275   4.236  0.2380 -0.6946  0.2635
20688SOL    HW264072   9.332   0.303   4.143 -0.3609  1.1579  0.0359
20689SOL     OW64073   0.531   5.370   9.126  0.0092 -0.6806  0.0640
20689SOL    HW164074   0.541   5.308   9.199 -1.3828 -0.4377  0.4880
20689SOL    HW264075   0.610   5.357   9.073  1.9221  0.3159  2.4730
20690SOL     OW64076  10.876   9.098   0.566  0.3410  0.6826  0.2219
20690SOL    HW164077  10.905   9.152   0.639 -2.8987  0.7708  1.5980
20690SOL    HW264078  10.866   9.010   0.603  0.3921  0.3193 -0.5966
20691SOL     OW64079   4.493   1.016   2.067  0.2381 -0.4100 -0.7424
20691SOL    HW164080   4.459   0.973   2.145  0.8554 -1.3545 -0.9848
20691SOL    HW264081   4.422   1.009   2.003 -0.5274  0.9450 -0.0962
20692SOL     OW64082   1.702   9.937   8.044  0.3383  0.0370  0.3300
20692SOL    HW164083   1.608   9.941   8.061  0.3137  0.3190  0.1433
20692SOL    HW264084   1.741   9.921   8.130  0.3388  3.2652  1.0702
20693SOL     OW64085  10.753   8.234   6.692  0.5022 -0.5266  0.4277
20693SOL    HW164086  10.703   8.260   6.769 -1.1922  1.4263 -1.2218
20693SOL    HW264087  10.688   8.197   6.631  1.5139 -0.5447 -0.6894
20694SOL     OW64088   1.879   8.831   9.156 -0.3915  0.0874  0.0646
20694SOL    HW164089   1.957   8.781   9.131 -1.0889  0.0732 -2.3263
20694SOL    HW264090   1.846   8.787   9.234 -0.7159 -2.9934 -1.6489
20695SOL     OW64091   2.263   9.462   5.086  0.6446  0.1563 -0.2658
20695SOL    HW164092   2.354   9.467   5.058  0.3815  2.4060 -0.8903
20695SOL    HW264093   2.266   9.480   5.180  0.8130  0.4866 -0.3352
20696SOL     OW64094   2.569   0.061   5.889 -0.3732  0.1682  0.1728
20696SOL    HW164095   2.628  -0.015   5.887 -3.6121 -2.6916  2.5093
20696SOL    HW264096   2.611   0.122   5.950  0.8704 -1.1045  0.6546
20697SOL     OW64097   5.011   0.841   2.617 -0.0613 -0.0713  0.3947
20697SOL    HW164098   4.989   0.781   2.545 -0.2456 -0.7023  0.9632
20697SOL    HW264099   4.969   0.802   2.693  0.4249  0.4037  0.9102
20698SOL     OW64100   7.278   0.175   0.713  0.0617  0.4990 -0.7522
20698SOL    HW164101   7.252   0.220   0.793 -0.2866  1.1323 -1.2157
20698SOL    HW264102   7.248   0.232   0.642  0.5076  0.0264 -1.3338
20699SOL     OW64103  10.198   1.177   8.869 -0.2531  0.6149 -0.2307
20699SOL    HW164104  10.277   1.125   8.881 -1.5899 -1.1975  1.2897
20699SOL    HW264105  10.190   1.227   8.951 -1.3457 -0.2050  0.1802
20700SOL     OW64106   3.100   8.358   8.050  0.3120  0.2296 -0.2507
20700SOL    HW164107   3.108   8.304   8.129 -0.0250  0.4026 -0.0958
20700SOL    HW264108   3.179   8.339   8.000  0.0282 -0.6781 -0.3629
20701SOL     OW64109   7.714   5.327   0.803 -0.7014  0.6645 -0.4022
20701SOL    HW164110   7.636   5.274   0.786  0.9384 -1.4929 -1.7759
20701SOL    HW264111   7.779   5.265   0.836  0.5862  2.3189  0.3239
20702SOL     OW64112   3.589   8.502   1.901 -0.8305  0.2322 -1.0483
20702SOL    HW164113   3.583   8.406   1.905 -0.0299  0.1668 -1.1418
20702SOL    HW264114   3.523   8.528   1.837 -0.9270 -0.2743 -1.1597
20703SOL     OW64115   4.212  10.400  10.754 -0.6131  1.0404 -0.1831
20703SOL    HW164116   4.264  10.422  10.831 -0.8449  1.3750 -0.1168
20703SOL    HW264117   4.230  10.471  10.692  1.0286 -0.1839 -1.1821
20704SOL     OW64118   4.199   9.603   1.559  0.3254 -0.4933 -0.1146
20704SOL    HW164119   4.215   9.625   1.467  1.4982  1.7509  0.5391
20704SOL    HW264120   4.104   9.610   1.569  0.2948  0.5261 -0.9026
20705SOL     OW64121   2.599   7.285  10.405  0.1124  0.0652  0.0537
20705SOL    HW164122   2.692   7.297  10.422 -0.0445  1.0801  0.2900
20705SOL    HW264123   2.558   7.289  10.491 -0.2123  0.3243 -0.1113
20706SOL     OW64124   5.520   0.842   4.976 -0.0411  0.1005  0.2791
20706SOL    HW164125   5.504   0.881   4.890 -1.8319 -0.3473  0.3755
20706SOL    HW264126   5.543   0.751   4.958 -3.6846 -0.9833  0.2887
20707SOL     OW64127   1.978   8.420  10.217  0.4934  0.6405 -0.1968
20707SOL    HW164128   2.009   8.479  10.149 -0.7309  0.7559 -0.6647
20707SOL    HW264129   2.034   8.342  10.208  0.6403  0.8349 -1.0302
20708SOL     OW64130   5.266   0.243   5.241 -0.5180  0.1813  0.0130
20708SOL    HW164131   5.191   0.213   5.190  0.8637 -0.1803 -1.9065
20708SOL    HW264132   5.261   0.193   5.322 -0.9846 -1.6943 -1.1058
20709SOL     OW64133   2.188  10.563   8.438  0.1006  0.2054  0.0443
20709SOL    HW164134   2.243  10.485   8.444  2.2381  1.3259 -2.7957
20709SOL    HW264135   2.101  10.530   8.414  0.5813 -1.3643  0.3423
20710SOL     OW64136   3.661  10.636   1.195  0.0128  0.6526 -0.0100
20710SOL    HW164137   3.588  10.648   1.256 -1.1676  0.5468 -1.3428
20710SOL    HW264138   3.641  10.554   1.150  1.2020  0.3961 -0.0908
20711SOL     OW64139   3.368   9.339   0.568 -0.2255  0.1878 -0.0896
20711SOL    HW164140   3.391   9.387   0.647  0.9962 -0.3568 -0.1007
20711SOL    HW264141   3.391   9.399   0.496  1.2730 -0.3639 -0.1025
20712SOL     OW64142   1.061   6.396   4.319 -0.2900 -0.0670  0.0081
20712SOL    HW164143   1.037   6.384   4.227  0.3021 -1.0745 -0.0246
20712SOL    HW264144   1.076   6.308   4.352  1.5502  0.4002  0.5104
20713SOL     OW64145   2.367   7.612   0.264  0.1345  0.4345 -0.6791
20713SOL    HW164146   2.275   7.632   0.246 -0.0881  0.2652  0.2424
20713SOL    HW264147   2.414   7.692   0.237 -0.2488  0.4417 -1.3541
20714SOL     OW64148   0.009   7.858   7.985 -0.0934  0.1337  0.0082
20714SOL    HW164149   0.016   7.892   7.896 -0.0477 -1.3402 -0.5865
20714SOL    HW264150  -0.083   7.834   7.995 -0.5468  2.1174  1.1006
20715SOL     OW64151   5.101   2.930   4.509  0.1766  0.0775 -0.5397
20715SOL    HW164152   5.099   2.956   4.417 -1.6337 -0.0900 -0.5970
20715SOL    HW264153   5.096   3.012   4.558 -2.7490  0.1129 -0.6920
20716SOL     OW64154   6.506   3.708   9.759  0.3071  0.0787 -0.1836
20716SOL    HW164155   6.571   3.745   9.698  0.3605 -0.7492 -0.6449
20716SOL    HW264156   6.553   3.702   9.842 -0.3606  3.0771  0.5075
20717SOL     OW64157   6.087   7.850   2.128  0.1136  0.2620  0.0252
20717SOL    HW164158   6.106   7.896   2.047  1.0759 -1.8221 -1.0102
20717SOL    HW264159   6.164   7.866   2.183  0.7826 -0.6805 -0.6186
20718SOL     OW64160   3.919   2.099   2.705 -0.3329 -0.1666 -0.1514
20718SOL    HW164161   3.875   2.181   2.682 -0.7470 -0.3542 -0.0376
20718SOL    HW264162   3.849   2.042   2.735  0.1541 -0.0218  1.3252
20719SOL     OW64163   5.846   4.801   3.517 -0.4406  0.7007 -0.3301
20719SOL    HW164164   5.870   4.890   3.493 -1.3860  1.0001 -0.1701
20719SOL    HW264165   5.793   4.770   3.444  0.4808  0.0015 -0.7297
20720SOL     OW64166   7.884   7.410   0.185 -0.2516  0.4591  0.1587
20720SOL    HW164167   7.879   7.479   0.119  0.8615 -0.4286 -0.8963
20720SOL    HW264168   7.830   7.442   0.257  3.2872  4.3552  1.4651
20721SOL     OW64169   6.644   6.330   2.260  0.2595 -0.0500 -0.4662
20721SOL    HW164170   6.629   6.260   2.196  0.5153 -0.5685  0.0356
20721SOL    HW264171   6.556   6.362   2.280  0.1712  0.0861 -1.0396
20722SOL     OW64172   5.777   0.251   2.498  0.3714 -0.2855  0.2444
20722SOL    HW164173   5.718   0.257   2.424  0.6522  1.8644  0.1452
20722SOL    HW264174   5.861   0.285   2.465  0.5387  0.5690  1.4790
20723SOL     OW64175   0.355   6.227   3.452 -0.4330 -0.0702 -0.0335
20723SOL    HW164176   0.274   6.181   3.433 -1.5258  1.2838  1.1364
20723SOL    HW264177   0.409   6.214   3.373 -1.9400 -0.6304 -1.0137
20724SOL     OW64178   7.452   0.325  10.612 -0.1165  0.1219  0.1395
20724SOL    HW164179   7.478   0.264  10.543  2.6531  0.2653  0.9218
20724SOL    HW264180   7.418   0.268  10.681 -0.5411 -0.2507 -0.3687
20725SOL     OW64181   8.477   1.962   9.273 -0.6441  0.1339  0.3023
20725SOL    HW164182   8.457   1.890   9.333 -0.0947  0.2281  0.6092
20725SOL    HW264183   8.491   2.038   9.330 -0.0137  0.1989  0.0684
20726SOL     OW64184   5.712   1.979   3.288  0.3909 -0.0071  0.5685
20726SOL    HW164185   5.730   1.945   3.201  0.1407  1.6575 -0.1774
20726SOL    HW264186   5.646   2.047   3.274  0.2213  0.1733  2.0768
20727SOL     OW64187   3.843   9.863   9.838 -0.3835  0.3041  0.2389
20727SOL    HW164188   3.904   9.807   9.888  0.5681  0.5602 -0.5930
20727SOL    HW264189   3.860   9.951   9.871 -2.5748  0.0788  2.2527
20728SOL     OW64190   8.527   7.040   2.264 -0.3753  0.3004 -0.1669
20728SOL    HW164191   8.538   6.978   2.192 -2.0546 -1.3120  0.8841
20728SOL    HW264192   8.601   7.101   2.254  0.2800 -0.7302 -2.3382
20729SOL     OW64193   9.826   0.594   2.367  0.3825  1.0083 -0.0335
20729SOL    HW164194   9.897   0.532   2.381 -0.1144  0.8824  2.5282
20729SOL    HW264195   9.786   0.567   2.284  1.1418 -1.1453  0.2356
20730SOL     OW64196   0.228  10.006   6.298 -0.3547 -0.3942 -0.3718
20730SOL    HW164197   0.199   9.955   6.374  0.0502 -1.7248 -1.0790
20730SOL    HW264198   0.201  10.096   6.318  0.0056 -0.6497  1.4727
20731SOL     OW64199   1.316   1.075  10.910  0.0570  0.3069  0.2784
20731SOL    HW164200   1.234   1.052  10.867 -0.4680 -0.3774  1.5734
20731SOL    HW264201   1.325   1.010  10.979  1.8607  0.1887 -0.0296
20732SOL     OW64202   2.077   8.942  10.336 -0.4417  0.2533 -0.5456
20732SOL    HW164203   1.998   8.890  10.351 -1.0693  1.3298  0.0393
20732SOL    HW264204   2.140   8.910  10.400 -0.0258 -1.3113 -1.6919
20733SOL     OW64205   0.513   4.564   1.668  0.3609  0.2102  0.1941
20733SOL    HW164206   0.578   4.633   1.656  1.0129 -0.4794 -0.3428
20733SOL    HW264207   0.491   4.536   1.579 -1.3484  1.0324  0.3200
20734SOL     OW64208   4.912   9.759   0.464 -0.4631 -0.3267 -0.0419
20734SOL    HW164209   4.962   9.678   0.474 -1.7307 -1.0318  1.0377
20734SOL    HW264210   4.919   9.802   0.549 -1.0881 -0.1027 -0.0979
20735SOL     OW64211   1.876   4.047   8.198 -0.1269  0.1626  0.1329
20735SOL    HW164212   1.941   4.007   8.256  0.7241  0.3405 -0.6776
20735SOL    HW264213   1.888   4.002   8.114  0.4365  1.6855 -0.6234
20736SOL     OW64214   5.559   3.935   6.739  0.7573  0.2714 -0.5223
20736SOL    HW164215   5.597   3.931   6.827 -0.6379  0.7167  0.1427
20736SOL    HW264216   5.608   3.870   6.688  0.1934 -1.5669  1.1533
20737SOL     OW64217   4.123  10.585  10.193 -0.2797 -0.8685  0.0274
20737SOL    HW164218   4.151  10.527  10.123  0.7537 -0.4823  0.1015
20737SOL    HW264219   4.047  10.631  10.158  0.2439 -0.6624 -0.8497
20738SOL     OW64220   3.443  10.157   8.489 -1.1247  0.5266 -0.3489
20738SOL    HW164221   3.507  10.221   8.458 -1.2219  0.8207  0.0422
20738SOL    HW264222   3.445  10.166   8.585 -3.0806  1.8807 -0.3773
20739SOL     OW64223   7.216   6.630   3.299 -0.2012 -0.2666  0.0089
20739SOL    HW164224   7.189   6.562   3.361 -0.8009  0.1175  0.1772
20739SOL    HW264225   7.306   6.607   3.276 -0.0732 -0.5826  0.7874
20740SOL     OW64226   7.370   7.407   9.490 -0.0304 -0.4263 -0.2698
20740SOL    HW164227   7.316   7.367   9.558 -0.2848 -1.7400 -1.1814
20740SOL    HW264228   7.383   7.336   9.426  1.7491  0.2187 -0.6761
20741SOL     OW64229   5.550  10.650   9.348  0.7789 -0.1674 -0.1612
20741SOL    HW164230   5.631  10.700   9.340 -0.1306  1.5695  0.8750
20741SOL    HW264231   5.565  10.571   9.295  2.7553  0.5707 -0.7881
20742SOL     OW64232   3.499   9.544  11.047 -0.3843 -0.0092  0.2303
20742SOL    HW164233   3.515   9.494  11.126  2.1560  1.9065  1.0736
20742SOL    HW264234   3.427   9.603  11.070 -0.0127  0.1742  0.9423
20743SOL     OW64235   9.393   1.236   7.468  0.2776  0.1997 -0.1186
20743SOL    HW164236   9.367   1.266   7.555  0.5407  2.6168 -0.8200
20743SOL    HW264237   9.487   1.253   7.463 -0.1331  2.3667 -1.6736
20744SOL     OW64238  11.007   6.059   5.083  0.7688  0.3882 -0.2706
20744SOL    HW164239  11.004   6.109   5.002  0.8420 -0.4376 -0.7957
20744SOL    HW264240  10.973   6.119   5.150  1.3954  1.3161 -0.7728
20745SOL     OW64241   8.557   5.586   5.720  0.5627 -0.0953 -0.2962
20745SOL    HW164242   8.466   5.615   5.718  0.8429  0.7489 -1.4255
20745SOL    HW264243   8.565   5.540   5.804 -1.0180 -0.5973 -0.3835
20746SOL     OW64244   1.323   0.881   5.532  0.0986 -0.5300  0.0397
20746SOL    HW164245   1.244   0.927   5.563  0.3787 -1.7494  2.8547
20746SOL    HW264246   1.292   0.794   5.508  0.4527 -0.7389  0.3339
20747SOL     OW64247   7.548  11.026   1.471 -0.4622  0.3560  0.1986
20747SOL    HW164248   7.462  11.060   1.496 -0.8167  0.2229 -0.7994
20747SOL    HW264249   7.531  10.935   1.445  0.2564 -0.1951  1.5425
20748SOL     OW64250   8.287   6.497   8.389 -0.1963 -0.1299  0.4878
20748SOL    HW164251   8.251   6.434   8.327 -3.9086  0.1514  2.1212
20748SOL    HW264252   8.310   6.444   8.466  2.2113 -0.1419 -0.1345
20749SOL     OW64253   9.037   1.104   8.790  0.2797 -0.1217  0.0565
20749SOL    HW164254   9.126   1.135   8.809  0.4961  0.4113 -1.6128
20749SOL    HW264255   9.050   1.030   8.731 -0.3912  0.3087 -0.6448
20750SOL     OW64256   5.320   8.130   6.701  0.0419 -0.0839 -0.0748
20750SOL    HW164257   5.285   8.180   6.628  0.5886 -0.4929 -0.6199
20750SOL    HW264258   5.285   8.041   6.689  2.4319 -0.9318 -1.5247
20751SOL     OW64259   4.021   9.921   0.755 -0.4060 -0.3302  0.3854
20751SOL    HW164260   4.086   9.946   0.821  0.6871 -0.8814 -0.4651
20751SOL    HW264261   4.063   9.940   0.671 -1.5841 -0.1216 -0.1692
20752SOL     OW64262   8.143   4.728  10.573 -0.0537 -0.3679 -0.4022
20752SOL    HW164263   8.096   4.671  10.512 -0.8261 -0.4483  0.2514
20752SOL    HW264264   8.074   4.775  10.620  0.4205 -1.8389  1.8939
20753SOL     OW64265   2.129   7.789  10.106  0.1065 -0.5602 -0.0526
20753SOL    HW164266   2.150   7.814  10.016  0.2289 -2.3970 -0.5708
20753SOL    HW264267   2.050   7.838  10.127 -1.1083 -1.6255 -1.9014
20754SOL     OW64268   8.141   9.301   0.804  0.4407 -0.6479 -0.0975
20754SOL    HW164269   8.130   9.392   0.830  1.3430 -0.0831 -1.6063
20754SOL    HW264270   8.083   9.291   0.728  0.1097 -1.4345  0.2458
20755SOL     OW64271   9.058   6.610   3.521 -0.0204  0.0023  0.6114
20755SOL    HW164272   9.091   6.543   3.462  1.2318  0.8352  0.3249
20755SOL    HW264273   9.045   6.565   3.604 -0.4166 -0.8583  0.0918
20756SOL     OW64274   5.736   5.273  10.168  0.1630 -0.2006  0.1290
20756SOL    HW164275   5.652   5.241  10.135  0.5126  0.6959 -1.7869
20756SOL    HW264276   5.801   5.232  10.112  0.9840 -0.4470  1.2315
20757SOL     OW64277   2.939   1.710   8.028 -0.1124  0.0316  0.7377
20757SOL    HW164278   2.857   1.726   7.981  0.6324 -0.3303 -0.7286
20757SOL    HW264279   3.008   1.720   7.962  1.0279  0.1560  1.9015
20758SOL     OW64280   0.834   6.298   9.195 -0.6128  0.0859  0.1043
20758SOL    HW164281   0.805   6.217   9.153 -1.2327  0.4887 -0.2600
20758SOL    HW264282   0.883   6.344   9.128 -1.4415  0.6420 -0.1462
20759SOL     OW64283   5.214   8.737  10.637 -0.5977 -0.2968 -0.3775
20759SOL    HW164284   5.151   8.808  10.632 -1.4635 -1.0038  0.1156
20759SOL    HW264285   5.298   8.776  10.613 -0.9974  0.9620  0.2116
20760SOL     OW64286   7.216   2.524   3.052  0.0575 -0.1501 -0.3967
20760SOL    HW164287   7.250   2.466   3.120  0.9510 -0.0975 -0.7917
20760SOL    HW264288   7.293   2.570   3.018 -0.7412  2.1476  0.6983
20761SOL     OW64289   2.580   2.432   2.524  0.4984 -0.3362  0.4862
20761SOL    HW164290   2.643   2.390   2.466  0.8184  0.3783  0.3045
20761SOL    HW264291   2.605   2.525   2.523 -0.2791 -0.1192  0.7662
20762SOL     OW64292   2.782   7.384   1.165 -0.0589  0.2253 -0.0864
20762SOL    HW164293   2.804   7.357   1.076 -2.9668  1.4490 -1.3109
20762SOL    HW264294   2.690   7.408   1.161  0.3843  3.0519  2.6187
20763SOL     OW64295   8.265   8.683   8.771  0.3277 -0.1660 -0.6791
20763SOL    HW164296   8.226   8.746   8.710  2.7457  1.7094 -0.4140
20763SOL    HW264297   8.267   8.729   8.855  0.1294 -1.4657  0.0672
20764SOL     OW64298   4.908   3.631   2.152  0.0338 -0.5244 -0.4662
20764SOL    HW164299   4.944   3.710   2.192 -0.0680 -1.6118  1.9963
20764SOL    HW264300   4.840   3.663   2.093  0.3130  1.2439  0.1040
20765SOL     OW64301   3.724   0.839   2.439 -0.3322 -0.3367 -0.2951
20765SOL    HW164302   3.801   0.854   2.385  0.9806  0.2121  1.6020
20765SOL    HW264303   3.700   0.927   2.470 -1.2109 -0.5980 -0.2139
20766SOL     OW64304   4.117   2.243  10.207  0.1298 -0.3454  0.2640
20766SOL    HW164305   4.065   2.279  10.278 -0.5603 -0.8903  0.0478
20766SOL    HW264306   4.084   2.286  10.128  0.7666  0.1209  0.2401
20767SOL     OW64307   1.302   8.051  10.292  0.2591 -0.5076 -0.5794
20767SOL    HW164308   1.249   8.102  10.353  0.0941  1.2518 -2.1272
20767SOL    HW264309   1.238   8.005  10.238  0.4063 -2.4250  0.7751
20768SOL     OW64310   4.857   1.298   0.665 -0.8066  0.0024  0.1770
20768SOL    HW164311   4.872   1.338   0.750 -0.1583  0.7461 -0.2737
20768SOL    HW264312   4.808   1.218   0.684  0.9566 -0.8381  1.4272
20769SOL     OW64313   5.463   3.969   6.020  0.1934  0.2414  0.3569
20769SOL    HW164314   5.489   4.056   5.990 -0.3550  0.8322  1.5528
20769SOL    HW264315   5.373   3.980   6.049 -0.3610 -1.0528 -0.7509
20770SOL     OW64316   8.304   1.841   2.522 -0.0617  0.0011 -0.1029
20770SOL    HW164317   8.351   1.794   2.591  3.7218  1.3969 -1.4853
20770SOL    HW264318   8.370   1.857   2.454 -2.5925  2.1826 -2.2939
20771SOL     OW64319   2.681   7.042   1.113 -0.2724 -0.3365  0.0858
20771SOL    HW164320   2.607   7.103   1.114 -0.6758 -0.7523 -1.4417
20771SOL    HW264321   2.676   7.000   1.027  1.2675 -0.9729  0.2776
20772SOL     OW64322   0.079   1.287   2.889  0.0866 -0.6812  0.1304
20772SOL    HW164323  -0.010   1.322   2.899 -0.9461 -2.9355 -0.5691
20772SOL    HW264324   0.127   1.324   2.963 -1.0201  1.6926 -0.2339
20773SOL     OW64325   5.067   8.576   6.575 -0.2879  0.0291  0.2979
20773SOL    HW164326   5.029   8.636   6.640 -0.0011  0.9094 -0.3412
20773SOL    HW264327   5.158   8.566   6.602  0.2587  1.6129 -0.7975
20774SOL     OW64328  10.188   4.836  10.119 -0.3085  0.1309  0.1696
20774SOL    HW164329  10.216   4.912  10.067 -0.7157 -1.3872 -2.4429
20774SOL    HW264330  10.103   4.812  10.081  0.1358 -2.0262  0.4300
20775SOL     OW64331   0.515   9.680   0.815 -0.1378 -0.2343  0.3435
20775SOL    HW164332   0.436   9.730   0.792  0.1831  0.2066  0.1799
20775SOL    HW264333   0.526   9.696   0.909  0.0497  0.1360  0.2619
20776SOL     OW64334   6.968  10.268   6.612 -0.9863 -0.3412  0.0461
20776SOL    HW164335   7.059  10.240   6.619 -0.6417  0.7333  0.0709
20776SOL    HW264336   6.955  10.285   6.518 -0.2940  2.1689  0.3320
20777SOL     OW64337   7.500   7.506  10.420  0.2154 -0.4356 -0.0720
20777SOL    HW164338   7.426   7.556  10.454 -0.7468 -1.5542 -0.4586
20777SOL    HW264339   7.524   7.446  10.491  0.2029 -0.6552 -0.2529
20778SOL     OW64340   9.789   6.155   3.908 -0.1969 -0.2232 -0.3402
20778SOL    HW164341   9.714   6.135   3.852  0.8334 -2.9303 -0.8964
20778SOL    HW264342   9.864   6.117   3.862  1.1639  0.2222  1.3974
20779SOL     OW64343   7.892  11.029   0.771 -0.1050  0.0267  0.3267
20779SOL    HW164344   7.801  11.029   0.743  0.1970 -1.1838 -0.7939
20779SOL    HW264345   7.923  11.118   0.753 -1.2237  0.6491  1.3611
20780SOL     OW64346   6.624   7.907   1.433 -0.1706  0.3699  0.9091
20780SOL    HW164347   6.637   7.898   1.527 -1.5782  1.0514  1.1996
20780SOL    HW264348   6.531   7.930   1.424 -0.1143  0.0931 -0.6577
20781SOL     OW64349   5.135   5.224   3.551 -0.1563 -0.3906  0.3111
20781SOL    HW164350   5.147   5.136   3.586  0.5183 -0.2853  0.3567
20781SOL    HW264351   5.090   5.272   3.621 -0.7171 -0.7473  0.2054
20782SOL     OW64352   5.116   5.642   1.234  0.4689  0.4383 -0.2024
20782SOL    HW164353   5.095   5.720   1.285 -0.6037  0.3232 -0.4524
20782SOL    HW264354   5.201   5.662   1.194 -0.0011  1.6544 -0.6255
20783SOL     OW64355   2.270   5.064   8.309  0.1888  0.4253  0.8782
20783SOL    HW164356   2.266   5.042   8.216  0.5218  0.6670  0.8067
20783SOL    HW264357   2.197   5.016   8.348  1.1321 -1.1263  0.8118
20784SOL     OW64358   4.092   2.465   0.504  0.1527  0.5640 -0.1237
20784SOL    HW164359   4.097   2.555   0.536  2.3261 -0.0681  1.5382
20784SOL    HW264360   4.160   2.459   0.437 -0.7457  0.4189 -1.0514
20785SOL     OW64361   3.183   2.310   2.878  0.0639 -0.2955  1.0871
20785SOL    HW164362   3.197   2.383   2.937  1.8058 -0.3312  0.7747
20785SOL    HW264363   3.221   2.339   2.795  0.6517 -1.4872  0.9207
20786SOL     OW64364   4.069   0.613  10.732  0.0914 -0.5305  0.9234
20786SOL    HW164365   4.038   0.527  10.760  0.7801 -1.1407 -0.1296
20786SOL    HW264366   4.018   0.675  10.784  0.4182 -1.5797  2.6015
20787SOL     OW64367  10.088   2.473   8.871 -0.0707 -0.0875 -0.6123
20787SOL    HW164368   9.994   2.458   8.864 -0.2577 -0.9113  2.2420
20787SOL    HW264369  10.099   2.567   8.852 -1.2912 -0.1895 -1.9431
20788SOL     OW64370   0.513   1.608  10.996  0.3322 -0.0364 -0.4989
20788SOL    HW164371   0.472   1.685  11.035  2.5370  0.3280  1.2918
20788SOL    HW264372   0.439   1.555  10.964 -1.4060  1.4049  0.9166
20789SOL     OW64373   0.249  11.092   5.099  0.5488 -0.0204 -0.4611
20789SOL    HW164374   0.241  11.087   5.194 -0.4529 -2.7254 -0.5935
20789SOL    HW264375   0.159  11.108   5.069  1.0720  2.2658 -0.9534
20790SOL     OW64376   2.377   9.373   8.705  0.7117 -0.1039 -0.8969
20790SOL    HW164377   2.401   9.281   8.716 -0.0571 -0.2495 -0.4408
20790SOL    HW264378   2.438   9.420   8.762 -0.0152 -0.4692  0.1985
20791SOL     OW64379   1.273   6.911   9.654 -0.1772  0.3068  0.5849
20791SOL    HW164380   1.257   6.903   9.560 -0.1104  2.7524  0.3015
20791SOL    HW264381   1.366   6.929   9.661 -0.2746  0.6386  1.0869
20792SOL     OW64382  10.483   3.653   6.755  0.1251 -0.3493  0.5442
20792SOL    HW164383  10.509   3.565   6.784  0.7037  0.4276  2.5238
20792SOL    HW264384  10.548   3.677   6.690 -0.8749 -1.9204 -1.1410
20793SOL     OW64385   6.871   1.490   0.775  0.0912  0.2058  0.3809
20793SOL    HW164386   6.808   1.458   0.839  0.4821  0.9064  1.1304
20793SOL    HW264387   6.948   1.434   0.789 -0.2286 -0.4385 -0.3183
20794SOL     OW64388   2.132   7.281   5.203  0.2132 -0.1684  0.2867
20794SOL    HW164389   2.068   7.232   5.255 -1.2805  0.6828 -0.7005
20794SOL    HW264390   2.202   7.217   5.185  0.0293 -0.9070  1.9968
20795SOL     OW64391   9.624   1.858   1.867 -0.0651 -0.1440 -0.2888
20795SOL    HW164392   9.588   1.931   1.817  1.2787  1.1918  0.6108
20795SOL    HW264393   9.674   1.899   1.938  2.5325 -1.8214 -0.9741
20796SOL     OW64394   1.936  10.365   7.732 -0.2823  0.0186 -0.2705
20796SOL    HW164395   1.942  10.318   7.649 -0.4777  0.6191 -0.6281
20796SOL    HW264396   2.015  10.341   7.780 -0.7384 -1.2748 -0.1300
20797SOL     OW64397   2.852   1.814   0.227 -0.0422 -0.1430  0.3935
20797SOL    HW164398   2.925   1.833   0.169 -0.2500 -0.0037  0.1784
20797SOL    HW264399   2.866   1.723   0.255  0.6821  0.1567  1.0364
20798SOL     OW64400   8.857  10.610   5.840 -0.1374  0.1800  0.8589
20798SOL    HW164401   8.884  10.547   5.906  0.0183  2.1192  2.7544
20798SOL    HW264402   8.901  10.691   5.865 -1.2587  1.3582 -0.7808
20799SOL     OW64403   1.125   6.252   1.759 -0.0251 -0.1931  0.2133
20799SOL    HW164404   1.180   6.177   1.776  0.3041  0.2223  1.0247
20799SOL    HW264405   1.185   6.326   1.755 -0.5211  0.3094  1.4110
20800SOL     OW64406   7.487   0.900  11.096 -0.0033  0.1288  0.1991
20800SOL    HW164407   7.519   0.954  11.023 -0.6189 -1.1097 -1.0442
20800SOL    HW264408   7.392   0.910  11.092 -0.0464 -0.0096  0.8149
20801SOL     OW64409   2.833   7.937   8.121 -0.0093 -0.9002 -0.0671
20801SOL    HW164410   2.876   7.969   8.042 -2.1349 -1.1094 -1.3931
20801SOL    HW264411   2.876   7.985   8.193  1.7668 -0.4852 -1.3386
20802SOL     OW64412   5.251   7.024   7.421  0.2154  0.7784 -0.4137
20802SOL    HW164413   5.212   7.026   7.334  0.7059  2.7376 -0.6412
20802SOL    HW264414   5.192   7.077   7.475 -0.4750 -1.0033  0.6699
20803SOL     OW64415   8.856   6.118   9.395  0.6948  0.1316  0.1100
20803SOL    HW164416   8.923   6.161   9.343  1.3865  0.0341  0.8952
20803SOL    HW264417   8.903   6.052   9.446 -0.0325 -0.1239  0.4730
20804SOL     OW64418   1.431   1.320   1.027 -0.1213 -0.0404  0.6760
20804SOL    HW164419   1.351   1.269   1.021  1.8710 -3.2882 -0.6374
20804SOL    HW264420   1.462   1.327   0.937  2.6378 -1.6957  1.3986
20805SOL     OW64421   2.333   6.135   7.002 -0.2855 -0.1452 -0.4671
20805SOL    HW164422   2.416   6.168   6.967  0.9728 -0.7043  1.8216
20805SOL    HW264423   2.306   6.202   7.065 -0.1393 -1.2605  0.7962
20806SOL     OW64424   8.701   1.871   0.852 -0.0902 -0.0291 -0.0599
20806SOL    HW164425   8.632   1.921   0.807 -0.2102  1.1368  1.3438
20806SOL    HW264426   8.693   1.782   0.818 -0.7537  0.6031 -1.6532
20807SOL     OW64427   6.205   8.887  10.055 -0.1113 -0.4872 -0.2528
20807SOL    HW164428   6.190   8.980  10.073 -0.6543 -0.6644  0.2510
20807SOL    HW264429   6.129   8.860  10.003 -0.1922 -0.7593  0.0050
20808SOL     OW64430   8.408   4.722  10.001  0.1604  0.5326  0.1795
20808SOL    HW164431   8.476   4.680  10.054 -1.0978  0.5586  1.8894
20808SOL    HW264432   8.405   4.671   9.920  1.6936  0.1003  0.3526
20809SOL     OW64433   5.936   3.051   4.628  0.0739  0.2220  0.5632
20809SOL    HW164434   5.976   3.121   4.576  0.2367  0.4795  1.0308
20809SOL    HW264435   5.999   3.032   4.697  0.3472 -0.8880  0.0324
20810SOL     OW64436   2.662  10.117   3.567 -0.1938 -0.1219 -0.2709
20810SOL    HW164437   2.642  10.056   3.638 -1.2935  1.8020  1.1591
20810SOL    HW264438   2.709  10.064   3.503  1.2719 -1.8387  2.0735
20811SOL     OW64439   6.649   9.188   4.060 -0.5875  0.5844 -0.0363
20811SOL    HW164440   6.578   9.140   4.103 -0.6322  1.4687  0.9332
20811SOL    HW264441   6.725   9.175   4.116 -0.8380  2.4083  0.8110
20812SOL     OW64442   3.718   8.272   4.492 -0.0098  0.3963 -0.6884
20812SOL    HW164443   3.780   8.318   4.550  0.3183 -1.3475  0.4088
20812SOL    HW264444   3.741   8.180   4.501 -1.1733 -0.0740 -2.2164
20813SOL     OW64445   8.728   5.816   9.893  0.3693 -0.0500 -0.3443
20813SOL    HW164446   8.724   5.722   9.914  1.6973  0.2257  1.2936
20813SOL    HW264447   8.751   5.819   9.801  1.1681 -1.3476 -0.2074
20814SOL     OW64448   9.603   8.666   1.647 -0.3946  0.7390 -0.3590
20814SOL    HW164449   9.683   8.617   1.667 -0.2266  0.3069 -1.9304
20814SOL    HW264450   9.570   8.695   1.732  0.3720 -0.7378  0.4765
20815SOL     OW64451   4.288   4.790   5.598 -0.1614  0.1216 -0.1311
20815SOL    HW164452   4.362   4.820   5.545  0.4164 -0.0896  0.5369
20815SOL    HW264453   4.287   4.849   5.673 -0.0242 -0.5117  0.3786
20816SOL     OW64454   4.403   9.939   5.752  0.0708  0.9918  0.4492
20816SOL    HW164455   4.438  10.026   5.733 -0.1199  1.0144  0.1898
20816SOL    HW264456   4.353   9.916   5.674 -0.7538  1.0908  0.9442
20817SOL     OW64457   8.000  10.301   2.800 -0.5489  0.3488 -0.0681
20817SOL    HW164458   8.000  10.365   2.870 -0.0363  0.0241  0.2328
20817SOL    HW264459   8.045  10.344   2.727  0.6834 -0.0075  0.4595
20818SOL     OW64460   0.298  10.203   9.439 -0.0755  0.4667  0.0464
20818SOL    HW164461   0.280  10.228   9.348  0.0343  1.0063  0.1735
20818SOL    HW264462   0.316  10.285   9.484  1.0031  0.1022  0.3119
20819SOL     OW64463   1.794   0.042   3.894 -0.0523  0.2770 -0.0759
20819SOL    HW164464   1.767   0.055   3.985  0.0074  1.5784 -0.2281
20819SOL    HW264465   1.800  -0.053   3.884 -2.5640  0.0046  0.5257
20820SOL     OW64466   3.616   8.078   1.498  0.0509 -0.3807 -0.2872
20820SOL    HW164467   3.655   8.114   1.578  0.3474  0.8124 -0.9503
20820SOL    HW264468   3.522   8.095   1.507  0.2104  0.7180 -0.6704
20821SOL     OW64469   5.542   6.791   2.521 -0.0354 -0.5448  0.1932
20821SOL    HW164470   5.470   6.770   2.581  1.2887  1.7085  2.7880
20821SOL    HW264471   5.621   6.770   2.570  1.1214  1.0808 -0.8881
20822SOL     OW64472   8.722   0.720  10.233 -0.3889 -0.5377 -0.1478
20822SOL    HW164473   8.728   0.722  10.138 -1.4249  1.1900 -0.2321
20822SOL    HW264474   8.691   0.807  10.257  0.4338 -0.7305  1.8326
20823SOL     OW64475   6.534   2.463   3.813  0.2693 -0.3515  0.0003
20823SOL    HW164476   6.510   2.547   3.775  1.6526  0.1772  0.2409
20823SOL    HW264477   6.625   2.475   3.842  0.7673 -2.1755 -0.6911
20824SOL     OW64478   4.113   8.865  10.953 -0.6195  0.0632 -0.2597
20824SOL    HW164479   4.118   8.794  11.017  0.0046 -0.2961 -0.7036
20824SOL    HW264480   4.099   8.821  10.869 -1.4950  0.5367 -0.3786
20825SOL     OW64481   8.607   5.946   2.831  0.1011 -0.3524  0.4605
20825SOL    HW164482   8.590   5.856   2.860  0.1355 -0.1600  1.0755
20825SOL    HW264483   8.545   5.960   2.759 -0.2092 -0.7139  0.6533
20826SOL     OW64484   4.701  10.712   3.750  0.7742  0.1303  0.4907
20826SOL    HW164485   4.757  10.722   3.673  0.1872  1.6521  0.2408
20826SOL    HW264486   4.645  10.789   3.750  0.3243 -0.1571  2.1043
20827SOL     OW64487   6.070   9.866   1.776  0.5709  0.2625  0.1774
20827SOL    HW164488   6.130   9.926   1.732 -0.3675 -0.3982 -2.1559
20827SOL    HW264489   6.106   9.779   1.758  0.4251 -0.0325  1.2083
20828SOL     OW64490   9.253  11.008   1.476 -0.4984 -0.0179 -0.1526
20828SOL    HW164491   9.187  10.956   1.430 -0.5316 -0.0935 -0.0185
20828SOL    HW264492   9.218  11.019   1.564 -0.6426  0.5051 -0.2708
20829SOL     OW64493  10.712   9.444   8.545  0.1611  0.1383 -0.0380
20829SOL    HW164494  10.640   9.400   8.499  0.7286 -1.1513  0.2584
20829SOL    HW264495  10.779   9.457   8.479 -0.0817  0.7660 -0.1701
20830SOL     OW64496   0.060   2.947   5.728 -0.1943  0.3631 -0.7421
20830SOL    HW164497  -0.016   2.938   5.671 -0.3102 -1.0920 -0.3954
20830SOL    HW264498   0.023   2.952   5.816  0.0862 -0.2755 -0.5783
20831SOL     OW64499   3.844   2.416   4.580  0.0200 -0.2340 -0.1963
20831SOL    HW164500   3.906   2.457   4.521  0.4815 -2.4090 -1.3157
20831SOL    HW264501   3.898   2.378   4.650 -0.1802 -0.7137 -0.2954
20832SOL     OW64502   9.842   0.397   3.414  0.1129 -0.4251 -0.9474
20832SOL    HW164503   9.789   0.324   3.445 -0.8966  1.0101  0.8765
20832SOL    HW264504   9.854   0.379   3.320 -2.7675 -1.3161 -1.2347
20833SOL     OW64505   6.406  10.941   1.275 -0.0275  0.2559  0.0170
20833SOL    HW164506   6.403  10.926   1.369 -0.7823  1.2768  0.1675
20833SOL    HW264507   6.393  10.854   1.237 -5.3742  0.3374  0.8490
20834SOL     OW64508   3.227  10.018   6.683 -0.2753 -0.3088  0.2102
20834SOL    HW164509   3.273   9.971   6.613  0.8464  0.7827  0.1750
20834SOL    HW264510   3.243   9.966   6.762  0.8405 -0.0769  0.1483
20835SOL     OW64511   2.152   2.713   7.988 -0.2610 -0.5369  0.6503
20835SOL    HW164512   2.187   2.704   8.077 -0.0579 -1.4712  0.4870
20835SOL    HW264513   2.080   2.775   7.997 -0.3829 -0.7839  1.5141
20836SOL     OW64514   9.842   9.890   9.993  0.6902 -0.2182 -0.1378
20836SOL    HW164515   9.863   9.888   9.900  1.0626 -2.6244 -0.0696
20836SOL    HW264516   9.901   9.826  10.032  0.6914  0.8875  1.8160
20837SOL     OW64517   8.488  10.900  10.578 -0.7015 -0.3024  0.1486
20837SOL    HW164518   8.436  10.877  10.501  1.6231  0.7109 -1.8749
20837SOL    HW264519   8.564  10.842  10.574  1.0339  1.8585 -0.2432
20838SOL     OW64520   1.282   5.444   2.703  0.4592  0.1120 -0.4473
20838SOL    HW164521   1.266   5.370   2.761  0.2268  0.2557 -0.3240
20838SOL    HW264522   1.345   5.498   2.751 -0.4097  0.6871  0.0884
20839SOL     OW64523   1.484   3.361   3.075  0.3428  0.3511  0.0867
20839SOL    HW164524   1.524   3.440   3.040 -0.5712  1.2072  0.9218
20839SOL    HW264525   1.442   3.389   3.156  2.0791 -1.4777  1.7488
20840SOL     OW64526   0.397   3.708   9.771 -0.0408  0.4358  0.3030
20840SOL    HW164527   0.387   3.791   9.723 -0.6624  0.0309 -0.2796
20840SOL    HW264528   0.314   3.697   9.817 -0.2923 -0.2880 -0.3072
20841SOL     OW64529  10.792   4.634   9.418 -0.5437 -0.6363  0.3503
20841SOL    HW164530  10.746   4.663   9.497 -0.1970  1.9861 -0.3303
20841SOL    HW264531  10.868   4.692   9.411  0.0074 -1.4972 -1.3597
20842SOL     OW64532   6.425   0.286   8.502  0.2494  0.0730 -0.2875
20842SOL    HW164533   6.408   0.343   8.577  0.4925  0.6427 -0.6534
20842SOL    HW264534   6.502   0.235   8.527 -0.0960 -0.2486  0.1270
20843SOL     OW64535  10.077   5.887   6.894  0.5616 -0.5723 -0.3336
20843SOL    HW164536  10.115   5.802   6.873 -0.0206 -0.9776  0.2147
20843SOL    HW264537  10.128   5.918   6.969  0.4999 -0.6367 -0.2644
20844SOL     OW64538   6.691   8.192   1.479  0.0273 -0.1806 -0.3310
20844SOL    HW164539   6.648   8.114   1.445 -0.3014  0.0011 -0.3395
20844SOL    HW264540   6.781   8.164   1.497  0.2023 -0.2866 -1.3226
20845SOL     OW64541  10.684   0.534   7.709  0.2384 -0.2248  0.5311
20845SOL    HW164542  10.667   0.442   7.693 -0.2782 -0.2838  1.3386
20845SOL    HW264543  10.759   0.535   7.769  0.3748 -0.1085  0.3613
20846SOL     OW64544   5.299   9.548  10.954  0.0754  0.6587  0.2995
20846SOL    HW164545   5.264   9.578  11.038  2.5069 -1.9326  2.4611
20846SOL    HW264546   5.253   9.466  10.937  1.6991 -0.4084  0.7954
20847SOL     OW64547   3.079   5.069  10.387  0.6398  0.8502  0.0065
20847SOL    HW164548   3.138   5.065  10.311  0.1414  0.6612 -0.3718
20847SOL    HW264549   3.000   5.111  10.353  0.3442  0.5920  0.3796
20848SOL     OW64550  10.983   9.431  10.563 -0.0665 -0.1476 -0.0765
20848SOL    HW164551  11.021   9.429  10.651 -0.0193  0.1230 -0.0901
20848SOL    HW264552  11.003   9.518  10.530 -1.3101  0.2604  0.1866
20849SOL     OW64553   4.723   4.033   6.998 -0.6289 -0.1803 -0.3524
20849SOL    HW164554   4.725   4.128   6.998 -1.0482 -0.1688 -0.4820
20849SOL    HW264555   4.655   4.010   6.934 -0.4869 -0.5650 -0.3699
20850SOL     OW64556   7.711   3.313   4.952 -0.1432  0.1543 -0.3672
20850SOL    HW164557   7.616   3.322   4.966 -0.3286 -0.5285 -1.1173
20850SOL    HW264558   7.721   3.314   4.857  0.3278 -2.2308 -0.4068
20851SOL     OW64559   2.920   7.809   3.268  0.1440  0.3569 -0.4139
20851SOL    HW164560   2.995   7.836   3.215 -1.2332  0.6389 -2.3598
20851SOL    HW264561   2.942   7.836   3.357  3.0086 -1.0342 -0.6012
20852SOL     OW64562   5.432   9.880   1.296 -0.2018 -0.5197 -0.0760
20852SOL    HW164563   5.375   9.893   1.372  0.4688  1.2685  0.1546
20852SOL    HW264564   5.387   9.813   1.244 -2.1468  0.3096  0.4453
20853SOL     OW64565   1.695   2.302   8.579 -0.0814  0.0500  0.0630
20853SOL    HW164566   1.641   2.370   8.619 -0.3135 -0.6487  0.9394
20853SOL    HW264567   1.732   2.345   8.501  0.0366  1.2779  0.7736
20854SOL     OW64568   0.099   8.694   0.676 -0.2858 -0.4176 -0.6549
20854SOL    HW164569   0.171   8.636   0.650 -1.3732 -1.5593 -1.2277
20854SOL    HW264570   0.048   8.642   0.739 -0.3101  0.5900  0.1827
20855SOL     OW64571   8.306   4.500   8.981 -0.1579  0.0900 -0.1460
20855SOL    HW164572   8.377   4.535   9.035  0.3814  0.4431 -1.0732
20855SOL    HW264573   8.251   4.452   9.043  0.5723  0.2947  0.6804
20856SOL     OW64574   4.962   7.656  10.186  0.0675  0.1694 -0.4809
20856SOL    HW164575   4.954   7.617  10.273 -0.1494  1.7992  0.2618
20856SOL    HW264576   4.959   7.581  10.126  3.5242 -1.3692  0.9846
20857SOL     OW64577   7.021   9.101   7.876 -0.2233 -0.0507 -0.0994
20857SOL    HW164578   6.975   9.021   7.903  0.3194  0.0416  1.1656
20857SOL    HW264579   6.959   9.172   7.895 -0.5285 -0.1182 -0.7991
20858SOL     OW64580   7.148   1.903   9.737 -0.4586  0.4464  0.2942
20858SOL    HW164581   7.168   1.810   9.741 -0.4650  0.3044 -1.8203
20858SOL    HW264582   7.056   1.908   9.764 -1.8172 -0.8050 -3.4188
20859SOL     OW64583   2.080   0.854   8.869 -0.5356  0.8531  0.1321
20859SOL    HW164584   2.173   0.830   8.872 -1.3443 -3.3301 -1.4371
20859SOL    HW264585   2.079   0.939   8.824  2.4537 -0.4949 -2.9676
20860SOL     OW64586   2.362   7.314   6.869 -0.1390 -0.5530  0.2374
20860SOL    HW164587   2.363   7.338   6.961  3.3434 -0.2365  0.2712
20860SOL    HW264588   2.357   7.397   6.822  0.0739 -0.5788  0.1695
20861SOL     OW64589   1.231   1.181   8.929  0.0000  0.5199  0.2455
20861SOL    HW164590   1.280   1.233   8.992  1.1859 -1.2630  0.8572
20861SOL    HW264591   1.271   1.094   8.932 -0.2481  0.2048 -2.5584
20862SOL     OW64592   4.868   3.051   2.013 -0.4693 -0.0825 -0.2689
20862SOL    HW164593   4.788   3.090   2.048 -0.9355 -0.3601 -1.0031
20862SOL    HW264594   4.837   2.992   1.944  0.4962  2.1624 -2.8222
20863SOL     OW64595   2.845   2.875   7.595  0.0136 -0.1422  0.5214
20863SOL    HW164596   2.835   2.802   7.656 -0.9416  0.4154  1.0440
20863SOL    HW264597   2.761   2.921   7.597  0.5147  0.8417  0.0274
20864SOL     OW64598   0.808  10.872   2.039  0.1850 -0.0693  0.0158
20864SOL    HW164599   0.792  10.778   2.028  0.5110 -0.1717  0.4192
20864SOL    HW264600   0.888  10.877   2.092 -0.4549  0.4389  0.9467
20865SOL     OW64601   1.907   9.635   0.381 -0.7546 -0.5534  0.3802
20865SOL    HW164602   1.855   9.578   0.325 -0.5097 -1.0604  0.6574
20865SOL    HW264603   1.938   9.578   0.451  0.7560 -0.4267 -0.1421
20866SOL     OW64604   7.616   2.348   0.315 -0.2807  0.2541  0.5844
20866SOL    HW164605   7.631   2.432   0.271  0.2784  0.2305  0.7252
20866SOL    HW264606   7.590   2.372   0.404  0.7766  0.2733  0.9011
20867SOL     OW64607   3.216  10.032   9.892 -0.1232  0.8520  0.2714
20867SOL    HW164608   3.288  10.009   9.834  0.4151 -2.3136  1.9840
20867SOL    HW264609   3.245  10.004   9.979 -3.1685  0.0059  1.1330
20868SOL     OW64610   7.453   8.418   1.395  0.4831 -0.6831  0.1952
20868SOL    HW164611   7.533   8.411   1.342 -0.1995 -0.1462 -0.9601
20868SOL    HW264612   7.482   8.456   1.478  1.2183  1.0963 -0.8228
20869SOL     OW64613   9.515   8.760  10.798 -0.2450  0.5171 -0.2135
20869SOL    HW164614   9.470   8.715  10.870  1.1768 -0.0996  0.3204
20869SOL    HW264615   9.445   8.783  10.737 -1.1900 -1.1847  0.1663
20870SOL     OW64616   3.128   7.170   5.165 -0.0618  0.0578 -0.2077
20870SOL    HW164617   3.118   7.096   5.224 -1.3913 -0.7184 -1.3585
20870SOL    HW264618   3.047   7.220   5.175  0.6209  1.1076  0.2011
20871SOL     OW64619   0.881   0.287   0.729 -0.3638  0.5156  0.5867
20871SOL    HW164620   0.951   0.321   0.785 -0.1267  1.7134 -0.3910
20871SOL    HW264621   0.928   0.236   0.662 -0.3511  1.6568 -0.3102
20872SOL     OW64622   7.574   0.735   2.890 -0.4177  0.0011  0.6808
20872SOL    HW164623   7.611   0.649   2.874  1.1605  1.0751 -2.1731
20872SOL    HW264624   7.642   0.783   2.936  0.0648  0.6516 -0.6539
20873SOL     OW64625   8.664   2.711   1.895 -0.2105 -0.1181  0.8067
20873SOL    HW164626   8.709   2.732   1.814 -0.0358 -1.0714  0.6464
20873SOL    HW264627   8.687   2.620   1.913 -2.5808 -0.8710  0.3646
20874SOL     OW64628   1.885   3.033   1.613 -0.2712  0.1010 -0.0222
20874SOL    HW164629   1.817   2.972   1.642  0.4028 -1.3861 -1.4071
20874SOL    HW264630   1.836   3.105   1.573 -1.1429 -1.4580 -2.0293
20875SOL     OW64631   5.566  10.840   1.566 -0.1956  0.4074 -0.4947
20875SOL    HW164632   5.501  10.879   1.625 -0.0843  0.0325 -0.1166
20875SOL    HW264633   5.515  10.813   1.490 -0.6195 -0.4979  0.0848
20876SOL     OW64634   3.693   1.068   3.701 -0.2718  0.4311 -0.0110
20876SOL    HW164635   3.668   1.067   3.608 -0.3318  1.4596 -0.0138
20876SOL    HW264636   3.615   1.099   3.746 -0.5153 -0.8451  0.4916
20877SOL     OW64637   2.437   0.174   8.035 -0.0760  0.1098 -0.4483
20877SOL    HW164638   2.468   0.083   8.033  0.3772  0.2533 -0.1408
20877SOL    HW264639   2.350   0.171   7.995  0.1715 -0.3655 -0.9691
20878SOL     OW64640   4.255   9.515   0.315  0.2096  0.1585  0.1796
20878SOL    HW164641   4.207   9.581   0.364  0.2034  0.1381  0.2003
20878SOL    HW264642   4.217   9.432   0.343  0.4010  0.1299  0.3543
20879SOL     OW64643  11.060   7.721   0.975 -0.4398  0.2598  0.0328
20879SOL    HW164644  11.145   7.697   0.939 -0.9990 -0.8457 -0.5868
20879SOL    HW264645  11.016   7.768   0.904 -0.6222  0.1778  0.0898
20880SOL     OW64646   4.291   0.254   9.494  0.5274  0.5278 -0.0473
20880SOL    HW164647   4.348   0.326   9.468 -1.0189  0.9100 -2.7339
20880SOL    HW264648   4.233   0.293   9.560  0.2611  1.5510 -0.8496
20881SOL     OW64649   6.398  10.304   5.109 -0.3804  0.6195 -0.2758
20881SOL    HW164650   6.329  10.367   5.090 -0.6228  0.5254  0.2647
20881SOL    HW264651   6.402  10.301   5.205 -1.8044 -1.7067 -0.2044
20882SOL     OW64652   5.608   5.321   2.810 -0.2305 -0.5215 -0.1138
20882SOL    HW164653   5.539   5.384   2.828 -0.3676 -1.1087  1.6168
20882SOL    HW264654   5.685   5.374   2.788 -0.5301  0.2190  0.5911
20883SOL     OW64655   9.632  10.018   4.110  0.7968  0.8841 -0.4915
20883SOL    HW164656   9.711  10.016   4.164 -0.5586  3.0462  1.7764
20883SOL    HW264657   9.652  10.080   4.040  1.1698  1.2904 -0.0291
20884SOL     OW64658   9.963   0.096  10.208  0.1005 -0.5017  0.0157
20884SOL    HW164659   9.916   0.048  10.276 -1.7149  0.1809 -0.7029
20884SOL    HW264660   9.950   0.045  10.129 -1.5150  0.9077 -0.6785
20885SOL     OW64661   0.775   4.238   6.273 -0.0368 -0.2892  0.2506
20885SOL    HW164662   0.753   4.154   6.234  2.9626 -1.6791  1.2338
20885SOL    HW264663   0.805   4.292   6.200  1.1498 -1.2755 -0.0361
20886SOL     OW64664   2.767   7.820   3.033 -0.1938 -0.2993 -0.1022
20886SOL    HW164665   2.792   7.908   3.003 -0.1624 -0.4830 -0.6149
20886SOL    HW264666   2.810   7.811   3.118  0.8167 -0.2918 -0.5994
20887SOL     OW64667   3.719   4.195   8.761 -0.3899  0.0050  0.4352
20887SOL    HW164668   3.805   4.167   8.792 -0.0888 -0.6033 -0.9004
20887SOL    HW264669   3.737   4.249   8.684 -1.1595  0.6638  0.7000
20888SOL     OW64670   3.561   0.277   2.447 -0.2555 -0.2514  0.0034
20888SOL    HW164671   3.640   0.232   2.417 -0.7476 -0.8955 -0.3532
20888SOL    HW264672   3.583   0.307   2.535  0.6836  0.3324 -0.4183
20889SOL     OW64673   9.014   4.324  10.705 -0.1555  0.7276  0.3040
20889SOL    HW164674   8.960   4.392  10.746 -1.3684  1.5707 -2.4317
20889SOL    HW264675   8.951   4.261  10.671  0.7322  0.3703 -0.7281
20890SOL     OW64676   7.563   7.378   2.513 -0.0655 -0.0674 -0.1440
20890SOL    HW164677   7.592   7.407   2.426 -1.9021 -0.4922 -0.9554
20890SOL    HW264678   7.484   7.326   2.495 -0.5686 -0.0308  1.8041
20891SOL     OW64679   2.281   0.667   3.026 -0.2846  0.1328  0.5674
20891SOL    HW164680   2.266   0.572   3.027 -0.1920  0.1185  0.7270
20891SOL    HW264681   2.375   0.676   3.043  0.0453  0.1881 -1.1198
20892SOL     OW64682  10.283   1.300   2.625 -0.1981  0.1233 -0.4149
20892SOL    HW164683  10.363   1.350   2.606  0.2790 -0.7490 -0.7388
20892SOL    HW264684  10.269   1.246   2.547 -0.6703 -0.2992 -0.0414
20893SOL     OW64685   6.655   7.036  10.921  0.2453 -0.4459 -0.1620
20893SOL    HW164686   6.598   7.052  10.996  0.4774 -1.7950  0.3222
20893SOL    HW264687   6.725   6.981  10.955  1.8908  1.1969 -0.7488
20894SOL     OW64688   4.099   6.572   9.358 -0.0951  0.5953  0.1529
20894SOL    HW164689   4.193   6.579   9.377  0.6205 -1.8233 -1.9108
20894SOL    HW264690   4.071   6.662   9.343  2.3793  1.2385 -1.1342
20895SOL     OW64691   5.732   1.945   1.310 -0.2179 -0.2552  0.1187
20895SOL    HW164692   5.717   2.023   1.363 -0.8101 -1.1935  1.4076
20895SOL    HW264693   5.806   1.967   1.254 -0.0442  1.0481  0.8252
20896SOL     OW64694  10.823   1.622  10.820  0.3463  0.4504  0.4557
20896SOL    HW164695  10.865   1.653  10.900 -0.4356  0.9432  0.6794
20896SOL    HW264696  10.895   1.589  10.766  0.9384  0.6552  1.1166
20897SOL     OW64697   3.563   4.538   2.283  0.0843 -0.5587  0.0227
20897SOL    HW164698   3.644   4.519   2.236  0.3783  0.1697  0.2197
20897SOL    HW264699   3.516   4.599   2.226 -0.4512 -1.1675 -0.2058
20898SOL     OW64700   6.350   7.946  10.415 -0.1135  0.1597  0.2562
20898SOL    HW164701   6.389   7.858  10.420  1.3553  0.7299 -0.4843
20898SOL    HW264702   6.292   7.951  10.491 -1.4622 -1.9948 -0.5477
20899SOL     OW64703   7.258   2.323   3.355  0.2307  0.0786 -0.8560
20899SOL    HW164704   7.167   2.337   3.383  0.4373 -0.1954 -0.0402
20899SOL    HW264705   7.296   2.269   3.423  0.3039 -1.9517 -2.4096
20900SOL     OW64706   3.223   3.086   1.868 -0.1201  0.1555  0.7570
20900SOL    HW164707   3.223   3.017   1.935  1.0826 -3.4286 -2.5148
20900SOL    HW264708   3.315   3.100   1.848 -0.4538  0.2611 -0.8491
20901SOL     OW64709  10.937   1.782   1.351 -0.0181  0.2036  0.5288
20901SOL    HW164710  10.969   1.699   1.385  0.7664 -0.3054 -1.3583
20901SOL    HW264711  10.999   1.806   1.283 -2.7834 -0.1105 -2.3189
20902SOL     OW64712  10.044   0.419   7.465 -0.4325  0.5819  0.2918
20902SOL    HW164713  10.098   0.418   7.386 -0.7840  0.3761  0.0512
20902SOL    HW264714  10.101   0.387   7.535 -0.6210 -0.9046 -0.2028
20903SOL     OW64715   3.801   6.878   1.688 -0.5306  0.1836  0.1425
20903SOL    HW164716   3.762   6.846   1.769  0.8092  0.3928  0.9109
20903SOL    HW264717   3.821   6.799   1.638 -0.4070 -0.0096  0.4928
20904SOL     OW64718   5.311  10.471   3.664  0.1051  0.4564 -0.1517
20904SOL    HW164719   5.310  10.380   3.695  0.8674 -0.0254 -1.4474
20904SOL    HW264720   5.401  10.484   3.633 -0.6825  0.7473 -2.4552
20905SOL     OW64721   4.756   5.121   4.110  0.1782 -0.0116 -0.6902
20905SOL    HW164722   4.838   5.093   4.149  1.2758  0.9233 -2.2117
20905SOL    HW264723   4.726   5.045   4.061  0.3374 -0.2340 -0.4453
20906SOL     OW64724   3.657   3.747   6.808  0.1050  0.2813  0.2358
20906SOL    HW164725   3.598   3.803   6.859 -1.1406 -0.1364 -0.7208
20906SOL    HW264726   3.728   3.726   6.869  0.3737  2.4841  0.7818
20907SOL     OW64727   7.011   5.072   6.963 -0.4203  0.0146 -0.0432
20907SOL    HW164728   7.064   5.137   6.917 -2.1951  0.4494 -1.5887
20907SOL    HW264729   6.924   5.110   6.968 -0.4928 -0.2895  3.2492
20908SOL     OW64730   1.584   2.645   6.744 -0.0496 -0.0004 -0.3972
20908SOL    HW164731   1.489   2.645   6.738 -0.4233  1.9538  2.7939
20908SOL    HW264732   1.608   2.553   6.748 -2.2447 -0.5801  2.2138
20909SOL     OW64733   2.056   0.738   9.592  0.1979 -0.2672  0.0130
20909SOL    HW164734   2.075   0.644   9.600 -0.1610 -0.2466  1.3787
20909SOL    HW264735   2.111   0.779   9.659  0.2312  0.4805 -0.4634
20910SOL     OW64736   2.584  10.976   5.420  0.0543 -0.3480 -0.0589
20910SOL    HW164737   2.503  10.944   5.459 -0.2729  0.1631 -0.2966
20910SOL    HW264738   2.651  10.917   5.451 -0.6399 -1.7862 -1.1705
20911SOL     OW64739   4.564   5.425   8.687 -0.0615  0.1510 -0.2157
20911SOL    HW164740   4.471   5.416   8.668 -0.0022 -2.4464  0.3178
20911SOL    HW264741   4.606   5.433   8.601 -0.7070  0.5275 -0.4991
20912SOL     OW64742   5.000   5.025   9.174 -0.1142 -0.3550 -0.1059
20912SOL    HW164743   4.963   5.039   9.087  1.3611  0.0828 -0.6865
20912SOL    HW264744   5.041   5.108   9.197 -0.1641 -0.5771  0.8625
20913SOL     OW64745   1.219   2.600   1.836  0.0261  0.5449  0.0209
20913SOL    HW164746   1.259   2.540   1.772 -1.5132  1.1971 -1.6404
20913SOL    HW264747   1.162   2.544   1.889 -0.7572  0.3882 -0.9684
20914SOL     OW64748   0.554   7.929   3.202  0.4309  0.3626  0.9848
20914SOL    HW164749   0.540   8.019   3.229  0.3541  0.2590  1.2874
20914SOL    HW264750   0.479   7.881   3.237 -1.4447  0.7442 -2.0701
20915SOL     OW64751   6.686  10.931   4.416 -0.3258 -0.2663  0.6650
20915SOL    HW164752   6.688  10.958   4.325  4.5823 -0.1171  0.5876
20915SOL    HW264753   6.662  11.010   4.465 -0.7799  0.2262 -0.3298
20916SOL     OW64754   9.659   5.532   2.167  0.2975 -0.3855  0.0879
20916SOL    HW164755   9.625   5.593   2.101 -2.0417 -0.9754  0.6635
20916SOL    HW264756   9.744   5.569   2.191 -1.0889  2.8205  0.5675
20917SOL     OW64757   3.849   9.414   0.333  0.4796 -0.0202 -0.2235
20917SOL    HW164758   3.794   9.338   0.315  0.4942  0.1816 -1.1479
20917SOL    HW264759   3.919   9.381   0.389 -0.6616 -0.2500  1.1460
20918SOL     OW64760   5.705   6.951   3.703 -0.5913  0.0119  0.0495
20918SOL    HW164761   5.622   6.997   3.691 -1.3166 -1.0091  0.9162
20918SOL    HW264762   5.748   6.997   3.774 -0.3197  0.6608 -0.5285
20919SOL     OW64763   6.022   2.452   9.335 -0.1753  0.3052 -0.0712
20919SOL    HW164764   6.078   2.529   9.322  0.4946  0.1427  1.5587
20919SOL    HW264765   6.042   2.396   9.260  3.0623 -0.4238  1.1551
20920SOL     OW64766   0.118   7.429  10.893 -0.3700 -0.8614  0.4164
20920SOL    HW164767   0.208   7.444  10.864  0.3162 -0.7877  2.4349
20920SOL    HW264768   0.066   7.493  10.844  0.8552 -0.0559  0.1226
20921SOL     OW64769   2.438   9.895   0.679  0.0859 -0.5887 -0.1787
20921SOL    HW164770   2.450   9.941   0.596 -0.0763  0.1463  0.1993
20921SOL    HW264771   2.504   9.826   0.678  1.1104  0.3631 -0.2637
20922SOL     OW64772   5.402   7.871   1.364 -0.3704  0.8064  0.7928
20922SOL    HW164773   5.497   7.855   1.369 -0.2961  0.2198 -1.2841
20922SOL    HW264774   5.395   7.965   1.347 -0.1409  0.8208  0.7635
20923SOL     OW64775   0.847   5.232   0.839  0.0276 -0.2557  0.3718
20923SOL    HW164776   0.820   5.320   0.810  0.8328  0.4919  1.7743
20923SOL    HW264777   0.794   5.173   0.786 -2.8020  1.0920  1.4675
20924SOL     OW64778   7.361   0.779   5.511  0.6948  0.1723 -0.6372
20924SOL    HW164779   7.454   0.791   5.533  0.3087 -0.8367  1.8743
20924SOL    HW264780   7.316   0.779   5.595 -1.6131  0.5610 -1.7947
20925SOL     OW64781   9.444   9.718   9.718  0.5758  0.1863 -0.4903
20925SOL    HW164782   9.500   9.673   9.782  0.4260  0.3128 -0.2663
20925SOL    HW264783   9.464   9.811   9.731 -0.0246  0.2654 -0.0766
20926SOL     OW64784   5.261   9.316   3.297  0.2155 -0.4562  0.9866
20926SOL    HW164785   5.264   9.227   3.262  0.9450 -1.6273  3.8105
20926SOL    HW264786   5.181   9.319   3.349 -0.3333  0.9205  0.1347
20927SOL     OW64787   3.546   8.854   1.415 -0.6015 -0.2767  1.0028
20927SOL    HW164788   3.454   8.876   1.397 -0.9372 -0.8889  1.8853
20927SOL    HW264789   3.570   8.792   1.347 -1.2494 -1.0951  1.5031
20928SOL     OW64790   1.842   1.751   5.276 -0.1646  0.5199 -0.1563
20928SOL    HW164791   1.782   1.825   5.267  0.7108  1.3367  0.4897
20928SOL    HW264792   1.847   1.714   5.188 -1.5279  0.4869 -0.2454
20929SOL     OW64793   6.873   0.637   2.771 -0.3829 -0.5994 -0.4355
20929SOL    HW164794   6.835   0.613   2.686 -2.0889  0.1746  0.0721
20929SOL    HW264795   6.946   0.695   2.748 -1.7939  0.9003 -1.3753
20930SOL     OW64796   7.994   9.682   9.408  0.1151 -0.0149  0.5427
20930SOL    HW164797   7.937   9.642   9.343  0.0493 -0.0729  0.6361
20930SOL    HW264798   7.934   9.725   9.469  0.2275  1.1996 -0.1871
20931SOL     OW64799   0.306   9.375  10.635  0.2934 -0.0816  0.5857
20931SOL    HW164800   0.385   9.416  10.599  0.8816  0.0577  1.9982
20931SOL    HW264801   0.272   9.322  10.563  0.2789  1.7945 -0.8540
20932SOL     OW64802   8.302  10.232   3.916 -0.7139  0.2957 -0.1704
20932SOL    HW164803   8.277  10.303   3.975 -0.2668  0.8261 -0.5985
20932SOL    HW264804   8.219  10.195   3.886 -0.9736  1.0219 -0.3852
20933SOL     OW64805   3.605   5.964   2.517 -0.2736 -0.6341 -0.0460
20933SOL    HW164806   3.512   5.941   2.524  0.0143 -2.0668 -0.4324
20933SOL    HW264807   3.640   5.899   2.456  0.6513  0.9510 -1.2436
20934SOL     OW64808   3.204   0.949   5.432  0.0841 -0.5003 -0.0692
20934SOL    HW164809   3.268   0.930   5.500 -1.0575 -0.2197  1.1348
20934SOL    HW264810   3.214   0.878   5.369  1.0742 -0.8467  0.4473
20935SOL     OW64811   5.364   6.467   2.024 -0.1001  0.1312 -0.4243
20935SOL    HW164812   5.402   6.451   2.110  0.6406  0.8152 -0.6089
20935SOL    HW264813   5.300   6.536   2.038  1.2332  1.4673 -0.6845
20936SOL     OW64814  10.984   0.093   6.470  0.4460 -0.4669 -0.0562
20936SOL    HW164815  11.047   0.105   6.542 -2.2220  0.7514  2.2556
20936SOL    HW264816  10.916   0.037   6.507 -1.9022  1.5947 -0.9661
20937SOL     OW64817   1.366   5.542   2.333 -0.9332 -0.2264 -1.0396
20937SOL    HW164818   1.298   5.569   2.395 -0.2741 -0.2994 -0.2559
20937SOL    HW264819   1.352   5.448   2.322 -0.7255 -0.3170 -0.5679
20938SOL     OW64820   5.440  11.070   6.645  0.3317  0.2319 -1.1713
20938SOL    HW164821   5.516  11.013   6.658  2.5471  3.1131 -0.5816
20938SOL    HW264822   5.457  11.116   6.563 -2.3892 -1.2313 -2.6960
20939SOL     OW64823   5.137   1.050   3.816  0.0269  0.0477  0.2557
20939SOL    HW164824   5.105   0.963   3.838 -1.7374  0.9407  1.5284
20939SOL    HW264825   5.082   1.078   3.742  0.8345 -0.0445 -0.3915
20940SOL     OW64826   7.057   8.145   3.719 -0.3201  0.7848  0.0421
20940SOL    HW164827   7.099   8.226   3.746 -0.4514  1.0957 -0.6544
20940SOL    HW264828   6.970   8.171   3.690  0.4458  0.8142 -2.5347
20941SOL     OW64829   6.067   3.425   0.989 -0.3527  0.6791  0.4482
20941SOL    HW164830   6.000   3.483   0.955 -0.5222 -0.2792 -0.9460
20941SOL    HW264831   6.149   3.472   0.977 -0.7406  2.0102  2.4919
20942SOL     OW64832   8.317   1.232   6.115  0.0999  0.5641  0.3429
20942SOL    HW164833   8.283   1.320   6.131 -1.6746  0.2710 -1.5712
20942SOL    HW264834   8.377   1.243   6.041  1.2089  0.4041  1.1880
20943SOL     OW64835   6.553   9.232   6.098  0.0007 -0.1068 -0.3060
20943SOL    HW164836   6.569   9.268   6.011 -1.0853  2.3538  0.4075
20943SOL    HW264837   6.458   9.223   6.103  0.2001 -3.3199 -0.4368
20944SOL     OW64838   6.250  10.530   3.779  0.0511  0.0473 -0.2860
20944SOL    HW164839   6.318  10.578   3.826  0.3319 -0.3122 -0.3123
20944SOL    HW264840   6.182  10.594   3.761  0.1843  0.3094  0.1397
20945SOL     OW64841   7.378   0.311  11.097 -0.6355 -0.2063  0.1218
20945SOL    HW164842   7.473   0.305  11.100 -0.2301  3.8178  1.4168
20945SOL    HW264843   7.349   0.280  11.183 -0.1921  1.1364  0.7726
20946SOL     OW64844   2.626   1.584   1.941  0.0460  0.3746 -0.3517
20946SOL    HW164845   2.696   1.642   1.973  0.6525 -0.8533  0.6469
20946SOL    HW264846   2.654   1.560   1.852 -0.6859  2.3056 -1.1462
20947SOL     OW64847   4.102   3.384   0.872  0.4125  0.1464 -0.3499
20947SOL    HW164848   4.121   3.470   0.833 -0.5429  0.2507 -0.6014
20947SOL    HW264849   4.024   3.400   0.926  0.5639 -0.4446  0.0475
20948SOL     OW64850   4.931   2.982   5.870  0.2512  0.0279 -0.1936
20948SOL    HW164851   4.943   2.951   5.780  0.1002 -0.3541 -0.0805
20948SOL    HW264852   4.964   3.072   5.868  0.9420 -0.2204 -0.4515
20949SOL     OW64853   1.261   7.150  10.526  0.3090  0.1550  0.0390
20949SOL    HW164854   1.301   7.186  10.605  1.1576 -0.6538 -0.0058
20949SOL    HW264855   1.317   7.181  10.455 -0.3878  0.7892 -0.2448
20950SOL     OW64856  10.928   3.044   3.296  0.2323 -0.5204 -0.0092
20950SOL    HW164857  10.948   3.132   3.264  0.4711  0.1763  1.9334
20950SOL    HW264858  10.842   3.051   3.336  0.2079 -1.1946  0.0780
20951SOL     OW64859   5.528  10.209   2.357  0.3240  0.0939  0.2952
20951SOL    HW164860   5.607  10.190   2.407  0.0110 -0.2420  0.6641
20951SOL    HW264861   5.558  10.216   2.266  1.1449  2.1720  0.6684
20952SOL     OW64862   5.396   2.719   2.955  0.3199  0.6140 -0.2018
20952SOL    HW164863   5.352   2.788   3.005 -1.4685  0.4913 -1.5071
20952SOL    HW264864   5.400   2.754   2.866 -1.5158 -1.2904 -1.1053
20953SOL     OW64865   9.051   4.593  10.206 -0.2629 -0.0829 -0.6960
20953SOL    HW164866   9.032   4.527  10.139  2.8500 -1.7152 -0.1673
20953SOL    HW264867   9.102   4.546  10.272 -0.5397  2.2012  1.2689
20954SOL     OW64868   3.709   2.811   3.139 -0.3521  0.1072  0.2079
20954SOL    HW164869   3.712   2.889   3.083  2.0349  1.2292  1.6993
20954SOL    HW264870   3.729   2.845   3.227  1.2444 -2.2275  0.8292
20955SOL     OW64871   0.310   8.100  10.292  0.4483  0.4122 -0.2313
20955SOL    HW164872   0.406   8.103  10.293  0.4737  0.3977  1.4061
20955SOL    HW264873   0.289   8.021  10.342 -0.4074  0.7482 -0.0383
20956SOL     OW64874   5.686   7.288   4.165  0.3753  0.2251 -0.2068
20956SOL    HW164875   5.722   7.364   4.119 -1.2214  1.3766  0.3539
20956SOL    HW264876   5.598   7.315   4.190 -0.1719 -1.7727  0.1693
20957SOL     OW64877   7.126  10.940   6.611  0.3467  0.3055 -0.2177
20957SOL    HW164878   7.207  10.966   6.568 -1.0344  0.7095 -2.7544
20957SOL    HW264879   7.073  11.020   6.616 -0.9442 -0.4434 -1.1433
20958SOL     OW64880   0.756   3.467   2.499 -0.0795  0.0326 -0.3160
20958SOL    HW164881   0.668   3.452   2.465 -0.6415  0.3097  0.9553
20958SOL    HW264882   0.748   3.549   2.549  1.0007  0.2891 -0.5493
20959SOL     OW64883   0.646   2.870   2.490 -0.4465 -0.0663  0.5646
20959SOL    HW164884   0.563   2.903   2.458 -1.1241 -2.1434  0.0609
20959SOL    HW264885   0.625   2.826   2.572 -0.1918 -2.1150 -0.4207
20960SOL     OW64886  10.090   6.619   1.345  0.0295  0.6003  0.2941
20960SOL    HW164887  10.102   6.526   1.325 -0.1712  0.4077  1.0207
20960SOL    HW264888  10.055   6.620   1.434  0.3304  1.3883  0.4155
20961SOL     OW64889   2.801   8.327   8.739 -0.2348  0.0122  0.1441
20961SOL    HW164890   2.761   8.414   8.730  0.7539  0.4316 -0.2261
20961SOL    HW264891   2.855   8.317   8.661 -1.3497 -1.4980 -0.4863
20962SOL     OW64892   0.829   2.173   7.270  0.2178  0.4589  0.4518
20962SOL    HW164893   0.844   2.267   7.274  2.1375  0.2271 -0.2163
20962SOL    HW264894   0.852   2.149   7.180  0.5994 -0.7644  0.8551
20963SOL     OW64895   1.433   9.817   2.855 -0.3432  0.3940  0.2516
20963SOL    HW164896   1.527   9.834   2.842 -0.0872 -1.1771 -0.2811
20963SOL    HW264897   1.419   9.830   2.949  0.2353  1.3999  0.2077
20964SOL     OW64898   3.071   8.093   2.918 -0.3348  0.0761 -0.4073
20964SOL    HW164899   3.029   8.119   3.000 -0.3602 -0.0866 -0.3682
20964SOL    HW264900   2.998   8.074   2.859 -0.3244  0.7421 -0.6499
20965SOL     OW64901   9.005   3.403   8.415  0.0561  0.0310  0.0552
20965SOL    HW164902   8.947   3.427   8.344  1.1220  1.8076 -0.2592
20965SOL    HW264903   9.093   3.411   8.379  0.5971  0.2557  1.3452
20966SOL     OW64904   5.313   4.207   7.744 -0.1717 -0.0639  0.6963
20966SOL    HW164905   5.251   4.234   7.677  0.7595  1.3845  0.3797
20966SOL    HW264906   5.357   4.287   7.769  2.5514 -1.2224 -0.0686
20967SOL     OW64907   5.823   7.257   2.085 -0.4476  0.1618  0.1694
20967SOL    HW164908   5.802   7.324   2.150 -1.7589  0.3509 -0.4373
20967SOL    HW264909   5.741   7.240   2.039 -0.1677 -1.9118  0.3435
20968SOL     OW64910   8.945   8.671   8.606  0.4284  0.2794  0.0712
20968SOL    HW164911   8.880   8.601   8.599  0.2456  0.3995  0.5092
20968SOL    HW264912   9.020   8.641   8.554 -0.1589  0.3571 -0.8485
20969SOL     OW64913   2.650   5.967   4.713  0.1041  0.7592 -0.3716
20969SOL    HW164914   2.722   5.998   4.767  0.8963 -0.7231 -0.5136
20969SOL    HW264915   2.635   5.877   4.743  0.9518 -0.3332 -2.9339
20970SOL     OW64916   9.064   0.592   4.897  0.4260 -0.1090  0.0143
20970SOL    HW164917   9.076   0.522   4.961 -1.4646  0.0101  0.5520
20970SOL    HW264918   8.970   0.610   4.897  0.2830 -0.2732 -2.9969
20971SOL     OW64919  10.528   6.344   0.510 -0.1736  0.7898 -0.6166
20971SOL    HW164920  10.607   6.301   0.542 -0.2802 -0.9175 -2.4982
20971SOL    HW264921  10.497   6.395   0.585  2.5245  1.3200  0.2676
20972SOL     OW64922   6.157   5.554   3.674 -0.0122 -0.0982 -0.0602
20972SOL    HW164923   6.095   5.622   3.647 -0.5000 -0.1467  0.8703
20972SOL    HW264924   6.102   5.479   3.695  0.5937 -1.2333 -2.2404
20973SOL     OW64925   9.016   3.772   4.334 -0.4528  0.3082  0.3067
20973SOL    HW164926   8.938   3.816   4.298 -0.2414 -1.1118 -2.0383
20973SOL    HW264927   9.015   3.685   4.294  1.5719 -0.2499  1.3728
20974SOL     OW64928   5.975   8.494  10.327 -0.4275  0.1727  0.2908
20974SOL    HW164929   6.045   8.430  10.346  0.1530  0.6546 -0.1814
20974SOL    HW264930   5.931   8.506  10.411  0.6850  0.5924  0.8385
20975SOL     OW64931   8.712   9.331   0.646 -0.6942 -0.0723 -0.4122
20975SOL    HW164932   8.626   9.371   0.661  0.2599  1.4364  1.4561
20975SOL    HW264933   8.743   9.304   0.732  0.4098 -1.2982 -1.1422
20976SOL     OW64934   5.265   1.731   5.120  0.6864 -0.2555 -0.7022
20976SOL    HW164935   5.324   1.775   5.180 -0.0154 -0.9601  0.5350
20976SOL    HW264936   5.228   1.658   5.170 -2.0688  0.7792 -1.0170
20977SOL     OW64937   6.681   1.115   6.850 -0.2828 -0.2047  0.2172
20977SOL    HW164938   6.690   1.131   6.944 -1.7887  1.9414  0.0845
20977SOL    HW264939   6.768   1.134   6.814  0.0778 -0.1817  1.0794
20978SOL     OW64940   1.430  10.585   2.837  0.5579  0.4201  0.5640
20978SOL    HW164941   1.337  10.601   2.847  0.5589  0.1601  1.0625
20978SOL    HW264942   1.436  10.497   2.799  0.5863  0.8169 -0.3723
20979SOL     OW64943   2.889   9.166   0.890  0.0092 -0.2123  0.3621
20979SOL    HW164944   2.928   9.080   0.871  1.1816  0.4592 -0.3640
20979SOL    HW264945   2.849   9.154   0.976  2.0726 -0.8937  1.2999
20980SOL     OW64946   6.798   0.109   6.833 -0.2328 -0.1599 -0.2684
20980SOL    HW164947   6.738   0.161   6.780  1.9213  1.2122 -1.5169
20980SOL    HW264948   6.833   0.043   6.772  0.2282 -0.3309  0.1724
20981SOL     OW64949   9.824   6.435   5.424 -0.0420 -0.4997 -0.6821
20981SOL    HW164950   9.875   6.433   5.505  1.5569 -3.8943 -1.5548
20981SOL    HW264951   9.740   6.397   5.448  0.9838 -3.0449 -0.7708
20982SOL     OW64952   7.478   3.729   1.551  0.2499 -0.4325  0.8319
20982SOL    HW164953   7.456   3.698   1.639  1.8672  0.1421  1.4817
20982SOL    HW264954   7.475   3.824   1.558  0.0728 -0.3857  0.1697
20983SOL     OW64955   9.062   6.030   2.926  0.1652 -0.5005 -0.1416
20983SOL    HW164956   9.120   6.047   2.852  1.6154  0.0982  1.0966
20983SOL    HW264957   9.102   5.955   2.971 -0.3446 -0.4467  0.4077
20984SOL     OW64958  10.584   2.404   0.108 -0.7183  0.1859 -0.4374
20984SOL    HW164959  10.677   2.425   0.105 -0.6560 -0.1466 -3.2921
20984SOL    HW264960  10.578   2.328   0.166  0.5676  0.9521  0.7726
20985SOL     OW64961   6.787   4.894   2.369  0.4024  0.3071 -0.5091
20985SOL    HW164962   6.727   4.969   2.375  0.1998  0.1029  0.0474
20985SOL    HW264963   6.755   4.844   2.294  0.4938  0.7366 -0.8403
20986SOL     OW64964   1.749  10.234   1.046 -0.1260  0.5098 -0.5163
20986SOL    HW164965   1.814  10.167   1.068  0.9312  1.6163 -0.1393
20986SOL    HW264966   1.732  10.279   1.129 -0.3450  1.1187 -0.8833
20987SOL     OW64967   3.062   2.593  10.035 -0.8267  0.3893 -0.0902
20987SOL    HW164968   3.150   2.582  10.072 -1.8617 -0.3390  2.3685
20987SOL    HW264969   3.053   2.522   9.972  0.0854  0.0012  0.2021
20988SOL     OW64970   5.671   8.126   2.907  0.4554 -0.2352  0.0441
20988SOL    HW164971   5.626   8.207   2.882  1.2397 -0.0670 -0.8726
20988SOL    HW264972   5.761   8.140   2.880  0.5055 -1.6031 -0.5639
20989SOL     OW64973   1.042  10.365  10.380  0.1426  0.0272 -0.2928
20989SOL    HW164974   1.015  10.306  10.450 -1.0557  0.4200 -0.4160
20989SOL    HW264975   1.085  10.307  10.317 -0.3228 -0.6004 -0.0502
20990SOL     OW64976   0.976   0.971   8.630 -0.2670  0.1962  0.3199
20990SOL    HW164977   0.986   0.905   8.698 -1.8936  0.7818  1.1807
20990SOL    HW264978   1.026   1.046   8.662  0.7293 -0.2432 -0.1697
20991SOL     OW64979  10.906  10.435   4.351 -0.3349 -0.1949  0.7992
20991SOL    HW164980  10.839  10.451   4.284 -1.7093 -0.9119  1.9348
20991SOL    HW264981  10.912  10.517   4.399 -0.7801 -0.2701  0.9939
20992SOL     OW64982   7.315   9.520   3.050 -0.3604 -0.0076  0.0083
20992SOL    HW164983   7.282   9.526   2.960 -0.9982  0.2708  0.2497
20992SOL    HW264984   7.347   9.431   3.058 -1.0142 -0.2730 -0.2618
20993SOL     OW64985   5.294   8.665   5.265  0.3695 -0.3749 -0.6455
20993SOL    HW164986   5.260   8.689   5.179 -0.1304 -0.5652 -0.5064
20993SOL    HW264987   5.235   8.596   5.295  0.4497 -0.2013 -0.0845
20994SOL     OW64988   8.281   8.147   4.990  0.2353 -0.1214  0.2828
20994SOL    HW164989   8.341   8.086   4.947 -0.6705 -0.3862 -0.6522
20994SOL    HW264990   8.339   8.210   5.033  1.1848 -0.6624 -0.1553
20995SOL     OW64991   9.769   6.699   9.479  0.0027 -0.3733 -0.5300
20995SOL    HW164992   9.797   6.683   9.388 -0.5059 -2.0514 -0.4227
20995SOL    HW264993   9.837   6.755   9.515 -0.9006  2.2822 -2.5793
20996SOL     OW64994   8.458  10.705   1.235  0.1121  0.6240  0.4056
20996SOL    HW164995   8.387  10.748   1.187  1.2171  1.0436 -0.9037
20996SOL    HW264996   8.513  10.665   1.167  0.1006 -1.3699  1.4904
20997SOL     OW64997   0.518   0.468   3.579  0.1066  0.0226 -0.4913
20997SOL    HW164998   0.590   0.408   3.596 -1.6982 -1.8451  1.0984
20997SOL    HW264999   0.469   0.471   3.661 -1.3641  1.5966 -1.3619
20998SOL     OW65000   5.553   0.383  10.318 -0.4628  0.4012  0.0068
20998SOL    HW165001   5.489   0.366  10.249 -1.9907  0.8817  1.2548
20998SOL    HW265002   5.637   0.361  10.278 -1.0017  2.8285 -2.7688
20999SOL     OW65003   1.900   0.702   0.642  0.4488 -0.4248 -0.7401
20999SOL    HW165004   1.932   0.691   0.552 -0.5758  1.7387 -1.4385
20999SOL    HW265005   1.863   0.790   0.644  0.9261 -0.1865  1.9867
21000SOL     OW65006   8.641   0.281   2.359  0.0097 -0.1615 -0.0271
21000SOL    HW165007   8.711   0.313   2.303  0.3747 -1.7737 -0.5567
21000SOL    HW265008   8.560   0.297   2.310  0.2040 -0.2262 -0.3698
21001SOL     OW65009   9.828   5.445   4.145  0.3845  0.1180 -0.5356
21001SOL    HW165010   9.881   5.470   4.070  3.0739  3.0447  2.0292
21001SOL    HW265011   9.859   5.357   4.169  0.8563 -0.0293 -1.6445
21002SOL     OW65012   8.577   1.980   0.010 -0.0733 -0.1426  0.0617
21002SOL    HW165013   8.603   1.928   0.086  3.3920 -1.0570 -1.5934
21002SOL    HW265014   8.525   1.919  -0.043  0.7524 -0.7409 -0.0816
21003SOL     OW65015   5.249   0.407  10.390 -0.5906  0.4496  0.0891
21003SOL    HW165016   5.292   0.430  10.308  1.7304 -2.2678  0.3800
21003SOL    HW265017   5.262   0.483  10.446  1.8478  0.6511 -0.6432
21004SOL     OW65018   6.787   2.601   9.124  0.0176 -0.4529  0.0041
21004SOL    HW165019   6.876   2.630   9.101 -0.1979 -0.5613 -1.0090
21004SOL    HW265020   6.799   2.549   9.203  0.8075 -0.1451  0.1014
21005SOL     OW65021   1.869  10.807   0.987 -0.4012  0.9909  0.0044
21005SOL    HW165022   1.875  10.892   0.944  2.2013  0.7355 -0.2577
21005SOL    HW265023   1.914  10.820   1.071  1.7601 -0.5369 -0.8276
21006SOL     OW65024   2.535   9.679   5.992  0.1900 -0.2065  0.1839
21006SOL    HW165025   2.531   9.608   5.928 -2.3907 -0.0920  0.1290
21006SOL    HW265026   2.516   9.636   6.076 -0.3979  0.2521  0.2892
21007SOL     OW65027   5.477   9.565  10.706  0.2347 -0.0263  0.5337
21007SOL    HW165028   5.434   9.576  10.790  0.9959  1.0775  0.7966
21007SOL    HW265029   5.501   9.653  10.678 -0.8059 -0.2725 -1.2928
21008SOL     OW65030   5.458   6.927   4.279  0.2947  0.4137  0.1922
21008SOL    HW165031   5.535   6.884   4.240 -0.3471 -1.0288  0.4430
21008SOL    HW265032   5.383   6.883   4.237 -0.3965  0.6587  1.1490
21009SOL     OW65033   9.046   0.444  10.586 -0.7699  0.4974 -0.0206
21009SOL    HW165034   9.096   0.419  10.508 -1.2052  0.2655 -0.2327
21009SOL    HW265035   8.963   0.475  10.552 -0.9372  0.4621  0.3488
21010SOL     OW65036   1.080   0.918   9.410  0.3393 -0.1053  0.2885
21010SOL    HW165037   1.083   0.823   9.419 -0.5402 -0.7845 -4.3125
21010SOL    HW265038   1.001   0.944   9.458 -0.4433 -1.9865  0.1032
21011SOL     OW65039   3.577   7.868   1.992 -0.2034 -0.2536  0.2181
21011SOL    HW165040   3.543   7.778   1.993 -1.5794  0.2340 -0.3878
21011SOL    HW265041   3.513   7.917   1.942  1.4318  0.7455 -0.9831
21012SOL     OW65042   2.750   9.643   6.813 -0.1658 -0.3244  0.0026
21012SOL    HW165043   2.665   9.656   6.770 -0.3418  0.4626  0.5701
21012SOL    HW265044   2.786   9.731   6.823 -0.3057 -0.4405  1.8016
21013SOL     OW65045   1.590  10.750   0.684 -0.5376  0.0937 -0.3057
21013SOL    HW165046   1.562  10.838   0.708 -1.3374 -0.0734 -0.5799
21013SOL    HW265047   1.538  10.729   0.607 -0.3442 -0.6144 -0.2507
21014SOL     OW65048   1.030   8.175   2.273 -0.4245 -0.2326  0.2036
21014SOL    HW165049   0.997   8.118   2.343  0.3098 -1.0162 -0.0624
21014SOL    HW265050   1.115   8.206   2.305  0.1046 -0.9131 -0.4745
21015SOL     OW65051  10.754   2.458   8.422  0.8626  0.5001 -1.1552
21015SOL    HW165052  10.848   2.477   8.416  0.8734  0.2077 -2.0299
21015SOL    HW265053  10.714   2.543   8.442  1.4757  0.2949  1.3310
21016SOL     OW65054   4.866   0.974   7.422 -0.1421 -0.0166  0.2004
21016SOL    HW165055   4.861   0.886   7.386 -0.0696  0.6370 -1.5084
21016SOL    HW265056   4.943   0.973   7.478  0.7628 -0.6435 -1.0124
21017SOL     OW65057   0.482   9.903   3.334 -0.0523 -0.4270 -0.0266
21017SOL    HW165058   0.398   9.915   3.379  0.1979 -0.7320  0.5320
21017SOL    HW265059   0.545   9.890   3.405  0.5487  0.2494 -0.4163
21018SOL     OW65060   3.107   4.717   4.899 -0.2097  0.3164 -0.3372
21018SOL    HW165061   3.032   4.773   4.920  0.1696  0.0242  2.1834
21018SOL    HW265062   3.109   4.713   4.804 -3.1960  0.5875 -0.4972
21019SOL     OW65063   2.247   4.049   2.072  0.2341  0.0864  0.2920
21019SOL    HW165064   2.314   4.081   2.012 -0.6788 -0.8710 -1.2925
21019SOL    HW265065   2.177   4.115   2.067 -0.1514 -0.3583 -0.2719
21020SOL     OW65066   2.520   1.080   4.117  0.4086  0.1349  0.0635
21020SOL    HW165067   2.606   1.122   4.122  0.5063  0.0927 -0.9780
21020SOL    HW265068   2.484   1.087   4.205  1.7301 -0.3626  0.6608
21021SOL     OW65069   4.655   9.214   3.955 -0.2987  0.3646 -0.3329
21021SOL    HW165070   4.744   9.228   3.921  0.3751  0.1415  1.2496
21021SOL    HW265071   4.604   9.286   3.917  0.3459  0.0433 -1.9035
21022SOL     OW65072   4.488   1.397   5.505 -0.1651  0.6865 -0.0088
21022SOL    HW165073   4.488   1.315   5.456  0.1026  1.0219 -0.5885
21022SOL    HW265074   4.439   1.458   5.450  0.8409  1.2955 -0.2737
21023SOL     OW65075   6.925  10.250   6.174  0.0017  0.2771  0.0342
21023SOL    HW165076   6.870  10.327   6.166  0.6323  0.5708 -2.0574
21023SOL    HW265077   6.871  10.186   6.220 -0.4683  1.9719  1.9633
21024SOL     OW65078   5.076  10.655   2.982  0.1585 -0.4086  0.2688
21024SOL    HW165079   5.130  10.719   2.935  0.2390 -0.1949  0.6533
21024SOL    HW265080   4.987  10.668   2.947 -0.0519  0.7100  1.1663
21025SOL     OW65081   2.122   9.851   4.861 -0.3569  0.6826 -0.0602
21025SOL    HW165082   2.149   9.895   4.780 -2.2797 -0.3110 -1.3280
21025SOL    HW265083   2.174   9.770   4.862 -2.3886 -0.7755 -1.9963
21026SOL     OW65084   4.889   5.421   2.400 -0.0595 -0.2019  0.9432
21026SOL    HW165085   4.880   5.397   2.308  2.1339  2.0535  0.0088
21026SOL    HW265086   4.824   5.489   2.414 -2.2941 -2.3984  1.9500
21027SOL     OW65087  10.707   1.541   3.011  0.2045 -0.4990  0.5639
21027SOL    HW165088  10.725   1.516   2.920  1.7766  2.3358 -0.0170
21027SOL    HW265089  10.642   1.477   3.041  1.5049 -3.0838 -1.6872
21028SOL     OW65090   9.699   7.163   1.821  0.6132  0.0547  0.3303
21028SOL    HW165091   9.614   7.139   1.784  0.2117  2.2559 -0.3170
21028SOL    HW265092   9.732   7.082   1.859 -0.9206 -1.2940 -1.0537
21029SOL     OW65093   8.132   8.168   5.796  0.7723  0.2077 -0.0732
21029SOL    HW165094   8.036   8.169   5.802  0.8040  1.2270  0.5719
21029SOL    HW265095   8.153   8.087   5.751 -0.4170  0.1122 -0.4750
21030SOL     OW65096   6.574   9.272   5.815 -0.2728  0.1174 -0.1337
21030SOL    HW165097   6.648   9.324   5.784  0.4299 -0.5039  0.4533
21030SOL    HW265098   6.508   9.280   5.746  0.7898 -0.2811 -1.2272
21031SOL     OW65099   0.648   7.465   4.844 -0.6464 -0.3137  0.6591
21031SOL    HW165100   0.709   7.410   4.893 -0.0783  0.0422  0.3501
21031SOL    HW265101   0.612   7.525   4.909 -0.4330 -0.3155  0.7786
21032SOL     OW65102   0.820   9.649  10.997  0.0921  0.5750  0.5608
21032SOL    HW165103   0.864   9.603  11.069  1.4050  1.3082  0.2621
21032SOL    HW265104   0.729   9.620  11.001  0.6880 -1.3635  0.9272
21033SOL     OW65105   4.863   7.029   4.757 -0.4243  0.3943 -0.4900
21033SOL    HW165106   4.800   6.983   4.813  0.1896 -1.2799 -1.0878
21033SOL    HW265107   4.946   6.983   4.773  0.5763  2.2836 -0.0248
21034SOL     OW65108   5.353   0.748   7.819 -0.6693  0.0764 -0.1318
21034SOL    HW165109   5.399   0.665   7.810 -0.1612  0.4056 -0.6642
21034SOL    HW265110   5.314   0.764   7.733  0.6943  1.2143 -0.5860
21035SOL     OW65111  10.806   6.686   6.102 -0.2064 -0.3861 -0.1449
21035SOL    HW165112  10.826   6.595   6.122 -2.1381 -0.7535  0.3853
21035SOL    HW265113  10.751   6.682   6.024 -0.2895  0.3100 -0.1319
21036SOL     OW65114  10.137   7.943   7.045  0.3749 -0.6824 -0.0547
21036SOL    HW165115  10.141   8.015   6.982  0.7553 -0.1996  0.5180
21036SOL    HW265116  10.182   7.976   7.122 -3.2829  0.1856  1.9675
21037SOL     OW65117   3.707   2.469   2.877  0.4328 -0.1061  0.0652
21037SOL    HW165118   3.684   2.562   2.875  1.4536  0.1480 -0.7341
21037SOL    HW265119   3.800   2.469   2.899  0.0130 -1.0375  2.0601
21038SOL     OW65120   4.842   1.142   2.354 -0.1740  0.7044  0.6680
21038SOL    HW165121   4.760   1.135   2.403 -1.0304  1.8409 -0.5482
21038SOL    HW265122   4.816   1.171   2.267  1.5212  0.9504  0.2032
21039SOL     OW65123   4.222   7.279   3.089  0.1196 -0.3500  0.5982
21039SOL    HW165124   4.150   7.312   3.143 -0.1791  2.0285 -1.0719
21039SOL    HW265125   4.266   7.359   3.058  1.2132 -1.6507 -1.3814
21040SOL     OW65126   7.990   0.330   4.940 -0.3365  0.0865 -0.2330
21040SOL    HW165127   8.078   0.323   4.904  0.3880 -2.0861  1.7109
21040SOL    HW265128   7.992   0.410   4.993  0.1960  0.4624 -0.8091
21041SOL     OW65129   7.254   9.158   0.293  0.1631  0.9536 -0.2974
21041SOL    HW165130   7.242   9.159   0.198  0.5142 -0.1940 -0.3776
21041SOL    HW265131   7.229   9.069   0.319  1.0996  0.9171  0.5292
21042SOL     OW65132  10.093   5.234   1.982  0.8395  0.0120 -0.0664
21042SOL    HW165133  10.137   5.272   2.058 -1.2243 -0.3095  1.3818
21042SOL    HW265134  10.079   5.143   2.006 -3.2530  0.7080  1.0005
21043SOL     OW65135   4.804   2.619   4.174  0.4967  0.3397 -0.0419
21043SOL    HW165136   4.822   2.595   4.265  0.6029  0.3393 -0.0616
21043SOL    HW265137   4.885   2.662   4.145  1.6944 -2.4131 -1.0894
21044SOL     OW65138   5.957  10.194   1.431 -0.1584  0.2272 -0.1345
21044SOL    HW165139   5.944  10.270   1.375 -1.6353 -0.2878 -0.5509
21044SOL    HW265140   5.887  10.201   1.496  1.5502  0.8423  1.7202
21045SOL     OW65141   7.992  10.162  11.003 -0.0683 -0.3879 -0.1760
21045SOL    HW165142   7.919  10.223  11.014  0.9555  1.1124 -1.2934
21045SOL    HW265143   8.019  10.173  10.912  2.9734  0.8093  0.7493
21046SOL     OW65144   1.450   9.398   4.689  0.0943 -0.2696 -0.6674
21046SOL    HW165145   1.415   9.314   4.719  1.7500 -0.7971 -0.1264
21046SOL    HW265146   1.514   9.423   4.756  0.0611  1.1431 -1.1263
21047SOL     OW65147   3.047   8.387   4.983  0.0837  0.4538 -0.0568
21047SOL    HW165148   3.024   8.379   5.075 -2.3409 -0.8698 -0.6916
21047SOL    HW265149   2.989   8.326   4.938  2.9093 -0.8254 -2.2605
21048SOL     OW65150   9.656   7.908   5.710  0.2054  0.4788 -0.0364
21048SOL    HW165151   9.604   7.840   5.669  1.6094 -2.0854  2.0790
21048SOL    HW265152   9.695   7.956   5.637 -1.2319 -0.6554 -1.6246
21049SOL     OW65153   3.452   4.452   1.259  0.0277  0.2886 -0.0990
21049SOL    HW165154   3.467   4.538   1.220 -0.0343 -0.4239 -1.7451
21049SOL    HW265155   3.419   4.397   1.188  1.5001 -1.5230  0.5205
21050SOL     OW65156   1.262   7.849   2.000  0.0571  0.6352 -0.2427
21050SOL    HW165157   1.229   7.937   2.015  0.1691  0.7954 -0.9087
21050SOL    HW265158   1.256   7.806   2.086 -1.5026  0.7774 -0.2483
21051SOL     OW65159   2.244   4.173   6.126 -0.1845  0.3097  0.1086
21051SOL    HW165160   2.305   4.227   6.177  2.4928  0.3166 -2.8127
21051SOL    HW265161   2.205   4.234   6.062 -0.7387 -0.3557 -0.2006
21052SOL     OW65162   1.064   9.858   0.484  0.1303  0.3347 -0.7866
21052SOL    HW165163   0.986   9.807   0.463 -0.0220  0.7022 -1.1360
21052SOL    HW265164   1.031   9.936   0.529  0.3955 -0.0767  0.1357
21053SOL     OW65165   6.552   8.504   2.102  0.0129  0.1400 -0.7732
21053SOL    HW165166   6.587   8.556   2.030  2.1917 -2.0414 -1.3927
21053SOL    HW265167   6.617   8.514   2.172 -0.5351 -0.2112 -0.2084
21054SOL     OW65168   3.002   1.484   4.394  0.7917  0.4843  0.1847
21054SOL    HW165169   3.096   1.493   4.406  1.1133  0.7641 -2.1701
21054SOL    HW265170   2.985   1.518   4.307 -1.6425  1.2453  0.8764
21055SOL     OW65171   7.692   5.341   5.696  0.1274  0.6561 -0.1732
21055SOL    HW165172   7.680   5.254   5.734 -0.6761  0.5000 -0.7529
21055SOL    HW265173   7.633   5.342   5.620 -0.8038  2.1337  0.5211
21056SOL     OW65174   1.727   7.961   8.805 -0.0290 -0.1392 -0.0825
21056SOL    HW165175   1.774   7.878   8.805 -2.4707 -1.6521  1.6986
21056SOL    HW265176   1.690   7.968   8.893 -2.7796  1.0651 -1.2125
21057SOL     OW65177  10.461   3.470   3.628  0.5701 -0.3366 -0.5913
21057SOL    HW165178  10.529   3.532   3.655  0.6131 -0.6041 -0.0839
21057SOL    HW265179  10.510   3.399   3.585  0.7917 -1.2996  1.1442
21058SOL     OW65180   6.460  10.219   2.256 -0.0624 -0.5726 -0.7027
21058SOL    HW165181   6.386  10.230   2.316 -2.2103 -3.1229 -2.6891
21058SOL    HW265182   6.445  10.283   2.187 -0.1001 -0.7631 -0.8681
21059SOL     OW65183   3.973  10.580   5.972 -0.1261 -0.0855  0.6732
21059SOL    HW165184   4.064  10.586   5.944 -0.1920 -0.0907  0.4527
21059SOL    HW265185   3.930  10.654   5.929  0.1184  0.9520  2.1615
21060SOL     OW65186   8.860   8.439   3.883  0.3834 -0.1500  0.1003
21060SOL    HW165187   8.873   8.473   3.794  1.1589 -1.4378 -0.2939
21060SOL    HW265188   8.766   8.452   3.899  0.0972 -0.4943 -1.1620
21061SOL     OW65189   6.570   4.255   0.067 -0.2703 -0.6753  0.9080
21061SOL    HW165190   6.481   4.219   0.065  0.0042 -1.3606  0.7520
21061SOL    HW265191   6.585   4.288  -0.022  0.4254 -2.5730  0.2694
21062SOL     OW65192   4.921   7.810   3.358  0.5915  0.3857 -0.4248
21062SOL    HW165193   4.911   7.746   3.428  0.1299  0.4087 -0.4616
21062SOL    HW265194   4.966   7.884   3.399 -0.3965  0.7292  0.0708
21063SOL     OW65195   1.630   4.945   6.412 -0.0705 -0.0581  0.6290
21063SOL    HW165196   1.625   4.919   6.320 -1.1531 -0.3017  0.7460
21063SOL    HW265197   1.692   5.019   6.412  0.6374 -0.6292 -0.1504
21064SOL     OW65198   0.954   7.376   2.056  0.6939 -0.1038 -0.1714
21064SOL    HW165199   1.016   7.449   2.052 -0.8410  1.2559  0.0368
21064SOL    HW265200   0.980   7.327   2.134 -0.0394  1.9236  1.4089
21065SOL     OW65201   2.506   2.310   8.376  0.3612  0.1276  0.1011
21065SOL    HW165202   2.498   2.250   8.302  1.3708 -0.2348  0.2688
21065SOL    HW265203   2.470   2.262   8.451 -0.7250  0.5213 -0.1632
21066SOL     OW65204   4.032   5.953   5.334 -0.4993 -0.9087 -0.3467
21066SOL    HW165205   4.026   5.873   5.385 -2.2346 -0.3125  0.4635
21066SOL    HW265206   4.125   5.962   5.313 -0.1699 -2.6708  0.2571
21067SOL     OW65207   1.240   7.435   1.964  0.3365  0.6910 -0.2141
21067SOL    HW165208   1.195   7.362   1.921  4.2186 -1.4994 -1.0201
21067SOL    HW265209   1.255   7.403   2.054  0.0230  1.5336  0.1491
21068SOL     OW65210   4.838   4.042   2.525  0.4458 -0.6919  0.5929
21068SOL    HW165211   4.803   4.030   2.437 -0.5848 -0.0744  0.9082
21068SOL    HW265212   4.852   3.953   2.558  2.3425 -0.9581 -0.7492
21069SOL     OW65213   1.342   9.068   3.967 -0.3638  0.0995  0.3493
21069SOL    HW165214   1.438   9.071   3.961 -0.3300 -1.2194 -0.1449
21069SOL    HW265215   1.325   9.051   4.060 -0.1649  1.2156  0.6033
21070SOL     OW65216   4.988   2.768   1.358 -0.2270  0.6845  0.6351
21070SOL    HW165217   4.901   2.747   1.326  0.0340 -3.0556  1.9259
21070SOL    HW265218   5.032   2.807   1.282 -2.0633 -0.2399 -1.0027
21071SOL     OW65219   5.788   8.063   8.409  0.2648  0.1389 -0.4827
21071SOL    HW165220   5.724   8.122   8.369  0.9652  0.4671 -1.1435
21071SOL    HW265221   5.764   8.061   8.502 -1.9154 -1.2964 -1.0075
21072SOL     OW65222   3.154   1.127   7.174 -0.6583 -0.0332 -0.1951
21072SOL    HW165223   3.182   1.214   7.203 -0.6088  0.2955 -1.1909
21072SOL    HW265224   3.093   1.098   7.242 -0.9341  0.9264 -0.0153
21073SOL     OW65225   1.570   5.664   2.026 -0.0855  0.0533  0.3433
21073SOL    HW165226   1.626   5.634   1.955 -0.0012 -0.3178  0.5675
21073SOL    HW265227   1.578   5.597   2.094  0.7734  0.9843  1.1997
21074SOL     OW65228   9.118   2.173   0.679 -0.2937 -0.3882  0.2170
21074SOL    HW165229   9.174   2.100   0.652 -0.8391 -0.1505 -1.7282
21074SOL    HW265230   9.119   2.170   0.774  1.5759 -1.4877  0.2208
21075SOL     OW65231   5.658   7.420   4.750 -0.4889  0.4052 -0.3004
21075SOL    HW165232   5.623   7.505   4.725 -0.5552  0.9284  1.3997
21075SOL    HW265233   5.591   7.383   4.807 -0.4214 -0.7605 -0.9620
21076SOL     OW65234   4.650   0.767   2.705 -0.0839 -0.3683  0.7271
21076SOL    HW165235   4.730   0.783   2.754  0.3399 -1.6295  0.4814
21076SOL    HW265236   4.671   0.693   2.647 -0.6810  0.8172 -1.0915
21077SOL     OW65237   0.139   6.550   8.791 -0.0137 -0.2261 -0.2372
21077SOL    HW165238   0.206   6.540   8.859 -1.2279 -2.0718  0.7308
21077SOL    HW265239   0.177   6.507   8.714  0.7789  0.6516 -0.3676
21078SOL     OW65240   8.674   7.080   3.564  0.3901  0.2448  0.7551
21078SOL    HW165241   8.583   7.088   3.592  0.1209 -2.7808  1.0748
21078SOL    HW265242   8.699   6.991   3.588  3.0869  0.5855 -0.3930
21079SOL     OW65243   8.179   9.021   3.249  0.0061 -0.2176 -0.5820
21079SOL    HW165244   8.244   9.065   3.193  0.4423  1.5233  1.1356
21079SOL    HW265245   8.111   8.991   3.189  0.6158  1.2239 -2.0850
21080SOL     OW65246   3.678   9.740  10.605  0.0041 -0.1142  0.2655
21080SOL    HW165247   3.740   9.730  10.533  2.6133  0.3931  2.2935
21080SOL    HW265248   3.700   9.670  10.666 -0.4493  0.9425  1.6907
21081SOL     OW65249   4.914   5.082   6.706  0.7073  0.4256  0.0458
21081SOL    HW165250   4.865   5.007   6.739  0.5507 -0.7278 -2.5515
21081SOL    HW265251   5.005   5.055   6.709  0.5759 -0.4579 -2.0100
21082SOL     OW65252   5.864   6.681   3.914 -0.1234 -0.4879  0.3230
21082SOL    HW165253   5.895   6.713   3.999 -0.7971  0.8776  0.0873
21082SOL    HW265254   5.920   6.606   3.894  1.1386  0.1966  1.1980
21083SOL     OW65255   3.206   6.696   2.307  0.3291  0.4362  0.8186
21083SOL    HW165256   3.125   6.648   2.324 -0.0236  0.6280 -0.2527
21083SOL    HW265257   3.275   6.643   2.348 -0.0517 -0.9701 -0.3138
21084SOL     OW65258   5.486  10.607   3.899  0.3789  0.4847  0.5576
21084SOL    HW165259   5.510  10.514   3.898  0.4825  0.5140  0.0774
21084SOL    HW265260   5.391  10.608   3.912  0.2480  0.2823 -0.3315
21085SOL     OW65261   2.073  11.073   3.404 -0.2920 -0.2560  0.1179
21085SOL    HW165262   2.147  11.052   3.461  0.4907  0.7483 -0.5004
21085SOL    HW265263   2.112  11.087   3.318 -1.4096 -1.3307 -0.5910
21086SOL     OW65264   7.953   1.623   6.787 -0.6290  0.5739 -0.1715
21086SOL    HW165265   7.925   1.679   6.860  1.2913  1.2447  0.1032
21086SOL    HW265266   7.973   1.539   6.827  1.0029  1.1155  0.2315
21087SOL     OW65267   5.458   0.310   7.747  0.3213 -0.1763  0.0787
21087SOL    HW165268   5.478   0.239   7.808  1.3582 -0.3053 -0.3768
21087SOL    HW265269   5.537   0.363   7.747 -0.7472  1.4849  1.0615
21088SOL     OW65270   0.041   1.633   0.127 -0.6137 -0.9925 -0.3995
21088SOL    HW165271   0.047   1.589   0.042  1.5781  0.3346 -1.0097
21088SOL    HW265272   0.091   1.577   0.186  0.6008 -0.3341 -0.7607
21089SOL     OW65273   1.961   4.425   4.959 -0.1280 -0.5187  0.9255
21089SOL    HW165274   1.979   4.495   4.897  1.9354 -1.4416  0.4134
21089SOL    HW265275   1.875   4.448   4.996 -0.6370  0.9420 -0.9922
21090SOL     OW65276   8.401   8.793   2.414  0.4995 -0.2503  0.0343
21090SOL    HW165277   8.315   8.816   2.379  0.3958 -0.3267  0.2376
21090SOL    HW265278   8.382   8.736   2.488  0.7504 -1.0101 -0.4710
21091SOL     OW65279  10.097   5.026   4.426  0.4885  0.5100  0.0253
21091SOL    HW165280  10.116   4.966   4.354  1.7102  0.5287  0.3186
21091SOL    HW265281  10.132   4.983   4.504  0.6734  1.2385  0.3535
21092SOL     OW65282   7.320   8.570   3.609 -0.1939 -0.4270  0.6140
21092SOL    HW165283   7.261   8.562   3.535 -0.3310 -0.5894  0.7431
21092SOL    HW265284   7.394   8.513   3.587 -0.3146 -0.6100  0.6824
21093SOL     OW65285   8.158  10.735   3.392 -0.2205  0.0892 -0.1999
21093SOL    HW165286   8.141  10.681   3.469 -0.3327 -0.9497 -0.9311
21093SOL    HW265287   8.253  10.730   3.380 -0.4155 -1.6382 -1.4235
21094SOL     OW65288   7.728   5.950   2.037  0.1252 -0.2708 -0.5363
21094SOL    HW165289   7.646   5.970   2.080 -0.2235 -0.8842 -0.8960
21094SOL    HW265290   7.713   5.970   1.944  0.2597 -0.7069 -0.6590
21095SOL     OW65291   0.659   5.977   9.009 -0.0611 -0.3629  0.3011
21095SOL    HW165292   0.638   6.005   8.920  0.4650 -0.8878  0.0047
21095SOL    HW265293   0.753   5.995   9.018 -0.2609  0.3730  1.0129
21096SOL     OW65294   6.331   2.400   5.405  0.2269 -0.5754  0.0566
21096SOL    HW165295   6.283   2.458   5.463  2.0265  0.0821  0.9836
21096SOL    HW265296   6.329   2.315   5.448  0.0490 -0.5031  0.1904
21097SOL     OW65297   1.524  10.026  10.844 -0.0109  0.0602 -0.0222
21097SOL    HW165298   1.555  10.021  10.935  2.7258 -1.0644 -0.8866
21097SOL    HW265299   1.523  10.120  10.824 -1.2214  0.3571  1.3095
21098SOL     OW65300   3.449   1.171   4.373 -0.0914  0.3586 -0.3392
21098SOL    HW165301   3.528   1.217   4.401 -0.1363  0.4071 -0.2930
21098SOL    HW265302   3.402   1.152   4.454  1.3844 -2.4589 -0.0270
21099SOL     OW65303   4.024   9.277   0.092 -0.1682 -0.1819  0.4865
21099SOL    HW165304   3.931   9.289   0.112  0.0560  2.4257  0.2278
21099SOL    HW265305   4.037   9.327   0.011  1.6877  0.4047  1.1172
21100SOL     OW65306   3.770   4.005   1.002 -0.5424  0.1091  0.2002
21100SOL    HW165307   3.842   4.057   1.038 -0.1414  0.6007 -1.2583
21100SOL    HW265308   3.768   4.028   0.909 -2.0263 -0.5594  0.0434
21101SOL     OW65309   6.845   7.172   7.561 -0.0705  0.0474  0.2146
21101SOL    HW165310   6.799   7.088   7.563 -1.1130  0.6167  1.6513
21101SOL    HW265311   6.780   7.236   7.588  1.3102  1.0042  1.4550
21102SOL     OW65312   7.703   0.537  10.362 -0.5562 -0.1208 -0.6888
21102SOL    HW165313   7.728   0.449  10.335  1.3909  0.3303 -0.5501
21102SOL    HW265314   7.652   0.571  10.288  2.0274 -0.0196 -2.6072
21103SOL     OW65315   3.240   2.724   1.829  0.0358  0.3680 -0.4234
21103SOL    HW165316   3.250   2.756   1.919 -0.1621  0.4671 -0.4351
21103SOL    HW265317   3.326   2.735   1.790  0.1270  0.3087 -0.2396
21104SOL     OW65318   9.431   8.673   4.313 -0.0821 -0.6758 -0.4551
21104SOL    HW165319   9.512   8.622   4.308  0.2756 -0.0218 -1.7259
21104SOL    HW265320   9.438   8.737   4.242 -2.3003 -1.4487 -1.4900
21105SOL     OW65321   7.582  10.698   1.232  0.0657  0.1571 -0.0024
21105SOL    HW165322   7.563  10.611   1.198 -1.7365  1.8807 -4.0497
21105SOL    HW265323   7.499  10.727   1.270 -0.7667  1.5371 -2.6013
21106SOL     OW65324   4.661   8.467   7.243  0.0989 -0.7035 -0.4159
21106SOL    HW165325   4.575   8.482   7.282 -0.1654 -0.2300 -1.1468
21106SOL    HW265326   4.658   8.515   7.160  1.2144 -0.3426 -0.2590
21107SOL     OW65327   9.203   2.282   4.885 -0.0189  0.7567 -0.1261
21107SOL    HW165328   9.251   2.199   4.885  0.2715  0.8758 -2.2204
21107SOL    HW265329   9.115   2.259   4.913  1.1996  0.6177  4.3951
21108SOL     OW65330   4.372   6.599   9.350 -0.3213 -0.0864 -0.2286
21108SOL    HW165331   4.416   6.684   9.358  0.1095 -0.1185 -1.9220
21108SOL    HW265332   4.422   6.541   9.408 -1.0054  0.9159  1.4446
21109SOL     OW65333   6.724   0.638   0.598 -0.1534 -0.7344 -0.4328
21109SOL    HW165334   6.819   0.643   0.609 -0.2322 -1.2701  0.5433
21109SOL    HW265335   6.696   0.570   0.659 -1.4220  0.8713  0.8602
21110SOL     OW65336   1.684  10.468   2.291  0.4974  0.4466 -0.2935
21110SOL    HW165337   1.617  10.403   2.312  1.1142 -0.4984 -1.1337
21110SOL    HW265338   1.743  10.466   2.366  0.8804 -0.4826 -0.6043
21111SOL     OW65339   8.417   0.611   5.680 -0.5744 -0.3136 -0.3668
21111SOL    HW165340   8.491   0.615   5.740 -0.9580  2.8041  0.1141
21111SOL    HW265341   8.455   0.603   5.593  0.3024  0.3705 -0.0563
21112SOL     OW65342   3.503   0.699   2.341 -0.2099  0.4471 -0.2100
21112SOL    HW165343   3.579   0.748   2.372  0.8455 -0.9646 -0.4587
21112SOL    HW265344   3.474   0.747   2.263  0.9527  0.5507 -0.6003
21113SOL     OW65345   7.055   0.095   3.209 -0.6711 -0.1542 -0.2812
21113SOL    HW165346   7.077   0.002   3.215  1.5930  0.3930  0.7419
21113SOL    HW265347   7.004   0.112   3.288 -0.1344 -0.3024  0.1020
21114SOL     OW65348   0.900   2.651   2.022 -0.2394  0.0488 -0.0374
21114SOL    HW165349   0.935   2.687   2.104 -1.1617 -1.8723  1.2838
21114SOL    HW265350   0.876   2.728   1.970  1.8438  1.3456  0.7993
21115SOL     OW65351   5.801   6.268   2.852  0.0456 -0.3834  0.5833
21115SOL    HW165352   5.755   6.200   2.803 -1.5393  0.1230  1.2978
21115SOL    HW265353   5.811   6.340   2.790 -2.1934  0.3583  0.9910
21116SOL     OW65354  10.106   0.610   6.919 -0.2087  0.3840  0.3117
21116SOL    HW165355  10.017   0.644   6.929  0.0468  1.3144 -0.4341
21116SOL    HW265356  10.140   0.606   7.009 -0.8069  0.5424  0.5507
21117SOL     OW65357  10.855   9.919   3.476 -0.1655  0.4466  0.1773
21117SOL    HW165358  10.878   9.974   3.401  1.1946  0.4632  0.5753
21117SOL    HW265359  10.926   9.855   3.482  0.6855  1.4820  2.4356
21118SOL     OW65360   3.207   7.600   9.194  0.3508 -0.5386 -0.2490
21118SOL    HW165361   3.135   7.542   9.219  0.2328 -1.2865 -2.1597
21118SOL    HW265362   3.166   7.686   9.186 -0.2114 -0.8416 -0.7006
21119SOL     OW65363  10.793   8.356   3.451  0.2055  0.2397  0.5766
21119SOL    HW165364  10.809   8.298   3.525  0.2430 -0.7576 -0.2047
21119SOL    HW265365  10.880   8.375   3.415  0.2042  0.8846  0.8893
21120SOL     OW65366   4.987   6.995   3.404 -0.1741 -0.7332  0.2912
21120SOL    HW165367   5.062   6.991   3.464 -2.2362 -0.2461  3.1456
21120SOL    HW265368   4.954   6.905   3.401 -1.6313 -0.3212  2.1763
21121SOL     OW65369   1.932   3.838   4.499  0.0023  0.0941 -0.2620
21121SOL    HW165370   1.920   3.750   4.463 -0.9599  0.1383 -0.0604
21121SOL    HW265371   2.027   3.846   4.510  0.1031 -0.9130 -0.2896
21122SOL     OW65372   0.609   0.745   3.676  0.3461  0.5044  0.4979
21122SOL    HW165373   0.691   0.768   3.634  0.0051  2.6472  0.9179
21122SOL    HW265374   0.631   0.672   3.734  1.2875 -0.9499 -1.5774
21123SOL     OW65375   6.116   9.346   3.242  0.1506 -0.1097  0.5129
21123SOL    HW165376   6.120   9.423   3.187 -0.5493 -0.4700 -0.0584
21123SOL    HW265377   6.040   9.296   3.209  0.5788 -1.0270  0.8678
21124SOL     OW65378  10.968   2.958   1.844  0.2710  0.0604 -0.8165
21124SOL    HW165379  10.887   2.952   1.794 -0.0466  0.1282 -0.3193
21124SOL    HW265380  10.958   3.037   1.896 -0.4787 -1.2730  1.2003
21125SOL     OW65381   7.563   1.578   0.261 -0.6585  0.1289 -0.3519
21125SOL    HW165382   7.568   1.494   0.215 -0.0178  0.4191 -0.8282
21125SOL    HW265383   7.479   1.615   0.234 -0.7919 -0.2084 -0.4064
21126SOL     OW65384  10.383  10.567   5.601 -0.1754  0.5909 -0.2279
21126SOL    HW165385  10.305  10.603   5.559 -0.9930 -0.7625  0.0532
21126SOL    HW265386  10.457  10.604   5.553 -1.0440  0.6624 -1.5305
21127SOL     OW65387   0.577   9.934   3.946  0.4416 -0.2609 -0.0504
21127SOL    HW165388   0.507   9.881   3.908  0.3786 -1.4649  1.6748
21127SOL    HW265389   0.578  10.013   3.892 -2.4960 -0.0191  0.0821
21128SOL     OW65390   2.796   9.880   7.211  0.8078 -0.5680 -0.2160
21128SOL    HW165391   2.824   9.932   7.135  1.0426  0.3654  0.4872
21128SOL    HW265392   2.878   9.857   7.255  0.6048  2.1007  1.8077
21129SOL     OW65393   3.637   3.010   7.206 -0.1845  0.0098 -0.2182
21129SOL    HW165394   3.682   3.029   7.124  0.6753 -0.2633  0.1713
21129SOL    HW265395   3.659   2.919   7.225 -0.9230 -0.1368 -0.0177
21130SOL     OW65396   3.146   1.515   8.330  0.0685  0.1316 -0.2041
21130SOL    HW165397   3.165   1.448   8.264 -0.5208 -1.0879  0.8078
21130SOL    HW265398   3.051   1.527   8.325 -0.0394 -0.2773  0.6739
21131SOL     OW65399   5.865   8.880   9.619  0.0814 -0.0320 -0.5003
21131SOL    HW165400   5.812   8.959   9.627  0.3482 -0.0548  3.3527
21131SOL    HW265401   5.948   8.911   9.584 -0.8362  0.8024 -2.0438
21132SOL     OW65402   5.397   6.597   9.702 -0.7764 -0.1258  0.7821
21132SOL    HW165403   5.414   6.528   9.765  0.4421 -0.0203  0.5932
21132SOL    HW265404   5.484   6.631   9.680 -1.2623  0.5353 -0.1634
21133SOL     OW65405   6.957   0.925  10.693 -0.0440 -0.0115  0.1668
21133SOL    HW165406   6.959   0.914  10.598 -0.1624  0.9930  0.0314
21133SOL    HW265407   7.043   0.897  10.723 -0.6046 -2.0749 -0.0044
21134SOL     OW65408   7.206  11.094   6.322  0.1743 -0.3783  0.2983
21134SOL    HW165409   7.266  11.066   6.253  0.6315 -0.6439  0.7924
21134SOL    HW265410   7.263  11.111   6.397 -0.4138 -1.0346  0.9015
21135SOL     OW65411   9.673   2.750   6.180 -0.0339 -0.0956  0.4908
21135SOL    HW165412   9.695   2.778   6.091 -1.2823 -1.6144 -0.3544
21135SOL    HW265413   9.580   2.768   6.189  0.1577  0.3868  1.6470
21136SOL     OW65414   1.743   3.951   6.455  0.0775  0.1170  0.4253
21136SOL    HW165415   1.652   3.922   6.463  0.4159 -1.0550  0.2213
21136SOL    HW265416   1.770   3.921   6.369  0.5176  0.9023  0.2841
21137SOL     OW65417  10.112   8.782   7.499  0.3200 -0.1062 -0.4617
21137SOL    HW165418  10.186   8.789   7.437  0.2919  0.4194 -0.4409
21137SOL    HW265419  10.036   8.812   7.449  0.4698  1.3535  0.1255
21138SOL     OW65420   6.124   1.549   2.104  0.7637  0.8051  0.5379
21138SOL    HW165421   6.072   1.552   2.184  0.9395  1.7216  0.6347
21138SOL    HW265422   6.191   1.483   2.121 -0.9704 -1.1518  0.0134
21139SOL     OW65423   5.810   6.053   0.102 -0.4951  0.3934  0.6747
21139SOL    HW165424   5.739   6.103   0.062  0.4047  1.2341  0.0818
21139SOL    HW265425   5.807   6.077   0.195 -1.5626 -0.3025  0.8370
21140SOL     OW65426   3.870   2.135   4.377 -0.3334 -0.0156 -0.1326
21140SOL    HW165427   3.889   2.189   4.453  0.1864  0.4723 -0.5950
21140SOL    HW265428   3.920   2.176   4.306 -0.7903 -0.4744 -0.7264
21141SOL     OW65429   1.225   6.752   7.577  0.0914  0.4824  0.0609
21141SOL    HW165430   1.289   6.731   7.645  0.5457  1.6859  0.0199
21141SOL    HW265431   1.260   6.710   7.498 -0.5873 -1.1746  0.5909
21142SOL     OW65432  10.594   0.122   0.670  0.5093  0.2648  0.2635
21142SOL    HW165433  10.503   0.136   0.694  0.9794  1.0633  1.7476
21142SOL    HW265434  10.610   0.030   0.692  0.2867  0.3588  0.8530
21143SOL     OW65435   9.262   9.612   5.483  0.2278 -0.4603  0.0528
21143SOL    HW165436   9.293   9.630   5.572  2.0600 -1.6742 -0.2755
21143SOL    HW265437   9.330   9.649   5.426  0.0699 -1.3942 -0.7716
21144SOL     OW65438   1.771  10.973   8.755 -0.1612  0.0466  0.2464
21144SOL    HW165439   1.686  10.945   8.722  0.2702 -0.7983 -0.1933
21144SOL    HW265440   1.833  10.910   8.719  0.8173  1.3504 -0.4775
21145SOL     OW65441   2.311   7.327   3.908  0.0026 -0.1320 -0.3443
21145SOL    HW165442   2.227   7.373   3.900 -0.0035 -0.0304  0.2647
21145SOL    HW265443   2.308   7.286   3.995  0.8266  0.3487 -0.0794
21146SOL     OW65444   6.392   4.536   2.932  0.5368  0.4506 -0.1444
21146SOL    HW165445   6.448   4.604   2.970 -0.8728  0.7352  1.5615
21146SOL    HW265446   6.443   4.455   2.940  0.6593  0.6606  1.5922
21147SOL     OW65447   9.494   0.754   3.868  0.1676 -0.4723  0.0229
21147SOL    HW165448   9.406   0.784   3.893  0.0928 -0.0190 -0.7516
21147SOL    HW265449   9.516   0.806   3.790  1.5265  0.1194  0.7684
21148SOL     OW65450   6.230   9.220   7.136  0.4269 -0.3477  0.2493
21148SOL    HW165451   6.237   9.159   7.063  0.0555 -0.8225  0.6095
21148SOL    HW265452   6.291   9.186   7.202  3.1328  1.7632 -0.9842
21149SOL     OW65453   3.092   0.980   4.936 -0.2217 -0.4490  0.4729
21149SOL    HW165454   3.133   0.897   4.911  0.7068 -0.0564  0.6595
21149SOL    HW265455   3.035   0.957   5.009 -2.2391 -1.4452 -1.2796
21150SOL     OW65456   3.302  10.248   5.550 -0.8920  0.0357 -0.0387
21150SOL    HW165457   3.240  10.317   5.572 -2.1545 -0.6061 -1.4474
21150SOL    HW265458   3.329  10.267   5.460  0.8007  0.1530  0.4452
21151SOL     OW65459   4.941  10.412   6.199  0.3998  0.6054 -0.4137
21151SOL    HW165460   4.949  10.508   6.197  1.2979  0.7159  2.6481
21151SOL    HW265461   4.859  10.396   6.245  0.0061 -0.1567 -1.3427
21152SOL     OW65462   8.706   1.910   5.015 -0.2142  0.3857 -0.3331
21152SOL    HW165463   8.784   1.884   5.064  0.0159 -1.1193 -1.4271
21152SOL    HW265464   8.653   1.830   5.011 -1.1509  1.0188 -0.8295
21153SOL     OW65465   0.858   1.313   1.899 -0.2596 -0.1898 -0.1997
21153SOL    HW165466   0.926   1.324   1.833 -0.2468  2.2825  0.1361
21153SOL    HW265467   0.807   1.394   1.896  0.0488  0.2779  3.1026
21154SOL     OW65468   1.362   2.241   9.375  0.2801  0.0195 -0.5829
21154SOL    HW165469   1.370   2.256   9.469 -0.4201  0.3706 -0.5746
21154SOL    HW265470   1.360   2.145   9.365  0.6640 -0.0218 -0.2748
21155SOL     OW65471  10.962   9.110   5.844 -0.3119  0.2649  0.3731
21155SOL    HW165472  10.925   9.182   5.895  0.1220  0.1462  0.8679
21155SOL    HW265473  11.024   9.152   5.785  1.2378  0.1742  1.8420
21156SOL     OW65474   4.410   3.708   6.378  0.3665  0.1732  0.7278
21156SOL    HW165475   4.458   3.790   6.369 -0.2673  0.6069  1.1684
21156SOL    HW265476   4.452   3.648   6.317 -0.2164  1.3288 -0.8827
21157SOL     OW65477   6.508   7.883   4.856 -0.0503  0.2447  0.5531
21157SOL    HW165478   6.537   7.827   4.784 -1.5535  0.6754 -0.4364
21157SOL    HW265479   6.472   7.961   4.813 -3.1791 -0.4810  1.5549
21158SOL     OW65480  10.640   5.473   5.760 -0.0993 -0.4082 -0.1453
21158SOL    HW165481  10.593   5.391   5.774  1.1413 -0.8074  2.1172
21158SOL    HW265482  10.730   5.447   5.744  0.8938  0.4329  3.1778
21159SOL     OW65483   5.036   0.501   2.202  0.6089  0.2289  0.0423
21159SOL    HW165484   5.089   0.425   2.178  0.8999  0.1379  0.9467
21159SOL    HW265485   5.070   0.572   2.147  1.6844  0.1741  0.6206
21160SOL     OW65486   3.398   5.469   4.682 -0.3155 -0.0800 -0.4904
21160SOL    HW165487   3.360   5.430   4.603  1.0864  0.2345 -1.3603
21160SOL    HW265488   3.343   5.437   4.754 -2.6559  0.9664 -1.7122
21161SOL     OW65489   0.930   4.704   4.635 -0.4213 -0.2383  0.4138
21161SOL    HW165490   0.946   4.784   4.685  1.5626  0.4940 -1.2507
21161SOL    HW265491   1.008   4.651   4.650 -0.1069 -0.3029 -1.2683
21162SOL     OW65492   5.605   7.022   8.633  0.4153  0.3557 -0.0923
21162SOL    HW165493   5.695   7.053   8.621 -0.0052  1.3888 -0.6657
21162SOL    HW265494   5.574   7.003   8.544 -0.5559  1.8167 -0.0891
21163SOL     OW65495   1.938  11.043   0.941  0.0544  0.4765 -0.5529
21163SOL    HW165496   2.033  11.045   0.928  0.2191  1.3805  0.5984
21163SOL    HW265497   1.914  11.134   0.957 -0.5833 -0.0335  1.7658
21164SOL     OW65498   5.610   8.499   0.545  0.1377  0.0815 -0.3017
21164SOL    HW165499   5.676   8.521   0.480  1.0028 -1.9984 -0.2074
21164SOL    HW265500   5.532   8.548   0.519  1.2172  1.2454 -1.4047
21165SOL     OW65501   7.879   2.138   4.050 -0.1912  0.3516 -0.5726
21165SOL    HW165502   7.899   2.173   3.963  0.3652  0.6784 -0.3184
21165SOL    HW265503   7.951   2.077   4.068  0.0689  0.8075 -0.0546
21166SOL     OW65504   7.891   4.556   8.442 -0.2690 -0.5547 -0.4714
21166SOL    HW165505   7.817   4.617   8.442  0.3302  0.1890  0.6707
21166SOL    HW265506   7.881   4.506   8.523  2.3942  2.0194  1.6905
21167SOL     OW65507   2.643   9.174   9.857 -0.3094 -0.2408 -0.4426
21167SOL    HW165508   2.736   9.169   9.881 -0.3396  0.6063 -0.1341
21167SOL    HW265509   2.622   9.085   9.828  0.2225 -0.8359  0.8780
21168SOL     OW65510   5.203   9.152   5.931  0.0465 -0.0001  0.3697
21168SOL    HW165511   5.225   9.244   5.950 -1.2648  1.0893 -2.7231
21168SOL    HW265512   5.162   9.120   6.011  2.9513  1.1731  2.5101
21169SOL     OW65513   3.725   8.915   6.081 -0.1830 -0.5793  0.1086
21169SOL    HW165514   3.662   8.846   6.060 -1.2113  0.4691 -0.3503
21169SOL    HW265515   3.725   8.919   6.176  2.0034 -3.0840  0.3227
21170SOL     OW65516   6.802   7.816  10.993  0.3112 -0.7250 -0.4287
21170SOL    HW165517   6.777   7.900  10.956  0.0043 -0.2271  0.8757
21170SOL    HW265518   6.841   7.768  10.919 -1.0325 -0.0966 -1.6000
21171SOL     OW65519   3.810   2.687   6.132 -0.0690 -0.6846 -0.5432
21171SOL    HW165520   3.834   2.764   6.185  0.3147 -1.2368  0.1070
21171SOL    HW265521   3.806   2.720   6.042 -0.1277  0.1443 -0.2452
21172SOL     OW65522   7.313   0.933   8.256  0.0675 -0.1120  0.2522
21172SOL    HW165523   7.236   0.942   8.311  0.5161 -2.0116  1.2710
21172SOL    HW265524   7.282   0.891   8.176  0.1155 -1.4914  0.9340
21173SOL     OW65525   1.932   6.354  10.203 -1.1416 -0.5412  0.2982
21173SOL    HW165526   1.850   6.326  10.245 -0.7742  0.4166  1.6828
21173SOL    HW265527   1.913   6.442  10.170 -0.7187 -0.3916  0.4591
21174SOL     OW65528   7.188  10.363   0.554  0.4840 -0.2747 -0.0030
21174SOL    HW165529   7.205  10.443   0.604  3.0322 -1.0331  0.4334
21174SOL    HW265530   7.177  10.295   0.620  0.9555 -0.7503 -0.4077
21175SOL     OW65531   3.693   8.340   3.916 -0.1380  0.4204  0.1590
21175SOL    HW165532   3.714   8.433   3.902 -0.0705  0.5567  1.0690
21175SOL    HW265533   3.639   8.340   3.995  2.2879 -0.5629  1.9436
21176SOL     OW65534  10.235   4.976   2.095 -0.2577 -0.2469  0.3283
21176SOL    HW165535  10.201   4.888   2.076  0.4920 -0.2923 -0.9291
21176SOL    HW265536  10.330   4.966   2.086 -0.2106  0.8426 -0.5364
21177SOL     OW65537   2.752   8.312   5.094 -0.4855 -0.2036 -0.4970
21177SOL    HW165538   2.718   8.270   5.173  1.1034  1.1207  0.9626
21177SOL    HW265539   2.745   8.406   5.112  0.7781  0.1101 -1.5326
21178SOL     OW65540   6.609   2.642   5.061  0.3942 -0.4746  0.7823
21178SOL    HW165541   6.604   2.702   5.136 -0.5641  1.5463 -0.7876
21178SOL    HW265542   6.518   2.630   5.034  0.7638 -0.6049 -0.4666
21179SOL     OW65543   2.948   2.639   0.561 -0.0745 -0.1044 -0.0921
21179SOL    HW165544   2.932   2.732   0.544  0.4191 -0.0738 -0.4084
21179SOL    HW265545   2.944   2.631   0.657  0.2758  0.3159 -0.0404
21180SOL     OW65546   5.126   6.786   8.033 -0.0861 -0.1848  0.3175
21180SOL    HW165547   5.033   6.769   8.050 -0.1887  1.3548  1.5913
21180SOL    HW265548   5.126   6.845   7.958 -0.1304 -0.3144  0.2153
21181SOL     OW65549   9.786   6.648   5.282 -0.4546 -0.0234 -0.9533
21181SOL    HW165550   9.699   6.631   5.247  0.1434 -0.4887 -2.2598
21181SOL    HW265551   9.812   6.564   5.320 -0.3359 -0.0513 -1.0973
21182SOL     OW65552  10.623   1.563   5.350  0.0958 -0.0929  0.2890
21182SOL    HW165553  10.637   1.587   5.441  1.3599  2.0931 -0.4024
21182SOL    HW265554  10.541   1.606   5.326 -0.2428 -0.6765  0.3661
21183SOL     OW65555   7.997   8.607   0.197  0.8756 -0.2111 -0.5105
21183SOL    HW165556   8.003   8.517   0.164  2.1685  0.2647 -1.6315
21183SOL    HW265557   8.049   8.659   0.136 -0.6704  1.4786 -0.4435
21184SOL     OW65558   0.853   2.738   6.106  0.1736  0.3527 -0.0781
21184SOL    HW165559   0.893   2.700   6.028  0.8565 -0.3816  0.6125
21184SOL    HW265560   0.760   2.744   6.084  0.2483 -0.5005 -0.7016
21185SOL     OW65561   3.037   1.328   4.996 -0.1331 -0.0557 -0.2538
21185SOL    HW165562   2.977   1.290   4.931  0.9713  0.4369 -1.6117
21185SOL    HW265563   3.023   1.422   4.989  0.7338  0.0552 -0.5257
21186SOL     OW65564   1.439   0.931   4.844  0.6446 -0.4493 -0.0348
21186SOL    HW165565   1.511   0.993   4.830  1.4306 -1.7350 -2.1575
21186SOL    HW265566   1.380   0.976   4.905  1.1904  2.3605 -1.4339
21187SOL     OW65567   6.318   0.826   8.506 -0.0087  0.0609  0.1960
21187SOL    HW165568   6.411   0.845   8.495 -0.3150  1.2256 -0.5510
21187SOL    HW265569   6.302   0.843   8.599 -0.1824  3.4375 -0.3131
21188SOL     OW65570   2.764   0.737   2.481 -0.5885 -0.3729  0.4055
21188SOL    HW165571   2.786   0.662   2.536  0.4615 -1.9632 -1.9937
21188SOL    HW265572   2.849   0.769   2.448 -1.0258  1.7646  1.1534
21189SOL     OW65573   9.469  10.602   5.605  0.0781 -0.0802 -0.4151
21189SOL    HW165574   9.555  10.574   5.636  1.1753  3.2361 -0.0545
21189SOL    HW265575   9.448  10.680   5.656 -2.0265  0.6312 -2.1588
21190SOL     OW65576   9.422   1.304   4.729  0.2806 -0.0614  0.0863
21190SOL    HW165577   9.493   1.246   4.755  0.4072 -1.1977 -2.4839
21190SOL    HW265578   9.342   1.253   4.742  0.2623 -0.2281 -0.6352
21191SOL     OW65579   8.439   3.990   7.134  0.6198 -0.6590  0.4295
21191SOL    HW165580   8.419   4.068   7.083 -0.4334 -0.1858  1.5068
21191SOL    HW265581   8.479   4.023   7.214  0.1180 -1.2173  0.9181
21192SOL     OW65582  10.826  10.597   7.086 -0.0639  0.5164 -0.3240
21192SOL    HW165583  10.822  10.670   7.024  0.4519  0.9845  0.1940
21192SOL    HW265584  10.871  10.632   7.162 -1.5080  0.2280  0.7133
21193SOL     OW65585   3.101   6.796   4.123 -0.2180 -0.0492  0.4170
21193SOL    HW165586   3.193   6.771   4.130 -0.1561  0.1757  0.3766
21193SOL    HW265587   3.096   6.883   4.161  0.0239  1.0052 -1.8434
21194SOL     OW65588   6.437   6.824   2.774  0.2109 -0.4493 -0.7629
21194SOL    HW165589   6.501   6.805   2.842  0.2987 -0.6032 -0.8893
21194SOL    HW265590   6.352   6.818   2.819  0.3197  0.6940 -0.3735
21195SOL     OW65591   0.472   1.435   2.334 -0.1934  0.0191 -0.3261
21195SOL    HW165592   0.384   1.472   2.342 -0.5050 -0.6149 -0.7786
21195SOL    HW265593   0.459   1.352   2.289  0.4091 -0.9773  1.2460
21196SOL     OW65594  10.175   0.911   4.366 -0.1932  0.2214 -0.2075
21196SOL    HW165595  10.183   0.992   4.416  0.8655  0.7672 -1.2107
21196SOL    HW265596  10.088   0.917   4.325 -0.5792  0.3197  0.6099
21197SOL     OW65597   0.079   1.341  10.427  0.1259 -0.2476  0.5304
21197SOL    HW165598   0.129   1.330  10.508  0.0956  0.0977  0.5972
21197SOL    HW265599   0.138   1.311  10.358  0.6129  0.6196  0.5601
21198SOL     OW65600   9.932   0.084   2.968 -0.1074 -0.4549 -0.1760
21198SOL    HW165601  10.001   0.057   3.028  0.9317  1.9670 -0.1657
21198SOL    HW265602   9.861   0.021   2.983  0.6255 -0.7441  2.6005
21199SOL     OW65603   7.387   8.964   2.768  0.2134 -0.3883  0.1654
21199SOL    HW165604   7.387   8.945   2.861  0.0262  0.5475  0.3664
21199SOL    HW265605   7.367   9.058   2.762 -2.7960 -0.9637 -0.9220
21200SOL     OW65606   7.987   9.602   3.020 -0.2178  0.0841  0.1526
21200SOL    HW165607   8.040   9.588   3.099  1.1834  1.2360 -0.5247
21200SOL    HW265608   7.993   9.519   2.972  0.0705 -0.1636  0.6070
21201SOL     OW65609   5.396   2.150   9.332  0.0740 -0.1795 -0.7871
21201SOL    HW165610   5.367   2.224   9.279  3.5943  0.4939 -2.0026
21201SOL    HW265611   5.327   2.141   9.399 -1.0046  3.5439 -1.1454
21202SOL     OW65612   7.932   9.536   5.761  0.3133 -0.5076 -0.7104
21202SOL    HW165613   7.871   9.476   5.718 -0.6631  1.3193 -2.0010
21202SOL    HW265614   7.908   9.533   5.854 -1.2811 -0.3541 -1.1016
21203SOL     OW65615   3.618   4.652   1.425 -0.0983 -0.2369  0.8073
21203SOL    HW165616   3.582   4.564   1.421 -0.5418 -0.0347  0.2477
21203SOL    HW265617   3.551   4.708   1.386 -0.6566  0.6167  2.8374
21204SOL     OW65618   2.209   0.575   4.067 -0.1604  0.1616 -0.2300
21204SOL    HW165619   2.151   0.544   4.137  0.7607 -3.2380 -0.8052
21204SOL    HW265620   2.270   0.634   4.112  0.2283 -1.6758  1.8985
21205SOL     OW65621  10.287   3.280  10.289  0.3262 -0.4024 -0.2038
21205SOL    HW165622  10.245   3.308  10.370 -2.5288 -1.6899 -1.1010
21205SOL    HW265623  10.312   3.362  10.245  1.3701  0.3199  1.6339
21206SOL     OW65624   8.937  10.853   6.766  0.1492  0.0223  0.1490
21206SOL    HW165625   8.875  10.910   6.811 -0.3843 -1.0848  0.8591
21206SOL    HW265626   8.893  10.830   6.684  0.2666  0.4278 -0.0319
21207SOL     OW65627   6.090   2.611   0.086 -0.2858  0.4399  0.0750
21207SOL    HW165628   6.063   2.520   0.076 -2.2499  0.7548  1.8751
21207SOL    HW265629   6.074   2.631   0.179  1.0777  2.3320 -0.0335
21208SOL     OW65630   2.753   3.411   6.723  0.2379  0.4165 -0.0616
21208SOL    HW165631   2.757   3.381   6.632  1.2028  0.5706 -0.0850
21208SOL    HW265632   2.739   3.505   6.717  1.9923  0.7131 -0.1197
21209SOL     OW65633   8.353   0.842   4.297  0.6500  0.2929 -0.2585
21209SOL    HW165634   8.404   0.893   4.234  0.4987  0.1075 -0.5298
21209SOL    HW265635   8.263   0.870   4.284  0.7610  1.2798  0.8297
21210SOL     OW65636   3.931   0.739   6.844  0.4811 -0.0302 -0.6709
21210SOL    HW165637   3.964   0.654   6.813  1.8680  0.4420 -0.5817
21210SOL    HW265638   3.970   0.802   6.783  1.0093  0.6852  0.3820
21211SOL     OW65639   4.830   6.416   2.938 -0.4656  0.0257 -0.2691
21211SOL    HW165640   4.903   6.474   2.959  1.1585 -1.0584 -2.5215
21211SOL    HW265641   4.830   6.351   3.008 -0.2909  0.9350  0.5933
21212SOL     OW65642   0.652   4.456   6.792  0.2442 -0.0750  0.4380
21212SOL    HW165643   0.718   4.447   6.722 -1.1074  2.9892 -1.4249
21212SOL    HW265644   0.675   4.537   6.836 -1.4121  0.2544  0.7452
21213SOL     OW65645   7.421  10.390  10.587 -0.2301  0.2154  0.0010
21213SOL    HW165646   7.338  10.388  10.540  0.0161  1.4529 -0.5209
21213SOL    HW265647   7.487  10.408  10.520  0.3285  0.2818  0.5568
21214SOL     OW65648   1.988   5.034   5.442 -0.3208 -0.1771 -0.1627
21214SOL    HW165649   1.966   4.958   5.495 -1.1695 -1.4443 -2.2358
21214SOL    HW265650   1.913   5.093   5.452 -0.9043 -0.8233 -0.6877
21215SOL     OW65651   1.305   3.494   2.743  0.2997  0.4761 -0.0202
21215SOL    HW165652   1.314   3.433   2.670 -1.6141  0.6450 -0.4621
21215SOL    HW265653   1.385   3.483   2.794  0.2617 -2.0388 -0.3639
21216SOL     OW65654   9.593   0.433   2.548  0.2090 -0.3309 -0.3589
21216SOL    HW165655   9.553   0.500   2.604 -0.9970 -0.7728 -0.6660
21216SOL    HW265656   9.565   0.456   2.459  0.9405 -0.4505 -0.6289
21217SOL     OW65657   7.331   3.444   9.512 -0.4281 -0.6099  0.4181
21217SOL    HW165658   7.277   3.507   9.559 -0.9338 -1.5209  1.0986
21217SOL    HW265659   7.416   3.445   9.557  0.0060  0.5128 -0.3867
21218SOL     OW65660   4.887   7.494   7.351 -0.3264  0.3746  0.3382
21218SOL    HW165661   4.891   7.492   7.255 -0.2811 -1.4055  0.3545
21218SOL    HW265662   4.851   7.581   7.371  0.7919  1.2571 -1.2345
21219SOL     OW65663   3.043   4.493   5.434  0.1011  0.0627 -0.2633
21219SOL    HW165664   3.017   4.442   5.357 -2.2279 -0.1712  0.6019
21219SOL    HW265665   3.093   4.432   5.488 -1.3997 -0.9230  0.0782
21220SOL     OW65666   6.927   0.740   6.621 -0.4505  0.4399 -0.1214
21220SOL    HW165667   6.906   0.814   6.679  0.2929  0.1617  0.5140
21220SOL    HW265668   6.903   0.663   6.672  1.9350  0.1052  0.5977
21221SOL     OW65669   7.987   3.137   6.898 -0.4392  0.2710  0.4988
21221SOL    HW165670   8.065   3.096   6.935  0.4230 -1.1311 -2.5193
21221SOL    HW265671   8.012   3.229   6.886  0.6993 -0.1215 -0.2431
21222SOL     OW65672   3.443   1.221   9.570  1.0951 -0.7210 -0.2388
21222SOL    HW165673   3.412   1.188   9.655  2.1707  0.3461  0.6114
21222SOL    HW265674   3.386   1.295   9.550  2.4320  0.6693  0.8767
21223SOL     OW65675   4.528   8.113   8.307  0.2424 -0.5581 -0.0317
21223SOL    HW165676   4.514   8.102   8.212  0.0532 -0.7840  0.0198
21223SOL    HW265677   4.505   8.028   8.344 -0.9555 -0.0854  0.3539
21224SOL     OW65678   3.884   3.853   8.192  0.2619 -0.5064  0.1363
21224SOL    HW165679   3.842   3.927   8.148 -3.1030 -1.5504  1.2843
21224SOL    HW265680   3.977   3.863   8.172 -0.1492  3.4172 -0.5748
21225SOL     OW65681   4.211   9.950   4.652  0.0126 -0.6331 -0.2787
21225SOL    HW165682   4.218  10.000   4.733 -0.2318 -0.6434 -0.2489
21225SOL    HW265683   4.143   9.885   4.671  1.5097 -2.0973  0.2652
21226SOL     OW65684   4.093  10.895   5.640 -0.8039  0.3022  0.3202
21226SOL    HW165685   4.104  10.828   5.573 -1.4034  0.8551 -0.3438
21226SOL    HW265686   4.024  10.861   5.697 -0.5362 -0.0077  0.4654
21227SOL     OW65687   9.479   2.981  10.027  0.4695  0.3276 -0.4761
21227SOL    HW165688   9.574   2.989  10.043  0.3144  0.1823  0.6105
21227SOL    HW265689   9.472   2.915   9.958  1.1905  0.8848 -1.1050
21228SOL     OW65690   8.963   4.737   1.842 -0.1309  0.1224 -0.0917
21228SOL    HW165691   9.053   4.707   1.830 -0.3797 -0.1292 -1.5366
21228SOL    HW265692   8.933   4.759   1.753 -2.2564 -2.0395 -0.0235
21229SOL     OW65693   4.506   2.497   6.311  0.0757 -0.4360 -0.1918
21229SOL    HW165694   4.437   2.477   6.248 -0.6347 -0.7263  0.6594
21229SOL    HW265695   4.587   2.493   6.259 -0.5533  0.2329 -1.2713
21230SOL     OW65696   2.826  10.191   9.286 -0.5409  0.1441 -0.6121
21230SOL    HW165697   2.779  10.237   9.216  1.4893  1.7343 -1.0356
21230SOL    HW265698   2.887  10.257   9.321  1.2012 -1.7203  0.0278
21231SOL     OW65699   1.141   4.519   4.582 -0.0432  0.4412  0.1766
21231SOL    HW165700   1.146   4.448   4.645  2.5669  1.4753  1.2651
21231SOL    HW265701   1.228   4.523   4.542 -0.7955  1.6097 -1.4851
21232SOL     OW65702   5.812   9.767   4.456 -0.2433 -0.2144  0.1781
21232SOL    HW165703   5.724   9.728   4.453 -0.1708 -0.8870  3.2799
21232SOL    HW265704   5.809   9.826   4.531  1.8942 -0.0684  0.2029
21233SOL     OW65705   7.367   4.541   9.881 -0.1400  0.0898  0.0294
21233SOL    HW165706   7.320   4.458   9.881 -1.1142  0.6032 -1.2649
21233SOL    HW265707   7.427   4.535   9.956 -1.5944 -0.9662  1.1552
21234SOL     OW65708   6.020   0.614   0.945  0.1844  0.8043  0.2105
21234SOL    HW165709   5.927   0.627   0.930  0.2766  0.9004 -0.2983
21234SOL    HW265710   6.025   0.573   1.032 -0.3544  0.4016  0.0574
21235SOL     OW65711   6.364   8.376   3.900  0.2796 -0.2379  0.0665
21235SOL    HW165712   6.428   8.305   3.911  0.9140  0.3534  0.2612
21235SOL    HW265713   6.356   8.415   3.986 -1.1670 -0.9698  0.2907
21236SOL     OW65714   2.526   1.168   4.785  0.0798 -0.1868 -0.4697
21236SOL    HW165715   2.481   1.084   4.777  0.6106 -0.4994 -0.2562
21236SOL    HW265716   2.566   1.166   4.872  2.2368 -0.8047 -1.4211
21237SOL     OW65717   2.964   0.081   4.683 -0.1747 -0.2013 -0.1481
21237SOL    HW165718   2.912   0.135   4.743 -1.1823  0.7549 -1.8279
21237SOL    HW265719   3.031   0.140   4.648 -0.7091 -0.2471 -1.2975
21238SOL     OW65720   5.820   1.065  10.811 -0.3702  0.0602  0.5608
21238SOL    HW165721   5.769   1.138  10.775 -0.5627  0.1480  1.0102
21238SOL    HW265722   5.910   1.099  10.815  0.3292 -0.9707 -2.7857
21239SOL     OW65723   1.626   2.581   3.299  0.4050 -0.0394  0.0899
21239SOL    HW165724   1.715   2.575   3.265  0.8749 -1.5331  1.4162
21239SOL    HW265725   1.638   2.580   3.394 -0.9940  0.6565  0.2892
21240SOL     OW65726   1.089   9.278   3.428  0.4186 -0.1070  0.2800
21240SOL    HW165727   1.084   9.371   3.406  0.9407 -0.1196  0.0865
21240SOL    HW265728   1.004   9.243   3.403  0.3045  0.2727  0.1240
21241SOL     OW65729   8.120   2.507   7.268 -0.0932  0.7200 -0.0535
21241SOL    HW165730   8.196   2.513   7.210  1.5784 -0.6016  1.8516
21241SOL    HW265731   8.059   2.449   7.223  1.0704 -0.1301 -0.5740
21242SOL     OW65732   8.249   6.903   3.524  0.7372 -0.3188  0.1602
21242SOL    HW165733   8.321   6.950   3.566  0.5098  0.7009 -0.5665
21242SOL    HW265734   8.260   6.813   3.553  0.8681  0.2432  2.0495
21243SOL     OW65735   5.428   9.996  10.597 -0.1835  0.1604  0.0711
21243SOL    HW165736   5.406   9.915  10.552  2.4493 -0.6477  0.1157
21243SOL    HW265737   5.467  10.051  10.529  3.4845 -0.9300  1.0904
21244SOL     OW65738   1.400   8.120   3.186 -0.0083 -0.1576  0.1418
21244SOL    HW165739   1.392   8.062   3.110  0.7348  1.1316 -0.9714
21244SOL    HW265740   1.327   8.182   3.176 -1.6405 -1.6469  2.0702
21245SOL     OW65741   4.556   9.656   5.135 -0.1744 -0.2081 -0.0044
21245SOL    HW165742   4.463   9.637   5.148 -0.0850 -1.1986 -0.6606
21245SOL    HW265743   4.601   9.605   5.202 -0.1360  1.0874  0.9935
21246SOL     OW65744   4.472   2.046   2.892  0.0876 -0.2854  0.3179
21246SOL    HW165745   4.405   2.097   2.937 -1.3480  1.1016 -3.0463
21246SOL    HW265746   4.550   2.102   2.893 -0.0080 -0.1566  0.8102
21247SOL     OW65747   2.977   0.280   9.330 -0.6760 -0.3173  0.6825
21247SOL    HW165748   3.059   0.247   9.294  0.8101  2.2705  1.4358
21247SOL    HW265749   2.996   0.297   9.422 -2.6030 -1.1982  1.2899
21248SOL     OW65750   0.062   7.523   0.475 -0.3379 -0.6434  0.3486
21248SOL    HW165751   0.070   7.611   0.511  2.4444 -0.7172  0.1567
21248SOL    HW265752   0.054   7.536   0.380 -0.4097 -0.5869  0.3628
21249SOL     OW65753  10.447   1.008   4.931  0.8897  0.2931 -0.6432
21249SOL    HW165754  10.426   0.915   4.920 -0.6446  0.5617 -0.2593
21249SOL    HW265755  10.523   1.009   4.989  0.8830 -0.7287 -0.5983
21250SOL     OW65756   2.380   2.571   4.779  0.1107 -0.0110 -0.3689
21250SOL    HW165757   2.442   2.636   4.744 -0.5366  0.4083 -0.7595
21250SOL    HW265758   2.348   2.609   4.861 -1.3968  0.8927 -1.3288
21251SOL     OW65759   9.788   4.938   4.397  0.0344 -0.0783  0.0913
21251SOL    HW165760   9.730   4.874   4.438 -0.7592 -0.5809 -1.7247
21251SOL    HW265761   9.790   5.011   4.459  0.1818 -1.4375  1.7507
21252SOL     OW65762   3.198  10.710   4.465 -0.8191  0.0098 -0.2371
21252SOL    HW165763   3.258  10.753   4.405 -0.6013 -0.1985 -0.1666
21252SOL    HW265764   3.254  10.670   4.532 -1.0208 -0.3410 -0.2744
21253SOL     OW65765   8.168   0.300   1.702 -0.6567  0.5990 -0.1375
21253SOL    HW165766   8.138   0.390   1.685 -0.2542  0.3207 -2.7124
21253SOL    HW265767   8.230   0.282   1.632  0.9476 -0.9713  1.6083
21254SOL     OW65768   5.482   0.111   7.505  1.0482 -0.3547  0.2126
21254SOL    HW165769   5.435   0.185   7.465  1.7659 -0.5532 -1.0359
21254SOL    HW265770   5.429   0.088   7.581  1.6667  2.5014  1.6198
21255SOL     OW65771   5.409   2.060   8.700 -0.7318  0.1766  0.1094
21255SOL    HW165772   5.341   2.050   8.633 -1.0582 -1.1709  0.6251
21255SOL    HW265773   5.467   1.985   8.687 -0.7563 -0.0634  1.2789
21256SOL     OW65774   6.284   9.887   4.692 -0.4665  0.1522  0.1100
21256SOL    HW165775   6.263   9.817   4.630 -0.6785  1.5445 -1.4591
21256SOL    HW265776   6.224   9.958   4.669  0.9265  1.4869  0.4646
21257SOL     OW65777   0.029   5.106   7.806  0.4146 -0.4671 -0.1402
21257SOL    HW165778   0.118   5.070   7.815  0.3272 -0.5570  0.3744
21257SOL    HW265779   0.038   5.175   7.740  0.7418 -0.9033 -0.5646
21258SOL     OW65780   6.762   9.018   3.065  0.0450 -0.3855 -0.0834
21258SOL    HW165781   6.718   8.997   2.982 -0.8915 -2.3714  0.8498
21258SOL    HW265782   6.811   8.938   3.086 -0.6381 -0.3380  1.8254
21259SOL     OW65783   6.003   8.532   1.969 -0.5742 -0.0940 -0.3751
21259SOL    HW165784   5.916   8.533   1.928 -1.1347  3.0163  0.5706
21259SOL    HW265785   6.064   8.541   1.895 -1.1794 -0.4013 -0.9211
21260SOL     OW65786   1.996   2.354   5.274  0.2255 -0.2556 -0.2025
21260SOL    HW165787   1.942   2.349   5.195  0.8737  0.5292 -0.7050
21260SOL    HW265788   2.014   2.262   5.296  0.8185 -0.4882 -1.5217
21261SOL     OW65789   3.021   0.540   0.067  0.2816  0.5208  0.4925
21261SOL    HW165790   2.985   0.500  -0.012  0.1528 -0.3636  0.9839
21261SOL    HW265791   3.034   0.466   0.127  0.7584  1.1269  1.1475
21262SOL     OW65792   1.975  11.099   2.362  0.3289  0.0093 -0.2344
21262SOL    HW165793   1.919  11.061   2.429 -0.8653 -0.2674 -1.3354
21262SOL    HW265794   1.930  11.179   2.335  2.0477  1.4616  0.9824
21263SOL     OW65795   4.207   2.473   5.611  0.7555 -0.0128 -0.8272
21263SOL    HW165796   4.271   2.544   5.614 -1.5638  2.1957  0.1467
21263SOL    HW265797   4.150   2.488   5.687 -1.0281 -1.7214 -1.7178
21264SOL     OW65798   7.680   8.915   8.087 -0.1855 -0.1558 -0.1069
21264SOL    HW165799   7.639   8.962   8.015  1.0149  1.3955  0.1669
21264SOL    HW265800   7.744   8.858   8.044 -0.3590 -0.1707 -0.3451
21265SOL     OW65801  10.674   9.028   5.450  0.4096  0.2843 -0.7704
21265SOL    HW165802  10.645   9.112   5.415 -0.5666  0.7882  1.1259
21265SOL    HW265803  10.676   9.041   5.545  1.2544 -1.5301 -0.5075
21266SOL     OW65804   1.655   3.931   9.864 -0.0153 -0.2455 -0.6339
21266SOL    HW165805   1.648   3.844   9.825  0.0463  0.0432 -1.2995
21266SOL    HW265806   1.612   3.989   9.802 -2.8831 -0.1879  1.2273
21267SOL     OW65807   7.058   9.164  10.954  0.6642  0.0914 -0.9305
21267SOL    HW165808   6.962   9.171  10.959  0.6336  0.2136 -1.5797
21267SOL    HW265809   7.074   9.098  10.886  1.0399 -0.2326 -0.5331
21268SOL     OW65810  10.445   3.137   9.306  0.1651  0.3676 -0.3271
21268SOL    HW165811  10.453   3.189   9.386 -1.6698  0.7955 -0.3723
21268SOL    HW265812  10.533   3.138   9.267  1.1187  0.0884  1.6866
21269SOL     OW65813   7.668   8.207   2.547 -0.3020 -0.3903 -0.1677
21269SOL    HW165814   7.595   8.266   2.567 -0.9474 -1.2200 -0.0218
21269SOL    HW265815   7.646   8.170   2.462  1.3834  1.5101 -1.5293
21270SOL     OW65816   7.639   5.604   0.793 -0.0260 -0.3378  0.8874
21270SOL    HW165817   7.544   5.598   0.782  0.2843 -2.0624 -1.4376
21270SOL    HW265818   7.670   5.513   0.793  1.8245  0.2243 -0.7832
21271SOL     OW65819   4.713   5.064   6.208 -0.3985  0.5622 -0.6373
21271SOL    HW165820   4.742   5.051   6.299  0.3202  3.0795 -0.4343
21271SOL    HW265821   4.622   5.034   6.207 -0.0920 -0.4989  0.6228
21272SOL     OW65822   1.561   4.935   6.099  0.2068 -0.2738 -0.1523
21272SOL    HW165823   1.484   4.990   6.087 -0.4874 -1.0487  0.7093
21272SOL    HW265824   1.605   4.939   6.014 -0.6695  0.3277 -0.5993
21273SOL     OW65825   1.183   0.233   6.310  0.1764  0.3093 -0.5151
21273SOL    HW165826   1.156   0.224   6.402 -1.3369  1.5924 -0.7890
21273SOL    HW265827   1.117   0.185   6.261 -1.2521  2.7447 -1.1388
21274SOL     OW65828   5.419   9.851   5.630  0.1465  0.6693  0.0055
21274SOL    HW165829   5.364   9.864   5.708 -1.9674 -1.8154 -0.9045
21274SOL    HW265830   5.499   9.809   5.664 -0.8582 -0.6434  0.8872
21275SOL     OW65831   3.941  10.750   1.562  0.3003  0.3054 -0.2385
21275SOL    HW165832   3.938  10.740   1.467  0.9170  1.4020 -0.3911
21275SOL    HW265833   3.891  10.675   1.595 -0.5740  0.3247 -1.4389
21276SOL     OW65834   6.323   9.246   8.955  0.5407 -0.3075 -0.4039
21276SOL    HW165835   6.263   9.229   9.028 -0.9966  1.9340 -1.0435
21276SOL    HW265836   6.362   9.161   8.936 -0.8489 -1.4335  1.4398
21277SOL     OW65837   4.537  10.830   9.133 -0.3736  0.3224 -0.0981
21277SOL    HW165838   4.505  10.740   9.145 -0.6028 -0.0676 -2.8396
21277SOL    HW265839   4.464  10.885   9.160 -1.3685 -0.4325 -1.1426
21278SOL     OW65840   3.962   9.412   4.073 -0.0241  0.4966 -0.5900
21278SOL    HW165841   3.892   9.365   4.118 -1.0314  2.0173 -0.4729
21278SOL    HW265842   3.931   9.419   3.982 -0.3647  1.7266 -0.4002
21279SOL     OW65843   8.525   1.070   8.274 -0.1476  0.5137 -0.6146
21279SOL    HW165844   8.450   1.112   8.318 -0.3265 -0.6283  0.2204
21279SOL    HW265845   8.495   1.055   8.185 -1.2986 -0.7798 -0.0445
21280SOL     OW65846   4.437   8.768   0.527 -0.0418 -0.0613 -0.2497
21280SOL    HW165847   4.473   8.702   0.468  0.5017 -0.0149  0.0267
21280SOL    HW265848   4.504   8.780   0.594  0.7758  2.1977 -1.3669
21281SOL     OW65849   3.698   8.717   0.595 -0.2271 -0.5696  0.0511
21281SOL    HW165850   3.621   8.682   0.640  0.5568 -0.0800  1.8148
21281SOL    HW265851   3.762   8.646   0.599 -0.2012 -0.5774 -0.4426
21282SOL     OW65852   4.655   8.988   0.424 -0.1896  0.4032  0.2090
21282SOL    HW165853   4.673   9.065   0.478 -1.8098  0.0613  1.3071
21282SOL    HW265854   4.632   8.919   0.486 -1.5698 -0.1670 -0.8668
21283SOL     OW65855   4.227   7.121   2.859  0.2933 -0.9101 -0.1288
21283SOL    HW165856   4.293   7.182   2.826  0.9349 -1.5396 -0.0409
21283SOL    HW265857   4.217   7.143   2.951  1.2576 -1.5598  0.1477
21284SOL     OW65858   3.605   1.413   0.329 -0.4576 -0.0570  0.0548
21284SOL    HW165859   3.628   1.454   0.413  1.0448  0.6416 -0.6537
21284SOL    HW265860   3.617   1.483   0.265 -1.1126 -0.7255 -0.8080
21285SOL     OW65861   5.989   0.392   2.402  0.1997  0.4324  0.3845
21285SOL    HW165862   6.058   0.367   2.339 -0.9112  0.8641 -1.0651
21285SOL    HW265863   6.032   0.455   2.459  1.7038 -1.1844  1.1337
21286SOL     OW65864  10.518   0.024   7.492 -0.1507 -0.6954 -0.0095
21286SOL    HW165865  10.495   0.092   7.429 -0.8894  0.4055  1.3879
21286SOL    HW265866  10.562  -0.044   7.440 -1.6114 -0.2988 -1.8394
21287SOL     OW65867   0.366   6.355   2.049 -0.0857  0.4596  0.2538
21287SOL    HW165868   0.299   6.417   2.019  0.1877  0.5730 -0.1241
21287SOL    HW265869   0.318   6.274   2.064 -0.1006  0.1713 -1.2736
21288SOL     OW65870   0.039  10.428   8.264 -0.0134 -0.2039 -0.0450
21288SOL    HW165871   0.132  10.441   8.281  0.2452 -3.5060  1.8294
21288SOL    HW265872   0.007  10.515   8.239  3.4445  1.1168 -0.4335
21289SOL     OW65873   9.825   4.513   4.036  0.2042  0.4782  0.3980
21289SOL    HW165874   9.883   4.587   4.055  0.3714  0.7394 -0.9776
21289SOL    HW265875   9.822   4.510   3.940  0.3141 -1.3849  0.4180
21290SOL     OW65876   0.003   3.110   7.636  0.5802  0.2308 -0.1427
21290SOL    HW165877  -0.055   3.156   7.574  1.8069  0.5959 -1.0513
21290SOL    HW265878  -0.057   3.072   7.700 -0.6356  1.0884 -0.7195
21291SOL     OW65879   4.754   1.924   7.623 -0.3238  0.3146  0.0625
21291SOL    HW165880   4.720   1.995   7.569  1.8532  1.6276  0.2787
21291SOL    HW265881   4.849   1.932   7.616  0.0151 -0.9321  2.2324
21292SOL     OW65882   4.909   5.618  10.348  0.4331  0.5534  0.2600
21292SOL    HW165883   4.826   5.593  10.389  0.0516 -1.1980 -1.4468
21292SOL    HW265884   4.972   5.554  10.381  0.2369 -0.5359 -1.3805
21293SOL     OW65885   3.716   3.352   1.336  0.5522 -0.8146  0.4579
21293SOL    HW165886   3.657   3.374   1.264  1.8776  0.1933 -0.3784
21293SOL    HW265887   3.692   3.263   1.361 -0.0409 -1.1259 -1.1245
21294SOL     OW65888   6.417   0.615   0.997  0.1704 -0.2518  0.2393
21294SOL    HW165889   6.388   0.535   0.955  0.2207 -0.8246  1.2708
21294SOL    HW265890   6.433   0.676   0.925 -3.3816  0.0667 -0.4528
21295SOL     OW65891   8.134  10.241   6.487 -0.1607 -0.0325 -0.0935
21295SOL    HW165892   8.071  10.290   6.540  1.5470  0.3946  1.6531
21295SOL    HW265893   8.086  10.162   6.460 -1.6983  0.6801  0.4319
21296SOL     OW65894   4.889   7.792   4.311  0.3193 -0.5888  0.0698
21296SOL    HW165895   4.839   7.846   4.373  1.7420  1.0957 -0.1554
21296SOL    HW265896   4.849   7.705   4.316 -2.6170  0.6565 -0.1572
21297SOL     OW65897   0.036   6.181   0.046  0.5798  0.0957  0.3023
21297SOL    HW165898   0.010   6.160  -0.044  2.4615 -0.3246 -0.1989
21297SOL    HW265899   0.034   6.096   0.091 -2.7517  0.6148  1.4270
21298SOL     OW65900   7.430   5.949   4.997 -0.3975  0.4619  0.1279
21298SOL    HW165901   7.344   5.914   5.022 -0.5382 -0.0062 -0.9518
21298SOL    HW265902   7.440   6.028   5.049 -0.7224 -0.3918  1.5515
21299SOL     OW65903   2.194  10.681   9.582  0.9123 -0.1813  0.2726
21299SOL    HW165904   2.150  10.760   9.552  2.4627  0.9232  0.7339
21299SOL    HW265905   2.197  10.690   9.678  1.4103 -0.6229  0.3028
21300SOL     OW65906   2.963  10.093   4.075 -0.0521  0.2157  0.6927
21300SOL    HW165907   2.952  10.181   4.111  0.2736 -0.1684  1.7661
21300SOL    HW265908   3.033  10.102   4.011  0.6201  0.5572  1.4648
21301SOL     OW65909   2.769   3.100   5.424  0.0300  0.0173 -0.0254
21301SOL    HW165910   2.698   3.158   5.451 -0.1161 -0.1627 -0.0209
21301SOL    HW265911   2.811   3.145   5.351  0.7556  0.7620  0.8316
21302SOL     OW65912   2.882   6.011   4.222  0.2235 -0.1512  0.3195
21302SOL    HW165913   2.814   5.991   4.158  0.3644 -1.5626  0.5806
21302SOL    HW265914   2.837   6.014   4.306  0.2882  0.1973  0.3452
21303SOL     OW65915   7.101  10.945   5.985  0.1803 -0.8065  0.2172
21303SOL    HW165916   7.071  11.026   6.027  1.1375 -0.7532  0.8102
21303SOL    HW265917   7.147  10.974   5.906 -0.9461 -0.8709 -0.4852
21304SOL     OW65918   2.889  10.373   5.043  0.1352  0.0657 -0.4558
21304SOL    HW165919   2.869  10.332   4.959  1.2843  0.2099 -0.8188
21304SOL    HW265920   2.934  10.455   5.020 -0.9093  0.8681  0.2832
21305SOL     OW65921   5.733   8.103   0.237  0.0673 -0.3500  0.0886
21305SOL    HW165922   5.683   8.174   0.276 -2.4554 -0.7726 -2.1304
21305SOL    HW265923   5.694   8.023   0.273  0.7133 -0.6664  0.1005
21306SOL     OW65924   8.288   1.094   9.324  0.0685 -0.4514  0.1521
21306SOL    HW165925   8.352   1.024   9.333  1.2459  0.4176 -1.1987
21306SOL    HW265926   8.303   1.150   9.400 -0.6143 -1.4039  1.0263
21307SOL     OW65927   9.083   5.245   8.597  0.1131 -0.4701 -1.0483
21307SOL    HW165928   9.100   5.321   8.541 -2.2318  1.7818  1.0577
21307SOL    HW265929   9.122   5.268   8.681  1.1700 -2.5880 -0.8978
21308SOL     OW65930   3.679   2.738   2.881  0.0082  0.6531 -0.2728
21308SOL    HW165931   3.657   2.822   2.842  2.1968  0.8615 -1.2354
21308SOL    HW265932   3.677   2.754   2.975 -0.5063  1.5202 -0.4260
21309SOL     OW65933  10.203   3.072   0.198 -0.3536 -0.2616 -0.6788
21309SOL    HW165934  10.236   2.984   0.214  2.1956  0.7306 -0.0243
21309SOL    HW265935  10.187   3.075   0.104  0.8577 -1.0513 -0.9317
21310SOL     OW65936   8.135   9.439   7.199  0.3272  0.4223 -0.0174
21310SOL    HW165937   8.138   9.371   7.133  0.4762  0.2435  0.1726
21310SOL    HW265938   8.062   9.415   7.256 -1.3896  1.8628 -1.4877
21311SOL     OW65939   3.847   3.744  10.687  0.6188 -0.2960  0.5574
21311SOL    HW165940   3.905   3.685  10.735  1.2653 -0.6920 -0.6785
21311SOL    HW265941   3.881   3.745  10.598 -1.7059 -1.1474 -0.4409
21312SOL     OW65942   3.835   3.099   8.496 -0.5160  0.3298 -0.2478
21312SOL    HW165943   3.917   3.101   8.447  0.2168 -0.7831  0.8538
21312SOL    HW265944   3.837   3.178   8.550 -0.2719  0.4123 -0.3784
21313SOL     OW65945   0.597   9.417   7.145 -0.4600 -0.1645 -0.0740
21313SOL    HW165946   0.509   9.453   7.155 -0.2839 -0.0852  1.4292
21313SOL    HW265947   0.655   9.490   7.165 -0.0641 -0.4805 -0.0552
21314SOL     OW65948  10.163   2.659   6.942 -0.0822 -0.1716  0.5700
21314SOL    HW165949  10.226   2.590   6.920 -0.1567 -0.6141  1.6737
21314SOL    HW265950  10.083   2.612   6.965 -0.1147  0.2658  1.4037
21315SOL     OW65951   1.700  10.379   3.427 -0.3735 -0.3662 -0.5645
21315SOL    HW165952   1.712  10.460   3.377 -0.6601 -0.8675 -1.4669
21315SOL    HW265953   1.699  10.407   3.519  0.5371  0.5327 -0.8118
21316SOL     OW65954   0.958   3.479   9.793  0.4915  0.0787  0.1772
21316SOL    HW165955   0.914   3.511   9.715 -0.5851  0.2087  0.8229
21316SOL    HW265956   0.948   3.549   9.858 -0.7928 -0.9947  1.2035
21317SOL     OW65957   9.701   0.042   0.886  0.0337 -0.1969 -0.6694
21317SOL    HW165958   9.696   0.045   0.791  1.3755 -0.2188 -0.7661
21317SOL    HW265959   9.611   0.054   0.916 -0.1126  2.2977 -1.8720
21318SOL     OW65960   1.427   7.894   4.900 -0.1006 -0.5290 -0.1763
21318SOL    HW165961   1.425   7.930   4.989  1.9421 -1.0308  0.1248
21318SOL    HW265962   1.458   7.966   4.845 -1.2127 -0.2670 -0.5017
21319SOL     OW65963   5.757  10.616   3.818  0.0468 -0.0440  0.5863
21319SOL    HW165964   5.786  10.577   3.901  0.1498 -1.6055 -0.1434
21319SOL    HW265965   5.682  10.671   3.841  1.0596  0.8347  1.9292
21320SOL     OW65966   2.510   3.742   7.633  0.0686  0.3545 -0.3869
21320SOL    HW165967   2.520   3.712   7.543 -0.7497  1.1982 -0.7720
21320SOL    HW265968   2.599   3.742   7.668  0.2339 -1.4490 -0.6886
21321SOL     OW65969   1.689   0.830   6.543  0.0440  0.3005  0.3555
21321SOL    HW165970   1.769   0.846   6.594  0.5906 -0.9869 -0.0454
21321SOL    HW265971   1.618   0.845   6.606  0.6352  0.6128  0.9659
21322SOL     OW65972   5.073   0.965   1.303  0.5466 -0.3917 -0.2466
21322SOL    HW165973   5.025   0.949   1.384 -0.0651 -0.1498 -0.5461
21322SOL    HW265974   5.013   1.018   1.250  1.5878  0.9018 -0.1918
21323SOL     OW65975   5.813  10.845   5.705  0.5821  0.4082  0.3538
21323SOL    HW165976   5.890  10.789   5.717  0.9058  0.9323  0.7697
21323SOL    HW265977   5.842  10.931   5.733 -0.0010  0.7275 -0.0079
21324SOL     OW65978   3.349  10.461   4.403 -0.4503 -0.0991 -0.0303
21324SOL    HW165979   3.326  10.389   4.461 -0.4977 -0.3986 -0.4179
21324SOL    HW265980   3.272  10.473   4.348 -0.3167  0.0271 -0.1922
21325SOL     OW65981   5.361   6.103   4.056 -0.5481  0.2883 -0.4082
21325SOL    HW165982   5.301   6.042   4.098 -2.4126  2.2786  0.0408
21325SOL    HW265983   5.380   6.168   4.124  1.4311  0.2215 -0.8291
21326SOL     OW65984   0.672   5.105   5.307 -0.7743 -0.7288  0.3597
21326SOL    HW165985   0.755   5.126   5.265 -0.5719  0.1412  1.1761
21326SOL    HW265986   0.653   5.015   5.279 -0.0468 -0.5977 -0.6059
21327SOL     OW65987  10.219   2.108   3.847 -0.5208 -0.0831  0.8715
21327SOL    HW165988  10.218   2.062   3.763  1.5816  0.9943  0.1808
21327SOL    HW265989  10.161   2.182   3.834 -0.0872  0.1635  0.3005
21328SOL     OW65990   0.299   5.459  10.126  0.0783 -0.2295 -0.1007
21328SOL    HW165991   0.335   5.527  10.069  1.5308 -0.0720  0.9404
21328SOL    HW265992   0.332   5.377  10.089  0.2856 -0.1867 -0.0162
21329SOL     OW65993   7.111   1.776   8.468 -0.3389  0.4438  0.1554
21329SOL    HW165994   7.098   1.871   8.471 -0.0066  0.6074 -2.0625
21329SOL    HW265995   7.206   1.765   8.460 -0.4855  0.0696 -1.5842
21330SOL     OW65996   1.520  10.521   7.547 -0.2705 -0.6003 -0.3246
21330SOL    HW165997   1.477  10.509   7.631 -1.1207 -1.2959 -0.8435
21330SOL    HW265998   1.613  10.507   7.565 -0.5969 -2.2529  0.2279
21331SOL     OW65999   4.736   4.492   4.091 -0.1719 -0.2304  0.5262
21331SOL    HW166000   4.822   4.483   4.131  0.4594  1.4459 -0.3405
21331SOL    HW266001   4.674   4.466   4.159  0.9892 -0.7803  1.3902
21332SOL     OW66002   8.012   8.699  10.538 -0.1852  0.3252  0.1994
21332SOL    HW166003   8.087   8.741  10.497  0.5269 -1.6449 -0.6258
21332SOL    HW266004   8.032   8.699  10.632 -0.0347  1.4500  0.1762
21333SOL     OW66005  10.482   0.151   8.193  0.3048  0.0461 -0.0695
21333SOL    HW166006  10.406   0.093   8.189 -0.5190  1.1082  0.0279
21333SOL    HW266007  10.532   0.130   8.114 -0.7633  0.2511 -0.8160
21334SOL     OW66008   6.236   9.553   7.870 -0.0852 -0.4782  0.0993
21334SOL    HW166009   6.278   9.633   7.840 -0.3768 -0.6776 -0.8941
21334SOL    HW266010   6.146   9.579   7.888 -0.5116 -0.8092 -1.4116
21335SOL     OW66011  10.715  10.940   9.873  0.1202 -0.4740 -0.1405
21335SOL    HW166012  10.630  10.972   9.843  0.3171 -0.4569 -0.7071
21335SOL    HW266013  10.768  11.019   9.883  0.8083 -0.6092 -2.1817
21336SOL     OW66014   4.825   8.419   5.032  0.1067 -0.4125  0.0808
21336SOL    HW166015   4.913   8.382   5.041  0.2472 -0.5254 -1.5396
21336SOL    HW266016   4.832   8.508   5.066  0.3842 -1.0065  1.6578
21337SOL     OW66017   0.126   0.779   1.569 -0.7277  0.5217 -0.4453
21337SOL    HW166018   0.177   0.832   1.630  0.9536  2.6646 -3.4853
21337SOL    HW266019   0.170   0.694   1.569 -0.3097  0.7136  0.7031
21338SOL     OW66020   3.521   9.751   2.929  0.7047  0.1659  0.9047
21338SOL    HW166021   3.428   9.739   2.949  0.2721  1.7069  0.0165
21338SOL    HW266022   3.567   9.694   2.990 -0.8626 -1.2913  0.7780
21339SOL     OW66023   0.577   7.903   2.021  0.1823  0.0991 -0.5492
21339SOL    HW166024   0.636   7.971   2.054  0.3810 -0.3380  0.0152
21339SOL    HW266025   0.490   7.936   2.041  0.2563  0.4616 -0.8173
21340SOL     OW66026  10.487   3.471   7.006 -0.4922  0.0380  0.7587
21340SOL    HW166027  10.393   3.478   6.991 -0.3953 -0.0917  0.0577
21340SOL    HW266028  10.516   3.401   6.948  0.1568  0.5631  0.4229
21341SOL     OW66029   2.700   3.819   3.558  0.4688 -0.0896  0.1770
21341SOL    HW166030   2.787   3.831   3.518  1.6612 -1.5053  2.1464
21341SOL    HW266031   2.663   3.907   3.559  1.6431  0.4730 -1.2123
21342SOL     OW66032   5.987   3.057   5.185 -0.4220  0.6642 -0.1045
21342SOL    HW166033   5.970   3.151   5.174 -1.2287  0.6678  0.9468
21342SOL    HW266034   6.017   3.049   5.276 -1.4861 -0.2267  0.1891
21343SOL     OW66035   2.823   1.279   8.197 -0.0311  0.6096 -0.0878
21343SOL    HW166036   2.740   1.297   8.154 -0.3439  0.2964  0.3849
21343SOL    HW266037   2.813   1.192   8.235  0.0220  1.1115  1.1260
21344SOL     OW66038   2.575   6.244   5.683 -0.0718 -0.2604 -0.3503
21344SOL    HW166039   2.591   6.293   5.602  1.5925 -3.0385 -1.8411
21344SOL    HW266040   2.637   6.281   5.745  0.1121  0.4970 -0.9597
21345SOL     OW66041   6.029  10.754   4.437 -0.1643  0.4218  0.1111
21345SOL    HW166042   6.073  10.673   4.414  0.9531  0.8634  0.6498
21345SOL    HW266043   5.973  10.731   4.511 -1.1805 -0.2283 -0.8254
21346SOL     OW66044   9.601  10.427   5.773 -0.0683  0.3193 -0.0908
21346SOL    HW166045   9.668  10.428   5.841  1.4157  0.1432 -1.4830
21346SOL    HW266046   9.601  10.338   5.740 -0.5471  0.4757 -0.5317
21347SOL     OW66047   6.992  10.780   0.090 -0.2082  0.2857  0.6657
21347SOL    HW166048   7.072  10.728   0.096 -0.4789 -0.1408  0.5843
21347SOL    HW266049   6.934  10.744   0.158 -0.7313 -0.1090  0.0242
21348SOL     OW66050   4.703   5.120   4.786 -0.0168 -0.3119 -0.6178
21348SOL    HW166051   4.691   5.026   4.778 -0.3595 -0.2037 -1.4387
21348SOL    HW266052   4.637   5.158   4.728 -1.0945  0.4831  1.0531
21349SOL     OW66053   4.099   1.124   9.219 -0.0756  0.0996  0.2359
21349SOL    HW166054   4.100   1.087   9.307  1.6150  0.2901  0.3183
21349SOL    HW266055   4.086   1.049   9.161  0.7119 -0.2928  0.5566
21350SOL     OW66056   9.621  10.605   0.252 -0.3646  0.0256  0.9727
21350SOL    HW166057   9.529  10.631   0.264 -0.8711 -1.0337 -0.3008
21350SOL    HW266058   9.617  10.531   0.191  1.2306 -0.9979  2.0245
21351SOL     OW66059   4.150   3.970   2.761 -0.0132  0.3345  0.1631
21351SOL    HW166060   4.100   4.016   2.828 -0.2682 -1.9989  1.7130
21351SOL    HW266061   4.097   3.977   2.682 -0.2476  2.2165  0.4573
21352SOL     OW66062   1.108  10.340   3.161  0.3646  0.1770  0.5124
21352SOL    HW166063   1.019  10.307   3.150  0.3715  0.4763 -0.6323
21352SOL    HW266064   1.145  10.286   3.230 -0.5084 -0.3673  0.5779
21353SOL     OW66065   9.241   4.150   0.826 -0.2100  0.0668  0.3197
21353SOL    HW166066   9.196   4.233   0.812  1.5644  1.0397  0.1593
21353SOL    HW266067   9.199   4.090   0.764 -0.7519  1.1350 -0.3881
21354SOL     OW66068   3.741   1.815   3.632 -0.5431  0.4955  0.0997
21354SOL    HW166069   3.800   1.741   3.615  0.7662  1.8074 -1.4372
21354SOL    HW266070   3.659   1.790   3.590 -0.4880 -0.5388  0.5669
21355SOL     OW66071   5.557   4.553   9.634 -0.0674 -0.9389 -0.1153
21355SOL    HW166072   5.493   4.584   9.698  0.3111 -1.4690  0.5355
21355SOL    HW266073   5.565   4.625   9.572 -0.8031 -0.6043  0.1594
21356SOL     OW66074   1.914   2.373   3.677  0.0336 -0.0671 -0.3737
21356SOL    HW166075   1.965   2.403   3.753  0.8215 -2.9650  0.3493
21356SOL    HW266076   1.836   2.333   3.714 -1.2142  1.3492 -1.3334
21357SOL     OW66077   6.988   1.869   2.184  0.2179 -0.1207  0.2200
21357SOL    HW166078   7.015   1.807   2.116  1.6001  1.1536 -0.4466
21357SOL    HW266079   6.977   1.815   2.262 -0.1060 -1.4185 -0.6884
21358SOL     OW66080   0.121   1.382   6.851 -0.1549 -0.1517 -0.4590
21358SOL    HW166081   0.148   1.317   6.916  2.0310  1.3620  0.2476
21358SOL    HW266082   0.046   1.427   6.891  0.1486 -0.3052  0.2885
21359SOL     OW66083   2.362  10.190   5.571  0.0724 -0.4973  0.8337
21359SOL    HW166084   2.408  10.190   5.487  0.4623  3.4071  0.8593
21359SOL    HW266085   2.271  10.173   5.548  0.1741  0.4769 -0.4362
21360SOL     OW66086   5.000   9.314   8.611 -0.3752 -0.1064 -0.0131
21360SOL    HW166087   5.012   9.264   8.692  0.2992  0.3836  0.1992
21360SOL    HW266088   4.927   9.271   8.568 -0.8553 -0.2800  0.9362
21361SOL     OW66089   2.298   1.127   7.603 -0.1327  0.1850 -0.2610
21361SOL    HW166090   2.316   1.033   7.603  0.1671  0.2101  1.5519
21361SOL    HW266091   2.354   1.163   7.672 -0.8516  1.5717 -0.3549
21362SOL     OW66092  10.890   9.627   0.437  0.2785  0.1906 -0.4856
21362SOL    HW166093  10.834   9.690   0.392 -0.0679 -0.3991 -0.8822
21362SOL    HW266094  10.876   9.645   0.530 -3.0254 -1.9495 -0.3968
21363SOL     OW66095   4.341   4.793   3.036 -0.2472 -0.1102 -0.0641
21363SOL    HW166096   4.387   4.773   3.117  1.6613  0.3325 -0.9850
21363SOL    HW266097   4.370   4.725   2.975  0.9320  1.4000 -1.2666
21364SOL     OW66098   4.423   8.106  11.101 -0.4898 -0.2248  0.5322
21364SOL    HW166099   4.470   8.024  11.085 -0.5585 -0.0631 -0.6020
21364SOL    HW266100   4.447   8.131  11.190  0.1439 -1.0728  0.6083
21365SOL     OW66101   8.492   5.293   9.430  0.5894 -0.8217 -0.1358
21365SOL    HW166102   8.414   5.238   9.420 -1.5044  1.9707 -0.3884
21365SOL    HW266103   8.481   5.334   9.516  0.3645  1.5297 -1.2156
21366SOL     OW66104   5.056  10.273   6.009  0.2977 -0.3899 -1.0934
21366SOL    HW166105   5.005  10.299   6.086  0.1977 -3.0645 -0.1386
21366SOL    HW266106   5.072  10.354   5.962 -1.5151  1.0558  0.6134
21367SOL     OW66107   5.031   6.263   0.216  0.0462 -0.5163  0.0302
21367SOL    HW166108   5.073   6.196   0.270  1.8502 -0.1610 -0.8488
21367SOL    HW266109   5.070   6.345   0.246 -2.3627  0.2373  1.3062
21368SOL     OW66110   8.476  10.647   8.089  0.1295  0.0099 -0.6765
21368SOL    HW166111   8.537  10.597   8.144  0.7979  0.1968 -1.2334
21368SOL    HW266112   8.389  10.625   8.123  0.5705  1.3584  1.4932
21369SOL     OW66113  10.645   1.964   0.230 -0.4477  0.2789 -0.3472
21369SOL    HW166114  10.562   1.922   0.208 -0.3825  0.4461 -0.9162
21369SOL    HW266115  10.620   2.052   0.260 -0.6766 -0.4699  1.8501
21370SOL     OW66116   2.531   2.673   3.251 -0.5876  0.1035  0.4420
21370SOL    HW166117   2.490   2.607   3.197  1.0232  0.2062 -0.9825
21370SOL    HW266118   2.563   2.739   3.189  0.7141  0.5747  1.5640
21371SOL     OW66119   5.616   6.634   3.803  0.0945 -0.0878  0.4389
21371SOL    HW166120   5.689   6.641   3.864 -1.1753  0.0765  1.9951
21371SOL    HW266121   5.576   6.721   3.802 -0.2357 -0.2413 -0.1974
21372SOL     OW66122   5.817   7.495   2.234 -0.0639  0.6276 -0.0401
21372SOL    HW166123   5.906   7.526   2.253  0.1668 -1.1759  2.2974
21372SOL    HW266124   5.785   7.462   2.318 -1.8512 -1.4352 -1.4274
21373SOL     OW66125   3.860   0.442   4.118 -0.7162  0.5835 -0.1434
21373SOL    HW166126   3.917   0.496   4.063 -1.0238 -0.1589 -1.2367
21373SOL    HW266127   3.905   0.358   4.123 -0.0307  1.0222  1.8950
21374SOL     OW66128   4.812   9.032   1.564  0.5067  0.3541  0.0158
21374SOL    HW166129   4.832   8.938   1.555 -0.3912 -0.1133  2.2042
21374SOL    HW266130   4.804   9.045   1.659 -1.5024  2.1804 -0.3478
21375SOL     OW66131   6.642   2.417   5.338  0.2404 -0.4922 -0.1175
21375SOL    HW166132   6.651   2.502   5.381 -0.6972  0.9482 -2.5527
21375SOL    HW266133   6.548   2.407   5.325  0.4259 -1.3241 -0.9201
21376SOL     OW66134   6.572   9.893   7.260  0.2950  0.2844 -0.1561
21376SOL    HW166135   6.533   9.839   7.329 -2.5229 -0.7794 -2.4067
21376SOL    HW266136   6.653   9.847   7.236  0.7868  0.1250  1.6439
21377SOL     OW66137   7.024  10.102   7.114 -0.1417  0.0510  0.1142
21377SOL    HW166138   7.099  10.135   7.064 -0.0535 -0.4589 -0.0915
21377SOL    HW266139   7.059  10.086   7.202 -0.3082  0.9916  0.3590
21378SOL     OW66140   3.179   4.257  10.250 -0.4576  0.6223  0.2210
21378SOL    HW166141   3.240   4.316  10.294 -0.9616  1.1384  0.2476
21378SOL    HW266142   3.138   4.311  10.183 -0.8326  0.2628  0.1573
21379SOL     OW66143   4.187   8.255   2.578 -0.4832 -0.4398  0.1624
21379SOL    HW166144   4.160   8.227   2.666 -1.5181  0.5856  0.1905
21379SOL    HW266145   4.118   8.221   2.520 -0.1997 -0.4585 -0.1657
21380SOL     OW66146   1.441  11.037   9.429  0.0340  0.1673  0.5501
21380SOL    HW166147   1.357  11.081   9.411 -0.0481 -0.6160 -1.2202
21380SOL    HW266148   1.417  10.946   9.448  0.3687  0.3448  1.8898
21381SOL     OW66149   3.410   7.464   4.377  0.1253  0.6187 -0.2238
21381SOL    HW166150   3.343   7.428   4.436 -0.5267  0.7201 -0.8951
21381SOL    HW266151   3.493   7.447   4.423 -0.4450  2.2224  1.5518
21382SOL     OW66152   4.843   8.251   3.213 -0.0394 -0.2511 -0.0755
21382SOL    HW166153   4.780   8.214   3.276  0.3120  0.1757  0.5396
21382SOL    HW266154   4.923   8.263   3.264 -0.1418  1.3672 -0.2540
21383SOL     OW66155   1.669   4.537   8.784  0.0295  0.1905 -0.3041
21383SOL    HW166156   1.729   4.544   8.858  2.3315 -0.6157 -1.9606
21383SOL    HW266157   1.581   4.539   8.823  1.1293 -0.4476  2.4173
21384SOL     OW66158   5.702   0.630   4.947  0.0799 -0.0646  0.6869
21384SOL    HW166159   5.686   0.539   4.921  0.0483 -0.0922  0.8003
21384SOL    HW266160   5.749   0.669   4.873  0.2419 -0.2195  0.7069
21385SOL     OW66161   0.833   7.818   9.063 -0.2315  0.2783  0.0074
21385SOL    HW166162   0.883   7.765   9.125  0.0834  1.1552  0.5266
21385SOL    HW266163   0.876   7.904   9.065  0.8002 -0.0842 -2.6156
21386SOL     OW66164  10.016  11.000   4.072 -0.3599 -0.0709 -0.1904
21386SOL    HW166165   9.993  10.909   4.055  0.0291  0.0099 -1.1960
21386SOL    HW266166   9.936  11.049   4.054 -0.7749 -0.2575  1.0095
21387SOL     OW66167   6.530   7.288   1.284  0.4639  0.1410 -0.1231
21387SOL    HW166168   6.537   7.235   1.363 -0.4254 -2.5630 -1.7194
21387SOL    HW266169   6.530   7.225   1.212  0.8932  2.4439 -2.3007
21388SOL     OW66170   6.405   6.726   3.612 -0.4539  0.5476  0.4335
21388SOL    HW166171   6.440   6.813   3.633  0.2591  0.9116 -1.9113
21388SOL    HW266172   6.483   6.671   3.602 -0.7388  0.3297 -0.7364
21389SOL     OW66173   2.976   3.467   3.617  0.4240 -0.2758  0.4219
21389SOL    HW166174   2.887   3.440   3.638  1.1123 -1.3208  2.2178
21389SOL    HW266175   2.974   3.562   3.623 -0.4575 -0.3143  0.9794
21390SOL     OW66176   0.199   5.554  10.569  0.6573  0.1395  0.5473
21390SOL    HW166177   0.249   5.475  10.586 -0.1705 -0.5335 -0.0616
21390SOL    HW266178   0.107   5.526  10.570  0.2864  1.2962  1.3938
21391SOL     OW66179  10.136   8.823   3.917 -0.1411  0.1387 -0.1486
21391SOL    HW166180  10.214   8.767   3.918 -1.0486 -1.2184 -1.2199
21391SOL    HW266181  10.116   8.835   3.824 -1.2731  0.3709  0.1112
21392SOL     OW66182   3.951   3.776  10.428 -0.6674  0.2458 -0.0093
21392SOL    HW166183   4.018   3.837  10.459 -0.4799  0.5488 -0.9652
21392SOL    HW266184   3.997   3.719  10.366 -1.5222  1.3121 -1.7135
21393SOL     OW66185   7.524   9.697   6.079 -0.4019  0.1729  0.4325
21393SOL    HW166186   7.555   9.656   6.159  1.1490  0.4652  0.0119
21393SOL    HW266187   7.483   9.779   6.107 -0.2044  0.0911  0.9531
21394SOL     OW66188   5.009   6.931   6.093  0.0178  0.5065  0.2330
21394SOL    HW166189   5.054   7.011   6.067  2.0574 -1.0414 -1.3498
21394SOL    HW266190   4.933   6.925   6.034  0.6005  0.6317 -0.5412
21395SOL     OW66191   9.629   1.681   7.616 -0.1704 -0.3499 -0.3091
21395SOL    HW166192   9.550   1.629   7.633 -0.4030  0.9186  3.1975
21395SOL    HW266193   9.597   1.771   7.608  0.9423  0.4634  3.0349
21396SOL     OW66194   5.330   0.492   6.019 -0.3113  0.1313  0.6538
21396SOL    HW166195   5.392   0.505   5.947  1.8525  0.7975  2.5004
21396SOL    HW266196   5.368   0.422   6.071 -0.6985  1.0606  2.2501
21397SOL     OW66197   4.565   8.805   6.814  0.0517  0.1235 -0.0746
21397SOL    HW166198   4.636   8.848   6.766 -0.7340  1.4100 -0.1476
21397SOL    HW266199   4.587   8.819   6.906 -0.2108  0.7505 -0.0971
21398SOL     OW66200   0.359   0.666   7.257 -0.4275 -0.4920  0.0471
21398SOL    HW166201   0.268   0.695   7.257 -0.2975 -0.0800  0.0457
21398SOL    HW266202   0.404   0.729   7.201  0.2829  0.6779  1.8637
21399SOL     OW66203   3.688   4.169   9.675 -0.1507 -0.0577  0.6603
21399SOL    HW166204   3.750   4.157   9.747  1.2651 -0.2665 -0.5450
21399SOL    HW266205   3.722   4.243   9.625 -1.3677  0.3844  0.4323
21400SOL     OW66206   5.735   2.912   7.466 -0.0926 -0.3398 -0.4750
21400SOL    HW166207   5.689   2.952   7.392 -0.9268 -1.8077 -0.7817
21400SOL    HW266208   5.673   2.919   7.539 -0.2157 -1.0191 -0.5153
21401SOL     OW66209   5.218  10.935   5.994  0.0887 -0.1042  0.1660
21401SOL    HW166210   5.247  10.968   5.909  1.0909  0.6530  0.7787
21401SOL    HW266211   5.126  10.910   5.979  0.9221 -2.3851 -1.7703
21402SOL     OW66212   8.066   6.115   6.014 -0.1552  0.1881 -0.3762
21402SOL    HW166213   8.118   6.045   5.974 -1.5868  0.8944 -3.8477
21402SOL    HW266214   8.130   6.183   6.034  0.9491 -1.1551  0.8945
21403SOL     OW66215   9.057   8.260  11.076  0.4713  0.0664 -0.2761
21403SOL    HW166216   9.056   8.312  10.996 -1.7906  0.6127  0.0510
21403SOL    HW266217   9.108   8.312  11.138  0.7349  0.4668 -0.8209
21404SOL     OW66218   3.123   1.348   6.116  0.1767 -0.2551 -0.1807
21404SOL    HW166219   3.049   1.290   6.096  0.1889  0.0904 -1.3334
21404SOL    HW266220   3.120   1.414   6.047  1.2397  0.0788  0.0756
21405SOL     OW66221   2.912   8.197   4.834  0.0704 -0.8128 -0.0681
21405SOL    HW166222   2.986   8.166   4.782 -0.5245 -0.7157 -0.9866
21405SOL    HW266223   2.839   8.141   4.810  0.2275 -2.1076  2.1773
21406SOL     OW66224   4.146   6.988   5.909 -0.1573  0.6007 -0.1610
21406SOL    HW166225   4.188   6.944   5.835  0.1787  2.1642 -0.9466
21406SOL    HW266226   4.055   6.958   5.905  0.1632 -0.4142 -0.3341
21407SOL     OW66227   4.752   8.865   4.280  0.7570 -0.5776 -0.3634
21407SOL    HW166228   4.773   8.794   4.220  2.7814  0.2819 -0.7625
21407SOL    HW266229   4.764   8.827   4.367 -2.8634 -2.0303 -0.3322
21408SOL     OW66230   2.396   9.444   8.122 -0.0737 -0.3361  0.2648
21408SOL    HW166231   2.483   9.407   8.112 -0.0894 -0.4025  0.3691
21408SOL    HW266232   2.403   9.501   8.199 -0.2921 -0.8646  0.6872
21409SOL     OW66233   6.677   0.213   4.230 -0.0377  0.3369  0.6048
21409SOL    HW166234   6.661   0.252   4.316 -0.0378  0.0060  0.7551
21409SOL    HW266235   6.771   0.224   4.216 -0.2298  1.5388  0.0828
21410SOL     OW66236  10.285   4.299   7.371 -0.8963 -0.3939 -0.2592
21410SOL    HW166237  10.297   4.369   7.307  1.1534 -0.2338  0.2163
21410SOL    HW266238  10.203   4.320   7.416 -0.2724  1.8096 -0.0350
21411SOL     OW66239   5.070   4.192   2.478 -0.4996 -0.4357  0.3669
21411SOL    HW166240   5.137   4.125   2.490 -1.5886 -2.0783 -2.0450
21411SOL    HW266241   4.987   4.145   2.485 -1.3638  1.0019  0.3200
21412SOL     OW66242   3.036   1.669   2.371  0.0290 -0.3284 -0.0240
21412SOL    HW166243   2.983   1.732   2.419 -1.7803 -0.6557 -1.5084
21412SOL    HW266244   3.095   1.722   2.318  0.2600  0.0522  0.6010
21413SOL     OW66245   7.552  10.405   9.046  0.0318  0.1579 -0.0232
21413SOL    HW166246   7.572  10.471   9.113 -1.1124  1.3687 -0.8198
21413SOL    HW266247   7.518  10.330   9.094  2.3156 -0.3141  0.9990
21414SOL     OW66248   2.248   7.600   2.782 -0.3818 -0.3198  0.4373
21414SOL    HW166249   2.184   7.529   2.793  0.4976 -1.0609  0.8717
21414SOL    HW266250   2.244   7.648   2.864 -1.1287  0.2768  0.0644
21415SOL     OW66251   6.702   1.653   4.696 -0.3829  0.7496 -0.2659
21415SOL    HW166252   6.668   1.607   4.619 -0.6001  1.0179 -0.3320
21415SOL    HW266253   6.703   1.745   4.670 -1.6623  1.0060  0.4699
21416SOL     OW66254   3.706  10.494   9.308  0.9542  0.5201  0.0709
21416SOL    HW166255   3.639  10.552   9.344  0.6521  0.4142 -0.3149
21416SOL    HW266256   3.787  10.546   9.311  1.0258  0.3726  1.2786
21417SOL     OW66257   6.914   0.096   5.205 -0.1730  0.2027  0.9888
21417SOL    HW166258   6.922   0.048   5.123  1.0939  0.6111  0.8489
21417SOL    HW266259   6.939   0.186   5.183  0.3516  0.2791  1.8460
21418SOL     OW66260   5.638   0.153   3.908 -0.0042 -0.3349  0.1729
21418SOL    HW166261   5.618   0.130   3.817  1.9585  0.9437 -0.6662
21418SOL    HW266262   5.652   0.070   3.952 -2.1129 -1.0256 -0.3880
21419SOL     OW66263   9.566  10.522   1.351  0.4525 -0.9423  0.0199
21419SOL    HW166264   9.605  10.609   1.348 -0.4194 -0.5691 -0.8141
21419SOL    HW266265   9.637  10.463   1.326  0.5727 -0.2953 -1.2382
21420SOL     OW66266   5.465  10.783   0.587 -0.3089 -0.1645 -0.4082
21420SOL    HW166267   5.496  10.716   0.526 -0.1875  0.6471 -1.2477
21420SOL    HW266268   5.537  10.846   0.591 -1.4542  1.2845 -1.6818
21421SOL     OW66269   0.947   6.827   2.850 -0.1875 -0.7640  0.2428
21421SOL    HW166270   0.926   6.869   2.767  1.4917 -0.1090  0.1039
21421SOL    HW266271   1.003   6.752   2.826  1.2663  0.0950  0.8077
21422SOL     OW66272   8.755   0.795   0.382 -0.2842 -0.5026 -0.0245
21422SOL    HW166273   8.660   0.799   0.385 -0.3063  2.2127 -1.5131
21422SOL    HW266274   8.778   0.823   0.293  1.9322  1.1638  0.9550
21423SOL     OW66275   6.175   0.454   3.318  0.0030 -0.2129 -0.0388
21423SOL    HW166276   6.128   0.496   3.390  0.4960  1.6587 -0.7291
21423SOL    HW266277   6.128   0.483   3.239  1.9669  1.3621 -0.7177
21424SOL     OW66278   1.156   6.633   4.356 -0.0243 -0.0385 -0.1555
21424SOL    HW166279   1.119   6.545   4.360  0.8911 -0.3984  0.6320
21424SOL    HW266280   1.082   6.691   4.378  0.2206 -0.8599  3.5171
21425SOL     OW66281  10.553   9.591   4.039 -0.0228 -0.4099 -0.2548
21425SOL    HW166282  10.629   9.547   4.077  0.7244  1.9024  1.0966
21425SOL    HW266283  10.489   9.596   4.110 -1.0421 -1.3682 -1.0730
21426SOL     OW66284   2.837   5.269   3.198  0.1024 -0.1325 -0.0087
21426SOL    HW166285   2.754   5.221   3.197 -0.1734  0.2610 -2.3172
21426SOL    HW266286   2.813   5.359   3.219  0.0731 -0.2152  0.3087
21427SOL     OW66287   6.251   7.000   1.794 -0.5305  0.0884  0.2199
21427SOL    HW166288   6.340   6.965   1.793 -0.0387  1.2857  0.3633
21427SOL    HW266289   6.249   7.063   1.722 -1.4392 -0.3316 -0.1386
21428SOL     OW66290   0.944  10.329  10.805 -0.3226  0.1617 -0.6651
21428SOL    HW166291   0.936  10.234  10.813  0.8307  0.2080  2.3213
21428SOL    HW266292   0.887  10.364  10.874 -0.5871  1.6576 -1.5952
21429SOL     OW66293   3.194   2.165   9.700  0.6915 -0.0633 -0.2921
21429SOL    HW166294   3.131   2.097   9.676 -0.4096  0.7511  0.2129
21429SOL    HW266295   3.238   2.186   9.617  0.9478 -1.2729 -0.4825
21430SOL     OW66296   8.054  10.559   5.279 -0.1464  0.2309 -0.4915
21430SOL    HW166297   8.020  10.542   5.191  1.2604 -0.0738 -0.9908
21430SOL    HW266298   8.149  10.562   5.269  0.1186 -0.9476  1.1998
21431SOL     OW66299   7.435   9.716   8.816  0.7372  0.1711  0.3722
21431SOL    HW166300   7.438   9.803   8.854  0.0338  0.1862  0.4020
21431SOL    HW266301   7.343   9.703   8.793  1.1950  0.3811 -1.8199
21432SOL     OW66302   5.421   8.756   0.362  0.1293  0.4729  0.1025
21432SOL    HW166303   5.389   8.752   0.272 -0.0327 -0.0879  0.1815
21432SOL    HW266304   5.374   8.685   0.407  0.8060  0.2327  0.4412
21433SOL     OW66305   1.197   1.954   1.532 -0.2161  0.0739  0.1108
21433SOL    HW166306   1.267   1.889   1.534 -0.1865 -0.0415 -2.0653
21433SOL    HW266307   1.121   1.908   1.498 -0.6394  0.7885  0.0533
21434SOL     OW66308   2.664   8.172   4.539  0.1684  0.0180 -0.5796
21434SOL    HW166309   2.583   8.179   4.590 -0.1345 -1.3569 -0.8380
21434SOL    HW266310   2.708   8.096   4.575 -0.0280 -0.9583 -2.2987
21435SOL     OW66311   6.177   1.778   4.182 -0.0987 -0.2282 -0.3708
21435SOL    HW166312   6.214   1.771   4.093 -0.2619 -0.2748 -0.4354
21435SOL    HW266313   6.095   1.728   4.177  0.6808 -1.6395  0.2426
21436SOL     OW66314   3.199   7.302   4.470  0.1752  0.5288  0.2929
21436SOL    HW166315   3.155   7.317   4.554 -1.7460 -1.1918 -0.3303
21436SOL    HW266316   3.129   7.273   4.411  1.3508  2.1729 -2.0973
21437SOL     OW66317   6.506  10.333   7.041 -0.4073  0.4093  0.3112
21437SOL    HW166318   6.418  10.302   7.020 -0.4881  0.3508  0.7273
21437SOL    HW266319   6.544  10.263   7.094 -0.0607  0.3744  0.0171
21438SOL     OW66320   0.598   0.434   6.392  1.0043  0.5256 -0.6065
21438SOL    HW166321   0.553   0.424   6.476 -0.4878  1.8028 -1.2031
21438SOL    HW266322   0.672   0.374   6.398  1.6515  1.4126  2.0898
21439SOL     OW66323   1.814   0.109   7.804 -0.2696  0.5209  0.0985
21439SOL    HW166324   1.890   0.055   7.828  1.2967  2.0843 -1.0318
21439SOL    HW266325   1.798   0.164   7.881  0.5505  1.0107 -0.0658
21440SOL     OW66326   6.968   9.428   2.457 -0.2623 -0.2281  0.3021
21440SOL    HW166327   7.044   9.476   2.427 -0.9708 -0.2011 -1.6305
21440SOL    HW266328   6.934   9.385   2.378 -0.6769 -2.4713  1.6037
21441SOL     OW66329   6.394   0.689   3.326 -0.3164 -0.3742  0.2116
21441SOL    HW166330   6.328   0.730   3.270  0.4051  0.6264  0.0684
21441SOL    HW266331   6.383   0.731   3.411 -0.6097 -1.0291  0.5034
21442SOL     OW66332   1.598   2.440   4.811  0.0269 -0.2368 -0.3062
21442SOL    HW166333   1.602   2.524   4.857 -0.6956  1.3713 -2.9609
21442SOL    HW266334   1.686   2.404   4.819  0.2241  0.5220  1.2782
21443SOL     OW66335   8.474  10.718   4.539 -0.0281 -0.0226  0.6815
21443SOL    HW166336   8.401  10.671   4.499  0.8581 -1.7002  0.9367
21443SOL    HW266337   8.535  10.732   4.468  0.0502  0.0467  0.7631
21444SOL     OW66338   2.745   5.847   7.753 -0.3554 -0.3725  0.7441
21444SOL    HW166339   2.809   5.875   7.687  0.8824 -0.0315  2.0351
21444SOL    HW266340   2.784   5.767   7.790 -0.7705 -0.2577  1.4288
21445SOL     OW66341   2.182  10.346   4.273  0.3394  0.6651  0.4705
21445SOL    HW166342   2.115  10.334   4.206  0.2383  0.0105  0.6773
21445SOL    HW266343   2.145  10.409   4.334  0.2123  0.8573  0.1948
21446SOL     OW66344   2.936   3.808   4.273 -0.0438 -0.8622 -0.0984
21446SOL    HW166345   2.868   3.876   4.278  0.9391  0.0974  0.9348
21446SOL    HW266346   2.918   3.751   4.348 -0.4714 -1.3634 -0.5784
21447SOL     OW66347   2.093   0.670   8.658  0.2489 -0.0345  0.3294
21447SOL    HW166348   2.123   0.759   8.639 -1.4970  0.8783  1.5362
21447SOL    HW266349   2.084   0.668   8.754 -2.7400 -0.4039  0.1393
21448SOL     OW66350   8.510   9.938   3.344  0.4927 -0.2690 -0.3907
21448SOL    HW166351   8.444   9.872   3.366 -0.4726  0.9145  0.4043
21448SOL    HW266352   8.537   9.916   3.255  0.2613 -1.7713 -0.1157
21449SOL     OW66353   5.037   1.964   5.137 -0.2459  0.4882  0.9517
21449SOL    HW166354   5.129   1.989   5.130  0.1046 -0.9490  0.1367
21449SOL    HW266355   5.006   1.957   5.046 -0.7504 -0.4617  1.1841
21450SOL     OW66356  10.710   1.429   7.427  0.0505 -0.3359  0.1663
21450SOL    HW166357  10.740   1.433   7.518 -0.8926 -1.7818  0.5809
21450SOL    HW266358  10.791   1.433   7.375  0.8602 -2.2852  1.1787
21451SOL     OW66359   2.547   8.366   7.116 -0.0001 -0.2190  0.8100
21451SOL    HW166360   2.579   8.390   7.203 -1.2832 -1.7969  1.7653
21451SOL    HW266361   2.602   8.292   7.090  0.1543  0.0294  0.4206
21452SOL     OW66362   0.538   2.331   0.400 -0.2709  0.1986 -0.4290
21452SOL    HW166363   0.616   2.290   0.436 -0.1371  0.6031 -0.2574
21452SOL    HW266364   0.465   2.285   0.441 -0.1190  0.4473  0.1192
21453SOL     OW66365   3.573   2.072   2.983 -0.2257  0.2705  0.7578
21453SOL    HW166366   3.575   2.166   3.000  0.5258  1.1522 -3.1800
21453SOL    HW266367   3.480   2.051   2.974 -0.3525  1.4506 -1.4423
21454SOL     OW66368   1.642   2.785   5.666 -0.1733 -0.2617  0.2734
21454SOL    HW166369   1.692   2.813   5.742  0.7030  0.4111 -0.5213
21454SOL    HW266370   1.598   2.704   5.694 -1.2044  0.8471  1.9997
21455SOL     OW66371   2.958   0.080   3.392  0.0258  0.5433  0.3536
21455SOL    HW166372   2.930   0.117   3.309  0.7948 -2.7252 -1.5451
21455SOL    HW266373   2.957   0.153   3.453 -1.4519  2.9024 -2.2830
21456SOL     OW66374   1.008   3.507   1.470  0.0934  0.0987 -0.4672
21456SOL    HW166375   0.926   3.546   1.441 -0.4770 -0.7954 -0.0982
21456SOL    HW266376   1.005   3.417   1.438 -0.3076 -0.7689  1.7942
21457SOL     OW66377   0.068   0.593   0.253  0.2786  0.8458 -0.5068
21457SOL    HW166378  -0.005   0.531   0.253 -0.1946  1.3912 -0.8731
21457SOL    HW266379   0.099   0.594   0.343  0.6356 -0.3049 -0.5875
21458SOL     OW66380   6.309   6.917   4.152  0.4869  0.1355  0.2340
21458SOL    HW166381   6.315   6.917   4.248  2.5383  0.1116  0.1482
21458SOL    HW266382   6.256   6.840   4.131 -0.7926  0.6645  1.3505
21459SOL     OW66383   6.449   8.562   5.597  0.2510 -0.2856 -0.1851
21459SOL    HW166384   6.519   8.626   5.583 -0.0467  0.3157  0.9600
21459SOL    HW266385   6.490   8.477   5.581  0.8424  0.1475 -1.0075
21460SOL     OW66386   6.613   3.897   2.793 -0.1049 -0.2500 -0.1590
21460SOL    HW166387   6.575   3.810   2.778  2.4430 -1.4029 -0.4927
21460SOL    HW266388   6.647   3.892   2.882 -0.0941  0.4797 -0.1221
21461SOL     OW66389   7.120   9.297   0.072  0.9007  0.1508  0.2378
21461SOL    HW166390   7.067   9.376   0.060  1.0337  0.2306  0.1778
21461SOL    HW266391   7.116   9.252  -0.012  1.5942  0.5639 -0.0299
21462SOL     OW66392   6.494   1.014   4.790 -0.0314  0.7522 -0.2424
21462SOL    HW166393   6.444   1.078   4.840 -0.2600  1.7055 -1.6220
21462SOL    HW266394   6.524   1.062   4.712  3.0674  0.2614  0.4984
21463SOL     OW66395   1.434   7.341   2.846  0.1444  0.5994  0.1896
21463SOL    HW166396   1.369   7.288   2.801  0.4535  0.2964  0.0988
21463SOL    HW266397   1.508   7.345   2.785  0.0975  1.1913  0.1638
21464SOL     OW66398   0.867   9.787   1.075 -0.1675  0.6660  0.6222
21464SOL    HW166399   0.923   9.714   1.049  0.0777  0.9659  0.2916
21464SOL    HW266400   0.778   9.751   1.072  0.0590 -0.0778  2.0737
21465SOL     OW66401   3.876   0.261   5.675 -0.4010  0.0979  0.3030
21465SOL    HW166402   3.881   0.171   5.709 -0.9738  0.1311  0.4883
21465SOL    HW266403   3.930   0.312   5.735  1.0820 -0.3427 -0.6102
21466SOL     OW66404   6.180   7.634   8.859  0.1833  0.6534 -0.0755
21466SOL    HW166405   6.208   7.644   8.768  0.5955 -0.1598 -0.0537
21466SOL    HW266406   6.097   7.587   8.853  0.4197  0.2201 -0.0254
21467SOL     OW66407   1.991   9.946   6.131  0.5785  0.4211  0.2935
21467SOL    HW166408   2.016   9.865   6.087 -1.4002  0.6061 -1.3531
21467SOL    HW266409   1.915   9.922   6.184 -0.4566  1.2746 -0.7445
21468SOL     OW66410  10.860   0.489   9.269  0.0990  0.3997  0.4356
21468SOL    HW166411  10.892   0.511   9.181  0.8760  3.0982  1.2838
21468SOL    HW266412  10.911   0.413   9.295  1.7136  1.1082 -0.5064
21469SOL     OW66413   6.516   8.714   5.948  0.1274  0.2196  0.1111
21469SOL    HW166414   6.482   8.700   6.036 -0.1930  2.7691  0.4622
21469SOL    HW266415   6.609   8.691   5.954 -0.0292 -0.2125  0.9500
21470SOL     OW66416   6.227   8.223   8.268  0.1973  0.1719 -0.4732
21470SOL    HW166417   6.246   8.204   8.176 -1.7485  0.4079 -0.9624
21470SOL    HW266418   6.161   8.158   8.292  0.3182  0.4376  0.6095
21471SOL     OW66419   5.139   5.531   2.451  0.5748  0.1292 -0.3467
21471SOL    HW166420   5.060   5.483   2.476 -0.7330  1.3244 -1.9522
21471SOL    HW266421   5.186   5.544   2.533  0.0849 -2.2602  0.3877
21472SOL     OW66422   3.512   5.402   5.316 -0.1718 -0.0893 -0.7121
21472SOL    HW166423   3.466   5.479   5.349  1.1435 -0.4615  2.3844
21472SOL    HW266424   3.587   5.437   5.267 -1.6763  0.5046 -2.6898
21473SOL     OW66425   6.393   5.122   9.709  0.3690 -0.2394 -0.3024
21473SOL    HW166426   6.421   5.096   9.797  0.5341  0.0029 -0.2816
21473SOL    HW266427   6.318   5.066   9.690  0.2365 -0.1856  0.0536
21474SOL     OW66428   7.434   5.962   8.139 -0.2175 -0.0429  0.3436
21474SOL    HW166429   7.484   5.919   8.208  0.4698 -1.3605 -0.9379
21474SOL    HW266430   7.396   6.039   8.182  1.6359  0.1679  1.7396
21475SOL     OW66431   3.804   3.051   6.648  0.3069 -0.4762  0.4622
21475SOL    HW166432   3.843   3.111   6.711 -0.0039 -0.9934  1.1576
21475SOL    HW266433   3.861   3.057   6.571  0.3102  0.6550  0.5449
21476SOL     OW66434   4.261   5.098   3.214 -0.2671 -0.5993 -0.1697
21476SOL    HW166435   4.348   5.067   3.189 -0.3012 -1.2416  0.4923
21476SOL    HW266436   4.207   5.019   3.213 -0.9085 -0.1688 -0.8175
21477SOL     OW66437   8.361   9.075   6.029  0.1757 -0.5055 -0.7857
21477SOL    HW166438   8.350   9.083   6.124 -0.9237  0.1869 -0.9630
21477SOL    HW266439   8.415   8.997   6.019 -0.0942 -0.8754  0.3909
21478SOL     OW66440   4.023   3.777   8.866  0.4468 -0.1512 -0.0214
21478SOL    HW166441   4.100   3.740   8.823 -0.0226 -1.0099 -0.1306
21478SOL    HW266442   3.993   3.710   8.927  0.8731  0.9047  1.4087
21479SOL     OW66443   2.144   0.235   2.240  0.1331  0.0690 -0.4074
21479SOL    HW166444   2.226   0.210   2.199  0.0647 -1.9886  0.5606
21479SOL    HW266445   2.077   0.217   2.174  0.4831  3.6547 -1.9655
21480SOL     OW66446   6.638   3.193   1.732  0.0431  0.0029  0.1358
21480SOL    HW166447   6.633   3.100   1.752 -2.3561 -0.3877 -1.7556
21480SOL    HW266448   6.652   3.236   1.816  1.1795 -2.0146  1.0481
21481SOL     OW66449   3.454   4.831   3.448  0.2527 -0.3892 -0.4953
21481SOL    HW166450   3.534   4.853   3.400  0.9452  0.0964  0.8306
21481SOL    HW266451   3.486   4.792   3.530 -0.7552  1.8592  1.0776
21482SOL     OW66452  10.284   4.194   9.306  0.6109 -0.0839 -0.4146
21482SOL    HW166453  10.208   4.195   9.363  1.0301  1.5560  0.1762
21482SOL    HW266454  10.248   4.187   9.217 -0.4788  3.3009 -0.3639
21483SOL     OW66455   4.354   5.242  10.308 -0.0091 -0.2768 -0.3635
21483SOL    HW166456   4.315   5.156  10.324  0.1515 -0.4807 -1.0438
21483SOL    HW266457   4.422   5.251  10.375  0.9914 -1.3216 -1.1966
21484SOL     OW66458   0.648   0.947   8.402 -0.3583 -0.3626  0.2057
21484SOL    HW166459   0.678   1.033   8.431  0.3766 -0.5049 -0.1063
21484SOL    HW266460   0.719   0.888   8.426 -0.9844 -0.9303  0.6716
21485SOL     OW66461   4.004   3.939   6.986  0.5842 -1.1618  0.0509
21485SOL    HW166462   3.959   4.023   6.994 -0.5567 -1.4128 -2.6877
21485SOL    HW266463   4.012   3.908   7.076 -0.7769  0.9373  0.9857
21486SOL     OW66464   6.589   8.050   0.757  1.4613 -0.2696 -0.3861
21486SOL    HW166465   6.638   8.120   0.713 -0.1101  0.5298 -0.9564
21486SOL    HW266466   6.562   8.088   0.840 -0.3001  0.2457 -1.1415
21487SOL     OW66467   4.510  11.040   2.856 -0.4970 -0.1955  0.0984
21487SOL    HW166468   4.575  10.970   2.859  0.9178  1.0803  0.4538
21487SOL    HW266469   4.546  11.104   2.794 -1.5253  0.4513  0.1376
21488SOL     OW66470   3.907   1.314   7.030 -0.2140 -0.3050 -0.4727
21488SOL    HW166471   3.812   1.322   7.025 -0.7586 -2.0900  3.4260
21488SOL    HW266472   3.935   1.390   7.082  0.4628 -0.0814 -1.1385
21489SOL     OW66473   4.615   8.825   6.342  0.1126  0.2471 -0.0322
21489SOL    HW166474   4.591   8.734   6.327  2.2326 -0.1649 -1.1669
21489SOL    HW266475   4.693   8.822   6.397  0.2443  1.3932 -0.1170
21490SOL     OW66476   5.155   8.447   5.395 -0.1783  0.2596  0.2113
21490SOL    HW166477   5.227   8.390   5.422 -0.0981  0.4618  0.4301
21490SOL    HW266478   5.139   8.423   5.304  1.0610  1.1308 -0.2641
21491SOL     OW66479   0.739   5.187   4.745  0.5384  0.5701 -0.3387
21491SOL    HW166480   0.722   5.261   4.687 -1.5032  0.8993  0.5959
21491SOL    HW266481   0.652   5.153   4.767  1.3562 -2.8747 -1.6312
21492SOL     OW66482   8.505   6.950   4.965 -0.3399 -0.4733 -0.5603
21492SOL    HW166483   8.562   6.883   5.004 -1.5370 -0.3270  1.6466
21492SOL    HW266484   8.420   6.936   5.007 -1.7904 -0.2638 -3.2588
21493SOL     OW66485   4.627  10.009   8.672  0.5385 -0.6965 -0.1335
21493SOL    HW166486   4.665  10.080   8.723  1.0956 -1.4119  0.4772
21493SOL    HW266487   4.543   9.990   8.715  0.0682  0.0381 -0.7134
21494SOL     OW66488   4.270   7.812   2.286  0.6931  0.0623 -0.1422
21494SOL    HW166489   4.258   7.896   2.329 -0.0122  0.1642 -0.5299
21494SOL    HW266490   4.313   7.757   2.351  3.3609  1.3999 -0.6378
21495SOL     OW66491   1.896  10.560   0.863 -0.4316  0.2410  0.5293
21495SOL    HW166492   1.874  10.648   0.894 -0.7223 -0.0750  1.2313
21495SOL    HW266493   1.972  10.573   0.807 -1.1974  1.0989 -0.3564
21496SOL     OW66494   6.612   5.588   5.591 -0.6273  0.0459 -0.1772
21496SOL    HW166495   6.542   5.621   5.647  0.3181  0.3189  0.8775
21496SOL    HW266496   6.640   5.663   5.539 -2.5389 -0.5391 -2.2314
21497SOL     OW66497   0.751   8.640   7.441 -0.0817  0.2538 -0.5920
21497SOL    HW166498   0.814   8.569   7.428 -0.2164 -0.0323  0.2643
21497SOL    HW266499   0.771   8.673   7.529 -2.2735 -1.0294  0.4655
21498SOL     OW66500   9.149   6.229  10.752 -0.2013  0.8570 -0.0010
21498SOL    HW166501   9.207   6.304  10.764 -2.1485  2.0253  3.5184
21498SOL    HW266502   9.062   6.267  10.740 -1.0211 -0.8465  0.1655
21499SOL     OW66503   3.263   7.379   5.844 -0.1100  0.3821 -0.5522
21499SOL    HW166504   3.294   7.462   5.880 -0.0685 -0.3708  1.2681
21499SOL    HW266505   3.168   7.387   5.843 -0.2072 -0.1087  1.2044
21500SOL     OW66506   6.383   2.813   1.970  0.2882 -0.0334 -0.3329
21500SOL    HW166507   6.409   2.897   2.007 -0.2726  0.5846 -1.3227
21500SOL    HW266508   6.344   2.766   2.044  0.9037  0.4316  0.3078
21501SOL     OW66509   3.607   3.469   8.476 -0.7429 -0.3175  0.2405
21501SOL    HW166510   3.568   3.425   8.552  0.0846 -3.3873 -0.9345
21501SOL    HW266511   3.532   3.501   8.425 -1.3025  2.9668  2.7959
21502SOL     OW66512   5.924   3.991   0.781 -0.2425  0.0339 -0.6283
21502SOL    HW166513   5.964   4.025   0.701  0.3259 -0.7233 -0.6756
21502SOL    HW266514   5.840   4.038   0.787  0.8218  2.0036 -0.2615
21503SOL     OW66515   2.617   5.558   6.018  0.4246 -0.1398 -0.2938
21503SOL    HW166516   2.619   5.640   6.067 -0.4218 -0.6388  0.5904
21503SOL    HW266517   2.639   5.584   5.928  2.4457  0.7281  0.3806
21504SOL     OW66518   6.181   7.428   6.018 -0.0040  0.1476 -0.1260
21504SOL    HW166519   6.268   7.410   5.983  0.4711  0.9935  0.5767
21504SOL    HW266520   6.177   7.377   6.099  0.4428  1.3076  0.6436
21505SOL     OW66521   4.012  11.074   0.961 -0.0329 -0.4702 -0.2816
21505SOL    HW166522   4.057  10.990   0.969 -0.7642 -0.7652  0.9845
21505SOL    HW266523   3.922  11.052   0.939 -0.1503  0.0018 -0.2872
21506SOL     OW66524   8.763   7.926   0.268 -0.2056 -0.6250 -0.0044
21506SOL    HW166525   8.708   8.001   0.289 -0.7012 -1.7364  3.1878
21506SOL    HW266526   8.708   7.870   0.213 -0.3938  0.5304 -1.0476
21507SOL     OW66527   8.028   7.951   9.032  0.3719 -0.3355  0.0863
21507SOL    HW166528   8.055   7.964   9.123  0.0443 -0.9444  0.2756
21507SOL    HW266529   7.942   7.993   9.026  0.3279 -0.4225  0.1004
21508SOL     OW66530   1.621   6.122   5.726  0.1418  0.3773 -0.0729
21508SOL    HW166531   1.663   6.204   5.749  1.2345  0.9559 -3.5219
21508SOL    HW266532   1.536   6.125   5.770  0.8835  2.4718  1.3445
21509SOL     OW66533   8.758   4.787   4.501 -0.1829  0.2818  0.4236
21509SOL    HW166534   8.677   4.834   4.480  0.6859  1.9939  0.7367
21509SOL    HW266535   8.796   4.766   4.415  0.2703  1.7277  0.2457
21510SOL     OW66536  10.602  10.653   5.393  0.1971 -0.2408 -0.0805
21510SOL    HW166537  10.613  10.686   5.304  0.4192  0.5834  0.2513
21510SOL    HW266538  10.686  10.667   5.435  1.0150 -3.1209 -0.5138
21511SOL     OW66539   0.222   6.434   8.084  0.2194  0.5494 -0.1767
21511SOL    HW166540   0.159   6.448   8.154 -1.7234  2.3314 -2.1238
21511SOL    HW266541   0.194   6.352   8.042 -0.3915  0.9690 -0.5996
21512SOL     OW66542   6.114   4.967   5.252  0.5819  0.0702 -0.2824
21512SOL    HW166543   6.100   4.886   5.302  0.7723 -0.1998 -0.6597
21512SOL    HW266544   6.198   4.953   5.208  0.6884  0.5389 -0.2249
21513SOL     OW66545   6.121   9.985   0.829 -0.0705 -0.3633  0.2939
21513SOL    HW166546   6.125   9.964   0.922 -0.2896  0.2196  0.4452
21513SOL    HW266547   6.194   9.938   0.789 -0.8587 -1.8266  0.5095
21514SOL     OW66548   6.524   4.939   8.450  0.2463  0.0534  0.2106
21514SOL    HW166549   6.587   4.909   8.385 -2.2700 -1.3787 -1.7594
21514SOL    HW266550   6.534   4.878   8.523  1.0172 -0.2723 -0.1627
21515SOL     OW66551   3.853   9.667   1.041  0.0957  0.2373  0.0800
21515SOL    HW166552   3.875   9.613   1.117 -1.7700 -2.7694 -1.3276
21515SOL    HW266553   3.757   9.662   1.035  0.1327  0.9895 -2.0172
21516SOL     OW66554   8.003   2.158   7.828 -0.5301 -0.4062  0.2486
21516SOL    HW166555   8.024   2.251   7.820 -0.4375 -0.4786 -0.4446
21516SOL    HW266556   7.988   2.129   7.737 -1.1412 -0.9287  0.5058
21517SOL     OW66557   8.830   5.297   7.739  0.2533 -0.0725  0.7210
21517SOL    HW166558   8.910   5.281   7.788  1.3328 -1.9354 -1.4346
21517SOL    HW266559   8.766   5.238   7.779 -0.0265  1.1723  2.2264
21518SOL     OW66560   2.544   7.967   9.903 -0.4293  0.2838 -0.5892
21518SOL    HW166561   2.527   7.878   9.936  1.5102  0.8077  2.1563
21518SOL    HW266562   2.468   8.017   9.932 -0.7470 -0.1356 -0.6794
21519SOL     OW66563   3.016   2.572   7.201 -0.0603 -0.3025  0.6227
21519SOL    HW166564   3.110   2.555   7.210  0.2313  1.5035  1.3653
21519SOL    HW266565   2.980   2.553   7.287 -0.0441  0.8815  0.8989
21520SOL     OW66566   1.130   7.901   4.905 -0.6520 -0.1759  1.2155
21520SOL    HW166567   1.173   7.834   4.959  0.5032  0.6657  1.3598
21520SOL    HW266568   1.194   7.923   4.838 -2.4255 -1.9539 -1.2519
21521SOL     OW66569   6.975  10.807   3.914  0.1558  0.1026  0.3109
21521SOL    HW166570   6.921  10.799   3.835 -0.0183  1.0123  0.3256
21521SOL    HW266571   7.065  10.797   3.882  0.2085  1.9930 -0.2899
21522SOL     OW66572   0.677   0.241   2.236  0.1655  0.0664 -0.1701
21522SOL    HW166573   0.725   0.180   2.180  1.0081  1.0965 -0.5982
21522SOL    HW266574   0.700   0.327   2.203  1.6283  0.8082  2.4557
21523SOL     OW66575   7.205   3.082   2.721  0.2206  0.1089 -0.1136
21523SOL    HW166576   7.163   3.131   2.791 -1.7204 -0.1045 -1.0619
21523SOL    HW266577   7.194   2.990   2.746  2.0958  0.0754  0.6902
21524SOL     OW66578   1.578   7.692   8.262 -0.2708  0.2133  0.0097
21524SOL    HW166579   1.614   7.672   8.176 -0.5544  0.0004 -0.0619
21524SOL    HW266580   1.649   7.738   8.308  0.3829 -0.8989  0.1609
21525SOL     OW66581   4.626   2.996   1.575  0.2878  0.2165 -0.2940
21525SOL    HW166582   4.643   2.986   1.669 -1.8810  0.3998  0.1644
21525SOL    HW266583   4.638   2.909   1.539 -1.2186 -0.3936  0.6013
21526SOL     OW66584  10.733   8.988   4.979 -0.1132  0.5459  0.1531
21526SOL    HW166585  10.820   9.022   4.998  0.2804  0.5259 -1.4375
21526SOL    HW266586  10.743   8.893   4.984  0.2355  0.5038 -1.0004
21527SOL     OW66587   5.021   1.272   9.466  0.3565 -0.1302 -0.4214
21527SOL    HW166588   5.046   1.181   9.480  1.4447 -0.1175 -1.9917
21527SOL    HW266589   4.931   1.279   9.499  0.4704 -1.6025  0.2490
21528SOL     OW66590   3.584   3.006   0.077 -0.9801  0.0689 -0.2439
21528SOL    HW166591   3.521   3.057   0.129 -0.5553 -1.0317  1.4217
21528SOL    HW266592   3.669   3.043   0.100 -0.8832  0.5573 -1.3363
21529SOL     OW66593   6.000   0.102   1.513  1.0251  0.1878  0.5128
21529SOL    HW166594   6.074   0.070   1.462  0.4882  0.5033 -0.4948
21529SOL    HW266595   5.940   0.027   1.519  0.0893  0.7544 -1.2399
21530SOL     OW66596   6.994   6.929   8.944 -0.4852  0.2069  0.7881
21530SOL    HW166597   6.986   6.967   8.856  0.0525 -0.1582  0.5807
21530SOL    HW266598   6.960   6.840   8.934 -1.0559  0.3789  1.1112
21531SOL     OW66599   3.478  10.682   9.187 -0.1902  0.0700  0.2289
21531SOL    HW166600   3.472  10.631   9.106  0.2689 -0.6339  0.6284
21531SOL    HW266601   3.456  10.771   9.161 -0.0913 -0.1600 -0.6667
21532SOL     OW66602   6.024   7.617   6.685 -0.3683 -0.1533 -0.3016
21532SOL    HW166603   6.049   7.588   6.597  0.4187 -1.0734  0.2111
21532SOL    HW266604   6.060   7.706   6.692 -0.1459 -0.2039 -0.7778
21533SOL     OW66605   7.166   4.386   8.979  0.5300 -0.0758 -0.0124
21533SOL    HW166606   7.188   4.386   9.072 -0.3698  2.8178  0.2941
21533SOL    HW266607   7.072   4.368   8.976  0.5410 -0.0850 -0.3571
21534SOL     OW66608   6.776   4.927   8.691 -0.1715  0.1480 -0.0559
21534SOL    HW166609   6.749   4.839   8.719 -0.4265 -0.0174 -0.8105
21534SOL    HW266610   6.753   4.983   8.766  0.0730 -0.4332  0.4657
21535SOL     OW66611   0.262   8.438   2.090 -0.2317  0.2588 -0.1079
21535SOL    HW166612   0.174   8.455   2.057 -0.3438  1.4530  0.7481
21535SOL    HW266613   0.264   8.478   2.177  1.0401 -0.0717  0.0428
21536SOL     OW66614   8.808   2.458   6.254 -0.0114 -0.1889  0.1774
21536SOL    HW166615   8.729   2.447   6.201 -0.9195  0.5118  1.3188
21536SOL    HW266616   8.817   2.375   6.301  0.4430 -0.5865 -0.6001
21537SOL     OW66617  10.387   7.044   1.657 -0.5734  0.0562 -0.0523
21537SOL    HW166618  10.320   7.011   1.716  0.4266  0.7811  1.5449
21537SOL    HW266619  10.344   7.111   1.605 -1.4992 -0.6879 -0.2724
21538SOL     OW66620   6.531   8.036   9.821  0.1975  0.3608  0.0603
21538SOL    HW166621   6.505   8.066   9.908  0.7016  1.4598 -0.1513
21538SOL    HW266622   6.448   8.019   9.776 -0.0725  0.3384  0.5577
21539SOL     OW66623   3.263   3.382   9.298 -0.1714  0.2137  0.3505
21539SOL    HW166624   3.203   3.371   9.372 -0.2790  1.1171  0.3980
21539SOL    HW266625   3.206   3.385   9.221 -0.5051  3.8493  0.5900
21540SOL     OW66626   7.704  10.604   7.786 -0.2364 -0.0400  0.4177
21540SOL    HW166627   7.655  10.637   7.711 -1.4844 -0.7087  0.9058
21540SOL    HW266628   7.789  10.578   7.750  0.4515  2.7096 -0.1492
21541SOL     OW66629   0.338   0.541   0.090  0.2386  0.0947  0.1292
21541SOL    HW166630   0.267   0.577   0.144 -1.1678 -1.2537 -0.7496
21541SOL    HW266631   0.397   0.501   0.154 -0.6411 -0.1999  0.7830
21542SOL     OW66632   4.636   9.923   5.135 -0.3665  0.2290  0.1861
21542SOL    HW166633   4.591   9.838   5.129  0.1731 -0.0232 -0.3477
21542SOL    HW266634   4.583   9.981   5.080  0.2443 -0.2022 -0.8882
21543SOL     OW66635   2.188   5.772   3.928 -0.1945  0.2213  0.6915
21543SOL    HW166636   2.161   5.862   3.944 -1.2851 -0.4008  2.7338
21543SOL    HW266637   2.194   5.733   4.015  0.1848 -1.6967 -0.1413
21544SOL     OW66638  10.960   8.559   6.280  0.0248  0.1099  0.4201
21544SOL    HW166639  10.966   8.653   6.263  0.0889  0.0116 -0.1356
21544SOL    HW266640  10.879   8.532   6.235 -0.2213 -0.0260  0.9390
21545SOL     OW66641   6.500   1.366  10.051  0.0895 -0.1903 -0.0885
21545SOL    HW166642   6.438   1.293  10.048  0.2098 -0.2938 -2.7111
21545SOL    HW266643   6.573   1.334  10.105  0.2129 -2.1293 -1.3004
21546SOL     OW66644  10.976   6.491  10.359  0.2111 -0.6266 -0.2214
21546SOL    HW166645  10.969   6.449  10.273 -0.2629 -1.9026  0.3994
21546SOL    HW266646  11.068   6.516  10.367  0.4029 -1.1099 -0.8334
21547SOL     OW66647   7.385   5.865   7.858  0.0926  0.1291  0.0002
21547SOL    HW166648   7.335   5.784   7.868 -3.4213  2.2347  1.3991
21547SOL    HW266649   7.416   5.885   7.946  0.8687  0.3833 -0.3207
21548SOL     OW66650   2.790   3.014   6.411 -0.2479  0.6201 -0.2118
21548SOL    HW166651   2.856   3.018   6.480 -0.4571 -0.8251  0.1042
21548SOL    HW266652   2.830   2.961   6.342 -1.5641 -1.5858  0.6148
21549SOL     OW66653   1.658   2.268   0.302 -0.0846  0.1072 -0.0783
21549SOL    HW166654   1.695   2.355   0.313 -0.1588  0.2725 -1.0921
21549SOL    HW266655   1.639   2.261   0.209  3.0999 -2.2473 -0.7457
21550SOL     OW66656   7.329   8.282   3.435  0.4187  0.1850  0.6722
21550SOL    HW166657   7.248   8.237   3.459  0.0423  0.6846  0.3543
21550SOL    HW266658   7.394   8.250   3.498 -0.2498  0.5162  1.5509
21551SOL     OW66659   3.849   5.892  10.835 -0.3691  0.2599 -0.3665
21551SOL    HW166660   3.878   5.983  10.840  0.8580 -0.1439  0.2544
21551SOL    HW266661   3.839   5.875  10.741 -0.0815  0.8795 -0.5107
21552SOL     OW66662   4.605   6.523   2.240 -0.1232  0.0631  0.2652
21552SOL    HW166663   4.642   6.492   2.323  0.9470 -0.6652 -0.4556
21552SOL    HW266664   4.669   6.496   2.174  0.1192  2.4642 -0.5805
21553SOL     OW66665   5.083   6.906   9.503 -0.0972  0.2385 -0.6235
21553SOL    HW166666   4.992   6.882   9.518  0.6240 -1.9622  0.6020
21553SOL    HW266667   5.134   6.845   9.557  2.2424 -0.6268 -3.5253
21554SOL     OW66668   9.027   6.680   7.484  0.8060  0.3433  0.0172
21554SOL    HW166669   9.103   6.680   7.542  0.8061  0.6394  0.0177
21554SOL    HW266670   8.966   6.619   7.525  0.1842  1.6689  1.1446
21555SOL     OW66671   1.836   0.888   3.681 -0.1650  0.4713 -0.2158
21555SOL    HW166672   1.925   0.855   3.692 -0.5649 -0.5940 -0.0021
21555SOL    HW266673   1.803   0.895   3.771 -0.2608  0.9735 -0.2892
21556SOL     OW66674   4.030   8.720   9.357 -0.2049  0.4649  0.0698
21556SOL    HW166675   4.041   8.676   9.273 -1.2638  0.5375 -0.1163
21556SOL    HW266676   4.103   8.688   9.411 -0.4825 -0.8926 -0.3268
21557SOL     OW66677   7.292   1.897  10.230 -0.2869 -0.2576  0.2011
21557SOL    HW166678   7.336   1.926  10.150 -1.5553 -1.5488 -1.0312
21557SOL    HW266679   7.361   1.894  10.296  1.0955 -0.4616 -1.2045
21558SOL     OW66680   2.028   2.711   1.146  0.2180 -1.0695 -0.0776
21558SOL    HW166681   2.073   2.647   1.091  1.4283 -1.2248  1.0555
21558SOL    HW266682   2.038   2.794   1.099  2.0083 -1.0378  0.2674
21559SOL     OW66683   2.978   1.596  10.052  0.1976 -0.3690  0.3109
21559SOL    HW166684   3.027   1.531  10.102 -0.4970 -0.3331  1.0712
21559SOL    HW266685   2.890   1.558  10.043  0.3183 -0.4016 -0.9586
21560SOL     OW66686   5.308  10.337   8.683  0.0393 -0.1710 -0.3733
21560SOL    HW166687   5.261  10.350   8.765  2.8134 -2.2667  1.7656
21560SOL    HW266688   5.241  10.346   8.615 -3.0659 -1.2205  2.2701
21561SOL     OW66689   6.170   3.232   7.780 -0.2396  0.2223 -0.5245
21561SOL    HW166690   6.128   3.235   7.694  0.4733 -0.6381 -0.9307
21561SOL    HW266691   6.262   3.214   7.760  0.0659  0.7341  0.3932
21562SOL     OW66692   6.287   7.819   5.324 -0.0305  0.2689  0.5121
21562SOL    HW166693   6.352   7.758   5.359  2.3782  2.4452  0.1688
21562SOL    HW266694   6.288   7.803   5.230 -1.6275 -1.1241  0.6998
21563SOL     OW66695   4.501   7.366   8.531  0.3519  0.0905 -0.1165
21563SOL    HW166696   4.548   7.284   8.543 -0.6260 -0.6022 -0.8677
21563SOL    HW266697   4.493   7.376   8.437  0.6502  1.1829 -0.0438
21564SOL     OW66698   4.621   8.546   8.225 -0.2828  0.8386  0.0570
21564SOL    HW166699   4.628   8.628   8.274  1.9921  1.2147 -0.7903
21564SOL    HW266700   4.619   8.478   8.292  2.3353  1.3720  0.8015
21565SOL     OW66701   3.956   3.196   0.588 -0.2146 -0.0944  0.1154
21565SOL    HW166702   3.997   3.186   0.674  0.1228  0.3495  0.0090
21565SOL    HW266703   3.999   3.130   0.534 -2.4330 -2.4207  0.9662
21566SOL     OW66704   2.993   9.467   4.412  0.4616 -0.1368  0.1108
21566SOL    HW166705   3.028   9.394   4.362 -0.4507 -1.1285  0.8928
21566SOL    HW266706   3.071   9.516   4.440  1.0710 -0.7227 -0.5222
21567SOL     OW66707   6.909  11.091   2.975  0.2398 -0.0304  0.4883
21567SOL    HW166708   6.989  11.038   2.970  0.4476  0.3570 -0.4938
21567SOL    HW266709   6.838  11.029   2.963  0.4874 -0.0834 -0.7803
21568SOL     OW66710   3.788   4.082   9.131 -0.1558  0.2726 -0.0948
21568SOL    HW166711   3.742   4.028   9.067 -0.4888 -1.3141  1.4005
21568SOL    HW266712   3.869   4.033   9.149 -0.2978  0.4262  1.0357
21569SOL     OW66713   2.707   0.272   0.595 -0.1404  0.3059  0.1037
21569SOL    HW166714   2.756   0.270   0.513 -0.9328 -1.5074 -0.3828
21569SOL    HW266715   2.700   0.180   0.621 -1.8824  0.6365  0.9813
21570SOL     OW66716   5.838   6.644   8.889  0.5337 -0.4158 -0.3630
21570SOL    HW166717   5.783   6.707   8.842 -1.3766 -1.9552 -0.3327
21570SOL    HW266718   5.818   6.560   8.847  1.4952 -1.2964  0.8851
21571SOL     OW66719   1.703   8.905   8.641  0.5845 -0.3773 -0.4404
21571SOL    HW166720   1.792   8.873   8.629  1.0169 -0.4835  2.3086
21571SOL    HW266721   1.708   8.961   8.719 -1.9975 -1.6067  0.7349
21572SOL     OW66722   2.086   7.043   1.260  0.4489 -0.1761 -0.5069
21572SOL    HW166723   2.176   7.012   1.258  0.3554 -0.4061 -1.4363
21572SOL    HW266724   2.038   6.975   1.308  0.3843 -1.1231 -1.8663
21573SOL     OW66725   7.776   3.042   8.551 -0.4675  0.2696 -0.5140
21573SOL    HW166726   7.859   3.004   8.580  0.0445 -0.8470 -3.1704
21573SOL    HW266727   7.800   3.127   8.514 -0.3009 -0.4850 -2.2101
21574SOL     OW66728   7.966  10.070   2.628 -0.3012  0.4488  0.2309
21574SOL    HW166729   8.047  10.110   2.597  1.1727 -2.3695  0.1249
21574SOL    HW266730   7.955  10.103   2.717  1.7424 -0.1096  0.7368
21575SOL     OW66731   5.096   9.913   3.831 -0.5412 -0.2043 -0.3835
21575SOL    HW166732   5.068   9.857   3.904  1.5478  1.4661  1.8336
21575SOL    HW266733   5.015   9.933   3.784 -2.5047  0.8666  3.1187
21576SOL     OW66734  10.844  10.251   5.378  0.8715  0.1458  0.0663
21576SOL    HW166735  10.839  10.213   5.466 -1.9983 -0.3494 -0.2166
21576SOL    HW266736  10.865  10.177   5.321  1.8429  0.2955  0.2188
21577SOL     OW66737   5.943   9.577  10.630  0.3827 -0.3087 -0.3378
21577SOL    HW166738   6.023   9.626  10.648 -0.5270  0.4632  1.8902
21577SOL    HW266739   5.891   9.634  10.573  1.6659 -1.1493 -2.4876
21578SOL     OW66740   3.718   1.085   7.678  0.2328  0.3608 -0.0370
21578SOL    HW166741   3.722   1.131   7.593 -0.2266  0.2072 -0.1461
21578SOL    HW266742   3.683   1.151   7.738 -2.9328 -0.5208 -0.7211
21579SOL     OW66743   9.218   0.288   1.196 -0.6063 -0.3814 -0.1564
21579SOL    HW166744   9.177   0.205   1.219  0.5791 -0.4418  2.0162
21579SOL    HW266745   9.202   0.344   1.272  2.3859 -0.1017  0.3948
21580SOL     OW66746   9.955   1.035   7.549 -0.2836 -0.0291  0.3054
21580SOL    HW166747  10.012   1.097   7.594  0.7305 -1.5313  1.1460
21580SOL    HW266748   9.983   0.949   7.580 -0.8840 -1.0005 -1.7036
21581SOL     OW66749   2.859   2.724   6.764  0.2378  0.2526  0.0952
21581SOL    HW166750   2.955   2.720   6.764  0.5347  3.8521  1.4426
21581SOL    HW266751   2.839   2.817   6.760 -3.3275 -0.4067 -2.9259
21582SOL     OW66752   6.225   3.942   7.982  0.1382 -0.2296  0.7149
21582SOL    HW166753   6.202   3.850   7.970 -0.8054  0.0912 -0.2025
21582SOL    HW266754   6.161   3.989   7.928  1.4968  0.8843 -0.0006
21583SOL     OW66755   4.912  10.247   8.327  0.5180  0.4944 -0.3099
21583SOL    HW166756   5.006  10.239   8.311  0.5074  0.5948 -0.4290
21583SOL    HW266757   4.900  10.215   8.416  0.4505 -0.8904 -0.7906
21584SOL     OW66758   5.741  10.868   4.948 -0.2426  0.3581  1.1898
21584SOL    HW166759   5.816  10.840   5.000  0.3421  0.1048  0.2493
21584SOL    HW266760   5.695  10.786   4.928  1.0054  0.0751 -0.8607
21585SOL     OW66761   4.931   1.192   7.964 -0.0603 -0.7992  0.0842
21585SOL    HW166762   4.861   1.161   7.905 -1.1845  2.7534 -0.6808
21585SOL    HW266763   4.974   1.262   7.915  1.7837 -0.5698  1.9218
21586SOL     OW66764   6.276   9.289   7.833  0.4522 -0.0391 -0.2419
21586SOL    HW166765   6.191   9.275   7.792  0.8096 -1.1273 -0.6320
21586SOL    HW266766   6.272   9.380   7.864 -1.3784 -0.4796  0.9939
21587SOL     OW66767   2.512   9.311   1.882  0.2928  0.3297  0.2725
21587SOL    HW166768   2.473   9.261   1.953 -0.2658 -0.1415 -0.3491
21587SOL    HW266769   2.605   9.312   1.901  0.2294 -0.3944  0.6409
21588SOL     OW66770  10.648  10.436   1.954 -0.2702 -0.5761 -0.2176
21588SOL    HW166771  10.638  10.529   1.935  1.4843 -0.2043  0.4542
21588SOL    HW266772  10.606  10.423   2.039 -0.3468 -0.3439 -0.2204
21589SOL     OW66773  10.103   6.213   6.037 -0.0080 -0.0066 -0.5496
21589SOL    HW166774  10.036   6.194   6.103 -0.3749 -0.3282 -1.0083
21589SOL    HW266775  10.128   6.304   6.053  1.8464 -0.8261  1.7598
21590SOL     OW66776   4.586   1.757   7.126  0.6341 -0.3790 -0.2654
21590SOL    HW166777   4.529   1.770   7.202 -0.8267 -0.1227 -1.3502
21590SOL    HW266778   4.668   1.800   7.149  0.1461 -0.1271  1.0674
21591SOL     OW66779   1.001   8.601   8.221 -0.6941  0.1328  0.8468
21591SOL    HW166780   1.025   8.559   8.303 -0.3739 -3.5228 -0.8835
21591SOL    HW266781   0.974   8.528   8.164 -2.1154  2.5814 -1.8945
21592SOL     OW66782   3.723   9.753   3.653  0.3976 -0.0168  0.4947
21592SOL    HW166783   3.739   9.777   3.562  0.2126  0.7251  0.6485
21592SOL    HW266784   3.629   9.764   3.665  0.3413 -0.6395  0.6282
21593SOL     OW66785   3.950   7.005   5.169  0.3426  0.2776  0.2875
21593SOL    HW166786   3.973   7.056   5.091  1.4490  1.6755  1.4897
21593SOL    HW266787   3.865   6.966   5.147  0.7762  0.3610 -1.7338
21594SOL     OW66788   2.935   0.928   9.876  0.0119 -0.0349 -0.4625
21594SOL    HW166789   3.027   0.944   9.899 -0.3610  0.9761  0.4413
21594SOL    HW266790   2.921   0.981   9.798 -0.2158  1.1268  0.3448
21595SOL     OW66791   7.934   1.252   0.247  0.0469 -0.2494  0.0127
21595SOL    HW166792   7.903   1.308   0.176 -0.1645  0.9312  0.9889
21595SOL    HW266793   7.946   1.166   0.207 -0.6154  0.2451 -1.3075
21596SOL     OW66794   3.503   2.139   6.989 -0.1273  0.2139  0.0289
21596SOL    HW166795   3.451   2.104   6.917 -1.4028  1.4531  0.3027
21596SOL    HW266796   3.511   2.067   7.051 -1.3468 -0.0750 -0.1266
21597SOL     OW66797   1.996  10.478   6.441  0.1608  0.2105  0.2597
21597SOL    HW166798   1.961  10.401   6.396  0.9309  0.3337 -0.6010
21597SOL    HW266799   2.087  10.456   6.459  0.4014  0.9152 -0.0324
21598SOL     OW66800   3.114   7.976   8.778  0.1176  0.2237 -0.0398
21598SOL    HW166801   3.132   8.013   8.691  0.2433  0.3111  0.0242
21598SOL    HW266802   3.166   7.895   8.780 -0.1233  0.0637 -0.1617
21599SOL     OW66803   3.365   9.981  10.387 -0.1932  0.0533  0.0485
21599SOL    HW166804   3.297  10.036  10.426  1.2578  1.3179  0.8909
21599SOL    HW266805   3.372   9.906  10.447  0.2321  0.7040  0.8225
21600SOL     OW66806   2.085   9.995   2.390  0.7756 -0.3098 -0.2730
21600SOL    HW166807   2.118   9.919   2.344  0.0279 -0.0662 -1.2304
21600SOL    HW266808   2.093   9.972   2.483  0.8540 -1.4171 -0.5426
21601SOL     OW66809   6.734  10.596   9.154 -0.4241  0.0858 -0.3196
21601SOL    HW166810   6.803  10.646   9.198  0.1708 -2.2692  1.6466
21601SOL    HW266811   6.693  10.546   9.224 -3.5088  0.6157 -1.6011
21602SOL     OW66812   6.997   9.257   0.400 -0.4526  0.1466 -0.0856
21602SOL    HW166813   6.982   9.239   0.493 -3.4262  1.3957 -0.2218
21602SOL    HW266814   7.090   9.279   0.395  0.1861 -1.5954  2.2707
21603SOL     OW66815   3.534   8.913   9.798 -0.0439 -0.0148 -0.3371
21603SOL    HW166816   3.615   8.962   9.817  0.5974 -1.1885  0.0408
21603SOL    HW266817   3.561   8.844   9.738 -0.9778  0.1969 -1.0172
21604SOL     OW66818   7.948   9.348  10.728  0.4521  0.1409  0.0891
21604SOL    HW166819   7.913   9.390  10.806 -1.3535 -0.1092 -0.5518
21604SOL    HW266820   8.038   9.325  10.751  0.1657  0.6855  1.8397
21605SOL     OW66821   1.005  11.030   9.771 -0.8924  0.2632 -0.5181
21605SOL    HW166822   1.030  10.988   9.853 -1.3715  0.6360 -0.1790
21605SOL    HW266823   0.931  10.978   9.739 -1.1782  0.5576 -0.3398
21606SOL     OW66824   5.864   7.830  10.941 -0.2819 -0.0994  0.4446
21606SOL    HW166825   5.947   7.832  10.894 -0.9598  1.7120 -0.7766
21606SOL    HW266826   5.888   7.806  11.031  1.5496  0.4281  0.1278
21607SOL     OW66827   4.517  10.015   6.317 -0.2678 -0.5508  0.5472
21607SOL    HW166828   4.511   9.920   6.327 -0.3306 -0.5381  0.6251
21607SOL    HW266829   4.536  10.047   6.405  0.3199 -0.5380  0.4186
21608SOL     OW66830   4.118   8.664   0.093  0.4509  0.1188 -0.1290
21608SOL    HW166831   4.174   8.595   0.129 -1.4626 -0.8157  1.2414
21608SOL    HW266832   4.122   8.734   0.157  1.6176  0.9344 -1.0453
21609SOL     OW66833   3.523   8.451   8.749 -0.2041 -0.2031 -0.3108
21609SOL    HW166834   3.537   8.388   8.679  0.4144 -0.2449 -0.1496
21609SOL    HW266835   3.431   8.477   8.739 -0.8168 -1.9645  0.3124
21610SOL     OW66836   0.263   6.767   8.364 -0.1511 -0.0427 -0.3846
21610SOL    HW166837   0.223   6.736   8.282  1.3202  0.8878 -1.5045
21610SOL    HW266838   0.239   6.701   8.429 -1.1487 -0.9408 -1.6082
21611SOL     OW66839   3.620   9.101   7.102 -0.3633  0.5256  0.5659
21611SOL    HW166840   3.664   9.186   7.106  1.4978 -0.3742  0.1615
21611SOL    HW266841   3.689   9.040   7.077 -1.6941 -1.0971  0.7423
21612SOL     OW66842   8.103   2.016   7.194 -0.0596 -0.1417 -0.2203
21612SOL    HW166843   8.128   2.097   7.238  1.7059 -0.9057  0.2440
21612SOL    HW266844   8.020   2.037   7.150  1.2403  2.4571 -1.6151
21613SOL     OW66845   5.020   9.294   3.423  0.2681 -0.2330 -0.2688
21613SOL    HW166846   4.928   9.268   3.413  0.2172  0.0412 -0.5594
21613SOL    HW266847   5.016   9.373   3.478  0.2536  0.2730 -0.9857
21614SOL     OW66848   2.648  10.842   1.735  0.7837 -0.3399  0.1188
21614SOL    HW166849   2.696  10.880   1.808 -0.0050  0.5283  0.2099
21614SOL    HW266850   2.690  10.879   1.657 -1.5412  2.8782  0.2204
21615SOL     OW66851   8.581   9.911   0.404 -0.4925 -0.3539 -0.0378
21615SOL    HW166852   8.510   9.881   0.460 -0.6616 -1.1730 -0.6663
21615SOL    HW266853   8.556   9.883   0.316  0.4567 -0.3778 -0.3179
21616SOL     OW66854   7.924   4.050   0.665  0.5915  0.5565  0.5395
21616SOL    HW166855   7.962   4.112   0.603  0.7086  1.3047  1.3333
21616SOL    HW266856   7.999   4.001   0.698  0.4800 -0.1202 -0.2043
21617SOL     OW66857   6.703   0.030  10.108  0.0088 -0.1964  0.1084
21617SOL    HW166858   6.700   0.121  10.136  0.3699  0.0851 -0.7381
21617SOL    HW266859   6.672  -0.020  10.184 -2.7239  0.7915 -0.2772
21618SOL     OW66860   0.376   0.363   5.566 -0.0994 -0.1750  0.1280
21618SOL    HW166861   0.403   0.397   5.481 -1.5231 -0.7270 -0.5778
21618SOL    HW266862   0.386   0.438   5.626  2.2038 -0.1454 -0.1862
21619SOL     OW66863   4.043   2.800   9.896 -0.1624  0.5141 -0.2588
21619SOL    HW166864   4.039   2.774   9.988 -1.0296  2.5145  0.3148
21619SOL    HW266865   4.050   2.896   9.898  0.5136  0.5566 -2.2750
21620SOL     OW66866   1.445   0.783   4.611 -0.5263 -0.1447  0.7820
21620SOL    HW166867   1.540   0.769   4.613 -0.3784  0.4594 -0.5675
21620SOL    HW266868   1.427   0.841   4.685 -0.2963 -2.4961  2.8030
21621SOL     OW66869   8.231   5.614   4.019  0.1727  0.0524  0.0807
21621SOL    HW166870   8.307   5.581   4.068  0.9006  1.3002 -0.1820
21621SOL    HW266871   8.200   5.537   3.971  1.9046 -0.2594 -0.6154
21622SOL     OW66872   9.275   9.647   8.648  0.0788  0.1794 -0.0152
21622SOL    HW166873   9.237   9.591   8.716  0.0464  0.8618  0.5379
21622SOL    HW266874   9.242   9.735   8.668  0.6120  0.5022 -0.5184
21623SOL     OW66875   2.428   2.263   3.097  0.0503  0.1842 -0.5713
21623SOL    HW166876   2.364   2.276   3.167  1.2794  2.1957  0.2897
21623SOL    HW266877   2.433   2.348   3.054  2.9254  0.4796  0.1508
21624SOL     OW66878   4.573   0.996  10.391  0.5743 -0.1270  0.0248
21624SOL    HW166879   4.569   0.925  10.455  1.2024  0.1010  0.3195
21624SOL    HW266880   4.600   1.072  10.441 -0.7915  0.5091 -0.1527
21625SOL     OW66881   5.698   1.448   7.330  0.1140 -0.5306  0.3340
21625SOL    HW166882   5.720   1.525   7.278  0.4627 -1.7215 -1.3621
21625SOL    HW266883   5.603   1.453   7.342  0.3187  0.9606  1.6396
21626SOL     OW66884   2.866   1.882   9.981 -0.1963  0.5269  0.4378
21626SOL    HW166885   2.892   1.884   9.889 -1.9308  1.6807 -0.0861
21626SOL    HW266886   2.788   1.826   9.983 -0.3712  0.7799  1.1300
21627SOL     OW66887   5.696   1.467   3.007 -0.2967 -0.5128  0.0783
21627SOL    HW166888   5.634   1.452   2.936  1.6959 -0.4448 -1.7593
21627SOL    HW266889   5.741   1.383   3.018  0.8303  0.0382 -0.1810
21628SOL     OW66890   3.457   9.390   0.173  0.7900  0.4705  0.0219
21628SOL    HW166891   3.458   9.448   0.249  0.4375  0.3613  0.1165
21628SOL    HW266892   3.376   9.340   0.183  1.1834 -0.1746  0.0459
21629SOL     OW66893   3.222  10.944   7.468  0.0061 -0.3710 -0.3380
21629SOL    HW166894   3.199  10.864   7.421 -0.8028 -1.1497  1.2998
21629SOL    HW266895   3.139  10.984   7.491  0.3561 -0.1707  0.6536
21630SOL     OW66896   7.668  10.370   0.837  0.3392 -0.0346 -0.3688
21630SOL    HW166897   7.715  10.295   0.802 -1.0228 -0.4176 -1.4966
21630SOL    HW266898   7.696  10.444   0.784  0.2804 -0.1086 -0.5029
21631SOL     OW66899   3.058   5.198   7.043 -0.0431  0.2821  0.0751
21631SOL    HW166900   3.112   5.221   6.966  1.2431 -0.7926  0.6159
21631SOL    HW266901   3.066   5.103   7.050 -0.2044  0.3614  1.5069
21632SOL     OW66902   8.279   8.802   5.658  0.6000 -0.2591 -0.2474
21632SOL    HW166903   8.278   8.707   5.648  0.4474 -0.2091 -0.6886
21632SOL    HW266904   8.366   8.828   5.627  1.2371 -0.4051  1.2879
21633SOL     OW66905   1.649  10.896   4.817 -0.0074 -0.0059  0.0444
21633SOL    HW166906   1.647  10.991   4.803  1.0342 -0.0278 -0.3055
21633SOL    HW266907   1.594  10.882   4.895 -2.6596  0.5394 -1.5807
21634SOL     OW66908   0.594   5.842   3.509 -0.0832  0.3581 -0.1182
21634SOL    HW166909   0.535   5.888   3.568 -0.5377 -0.5747  0.1735
21634SOL    HW266910   0.605   5.755   3.548  2.7664  1.0047  0.7002
21635SOL     OW66911   3.640  10.437   9.033 -0.5616  0.3023  0.2368
21635SOL    HW166912   3.675  10.451   9.121  3.5398 -0.7706 -0.9622
21635SOL    HW266913   3.664  10.517   8.985 -2.3714  0.7027 -0.0760
21636SOL     OW66914   7.513   9.239   6.087  0.1336 -0.2741  0.6676
21636SOL    HW166915   7.584   9.213   6.029 -0.0924 -1.0950  0.7376
21636SOL    HW266916   7.434   9.237   6.032  0.0475 -0.1631  0.7837
21637SOL     OW66917   7.794   0.688   7.326  0.0130 -0.6944 -0.2202
21637SOL    HW166918   7.856   0.651   7.389  0.4613  0.6547  0.1872
21637SOL    HW266919   7.817   0.782   7.323 -3.5430  0.4182  1.8435
21638SOL     OW66920   3.340   8.642   3.945  0.0078  0.4867  0.4567
21638SOL    HW166921   3.369   8.645   4.037 -0.7735  1.0788  0.6955
21638SOL    HW266922   3.246   8.661   3.950 -0.0821  0.2892 -0.4511
21639SOL     OW66923   4.983   6.389   7.403 -0.6642  0.0939 -0.3878
21639SOL    HW166924   4.888   6.395   7.412 -0.4387  0.2693  2.8626
21639SOL    HW266925   5.018   6.455   7.462  1.5258 -0.4563 -0.9515
21640SOL     OW66926   6.902   0.683   2.196 -0.2568  0.3168 -0.3470
21640SOL    HW166927   6.949   0.673   2.113  0.7192 -1.2181  0.3490
21640SOL    HW266928   6.930   0.608   2.249 -1.4504  0.8389  1.0933
21641SOL     OW66929   0.735   3.798   0.170 -1.1217 -0.4120 -0.7624
21641SOL    HW166930   0.661   3.816   0.111  0.2228  2.7807 -1.7075
21641SOL    HW266931   0.730   3.867   0.237  0.5740 -0.5293 -0.4599
21642SOL     OW66932   8.213   8.171   6.506  0.6562 -0.0679 -0.4359
21642SOL    HW166933   8.239   8.248   6.557 -1.2630 -0.5348  1.3996
21642SOL    HW266934   8.266   8.175   6.427  1.5686  2.4009  0.2224
21643SOL     OW66935   4.554   7.590   5.935 -0.3653  0.8480  0.7059
21643SOL    HW166936   4.474   7.632   5.902 -1.8088 -0.8163  1.8516
21643SOL    HW266937   4.553   7.503   5.897  2.7098  1.7578 -1.8400
21644SOL     OW66938   2.354   7.543   6.434  0.6739 -0.1607  0.1787
21644SOL    HW166939   2.391   7.558   6.522  1.9249  0.0414 -0.3635
21644SOL    HW266940   2.269   7.503   6.451  1.2928 -1.0138  1.4794
21645SOL     OW66941   5.068   8.232   2.297  0.4856  0.2207 -0.3123
21645SOL    HW166942   5.115   8.161   2.252  1.0421 -0.0451  0.6354
21645SOL    HW266943   4.996   8.187   2.342  1.2569  0.1112  0.8748
21646SOL     OW66944   9.164   4.709   8.297 -0.4821  0.1359 -0.4839
21646SOL    HW166945   9.123   4.681   8.214 -2.3413 -0.3178  0.5245
21646SOL    HW266946   9.090   4.728   8.354  0.7712  0.7008  1.0115
21647SOL     OW66947   5.656   3.928   2.385  0.1621  0.6421 -0.1494
21647SOL    HW166948   5.658   3.834   2.398  0.2429  0.5301 -0.9438
21647SOL    HW266949   5.575   3.945   2.338 -0.1610  1.0476  0.5336
21648SOL     OW66950   8.184   1.888   6.479 -0.4620  0.3367  0.4031
21648SOL    HW166951   8.196   1.961   6.539 -2.2435  1.4462 -0.5121
21648SOL    HW266952   8.234   1.816   6.518  1.1475  1.9384  1.4568
21649SOL     OW66953   6.651   9.039   6.258  0.4893  0.5340  0.3667
21649SOL    HW166954   6.694   9.077   6.334  0.0070  0.2337  0.7973
21649SOL    HW266955   6.594   9.109   6.225  0.2870  0.4880  0.6134
21650SOL     OW66956   3.891   1.352  10.167  1.0329  0.0834 -0.9068
21650SOL    HW166957   3.885   1.379  10.258  1.5713 -1.8186 -0.2648
21650SOL    HW266958   3.838   1.416  10.119 -0.2501  0.4184  0.8654
21651SOL     OW66959   3.541   2.941   8.921  0.3884 -0.1129 -0.8445
21651SOL    HW166960   3.629   2.977   8.912  0.4299 -0.5341 -2.4707
21651SOL    HW266961   3.504   2.945   8.832 -1.5821  0.9215 -0.0373
21652SOL     OW66962   3.974   4.428   8.749  0.7455 -0.1951  0.1685
21652SOL    HW166963   3.908   4.496   8.734  0.8616 -0.1249 -0.0262
21652SOL    HW266964   4.026   4.427   8.669  0.4971 -0.7894  0.0124
21653SOL     OW66965   3.884  11.009  10.177 -0.4017  0.5153 -0.5112
21653SOL    HW166966   3.954  10.958  10.137  0.1418 -0.1509  1.1811
21653SOL    HW266967   3.805  10.984  10.129  0.2499 -0.0140 -1.3360
21654SOL     OW66968   0.152   0.209   5.573 -0.2080 -0.0094 -0.0079
21654SOL    HW166969   0.182   0.167   5.654 -3.3544  0.6275  1.6530
21654SOL    HW266970   0.220   0.273   5.553  1.9976 -2.0461  0.5078
21655SOL     OW66971   5.472   5.517  10.979 -0.6718  0.1144  0.5649
21655SOL    HW166972   5.561   5.539  10.951 -0.8760  0.4582  0.1759
21655SOL    HW266973   5.473   5.422  10.992 -0.0071  0.2208  1.4195
21656SOL     OW66974   4.947   8.433  10.601 -0.1039 -0.6457 -0.5874
21656SOL    HW166975   5.012   8.504  10.610 -0.1531 -0.8062  1.6487
21656SOL    HW266976   4.999   8.353  10.600 -0.2005 -0.7437  0.6479
21657SOL     OW66977   5.393   0.373   0.820 -0.8933 -0.3386 -0.4992
21657SOL    HW166978   5.302   0.382   0.791 -1.0867  0.9602  0.4176
21657SOL    HW266979   5.407   0.448   0.878  0.4418 -1.1108  0.2161
21658SOL     OW66980   7.193  10.551   9.894  0.0901  0.2199  0.1899
21658SOL    HW166981   7.106  10.531   9.928  0.5459 -0.6852  0.8922
21658SOL    HW266982   7.249  10.481   9.930  0.7466 -0.3708 -1.8373
21659SOL     OW66983   5.401   1.152  11.070 -0.2590 -0.1219 -0.3364
21659SOL    HW166984   5.397   1.213  10.996 -0.8849 -0.6734 -0.7614
21659SOL    HW266985   5.388   1.066  11.031  0.8600 -0.5637  0.2298
21660SOL     OW66986   2.601   8.982   2.784 -0.0654 -0.0671  0.2788
21660SOL    HW166987   2.668   8.919   2.810  0.8618  0.8276  0.1358
21660SOL    HW266988   2.573   9.022   2.867  2.7644  2.6601  0.0767
21661SOL     OW66989  10.488   2.196   7.635 -0.1215  0.6286  0.1634
21661SOL    HW166990  10.568   2.237   7.669 -0.3744  3.1770 -2.0012
21661SOL    HW266991  10.423   2.209   7.705  1.1318 -0.9839  1.7142
21662SOL     OW66992   7.990   3.942   5.670 -0.4633 -0.6424  0.1642
21662SOL    HW166993   7.908   3.991   5.664  0.5021  0.9288 -0.8063
21662SOL    HW266994   7.977   3.866   5.614 -0.8501  0.2316 -0.9581
21663SOL     OW66995   5.346   0.438   2.263 -0.5861 -0.4324  0.2477
21663SOL    HW166996   5.301   0.363   2.224 -1.1697 -0.2682  0.5850
21663SOL    HW266997   5.306   0.448   2.349 -0.7717  0.4782  0.0692
21664SOL     OW66998   2.649   9.877   5.795 -0.4225  0.4833  0.3326
21664SOL    HW166999   2.622   9.816   5.864  0.2941 -1.0705 -0.7043
21664SOL    HW267000   2.573   9.883   5.737 -0.4258  0.4096  0.3292
21665SOL     OW67001   8.553   2.467   0.583 -0.2990 -0.2058 -0.5995
21665SOL    HW167002   8.589   2.523   0.652  0.4071  0.2762 -1.3454
21665SOL    HW267003   8.560   2.378   0.617 -0.4287  0.0699  0.1534
21666SOL     OW67004  10.873   4.057   7.665  0.6983 -0.0167 -0.4715
21666SOL    HW167005  10.796   4.024   7.713  0.4483  0.8572 -0.2551
21666SOL    HW267006  10.865   4.018   7.578 -0.1660  0.3091 -0.5502
21667SOL     OW67007   2.515   7.478   1.120 -0.0210  0.9099 -0.1097
21667SOL    HW167008   2.541   7.437   1.037 -1.4671 -0.5921  0.1357
21667SOL    HW267009   2.464   7.555   1.094  0.0986  0.8270 -0.6034
21668SOL     OW67010   3.172   6.274   9.260 -0.5435  0.0104 -0.3525
21668SOL    HW167011   3.187   6.236   9.347 -0.3735  1.9360  0.5228
21668SOL    HW267012   3.144   6.200   9.206  1.7420 -1.7366  0.6786
21669SOL     OW67013   1.180   7.600  10.032 -0.0173 -0.0287 -0.2283
21669SOL    HW167014   1.191   7.691  10.059 -0.0523 -0.5129  1.5431
21669SOL    HW267015   1.268   7.569  10.014  0.3235 -0.3074  1.6273
21670SOL     OW67016   4.314   1.003   6.941  0.2619  0.1541  0.4058
21670SOL    HW167017   4.333   1.005   7.035 -1.4901 -0.3067  0.7998
21670SOL    HW267018   4.234   1.055   6.932  1.4671  1.8654 -1.1279
21671SOL     OW67019   1.212   0.375   5.792  0.7289 -0.2082 -0.2787
21671SOL    HW167020   1.295   0.415   5.766  1.6073 -1.2836  0.7275
21671SOL    HW267021   1.147   0.444   5.780  1.8445  0.8110 -0.6594
21672SOL     OW67022   4.172   1.605   3.717 -0.1298 -0.6875  0.0082
21672SOL    HW167023   4.123   1.590   3.798 -0.0767 -0.5121  0.0748
21672SOL    HW267024   4.251   1.552   3.727 -1.0916 -2.3423 -0.8509
21673SOL     OW67025   6.053  10.491   6.613 -0.0421 -0.2798 -0.4305
21673SOL    HW167026   5.995  10.466   6.541 -0.8696 -1.9973  0.7756
21673SOL    HW267027   6.071  10.409   6.659  0.8341  0.7047  1.0573
21674SOL     OW67028   5.301   7.268   7.792 -0.2916  0.0618 -0.3431
21674SOL    HW167029   5.228   7.318   7.755  0.2238  1.5206  0.5126
21674SOL    HW267030   5.360   7.255   7.718  0.6941  2.8837 -0.1639
21675SOL     OW67031   7.895   4.764   6.288  0.1600  0.2371  0.1743
21675SOL    HW167032   7.960   4.824   6.324 -0.3084  0.2620  1.0097
21675SOL    HW267033   7.900   4.686   6.343 -0.9974  0.5219  0.7234
21676SOL     OW67034   5.376   4.073   1.853 -0.5082 -0.0388 -0.0689
21676SOL    HW167035   5.360   4.094   1.761 -0.9913  0.7944  0.1948
21676SOL    HW267036   5.444   4.134   1.881  0.0713 -0.6912 -0.0237
21677SOL     OW67037   6.556   1.867   0.406 -0.0007 -0.7010 -0.4525
21677SOL    HW167038   6.566   1.786   0.357 -0.3980 -2.5220  2.2809
21677SOL    HW267039   6.462   1.877   0.417  0.0903 -1.7982  2.0398
21678SOL     OW67040   5.009   7.096   0.924  0.0573 -0.4115 -0.2897
21678SOL    HW167041   5.070   7.094   0.998 -0.6891 -1.5951  0.3104
21678SOL    HW267042   4.924   7.078   0.962 -0.2130 -2.0098 -1.5477
21679SOL     OW67043   4.419  10.335   0.516 -0.5781  0.1093 -0.1841
21679SOL    HW167044   4.356  10.390   0.469  0.0246 -0.5799 -1.8685
21679SOL    HW267045   4.486  10.315   0.451 -0.4386 -2.0650  0.5696
21680SOL     OW67046   2.042   6.912   8.494 -0.4348 -0.1355 -0.0319
21680SOL    HW167047   2.050   6.959   8.577  0.2052  0.0680 -0.2009
21680SOL    HW267048   2.045   6.820   8.518  0.2825 -0.0763  0.1320
21681SOL     OW67049   7.246  10.862   2.484  0.2918  0.0139  0.1883
21681SOL    HW167050   7.306  10.885   2.556 -0.0644 -1.6617  1.0814
21681SOL    HW267051   7.272  10.773   2.460 -0.9113 -0.1987 -0.3867
21682SOL     OW67052   5.383  10.214   6.840 -0.1519 -0.6957 -0.3073
21682SOL    HW167053   5.332  10.133   6.834 -0.4802 -0.6135  0.9619
21682SOL    HW267054   5.468  10.192   6.803  0.6150 -2.3983  2.1758
21683SOL     OW67055   3.981   2.136   2.074  0.3440  0.0660 -0.4243
21683SOL    HW167056   3.925   2.213   2.075  0.2641  0.0155 -1.0718
21683SOL    HW267057   3.958   2.089   2.154 -0.2705  0.2363 -0.4964
21684SOL     OW67058   2.672   6.121   6.902 -0.3182  0.0159 -0.0755
21684SOL    HW167059   2.668   6.209   6.941  0.2608  0.2923 -0.6140
21684SOL    HW267060   2.749   6.124   6.845  0.9685 -1.5078  1.4804
21685SOL     OW67061   5.211   5.366   6.260  0.1333 -0.5282  0.2802
21685SOL    HW167062   5.187   5.439   6.316 -1.1652  1.4763 -2.6290
21685SOL    HW267063   5.288   5.397   6.212 -0.8062 -0.7358 -1.4547
21686SOL     OW67064   7.617   0.444   9.966 -0.6425  0.0714 -0.2882
21686SOL    HW167065   7.644   0.352   9.963 -0.4425  0.1509 -1.7111
21686SOL    HW267066   7.686   0.490   9.919 -0.4521  1.0393  0.9072
21687SOL     OW67067   3.721   1.441   8.005 -0.2805 -0.0580  0.2655
21687SOL    HW167068   3.782   1.390   8.059  1.2941  1.6409  0.2117
21687SOL    HW267069   3.635   1.423   8.042  0.3552 -1.7431  1.0271
21688SOL     OW67070   0.058   0.222   6.296 -0.5420 -0.0049  0.1878
21688SOL    HW167071  -0.014   0.192   6.351  0.7871 -0.9616  1.4562
21688SOL    HW267072   0.084   0.144   6.246 -1.9361  0.8999 -2.1683
21689SOL     OW67073   4.988   0.468   0.283 -0.1682  0.4615  0.1594
21689SOL    HW167074   5.058   0.495   0.342  0.0148  0.8826 -0.2446
21689SOL    HW267075   4.996   0.527   0.208 -0.5071  0.0482 -0.2056
21690SOL     OW67076   0.285   6.976   6.184 -0.1313 -0.4507 -0.0580
21690SOL    HW167077   0.259   7.016   6.101 -1.5696  0.0173  0.5835
21690SOL    HW267078   0.346   6.906   6.159 -0.6808 -0.4395 -1.5231
21691SOL     OW67079   2.980   4.857   6.057 -0.0730  0.7367  0.4180
21691SOL    HW167080   2.959   4.894   5.971 -2.4276 -0.1418  0.5603
21691SOL    HW267081   3.059   4.805   6.041 -0.0899  1.1150 -1.0569
21692SOL     OW67082   7.747   3.254   7.768  0.0500  0.6668 -0.2502
21692SOL    HW167083   7.747   3.349   7.771 -0.9313  0.6531  0.8924
21692SOL    HW267084   7.784   3.227   7.852  0.1368  0.0284 -0.4818
21693SOL     OW67085   3.988   1.503   8.713 -0.2785 -0.1333 -0.0327
21693SOL    HW167086   4.083   1.513   8.714 -0.3902  1.0398 -0.0704
21693SOL    HW267087   3.957   1.552   8.789 -0.9586  0.9367 -0.9655
21694SOL     OW67088   3.123   3.462   1.170 -0.7575  0.0953  0.3732
21694SOL    HW167089   3.122   3.420   1.084  0.8101  1.2200 -0.2437
21694SOL    HW267090   3.037   3.442   1.207 -0.4581 -2.8357 -0.2431
21695SOL     OW67091   1.354   9.042   0.579  0.0294  0.3407  0.0687
21695SOL    HW167092   1.315   9.019   0.495 -1.0272 -0.0902  0.6618
21695SOL    HW267093   1.448   9.046   0.562  0.1612 -2.8362 -0.4345
21696SOL     OW67094   6.863   1.558   8.034  0.1640  0.7761 -0.0519
21696SOL    HW167095   6.910   1.575   8.116  0.5045 -2.0293  0.4322
21696SOL    HW267096   6.913   1.606   7.968  1.9736  0.3080  0.8993
21697SOL     OW67097   1.873   3.272  10.959  0.2423 -0.4435 -0.3057
21697SOL    HW167098   1.916   3.252  11.042 -0.2018 -0.5856 -0.1046
21697SOL    HW267099   1.909   3.209  10.897 -1.5087 -2.2752  0.4299
21698SOL     OW67100   7.024   0.714   9.308  0.3307  0.2791 -0.1691
21698SOL    HW167101   7.072   0.649   9.358 -2.0027 -0.5639  1.0889
21698SOL    HW267102   6.998   0.780   9.372  0.9590  1.4784 -1.0853
21699SOL     OW67103   9.958   9.858   0.168 -0.2699  0.0173  0.0579
21699SOL    HW167104   9.865   9.848   0.187 -0.7320 -0.8417 -2.2550
21699SOL    HW267105   9.998   9.774   0.191  0.0722  0.5716  1.5757
21700SOL     OW67106   3.879   8.600   3.860 -0.3999  0.1503 -0.4554
21700SOL    HW167107   3.970   8.624   3.875 -0.7210  1.4862 -0.5861
21700SOL    HW267108   3.830   8.650   3.925 -0.9826 -1.1736  0.1536
21701SOL     OW67109   5.538   9.672   3.759 -0.7459 -0.6888 -0.1409
21701SOL    HW167110   5.541   9.715   3.673 -1.9574 -2.6273 -1.2392
21701SOL    HW267111   5.480   9.728   3.812  1.9149  1.8733  0.3363
21702SOL     OW67112  10.965   9.456   7.948  0.3383  0.2830 -1.0523
21702SOL    HW167113  10.888   9.440   8.003  1.2658  0.6500  0.4139
21702SOL    HW267114  10.930   9.466   7.860 -1.3049  0.6066 -0.3941
21703SOL     OW67115   1.225   6.870  10.605  0.3159  0.2792  0.1063
21703SOL    HW167116   1.239   6.958  10.571 -0.8128  1.0546  1.5479
21703SOL    HW267117   1.161   6.881  10.676  0.3020 -1.6696  0.4562
21704SOL     OW67118   2.962   5.694   0.831  0.2283  0.3621 -0.0890
21704SOL    HW167119   2.884   5.746   0.814  0.6467  1.1718  0.3818
21704SOL    HW267120   3.013   5.700   0.750 -0.4891 -0.7139 -0.6316
21705SOL     OW67121   4.788   7.740   1.825 -0.2997 -0.1875  0.5311
21705SOL    HW167122   4.729   7.750   1.750  0.4989  1.8892  0.0961
21705SOL    HW267123   4.861   7.688   1.792  0.0974  0.8015 -0.2126
21706SOL     OW67124   2.809   4.041   8.939 -0.7169 -0.4694  0.2298
21706SOL    HW167125   2.879   4.054   9.003 -1.7435 -1.2884  1.5463
21706SOL    HW267126   2.786   4.130   8.911 -1.2052  0.0058  2.0502
21707SOL     OW67127   3.766   7.288   8.622  0.5571  0.7605  0.0218
21707SOL    HW167128   3.756   7.196   8.647  0.0067  0.4192 -1.3816
21707SOL    HW267129   3.698   7.333   8.672  2.0591  0.7348  2.2047
21708SOL     OW67130   1.469   7.183   1.026 -0.2236  0.3822  0.0851
21708SOL    HW167131   1.484   7.198   0.933  1.2006 -1.3253 -0.0249
21708SOL    HW267132   1.395   7.122   1.029 -1.5254  1.9074  0.2059
21709SOL     OW67133   2.424  10.955   7.000 -0.6061 -0.6044  0.3759
21709SOL    HW167134   2.497  10.893   6.995 -1.3947 -1.6238  1.0176
21709SOL    HW267135   2.370  10.936   6.923 -0.6829 -0.4901  0.4008
21710SOL     OW67136  10.939   9.743   2.697 -0.0026  0.2882  0.2165
21710SOL    HW167137  10.855   9.787   2.710 -0.0177  0.6123 -0.8496
21710SOL    HW267138  10.917   9.664   2.647  0.4254  0.9294 -1.0396
21711SOL     OW67139   5.042   2.487   0.940 -0.1939  0.2318  0.5414
21711SOL    HW167140   5.108   2.555   0.955 -0.5170  0.7600 -0.3849
21711SOL    HW267141   4.969   2.513   0.997 -1.0101  1.6627 -1.0756
21712SOL     OW67142   8.047  10.824  10.476 -0.0160  0.0669 -0.3279
21712SOL    HW167143   8.026  10.745  10.427 -1.3003  1.3475 -1.9878
21712SOL    HW267144   8.010  10.809  10.563 -0.5231 -1.0349 -0.7179
21713SOL     OW67145   2.654   5.999   1.327 -0.1445 -0.0285 -0.0415
21713SOL    HW167146   2.627   6.091   1.330  0.0434  0.0101  1.0771
21713SOL    HW267147   2.746   6.000   1.353 -0.0672 -0.5095 -0.2847
21714SOL     OW67148   3.527   1.038   6.131 -0.0811 -0.7736 -0.0396
21714SOL    HW167149   3.606   1.078   6.094  0.1987 -0.6502  0.6693
21714SOL    HW267150   3.534   0.945   6.106  0.3750 -0.7953  0.1558
21715SOL     OW67151   0.498   8.327   7.615 -0.3136 -0.1781  0.0134
21715SOL    HW167152   0.537   8.372   7.689 -1.8843  2.8932 -0.8602
21715SOL    HW267153   0.570   8.280   7.573  1.1858  0.5449  1.7026
21716SOL     OW67154   3.612   6.972   7.826 -0.3061  0.1578  0.4460
21716SOL    HW167155   3.651   6.891   7.860 -2.3912 -2.6619 -3.1339
21716SOL    HW267156   3.525   6.974   7.864 -0.7766 -0.1485 -0.5741
21717SOL     OW67157   7.471  10.027   4.666 -1.0093  0.5500  0.6411
21717SOL    HW167158   7.531  10.006   4.594 -0.8454  1.1825  0.5817
21717SOL    HW267159   7.438   9.943   4.695 -1.2429  0.2990 -0.3211
21718SOL     OW67160   9.395   5.554   7.241 -0.4314  0.1040 -0.1998
21718SOL    HW167161   9.398   5.477   7.184  0.2151 -0.9511  1.1931
21718SOL    HW267162   9.486   5.584   7.245 -0.2807 -0.4690  1.0744
21719SOL     OW67163   3.334   3.965   7.911 -0.1803  0.4304  0.1191
21719SOL    HW167164   3.422   3.961   7.872 -0.2444  2.9851 -0.4467
21719SOL    HW267165   3.335   4.044   7.964 -1.7792 -0.1849  1.1431
21720SOL     OW67166   9.763   5.760   5.563 -0.0038  0.1105 -0.2921
21720SOL    HW167167   9.683   5.808   5.545 -1.3763 -2.0910 -0.4373
21720SOL    HW267168   9.753   5.730   5.654  0.9413  0.2938 -0.1108
21721SOL     OW67169   7.817   0.279   7.289  0.0669 -0.4466 -0.4992
21721SOL    HW167170   7.756   0.348   7.315  0.7815 -0.4507  1.3694
21721SOL    HW267171   7.766   0.221   7.234 -1.1535  0.4137 -0.3125
21722SOL     OW67172   0.340   3.971   0.074 -0.0427  0.1417 -0.4800
21722SOL    HW167173   0.332   4.038   0.007 -0.3042  0.1760 -0.4174
21722SOL    HW267174   0.269   3.909   0.054 -0.6798  0.5976  0.2659
21723SOL     OW67175  10.727   3.670   7.554  0.7418 -0.3444 -0.6009
21723SOL    HW167176  10.659   3.608   7.528  0.1336  0.2364 -0.4454
21723SOL    HW267177  10.727   3.667   7.649 -0.7076  1.3343 -0.5035
21724SOL     OW67178   1.675   1.341   9.669 -0.0029  0.2708  0.0885
21724SOL    HW167179   1.659   1.399   9.743 -0.1912  1.6494 -0.9780
21724SOL    HW267180   1.770   1.343   9.656 -0.1230  1.5957 -0.8567
21725SOL     OW67181   0.023   6.794   8.881  0.0818 -0.2389 -0.3696
21725SOL    HW167182   0.046   6.701   8.869  2.7193 -0.0808  2.1798
21725SOL    HW267183  -0.007   6.822   8.795 -0.8140 -3.4220 -1.2608
21726SOL     OW67184   1.403  11.082   0.202  0.2447  0.7416 -0.3629
21726SOL    HW167185   1.437  11.038   0.124 -0.0335 -1.4867  0.6826
21726SOL    HW267186   1.481  11.121   0.243  1.3290 -2.2759  0.7510
21727SOL     OW67187   7.151   2.122   5.881 -0.1688  0.1513  0.0982
21727SOL    HW167188   7.093   2.088   5.813  0.0948  2.1889 -1.2453
21727SOL    HW267189   7.108   2.100   5.964 -1.0783 -1.3751 -0.7443
21728SOL     OW67190   2.437   8.698  10.388  0.7742 -0.0930 -0.0545
21728SOL    HW167191   2.410   8.625  10.333  0.6802 -0.4055  0.4001
21728SOL    HW267192   2.354   8.733  10.423  0.7070  0.9959 -1.2048
21729SOL     OW67193   2.308   8.813   3.043 -0.1829 -0.0281 -0.6200
21729SOL    HW167194   2.340   8.876   2.979 -0.3417  0.4840 -0.2046
21729SOL    HW267195   2.383   8.756   3.060 -0.2612 -0.4103 -1.5511
21730SOL     OW67196   9.114   2.825   7.903 -0.4212  0.2041 -0.3810
21730SOL    HW167197   9.129   2.901   7.848 -1.5658 -0.0817 -1.1277
21730SOL    HW267198   9.024   2.835   7.935 -0.1339 -0.1683  0.5978
21731SOL     OW67199   3.845   5.522   2.469 -0.3618  0.2749 -0.2701
21731SOL    HW167200   3.897   5.562   2.539  1.6127 -1.7364 -0.4900
21731SOL    HW267201   3.898   5.448   2.439 -2.7296 -1.0018 -1.5518
21732SOL     OW67202   1.923   7.204   7.993  0.3366  0.6306 -0.1873
21732SOL    HW167203   1.867   7.129   8.015 -0.8123  1.0973 -1.3989
21732SOL    HW267204   1.991   7.168   7.937  0.5583  0.2754  0.3004
21733SOL     OW67205   7.853  10.416   9.228 -0.2137 -0.2921  0.0668
21733SOL    HW167206   7.801  10.367   9.291 -1.3565  0.2090 -0.4544
21733SOL    HW267207   7.789  10.452   9.167  0.8686 -0.8234 -1.4306
21734SOL     OW67208   9.314   7.212   9.779  0.1171  0.4589  0.0529
21734SOL    HW167209   9.249   7.269   9.737  0.5263  1.1601  0.3561
21734SOL    HW267210   9.262   7.152   9.833 -0.3484  0.2307 -0.6369
21735SOL     OW67211   3.868   1.405   4.263 -0.0676  0.1178 -0.1278
21735SOL    HW167212   3.807   1.458   4.211  1.4616  2.6738  0.5272
21735SOL    HW267213   3.878   1.453   4.345  0.7723 -1.6858  0.8928
21736SOL     OW67214   2.067   2.009   5.591 -0.1198  0.1863  0.5211
21736SOL    HW167215   2.017   2.016   5.509  0.9689 -0.4312 -0.2127
21736SOL    HW267216   2.021   1.941   5.641 -0.8962  0.6949  0.5122
21737SOL     OW67217  10.476   0.502   7.099  0.5864  0.3263 -0.7134
21737SOL    HW167218  10.523   0.447   7.161  2.4928  1.7714 -0.7606
21737SOL    HW267219  10.386   0.503   7.130  1.4818  1.0699  2.1258
21738SOL     OW67220   1.871   9.076  10.713  0.5454 -0.0813 -0.0133
21738SOL    HW167221   1.805   9.088  10.780  1.0542  0.2725  0.4357
21738SOL    HW267222   1.830   9.019  10.648 -1.0356  1.9967 -0.9383
21739SOL     OW67223   6.977  10.410   9.573  0.2034  0.1958  0.5169
21739SOL    HW167224   6.949  10.400   9.482 -1.0339 -1.5392  1.0362
21739SOL    HW267225   6.897  10.435   9.620  0.3822 -0.8142  1.3973
21740SOL     OW67226  10.009   0.879   8.102 -0.4773  0.3984  0.0179
21740SOL    HW167227   9.945   0.864   8.033 -0.6814  0.0577  0.2747
21740SOL    HW267228   9.995   0.806   8.163 -2.8207  2.5399  2.3268
21741SOL     OW67229   7.750   8.200   6.881 -0.4272 -0.1078 -0.3709
21741SOL    HW167230   7.746   8.233   6.971 -1.1303 -0.4893 -0.2531
21741SOL    HW267231   7.783   8.111   6.890  0.2034  0.1045 -0.5631
21742SOL     OW67232   8.728   0.333   9.423 -0.4371 -0.0321  0.2062
21742SOL    HW167233   8.728   0.237   9.421  1.5192 -0.0778  0.2270
21742SOL    HW267234   8.753   0.354   9.513  0.2365  0.4628 -0.0912
21743SOL     OW67235   5.092   5.794  10.285 -0.5990 -0.2979  0.1521
21743SOL    HW167236   5.057   5.867  10.233 -0.5217 -0.8673 -0.7175
21743SOL    HW267237   5.016   5.762  10.334 -0.4754  0.8379  1.1376
21744SOL     OW67238   9.074   3.661   8.495  0.1416  0.0439  0.0126
21744SOL    HW167239   9.025   3.583   8.470  1.4722 -0.5313 -0.9662
21744SOL    HW267240   9.020   3.735   8.466  0.5920 -0.5805 -2.7367
21745SOL     OW67241   9.384   0.978   1.172 -0.7961 -0.4900 -0.2525
21745SOL    HW167242   9.436   1.011   1.246 -1.2664  3.4417 -1.4226
21745SOL    HW267243   9.448   0.952   1.107 -0.3840 -2.5006  0.8954
21746SOL     OW67244   1.355   7.346   2.223  0.1409  0.3697 -0.4956
21746SOL    HW167245   1.392   7.285   2.159 -3.2866 -2.9078  0.2587
21746SOL    HW267246   1.355   7.297   2.305  0.1136  2.6734  0.9632
21747SOL     OW67247   1.063   1.144  10.465 -0.0405 -0.2692 -0.8838
21747SOL    HW167248   1.044   1.050  10.472  0.2059 -0.4428 -2.2682
21747SOL    HW267249   1.151   1.153  10.503 -1.6678  0.1519  3.2647
21748SOL     OW67250   0.482  10.265   2.920  0.0669  0.3644 -0.3431
21748SOL    HW167251   0.473  10.171   2.935  1.0688  0.0251 -1.6443
21748SOL    HW267252   0.436  10.281   2.838 -2.6657  1.5970  1.2941
21749SOL     OW67253   0.189   3.858   0.832 -0.5503  0.7052  0.1156
21749SOL    HW167254   0.242   3.938   0.823 -1.3064  1.1430 -0.5588
21749SOL    HW267255   0.105   3.889   0.864 -0.5630  0.0588  0.7444
21750SOL     OW67256   5.234   2.699   5.629 -0.7034 -0.0184  0.4939
21750SOL    HW167257   5.305   2.762   5.637  0.1506 -0.7653 -0.8730
21750SOL    HW267258   5.201   2.689   5.719 -0.2343  1.6185  0.8816
21751SOL     OW67259   3.080   0.993  10.460  0.1326 -0.1274  0.1248
21751SOL    HW167260   3.126   0.939  10.396  1.1764 -0.5296  1.1960
21751SOL    HW267261   3.027   0.932  10.510 -1.6391  0.3253 -1.0782
21752SOL     OW67262   0.629   8.460  10.070  0.0943 -0.1373  0.0127
21752SOL    HW167263   0.719   8.446  10.040 -0.2452 -0.5084 -0.8384
21752SOL    HW267264   0.623   8.555  10.084  1.2705 -0.3077  2.2154
21753SOL     OW67265   8.317   0.396   8.120  0.3741 -0.0087  0.9420
21753SOL    HW167266   8.351   0.427   8.204 -0.1450  0.3274  1.0286
21753SOL    HW267267   8.263   0.320   8.143  0.2602  0.0622  0.9069
21754SOL     OW67268  10.985  10.914   9.116 -0.1578 -0.4838  0.2709
21754SOL    HW167269  10.997  10.829   9.072  0.1120  0.2476 -1.1434
21754SOL    HW267270  10.989  10.894   9.209  1.8893 -1.7552 -0.0294
21755SOL     OW67271   2.700   8.696   2.542 -0.3593  0.6805  0.6505
21755SOL    HW167272   2.745   8.614   2.521 -0.9183  0.8558 -1.4186
21755SOL    HW267273   2.764   8.764   2.520  0.0772  0.8629  2.2941
21756SOL     OW67274   3.621   9.661   7.251 -0.8418 -0.1529  0.3142
21756SOL    HW167275   3.616   9.671   7.156 -2.8688 -0.9357  0.3072
21756SOL    HW267276   3.590   9.745   7.286 -0.4856 -0.0096  0.2912
21757SOL     OW67277   3.247   8.287   7.390  0.5200 -0.0317  0.6782
21757SOL    HW167278   3.288   8.203   7.370 -1.7121 -0.6906 -1.5330
21757SOL    HW267279   3.309   8.353   7.357  1.2497 -0.8681  0.3419
21758SOL     OW67280   8.400   6.804   0.634  0.5088  0.4118 -0.3423
21758SOL    HW167281   8.321   6.854   0.616  1.5023  1.8491 -0.9183
21758SOL    HW267282   8.369   6.721   0.670 -1.3012  0.1639 -2.3351
21759SOL     OW67283   8.354   2.342   7.204  0.0611 -0.1978 -0.1628
21759SOL    HW167284   8.308   2.303   7.278 -0.0558 -1.2092 -0.7420
21759SOL    HW267285   8.412   2.407   7.243 -1.1032  0.3713  0.6749
21760SOL     OW67286   9.859   1.741   4.679 -0.3973 -0.0751  0.2400
21760SOL    HW167287   9.808   1.674   4.633  2.3606 -0.2867 -2.8660
21760SOL    HW267288   9.934   1.694   4.715  1.8062  1.2526 -2.3491
21761SOL     OW67289   2.633  10.472   0.727  0.2506  0.4501  0.0130
21761SOL    HW167290   2.571  10.491   0.655 -1.8306 -0.2257  1.5338
21761SOL    HW267291   2.609  10.384   0.756  1.5580  0.4296  1.0652
21762SOL     OW67292   2.276   3.772   5.088 -0.0030 -0.9419 -0.0892
21762SOL    HW167293   2.215   3.731   5.149 -1.5412  1.8875  0.4406
21762SOL    HW267294   2.225   3.784   5.007 -0.9224  2.8365  0.8269
21763SOL     OW67295   6.844   8.272   7.612  0.3756  0.4016  0.6946
21763SOL    HW167296   6.832   8.366   7.604  0.6563  0.3258 -0.7964
21763SOL    HW267297   6.918   8.251   7.555  1.3173 -0.5233  2.1694
21764SOL     OW67298  10.069   6.866   3.942  0.0841  0.5946  0.2211
21764SOL    HW167299  10.144   6.851   4.000 -0.2204  0.0639  0.4792
21764SOL    HW267300  10.100   6.933   3.880  0.0976  1.8779  1.5718
21765SOL     OW67301   5.109   9.498   9.070  0.2735 -0.5114 -0.7153
21765SOL    HW167302   5.200   9.510   9.098 -0.2967 -0.1757  1.1542
21765SOL    HW267303   5.115   9.475   8.977  2.2010  0.5166 -0.8990
21766SOL     OW67304   3.132   2.420   9.781  0.2227  0.1381 -0.7443
21766SOL    HW167305   3.138   2.336   9.736 -2.6391 -0.2630 -0.5575
21766SOL    HW267306   3.042   2.449   9.767 -0.4220  0.7055  3.3879
21767SOL     OW67307   4.175   8.497   5.771  0.2326 -0.2332 -0.1406
21767SOL    HW167308   4.158   8.456   5.856 -1.3751  0.9735  0.1553
21767SOL    HW267309   4.095   8.483   5.721  0.5145  0.5547 -0.8338
21768SOL     OW67310  10.088   6.681   8.369  0.8417  0.4878 -0.2091
21768SOL    HW167311  10.030   6.740   8.417  2.0491  1.6790 -0.1288
21768SOL    HW267312  10.128   6.737   8.302  2.5298 -0.0343  0.3037
21769SOL     OW67313   6.432   8.123   1.746  0.2731 -0.3594  0.3795
21769SOL    HW167314   6.516   8.102   1.705  0.7203  0.0246  1.0884
21769SOL    HW267315   6.453   8.187   1.814 -0.2480 -1.9487  2.1246
21770SOL     OW67316  10.274   4.736   8.576  0.0506  0.0314  0.6317
21770SOL    HW167317  10.195   4.694   8.611 -0.3507  1.8388  2.0425
21770SOL    HW267318  10.241   4.811   8.527  0.8595  0.2401  0.3965
21771SOL     OW67319  10.627   1.936   2.328 -0.4635 -0.4601 -0.6438
21771SOL    HW167320  10.699   1.930   2.266 -1.5552 -2.9934 -1.8147
21771SOL    HW267321  10.583   2.017   2.306  2.0165  1.2279  0.1946
21772SOL     OW67322   1.100   9.199   4.938  0.0232  0.0659  0.5041
21772SOL    HW167323   1.040   9.200   5.013 -0.6410  1.3770 -0.0145
21772SOL    HW267324   1.148   9.282   4.945  0.6984 -0.2795  0.0606
21773SOL     OW67325   7.535   7.405   5.564 -0.2714  0.5304 -0.0142
21773SOL    HW167326   7.598   7.339   5.534 -0.0135  0.2544  1.0713
21773SOL    HW267327   7.540   7.400   5.660  0.5822  2.9243  0.1137
21774SOL     OW67328   1.328   1.437   9.048 -0.4102 -0.0297 -0.6612
21774SOL    HW167329   1.254   1.467   8.994 -0.5511  1.3437  0.2332
21774SOL    HW267330   1.362   1.517   9.088  1.6560 -0.6173 -1.1187
21775SOL     OW67331   6.515   5.936  10.703  0.1845 -0.1305  0.2293
21775SOL    HW167332   6.587   5.893  10.751  0.6840  1.4313  0.9611
21775SOL    HW267333   6.460   5.974  10.772 -0.7506 -0.3707 -0.3646
21776SOL     OW67334   5.910   4.355   0.735  0.9087 -0.9414 -0.0825
21776SOL    HW167335   5.963   4.282   0.704  0.1519 -1.5347 -0.0003
21776SOL    HW267336   5.832   4.314   0.773  0.9013 -0.1414  0.8125
21777SOL     OW67337   3.301   0.054   7.216 -0.0639 -0.5423 -0.0406
21777SOL    HW167338   3.284   0.018   7.303 -1.5591 -0.7503 -0.3958
21777SOL    HW267339   3.345  -0.017   7.169  0.7657 -0.4226  0.5395
21778SOL     OW67340   9.522   2.257   0.731  0.6346  1.0431 -0.7798
21778SOL    HW167341   9.478   2.298   0.806 -0.4810  0.2557 -0.9739
21778SOL    HW267342   9.490   2.167   0.731  1.7069  0.6490 -1.3853
21779SOL     OW67343  10.715   1.610   5.602  0.4736 -0.0450 -0.0519
21779SOL    HW167344  10.798   1.644   5.568 -1.0688  3.3790 -0.8150
21779SOL    HW267345  10.706   1.652   5.687 -0.8575  0.3095 -0.3548
21780SOL     OW67346   6.490   3.125  10.392  0.5156  0.3263  0.3405
21780SOL    HW167347   6.524   3.173  10.317 -1.4038  1.8132  0.3132
21780SOL    HW267348   6.511   3.034  10.374  0.2652  0.6542 -1.9379
21781SOL     OW67349   5.519   8.753   1.774  0.0126  0.0683  0.1394
21781SOL    HW167350   5.458   8.681   1.757  0.2503  0.3731 -2.2265
21781SOL    HW267351   5.469   8.832   1.755  0.2735  0.4714  1.0745
21782SOL     OW67352   7.215   3.269   8.592  0.0853 -0.5796  0.3978
21782SOL    HW167353   7.190   3.207   8.524  1.9799 -2.3936  1.2453
21782SOL    HW267354   7.296   3.308   8.559 -0.7484  1.0629  0.1680
21783SOL     OW67355   3.695   9.174   8.876 -0.3902 -0.0812 -0.5707
21783SOL    HW167356   3.645   9.255   8.863 -0.3555  0.0523  0.0985
21783SOL    HW267357   3.737   9.158   8.791 -0.8013  0.3230 -0.8579
21784SOL     OW67358   1.035   0.768   8.808  0.0115 -0.5008 -0.3588
21784SOL    HW167359   0.968   0.700   8.802 -2.0153  1.2381  1.1461
21784SOL    HW267360   1.035   0.795   8.900  2.3847  0.0243 -0.4260
21785SOL     OW67361   4.660  10.720   9.551  0.0340  0.0140  0.1119
21785SOL    HW167362   4.614  10.726   9.635 -1.0056  0.9396 -0.4948
21785SOL    HW267363   4.644  10.631   9.522 -0.2452 -0.0840  0.5505
21786SOL     OW67364   6.883   1.545   9.430  0.0201  0.0517  0.1555
21786SOL    HW167365   6.837   1.461   9.424 -0.4998  0.2945  0.6081
21786SOL    HW267366   6.836   1.593   9.498  0.8120  0.4018  0.4720
21787SOL     OW67367   1.567   7.515   0.214  0.4531  0.5563 -0.0827
21787SOL    HW167368   1.483   7.471   0.204  0.9124 -0.6820  1.2221
21787SOL    HW267369   1.546   7.600   0.251 -0.4081  1.3268 -2.1736
21788SOL     OW67370   6.245   0.827   6.517  0.1287 -0.2708 -0.0949
21788SOL    HW167371   6.240   0.758   6.452 -2.5673 -0.4357  0.1785
21788SOL    HW267372   6.274   0.905   6.468  1.8205 -1.1930 -0.6625
21789SOL     OW67373   7.667   0.569   1.873  0.1139  0.7145  0.1012
21789SOL    HW167374   7.696   0.658   1.853  2.4475  0.0901  0.4528
21789SOL    HW267375   7.637   0.573   1.964  0.3516  1.1147  0.1629
21790SOL     OW67376   2.752   8.346   4.365  0.2699 -0.2993 -0.2237
21790SOL    HW167377   2.797   8.289   4.302  1.2477 -1.0765  1.1060
21790SOL    HW267378   2.705   8.285   4.422 -0.4222  0.3719 -0.0761
21791SOL     OW67379   8.452   7.817   9.718 -0.3976 -0.3044 -0.0736
21791SOL    HW167380   8.452   7.895   9.773  1.2814  0.2003 -0.7363
21791SOL    HW267381   8.544   7.801   9.697 -0.7162 -2.3172 -0.1804
21792SOL     OW67382   2.873   2.941   1.946 -0.0348  0.4953 -0.2758
21792SOL    HW167383   2.781   2.930   1.968 -0.5099 -1.7327 -2.8134
21792SOL    HW267384   2.920   2.898   2.017 -1.0694 -0.1053  0.0631
21793SOL     OW67385   5.553   7.676   7.831 -0.2182 -0.0716  0.3524
21793SOL    HW167386   5.458   7.667   7.833 -0.4781  2.1524  0.0203
21793SOL    HW267387   5.571   7.761   7.871  1.3690  0.9573 -2.2054
21794SOL     OW67388   1.051   3.903   0.668 -0.2587 -0.3774 -0.2504
21794SOL    HW167389   1.059   3.983   0.720 -0.2572 -0.7172  0.2764
21794SOL    HW267390   0.965   3.868   0.691 -0.2893 -0.4894 -0.5348
21795SOL     OW67391   9.577   0.711   9.647 -0.2407  0.1374 -0.3035
21795SOL    HW167392   9.639   0.764   9.697 -1.2625  1.9193 -0.8490
21795SOL    HW267393   9.522   0.669   9.713  0.6341 -0.3290  0.1375
21796SOL     OW67394   8.148   1.767   7.277  0.3286  0.5617 -0.3201
21796SOL    HW167395   8.147   1.857   7.244  0.5000  0.4812 -0.5535
21796SOL    HW267396   8.240   1.741   7.273  0.4834  0.8222  0.9952
21797SOL     OW67397   8.114   5.738   8.680  0.0087 -0.0920 -0.5272
21797SOL    HW167398   8.201   5.750   8.641  0.2499 -0.8970 -0.2414
21797SOL    HW267399   8.114   5.649   8.713 -0.4349  0.3566  0.7318
21798SOL     OW67400   7.232   2.935   4.943  0.5171 -0.0782  0.0133
21798SOL    HW167401   7.229   3.015   4.889  1.0770 -0.6794 -0.9476
21798SOL    HW267402   7.212   2.865   4.881  0.5955 -0.7404  0.7351
21799SOL     OW67403   7.338   6.402   6.824 -1.1679 -0.3462  0.2401
21799SOL    HW167404   7.339   6.322   6.877  0.1056 -0.5669 -0.0718
21799SOL    HW267405   7.423   6.443   6.842 -0.6915 -0.4234 -1.5905
21800SOL     OW67406   0.224   0.784   8.646  0.3206  0.1204 -0.3257
21800SOL    HW167407   0.279   0.738   8.583 -0.5001 -2.6582  0.8544
21800SOL    HW267408   0.284   0.809   8.716  0.6152  0.0618 -0.5523
21801SOL     OW67409   0.269  10.426   2.347 -0.2051 -0.8801  0.1556
21801SOL    HW167410   0.260  10.331   2.339 -0.6974 -0.7722 -0.8514
21801SOL    HW267411   0.358  10.439   2.379 -1.0416 -1.7582  3.1733
21802SOL     OW67412   8.089   8.090   9.267  0.0228  0.7712 -0.2761
21802SOL    HW167413   8.066   8.041   9.346 -0.5248 -2.1202 -2.0739
21802SOL    HW267414   8.105   8.180   9.298 -1.1418  0.0135  2.9181
21803SOL     OW67415   7.445   1.614   6.112 -0.5010  0.2091 -0.2998
21803SOL    HW167416   7.363   1.575   6.084 -0.6368  0.4840 -0.2933
21803SOL    HW267417   7.421   1.702   6.143 -0.4604 -0.3053  1.2915
21804SOL     OW67418   7.785   1.688   1.440 -0.2351  0.1435  0.3378
21804SOL    HW167419   7.879   1.677   1.428 -0.5731 -0.5814 -2.0297
21804SOL    HW267420   7.750   1.701   1.352 -2.3049  0.9735  1.2024
21805SOL     OW67421   3.586   3.534  10.021  0.3416  0.0314  0.3013
21805SOL    HW167422   3.510   3.533   9.963  0.2007  2.0902  0.3726
21805SOL    HW267423   3.550   3.559  10.106  0.9140 -0.3656  0.6642
21806SOL     OW67424   2.869   9.938   0.499  0.0372 -0.1513  0.0104
21806SOL    HW167425   2.962   9.919   0.495  0.4705  1.8991 -1.2551
21806SOL    HW267426   2.827   9.871   0.445  0.8210 -0.8144  0.2184
21807SOL     OW67427   8.049  10.181   2.189  0.5414 -0.3329  0.4719
21807SOL    HW167428   8.049  10.111   2.124 -1.9008  0.2462 -0.2464
21807SOL    HW267429   8.079  10.259   2.141  0.8640 -0.3607  0.6255
21808SOL     OW67430  10.378   3.976   1.444  0.0010 -0.1727  0.1113
21808SOL    HW167431  10.449   4.007   1.501  0.3265 -1.4569  0.4383
21808SOL    HW267432  10.424   3.934   1.370 -0.4258  0.3694 -0.4771
21809SOL     OW67433   2.773   0.855   6.638 -0.2311  0.1669 -0.8184
21809SOL    HW167434   2.840   0.896   6.584 -0.0899  1.5694  0.3668
21809SOL    HW267435   2.786   0.891   6.725  0.3355 -2.9598  0.5273
21810SOL     OW67436   0.331   0.189   1.830  0.5052  0.3164  0.1163
21810SOL    HW167437   0.378   0.140   1.897  0.5008  0.2034  0.0369
21810SOL    HW267438   0.263   0.129   1.799  0.6341  0.2950 -0.1296
21811SOL     OW67439   0.135   5.796  10.382 -0.3273 -0.0038 -0.7304
21811SOL    HW167440   0.117   5.708  10.413  1.0493 -0.3284 -0.7970
21811SOL    HW267441   0.229   5.808  10.394 -0.6248  1.8064  0.1547
21812SOL     OW67442   9.134   6.175   6.594 -0.4633  0.0098  0.0672
21812SOL    HW167443   9.181   6.254   6.621  0.6597 -0.9432  1.0363
21812SOL    HW267444   9.148   6.170   6.500 -2.1099  1.9321 -0.3324
21813SOL     OW67445   4.137   8.113   1.902 -0.4326  0.6669  0.1972
21813SOL    HW167446   4.094   8.199   1.906  3.8233  3.2377 -1.5105
21813SOL    HW267447   4.208   8.119   1.966 -0.2015 -1.7594  0.2352
21814SOL     OW67448   4.193   3.030  11.015  0.3577  0.3705  0.0187
21814SOL    HW167449   4.177   2.941  11.046 -1.3637  0.0692 -1.5561
21814SOL    HW267450   4.187   3.084  11.094  0.2858 -0.7764  0.8249
21815SOL     OW67451   6.593   5.010   8.893 -0.4926  0.2559  0.0305
21815SOL    HW167452   6.571   5.103   8.897 -1.5684  0.0733 -1.0129
21815SOL    HW267453   6.658   4.998   8.961 -0.2004  1.8128  0.0687
21816SOL     OW67454   3.906  10.713   1.288 -0.3658 -0.4364  0.7480
21816SOL    HW167455   3.939  10.626   1.310 -0.1059 -0.3243  0.8023
21816SOL    HW267456   3.817  10.697   1.257 -0.2529 -0.7397  0.5757
21817SOL     OW67457   8.309   2.935   4.414  0.0413 -0.0818 -0.4613
21817SOL    HW167458   8.310   2.908   4.506  1.9038  0.5399 -0.2672
21817SOL    HW267459   8.359   3.017   4.412 -3.4110  2.2487 -1.3987
21818SOL     OW67460   1.586   0.551   3.206 -0.3105  0.2017  0.2654
21818SOL    HW167461   1.662   0.608   3.216  0.4434 -0.6037 -0.6758
21818SOL    HW267462   1.536   0.590   3.134  0.4816 -0.5874 -0.7385
21819SOL     OW67463   3.733   0.589   9.835 -0.0117  0.2519  0.0892
21819SOL    HW167464   3.806   0.586   9.773 -0.1264  1.2131 -0.1188
21819SOL    HW267465   3.662   0.542   9.791 -0.0364  0.7772 -0.4518
21820SOL     OW67466   1.578   1.708   0.294 -0.1695 -0.0721 -0.8662
21820SOL    HW167467   1.637   1.766   0.245  1.3741 -2.1122 -1.5670
21820SOL    HW267468   1.592   1.621   0.255 -2.1560 -1.0002  0.3338
21821SOL     OW67469   2.484   2.404   9.992  0.0040 -0.4070 -0.1669
21821SOL    HW167470   2.469   2.408  10.087 -3.7779 -1.6418 -0.5204
21821SOL    HW267471   2.425   2.335   9.962  1.6015 -0.5463 -3.3961
21822SOL     OW67472   5.756   1.389   5.017 -0.4434 -0.2068  0.1482
21822SOL    HW167473   5.732   1.469   5.064  0.0460 -0.0664  0.1649
21822SOL    HW267474   5.804   1.337   5.082 -3.5388 -2.0065  1.2046
21823SOL     OW67475   7.752   6.006   8.749 -0.4256  0.5615 -0.3445
21823SOL    HW167476   7.720   6.055   8.673 -0.9814 -2.9572 -2.5918
21823SOL    HW267477   7.847   6.006   8.740 -0.5396 -1.0499 -1.9755
21824SOL     OW67478   4.210   4.311   3.064 -0.3258  0.4388 -0.1909
21824SOL    HW167479   4.154   4.382   3.033  0.9958  1.9828  0.8236
21824SOL    HW267480   4.152   4.254   3.114 -1.3134  1.0691 -0.5996
21825SOL     OW67481   2.869   0.254   7.804  0.2693 -0.2442  0.1837
21825SOL    HW167482   2.855   0.182   7.742 -2.3242  1.5178 -1.4550
21825SOL    HW267483   2.962   0.274   7.797  0.2221 -0.6126 -2.6456
21826SOL     OW67484   5.180   4.622   7.984  0.4277  0.3458  0.1106
21826SOL    HW167485   5.165   4.679   7.909  0.5270  0.2225 -0.0055
21826SOL    HW267486   5.174   4.679   8.060  1.6980  0.7579 -0.0610
21827SOL     OW67487   6.616   7.259   6.192 -0.1139  0.9655  0.3375
21827SOL    HW167488   6.531   7.277   6.153 -0.5474  1.0994  1.3077
21827SOL    HW267489   6.598   7.249   6.286  0.8185  0.2097  0.4595
21828SOL     OW67490   6.273  10.504   0.187  0.1036  0.6308 -0.5293
21828SOL    HW167491   6.182  10.525   0.166  0.2316  0.3693 -1.4188
21828SOL    HW267492   6.273  10.410   0.205 -0.1665  1.0162  1.6770
21829SOL     OW67493   6.884   1.132   0.659 -0.0487  0.2806  0.2863
21829SOL    HW167494   6.849   1.140   0.571 -2.3241 -0.1658  1.0817
21829SOL    HW267495   6.966   1.181   0.657  0.8486 -1.1450 -2.4977
21830SOL     OW67496   5.199   1.067  10.689  0.6270 -0.1487 -0.1641
21830SOL    HW167497   5.225   1.022  10.770 -0.8440 -2.9942 -1.1203
21830SOL    HW267498   5.161   1.149  10.719  1.3907 -0.4604  1.9099
21831SOL     OW67499   9.137   7.229   0.976  0.0593 -0.6488 -0.3415
21831SOL    HW167500   9.198   7.259   1.044  2.1243 -2.8270 -1.1000
21831SOL    HW267501   9.065   7.188   1.025 -0.9335  1.9584  0.5668
21832SOL     OW67502   8.226   6.051   8.405 -0.3646 -0.1317 -0.0291
21832SOL    HW167503   8.276   6.092   8.335 -0.4914 -2.1673 -1.3975
21832SOL    HW267504   8.291   6.023   8.469  0.0486 -0.7219 -0.6926
21833SOL     OW67505   1.786   2.532   6.341 -0.4967  0.4840  0.4479
21833SOL    HW167506   1.773   2.453   6.287 -0.8610  1.2641 -0.6467
21833SOL    HW267507   1.742   2.601   6.292  0.1665  1.4550  1.1970
21834SOL     OW67508   6.687   1.590   4.949 -0.3081 -0.6557  0.1830
21834SOL    HW167509   6.647   1.672   4.978 -2.0737 -2.1322  2.3211
21834SOL    HW267510   6.672   1.588   4.855 -1.9655  0.6146  0.3648
21835SOL     OW67511   9.941   9.381   1.919 -0.0624  0.8166  0.7150
21835SOL    HW167512   9.978   9.464   1.891 -1.2405  1.2514  0.3638
21835SOL    HW267513   9.959   9.320   1.848 -0.1930  1.0725  0.4633
21836SOL     OW67514   8.494   5.080   4.129  0.4242 -0.1428  0.1350
21836SOL    HW167515   8.403   5.065   4.104  0.4095  0.3588 -0.1224
21836SOL    HW267516   8.515   5.165   4.091  0.0569  1.2127  2.7255
21837SOL     OW67517   3.445   7.096   0.077 -0.2252 -0.1843  0.1158
21837SOL    HW167518   3.417   7.066  -0.010 -1.4176  1.2399 -0.0458
21837SOL    HW267519   3.493   7.177   0.059 -0.5725  0.1772  0.7840
21838SOL     OW67520   7.256   1.751   7.117 -0.3484 -0.2255  0.0642
21838SOL    HW167521   7.348   1.726   7.110 -0.3366 -0.8579  1.7927
21838SOL    HW267522   7.222   1.694   7.186 -1.3929  1.7139  1.2282
21839SOL     OW67523   8.514   0.414   2.143  0.0960 -0.0051 -0.1005
21839SOL    HW167524   8.428   0.394   2.105 -0.2498  0.0036  0.6505
21839SOL    HW267525   8.577   0.385   2.077 -0.4417 -1.4734 -0.0066
21840SOL     OW67526   1.809   6.383   9.855  0.1808  0.5483  0.0695
21840SOL    HW167527   1.824   6.424   9.770 -2.3162  0.9208 -0.2587
21840SOL    HW267528   1.864   6.304   9.854  0.1602  0.5205 -1.9169
21841SOL     OW67529   3.578  11.099  10.292  0.2580  0.4607  0.6866
21841SOL    HW167530   3.652  11.144  10.252  0.7969  0.2896  1.4588
21841SOL    HW267531   3.576  11.013  10.249 -0.7199  1.1544 -0.7234
21842SOL     OW67532   3.232   0.356   2.123  0.0497  0.0565 -0.5201
21842SOL    HW167533   3.253   0.437   2.169  0.0931 -0.6127  0.6837
21842SOL    HW267534   3.264   0.286   2.181 -1.6645 -0.8704 -0.6170
21843SOL     OW67535   3.003   7.777   9.069 -0.1490 -0.2545  0.1367
21843SOL    HW167536   3.067   7.847   9.061 -2.5105  1.9990 -0.4882
21843SOL    HW267537   3.039   7.706   9.016  1.9061  0.8003  0.0131
21844SOL     OW67538   6.574   9.391   0.996 -0.1857 -0.4483 -0.1013
21844SOL    HW167539   6.488   9.351   1.005 -0.2219 -0.4006 -0.2298
21844SOL    HW267540   6.595   9.424   1.083 -1.1337  1.2498 -0.4698
21845SOL     OW67541   2.178  11.101   7.678  0.0341  0.1821 -0.0785
21845SOL    HW167542   2.099  11.048   7.688  0.9272 -1.3093 -0.5698
21845SOL    HW267543   2.208  11.117   7.767  0.4802 -1.3315  0.0701
21846SOL     OW67544   9.787   2.273  10.446 -0.5615  0.3649  0.5524
21846SOL    HW167545   9.825   2.298  10.362 -0.1793  1.3031  0.9915
21846SOL    HW267546   9.762   2.181  10.434  1.0295 -0.0235 -0.0245
21847SOL     OW67547   3.453   4.118  10.291  0.5183 -0.3078 -0.1886
21847SOL    HW167548   3.390   4.190  10.281  2.9544  1.7776 -1.8349
21847SOL    HW267549   3.502   4.141  10.370 -0.3882 -1.6598  0.8064
21848SOL     OW67550   5.239  10.446   2.847  0.0279  0.4411 -0.0002
21848SOL    HW167551   5.158  10.484   2.882  0.2599 -0.0029  1.0869
21848SOL    HW267552   5.214  10.356   2.823  0.8531 -0.8553  3.4244
21849SOL     OW67553   1.320  10.153   6.655  0.3990 -0.2344 -0.3141
21849SOL    HW167554   1.243  10.209   6.645  0.3217  0.2031  2.0956
21849SOL    HW267555   1.285  10.073   6.695  1.1206 -0.1760  0.4527
21850SOL     OW67556   1.269   4.193   0.484  0.4387  0.6606  0.2885
21850SOL    HW167557   1.268   4.272   0.430  0.1559 -0.7277 -1.8729
21850SOL    HW267558   1.361   4.168   0.489  0.7003  1.8018  2.1331
21851SOL     OW67559   7.716   5.987   0.408  0.3085 -0.4512 -0.2025
21851SOL    HW167560   7.729   6.025   0.495 -1.7786  1.8002 -0.7696
21851SOL    HW267561   7.778   6.034   0.352 -0.1557 -0.0234 -0.3654
21852SOL     OW67562   2.977   6.620   9.785  0.1531  0.5206  0.1652
21852SOL    HW167563   2.946   6.701   9.826  0.2979  0.4827  0.3534
21852SOL    HW267564   3.073   6.626   9.789  0.1703  0.6010 -0.3404
21853SOL     OW67565  10.255   7.421   9.444  0.1272 -0.5222  0.1554
21853SOL    HW167566  10.181   7.423   9.506  0.0996  0.9090  0.1312
21853SOL    HW267567  10.278   7.329   9.436 -1.2407 -0.9306  0.6729
21854SOL     OW67568   3.133   5.558   8.121 -0.4342 -0.0364  0.1072
21854SOL    HW167569   3.158   5.592   8.207  0.0930 -1.8972  0.7392
21854SOL    HW267570   3.217   5.534   8.079 -0.7350  0.1127 -0.5987
21855SOL     OW67571   2.065   0.346   5.586 -0.4032  0.4879  0.9353
21855SOL    HW167572   2.158   0.352   5.609 -0.1609  0.6275 -0.0145
21855SOL    HW267573   2.031   0.276   5.641  0.7828 -1.1133 -0.2540
21856SOL     OW67574   8.899   6.951  11.086  0.3993 -0.0536 -0.2859
21856SOL    HW167575   8.848   7.032  11.081  1.4199  0.6391  0.1398
21856SOL    HW267576   8.938   6.943  10.998  1.0884  0.4760 -0.0444
21857SOL     OW67577  11.039   1.814   3.663  0.0304 -0.9895 -0.2473
21857SOL    HW167578  11.019   1.907   3.651  1.9529 -0.7021 -1.6500
21857SOL    HW267579  11.007   1.794   3.751 -1.6471  0.6338 -0.4304
21858SOL     OW67580   3.003   4.756   1.173  0.0050  0.2419 -0.1737
21858SOL    HW167581   2.915   4.719   1.186  1.3127 -3.0349  0.3529
21858SOL    HW267582   3.040   4.763   1.261  0.8351  0.0057 -0.4939
21859SOL     OW67583   8.706   5.065   9.372  0.2324 -0.0340  0.2530
21859SOL    HW167584   8.666   5.151   9.360 -0.0985 -0.1401  0.5730
21859SOL    HW267585   8.798   5.084   9.393  0.0853  0.2567  0.6496
21860SOL     OW67586   2.895   1.225  10.513  0.0595 -0.2774  0.0946
21860SOL    HW167587   2.969   1.177  10.475  1.9400  0.2081  2.8393
21860SOL    HW267588   2.934   1.307  10.545 -2.1449  0.9987 -0.3109
21861SOL     OW67589   5.527   5.051   2.659  0.4781 -0.2730  0.2659
21861SOL    HW167590   5.558   5.142   2.658 -0.0256 -0.0956  0.3887
21861SOL    HW267591   5.590   5.004   2.605  0.2189  0.3231 -0.5775
21862SOL     OW67592   0.698   8.524   0.321 -0.3745  0.2460 -0.4724
21862SOL    HW167593   0.748   8.525   0.240 -1.2285 -0.1350 -1.0200
21862SOL    HW267594   0.760   8.491   0.387  0.3053  0.5017 -0.9771
21863SOL     OW67595   3.559   5.038   8.088 -0.2650 -0.3584 -0.0082
21863SOL    HW167596   3.508   5.116   8.110  1.9571  1.4166 -0.7361
21863SOL    HW267597   3.628   5.070   8.030 -0.1993 -3.1804 -1.6894
21864SOL     OW67598  11.015   5.874   0.607 -0.8839  0.0590  0.0274
21864SOL    HW167599  11.024   5.970   0.609  0.3711 -0.0452  2.2334
21864SOL    HW267600  11.044   5.845   0.693 -1.7541 -2.3040 -0.3950
21865SOL     OW67601   1.814   1.566   0.984 -0.6513  0.6276 -0.2457
21865SOL    HW167602   1.782   1.562   0.894 -0.6525 -0.9456 -0.1946
21865SOL    HW267603   1.907   1.545   0.978 -0.9771 -1.0578  0.2716
21866SOL     OW67604   3.638   4.093   0.197 -0.1918  0.8972  0.2294
21866SOL    HW167605   3.698   4.072   0.126 -0.6194 -0.2568  0.1841
21866SOL    HW267606   3.694   4.120   0.270  0.3567  0.2284  0.0581
21867SOL     OW67607   7.170   3.725  11.072  0.0087 -0.5481  0.2475
21867SOL    HW167608   7.098   3.711  11.011  0.1156 -0.9547  0.2100
21867SOL    HW267609   7.201   3.637  11.093  0.0232 -0.4084  0.8301
21868SOL     OW67610   6.202   7.177   7.905  0.3075  0.1360  0.3570
21868SOL    HW167611   6.154   7.126   7.971  1.3423  0.5835  1.4828
21868SOL    HW267612   6.163   7.264   7.910  1.6612  0.6970  1.7831
21869SOL     OW67613   8.695   5.778   9.588  0.3220 -0.1985  0.7651
21869SOL    HW167614   8.667   5.846   9.528 -0.0159 -0.3972  0.6927
21869SOL    HW267615   8.750   5.720   9.535  0.5622 -0.0174  0.8137
21870SOL     OW67616  10.711   6.762  10.694  0.4963 -0.1393  0.1027
21870SOL    HW167617  10.739   6.754  10.603  1.1223 -1.9642  0.4245
21870SOL    HW267618  10.771   6.827  10.731  1.6692 -0.9738 -0.2615
21871SOL     OW67619   0.601   5.294   3.910 -0.0669 -0.0163 -0.0913
21871SOL    HW167620   0.607   5.375   3.960  0.1329 -0.6681  0.9705
21871SOL    HW267621   0.662   5.306   3.837 -0.3221  0.9252 -0.1618
21872SOL     OW67622   4.249   0.765  10.613  0.2131  0.2651 -0.1059
21872SOL    HW167623   4.199   0.690  10.645 -0.6246  0.2765 -1.3206
21872SOL    HW267624   4.239   0.831  10.681  1.6988 -0.9752  1.4154
21873SOL     OW67625   0.552   8.153   4.076  0.3845 -0.4096  0.3141
21873SOL    HW167626   0.598   8.124   3.997  1.4384  0.3976  0.6132
21873SOL    HW267627   0.499   8.077   4.102  0.4322 -0.8635 -0.8602
21874SOL     OW67628   3.189   3.895   6.441 -0.0026 -0.4821  0.5011
21874SOL    HW167629   3.189   3.980   6.485 -0.2314 -0.7601  1.0503
21874SOL    HW267630   3.137   3.838   6.498  1.3727 -1.3815  0.9166
21875SOL     OW67631   7.048   9.202   6.757 -0.2159 -0.3265  0.4396
21875SOL    HW167632   7.041   9.121   6.807  0.6313 -0.9573 -0.4154
21875SOL    HW267633   7.140   9.205   6.731  0.1499  1.7254  1.7682
21876SOL     OW67634   8.036   3.106   7.793 -0.2850 -0.5784 -0.1996
21876SOL    HW167635   7.994   3.025   7.822  0.4886 -0.4613  1.3868
21876SOL    HW267636   8.003   3.120   7.705 -3.3364 -0.6428  0.8195
21877SOL     OW67637  10.235   6.754   3.364 -0.1785 -0.5264  0.2398
21877SOL    HW167638  10.232   6.841   3.324 -1.6237  0.3018  2.0225
21877SOL    HW267639  10.302   6.707   3.313 -0.4459  1.0944 -1.7524
21878SOL     OW67640   8.261   6.812   8.021  0.0627  0.4457  0.0667
21878SOL    HW167641   8.353   6.803   8.047 -0.0684 -0.3578  0.2603
21878SOL    HW267642   8.226   6.876   8.083  0.3484  0.3171  0.3688
21879SOL     OW67643   8.627   3.238   0.719 -0.7285 -0.1148  0.5932
21879SOL    HW167644   8.648   3.163   0.663 -0.9198 -0.4792  1.0028
21879SOL    HW267645   8.576   3.297   0.664 -0.7123 -0.3588  0.3178
21880SOL     OW67646   6.963   0.213   9.854  0.5644 -0.3323  0.1609
21880SOL    HW167647   6.928   0.244   9.771 -0.4552 -2.7086 -0.3594
21880SOL    HW267648   6.960   0.290   9.911 -3.8311  0.1618 -0.3870
21881SOL     OW67649   7.698   1.884   5.029 -0.3899  0.4482 -0.0859
21881SOL    HW167650   7.699   1.866   4.935 -0.6222 -0.5102  0.0892
21881SOL    HW267651   7.640   1.960   5.038  0.2209  1.0230 -0.7815
21882SOL     OW67652   5.080   8.234   7.948  0.1648  0.1445  0.0569
21882SOL    HW167653   5.107   8.315   7.990  0.9143  0.2667 -0.6383
21882SOL    HW267654   5.114   8.240   7.859 -0.0351 -0.7935 -0.0965
21883SOL     OW67655   7.322   1.303   0.368  0.2778 -0.5997 -0.3618
21883SOL    HW167656   7.330   1.351   0.451 -0.4459 -1.1092  0.0208
21883SOL    HW267657   7.251   1.348   0.321  0.3255 -0.6371 -0.4701
21884SOL     OW67658   2.962   3.255   2.996 -0.4379  0.3626  1.1130
21884SOL    HW167659   3.052   3.287   2.993  0.2761 -1.5808  0.1703
21884SOL    HW267660   2.949   3.228   3.087  0.6219 -1.0989  0.8609
21885SOL     OW67661   8.285   0.137  10.436 -0.4824  0.3261 -0.3639
21885SOL    HW167662   8.363   0.152  10.488  0.3967  1.3330 -1.8999
21885SOL    HW267663   8.240   0.222  10.434 -0.5886  0.2634 -1.0885
21886SOL     OW67664   7.492   1.614   3.218 -0.1851  0.4286 -0.3086
21886SOL    HW167665   7.567   1.554   3.209 -0.3765  0.0389  0.5966
21886SOL    HW267666   7.518   1.674   3.288  1.0472  3.0243 -2.7754
21887SOL     OW67667   6.444   1.626   1.877 -0.1037 -0.1961  0.1284
21887SOL    HW167668   6.393   1.545   1.869  0.2870 -0.3280 -1.0865
21887SOL    HW267669   6.419   1.678   1.801  1.1830 -0.0443 -0.2114
21888SOL     OW67670   2.016   5.655   2.291  0.1659  0.2445 -0.3561
21888SOL    HW167671   1.931   5.670   2.331  0.3126  3.5946 -1.0187
21888SOL    HW267672   2.037   5.738   2.248  3.5121 -0.6570 -0.7108
21889SOL     OW67673   5.576  10.206   7.575 -0.6070 -0.0869  0.6388
21889SOL    HW167674   5.525  10.287   7.572  0.2408  0.4600  0.2519
21889SOL    HW267675   5.530  10.146   7.517  0.4531  1.1928 -1.6620
21890SOL     OW67676  10.584   7.022   4.069  0.1320  0.1950 -0.1442
21890SOL    HW167677  10.577   7.101   4.123  1.5744  0.3639 -0.1700
21890SOL    HW267678  10.569   7.052   3.979  1.1768  0.5485 -0.2113
21891SOL     OW67679   4.428   5.860  10.990  0.5170 -0.0542  0.0363
21891SOL    HW167680   4.509   5.843  11.038  0.5367  0.3040  0.1305
21891SOL    HW267681   4.389   5.773  10.978  2.0107 -0.5287 -1.9700
21892SOL     OW67682   5.885   3.696   9.506 -0.4769  0.0920  0.5767
21892SOL    HW167683   5.942   3.739   9.570 -2.0537  1.1109  1.3624
21892SOL    HW267684   5.944   3.674   9.433  1.2387 -0.5172  2.0681
21893SOL     OW67685  10.283   2.654   4.756  0.2169  0.0622  0.3099
21893SOL    HW167686  10.214   2.719   4.769 -0.9418 -1.3368  1.6312
21893SOL    HW267687  10.291   2.646   4.661  0.1777  1.8658  0.1162
21894SOL     OW67688   8.342   0.741   2.021  0.2092 -0.2644  0.5073
21894SOL    HW167689   8.281   0.727   2.093 -0.4138  0.9332  0.2277
21894SOL    HW267690   8.330   0.664   1.964 -3.3847  1.3123 -1.1747
21895SOL     OW67691   4.316   5.139   3.835  0.2199 -0.0592  0.0615
21895SOL    HW167692   4.332   5.175   3.748  0.0917 -3.9989 -1.8090
21895SOL    HW267693   4.381   5.069   3.844 -0.6087 -0.5962  2.6017
21896SOL     OW67694   4.249  11.006  10.441  0.4274 -0.2857 -0.4914
21896SOL    HW167695   4.288  11.034  10.523  0.3945 -1.0019 -0.2326
21896SOL    HW267696   4.216  11.088  10.402  1.0485  0.1505 -0.1258
21897SOL     OW67697   7.922  10.987   9.748 -0.0729  0.2411 -0.2093
21897SOL    HW167698   7.930  11.070   9.699  1.6707  0.4370  0.3198
21897SOL    HW267699   8.007  10.945   9.736 -0.8019 -1.2997 -0.1201
21898SOL     OW67700   7.922   3.785   9.441  0.0778  0.2510 -0.3381
21898SOL    HW167701   7.878   3.822   9.364  1.3014 -2.3661 -2.4688
21898SOL    HW267702   7.900   3.692   9.438  3.3790 -0.6590  0.0943
21899SOL     OW67703   0.043   9.333   1.858 -0.2405  0.1486 -0.0420
21899SOL    HW167704   0.121   9.343   1.804  0.4199  1.1910  1.0452
21899SOL    HW267705  -0.011   9.409   1.838  0.1944  0.7628  1.0087
21900SOL     OW67706   1.688   2.691   4.674  0.4039 -0.0989 -0.1807
21900SOL    HW167707   1.696   2.600   4.704 -0.8952 -0.8724 -1.9933
21900SOL    HW267708   1.674   2.742   4.754  0.2433 -1.6004  0.7874
21901SOL     OW67709   4.731   4.247   8.120  0.4835  0.2772 -0.0267
21901SOL    HW167710   4.784   4.285   8.190 -1.9547 -0.6466  2.4839
21901SOL    HW267711   4.680   4.321   8.086  0.7243  0.4988  0.0904
21902SOL     OW67712   9.999   1.588   9.810  0.2467  0.3744 -0.0909
21902SOL    HW167713  10.006   1.638   9.728 -0.4552 -0.5122 -0.7061
21902SOL    HW267714  10.078   1.612   9.858 -0.5793  2.9316  0.1515
21903SOL     OW67715   4.952   7.268   6.542  0.1167  0.0243 -0.5588
21903SOL    HW167716   4.960   7.199   6.475 -2.4287  0.5892 -1.5985
21903SOL    HW267717   4.936   7.220   6.623  1.0169 -0.6371 -0.7525
21904SOL     OW67718   5.406   1.515   1.243  0.4956  0.3322  0.6849
21904SOL    HW167719   5.385   1.459   1.317  1.5562  1.7226  2.0984
21904SOL    HW267720   5.447   1.593   1.282 -0.6845  2.0046 -1.1927
21905SOL     OW67721   0.948   1.781   3.969  0.4356  0.4563  0.2740
21905SOL    HW167722   0.993   1.706   4.007  0.0673  0.0837 -0.0134
21905SOL    HW267723   0.978   1.784   3.878  0.2493  0.5001  0.2128
21906SOL     OW67724   0.302   0.684  10.459  0.5118 -0.1979  0.2203
21906SOL    HW167725   0.289   0.723  10.546  1.0845  0.1917  0.1378
21906SOL    HW267726   0.216   0.650  10.435  0.1739  0.3647  0.6161
21907SOL     OW67727   0.086   9.689   5.477 -0.2089 -0.1152 -0.0330
21907SOL    HW167728   0.180   9.679   5.487  0.0030  0.2384 -1.4690
21907SOL    HW267729   0.067   9.776   5.512  0.1449  0.1661 -0.5231
21908SOL     OW67730   7.690   0.324   3.108  0.3383 -0.0116 -0.2313
21908SOL    HW167731   7.762   0.385   3.096  1.3417 -1.1974 -0.4816
21908SOL    HW267732   7.715   0.271   3.184 -0.9154  0.4346  0.5191
21909SOL     OW67733   5.460   9.969   1.810 -0.4906  0.6046  0.6713
21909SOL    HW167734   5.509   9.978   1.892 -0.9877  0.2851  1.0065
21909SOL    HW267735   5.500  10.033   1.751  2.8466 -2.0831 -0.3290
21910SOL     OW67736   8.334   6.302   3.373 -0.0797  0.2591 -0.1546
21910SOL    HW167737   8.321   6.348   3.290 -0.6233  0.3700 -0.0102
21910SOL    HW267738   8.246   6.281   3.403  0.1386 -0.2630  0.1280
21911SOL     OW67739   8.775   1.337   3.528 -0.0176  0.3649 -0.0846
21911SOL    HW167740   8.734   1.423   3.518  0.1550  0.3213 -1.3785
21911SOL    HW267741   8.710   1.276   3.494  0.4620  0.1395 -0.6131
21912SOL     OW67742   8.364   2.686   4.206 -0.1230 -0.8938  0.4061
21912SOL    HW167743   8.320   2.643   4.132 -1.3657  1.4703 -0.3271
21912SOL    HW267744   8.293   2.709   4.266  0.3999  0.5111  0.5236
21913SOL     OW67745  10.730   1.331   0.816  0.1745  0.1274 -0.3198
21913SOL    HW167746  10.680   1.406   0.849 -0.8940 -0.5515 -0.3499
21913SOL    HW267747  10.811   1.332   0.867 -0.1800  0.8328  0.2458
21914SOL     OW67748   9.763   2.953   5.401 -0.6383 -0.1516  0.0378
21914SOL    HW167749   9.668   2.950   5.414 -0.9918 -1.0732 -2.3527
21914SOL    HW267750   9.793   2.867   5.429 -1.0579 -1.1885 -2.4337
21915SOL     OW67751   4.703   7.955   6.524 -0.9327 -0.0221  0.8562
21915SOL    HW167752   4.652   8.032   6.549 -1.6636 -0.3091  0.2900
21915SOL    HW267753   4.735   7.975   6.437 -2.5237 -1.0048 -0.0095
21916SOL     OW67754   6.340   8.523   1.645  0.4691  0.3662 -0.4521
21916SOL    HW167755   6.264   8.508   1.589 -0.3730 -0.0297  0.7480
21916SOL    HW267756   6.341   8.447   1.704  0.5256  1.3944  0.9256
21917SOL     OW67757   9.299   9.156   3.287 -0.7376  0.2694  0.0712
21917SOL    HW167758   9.365   9.220   3.256 -0.3936 -1.2192 -2.6240
21917SOL    HW267759   9.338   9.118   3.365  0.9465  0.4932 -0.6026
21918SOL     OW67760   9.313  10.171   5.076  0.2572  0.3440 -0.4001
21918SOL    HW167761   9.227  10.140   5.046  0.9952 -0.0533 -2.2779
21918SOL    HW267762   9.346  10.100   5.132 -0.7179  0.6119  0.5451
21919SOL     OW67763   3.322   3.782   2.342 -0.0136  0.7222 -0.2611
21919SOL    HW167764   3.351   3.869   2.371  0.2252  0.1308  1.3381
21919SOL    HW267765   3.234   3.773   2.377 -0.0904  0.3650 -0.5393
21920SOL     OW67766   9.897   8.235   3.145 -0.3856  0.1247 -0.0322
21920SOL    HW167767   9.837   8.257   3.217  0.2659 -1.3171  0.9992
21920SOL    HW267768   9.844   8.183   3.085 -0.6578  0.4604 -0.0866
21921SOL     OW67769   7.347   2.430   8.740 -0.5399 -0.3603 -0.6056
21921SOL    HW167770   7.348   2.373   8.817 -0.6342  1.6840  0.9970
21921SOL    HW267771   7.428   2.410   8.694  1.0251  0.3952  1.6506
21922SOL     OW67772   8.001   9.056   0.948  0.4365  0.1626 -0.1570
21922SOL    HW167773   8.010   9.135   0.895  1.3568  0.1656 -0.0138
21922SOL    HW267774   7.984   9.088   1.036  0.2365  0.1886 -0.2051
21923SOL     OW67775  10.820   8.545   1.966  0.3935 -0.0267  0.3442
21923SOL    HW167776  10.770   8.479   2.014  1.5759  0.0249  1.7174
21923SOL    HW267777  10.758   8.615   1.948 -0.4237 -0.6910  0.5078
21924SOL     OW67778   1.639   2.330   3.505  0.2083 -0.3452 -0.0868
21924SOL    HW167779   1.675   2.402   3.555  1.0945 -0.9566  0.1785
21924SOL    HW267780   1.670   2.251   3.549  0.2286 -0.8935 -1.0423
21925SOL     OW67781   3.673   0.602   8.691 -0.0215 -0.0621 -0.5018
21925SOL    HW167782   3.634   0.528   8.738  1.1847  0.1048  0.8129
21925SOL    HW267783   3.710   0.563   8.612  2.3015 -1.2732  1.0771
21926SOL     OW67784   7.469   3.062   8.306  0.3652 -0.0472 -0.0438
21926SOL    HW167785   7.450   3.114   8.228 -1.0131  0.7497  0.7819
21926SOL    HW267786   7.545   3.009   8.282  1.4452  1.9037 -1.1078
21927SOL     OW67787   5.762   3.453   7.594  0.3802  0.0109  0.0373
21927SOL    HW167788   5.722   3.527   7.548  0.2135 -0.2598 -0.2593
21927SOL    HW267789   5.855   3.460   7.575  0.4215  0.3772  0.3482
21928SOL     OW67790   0.425   2.620   9.093  0.4977  0.4392  0.1792
21928SOL    HW167791   0.358   2.672   9.136  1.6764  2.3067 -0.1552
21928SOL    HW267792   0.385   2.592   9.010 -0.7999 -0.8595  1.1902
21929SOL     OW67793   6.758   7.804   7.217  0.1429  0.3656  0.0127
21929SOL    HW167794   6.761   7.716   7.178 -0.0782  0.7672 -0.9473
21929SOL    HW267795   6.849   7.830   7.224  0.2194 -0.0052  0.4722
21930SOL     OW67796  10.100   1.536   0.148  0.1146  0.0701  0.3274
21930SOL    HW167797  10.041   1.591   0.198 -0.3270 -0.0509 -0.0574
21930SOL    HW267798  10.061   1.530   0.061  0.8566  0.2479 -0.0268
21931SOL     OW67799   3.938   3.604   2.224 -1.0076 -0.6190 -0.0091
21931SOL    HW167800   4.028   3.629   2.247 -1.1067 -1.5536  1.4987
21931SOL    HW267801   3.944   3.573   2.133 -0.1475  0.9387 -0.5311
21932SOL     OW67802   8.212   2.131  11.026  0.2128  0.1504 -0.1528
21932SOL    HW167803   8.176   2.115  10.939 -0.5319  0.1279  0.1466
21932SOL    HW267804   8.265   2.210  11.017  1.9831 -1.0760 -1.1189
21933SOL     OW67805   1.014  10.071   2.916 -0.3247  0.0548  0.0168
21933SOL    HW167806   1.066  10.015   2.858  1.2302 -0.4127  1.7835
21933SOL    HW267807   0.923  10.044   2.898 -0.1509  1.2327 -3.4761
21934SOL     OW67808   7.983  10.515   3.896  0.5870  0.3190  0.3803
21934SOL    HW167809   7.903  10.509   3.844  0.0041  0.4272  1.2494
21934SOL    HW267810   7.992  10.428   3.936  1.7462 -0.1842 -0.9091
21935SOL     OW67811   8.825   5.658   4.121  0.1580 -0.1902  0.2919
21935SOL    HW167812   8.762   5.728   4.136  0.2833 -0.3830  1.8563
21935SOL    HW267813   8.783   5.579   4.156 -0.2722 -1.0858 -2.0531
21936SOL     OW67814   4.497   1.884   8.778  0.3584 -0.3505 -0.2659
21936SOL    HW167815   4.420   1.836   8.749  0.6692 -0.3276 -1.1536
21936SOL    HW267816   4.523   1.840   8.859 -0.8380 -0.0803  0.3003
21937SOL     OW67817   7.279  10.368   2.594 -0.0819  0.0382  0.1036
21937SOL    HW167818   7.321  10.407   2.670 -1.0734 -0.4959  0.9517
21937SOL    HW267819   7.243  10.285   2.626  0.3765 -0.7015 -1.1995
21938SOL     OW67820   3.652   7.198   1.184  0.0733 -0.6177  0.4429
21938SOL    HW167821   3.617   7.146   1.256  0.7198 -0.3722  0.9374
21938SOL    HW267822   3.689   7.276   1.225  0.9308 -0.7283 -0.0951
21939SOL     OW67823   2.102   0.248   4.111  0.2801  0.0002  0.8540
21939SOL    HW167824   2.101   0.166   4.161 -0.2347 -0.6907 -0.2405
21939SOL    HW267825   2.054   0.310   4.166  0.3264 -0.5395  1.5169
21940SOL     OW67826   6.728   1.725   1.536  0.0014 -0.7213 -0.0282
21940SOL    HW167827   6.700   1.763   1.452 -0.7776 -0.8050  0.1874
21940SOL    HW267828   6.820   1.748   1.542  0.4992 -2.0417 -1.6480
21941SOL     OW67829   2.124   7.420   1.266 -0.3718  1.0096  0.6266
21941SOL    HW167830   2.073   7.488   1.222  1.3790  2.6413  1.0156
21941SOL    HW267831   2.158   7.366   1.194 -1.0606  1.0654  0.2544
21942SOL     OW67832   8.566   2.348   9.431  0.4803 -0.0098  0.2952
21942SOL    HW167833   8.648   2.388   9.460  0.4737  0.7308 -0.6649
21942SOL    HW267834   8.503   2.371   9.500  0.1983  2.6819 -0.7204
21943SOL     OW67835   6.059   1.274   4.511 -0.2951 -0.6717 -0.3816
21943SOL    HW167836   5.990   1.211   4.489 -0.5449 -0.8894  0.9014
21943SOL    HW267837   6.059   1.275   4.607 -0.1686  1.1668 -0.3815
21944SOL     OW67838   6.990   9.544  10.345  0.1772  0.1966 -0.2241
21944SOL    HW167839   7.036   9.523  10.264 -0.4342  2.5314 -1.2373
21944SOL    HW267840   6.922   9.477  10.351  1.2066 -0.9499 -0.7623
21945SOL     OW67841   7.284   8.375   5.857 -0.1943  0.3182  0.8647
21945SOL    HW167842   7.218   8.312   5.829 -3.2176  2.0747  3.4450
21945SOL    HW267843   7.328   8.333   5.931  2.0938 -1.0194 -1.1021
21946SOL     OW67844   2.369   0.303   6.706 -0.0936 -0.0534  0.7259
21946SOL    HW167845   2.432   0.360   6.749  1.0601 -0.7289 -0.0290
21946SOL    HW267846   2.414   0.270   6.628 -0.5378 -2.3471  1.3548
21947SOL     OW67847   5.070   1.776   4.424 -0.8625  0.1598 -0.4715
21947SOL    HW167848   5.075   1.768   4.329  0.5424  0.3309 -0.4328
21947SOL    HW267849   5.081   1.870   4.441  0.0253 -0.0079 -0.0887
21948SOL     OW67850   6.778   1.903   3.218  0.4518 -0.2559  0.1094
21948SOL    HW167851   6.823   1.854   3.286 -1.8660  0.4698  2.2876
21948SOL    HW267852   6.830   1.982   3.206  0.2919  0.1587  1.9421
21949SOL     OW67853   6.099   3.806  10.588  0.0457 -0.5977  0.0296
21949SOL    HW167854   6.045   3.820  10.510 -0.2557  0.7874  0.4552
21949SOL    HW267855   6.183   3.777  10.555 -1.0387 -3.2002 -0.6391
21950SOL     OW67856   6.839   9.443   3.010  0.7957  0.2861 -0.7784
21950SOL    HW167857   6.806   9.500   3.080 -0.4607  1.3983 -2.1949
21950SOL    HW267858   6.874   9.367   3.055 -0.1652  0.8659  1.0493
21951SOL     OW67859   1.297  11.061   9.097 -0.0418  0.1714  0.3812
21951SOL    HW167860   1.255  10.975   9.093 -0.2407  0.3056 -0.8408
21951SOL    HW267861   1.260  11.109   9.024 -0.3641  1.5265  1.4048
21952SOL     OW67862   4.132   0.934   2.365 -0.5683  0.1650 -0.2303
21952SOL    HW167863   4.177   0.853   2.344  0.1104  0.5167 -0.1574
21952SOL    HW267864   4.175   1.001   2.311 -0.7900  0.5591  0.0711
21953SOL     OW67865   5.167   9.353   3.856  0.4235 -0.3243 -0.4443
21953SOL    HW167866   5.212   9.394   3.782  0.1611 -1.6707 -1.4019
21953SOL    HW267867   5.228   9.288   3.889 -0.1479 -0.9850 -0.6589
21954SOL     OW67868   6.191   7.342   3.513  0.0688 -0.2156  0.8150
21954SOL    HW167869   6.284   7.321   3.508  0.3640  1.2270 -1.2878
21954SOL    HW267870   6.185   7.413   3.577  0.5467  0.1599  0.4519
21955SOL     OW67871   7.858  10.405   1.751 -0.0194  0.3885  0.1477
21955SOL    HW167872   7.952  10.427   1.755  0.7849 -2.5417 -0.1316
21955SOL    HW267873   7.814  10.490   1.750  2.5298  1.8922  2.1235
21956SOL     OW67874   2.458   1.061   0.265  0.3848  0.2030  0.4281
21956SOL    HW167875   2.376   1.071   0.216 -0.4438 -1.1817  1.4405
21956SOL    HW267876   2.445   1.114   0.344  0.4932  0.0265  0.5639
21957SOL     OW67877   3.768   2.532   1.702 -0.2191 -0.2783  0.1524
21957SOL    HW167878   3.693   2.559   1.648 -0.9473 -0.3758  1.0932
21957SOL    HW267879   3.839   2.590   1.675 -0.8872  0.4382 -0.1039
21958SOL     OW67880   7.503  10.227   2.235 -0.0506  0.4172 -0.7604
21958SOL    HW167881   7.534  10.282   2.163 -1.7591  0.6584 -1.3555
21958SOL    HW267882   7.479  10.289   2.304  1.0302  0.2180 -0.1920
21959SOL     OW67883   4.210   3.509   2.193  0.4110 -0.5348  0.7272
21959SOL    HW167884   4.301   3.500   2.165  0.1201 -0.5330 -0.2800
21959SOL    HW267885   4.180   3.420   2.208  0.7366 -0.5021  1.6310
21960SOL     OW67886   2.114   3.069   9.172 -0.3702 -0.0915  0.3377
21960SOL    HW167887   2.202   3.067   9.135 -0.2934  0.5325  0.4705
21960SOL    HW267888   2.078   2.982   9.154 -0.6126  0.4022 -1.8665
21961SOL     OW67889   5.589  10.022   5.239  0.7447 -0.2476 -0.1586
21961SOL    HW167890   5.542  10.051   5.317  0.5577  0.6686 -0.6070
21961SOL    HW267891   5.600   9.927   5.252 -0.4643 -0.3332  0.3501
21962SOL     OW67892   4.611   1.806   5.610 -0.1402 -0.0231  0.0990
21962SOL    HW167893   4.520   1.779   5.597 -0.0689  0.3357 -1.2324
21962SOL    HW267894   4.658   1.723   5.623 -0.0968 -0.5661 -2.8837
21963SOL     OW67895   9.821  10.985   2.051 -0.7583  0.2958 -0.4100
21963SOL    HW167896   9.813  11.015   2.142 -0.1990  0.0734 -0.2822
21963SOL    HW267897   9.763  11.043   2.001 -1.3927  0.1567  0.1424
21964SOL     OW67898   1.104   8.091   9.380 -0.4183 -0.1629  0.2718
21964SOL    HW167899   1.118   8.172   9.429  1.2395 -0.2606  0.0198
21964SOL    HW267900   1.148   8.105   9.296 -1.3340 -0.8087 -0.3362
21965SOL     OW67901   8.398   5.531   0.677  0.4890  0.3634  0.1042
21965SOL    HW167902   8.473   5.542   0.734  1.4742 -0.8138 -0.9095
21965SOL    HW267903   8.372   5.621   0.654  1.0423  0.7997  1.1109
21966SOL     OW67904   4.970   2.203   1.429  0.4100 -0.3850 -0.2384
21966SOL    HW167905   4.910   2.246   1.368 -0.2203  0.1055  0.7136
21966SOL    HW267906   5.015   2.275   1.474  2.3430 -0.7196 -1.4846
21967SOL     OW67907   1.748   7.622   8.009  0.1516  0.0804 -0.0852
21967SOL    HW167908   1.815   7.610   8.076  0.0485  1.7218  0.3534
21967SOL    HW267909   1.733   7.534   7.973  3.3289 -0.1961 -0.9822
21968SOL     OW67910   5.349   1.414   2.393  0.0693 -0.7790  0.5821
21968SOL    HW167911   5.255   1.427   2.377  0.2580  1.6302  0.9767
21968SOL    HW267912   5.353   1.335   2.447 -1.7056 -1.0926  0.3339
21969SOL     OW67913   6.441   8.802   9.900  0.0328  0.3665 -0.0784
21969SOL    HW167914   6.504   8.758   9.958 -1.3096 -1.6760 -0.1024
21969SOL    HW267915   6.379   8.843   9.960 -0.4793 -0.4440 -0.0386
21970SOL     OW67916   9.145   4.431   9.885 -0.3188 -0.0445  0.4855
21970SOL    HW167917   9.221   4.410   9.940  0.2035  3.6516  1.4329
21970SOL    HW267918   9.071   4.426   9.946 -0.0822  1.4875  0.9345
21971SOL     OW67919   8.760   1.149   0.829  0.5189 -0.4249  0.8332
21971SOL    HW167920   8.780   1.212   0.898  1.1790 -0.4361  0.6572
21971SOL    HW267921   8.813   1.177   0.754 -2.0616  1.1417 -0.5795
21972SOL     OW67922   0.310   8.687   3.425 -0.3049  0.4359  0.4588
21972SOL    HW167923   0.231   8.708   3.475 -1.3436  0.2056 -1.0248
21972SOL    HW267924   0.329   8.767   3.377 -0.6825 -0.0668 -0.5390
21973SOL     OW67925   5.677   8.859   9.834 -0.2298  0.3621  0.2959
21973SOL    HW167926   5.738   8.869   9.908 -0.8119  1.4313  0.6461
21973SOL    HW267927   5.734   8.853   9.757  0.3619 -0.0598  0.7542
21974SOL     OW67928   9.490   2.037   0.314 -0.6999  0.0801  0.0112
21974SOL    HW167929   9.419   1.995   0.266  0.0944 -0.9245 -0.3126
21974SOL    HW267930   9.469   2.131   0.311 -0.7303  0.0488 -2.2244
21975SOL     OW67931   4.785   0.170   9.125  0.8884  0.0340 -0.3002
21975SOL    HW167932   4.694   0.190   9.149  1.3489  1.8803  0.0609
21975SOL    HW267933   4.833   0.251   9.143  2.7588 -1.1361  0.1854
21976SOL     OW67934   1.042   1.196   6.368 -0.3738  0.4398  0.0816
21976SOL    HW167935   1.009   1.181   6.279  1.0628 -1.2620 -0.1990
21976SOL    HW267936   1.112   1.260   6.357  0.4826 -0.5293 -0.1636
21977SOL     OW67937   8.770   2.091   9.501  0.1966  0.0894  0.1356
21977SOL    HW167938   8.839   2.069   9.439 -1.7596 -1.2687 -1.7156
21977SOL    HW267939   8.715   2.154   9.455  0.1492  1.1505  1.5697
21978SOL     OW67940   3.485   6.776   9.680  0.8235  0.1277  0.2321
21978SOL    HW167941   3.476   6.714   9.608 -0.2728  0.5269 -0.0028
21978SOL    HW267942   3.418   6.751   9.742  0.2297  1.1727  0.0441
21979SOL     OW67943   3.036  10.113   8.803  0.2592  0.0855 -0.4744
21979SOL    HW167944   3.099  10.090   8.735  0.1824 -0.1628 -0.4613
21979SOL    HW267945   2.978  10.177   8.761  1.7995  1.9561  0.1528
21980SOL     OW67946   8.007   3.946   1.840 -0.6014 -0.2976 -0.0090
21980SOL    HW167947   8.079   4.005   1.819 -0.6524 -0.3743 -0.4247
21980SOL    HW267948   7.999   3.890   1.763  1.1040 -2.5739  1.3788
21981SOL     OW67949  10.803  10.485   3.410 -1.0297 -0.6903  0.8477
21981SOL    HW167950  10.734  10.426   3.441 -0.5892 -0.9219  1.3973
21981SOL    HW267951  10.763  10.572   3.411 -1.3259 -0.8300  1.1241
21982SOL     OW67952   4.563   2.782   3.515  0.1126  0.4796 -0.5220
21982SOL    HW167953   4.476   2.771   3.554  0.6012  1.7467  1.0291
21982SOL    HW267954   4.554   2.744   3.427 -1.1699 -2.1304  0.5904
21983SOL     OW67955   4.052   7.705  10.278 -0.2476 -0.4235  0.0300
21983SOL    HW167956   4.110   7.769  10.321  0.7013 -0.0394 -1.7240
21983SOL    HW267957   4.019   7.750  10.201 -1.8224 -1.1319  0.2533
21984SOL     OW67958   3.981   5.714  10.985 -0.0318 -0.1800  0.0433
21984SOL    HW167959   4.062   5.759  11.009  0.9335 -0.8979 -1.6539
21984SOL    HW267960   3.940   5.773  10.922 -0.8200  0.1356  0.8291
21985SOL     OW67961  10.357   8.223   3.663  0.0766  0.0552 -0.0165
21985SOL    HW167962  10.378   8.133   3.640 -0.1600  0.2285 -0.9723
21985SOL    HW267963  10.358   8.270   3.579  1.0875  1.1277  0.5797
21986SOL     OW67964   0.155   9.197   0.708  0.2070 -0.0419 -0.1560
21986SOL    HW167965   0.139   9.118   0.656 -0.0992 -0.3210  0.3512
21986SOL    HW267966   0.171   9.164   0.797 -0.2404  0.4818  0.1280
21987SOL     OW67967   3.859   6.170   0.515 -0.4311 -0.8632  0.3561
21987SOL    HW167968   3.795   6.161   0.586  0.3187 -0.2728  1.1258
21987SOL    HW267969   3.930   6.111   0.540  0.3876  0.2650  0.7377
21988SOL     OW67970   8.011   2.035   2.136  0.3063 -0.0293 -0.4373
21988SOL    HW167971   7.933   1.980   2.127  1.3533 -2.3608  2.8927
21988SOL    HW267972   7.978   2.125   2.133 -2.2211 -0.8928 -0.8415
21989SOL     OW67973   6.334   4.869   4.290  0.1186  0.2480  0.5423
21989SOL    HW167974   6.321   4.800   4.225  0.5797 -0.0790  0.7861
21989SOL    HW267975   6.330   4.823   4.374  0.0742  0.5799  0.7243
21990SOL     OW67976   6.700   4.366   7.793  0.4313  0.1468 -0.0561
21990SOL    HW167977   6.655   4.323   7.720  1.7903 -3.0850  0.8364
21990SOL    HW267978   6.780   4.401   7.754  0.4268 -0.2033 -0.3884
21991SOL     OW67979   8.296   1.555   1.213  0.2937  0.3695  0.0968
21991SOL    HW167980   8.227   1.550   1.280 -0.0105 -1.3345 -0.2951
21991SOL    HW267981   8.319   1.647   1.210 -0.9570  0.7640  1.2746
21992SOL     OW67982   3.352   9.586   5.895 -0.0659  0.5479 -0.2208
21992SOL    HW167983   3.365   9.491   5.890  0.0342  0.5494  0.0436
21992SOL    HW267984   3.313   9.608   5.810  0.2597  0.3278 -0.4310
21993SOL     OW67985   1.931   8.518   2.256  0.0462 -0.2359 -0.2729
21993SOL    HW167986   1.970   8.523   2.169 -0.7894 -0.4864 -0.6686
21993SOL    HW267987   1.993   8.467   2.307  0.0841 -0.9213 -0.9845
21994SOL     OW67988   9.262   4.524   1.062  0.1867  0.2251  0.4519
21994SOL    HW167989   9.225   4.439   1.083 -1.3248  0.7952  0.2304
21994SOL    HW267990   9.330   4.538   1.128  0.6391 -1.2379  0.3420
21995SOL     OW67991  10.029   3.226   1.899 -0.0143 -0.2674 -0.4650
21995SOL    HW167992  10.083   3.299   1.867  2.5732 -1.5977  0.5633
21995SOL    HW267993   9.977   3.264   1.970 -0.2416  1.0120 -1.2901
21996SOL     OW67994   4.577   6.460   7.183  0.0772 -0.2037  0.4363
21996SOL    HW167995   4.484   6.481   7.193  0.0536  0.3541 -0.8456
21996SOL    HW267996   4.596   6.479   7.092  1.2480 -1.1633  0.4623
21997SOL     OW67997   8.553   6.216   0.942  0.2725  0.0141 -0.1999
21997SOL    HW167998   8.588   6.178   0.861  0.2249  2.9122 -1.7075
21997SOL    HW267999   8.458   6.219   0.927  0.0224 -1.3419  0.9124
21998SOL     OW68000   2.194  11.037  10.841  0.6914 -0.1781  0.0910
21998SOL    HW168001   2.221  11.003  10.756  1.7143  1.8357 -0.4514
21998SOL    HW268002   2.219  10.968  10.903 -0.0189 -1.6516 -1.1851
21999SOL     OW68003   0.766   9.571   2.029 -0.7774 -0.3706  0.3826
21999SOL    HW168004   0.679   9.605   2.046 -0.5870 -0.5287  1.8245
21999SOL    HW268005   0.798   9.542   2.115  0.8668  0.1182 -0.0207
22000SOL     OW68006   4.223   8.733   2.747 -0.6252 -0.0328  0.0305
22000SOL    HW168007   4.142   8.704   2.705 -2.0381  0.6497  2.1321
22000SOL    HW268008   4.236   8.670   2.818  0.3436  0.2683  0.1307
22001SOL     OW68009   5.424   7.567   6.868  0.2361  0.7671  0.7495
22001SOL    HW168010   5.332   7.589   6.874 -0.3055 -0.4045 -1.8402
22001SOL    HW268011   5.432   7.482   6.912  0.1741  1.0500  1.3107
22002SOL     OW68012   9.413   6.322   4.342  0.1071  0.2662 -0.3076
22002SOL    HW168013   9.356   6.373   4.284  0.0809 -2.5178 -3.0113
22002SOL    HW268014   9.362   6.243   4.361  1.4802 -0.3922  0.7545
22003SOL     OW68015   7.050   2.601   8.995 -1.0475  0.4600 -0.3116
22003SOL    HW168016   7.037   2.618   8.902  0.9544  2.5045 -0.3064
22003SOL    HW268017   7.057   2.506   9.002 -0.0886  0.3175 -2.4317
22004SOL     OW68018   8.375   3.877   1.816 -0.1651  0.2981 -0.5601
22004SOL    HW168019   8.358   3.845   1.904  1.4462  0.6560 -0.0871
22004SOL    HW268020   8.348   3.805   1.759 -0.2765 -0.3284  0.2666
22005SOL     OW68021   0.978   6.756   7.776 -0.3321  0.1780  0.2189
22005SOL    HW168022   0.918   6.819   7.736  0.2125 -0.1268 -1.1451
22005SOL    HW268023   1.042   6.810   7.822 -0.2463  0.6113 -0.3947
22006SOL     OW68024   6.219   9.239   5.406 -0.2238  0.1500 -0.0086
22006SOL    HW168025   6.239   9.157   5.360  1.7263  1.3524 -1.4186
22006SOL    HW268026   6.144   9.275   5.357 -1.4999 -1.0121  0.9933
22007SOL     OW68027   9.271   1.149   5.644  0.4529  0.0539 -0.1736
22007SOL    HW168028   9.224   1.126   5.564  3.6654 -1.8354 -1.7316
22007SOL    HW268029   9.231   1.094   5.711  0.8332 -2.1323 -1.6117
22008SOL     OW68030   7.118  11.017  10.726  0.6109  0.1705  0.1694
22008SOL    HW168031   7.213  11.025  10.712  0.3670  1.0970 -1.1705
22008SOL    HW268032   7.086  11.107  10.722 -0.3040 -0.1018  0.9742
22009SOL     OW68033   6.461   2.466   4.301  0.2859  0.2768  0.2900
22009SOL    HW168034   6.479   2.538   4.240 -1.1984  0.2646 -0.2039
22009SOL    HW268035   6.395   2.501   4.361 -0.9393 -0.8467 -0.3568
22010SOL     OW68036   9.572   2.251   1.576 -0.6268  0.0237 -0.1484
22010SOL    HW168037   9.581   2.289   1.664  1.5801  1.7039 -1.0131
22010SOL    HW268038   9.661   2.230   1.550 -1.1114  0.5418 -2.4185
22011SOL     OW68039   2.820   2.539   2.132  0.1188 -0.5561  0.2171
22011SOL    HW168040   2.750   2.478   2.154  0.7249 -1.2431  0.2461
22011SOL    HW268041   2.898   2.485   2.124  0.4965  0.0919 -0.6198
22012SOL     OW68042   4.357   8.259  10.164  0.3756  0.2706 -0.2877
22012SOL    HW168043   4.413   8.224  10.232  1.8144 -1.8261 -2.3835
22012SOL    HW268044   4.268   8.233  10.190  0.6973  0.7848  1.4375
22013SOL     OW68045   3.652   1.112   0.654  0.0744 -0.4105 -0.5722
22013SOL    HW168046   3.713   1.164   0.706 -0.4767  0.7150 -1.0386
22013SOL    HW268047   3.667   1.140   0.564 -2.6134  1.5292 -0.5332
22014SOL     OW68048   4.696   8.190   7.012  0.2739  0.0038  0.2151
22014SOL    HW168049   4.660   8.145   7.089  0.6344  0.8396  0.8868
22014SOL    HW268050   4.722   8.119   6.953  0.9594 -0.6915  1.3139
22015SOL     OW68051   1.763  10.972   9.703  0.2905 -1.1038  0.2000
22015SOL    HW168052   1.668  10.982   9.694  0.2660 -2.1066 -0.8627
22015SOL    HW268053   1.784  10.893   9.653  2.1862  1.0808 -2.7937
22016SOL     OW68054   9.637   0.915   4.435  0.0650  0.3493 -0.5929
22016SOL    HW168055   9.652   0.832   4.391 -1.1882  0.0127 -0.4095
22016SOL    HW268056   9.550   0.943   4.406  0.3578  1.4729 -0.4522
22017SOL     OW68057   8.185   4.348   2.915 -0.6349 -0.7275  0.0659
22017SOL    HW168058   8.264   4.343   2.862 -1.0959 -0.3232 -0.6702
22017SOL    HW268059   8.171   4.442   2.929  0.1585 -0.8505  1.9481
22018SOL     OW68060   2.055   1.762   8.737 -0.8739  0.4229 -0.1742
22018SOL    HW168061   1.967   1.737   8.708 -1.0851 -1.5951  1.9585
22018SOL    HW268062   2.104   1.680   8.739  0.7344  1.3446 -0.1917
22019SOL     OW68063   5.513   7.588   3.075 -0.8122 -0.2019  0.4326
22019SOL    HW168064   5.451   7.517   3.057 -2.1131  0.6809  1.2465
22019SOL    HW268065   5.501   7.607   3.168  1.6657 -0.8785  0.9690
22020SOL     OW68066   3.751   6.741   2.992  0.6891  0.4719 -0.2272
22020SOL    HW168067   3.771   6.702   3.077  0.9766 -1.9963 -1.3633
22020SOL    HW268068   3.795   6.827   2.995 -0.9106  1.3437  2.7896
22021SOL     OW68069   6.178   0.001   1.352  0.1121 -1.1319 -0.2134
22021SOL    HW168070   6.159   0.045   1.269  0.1317 -0.8713 -0.0797
22021SOL    HW268071   6.219  -0.081   1.326 -0.8769 -1.5556 -0.4942
22022SOL     OW68072   1.505   8.893   3.580 -0.2751 -0.2004 -0.0506
22022SOL    HW168073   1.582   8.852   3.540 -0.5150 -0.7086  0.0029
22022SOL    HW268074   1.466   8.824   3.634 -0.1646  0.3686  0.7775
22023SOL     OW68075   2.046   1.860  11.089 -0.0909  0.1387 -0.1274
22023SOL    HW168076   1.998   1.778  11.097 -1.7452  0.9095 -1.4100
22023SOL    HW268077   2.130   1.836  11.051  0.4784 -1.2135  1.8409
22024SOL     OW68078   1.646   2.664   9.895  0.5507 -0.7631  0.5569
22024SOL    HW168079   1.633   2.739   9.953  1.4027  1.2801 -1.7060
22024SOL    HW268080   1.741   2.655   9.889  0.4611 -1.9782  0.6797
22025SOL     OW68081   5.193   9.567   8.014  0.0564  0.2689  0.4116
22025SOL    HW168082   5.119   9.594   8.069 -1.5293 -0.1734 -1.4108
22025SOL    HW268083   5.268   9.613   8.052 -1.2305  1.1951  1.9841
22026SOL     OW68084   6.134   5.542   3.305  0.5925 -0.6848 -0.3029
22026SOL    HW168085   6.207   5.562   3.364  1.9819 -0.4312 -2.0315
22026SOL    HW268086   6.164   5.469   3.252 -0.6671 -0.9857 -0.6539
22027SOL     OW68087   1.735   5.430   0.810 -0.0631  0.7419 -0.0752
22027SOL    HW168088   1.709   5.518   0.786 -0.5886  1.0730  1.5962
22027SOL    HW268089   1.787   5.441   0.890 -1.5770 -0.5554  1.1578
22028SOL     OW68090   6.662   4.115   3.943 -0.9152  0.4281 -0.1692
22028SOL    HW168091   6.621   4.181   3.887 -1.5045  1.1627  1.0779
22028SOL    HW268092   6.752   4.146   3.955 -0.8377  0.3577 -0.5618
22029SOL     OW68093   9.596  10.705  10.340  0.0532  0.1052 -0.2811
22029SOL    HW168094   9.568  10.768  10.406 -0.6133  1.3202 -1.6545
22029SOL    HW268095   9.518  10.692  10.286  0.5355 -0.9881 -0.7413
22030SOL     OW68096   0.479   6.132   7.447 -0.1275 -0.1990  0.4088
22030SOL    HW168097   0.545   6.190   7.410 -0.5505  0.3682  0.5349
22030SOL    HW268098   0.421   6.189   7.496  0.1773 -0.8840  1.6121
22031SOL     OW68099  10.422   4.187   4.236  0.2280 -0.1524  0.5199
22031SOL    HW168100  10.346   4.130   4.228 -0.3524  0.4732  1.3290
22031SOL    HW268101  10.417   4.221   4.326  1.2622  0.1850  0.4689
22032SOL     OW68102   6.087   8.615   0.176 -0.5225 -0.1150 -0.2714
22032SOL    HW168103   6.129   8.557   0.239 -0.0597 -0.5979 -1.0091
22032SOL    HW268104   5.996   8.585   0.172 -0.1327 -1.2536 -1.1462
22033SOL     OW68105   0.298   1.819   7.138  0.6805 -0.5434 -0.0132
22033SOL    HW168106   0.244   1.898   7.133 -1.7811 -2.0673  0.9031
22033SOL    HW268107   0.337   1.822   7.225 -0.7262 -1.0762  0.6706
22034SOL     OW68108   7.230   3.363   4.756 -0.0136  0.6828 -0.1618
22034SOL    HW168109   7.184   3.363   4.840 -0.1182 -0.5223 -0.2007
22034SOL    HW268110   7.184   3.429   4.704 -0.9228  0.3768  0.2246
22035SOL     OW68111   0.630   2.616   8.301  0.9089  0.1370 -0.4476
22035SOL    HW168112   0.578   2.683   8.257 -0.0914 -0.7574 -0.6653
22035SOL    HW268113   0.646   2.652   8.388 -0.5650  0.2064 -0.1814
22036SOL     OW68114   8.766   2.801   5.637  0.1878 -0.2974 -0.1271
22036SOL    HW168115   8.815   2.817   5.557  0.3105 -1.4016 -0.2997
22036SOL    HW268116   8.709   2.876   5.647  0.0208 -0.2450 -1.3659
22037SOL     OW68117  10.767   4.062   2.191  0.2999 -0.0592 -0.0106
22037SOL    HW168118  10.814   4.091   2.269  2.0214 -0.9193 -0.6651
22037SOL    HW268119  10.675   4.070   2.214  0.7377  1.5326  1.4125
22038SOL     OW68120   5.018   9.655   9.602  0.2783 -0.2288 -0.1644
22038SOL    HW168121   4.987   9.712   9.532  0.0391 -0.2256 -0.0591
22038SOL    HW268122   5.082   9.708   9.650 -0.7934  0.3773  0.6406
22039SOL     OW68123   3.177   6.191   1.289 -0.3878 -0.7374  0.3645
22039SOL    HW168124   3.262   6.216   1.324 -1.4094 -0.3857  2.7936
22039SOL    HW268125   3.164   6.248   1.213  0.5955  0.7684  1.2900
22040SOL     OW68126   5.336   8.046   2.742  0.2165  0.4818 -0.8569
22040SOL    HW168127   5.349   8.141   2.752 -0.3839  0.4156  0.7927
22040SOL    HW268128   5.262   8.039   2.681  0.1598  1.0788 -0.8659
22041SOL     OW68129   5.225   1.430   4.346  0.1212  0.1781 -0.0192
22041SOL    HW168130   5.291   1.376   4.389 -0.2392  1.1591  1.8833
22041SOL    HW268131   5.274   1.502   4.307  0.3630 -0.1860 -0.3928
22042SOL     OW68132   4.823   4.360   9.722 -0.1716 -0.1334  0.3755
22042SOL    HW168133   4.896   4.300   9.703  0.8492  0.9344  0.7751
22042SOL    HW268134   4.749   4.302   9.742  0.0371 -1.2613 -1.8429
22043SOL     OW68135   5.937   0.868   1.598 -0.5324 -0.7409  0.3160
22043SOL    HW168136   6.006   0.814   1.636 -0.8461 -0.3234  1.5031
22043SOL    HW268137   5.953   0.863   1.503  2.3994  0.9668  0.5901
22044SOL     OW68138   3.126   0.252   4.327  0.2597  0.4515 -0.0879
22044SOL    HW168139   3.031   0.262   4.314 -0.6434 -2.7456  2.7788
22044SOL    HW268140   3.152   0.189   4.259 -0.0467  0.0462  0.1619
22045SOL     OW68141   3.153   2.758   2.628 -0.1721  0.0691 -0.4697
22045SOL    HW168142   3.211   2.747   2.553 -0.3085 -1.6709 -0.3566
22045SOL    HW268143   3.065   2.761   2.590 -0.1074  1.9216 -0.5722
22046SOL     OW68144   6.285   0.267   5.953  0.1599 -0.9193 -0.1245
22046SOL    HW168145   6.309   0.278   5.861  0.4109 -1.9577 -0.1936
22046SOL    HW268146   6.331   0.188   5.981 -0.1957 -0.8168  0.8015
22047SOL     OW68147   3.603   7.715   9.259  0.1918  0.4301  0.0071
22047SOL    HW168148   3.596   7.803   9.296 -1.3778  0.7448 -0.9692
22047SOL    HW268149   3.561   7.721   9.173 -0.7237 -1.4579  0.2733
22048SOL     OW68150   5.667   4.595   2.120  0.4707 -0.3748 -0.2544
22048SOL    HW168151   5.733   4.653   2.157 -0.1075 -1.1504  2.1381
22048SOL    HW268152   5.616   4.650   2.061  2.1579  0.6273 -0.8513
22049SOL     OW68153  10.912   0.971   5.140 -0.2241  0.3188 -0.6213
22049SOL    HW168154  11.001   0.949   5.113  0.5179  1.9480  0.3164
22049SOL    HW268155  10.923   1.049   5.195 -1.8194 -1.5284  2.5813
22050SOL     OW68156   4.386  10.280   9.626  0.4486 -0.2654  0.4900
22050SOL    HW168157   4.382  10.186   9.642  0.6902 -0.3499  0.0538
22050SOL    HW268158   4.311  10.316   9.675 -0.0126 -0.7507  0.1436
22051SOL     OW68159   8.960   0.130  10.945  0.2085  0.2611 -0.1947
22051SOL    HW168160   8.916   0.133  10.860 -1.5623 -0.6472  0.6312
22051SOL    HW268161   8.926   0.206  10.992 -1.2395 -0.9195  0.7590
22052SOL     OW68162   3.950   1.566   2.626  0.3376 -0.0176  0.5946
22052SOL    HW168163   4.017   1.591   2.689 -2.1013  0.9551  2.9488
22052SOL    HW268164   3.974   1.477   2.600  0.2238 -1.4642  4.7778
22053SOL     OW68165   0.380   6.076   9.489  0.5525  0.6621 -0.0962
22053SOL    HW168166   0.425   6.048   9.410  1.7430  1.9925  0.0714
22053SOL    HW268167   0.288   6.083   9.464  0.3671 -2.0133 -0.4738
22054SOL     OW68168   6.149   9.863   0.433  0.4037  0.4517 -0.1342
22054SOL    HW168169   6.135   9.796   0.501  0.8015 -0.3207 -0.7868
22054SOL    HW268170   6.089   9.838   0.362  0.8451  0.5432 -0.5464
22055SOL     OW68171   9.591   5.862   1.499  0.0407 -0.5803 -0.2100
22055SOL    HW168172   9.589   5.801   1.426  0.5154 -0.0800 -0.6458
22055SOL    HW268173   9.625   5.811   1.573 -2.1461 -1.6046  0.1777
22056SOL     OW68174   1.010   9.120   2.200  0.1301  0.0500  0.2777
22056SOL    HW168175   1.077   9.188   2.196 -0.3122  0.4557 -0.4919
22056SOL    HW268176   0.931   9.166   2.228  0.0151 -0.3020  0.5425
22057SOL     OW68177   4.335   7.355   1.746 -0.1644  0.0721 -0.3162
22057SOL    HW168178   4.375   7.415   1.809  0.3379  2.4472 -2.7318
22057SOL    HW268179   4.406   7.329   1.688 -0.2930 -3.2634  0.7840
22058SOL     OW68180   5.708   9.748   2.387  0.2424 -0.1688 -0.2825
22058SOL    HW168181   5.766   9.724   2.460 -0.1894  1.2732  0.5720
22058SOL    HW268182   5.760   9.732   2.309  1.0609 -0.8471  0.3876
22059SOL     OW68183   7.843   5.453   6.095  0.2105  0.4232  0.1854
22059SOL    HW168184   7.908   5.408   6.040 -0.1888  1.7492 -1.4541
22059SOL    HW268185   7.759   5.420   6.064 -0.0005  0.7536  0.4008
22060SOL     OW68186   8.491   0.550   6.174  0.3097 -0.5637  0.2110
22060SOL    HW168187   8.470   0.642   6.186  0.0306 -0.7408  1.1756
22060SOL    HW268188   8.488   0.513   6.262 -0.0166 -1.5809 -0.2108
22061SOL     OW68189   3.552   5.426   2.160  0.1080 -0.5981  0.3666
22061SOL    HW168190   3.613   5.484   2.115 -0.4577  1.8652  2.5443
22061SOL    HW268191   3.571   5.339   2.124  2.3447  0.6046 -1.6549
22062SOL     OW68192   7.603   6.355   3.423 -0.0714 -0.1643  0.0725
22062SOL    HW168193   7.673   6.410   3.387  1.6718 -3.2216 -1.7121
22062SOL    HW268194   7.624   6.347   3.516  1.3293 -0.1335 -0.2146
22063SOL     OW68195   2.541   6.879   3.906  0.2937 -0.1748  0.2597
22063SOL    HW168196   2.605   6.924   3.961  0.9327 -0.7634  0.0083
22063SOL    HW268197   2.588   6.803   3.871 -0.8150 -1.1764  0.8546
22064SOL     OW68198   5.846   5.973   9.930  0.4060  0.4164 -0.6751
22064SOL    HW168199   5.904   5.968   9.854 -0.8992  0.2195 -1.6868
22064SOL    HW268200   5.781   6.039   9.905  0.3338  0.8347  0.5551
22065SOL     OW68201   0.332   6.526   4.051  0.3646  0.1337  0.3908
22065SOL    HW168202   0.276   6.486   4.118  1.0092  1.5235  1.8399
22065SOL    HW268203   0.360   6.453   3.997 -2.0531 -0.7373  0.1755
22066SOL     OW68204   8.674   6.425   6.876  0.5682  0.5267 -0.0520
22066SOL    HW168205   8.769   6.414   6.869  0.7352  2.0303 -0.3806
22066SOL    HW268206   8.640   6.380   6.799  1.2374  2.2867 -1.4599
22067SOL     OW68207   0.707   8.961  10.023  0.5876  0.0506 -0.1830
22067SOL    HW168208   0.802   8.954  10.030  0.5638 -0.6026 -0.4813
22067SOL    HW268209   0.674   8.877  10.056  0.1669 -0.1564 -1.0964
22068SOL     OW68210   8.048   1.680   9.841  0.4001 -0.2997  0.0971
22068SOL    HW168211   7.998   1.720   9.770 -1.6833 -1.8453  0.5868
22068SOL    HW268212   8.128   1.648   9.800  1.2485  2.5476 -0.6511
22069SOL     OW68213   5.347   2.573  10.693  0.1946  0.5065  0.3430
22069SOL    HW168214   5.310   2.591  10.779 -0.1921 -0.4214  0.3895
22069SOL    HW268215   5.280   2.604  10.632 -1.7543 -2.9706  0.4267
22070SOL     OW68216   7.530   9.466   3.847 -0.3197 -0.4973 -0.1002
22070SOL    HW168217   7.498   9.556   3.844 -0.7682 -0.6758 -1.9599
22070SOL    HW268218   7.468   9.417   3.792  1.5617 -1.3599 -1.5589
22071SOL     OW68219   0.688   1.340   5.786 -0.1852  0.2894  0.2512
22071SOL    HW168220   0.608   1.369   5.741 -0.7495 -0.2164  0.9175
22071SOL    HW268221   0.717   1.264   5.735 -0.8381 -0.3000  0.7378
22072SOL     OW68222   1.395   4.170   4.289 -0.0871  0.5798 -0.9704
22072SOL    HW168223   1.397   4.079   4.261  0.9696 -0.1424  1.2297
22072SOL    HW268224   1.317   4.177   4.344  1.1110  0.2961  0.8460
22073SOL     OW68225   3.935  10.396   4.117  0.4165  0.4086 -0.2713
22073SOL    HW168226   3.940  10.474   4.062  1.8367  0.3299 -0.3005
22073SOL    HW268227   4.026  10.366   4.124  0.1936  0.0601  1.6094
22074SOL     OW68228   6.016   0.748   5.504 -0.4985 -0.1176  0.4818
22074SOL    HW168229   6.017   0.793   5.589 -0.4995  1.0315 -0.1043
22074SOL    HW268230   6.073   0.801   5.448 -0.4617 -0.8893 -0.2246
22075SOL     OW68231   1.648   6.259   4.533 -0.3266 -0.0744  0.6602
22075SOL    HW168232   1.689   6.289   4.614 -0.4709 -0.2658  0.8068
22075SOL    HW268233   1.721   6.241   4.474 -0.2136 -0.0818  0.8018
22076SOL     OW68234   8.113   0.339   6.372 -0.0314  0.0840  0.6303
22076SOL    HW168235   8.029   0.320   6.415  0.1302 -0.1296  0.8505
22076SOL    HW268236   8.172   0.270   6.403 -0.0550 -0.4028 -0.3533
22077SOL     OW68237   0.833   8.783   0.246  0.8466  0.0177  0.5758
22077SOL    HW168238   0.832   8.713   0.181 -0.8258  0.8172 -0.3406
22077SOL    HW268239   0.785   8.746   0.321  0.2354  0.0618  0.2142
22078SOL     OW68240   8.571   4.159   0.649  0.4216 -0.3114 -0.2801
22078SOL    HW168241   8.615   4.237   0.681  1.1560 -0.5742 -0.6166
22078SOL    HW268242   8.539   4.115   0.728  0.5067  0.0286 -0.0543
22079SOL     OW68243   1.178   8.213   6.418  0.5025  0.3000  0.5934
22079SOL    HW168244   1.087   8.236   6.397  1.0284  0.7549 -1.5065
22079SOL    HW268245   1.171   8.136   6.473 -1.1895 -1.5889 -1.9915
22080SOL     OW68246   3.318   7.569   9.897  0.6550 -0.2358 -0.2190
22080SOL    HW168247   3.302   7.626   9.973  0.1745  0.1442 -0.5977
22080SOL    HW268248   3.282   7.485   9.922 -0.9541  0.3086 -0.6210
22081SOL     OW68249   1.033   0.534   1.569  0.0784  0.3434 -0.4217
22081SOL    HW168250   1.086   0.459   1.596 -0.0489  1.1355  2.3507
22081SOL    HW268251   1.095   0.607   1.566 -0.3129  0.7106  0.0460
22082SOL     OW68252   8.741   3.025   7.295  0.1503  0.5618  0.1700
22082SOL    HW168253   8.653   3.045   7.265 -0.5041  0.1830  1.7434
22082SOL    HW268254   8.753   2.932   7.275  0.1864  0.6063 -0.0169
22083SOL     OW68255   6.232   2.160   2.823 -0.2709  0.3009 -0.0197
22083SOL    HW168256   6.157   2.202   2.780 -0.0035  1.9994  1.0496
22083SOL    HW268257   6.263   2.096   2.760 -1.0780  1.3326 -1.5420
22084SOL     OW68258   4.197   1.998   2.270  0.7843 -0.1671  0.2564
22084SOL    HW168259   4.120   1.972   2.319  0.7228 -3.2613 -1.1984
22084SOL    HW268260   4.163   2.045   2.194  0.4839  0.1035  0.5582
22085SOL     OW68261   9.580   2.476   0.095  0.2207 -0.2613  0.0359
22085SOL    HW168262   9.660   2.486   0.147  0.9693 -1.3500 -0.8747
22085SOL    HW268263   9.523   2.423   0.150  0.6047 -0.5220  0.1901
22086SOL     OW68264   0.535   8.488   2.325 -0.1020 -0.4193  0.5400
22086SOL    HW168265   0.611   8.542   2.348 -1.7062  1.9301  0.6215
22086SOL    HW268266   0.499   8.461   2.409 -0.0551 -0.4947  0.5356
22087SOL     OW68267  10.985   7.610   4.845 -0.3957 -0.8145  0.2233
22087SOL    HW168268  11.021   7.525   4.872  3.2091 -0.1124 -1.7407
22087SOL    HW268269  10.971   7.602   4.751 -0.0758  0.6922  0.0130
22088SOL     OW68270   8.482   0.503   6.445  0.0649  0.1021  0.0417
22088SOL    HW168271   8.541   0.507   6.520 -0.5239  1.8248  0.4361
22088SOL    HW268272   8.440   0.417   6.452  0.3870  0.0420  1.3810
22089SOL     OW68273   5.406   6.558  10.434  0.1771  0.5350  0.0969
22089SOL    HW168274   5.447   6.483  10.391  2.6648  2.0070 -0.3006
22089SOL    HW268275   5.347   6.594  10.368 -0.6012 -0.6697  0.0912
22090SOL     OW68276   7.375   7.130   0.913 -0.3994  0.2500  0.3330
22090SOL    HW168277   7.308   7.124   0.845 -2.4373 -0.1853  2.3023
22090SOL    HW268278   7.375   7.043   0.954  1.8343  0.0431  0.0234
22091SOL     OW68279   7.229   0.487   3.539 -0.0353  0.5138 -0.4989
22091SOL    HW168280   7.149   0.464   3.492 -0.3405  0.8204 -0.1367
22091SOL    HW268281   7.200   0.545   3.609  0.0846 -1.6922  1.4817
22092SOL     OW68282   9.946   1.000   1.844 -0.4653  0.1112  0.1888
22092SOL    HW168283   9.968   0.931   1.781 -0.4091 -0.6142  0.9690
22092SOL    HW268284   9.958   0.958   1.930 -0.2124  1.1646  0.6875
22093SOL     OW68285   3.303   7.499   9.420 -0.8367 -0.1637 -0.2328
22093SOL    HW168286   3.315   7.566   9.488 -0.5750 -0.4267 -0.0147
22093SOL    HW268287   3.257   7.544   9.349 -0.9606  0.1579  0.0499
22094SOL     OW68288   6.363   9.907   3.073  0.5445 -0.1376 -0.1733
22094SOL    HW168289   6.371   9.888   2.980 -1.9890 -1.4709 -0.2053
22094SOL    HW268290   6.393   9.828   3.117  1.8993  0.5500  0.1842
22095SOL     OW68291  10.923   4.447   5.007 -0.0865  0.0403 -0.1032
22095SOL    HW168292  10.990   4.416   5.067 -1.1928  0.4542  1.4114
22095SOL    HW268293  10.842   4.441   5.056 -0.8986  1.4224 -1.1901
22096SOL     OW68294   9.187   7.019   4.400 -0.3615  0.0244 -0.2545
22096SOL    HW168295   9.110   7.056   4.356 -1.1797  1.5446  2.3015
22096SOL    HW268296   9.258   7.080   4.379 -0.5266  0.2294 -0.2211
22097SOL     OW68297   8.129   5.406   2.350 -0.0955 -0.2089 -0.1567
22097SOL    HW168298   8.165   5.425   2.263 -0.5975  1.2959 -0.0584
22097SOL    HW268299   8.034   5.408   2.337 -0.1803  0.4682  0.5054
22098SOL     OW68300   6.939   7.814   3.490 -0.0022 -0.6179  0.9276
22098SOL    HW168301   6.941   7.718   3.493  3.8371 -0.6922  2.2593
22098SOL    HW268302   6.949   7.841   3.581  0.0152  1.0302  0.4759
22099SOL     OW68303   0.348   0.122  10.623 -0.1460 -0.4790  0.0445
22099SOL    HW168304   0.347   0.180  10.547  1.4730  0.8453  0.9604
22099SOL    HW268305   0.388   0.174  10.692  0.8345 -2.4903  1.0859
22100SOL     OW68306   9.192   8.818   3.917 -0.0071  0.0062 -0.4828
22100SOL    HW168307   9.125   8.763   3.958 -0.9044  0.6560 -1.0600
22100SOL    HW268308   9.219   8.878   3.987 -0.4681  0.1404 -0.4168
22101SOL     OW68309  10.559  10.646   0.540 -0.7866 -0.1169  0.1192
22101SOL    HW168310  10.487  10.686   0.492 -0.4514  1.1370  0.6293
22101SOL    HW268311  10.607  10.719   0.577  1.5517 -0.8313 -1.2792
22102SOL     OW68312   9.707   7.820   5.445  0.4253 -0.4469  0.5338
22102SOL    HW168313   9.678   7.762   5.374 -0.2208  0.0515  0.3749
22102SOL    HW268314   9.706   7.907   5.407  1.4792 -0.3328  0.7470
22103SOL     OW68315   5.797   1.586   1.511 -0.2766 -0.2604 -0.3492
22103SOL    HW168316   5.741   1.608   1.586 -0.4655 -1.1051 -0.2352
22103SOL    HW268317   5.883   1.620   1.536 -0.5638  0.3962 -0.2079
22104SOL     OW68318   6.552   6.121   2.099 -0.2695 -0.4169 -0.0244
22104SOL    HW168319   6.560   6.025   2.093  1.1148 -0.3309  0.1729
22104SOL    HW268320   6.485   6.143   2.034 -1.6784 -1.6316  0.9274
22105SOL     OW68321   4.701  10.732   6.326  0.2402 -0.5409 -0.0305
22105SOL    HW168322   4.631  10.741   6.391  0.4329  3.0897 -0.1221
22105SOL    HW268323   4.775  10.696   6.375  0.1579  1.4426  1.6677
22106SOL     OW68324   6.754   0.476   5.226  0.4452 -0.1546 -0.0535
22106SOL    HW168325   6.805   0.556   5.212  2.2048 -1.0576  0.7845
22106SOL    HW268326   6.808   0.407   5.186 -1.1068 -0.9181 -0.9024
22107SOL     OW68327   5.264   1.131   5.246 -0.5356  0.2907 -1.2061
22107SOL    HW168328   5.257   1.157   5.338 -2.0510  0.7297 -1.4260
22107SOL    HW268329   5.177   1.098   5.224  0.2330 -1.2804 -2.0634
22108SOL     OW68330   7.878   7.092   0.617 -0.8677  0.8291  0.4274
22108SOL    HW168331   7.893   7.066   0.708  0.0174 -0.6546 -0.1028
22108SOL    HW268332   7.966   7.097   0.579 -1.2763 -0.4539 -0.7970
22109SOL     OW68333   8.724  10.899   2.430  0.6328 -0.0297  0.5637
22109SOL    HW168334   8.794  10.926   2.490  2.2186 -1.4289 -0.5495
22109SOL    HW268335   8.733  10.959   2.355  1.4485 -0.9153 -0.0824
22110SOL     OW68336   8.146   9.709   4.277  0.0755 -0.2782  0.1791
22110SOL    HW168337   8.168   9.754   4.359  0.7019  0.3996 -0.3562
22110SOL    HW268338   8.056   9.735   4.258  0.1473  0.0681  0.3168
22111SOL     OW68339   8.899   9.398   3.397  0.4060 -0.4056  0.3039
22111SOL    HW168340   8.912   9.400   3.492 -1.9889  0.0414  0.6706
22111SOL    HW268341   8.975   9.445   3.362  1.1132 -0.2024  2.0123
22112SOL     OW68342   0.382  10.696   4.994  0.2757 -0.0912 -0.0527
22112SOL    HW168343   0.475  10.690   5.015  1.0451  0.8109 -2.8010
22112SOL    HW268344   0.367  10.788   4.975 -1.7215  0.1644  2.2728
22113SOL     OW68345   3.260   8.081  10.787 -0.2615  0.1676  0.3675
22113SOL    HW168346   3.272   8.082  10.881  0.5922 -1.0161  0.2907
22113SOL    HW268347   3.320   8.148  10.754  0.3069 -0.2218  0.5907
22114SOL     OW68348   7.178   4.003   1.115  0.3558 -0.1842  0.0911
22114SOL    HW168349   7.249   4.064   1.135 -1.0926  0.9446  2.1761
22114SOL    HW268350   7.117   4.054   1.060  1.2682 -1.2817 -2.0644
22115SOL     OW68351  10.629   5.503   5.434  0.4497  0.3248  0.1385
22115SOL    HW168352  10.589   5.421   5.402 -0.5994  0.9640 -0.2566
22115SOL    HW268353  10.567   5.535   5.499  0.5844  1.0749 -0.1000
22116SOL     OW68354   9.997   1.911   0.729 -0.0724  0.2179  0.1709
22116SOL    HW168355  10.012   1.818   0.745 -2.0952 -0.2590 -0.4617
22116SOL    HW268356  10.044   1.956   0.800 -0.6575 -1.3656  1.6256
22117SOL     OW68357   2.484   2.391   7.244  0.0195  0.3118 -0.1031
22117SOL    HW168358   2.536   2.433   7.175 -0.8352  0.1221 -0.8814
22117SOL    HW268359   2.401   2.369   7.202 -0.3212 -0.2987  0.8478
22118SOL     OW68360   8.226   8.865  10.416 -0.1784  0.0324 -0.2544
22118SOL    HW168361   8.300   8.819  10.376 -0.1571  1.6488 -2.2303
22118SOL    HW268362   8.254   8.957  10.421 -1.7786  0.5695 -0.4298
22119SOL     OW68363   3.193   3.214   9.054 -0.0379  0.6130 -0.2127
22119SOL    HW168364   3.127   3.277   9.025 -0.7387  0.2649  0.5821
22119SOL    HW268365   3.145   3.152   9.109  0.8788  0.1182  0.0526
22120SOL     OW68366   2.042   1.495   2.539 -0.1092 -0.3186  0.4599
22120SOL    HW168367   2.044   1.587   2.564  1.5284 -0.4265  0.8379
22120SOL    HW268368   2.109   1.453   2.593  0.7953 -1.2862 -1.2983
22121SOL     OW68369   6.084   1.181   1.477 -0.4590 -0.0378 -0.1072
22121SOL    HW168370   6.103   1.105   1.531 -1.4299 -0.4847 -0.3749
22121SOL    HW268371   6.077   1.254   1.539 -0.0872 -0.2721  0.2104
22122SOL     OW68372   0.696   3.056   0.884 -0.6127  0.1858  0.1455
22122SOL    HW168373   0.734   3.112   0.816  1.1496 -0.2573  0.7058
22122SOL    HW268374   0.645   2.991   0.837  1.1551 -0.5444 -0.8653
22123SOL     OW68375   8.145   7.151   0.003 -0.0117  0.4524  0.2333
22123SOL    HW168376   8.188   7.230   0.035 -0.7946  0.8209  0.4038
22123SOL    HW268377   8.085   7.126   0.073  0.6208 -0.6199  0.4157
22124SOL     OW68378   6.933   1.475   4.530 -0.2442  0.4304  0.3948
22124SOL    HW168379   7.013   1.468   4.478 -0.3467  0.4740  0.2293
22124SOL    HW268380   6.963   1.476   4.621 -0.1286 -0.7394  0.3836
22125SOL     OW68381   0.803   1.637   3.313 -0.3418 -0.0143 -0.3241
22125SOL    HW168382   0.887   1.678   3.335 -0.8988  1.2444 -0.4427
22125SOL    HW268383   0.807   1.550   3.354  1.7704 -0.7586 -1.9597
22126SOL     OW68384   4.977   1.935   5.982 -0.4512  0.1887  0.2606
22126SOL    HW168385   4.916   1.901   6.048 -0.4709  1.5055  0.9602
22126SOL    HW268386   4.958   1.884   5.903 -0.5523 -1.3013  1.2116
22127SOL     OW68387   5.325   5.112   5.280  0.1433 -0.1140 -0.0080
22127SOL    HW168388   5.396   5.119   5.344 -0.2347 -0.1165  0.4163
22127SOL    HW268389   5.366   5.073   5.203  0.7896  0.6569 -0.0642
22128SOL     OW68390   4.991  10.023   2.549 -0.1978  0.1455  0.5245
22128SOL    HW168391   5.067  10.005   2.493  0.2114 -2.4175  1.7779
22128SOL    HW268392   4.916  10.004   2.493  0.1778 -0.9943  0.3838
22129SOL     OW68393   5.313   0.318   2.638 -0.0579  0.0967 -0.1122
22129SOL    HW168394   5.279   0.395   2.594  0.6464  0.0752 -0.7186
22129SOL    HW268395   5.406   0.336   2.650 -0.1757 -0.0284  1.1055
22130SOL     OW68396   2.813   5.065   3.930 -0.0676  0.4773 -0.1543
22130SOL    HW168397   2.801   4.979   3.889  0.5452  1.1101 -1.7201
22130SOL    HW268398   2.828   5.044   4.023 -0.5191 -1.0600 -0.3901
22131SOL     OW68399   0.163   6.968   3.293 -0.0554 -0.4063 -0.3055
22131SOL    HW168400   0.177   6.956   3.387  0.2359 -1.6357 -0.4920
22131SOL    HW268401   0.251   6.970   3.256 -0.1578  0.4736 -0.5156
22132SOL     OW68402   6.478   4.096   4.302 -0.2581  0.3733  0.2812
22132SOL    HW168403   6.523   4.128   4.380  0.1151 -0.4645  0.4245
22132SOL    HW268404   6.484   4.001   4.309 -1.7214  0.2368  0.1136
22133SOL     OW68405   4.223   5.663   2.489 -0.5062  0.3957 -0.5840
22133SOL    HW168406   4.236   5.582   2.440  0.8974 -2.1177  3.4480
22133SOL    HW268407   4.168   5.638   2.563  0.3625  2.9821  1.0650
22134SOL     OW68408   9.096   7.383   9.703  0.6574 -0.1776 -0.6588
22134SOL    HW168409   9.107   7.468   9.662  1.4277 -0.0608 -0.2360
22134SOL    HW268410   9.036   7.399   9.776  0.0504 -0.1939 -1.1508
22135SOL     OW68411   4.506   1.493   2.338 -1.1393 -0.3498 -0.3598
22135SOL    HW168412   4.516   1.433   2.264  1.2195 -0.5595  0.0520
22135SOL    HW268413   4.595   1.505   2.372 -1.8989  1.2550  1.2643
22136SOL     OW68414   4.911   4.586   5.355 -0.2012 -0.4970 -0.1782
22136SOL    HW168415   4.932   4.637   5.433 -1.6111 -1.3070  0.7706
22136SOL    HW268416   4.994   4.580   5.307  0.5059  0.6888  0.8404
22137SOL     OW68417  10.985   0.797   1.739  0.2889  0.3057  0.3572
22137SOL    HW168418  11.043   0.852   1.687  1.2443 -0.2935  0.7598
22137SOL    HW268419  10.975   0.717   1.688  0.0981  0.2656  0.4547
22138SOL     OW68420   8.301   0.164  11.022  0.1349 -0.4089  0.1330
22138SOL    HW168421   8.242   0.107  11.072 -0.6821 -0.5899 -0.9977
22138SOL    HW268422   8.296   0.130  10.933  1.9993 -0.4560  0.0081
22139SOL     OW68423   4.317   5.278  10.840  0.3103  0.4077 -0.2888
22139SOL    HW168424   4.261   5.320  10.906 -1.5560  1.8052 -2.6204
22139SOL    HW268425   4.402   5.322  10.850  0.3688 -0.0648  1.7431
22140SOL     OW68426   5.236   3.887   2.001  0.2200  0.1431 -0.5909
22140SOL    HW168427   5.291   3.962   1.976  0.0752  0.1796 -0.7979
22140SOL    HW268428   5.149   3.910   1.971  0.0790  0.1044 -0.2211
22141SOL     OW68429   1.316   8.765   3.152 -0.2729 -0.3395  0.7337
22141SOL    HW168430   1.255   8.824   3.194  0.7700  1.7577 -0.5288
22141SOL    HW268431   1.281   8.751   3.064  1.1336  1.1918 -0.1410
22142SOL     OW68432   2.101   4.804   8.820 -0.1369 -0.3373 -0.3027
22142SOL    HW168433   2.103   4.708   8.814  1.5883 -0.2555 -2.1799
22142SOL    HW268434   2.074   4.822   8.910  0.3619 -2.5974  0.3677
22143SOL     OW68435   7.341   0.890   2.828 -0.2932  0.2252 -0.0577
22143SOL    HW168436   7.421   0.837   2.828 -0.4616 -0.0576 -1.0559
22143SOL    HW268437   7.308   0.884   2.917  0.2566 -0.5003  0.1076
22144SOL     OW68438   5.823   5.981  10.198  0.3793 -0.1531  0.2952
22144SOL    HW168439   5.743   5.936  10.227  0.9742  0.1935  2.6442
22144SOL    HW268440   5.829   5.960  10.104 -2.3736 -0.2839  0.0629
22145SOL     OW68441   6.439   9.766   8.164 -0.1077 -0.3488 -0.2474
22145SOL    HW168442   6.509   9.735   8.221 -0.0801 -1.0075 -0.6403
22145SOL    HW268443   6.473   9.848   8.127 -1.1527  1.5820  2.7049
22146SOL     OW68444   0.997   2.163   2.351 -0.1038  0.3140 -0.3199
22146SOL    HW168445   0.990   2.098   2.281  2.1844 -0.6190  0.2388
22146SOL    HW268446   1.008   2.112   2.431 -2.4924  1.3668  0.8041
22147SOL     OW68447   5.648  10.475   9.867  0.3329  0.3772  0.4972
22147SOL    HW168448   5.582  10.437   9.808 -0.0389 -0.2139  1.2746
22147SOL    HW268449   5.686  10.399   9.911  1.8601  0.6698 -0.2473
22148SOL     OW68450   5.935   0.157   4.927  0.1901 -0.0407 -0.3957
22148SOL    HW168451   5.993   0.124   4.996  0.0339  0.0942 -0.1951
22148SOL    HW268452   5.986   0.152   4.847  0.8708  1.0744 -0.0647
22149SOL     OW68453   0.206   2.888   0.962  0.4334 -0.0303  0.3726
22149SOL    HW168454   0.297   2.879   0.991  0.6640  2.1003  0.5096
22149SOL    HW268455   0.203   2.975   0.922 -1.6927  0.1755  0.8976
22150SOL     OW68456   3.731   5.578   9.383 -0.2204  0.1224  0.0300
22150SOL    HW168457   3.649   5.617   9.413 -0.8559 -2.0635  1.4394
22150SOL    HW268458   3.706   5.489   9.355  1.6645 -0.6635  0.6767
22151SOL     OW68459   0.973   2.869   2.177 -0.0846 -0.3676 -0.0253
22151SOL    HW168460   0.917   2.937   2.214 -0.1754 -1.1576  1.3817
22151SOL    HW268461   1.026   2.839   2.251  1.8016 -0.0461 -1.1893
22152SOL     OW68462   1.165   5.525   0.585  0.7829 -0.5829 -0.1327
22152SOL    HW168463   1.073   5.517   0.560  1.5296 -0.4983 -3.3524
22152SOL    HW268464   1.191   5.437   0.611 -0.1456 -0.6169  0.7542
22153SOL     OW68465   6.498   7.652   4.418  0.0034  1.0135 -0.2224
22153SOL    HW168466   6.451   7.725   4.378 -2.9208 -0.4812  0.2240
22153SOL    HW268467   6.447   7.629   4.495  1.6146 -0.6534  0.4344
22154SOL     OW68468   3.608  10.972   2.357 -0.1029  0.0135  0.3582
22154SOL    HW168469   3.666  10.962   2.433  0.1495 -1.5003 -0.0204
22154SOL    HW268470   3.661  10.946   2.282 -0.8950 -0.1775 -0.1472
22155SOL     OW68471   8.292   7.100   6.627 -0.4822 -0.1874 -0.1229
22155SOL    HW168472   8.203   7.067   6.612 -1.6461  2.6363 -0.1143
22155SOL    HW268473   8.284   7.195   6.616  2.5931  0.1548 -0.2316
22156SOL     OW68474   2.142   3.456   0.739 -0.2799  0.2959  0.1336
22156SOL    HW168475   2.108   3.545   0.730 -0.3889  0.2031 -0.4337
22156SOL    HW268476   2.070   3.400   0.710 -0.2987  0.0097  0.7291
22157SOL     OW68477   7.306  10.347   5.507 -0.1471 -0.3615  0.0428
22157SOL    HW168478   7.243  10.341   5.579  0.2940 -0.9720  0.3897
22157SOL    HW268479   7.252  10.339   5.428 -0.6625  0.5698  0.2882
22158SOL     OW68480   7.349  11.015   3.854 -0.2655  0.3831 -0.7545
22158SOL    HW168481   7.356  11.044   3.945  1.5078  1.2783 -1.1250
22158SOL    HW268482   7.307  10.930   3.859  0.7178 -0.0432  1.0068
22159SOL     OW68483  10.536   4.773   4.091  0.6273 -0.1036  0.1717
22159SOL    HW168484  10.543   4.774   3.996 -1.6774  0.7171 -0.0440
22159SOL    HW268485  10.491   4.691   4.111 -0.4212  0.5046  0.3828
22160SOL     OW68486   2.202   5.943   4.785 -0.2963 -0.1882  0.3767
22160SOL    HW168487   2.163   6.024   4.751 -0.3910 -0.0555  0.7929
22160SOL    HW268488   2.185   5.946   4.879 -2.1194 -1.6559  0.1716
22161SOL     OW68489   5.354   9.766   8.117 -0.4702  0.3723 -0.1954
22161SOL    HW168490   5.441   9.764   8.077 -0.1863 -0.9037  0.4076
22161SOL    HW268491   5.346   9.853   8.155  1.3761 -0.1079  1.4459
22162SOL     OW68492   9.432   9.634   2.714  0.0844  0.2776  0.2507
22162SOL    HW168493   9.478   9.709   2.750 -0.3879 -0.1837  1.9081
22162SOL    HW268494   9.366   9.671   2.655  0.3206  1.1236  0.5129
22163SOL     OW68495   3.960   8.676   3.350 -0.2996  0.0419 -0.0737
22163SOL    HW168496   3.927   8.651   3.436  0.3622  1.0791  0.5112
22163SOL    HW268497   3.962   8.594   3.300 -1.3207 -0.4562  0.6761
22164SOL     OW68498   2.056   8.588   4.724 -0.0187 -0.1809  0.1793
22164SOL    HW168499   2.067   8.683   4.726 -0.5830  0.1216 -3.3167
22164SOL    HW268500   1.961   8.576   4.714 -0.0295 -1.1726  1.3487
22165SOL     OW68501   3.490  10.431   9.664  0.1635  0.4702 -0.5758
22165SOL    HW168502   3.533  10.346   9.671  1.5638  0.9345 -2.4742
22165SOL    HW268503   3.557  10.489   9.628 -1.3131  1.8913 -1.2118
22166SOL     OW68504   2.275   1.036  10.561 -0.0726  0.2086  0.5197
22166SOL    HW168505   2.294   0.971  10.628  0.0899 -0.6173 -0.3112
22166SOL    HW268506   2.179   1.041  10.559 -0.0745  0.3608  0.9223
22167SOL     OW68507   7.186   4.338   2.091 -0.1428 -0.5350 -0.3834
22167SOL    HW168508   7.212   4.273   2.156 -0.4573 -0.9147 -0.6317
22167SOL    HW268509   7.090   4.331   2.088 -0.4842  1.8642  1.6100
22168SOL     OW68510   0.361   8.432   3.331  0.5121  0.1396 -0.5402
22168SOL    HW168511   0.308   8.458   3.255  0.9737  1.2207 -0.5072
22168SOL    HW268512   0.362   8.510   3.387  2.8263  0.4367 -0.9259
22169SOL     OW68513   8.912   7.525   2.874  0.6264 -0.2783  0.2829
22169SOL    HW168514   8.920   7.503   2.966 -2.4616 -0.1994  0.7009
22169SOL    HW268515   8.867   7.450   2.835  2.3272 -0.5373 -1.3130
22170SOL     OW68516   3.249   9.235   0.869  0.0288  0.1186  0.1525
22170SOL    HW168517   3.283   9.322   0.886  0.6684  0.1253 -1.0535
22170SOL    HW268518   3.166   9.231   0.917  0.2154  1.2157  0.5844
22171SOL     OW68519   6.976   8.214   3.407  0.4381 -0.4751 -0.4938
22171SOL    HW168520   6.948   8.127   3.435  0.7659 -1.3855 -2.7702
22171SOL    HW268521   6.898   8.252   3.367  0.2796  0.3218  0.5573
22172SOL     OW68522   9.233   3.031   2.713  0.0943 -0.0618 -0.0402
22172SOL    HW168523   9.243   3.076   2.630 -2.5383  2.6204  0.8989
22172SOL    HW268524   9.157   2.973   2.701  0.0337 -0.0655  0.3245
22173SOL     OW68525  10.763  10.780   6.876 -0.4621  0.6181  0.7201
22173SOL    HW168526  10.843  10.805   6.829 -0.4133  0.0356  0.4882
22173SOL    HW268527  10.697  10.841   6.844 -0.7206 -0.5102 -1.0441
22174SOL     OW68528   7.459   0.053   6.002  0.0396 -0.0258  0.6201
22174SOL    HW168529   7.543   0.038   6.045  1.1002 -1.1955 -1.6819
22174SOL    HW268530   7.433  -0.033   5.969 -0.7329  0.7744 -0.9803
22175SOL     OW68531   6.983   0.344   5.109  0.5321 -0.7955 -0.4397
22175SOL    HW168532   7.034   0.353   5.029 -1.3117  1.5904 -1.4493
22175SOL    HW268533   7.026   0.402   5.172  0.6828 -0.9559 -0.3937
22176SOL     OW68534   5.314   0.847   1.285  0.2915  0.4814 -0.3655
22176SOL    HW168535   5.361   0.895   1.353  1.7766  1.9491 -2.2985
22176SOL    HW268536   5.222   0.867   1.300  0.7269  2.2192  0.1917
22177SOL     OW68537   3.524   0.853  10.477  0.4148 -0.2160 -0.4061
22177SOL    HW168538   3.464   0.924  10.500 -0.3121 -0.4300 -1.5378
22177SOL    HW268539   3.489   0.777  10.523 -0.1178 -0.3015 -0.9231
22178SOL     OW68540   9.223   0.841   3.888  0.1021  0.1561  0.3224
22178SOL    HW168541   9.204   0.784   3.814 -1.1401 -0.8098  1.3272
22178SOL    HW268542   9.217   0.930   3.853 -2.0067 -0.2258 -0.4429
22179SOL     OW68543   2.672   7.075   0.803 -0.3137  0.7574  0.0367
22179SOL    HW168544   2.692   6.984   0.784  2.1112  0.7552  2.1908
22179SOL    HW268545   2.674   7.118   0.717 -0.7424 -1.0300 -0.9192
22180SOL     OW68546   0.933   8.145   0.343 -0.1441  0.6938  0.0428
22180SOL    HW168547   0.947   8.184   0.257 -0.3260 -3.1749 -1.9622
22180SOL    HW268548   0.838   8.137   0.350 -0.0796 -1.0004 -0.5093
22181SOL     OW68549   0.666   2.327   1.803 -0.6147 -0.0583  0.0385
22181SOL    HW168550   0.687   2.269   1.876 -0.5819 -2.0423 -1.4589
22181SOL    HW268551   0.735   2.392   1.804  0.9403 -1.6295  0.1893
22182SOL     OW68552   9.710  11.011   2.995  0.4792 -0.3626  0.5699
22182SOL    HW168553   9.727  10.945   3.062 -1.1761 -2.2934 -0.8088
22182SOL    HW268554   9.618  11.034   3.007 -0.1400 -1.4757 -1.5911
22183SOL     OW68555   9.674   7.598   5.246 -0.5571  0.1807  0.3981
22183SOL    HW168556   9.730   7.649   5.188  0.9213  0.8086  2.2690
22183SOL    HW268557   9.677   7.509   5.211 -0.3616  0.6715 -0.8993
22184SOL     OW68558   6.629   0.559   6.735 -0.2523  0.2717  0.2251
22184SOL    HW168559   6.699   0.611   6.773  0.5196 -0.4301 -0.1969
22184SOL    HW268560   6.550   0.587   6.781  0.2933  1.1086  0.6743
22185SOL     OW68561   0.221   6.930   4.493 -0.0861 -0.5460 -0.2869
22185SOL    HW168562   0.257   7.018   4.490  0.8023 -0.8899  0.1528
22185SOL    HW268563   0.287   6.875   4.451 -0.6303 -1.0140 -0.5484
22186SOL     OW68564   0.647   5.875   0.105  0.3145  0.2980 -0.1851
22186SOL    HW168565   0.611   5.963   0.114  0.5691  0.2782  1.4130
22186SOL    HW268566   0.714   5.870   0.173  0.6710 -0.9593 -0.6004
22187SOL     OW68567   1.658   9.987  11.093  1.0502 -0.5171  0.5474
22187SOL    HW168568   1.715   9.971  11.018 -2.2157 -1.9226 -1.8738
22187SOL    HW268569   1.688   9.924  11.159  2.8494 -0.5562 -0.2527
22188SOL     OW68570   6.990   4.157  10.073  0.2716 -0.0731 -0.4699
22188SOL    HW168571   7.022   4.068  10.058 -3.1923 -1.8462  1.3895
22188SOL    HW268572   6.982   4.195   9.986  2.0053 -1.4470 -1.2928
22189SOL     OW68573  10.167   6.589   2.550 -0.2325 -0.0195 -0.6058
22189SOL    HW168574  10.095   6.606   2.610  0.6502  0.2244  0.4238
22189SOL    HW268575  10.245   6.616   2.598  0.4228  1.3620 -2.3252
22190SOL     OW68576   9.504   3.843   4.698  0.3209  0.0054 -0.0568
22190SOL    HW168577   9.559   3.771   4.729  0.1809 -0.0359  0.0898
22190SOL    HW268578   9.510   3.909   4.766 -0.4061 -0.2971  0.3070
22191SOL     OW68579   1.380   0.721   4.361 -0.3072  0.0992 -0.1756
22191SOL    HW168580   1.423   0.751   4.441 -0.3096  1.9298 -0.8199
22191SOL    HW268581   1.296   0.685   4.391 -0.4836  1.1384  0.6171
22192SOL     OW68582   7.331   2.577   2.137  0.3672 -0.0807  0.1102
22192SOL    HW168583   7.372   2.587   2.052  0.5131 -1.9021 -0.0704
22192SOL    HW268584   7.246   2.536   2.118  0.8454 -1.5178  0.8669
22193SOL     OW68585   2.933  11.019   5.197 -0.1184  0.6051 -0.2908
22193SOL    HW168586   2.870  11.091   5.204 -0.0848  0.6141 -0.0819
22193SOL    HW268587   2.951  11.013   5.103 -0.8871  0.2044 -0.4257
22194SOL     OW68588   6.549   8.291   5.619 -0.4279  0.2942 -0.0659
22194SOL    HW168589   6.558   8.251   5.532 -0.9365 -0.7591  0.3502
22194SOL    HW268590   6.480   8.240   5.662 -0.3638  0.9684  0.8698
22195SOL     OW68591   8.199   3.596   5.763  0.2451  0.1489  0.2321
22195SOL    HW168592   8.242   3.682   5.767  2.5816 -0.9573  0.8495
22195SOL    HW268593   8.187   3.579   5.669  0.5944  0.7755  0.0698
22196SOL     OW68594   9.081   8.058   9.961 -0.3261  0.7543 -0.3745
22196SOL    HW168595   9.148   8.062  10.029 -1.5600  1.5010  0.8414
22196SOL    HW268596   9.050   8.148   9.952  0.3632  0.8226 -2.5205
22197SOL     OW68597   7.692   7.891   1.319 -0.1173  0.0280  0.2411
22197SOL    HW168598   7.678   7.933   1.403  0.2076  1.0587 -0.2039
22197SOL    HW268599   7.665   7.800   1.332  1.5724 -0.2758  1.9294
22198SOL     OW68600   5.566   3.961   3.281 -0.3820 -0.2198 -0.3032
22198SOL    HW168601   5.485   3.938   3.235 -0.1969 -0.0979 -0.6947
22198SOL    HW268602   5.636   3.932   3.222 -0.1355  1.5172 -0.9217
22199SOL     OW68603   9.729   0.989   9.395 -0.3091  0.1223  0.6280
22199SOL    HW168604   9.665   1.041   9.347 -0.4453  0.1383  0.8258
22199SOL    HW268605   9.746   1.039   9.474 -0.0246  0.1350  0.5592
22200SOL     OW68606  10.135   2.106   1.120  0.3223 -0.1644 -0.5656
22200SOL    HW168607  10.058   2.098   1.065 -0.0085  2.5253 -0.6243
22200SOL    HW268608  10.185   2.177   1.081  3.4755 -2.4811 -1.1819
22201SOL     OW68609   5.661   2.078   4.013  0.1160  0.2061  0.3474
22201SOL    HW168610   5.714   2.029   4.076  1.1251 -0.3963 -0.9174
22201SOL    HW268611   5.725   2.125   3.960 -0.7292  0.8763 -0.0957
22202SOL     OW68612   9.778   1.458   7.619 -0.4447  0.5682 -1.0671
22202SOL    HW168613   9.718   1.532   7.612 -0.5719  0.4371 -1.3743
22202SOL    HW268614   9.788   1.444   7.713 -2.6020 -0.7787 -0.9497
22203SOL     OW68615   1.243   5.974   6.587 -0.2553  0.1244  0.6428
22203SOL    HW168616   1.162   5.943   6.626  0.0638  0.5206  1.6373
22203SOL    HW268617   1.215   6.020   6.508 -0.9860  0.1270  0.8955
22204SOL     OW68618   4.903   2.163   8.887 -0.0720 -0.2949  0.2692
22204SOL    HW168619   4.885   2.172   8.793  2.5319 -2.2014 -0.5327
22204SOL    HW268620   4.825   2.122   8.923 -0.4657 -1.1057 -1.4079
22205SOL     OW68621   3.875   1.762   4.673 -0.3467 -0.6631 -0.0458
22205SOL    HW168622   3.815   1.798   4.608  1.2409  0.4060 -0.9898
22205SOL    HW268623   3.871   1.824   4.746  0.7874  0.3024 -0.7817
22206SOL     OW68624   7.048   2.553   4.015  0.3260 -0.1246 -0.0504
22206SOL    HW168625   6.968   2.502   4.010 -0.1116  0.6229 -0.9586
22206SOL    HW268626   7.045   2.594   4.102  0.1588 -0.7841  0.2577
22207SOL     OW68627   4.274   7.169   5.683 -0.6617 -0.2728 -0.0272
22207SOL    HW168628   4.317   7.196   5.764  0.2405  0.2929 -0.6778
22207SOL    HW268629   4.277   7.073   5.685  0.2055 -0.2481  0.1668
22208SOL     OW68630   2.366   3.987   5.232  0.1271 -0.0865  0.2306
22208SOL    HW168631   2.340   3.903   5.195 -1.5153  0.4445  0.0640
22208SOL    HW268632   2.401   3.966   5.318 -0.8349 -0.9075  0.4436
22209SOL     OW68633   4.026  11.036   0.224 -0.6041 -0.0528 -0.1767
22209SOL    HW168634   3.961  10.971   0.197  0.0058 -0.9969  0.5705
22209SOL    HW268635   4.007  11.051   0.317 -0.2005  0.1951 -0.1360
22210SOL     OW68636   5.327   9.469   3.688 -0.5091 -0.4781 -0.1761
22210SOL    HW168637   5.395   9.529   3.718  0.6295 -1.3194 -1.0288
22210SOL    HW268638   5.373   9.404   3.635 -1.9771 -1.0575 -0.7921
22211SOL     OW68639   9.011   7.656   8.710 -0.4920 -0.0523  0.9766
22211SOL    HW168640   8.990   7.583   8.768  1.2456  0.5623  2.5118
22211SOL    HW268641   9.017   7.732   8.768 -0.7581  1.0248 -0.3452
22212SOL     OW68642   8.699   3.238   0.976  0.0405 -0.5902  0.1290
22212SOL    HW168643   8.793   3.256   0.977 -0.4473  2.6903  1.4377
22212SOL    HW268644   8.677   3.230   0.883  1.5836 -1.4980 -0.1837
22213SOL     OW68645   7.617   1.607   2.175  0.6569  0.3968  0.2413
22213SOL    HW168646   7.642   1.522   2.210  1.9801  1.4447  1.9781
22213SOL    HW268647   7.655   1.610   2.088  2.5329  0.0460  1.0132
22214SOL     OW68648   0.762   3.841   1.094 -0.8261 -0.3734 -0.2181
22214SOL    HW168649   0.781   3.755   1.056 -0.4901 -0.4320  0.0793
22214SOL    HW268650   0.790   3.834   1.185  1.3485  0.7556 -0.7337
22215SOL     OW68651   5.985  10.924   8.787 -0.1889 -0.2196 -0.4112
22215SOL    HW168652   6.009  10.910   8.696 -1.9030  0.8855 -1.0792
22215SOL    HW268653   5.946  10.842   8.815  1.5279 -1.0157 -0.2224
22216SOL     OW68654   9.800   7.799   3.227 -0.1274 -0.1621 -0.2510
22216SOL    HW168655   9.880   7.851   3.231  0.3741 -0.8624 -0.9772
22216SOL    HW268656   9.804   7.743   3.304  1.1840 -1.7293 -1.3901
22217SOL     OW68657  10.131   3.746   1.506  0.3889 -0.6021 -0.2790
22217SOL    HW168658  10.046   3.791   1.504  0.2568 -0.8619 -1.0598
22217SOL    HW268659  10.195   3.817   1.499  0.3035 -0.2883  1.7071
22218SOL     OW68660   5.801   4.591  10.501  0.1671  0.1020  0.2950
22218SOL    HW168661   5.857   4.619  10.574  1.2037  2.1695 -1.1792
22218SOL    HW268662   5.862   4.566  10.431 -0.8049 -1.7692  0.0519
22219SOL     OW68663   5.387   5.304   2.065  0.1233  0.0935 -0.2828
22219SOL    HW168664   5.328   5.369   2.103 -0.2807 -0.8586  0.7370
22219SOL    HW268665   5.432   5.352   1.995  2.4973  2.6214  2.6477
22220SOL     OW68666   6.536   2.092   4.855 -0.2595  0.1652 -0.0740
22220SOL    HW168667   6.597   2.033   4.810 -0.8782 -0.1205 -0.5672
22220SOL    HW268668   6.564   2.180   4.830 -0.2108  0.0258 -0.5223
22221SOL     OW68669   8.602  10.606  10.811  0.4328  0.6895  0.2080
22221SOL    HW168670   8.609  10.629  10.904  0.7994 -1.6406  0.8217
22221SOL    HW268671   8.509  10.585  10.799  0.0258  2.6576 -0.4383
22222SOL     OW68672  10.243  10.606   2.937  0.1053  0.8402 -0.2768
22222SOL    HW168673  10.266  10.581   2.848  0.3751 -0.5615  0.1688
22222SOL    HW268674  10.306  10.560   2.992 -0.3449  1.3233  0.6685
22223SOL     OW68675   4.148   3.420   2.856 -0.3946 -0.0262 -0.0258
22223SOL    HW168676   4.074   3.404   2.914  1.0098  0.7266  2.1036
22223SOL    HW268677   4.215   3.357   2.885  0.2763  0.2283 -0.9703
22224SOL     OW68678  10.419   8.172   2.415  0.3093 -0.1439  0.2117
22224SOL    HW168679  10.387   8.202   2.499 -1.9279  2.0967 -1.2933
22224SOL    HW268680  10.498   8.223   2.399 -0.4157  0.9627  0.0881
22225SOL     OW68681   5.671   1.279  10.733  0.4567 -0.1023 -0.3043
22225SOL    HW168682   5.727   1.317  10.665  0.5251  1.4001  0.5361
22225SOL    HW268683   5.587   1.323  10.722  0.3304 -0.1868  0.2709
22226SOL     OW68684  10.254   9.649   2.918 -0.0554 -0.4869  0.0243
22226SOL    HW168685  10.210   9.564   2.926 -2.1501  0.5428  0.1397
22226SOL    HW268686  10.216   9.688   2.839  3.6534 -1.1234 -2.3003
22227SOL     OW68687   6.240   2.710   6.468 -0.3455 -0.1425  0.8500
22227SOL    HW168688   6.210   2.790   6.425  0.0885 -0.3596  0.1344
22227SOL    HW268689   6.246   2.734   6.561 -0.2035  0.6596  0.6399
22228SOL     OW68690   4.387  10.921   9.979  0.6263 -0.1710  0.5538
22228SOL    HW168691   4.307  10.906   9.929  0.0526 -3.0545  2.1123
22228SOL    HW268692   4.457  10.908   9.915 -0.0609  1.8066 -0.6968
22229SOL     OW68693   1.432   7.392  10.460 -0.7272 -0.0518  0.2044
22229SOL    HW168694   1.439   7.463  10.524  0.4970  0.9978 -1.0288
22229SOL    HW268695   1.491   7.324  10.492  0.3501  0.7203 -0.0759
22230SOL     OW68696   4.491   3.481   7.460 -0.1034  0.2787 -0.1872
22230SOL    HW168697   4.576   3.520   7.481  0.0635  0.7531 -1.5999
22230SOL    HW268698   4.450   3.545   7.402 -1.7365  0.3722  1.0206
22231SOL     OW68699   6.161   0.365   0.342  0.7723 -0.7067 -0.9077
22231SOL    HW168700   6.146   0.294   0.405  0.9912  1.2375  1.4657
22231SOL    HW268701   6.075   0.405   0.330  1.2337  0.9621  0.8235
22232SOL     OW68702   2.697   2.998   3.818  0.5185 -0.3006 -0.0032
22232SOL    HW168703   2.706   2.979   3.911  1.3933  1.3144  0.2726
22232SOL    HW268704   2.657   2.919   3.781 -2.0245 -0.1158  2.1064
22233SOL     OW68705   4.388   1.329   2.786 -0.0477  0.3854 -0.7078
22233SOL    HW168706   4.353   1.418   2.782 -1.6828 -0.0877  1.3658
22233SOL    HW268707   4.316   1.277   2.820  1.9510 -1.0658  1.6240
22234SOL     OW68708  10.877   3.203   7.174 -0.6929 -0.1356 -0.8410
22234SOL    HW168709  10.887   3.275   7.236 -0.1690  1.8050 -3.0711
22234SOL    HW268710  10.952   3.146   7.191  0.2441  1.1286 -0.6597
22235SOL     OW68711   1.804   8.060   5.128 -0.1773  0.0083 -0.2072
22235SOL    HW168712   1.723   8.016   5.156  0.2898 -1.7330 -1.4209
22235SOL    HW268713   1.857   7.990   5.090  0.7636  1.5904 -1.9632
22236SOL     OW68714   7.077   0.496   5.859 -0.0973  0.7800  0.0764
22236SOL    HW168715   7.169   0.519   5.844  0.0388 -0.3937 -1.0801
22236SOL    HW268716   7.078   0.403   5.881 -0.9010  1.0892  1.5613
22237SOL     OW68717   7.154   6.742   0.719 -0.3656  0.1345  0.3095
22237SOL    HW168718   7.087   6.675   0.729 -0.0830  0.0419  1.7046
22237SOL    HW268719   7.233   6.703   0.755  0.1865  0.6467 -0.3149
22238SOL     OW68720   9.642   6.043   0.195  0.4524  0.1751  0.2070
22238SOL    HW168721   9.674   5.981   0.260  2.0915  0.1691 -0.5787
22238SOL    HW268722   9.719   6.094   0.170 -0.6763  1.9642  0.1910
22239SOL     OW68723   8.799   0.192   9.903  0.2823  0.0437 -0.1539
22239SOL    HW168724   8.753   0.273   9.882 -0.8805 -1.0221 -2.0157
22239SOL    HW268725   8.866   0.183   9.835 -1.3833 -1.8344 -1.6904
22240SOL     OW68726   0.896   3.521   5.528  0.0303  0.2188  0.0788
22240SOL    HW168727   0.969   3.520   5.465 -0.2847  0.1900 -0.2910
22240SOL    HW268728   0.896   3.434   5.567  0.1824  0.2133  0.0669
22241SOL     OW68729   3.483   6.360   3.541 -0.5591 -0.4064  0.6207
22241SOL    HW168730   3.392   6.346   3.515 -0.1650 -0.6245 -0.7111
22241SOL    HW268731   3.523   6.405   3.466  0.5958 -0.9435  0.8906
22242SOL     OW68732  10.080   5.019   9.632  0.7425 -0.0532 -0.4131
22242SOL    HW168733  10.016   5.090   9.640 -0.9489 -1.4503 -0.9670
22242SOL    HW268734  10.051   4.953   9.695  2.0655 -0.4521 -0.1819
22243SOL     OW68735   8.219   5.572   0.288 -0.1934 -0.8254  0.5828
22243SOL    HW168736   8.241   5.565   0.195 -2.5722  1.8437 -0.3201
22243SOL    HW268737   8.153   5.504   0.301 -1.2066 -0.0295 -0.2161
22244SOL     OW68738   0.994   4.939  10.987  0.5087 -0.1334  0.2727
22244SOL    HW168739   1.003   5.033  11.000  0.7315 -0.0219 -0.6198
22244SOL    HW268740   0.900   4.925  10.980  0.1290 -0.5167  4.0056
22245SOL     OW68741   4.379   2.514   4.578  0.3478  0.0307 -0.0367
22245SOL    HW168742   4.434   2.556   4.512  0.5821 -1.7296 -1.0313
22245SOL    HW268743   4.339   2.586   4.626  0.6189  1.3581 -1.7279
22246SOL     OW68744   9.282   8.993   0.142 -0.3293  0.0749  0.0031
22246SOL    HW168745   9.272   9.047   0.221  0.6049 -1.5104  1.2691
22246SOL    HW268746   9.269   8.904   0.172 -0.8737 -0.5187 -1.8572
22247SOL     OW68747   4.698   5.121   9.900  0.6038 -0.3300 -0.4061
22247SOL    HW168748   4.703   5.200   9.847 -2.2306  1.6198  1.8986
22247SOL    HW268749   4.746   5.143   9.980 -0.9603 -0.5599  0.6255
22248SOL     OW68750   6.567   2.646  10.173 -0.2094 -0.4196  0.2591
22248SOL    HW168751   6.517   2.610  10.246 -1.0565 -1.0723 -0.6120
22248SOL    HW268752   6.503   2.656  10.103  0.6144  0.0491 -0.4385
22249SOL     OW68753   9.517   2.865   2.025  0.1163  0.2598  1.0440
22249SOL    HW168754   9.468   2.867   2.107  1.5775  0.4583  1.9382
22249SOL    HW268755   9.467   2.921   1.966 -1.2706 -0.3555  1.5897
22250SOL     OW68756   3.632   6.099   4.280  0.1284  0.1028  0.5525
22250SOL    HW168757   3.559   6.134   4.229 -1.6816  1.1624  3.5792
22250SOL    HW268758   3.601   6.015   4.313  0.1067  0.6988  2.1181
22251SOL     OW68759   3.838   2.703   0.575  0.1554 -0.1379  0.2940
22251SOL    HW168760   3.926   2.724   0.546  0.1494  0.9276  0.9881
22251SOL    HW268761   3.811   2.778   0.629 -1.2771 -0.3118 -0.1237
22252SOL     OW68762  10.607   1.398   2.544 -0.5139  0.1171  0.4967
22252SOL    HW168763  10.669   1.424   2.612 -0.6828  0.8339  0.3812
22252SOL    HW268764  10.592   1.304   2.560  1.0794 -0.2192  0.1247
22253SOL     OW68765   8.377  10.302   2.686 -0.4476 -0.2728  0.0823
22253SOL    HW168766   8.318  10.372   2.659  0.8910  1.1678  0.7821
22253SOL    HW268767   8.440  10.294   2.615 -0.0936 -0.1822  0.3841
22254SOL     OW68768   2.939   2.823   3.162  0.3376 -0.9293  0.5412
22254SOL    HW168769   2.984   2.766   3.223 -0.0033  1.4075  3.1512
22254SOL    HW268770   2.981   2.908   3.173 -2.6903  0.6580  0.9566
22255SOL     OW68771   9.617   6.334   7.800 -0.4552 -0.2884  0.4971
22255SOL    HW168772   9.536   6.365   7.839  0.4099  1.9780  0.6392
22255SOL    HW268773   9.686   6.367   7.857  0.6371 -1.0456 -0.3295
22256SOL     OW68774  10.600  10.909   4.760  0.3032 -0.0426  0.6135
22256SOL    HW168775  10.550  10.898   4.679 -0.7681  0.3869  1.1944
22256SOL    HW268776  10.631  10.821   4.781 -0.2406 -0.3274  0.2557
22257SOL     OW68777   8.076   9.892   4.542 -0.3944 -0.0041 -0.4069
22257SOL    HW168778   8.109   9.982   4.542  0.6690 -0.3690 -1.7221
22257SOL    HW268779   8.001   9.894   4.483  1.1373 -0.4514 -2.4729
22258SOL     OW68780   9.704   2.500   5.017 -0.3436  0.1065  0.0606
22258SOL    HW168781   9.687   2.407   5.006 -0.3489  0.2063 -0.9187
22258SOL    HW268782   9.618   2.540   5.024 -0.3328  0.0085  0.7910
22259SOL     OW68783   9.390   3.795   4.451  0.6075 -0.1792  0.2557
22259SOL    HW168784   9.439   3.809   4.533  0.6491  0.5863  0.1157
22259SOL    HW268785   9.336   3.719   4.468  0.3685  0.1702  1.1243
22260SOL     OW68786   6.984   2.461   1.534  0.5629  0.6968 -0.1471
22260SOL    HW168787   7.005   2.369   1.551  1.9145  0.7038 -1.5359
22260SOL    HW268788   6.907   2.478   1.588  0.1160 -1.3210 -0.0437
22261SOL     OW68789   6.729   4.807   7.190  0.6459 -0.3153 -0.4867
22261SOL    HW168790   6.644   4.776   7.223  1.6583 -1.8638  0.7941
22261SOL    HW268791   6.733   4.772   7.101  0.5227 -1.4860 -0.0565
22262SOL     OW68792  10.472   1.602   4.378 -0.3788  0.3207  0.0359
22262SOL    HW168793  10.468   1.676   4.317 -1.7980  0.6186  0.4487
22262SOL    HW268794  10.404   1.542   4.349  0.5033 -0.6595 -0.0554
22263SOL     OW68795   2.274   4.987   4.830  0.2714 -0.1961  0.0624
22263SOL    HW168796   2.206   4.920   4.828 -0.1563  0.2194 -1.6062
22263SOL    HW268797   2.315   4.981   4.743  0.3440  1.5519 -0.0551
22264SOL     OW68798   4.035  10.742   3.489  0.3438  0.8426 -0.1139
22264SOL    HW168799   4.056  10.814   3.548  1.9293  0.0473  0.3620
22264SOL    HW268800   3.999  10.674   3.546  0.7593  0.5209 -0.2221
22265SOL     OW68801   7.837   7.248   1.845  0.2611  0.4523  0.3810
22265SOL    HW168802   7.757   7.266   1.795  1.3818  1.4710 -1.1443
22265SOL    HW268803   7.895   7.207   1.782  1.1997  0.3749  1.2784
22266SOL     OW68804   2.585   5.804  10.860  0.1448 -0.1117 -0.1125
22266SOL    HW168805   2.500   5.804  10.906 -0.6110  0.6519 -1.4320
22266SOL    HW268806   2.649   5.782  10.928 -1.2890 -2.7136  0.5332
22267SOL     OW68807   7.634   2.142   1.014  0.7424  0.0287  0.0315
22267SOL    HW168808   7.711   2.089   0.994 -0.6045 -1.6812 -0.9210
22267SOL    HW268809   7.597   2.102   1.093  0.7789  0.8087  0.4568
22268SOL     OW68810   5.087   0.311   8.322  0.4287  0.0220 -0.2633
22268SOL    HW168811   5.133   0.339   8.402 -0.4886 -3.1995  1.5780
22268SOL    HW268812   5.151   0.256   8.277  1.1317  2.2432 -2.1972
22269SOL     OW68813   0.898   0.253   7.773  0.0878  0.4164 -0.0199
22269SOL    HW168814   0.940   0.336   7.752 -0.2520  0.3810 -0.8504
22269SOL    HW268815   0.831   0.276   7.838 -0.2515  0.8536 -0.5158
22270SOL     OW68816   7.432   7.816   3.489  0.2489 -0.1433  0.8177
22270SOL    HW168817   7.364   7.866   3.535 -0.2261  0.0369 -0.0734
22270SOL    HW268818   7.411   7.826   3.397 -0.0650 -2.3151  0.6171
22271SOL     OW68819   1.580   2.203   3.839 -0.6263  0.3502  0.1085
22271SOL    HW168820   1.593   2.118   3.796 -1.7750  0.6825 -0.9785
22271SOL    HW268821   1.599   2.186   3.931 -0.4016 -0.9872 -0.1525
22272SOL     OW68822   3.493   2.502   5.593 -0.4063 -0.0913  0.0795
22272SOL    HW168823   3.504   2.582   5.645 -0.3769  0.9075 -1.4146
22272SOL    HW268824   3.569   2.500   5.535 -0.1096 -1.5349  0.4686
22273SOL     OW68825  10.016   4.283   4.279 -0.3271 -0.4755 -0.0120
22273SOL    HW168826  10.089   4.341   4.299  1.1280 -2.0282 -0.5613
22273SOL    HW268827  10.012   4.281   4.183 -1.4997  0.0467  0.0045
22274SOL     OW68828   5.716   4.467   2.887  0.0923 -0.5631 -0.2317
22274SOL    HW168829   5.633   4.426   2.914 -0.1455 -0.3456 -0.6215
22274SOL    HW268830   5.783   4.404   2.914 -0.2844 -1.3350 -1.0329
22275SOL     OW68831   1.526   2.030   7.438 -0.6552  0.2280  0.5951
22275SOL    HW168832   1.509   2.029   7.344 -1.4215 -2.1918  0.7014
22275SOL    HW268833   1.453   2.079   7.475 -1.1839 -0.1251  0.0426
22276SOL     OW68834   7.877   8.538   0.832  0.4904  0.0122  0.6788
22276SOL    HW168835   7.879   8.633   0.841 -1.0495  0.0716  0.7078
22276SOL    HW268836   7.790   8.513   0.863  0.1822 -1.2125 -1.0359
22277SOL     OW68837   0.725   6.218   5.397  0.6769  0.8990  0.0239
22277SOL    HW168838   0.770   6.291   5.438  2.8436 -0.6902  0.6452
22277SOL    HW268839   0.763   6.211   5.309  0.6942  0.3486  0.0689
22278SOL     OW68840   9.346   8.995   9.120 -0.1231  0.3275 -0.0272
22278SOL    HW168841   9.301   8.915   9.094 -0.3196  0.5079 -0.2630
22278SOL    HW268842   9.340   9.051   9.042  1.5508 -0.0750 -0.4810
22279SOL     OW68843   1.170   8.640   1.262 -0.2253 -0.0157 -0.3751
22279SOL    HW168844   1.095   8.597   1.220  0.1443 -0.0730 -0.9803
22279SOL    HW268845   1.148   8.640   1.355  0.0975 -2.2368 -0.2468
22280SOL     OW68846  10.148   4.983   4.759  0.4122 -0.0443  0.0655
22280SOL    HW168847  10.215   5.026   4.706  1.5741 -1.9478 -0.1284
22280SOL    HW268848  10.197   4.923   4.816 -1.0644 -0.9671  0.4316
22281SOL     OW68849  10.988  10.415   1.164  0.0573  0.0097  0.6515
22281SOL    HW168850  10.928  10.488   1.150  0.6843  0.5286  0.6580
22281SOL    HW268851  10.940  10.355   1.222 -0.0763  0.8878  1.4620
22282SOL     OW68852   6.739   9.428   7.397 -0.3389 -0.5615 -0.3031
22282SOL    HW168853   6.784   9.350   7.366 -1.1786 -1.1447 -0.0953
22282SOL    HW268854   6.677   9.450   7.327  0.8436  0.7519 -0.9797
22283SOL     OW68855   8.835   9.380   1.652 -0.1303  0.0049 -0.2703
22283SOL    HW168856   8.817   9.358   1.743  1.2147 -0.0155  0.0058
22283SOL    HW268857   8.784   9.316   1.602  0.1315 -0.8060  0.4731
22284SOL     OW68858   5.314   3.870   3.076  0.0349 -0.1702 -0.3857
22284SOL    HW168859   5.387   3.886   3.017  0.7272  0.6185  0.6636
22284SOL    HW268860   5.265   3.952   3.077  0.8584  0.3379  1.2542
22285SOL     OW68861   2.442   9.005   3.290 -0.0528  0.1752  0.3485
22285SOL    HW168862   2.515   9.026   3.349  2.0950 -1.3024 -1.6262
22285SOL    HW268863   2.412   8.918   3.319  0.1084  0.0370  0.1018
22286SOL     OW68864   7.936   0.489   8.605 -0.1016 -0.1313  0.6632
22286SOL    HW168865   7.877   0.494   8.680 -0.7687 -1.0731  0.2172
22286SOL    HW268866   7.884   0.450   8.535  0.5087  0.7272 -0.3027
22287SOL     OW68867   8.572   9.572   0.381  0.3895  0.0451 -0.0631
22287SOL    HW168868   8.576   9.659   0.340  0.5693 -0.2456 -0.6664
22287SOL    HW268869   8.663   9.545   0.390  0.3334 -0.0901  0.1134
22288SOL     OW68870   3.012   0.104  10.681 -0.6465  0.0629 -0.2296
22288SOL    HW168871   3.084   0.063  10.633 -1.3477 -1.0519 -0.3563
22288SOL    HW268872   3.053   0.178  10.726  0.6808 -0.8024  0.0564
22289SOL     OW68873   9.913   7.778   0.564  0.2845 -0.2302  0.0929
22289SOL    HW168874   9.844   7.723   0.603 -0.8162  0.4854 -0.7642
22289SOL    HW268875   9.973   7.716   0.524 -1.2820 -0.8506 -1.4248
22290SOL     OW68876  10.805   7.664   4.453 -0.0300 -0.2422 -0.8696
22290SOL    HW168877  10.741   7.660   4.382 -0.3978 -0.2472 -0.5413
22290SOL    HW268878  10.801   7.754   4.483  1.0713  0.1150 -1.7073
22291SOL     OW68879  10.190   4.566   1.134 -0.4356  0.1547 -0.0374
22291SOL    HW168880  10.146   4.545   1.052 -0.3001 -0.8078  0.1169
22291SOL    HW268881  10.283   4.552   1.116 -0.4144 -0.1704  0.3041
22292SOL     OW68882   5.024   3.868   4.271 -0.0123 -0.2726  0.3595
22292SOL    HW168883   4.991   3.837   4.355 -1.1854  1.2275  0.4999
22292SOL    HW268884   4.955   3.926   4.238  1.9369  2.0377  0.0514
22293SOL     OW68885   1.342   7.121   9.936 -0.3129  0.1687 -0.7195
22293SOL    HW168886   1.421   7.090   9.892  0.4551 -0.5117  1.0562
22293SOL    HW268887   1.307   7.188   9.878  1.3314  0.1820 -1.7479
22294SOL     OW68888   6.992  10.742   9.211 -0.1151  0.0982  0.5142
22294SOL    HW168889   7.085  10.764   9.211  0.1052 -0.7975  1.6485
22294SOL    HW268890   6.948  10.827   9.200  0.8141  0.5366  0.0314
22295SOL     OW68891   7.635   8.227  11.045  0.1565 -0.3538 -0.1983
22295SOL    HW168892   7.598   8.245  11.132 -0.9033 -0.4977 -0.6025
22295SOL    HW268893   7.679   8.143  11.056 -2.0398 -1.6107 -0.3456
22296SOL     OW68894  10.069   1.553   6.846 -0.1406 -0.0496  0.2786
22296SOL    HW168895  10.117   1.568   6.928 -1.0384 -0.8730  0.9721
22296SOL    HW268896  10.034   1.465   6.855  0.9410 -0.7206 -1.6290
22297SOL     OW68897   4.778   1.434   4.312  0.4324  0.4430  0.3756
22297SOL    HW168898   4.700   1.488   4.304  0.5996  0.5885 -0.3792
22297SOL    HW268899   4.851   1.495   4.300  0.6271  0.1164 -0.1766
22298SOL     OW68900   3.187   1.327   4.733 -0.2842 -0.4196  0.5467
22298SOL    HW168901   3.222   1.353   4.648 -0.9330 -1.0109  0.0896
22298SOL    HW268902   3.094   1.312   4.717 -0.5106 -0.0412  1.4779
22299SOL     OW68903   7.657   6.798   3.001 -0.2095  0.2163  0.9029
22299SOL    HW168904   7.573   6.786   2.958 -0.2828  0.3979  0.9945
22299SOL    HW268905   7.688   6.883   2.969 -0.8272  0.9346  2.1430
22300SOL     OW68906   5.205  10.984   4.537 -0.0739  0.1993 -0.5656
22300SOL    HW168907   5.226  10.960   4.628  1.5346  1.5508 -0.5351
22300SOL    HW268908   5.123  11.034   4.544 -0.9440 -1.2261 -0.1092
22301SOL     OW68909  10.010   9.450   0.399 -0.1147 -0.2827  0.1172
22301SOL    HW168910   9.980   9.536   0.428  0.7169  0.1467 -0.2810
22301SOL    HW268911  10.105   9.455   0.401 -0.0497 -0.8982 -0.7700
22302SOL     OW68912   5.855   5.269   1.433 -0.3333  0.1419  0.3289
22302SOL    HW168913   5.790   5.283   1.501 -0.9381  0.0983 -0.2321
22302SOL    HW268914   5.912   5.346   1.437  0.9870 -0.8666  2.3397
22303SOL     OW68915   0.620   2.266   5.201 -0.1208 -0.0274  0.5935
22303SOL    HW168916   0.585   2.222   5.124  0.6109  1.0571 -0.3954
22303SOL    HW268917   0.564   2.342   5.213 -0.0756 -0.0535  0.9866
22304SOL     OW68918   7.989   4.885   0.151  0.5314 -0.3979  0.4996
22304SOL    HW168919   8.059   4.867   0.089  0.5983 -0.1545  0.5021
22304SOL    HW268920   7.926   4.937   0.100  1.0193  0.6049  0.8831
22305SOL     OW68921   4.638   6.160   3.577  0.7217 -0.0827  0.1630
22305SOL    HW168922   4.643   6.072   3.614  1.1598  0.8745  2.5217
22305SOL    HW268923   4.593   6.212   3.643  0.3597  1.4566 -1.2361
22306SOL     OW68924   4.914   8.121   5.943 -0.1271 -0.1782 -0.0007
22306SOL    HW168925   4.954   8.175   6.011 -1.1549 -0.9001  1.2193
22306SOL    HW268926   4.821   8.144   5.946 -0.4225 -1.2820 -0.1212
22307SOL     OW68927   8.069   7.800   8.790 -0.1272  0.7015 -0.1426
22307SOL    HW168928   8.014   7.722   8.780  1.5912 -0.5755 -0.1762
22307SOL    HW268929   8.040   7.841   8.871 -0.9152 -0.1041 -0.0101
22308SOL     OW68930   2.469   0.718   9.944 -0.2165 -0.5515 -0.3454
22308SOL    HW168931   2.479   0.679   9.857  3.0898  0.0373 -0.3630
22308SOL    HW268932   2.545   0.775   9.954 -2.1605  1.9529  1.7172
22309SOL     OW68933   8.027   7.039   0.849 -0.3388  0.0956 -0.4047
22309SOL    HW168934   8.106   7.093   0.846  0.4096 -0.8487  1.2309
22309SOL    HW268935   8.054   6.958   0.892 -2.1092 -0.4248 -0.1780
22310SOL     OW68936   2.521   1.414   2.949  0.6361  0.8483  0.2274
22310SOL    HW168937   2.433   1.399   2.984  0.5287  2.5550  0.7698
22310SOL    HW268938   2.545   1.331   2.908 -1.2684  0.3800 -0.0259
22311SOL     OW68939   7.814   4.550  10.038  0.2190 -0.6622 -0.7599
22311SOL    HW168940   7.752   4.505   9.980 -0.4916  1.4151 -1.7194
22311SOL    HW268941   7.767   4.558  10.121 -0.9776  1.0265 -1.5206
22312SOL     OW68942   6.252   8.616   5.799  1.3108  0.2551  0.3551
22312SOL    HW168943   6.314   8.553   5.836  2.2632  0.6732 -0.4919
22312SOL    HW268944   6.272   8.617   5.705 -1.6759 -1.4978 -0.4179
22313SOL     OW68945   6.752   5.085   3.097  0.0592 -0.1304  0.2920
22313SOL    HW168946   6.816   5.016   3.116 -0.0320 -0.1489  0.5332
22313SOL    HW268947   6.669   5.053   3.132 -0.2145 -0.3670 -0.5422
22314SOL     OW68948   9.514   4.401   1.514  0.5020  0.0302 -0.2790
22314SOL    HW168949   9.601   4.423   1.548 -0.2234  1.2064  0.9093
22314SOL    HW268950   9.466   4.370   1.591 -0.6270  0.9728 -0.5832
22315SOL     OW68951   8.017   4.142   7.052 -0.0892  0.1067 -0.3834
22315SOL    HW168952   7.940   4.104   7.010 -0.7914 -0.4251  1.3023
22315SOL    HW268953   7.982   4.195   7.123  1.0103  1.9669 -1.1488
22316SOL     OW68954   4.340   1.430   5.728  0.4883  0.3067  0.6494
22316SOL    HW168955   4.389   1.409   5.649 -1.8220  0.0750 -0.8198
22316SOL    HW268956   4.333   1.526   5.727 -1.8275  0.2012 -1.0120
22317SOL     OW68957   9.256   2.081   6.976  0.4618 -0.1195 -0.2094
22317SOL    HW168958   9.223   2.153   6.922 -1.9601 -1.0907 -0.1638
22317SOL    HW268959   9.245   2.112   7.066  0.1449 -0.2451 -0.2037
22318SOL     OW68960   7.360   2.002   9.997 -0.3790  0.5023 -0.0915
22318SOL    HW168961   7.266   1.997   9.980 -0.2350 -0.2692 -0.7091
22318SOL    HW268962   7.396   1.921   9.961  0.7758  1.5926 -1.5312
22319SOL     OW68963   3.582   4.318   4.763 -0.4903  0.3885  0.0238
22319SOL    HW168964   3.594   4.343   4.671  0.9398 -1.7703 -0.4574
22319SOL    HW268965   3.488   4.305   4.772 -0.6428  0.4988 -1.1723
22320SOL     OW68966   9.114   7.841   8.173 -0.0458  0.7989 -0.0113
22320SOL    HW168967   9.124   7.759   8.221 -1.6291  2.6288  3.8316
22320SOL    HW268968   9.020   7.858   8.172  0.1545  2.1371 -1.6371
22321SOL     OW68969   3.985   8.142   6.034  0.1071  0.1323  0.0377
22321SOL    HW168970   4.028   8.090   6.101  0.9190 -0.2122 -0.7397
22321SOL    HW268971   4.051   8.206   6.007 -0.5606  0.9521  0.3001
22322SOL     OW68972   8.323   2.888   9.484 -0.1184 -0.0715  0.2134
22322SOL    HW168973   8.260   2.935   9.429  0.3508  1.6423  1.0982
22322SOL    HW268974   8.401   2.880   9.429 -0.6853 -1.2063 -0.4773
22323SOL     OW68975   8.995   1.571  10.626  0.2571  0.1835  0.3177
22323SOL    HW168976   8.948   1.507  10.574 -0.8832 -0.3774  1.9362
22323SOL    HW268977   8.926   1.616  10.676  1.3616 -0.5089  2.6123
22324SOL     OW68978   8.734   4.439   1.568 -0.3102 -0.0228  0.0593
22324SOL    HW168979   8.757   4.532   1.564 -1.7947  0.4258  1.0806
22324SOL    HW268980   8.735   4.419   1.662  0.4415 -1.1714 -0.1810
22325SOL     OW68981   6.714   9.584   3.739  0.1204  0.0208  0.7651
22325SOL    HW168982   6.690   9.525   3.810 -0.8779  0.6458  0.9624
22325SOL    HW268983   6.673   9.545   3.661  1.6974 -0.9799  0.4022
22326SOL     OW68984   9.649   9.220  10.207 -0.4966 -0.1986  0.0487
22326SOL    HW168985   9.580   9.264  10.157  0.6926 -0.3694 -1.8729
22326SOL    HW268986   9.654   9.132  10.168 -0.0200 -0.6070  0.9884
22327SOL     OW68987   7.699   2.101  10.321  0.0356  0.4826  0.5133
22327SOL    HW168988   7.643   2.167  10.279 -0.2628  1.1227  1.8750
22327SOL    HW268989   7.727   2.045  10.249 -0.5628  1.4687 -0.5257
22328SOL     OW68990   4.757   3.740   1.965  0.3602  0.3754  0.1595
22328SOL    HW168991   4.734   3.707   1.878 -0.2616  0.7876  0.1613
22328SOL    HW268992   4.703   3.818   1.976  0.4144  0.3104  0.9332
22329SOL     OW68993   4.535   9.400   1.043 -0.3728 -0.3249  0.4018
22329SOL    HW168994   4.620   9.373   1.077  0.5783 -0.9673 -2.2154
22329SOL    HW268995   4.476   9.327   1.061 -0.5407  0.2979  2.6121
22330SOL     OW68996  11.043   4.093   9.071  0.2933  0.2250  0.1936
22330SOL    HW168997  11.032   4.157   9.001  0.0099 -1.0250 -0.9503
22330SOL    HW268998  11.134   4.064   9.062 -0.6699 -2.6433 -2.1891
22331SOL     OW68999   5.360   4.637   9.354  0.0754  0.0269  0.0067
22331SOL    HW169000   5.403   4.689   9.286  0.5083  0.3375  0.5145
22331SOL    HW269001   5.421   4.638   9.428 -0.8322  0.5360  0.7669
22332SOL     OW69002  10.889   5.049   6.301  0.1148  0.1552  0.8184
22332SOL    HW169003  10.952   5.115   6.274 -0.5253  0.5290  0.2021
22332SOL    HW269004  10.833   5.093   6.366 -0.8022  0.4939 -0.1626
22333SOL     OW69005   3.542   2.791   6.372 -0.0823 -0.3307  0.0557
22333SOL    HW169006   3.594   2.829   6.302 -0.3605 -0.5393 -0.2644
22333SOL    HW269007   3.573   2.700   6.378  0.6626 -0.0352  0.8957
22334SOL     OW69008   2.182   3.295   4.325 -0.2445 -0.4345 -0.2309
22334SOL    HW169009   2.272   3.287   4.357 -0.7739  0.6842  1.6394
22334SOL    HW269010   2.182   3.244   4.244  1.3342 -2.8431  1.1620
22335SOL     OW69011   8.722   2.566   5.509 -0.5184 -0.0293  0.2492
22335SOL    HW169012   8.781   2.620   5.455  0.6883 -0.4470  1.0962
22335SOL    HW269013   8.707   2.617   5.588  2.0450 -1.5178  1.8508
22336SOL     OW69014   3.730   6.723   4.144  0.6939  0.5067  0.5572
22336SOL    HW169015   3.705   6.631   4.155 -1.7725  1.1838  1.4558
22336SOL    HW269016   3.773   6.746   4.227  0.4365  0.3819  0.7295
22337SOL     OW69017   1.843   6.644   1.213 -0.5018  0.0771  0.0425
22337SOL    HW169018   1.874   6.712   1.272  0.3327 -1.7364  1.8445
22337SOL    HW269019   1.921   6.593   1.192 -0.5794  1.2028 -3.5390
22338SOL     OW69020   8.832   8.439   7.703  0.4955 -0.6594  0.0320
22338SOL    HW169021   8.790   8.437   7.617  0.1043 -0.5791  0.2200
22338SOL    HW269022   8.818   8.528   7.735 -1.4068 -1.3204  1.1799
22339SOL     OW69023   5.745   1.786   1.927 -0.2616 -0.1420  0.3274
22339SOL    HW169024   5.721   1.854   1.864  1.3843 -0.3175 -0.5459
22339SOL    HW269025   5.773   1.835   2.005  0.8200  0.2270 -0.2588
22340SOL     OW69026   5.412  10.382   0.833  0.7438 -0.0142  0.0343
22340SOL    HW169027   5.373  10.377   0.746 -0.0883 -0.2457  0.4041
22340SOL    HW269028   5.434  10.292   0.855  0.7998  0.0220  0.1296
22341SOL     OW69029   7.602   8.690   3.802 -0.0926 -0.4339 -0.1681
22341SOL    HW169030   7.555   8.607   3.810  1.1336 -1.0874  0.4088
22341SOL    HW269031   7.682   8.678   3.853  0.0910  1.1203 -0.0364
22342SOL     OW69032   8.729   9.016   5.011 -0.4493  0.9299 -0.0378
22342SOL    HW169033   8.786   9.077   5.058 -0.6642  1.1279 -0.0326
22342SOL    HW269034   8.771   9.005   4.926  0.4887 -0.2106  0.5352
22343SOL     OW69035   9.790   1.971   9.669 -0.6990 -0.3210  0.2516
22343SOL    HW169036   9.720   1.983   9.605  0.1174  1.3850 -0.3567
22343SOL    HW269037   9.745   1.977   9.754 -1.3138  0.7199 -0.1324
22344SOL     OW69038   7.719   8.904   3.398 -0.3248  0.2251  0.1776
22344SOL    HW169039   7.759   8.894   3.484  1.9901 -0.5429 -0.9045
22344SOL    HW269040   7.720   8.816   3.361 -0.9723  0.6009 -0.7682
22345SOL     OW69041   3.731   8.348   3.491 -0.0029 -0.6629  0.5308
22345SOL    HW169042   3.827   8.346   3.499  0.0422  0.3329  0.4029
22345SOL    HW269043   3.706   8.257   3.478  0.7624 -1.1789  2.3863
22346SOL     OW69044   5.080   0.012   0.297 -0.3739  0.4033  0.1629
22346SOL    HW169045   5.170  -0.013   0.315 -0.8267 -2.0301 -0.5668
22346SOL    HW269046   5.087   0.089   0.240  1.2049  0.5299  0.4884
22347SOL     OW69047   7.566   1.692   5.187  0.2088  0.3169  1.1386
22347SOL    HW169048   7.600   1.761   5.130 -1.6796 -0.8375 -1.6165
22347SOL    HW269049   7.636   1.676   5.250  2.6720  1.4366 -1.1189
22348SOL     OW69050   3.006   9.411   1.399  0.3838  0.2900  0.4434
22348SOL    HW169051   3.048   9.326   1.396  0.3281  0.2648  0.3871
22348SOL    HW269052   2.929   9.398   1.455 -1.7126 -0.6277 -2.4127
22349SOL     OW69053   3.789   2.409   0.189 -0.1593  0.4756  0.5131
22349SOL    HW169054   3.734   2.416   0.111  2.0016  0.1333 -1.1409
22349SOL    HW269055   3.728   2.414   0.262 -2.1853  1.8595 -1.1527
22350SOL     OW69056   1.868   5.912   8.465 -0.2043 -0.1959 -0.1138
22350SOL    HW169057   1.913   5.898   8.549 -0.1938  0.8670  0.0745
22350SOL    HW269058   1.830   5.827   8.443 -0.0132 -0.5425  0.8605
22351SOL     OW69059   6.938   0.986   5.024  0.0285 -0.8222 -0.6555
22351SOL    HW169060   6.995   0.998   5.100 -0.3165 -1.4149 -0.2925
22351SOL    HW269061   6.849   0.996   5.058 -0.0869  0.4970 -1.2922
22352SOL     OW69062   8.251  10.067   6.170 -0.0480  0.4439 -0.3195
22352SOL    HW169063   8.305  10.105   6.101 -0.4006 -0.1244 -0.9167
22352SOL    HW269064   8.314  10.022   6.227  0.2515  0.9822 -0.2151
22353SOL     OW69065   7.547   2.387   2.680 -0.0774  0.7412  0.9213
22353SOL    HW169066   7.467   2.336   2.666  1.2567 -1.0619 -0.5491
22353SOL    HW269067   7.598   2.336   2.743  2.4240 -1.3012 -2.4831
22354SOL     OW69068   4.031   8.522   8.248 -0.4785  0.1071  0.6586
22354SOL    HW169069   4.041   8.606   8.203  0.6980  0.1260  0.9212
22354SOL    HW269070   4.112   8.475   8.229 -1.0747 -0.9310  0.6166
22355SOL     OW69071   0.060   7.250   5.386  0.2018 -0.0066  0.1041
22355SOL    HW169072   0.087   7.162   5.358  1.0320  0.6561 -1.2257
22355SOL    HW269073   0.106   7.263   5.469  1.2472 -0.2564 -0.4181
22356SOL     OW69074  10.131   0.890   3.993 -0.0421  0.1203 -0.0696
22356SOL    HW169075  10.055   0.895   4.050 -1.0443 -0.0322 -1.3426
22356SOL    HW269076  10.152   0.796   3.989  1.8361  0.3551  2.2756
22357SOL     OW69077   6.510   9.713   0.351 -0.2834  0.2921  0.1538
22357SOL    HW169078   6.447   9.696   0.421 -0.4003 -0.4815 -0.1314
22357SOL    HW269079   6.493   9.646   0.286  1.3255 -0.4134  0.4060
22358SOL     OW69080   8.972   9.585   1.172 -0.1447 -0.5815 -0.7088
22358SOL    HW169081   8.920   9.658   1.140  0.3160  0.0553 -0.0468
22358SOL    HW269082   9.061   9.604   1.142  0.0392 -0.6911 -0.2375
22359SOL     OW69083   3.482   4.815   9.237  0.0685  0.2739 -0.2197
22359SOL    HW169084   3.521   4.754   9.299 -1.8687  0.2001  0.9975
22359SOL    HW269085   3.399   4.840   9.277  0.7235  3.6586 -0.6810
22360SOL     OW69086   7.520   4.168   2.392  0.3566  0.0359 -0.6591
22360SOL    HW169087   7.594   4.229   2.393  2.6283 -2.5133 -0.6905
22360SOL    HW269088   7.485   4.174   2.303  0.1000  1.7133 -0.4693
22361SOL     OW69089   8.901   9.524   2.363  0.1207  0.0206 -0.2922
22361SOL    HW169090   8.930   9.498   2.450  0.9597  1.2006 -0.1802
22361SOL    HW269091   8.902   9.620   2.366 -1.8872  0.1064 -0.9535
22362SOL     OW69092  10.500   6.944   5.963  0.2534 -0.1482 -0.4643
22362SOL    HW169093  10.416   6.946   6.008  0.2059 -1.0773 -0.4758
22362SOL    HW269094  10.478   6.954   5.870  0.1631 -0.2423 -0.4535
22363SOL     OW69095   6.291   1.922   6.210 -0.0995 -0.1158 -0.3284
22363SOL    HW169096   6.260   1.929   6.119  1.0292 -0.4544 -0.7550
22363SOL    HW269097   6.212   1.927   6.262 -0.6311  2.3507 -1.2066
22364SOL     OW69098   0.511   5.327   3.314  0.1271 -0.2644  0.0628
22364SOL    HW169099   0.539   5.290   3.230 -1.1392 -0.8870 -0.1050
22364SOL    HW269100   0.571   5.289   3.378  0.6451 -0.3523 -0.4666
22365SOL     OW69101   0.904   0.722   5.086 -0.2799  0.4194  0.1673
22365SOL    HW169102   0.923   0.628   5.085 -0.8677  0.2981  0.2325
22365SOL    HW269103   0.961   0.758   5.018  0.0465  0.0331  0.2331
22366SOL     OW69104   4.446  10.739   6.794 -0.4215 -0.5293  0.6116
22366SOL    HW169105   4.396  10.719   6.873 -0.5735  0.8003  0.8748
22366SOL    HW269106   4.507  10.807   6.822 -1.2173  0.7499 -0.6611
22367SOL     OW69107   5.151   0.175   6.790 -0.2818 -0.8192 -0.1129
22367SOL    HW169108   5.196   0.123   6.857  0.3840 -0.3626 -0.1944
22367SOL    HW269109   5.066   0.133   6.780 -0.3014 -1.0240  0.8562
22368SOL     OW69110   8.344  10.055   7.755  0.1219  0.4564 -0.2380
22368SOL    HW169111   8.371  10.144   7.777  2.4677  0.2722 -2.0522
22368SOL    HW269112   8.421  10.014   7.716 -1.7053 -1.4439 -2.1663
22369SOL     OW69113   5.705   8.299   9.750  0.1049 -0.0246  0.2102
22369SOL    HW169114   5.692   8.336   9.838  0.1676  0.7362 -0.0922
22369SOL    HW269115   5.724   8.375   9.695  0.7977 -0.5766 -0.3252
22370SOL     OW69116   6.155   5.775   9.425  0.0121  0.1415  0.6865
22370SOL    HW169117   6.192   5.711   9.363 -1.1334 -0.3889  0.5255
22370SOL    HW269118   6.215   5.773   9.499  1.3170  0.6565 -0.3135
22371SOL     OW69119   6.848  10.162   9.897 -0.1621 -0.6539  0.1518
22371SOL    HW169120   6.804  10.241   9.865 -0.5538 -0.3101  1.4753
22371SOL    HW269121   6.900  10.132   9.823 -1.1444  0.0202 -0.8374
22372SOL     OW69122   5.005   3.463   4.178  0.4047  0.8966  0.9902
22372SOL    HW169123   5.069   3.422   4.119 -0.5321  1.1212 -0.2294
22372SOL    HW269124   4.988   3.397   4.245 -0.0292 -0.1960 -0.1534
22373SOL     OW69125   7.349   2.177   4.868  0.1807  0.2747  0.7632
22373SOL    HW169126   7.258   2.150   4.883  0.5733 -0.8942  1.1804
22373SOL    HW269127   7.383   2.113   4.805  0.4664  1.2406 -0.0843
22374SOL     OW69128   4.868   8.780   0.873 -0.2445  0.0019 -0.3861
22374SOL    HW169129   4.854   8.803   0.965 -2.5401 -0.0763 -0.6421
22374SOL    HW269130   4.883   8.685   0.874 -1.0218 -0.1304 -0.1145
22375SOL     OW69131   3.362   9.523   7.333  0.2556  0.2351  0.2545
22375SOL    HW169132   3.451   9.525   7.298 -0.6111 -1.1439 -2.3341
22375SOL    HW269133   3.353   9.436   7.371 -0.4136 -0.1837 -0.8309
22376SOL     OW69134   4.005   4.321   3.797 -0.1494 -0.2390  0.0319
22376SOL    HW169135   3.928   4.263   3.801  0.6374 -1.4356 -1.1430
22376SOL    HW269136   4.061   4.290   3.868 -0.6702  0.5541  0.8109
22377SOL     OW69137   3.005   8.899   4.252 -0.1929  0.3587  0.0213
22377SOL    HW169138   3.086   8.918   4.300  0.4522  2.5246 -1.7290
22377SOL    HW269139   3.027   8.825   4.196 -0.3220 -0.8381  1.4894
22378SOL     OW69140   4.991   5.598   3.160 -0.5173 -0.2950  0.1319
22378SOL    HW169141   5.005   5.539   3.233 -1.6757  0.8435  1.3187
22378SOL    HW269142   4.900   5.586   3.136 -0.7864  0.9903  0.4108
22379SOL     OW69143   3.925  11.047  10.732  0.1257 -0.3539 -0.4077
22379SOL    HW169144   3.963  11.120  10.684 -0.9691  0.1390 -0.5428
22379SOL    HW269145   3.961  11.056  10.820  3.5266 -2.2647 -1.4412
22380SOL     OW69146   5.843   9.034   4.298  0.0556 -0.5685 -0.4664
22380SOL    HW169147   5.786   9.001   4.228 -0.7736  0.0448 -0.0899
22380SOL    HW269148   5.910   8.966   4.307 -0.6139 -1.3122 -0.9153
22381SOL     OW69149  10.283   0.907  10.502 -0.2887 -0.0144 -0.0875
22381SOL    HW169150  10.358   0.963  10.481 -1.3055  1.1485 -0.7926
22381SOL    HW269151  10.248   0.943  10.583 -1.3960  0.9209 -0.9330
22382SOL     OW69152   6.698   9.961   6.643 -0.2128  0.3630  0.4570
22382SOL    HW169153   6.683  10.048   6.605  1.6688  0.0963 -1.0594
22382SOL    HW269154   6.747   9.978   6.723  1.1846  0.6946 -0.4316
22383SOL     OW69155   5.071   4.606   4.373  0.1651  0.7452  0.5398
22383SOL    HW169156   5.164   4.592   4.389  0.6300  1.6645 -1.1097
22383SOL    HW269157   5.032   4.610   4.461  0.9815 -3.4159  1.3187
22384SOL     OW69158   3.852  10.691   8.357 -0.5733 -0.5137 -1.0470
22384SOL    HW169159   3.865  10.634   8.433 -0.7414 -0.0445 -0.6636
22384SOL    HW269160   3.939  10.703   8.320 -0.0379  1.5085  0.7099
22385SOL     OW69161   9.729   1.637   8.089 -0.7455 -0.0571  0.0026
22385SOL    HW169162   9.678   1.666   8.013 -1.1216 -0.8497 -0.0600
22385SOL    HW269163   9.666   1.633   8.160 -0.5296  0.0462  0.2027
22386SOL     OW69164   7.295   4.496   8.583  0.2507 -0.0647  0.2262
22386SOL    HW169165   7.384   4.520   8.555 -0.1859  0.2067 -0.9699
22386SOL    HW269166   7.252   4.580   8.600 -0.3418 -0.0870 -1.0302
22387SOL     OW69167   9.258   0.085  10.078 -0.2200 -0.3325  0.3540
22387SOL    HW169168   9.182   0.138  10.052  0.6483  0.4215 -0.7214
22387SOL    HW269169   9.272   0.108  10.170  0.4169  1.7351 -0.1916
22388SOL     OW69170   7.903   0.698   6.021 -0.3946  0.0147 -0.0075
22388SOL    HW169171   7.897   0.625   6.082  2.0307 -0.6451 -0.4425
22388SOL    HW269172   7.987   0.686   5.976  0.1673  3.1049 -0.0567
22389SOL     OW69173   0.120   5.641   7.801 -0.2073 -0.2740  0.0559
22389SOL    HW169174   0.107   5.702   7.728 -0.4578 -0.2335  0.1332
22389SOL    HW269175   0.033   5.607   7.820 -0.0648 -0.6795 -0.0033
22390SOL     OW69176  10.463   3.272   5.637 -0.1030  0.4904 -0.0601
22390SOL    HW169177  10.422   3.185   5.639  0.0443  0.4223  0.0298
22390SOL    HW269178  10.521   3.272   5.714  1.3046 -0.0206 -1.0706
22391SOL     OW69179   7.802   0.598   2.563 -0.0737 -0.1719 -0.5592
22391SOL    HW169180   7.803   0.570   2.472  1.1008 -0.3139 -0.5280
22391SOL    HW269181   7.740   0.670   2.566  0.8560  0.7240 -1.7682
22392SOL     OW69182   9.221   2.390   4.620  0.1786 -0.2600 -0.4110
22392SOL    HW169183   9.169   2.462   4.656  0.5287  0.2446 -0.9060
22392SOL    HW269184   9.210   2.319   4.683 -1.0186 -0.1249 -0.4463
22393SOL     OW69185  11.016   9.974   5.326  0.0198  0.4860 -0.6323
22393SOL    HW169186  10.982   9.979   5.237 -1.1139 -2.8056 -0.5350
22393SOL    HW269187  10.966   9.903   5.367  2.4466 -0.0549  1.7078
22394SOL     OW69188   7.425   7.050   5.674  0.1368  0.0345  0.4648
22394SOL    HW169189   7.374   6.990   5.620  0.7695 -0.2531  0.1721
22394SOL    HW269190   7.491   7.085   5.615  0.2606  0.4205  0.8286
22395SOL     OW69191   7.659   8.490  10.550  0.3369 -0.6490  0.0179
22395SOL    HW169192   7.611   8.419  10.506 -0.3010 -0.5648  0.5717
22395SOL    HW269193   7.747   8.487  10.511 -0.6085  0.4088 -2.3842
22396SOL     OW69194   6.354   1.748   3.158 -0.4599  0.0583 -0.4319
22396SOL    HW169195   6.356   1.813   3.227  1.1165  1.4878 -1.7297
22396SOL    HW269196   6.331   1.666   3.202 -1.0931  1.2093  1.4759
22397SOL     OW69197   4.434   5.328   2.446  0.4970 -0.7152 -0.3458
22397SOL    HW169198   4.412   5.235   2.444  1.5240 -0.9668 -1.9481
22397SOL    HW269199   4.357   5.372   2.411 -0.0857 -0.9270  0.6440
22398SOL     OW69200   0.113   5.441   3.721  0.0162 -0.6708 -0.7066
22398SOL    HW169201   0.202   5.443   3.758  0.5647  0.0044 -1.9780
22398SOL    HW269202   0.126   5.414   3.630 -1.2187 -1.6725 -0.6059
22399SOL     OW69203   7.818   9.198   8.489  0.3204 -0.0393 -0.0568
22399SOL    HW169204   7.863   9.115   8.506  1.0267  0.7287  2.3667
22399SOL    HW269205   7.886   9.264   8.501 -0.0689  0.9206 -2.6245
22400SOL     OW69206  11.014   7.690   8.237  0.6371 -0.2506 -0.2043
22400SOL    HW169207  11.025   7.726   8.325 -0.7463 -0.3044  0.0144
22400SOL    HW269208  11.004   7.596   8.250 -0.4181 -0.1632 -0.3317
22401SOL     OW69209   7.707   0.665   4.515 -0.2961  0.2534 -0.0090
22401SOL    HW169210   7.735   0.689   4.426 -1.6385 -1.1780 -0.8744
22401SOL    HW269211   7.671   0.746   4.551  0.4162  0.8976 -0.7127
22402SOL     OW69212   8.565   3.735   3.576  0.1453  0.3171 -0.3977
22402SOL    HW169213   8.498   3.803   3.579  0.9763  1.1854 -1.0456
22402SOL    HW269214   8.635   3.773   3.524  0.9557 -0.7508 -0.1105
22403SOL     OW69215   7.485   0.721   6.645  0.6841  0.6855 -0.1160
22403SOL    HW169216   7.399   0.703   6.684  1.2268 -0.5076  0.6143
22403SOL    HW269217   7.476   0.695   6.554  0.6786 -0.9686  0.3162
22404SOL     OW69218  10.164   1.446   8.511  0.1757 -0.0946  0.2882
22404SOL    HW169219  10.074   1.419   8.529 -0.7103  1.6760 -1.2126
22404SOL    HW269220  10.214   1.412   8.586 -0.9555 -4.5521 -0.6639
22405SOL     OW69221   0.125   9.574   6.382  0.2791 -0.3573  0.3488
22405SOL    HW169222   0.120   9.489   6.427  2.1690 -0.0603  1.1903
22405SOL    HW269223   0.033   9.600   6.372 -0.3033 -1.8278  1.3782
22406SOL     OW69224  10.538  10.161   1.691  0.0817 -0.3698 -0.2121
22406SOL    HW169225  10.567  10.079   1.652  0.4880 -0.3960  0.1344
22406SOL    HW269226  10.483  10.135   1.765 -0.1806 -0.3258 -0.3901
22407SOL     OW69227   0.852   5.218   6.127  0.3481 -0.3996  0.4959
22407SOL    HW169228   0.801   5.277   6.072 -1.2490 -1.5498  0.6641
22407SOL    HW269229   0.879   5.272   6.201  2.2973  1.1045 -1.1737
22408SOL     OW69230   2.478  10.174   5.314 -0.5017  0.2020  0.0556
22408SOL    HW169231   2.478  10.143   5.223 -1.3311 -0.8036  0.3806
22408SOL    HW269232   2.568  10.160   5.343 -0.2836  0.3196 -0.5394
22409SOL     OW69233   5.791  10.928   7.263 -0.0326 -0.4562  0.2965
22409SOL    HW169234   5.872  10.938   7.314  0.4648 -2.4211 -0.0059
22409SOL    HW269235   5.812  10.966   7.178  0.5664 -0.8579  0.2536
22410SOL     OW69236   7.957   2.620   8.907  0.1374 -0.1331  0.3709
22410SOL    HW169237   8.047   2.613   8.876  0.0793 -0.9756  0.3601
22410SOL    HW269238   7.906   2.640   8.828  0.4303  1.4071  0.5493
22411SOL     OW69239   5.693   0.461   7.169 -0.1091 -0.0801  0.1974
22411SOL    HW169240   5.625   0.485   7.106 -1.0662 -0.2682  1.1351
22411SOL    HW269241   5.759   0.417   7.116 -0.1964  1.0388 -0.9063
22412SOL     OW69242   2.732  11.039   7.940 -0.0653  0.4380 -0.3617
22412SOL    HW169243   2.717  11.075   7.853 -0.9804 -0.8405 -0.7740
22412SOL    HW269244   2.827  11.033   7.949  0.0759 -1.5075 -2.2260
22413SOL     OW69245   8.997  10.164   4.799  0.4611  0.2580 -0.2419
22413SOL    HW169246   9.074  10.178   4.743  0.7480 -0.1842  0.0258
22413SOL    HW269247   8.945  10.244   4.791  1.0413  0.6366 -0.2898
22414SOL     OW69248   4.220   9.305   6.800 -0.7126 -0.2746 -0.4513
22414SOL    HW169249   4.130   9.333   6.784 -0.2760  1.5018  0.0283
22414SOL    HW269250   4.252   9.274   6.715 -1.4269  0.1196 -0.8661
22415SOL     OW69251   0.523   1.997   2.327 -0.4202  0.0535 -0.1203
22415SOL    HW169252   0.577   1.992   2.406  0.8704  1.4493 -0.8612
22415SOL    HW269253   0.481   2.083   2.332 -1.0178 -0.2050 -0.5520
22416SOL     OW69254   5.721   2.391   5.529  0.1827 -0.6016  0.2131
22416SOL    HW169255   5.669   2.389   5.449 -0.6589 -0.9704  0.7462
22416SOL    HW269256   5.751   2.482   5.537 -2.0011  0.1326  0.8698
22417SOL     OW69257   2.561   6.381   5.154 -0.4160 -0.5115  1.0632
22417SOL    HW169258   2.619   6.305   5.151 -0.8406 -0.8124 -1.1937
22417SOL    HW269259   2.610   6.446   5.205  1.8932 -0.7909 -0.6339
22418SOL     OW69260   0.689   2.809  10.336  0.0185 -0.2190 -0.1573
22418SOL    HW169261   0.605   2.773  10.307 -0.6190  1.3677 -0.3981
22418SOL    HW269262   0.689   2.794  10.431 -0.2334 -0.8200 -0.2455
22419SOL     OW69263   7.117   3.284   7.257 -0.6058 -0.0184  0.2439
22419SOL    HW169264   7.160   3.356   7.213 -3.0988  0.2402 -2.0093
22419SOL    HW269265   7.061   3.325   7.323 -1.1004  0.0302 -0.2022
22420SOL     OW69266   2.687  10.358   2.117  0.3252 -0.2538  0.7139
22420SOL    HW169267   2.777  10.388   2.104 -0.5208  1.7313 -1.0183
22420SOL    HW269268   2.667  10.305   2.040 -1.3994  3.1867 -1.4602
22421SOL     OW69269   2.399   3.467   4.978  0.1674 -0.1320 -0.0710
22421SOL    HW169270   2.383   3.555   5.012 -1.4096  0.0969 -1.2893
22421SOL    HW269271   2.312   3.431   4.962  0.7998 -1.7884  0.0566
22422SOL     OW69272   9.320  10.188   1.841 -0.1329  0.2240  0.1851
22422SOL    HW169273   9.273  10.113   1.805 -1.6511  0.8891  0.6991
22422SOL    HW269274   9.323  10.251   1.770  1.4104 -0.3894 -0.3445
22423SOL     OW69275   4.002   7.090   1.729 -0.5233  0.2750 -0.2904
22423SOL    HW169276   3.921   7.041   1.717 -0.4881  0.3269 -0.7667
22423SOL    HW269277   4.054   7.071   1.650  0.6137 -1.0525  0.7265
22424SOL     OW69278   9.432   2.041   6.377 -0.0075 -0.0632  0.2437
22424SOL    HW169279   9.433   2.118   6.320 -1.0875  2.3321  3.1932
22424SOL    HW269280   9.343   2.007   6.370 -0.0434  0.0284  0.2581
22425SOL     OW69281   8.908   3.309   4.667 -0.4993 -0.7892 -0.0920
22425SOL    HW169282   8.992   3.264   4.673 -0.9917 -1.6965  0.1728
22425SOL    HW269283   8.871   3.303   4.755 -0.1191  1.0928  0.2454
22426SOL     OW69284   4.716   3.439   5.780  0.3287 -0.1437  0.0386
22426SOL    HW169285   4.741   3.360   5.733  0.1713 -0.2402  0.1145
22426SOL    HW269286   4.769   3.438   5.860  0.6915  0.0884 -0.1966
22427SOL     OW69287   7.074  10.669   6.578  0.9985 -0.2292  0.1717
22427SOL    HW169288   7.015  10.640   6.508  0.8109  0.1635  0.1620
22427SOL    HW269289   7.105  10.755   6.548  2.3643 -0.8549 -0.3048
22428SOL     OW69290   7.673   1.096   7.224 -0.2213  0.4078  0.4001
22428SOL    HW169291   7.618   1.173   7.207 -1.9747 -0.9139 -0.2089
22428SOL    HW269292   7.734   1.095   7.150 -0.6561  0.8112  0.0236
22429SOL     OW69293  10.733   1.517   4.063  0.0245  0.1983  0.5887
22429SOL    HW169294  10.759   1.472   4.143 -0.4956 -1.3066 -0.0561
22429SOL    HW269295  10.649   1.478   4.039 -0.2227  1.1987 -0.2460
22430SOL     OW69296   4.523   7.245   8.897 -0.4066  0.1635  0.2436
22430SOL    HW169297   4.506   7.200   8.979  1.5075  0.2961  0.7694
22430SOL    HW269298   4.608   7.287   8.910  0.0577  0.0026 -1.8574
22431SOL     OW69299   6.476   2.191   5.138 -0.4376  0.1120  0.0306
22431SOL    HW169300   6.503   2.161   5.051  0.2131 -1.5208  0.7478
22431SOL    HW269301   6.549   2.168   5.195 -1.2639  0.2485  1.1802
22432SOL     OW69302   1.664   6.273   4.088  0.5778 -0.1096  0.1339
22432SOL    HW169303   1.739   6.328   4.114 -0.1642  0.6965  0.6234
22432SOL    HW269304   1.698   6.184   4.091  1.5739  0.2531  0.1681
22433SOL     OW69305   1.925   1.809   9.224 -0.0389  0.5593 -0.3373
22433SOL    HW169306   1.915   1.830   9.317  2.8197 -1.5712  0.6073
22433SOL    HW269307   1.855   1.746   9.206  0.7979 -0.9015  1.1435
22434SOL     OW69308   6.674   3.381   7.973 -0.1962 -0.0311 -0.3648
22434SOL    HW169309   6.724   3.371   7.892  0.7858 -0.0812  0.2318
22434SOL    HW269310   6.698   3.305   8.026 -0.0613  0.5120  0.3693
22435SOL     OW69311   1.668   7.838   7.283  0.3172 -0.1205  0.5761
22435SOL    HW169312   1.573   7.841   7.286  0.2147  0.0343 -1.5386
22435SOL    HW269313   1.688   7.772   7.217  1.6399  1.0876 -0.2770
22436SOL     OW69314   7.075   1.963   7.080 -0.5968  0.3182 -0.0376
22436SOL    HW169315   7.142   1.895   7.068 -1.3617 -0.3960 -0.3901
22436SOL    HW269316   7.077   1.982   7.174  2.6759  3.0586 -0.4905
22437SOL     OW69317   6.532   1.978   5.623 -0.3080 -0.0574  0.3968
22437SOL    HW169318   6.498   1.915   5.559 -0.6141 -1.7490  2.1099
22437SOL    HW269319   6.599   1.929   5.671  0.3069  1.3290  0.9947
22438SOL     OW69320   9.798   7.542   0.988 -0.2974  0.5588  0.2831
22438SOL    HW169321   9.874   7.498   1.026 -0.4422 -0.0202 -0.0957
22438SOL    HW269322   9.835   7.611   0.933 -0.0742  2.4707  2.6389
22439SOL     OW69323   4.554  10.329   7.958  0.1745  0.4614  0.4252
22439SOL    HW169324   4.527  10.264   7.892  0.9560 -0.9315  1.4297
22439SOL    HW269325   4.618  10.383   7.913 -0.6496  0.7026 -0.5011
22440SOL     OW69326   8.472   5.508   0.395 -0.0839  0.3318  0.4589
22440SOL    HW169327   8.380   5.520   0.370 -0.0443  1.0376  0.6247
22440SOL    HW269328   8.468   5.496   0.490  0.0447  0.9797  0.5486
22441SOL     OW69329  10.815   1.546   0.523  0.6037  0.3715 -0.3374
22441SOL    HW169330  10.757   1.488   0.573  2.2787  0.2045  1.5420
22441SOL    HW269331  10.887   1.489   0.495  0.1844  0.6869 -2.1411
22442SOL     OW69332   8.520   8.232   8.611  0.3041  0.7958 -0.0917
22442SOL    HW169333   8.465   8.221   8.534 -0.3498 -1.9895  0.6685
22442SOL    HW269334   8.514   8.326   8.631 -0.4154  1.3933 -2.6975
22443SOL     OW69335   6.358   8.987   2.627 -0.1021 -0.0896  0.3813
22443SOL    HW169336   6.314   8.970   2.544 -0.5203 -0.6938  0.7236
22443SOL    HW269337   6.287   9.008   2.688  0.2371  0.7997  0.4836
22444SOL     OW69338   3.842   9.273   6.236 -0.1395 -0.2008 -0.1411
22444SOL    HW169339   3.771   9.270   6.299 -0.8621 -1.5862 -0.9889
22444SOL    HW269340   3.813   9.336   6.170 -0.2427 -0.1921 -0.0874
22445SOL     OW69341   4.738  10.300   3.582 -0.4100  0.2245  0.1827
22445SOL    HW169342   4.692  10.220   3.603  0.7982 -0.2210  1.2463
22445SOL    HW269343   4.825  10.288   3.619 -0.0297  1.8008 -0.1331
22446SOL     OW69344   5.872   5.136   0.480  0.2973  0.0993 -0.4595
22446SOL    HW169345   5.867   5.219   0.431 -0.8808  0.9800  1.0626
22446SOL    HW269346   5.795   5.137   0.536  1.6893 -0.7431  1.5858
22447SOL     OW69347   6.186   4.741   2.977 -0.2499  0.4768 -0.7478
22447SOL    HW169348   6.165   4.779   3.062 -1.4020  1.5325 -1.4747
22447SOL    HW269349   6.268   4.694   2.991 -1.5937 -1.3926  1.5197
22448SOL     OW69350   4.372   0.049   0.386 -0.0439  0.5537 -0.5806
22448SOL    HW169351   4.397  -0.039   0.415  0.4606  0.7436 -0.4330
22448SOL    HW269352   4.294   0.070   0.437 -0.0145  0.2991 -0.4284
22449SOL     OW69353   7.264   7.665  10.487  0.1533  0.5358  0.3332
22449SOL    HW169354   7.185   7.705  10.453  0.5832  0.6507 -0.5385
22449SOL    HW269355   7.240   7.573  10.500  0.2235  0.2965 -1.0944
22450SOL     OW69356   4.577  10.696   7.208  0.0662 -0.1565 -0.1109
22450SOL    HW169357   4.588  10.608   7.244 -0.4996 -0.5775 -0.9153
22450SOL    HW269358   4.624  10.694   7.125 -0.2405  0.1898 -0.2967
22451SOL     OW69359   1.194   2.308   3.758  0.1605  0.1133 -0.0142
22451SOL    HW169360   1.170   2.258   3.836  1.0040  1.1649  0.9632
22451SOL    HW269361   1.111   2.330   3.717 -0.4536  1.2662  1.7269
22452SOL     OW69362   5.203   7.284   5.673 -0.1187 -0.1350  0.2063
22452SOL    HW169363   5.108   7.276   5.680 -0.2155  0.4934 -0.2438
22452SOL    HW269364   5.233   7.196   5.648 -0.7830  0.0700 -1.5120
22453SOL     OW69365  10.234   3.710   6.655 -0.0264 -0.5338  0.0566
22453SOL    HW169366  10.181   3.637   6.622  0.2855 -0.9465  0.4531
22453SOL    HW269367  10.301   3.668   6.709  0.1403  0.0519  0.3082
22454SOL     OW69368   0.554   1.346   1.539 -0.1696  0.1394 -0.1478
22454SOL    HW169369   0.473   1.390   1.512 -0.4247 -0.0730  0.2664
22454SOL    HW269370   0.602   1.412   1.588  0.1324  0.4158 -0.7997
22455SOL     OW69371   4.805   0.879   5.169 -0.0597  0.6815  0.0443
22455SOL    HW169372   4.790   0.843   5.256  0.3078  1.1804  0.3234
22455SOL    HW269373   4.855   0.812   5.123  0.3985  0.7215  0.4711
22456SOL     OW69374   0.078  10.707   4.110  0.6555  0.2363 -0.6295
22456SOL    HW169375   0.032  10.623   4.114 -1.6997  1.4969  1.5438
22456SOL    HW269376   0.170  10.684   4.099 -0.1286 -2.5203 -2.3124
22457SOL     OW69377   8.202   5.714   9.634 -0.2299 -0.3015  0.0905
22457SOL    HW169378   8.285   5.718   9.681 -0.5240 -0.3645  0.6112
22457SOL    HW269379   8.139   5.755   9.692 -0.6140 -0.4679 -0.2042
22458SOL     OW69380   3.659   7.090   3.154 -0.3613  0.2797  0.1398
22458SOL    HW169381   3.592   7.044   3.103 -0.4563 -1.0401  1.4013
22458SOL    HW269382   3.615   7.114   3.235  0.1696  1.1480  0.1807
22459SOL     OW69383   1.647   2.700   9.609  0.0223 -0.0162  0.1009
22459SOL    HW169384   1.708   2.752   9.662 -0.1755 -0.6354  0.9626
22459SOL    HW269385   1.567   2.753   9.605  0.1325  0.1572  0.1926
22460SOL     OW69386   4.293   1.759   5.582 -0.2083  0.1057 -0.2978
22460SOL    HW169387   4.237   1.744   5.505  0.9057 -0.8150 -0.9584
22460SOL    HW269388   4.233   1.791   5.649 -1.4962 -0.6660 -1.0404
22461SOL     OW69389   0.724   1.105  10.467  0.0817  0.1111  0.5392
22461SOL    HW169390   0.730   1.079  10.375 -1.3500  2.0346 -0.1643
22461SOL    HW269391   0.798   1.163  10.480 -1.3547  2.2617 -0.3438
22462SOL     OW69392   9.756   1.981   4.421 -0.9919  0.5006 -0.7695
22462SOL    HW169393   9.687   1.918   4.442  0.9452 -1.6681 -0.5152
22462SOL    HW269394   9.775   2.025   4.504  0.3595 -1.5169  0.0721
22463SOL     OW69395   8.543   3.234  10.404  0.4120  0.0926 -0.0576
22463SOL    HW169396   8.448   3.230  10.399  0.3526  0.1317  0.9827
22463SOL    HW269397   8.567   3.170  10.471  1.0912  0.3564 -0.0387
22464SOL     OW69398   4.862  10.280   0.775  0.4186  0.1523 -0.4244
22464SOL    HW169399   4.767  10.275   0.781  0.3242  1.7936  0.1100
22464SOL    HW269400   4.889  10.325   0.855  1.8400 -1.8426  0.2964
22465SOL     OW69401  10.201   8.775   5.881 -0.2096 -0.2007  0.6192
22465SOL    HW169402  10.274   8.798   5.823 -1.1005  1.2526  0.0311
22465SOL    HW269403  10.180   8.856   5.927 -1.8767 -0.3885  0.2739
22466SOL     OW69404   9.497   3.725   3.681 -0.2968 -0.0839  0.1182
22466SOL    HW169405   9.592   3.715   3.691 -0.6444 -2.1082  2.6476
22466SOL    HW269406   9.474   3.661   3.613 -0.0937 -1.8501  1.6156
22467SOL     OW69407   9.996   2.763   1.731 -0.0776 -0.5047  0.4599
22467SOL    HW169408  10.021   2.812   1.653  0.1911 -1.0529  0.1936
22467SOL    HW269409  10.023   2.818   1.804 -1.2497  0.4751  0.1751
22468SOL     OW69410   5.243   8.946   2.892  0.5020  0.0629  0.1345
22468SOL    HW169411   5.275   8.899   2.815  0.0037 -0.6580  0.3538
22468SOL    HW269412   5.316   9.002   2.918  1.4099 -1.1512  0.3106
22469SOL     OW69413   0.297   3.972   5.148 -0.1896  0.2466 -0.1135
22469SOL    HW169414   0.375   3.988   5.094  0.5204  0.3278  0.9049
22469SOL    HW269415   0.237   4.043   5.123 -0.1453 -0.0918 -1.2534
22470SOL     OW69416   0.832   6.830   4.060  0.1347  0.0174  0.5193
22470SOL    HW169417   0.890   6.777   4.005  0.4510 -0.3011  1.1547
22470SOL    HW269418   0.881   6.843   4.141 -0.8471 -0.5981  1.2283
22471SOL     OW69419   4.602  10.390   4.071 -0.3850 -0.0324 -0.4630
22471SOL    HW169420   4.692  10.365   4.093 -0.0272  0.4775 -1.3010
22471SOL    HW269421   4.609  10.434   3.986 -1.1572  1.6900  0.3042
22472SOL     OW69422   1.870   8.927   3.498 -0.1088 -0.0526  0.0590
22472SOL    HW169423   1.938   8.964   3.441  0.0660  0.0626  0.3418
22472SOL    HW269424   1.788   8.955   3.458 -0.0826 -1.9240 -1.5022
22473SOL     OW69425   7.069   8.576   6.071 -0.5592 -0.0392 -0.2367
22473SOL    HW169426   7.124   8.614   6.002  0.7197  1.9672  1.7525
22473SOL    HW269427   7.109   8.492   6.090  0.7507  0.5930 -0.0952
22474SOL     OW69428   8.392   4.065   5.070 -0.2572 -0.4477 -0.2535
22474SOL    HW169429   8.364   3.982   5.109 -2.0138 -0.3812 -1.2846
22474SOL    HW269430   8.438   4.040   4.990  1.1297 -0.4739  0.5125
22475SOL     OW69431   1.648   1.999   2.462 -0.0708  0.3820 -0.2065
22475SOL    HW169432   1.605   2.009   2.377  0.6558  1.3100 -0.4791
22475SOL    HW269433   1.733   1.961   2.442 -0.3062 -0.4129  0.2296
22476SOL     OW69434   4.656   7.904   9.159  0.5743 -0.0366 -0.1107
22476SOL    HW169435   4.620   7.817   9.178  0.9819 -0.1484  0.1709
22476SOL    HW269436   4.727   7.888   9.097 -0.6277  0.3104 -1.6439
22477SOL     OW69437   7.917   8.630   6.726  0.0566  0.0020  0.1193
22477SOL    HW169438   7.893   8.578   6.802  0.6625  0.7954  0.8596
22477SOL    HW269439   8.013   8.632   6.727  0.0888 -0.2941 -0.8851
22478SOL     OW69440   0.127   4.223  10.338 -0.5494 -0.3395 -0.1290
22478SOL    HW169441   0.076   4.145  10.314  2.0782 -2.5542  0.9963
22478SOL    HW269442   0.105   4.237  10.430  0.2154 -0.8172  0.1361
22479SOL     OW69443   8.493   4.043   5.443  0.0932  0.4975  0.7609
22479SOL    HW169444   8.515   3.985   5.370 -0.9806  0.4782  0.4235
22479SOL    HW269445   8.403   4.018   5.466 -0.4010  2.0226  0.5999
22480SOL     OW69446   7.185   4.582   3.401  0.0999 -0.2745 -0.7962
22480SOL    HW169447   7.199   4.526   3.324  0.4637 -1.0086 -0.2065
22480SOL    HW269448   7.090   4.587   3.409  0.0618 -1.0307 -0.7078
22481SOL     OW69449   3.158   1.225   5.235  0.2364 -0.1146 -0.3299
22481SOL    HW169450   3.121   1.241   5.148 -1.6270  1.5843  0.6871
22481SOL    HW269451   3.129   1.137   5.257 -1.0534  0.2115 -0.6276
22482SOL     OW69452   5.629   3.243   1.191 -0.0405 -0.2033 -0.0614
22482SOL    HW169453   5.596   3.330   1.214  1.2348  0.4623 -0.6948
22482SOL    HW269454   5.723   3.255   1.181  0.1058 -1.6022 -0.4657
22483SOL     OW69455   6.475   0.391  10.936 -0.0296  0.0271 -0.3388
22483SOL    HW169456   6.382   0.388  10.911 -0.3808 -2.0853  0.9441
22483SOL    HW269457   6.482   0.468  10.992 -1.4344 -0.6796  0.8916
22484SOL     OW69458   8.742   9.689   9.832  0.2385  0.2565 -0.7587
22484SOL    HW169459   8.727   9.765   9.776 -0.3716  0.3098 -0.5316
22484SOL    HW269460   8.809   9.717   9.894 -1.4929  1.3593  0.7074
22485SOL     OW69461   3.038   2.631   3.312 -0.2537 -0.3536 -0.0661
22485SOL    HW169462   2.964   2.614   3.371  0.1694 -0.3036  0.4937
22485SOL    HW269463   3.078   2.546   3.299  0.0152 -0.2714  0.2148
22486SOL     OW69464   5.843   2.761   4.749 -0.1857 -0.3937  0.1064
22486SOL    HW169465   5.893   2.683   4.775 -1.7332 -0.9562  1.6596
22486SOL    HW269466   5.855   2.822   4.822  0.3034  0.5013 -0.7030
22487SOL     OW69467   0.553  10.262   9.262 -0.9287 -0.0396  0.4244
22487SOL    HW169468   0.506  10.266   9.178 -0.4399 -0.9680  0.0936
22487SOL    HW269469   0.521  10.182   9.303  0.3006 -0.6685  0.2153
22488SOL     OW69470   5.086   8.022   4.688 -0.1224  0.1641 -0.0839
22488SOL    HW169471   5.124   8.093   4.741 -0.8680  1.5814 -1.3701
22488SOL    HW269472   5.004   8.000   4.734 -0.1766  0.5528  0.0148
22489SOL     OW69473   3.960   7.778   0.269 -0.0323  0.2741  0.0448
22489SOL    HW169474   3.917   7.698   0.301  0.1262  0.4350  0.6774
22489SOL    HW269475   3.996   7.819   0.348  2.6785 -0.6406 -0.6276
22490SOL     OW69476   5.704   9.183   5.856 -0.3510 -0.4112  0.1253
22490SOL    HW169477   5.652   9.103   5.849 -0.6876 -0.1629 -0.2439
22490SOL    HW269478   5.680   9.235   5.779 -0.4537  0.2314  0.5772
22491SOL     OW69479   6.302   2.150   3.536  0.6026 -0.5274 -0.1288
22491SOL    HW169480   6.222   2.190   3.570 -0.2363  0.7063 -3.2066
22491SOL    HW269481   6.373   2.199   3.577 -0.2349 -0.2955  1.1226
22492SOL     OW69482   7.467   9.964   8.047  0.6167  0.9453  0.2585
22492SOL    HW169483   7.463   9.989   8.140  0.6219  1.7890  0.0435
22492SOL    HW269484   7.464  10.048   8.000 -0.0099  0.5006 -0.5227
22493SOL     OW69485   6.544   7.969   3.604 -0.2286 -0.1554 -0.5420
22493SOL    HW169486   6.597   8.005   3.533  1.6882 -0.3335  0.7277
22493SOL    HW269487   6.508   7.888   3.569 -1.5359  1.0592 -2.1707
22494SOL     OW69488   8.386   1.811   5.214 -0.2184 -0.4938 -0.0252
22494SOL    HW169489   8.437   1.752   5.269  1.2792  1.0989  0.3796
22494SOL    HW269490   8.345   1.872   5.276  0.2084  0.3572 -0.5574
22495SOL     OW69491   8.897   1.169   4.114  0.0913  0.9755 -0.1307
22495SOL    HW169492   8.815   1.195   4.073 -0.4851 -1.0339 -0.3659
22495SOL    HW269493   8.939   1.111   4.050  0.5822  0.1613  0.8830
22496SOL     OW69494   4.120   9.896   6.307  0.0187  0.1800  0.5910
22496SOL    HW169495   4.028   9.912   6.328 -0.5470 -2.1965  0.2277
22496SOL    HW269496   4.166   9.974   6.339 -2.1373  1.6108  0.4062
22497SOL     OW69497  10.236   5.441   2.958  0.1116  0.6652 -0.0573
22497SOL    HW169498  10.239   5.359   3.007 -1.5049  0.7262  0.1998
22497SOL    HW269499  10.306   5.433   2.893  0.3856 -0.6437  0.3732
22498SOL     OW69500   2.652   1.646   6.286 -0.4113 -0.0360 -0.0148
22498SOL    HW169501   2.699   1.710   6.234  1.2263 -1.5447 -0.5151
22498SOL    HW269502   2.589   1.697   6.338  0.4217  1.8566 -0.7962
22499SOL     OW69503   8.352   1.115   6.493  0.0665 -0.2709  0.3101
22499SOL    HW169504   8.380   1.080   6.408 -0.4956 -0.4124  0.1833
22499SOL    HW269505   8.401   1.197   6.501 -0.7610  0.3562 -0.7103
22500SOL     OW69506   2.034   6.142   6.266  0.4007  0.0478  0.0364
22500SOL    HW169507   2.125   6.144   6.295  0.0051 -0.2922  1.3261
22500SOL    HW269508   2.005   6.233   6.272  0.6906  0.1858 -0.5413
22501SOL     OW69509   1.851   0.645   9.820 -0.6253  0.2826  0.4893
22501SOL    HW169510   1.825   0.568   9.770  0.4094  0.0447  0.2996
22501SOL    HW269511   1.915   0.690   9.765  2.5476 -1.3598  2.5310
22502SOL     OW69512   2.261   1.234   6.124 -0.7773 -0.5912 -0.4132
22502SOL    HW169513   2.222   1.168   6.068 -2.1281  0.7707 -1.1549
22502SOL    HW269514   2.345   1.255   6.083 -0.8023 -1.1059 -0.7312
22503SOL     OW69515   1.050   8.552   6.355  0.2120 -0.8633  0.0154
22503SOL    HW169516   1.021   8.627   6.303 -0.2486 -0.6378  0.5862
22503SOL    HW269517   1.135   8.578   6.390  0.6093 -1.0869 -0.7567
22504SOL     OW69518   7.370  10.398   2.869  0.0295  0.2244 -0.1484
22504SOL    HW169519   7.459  10.387   2.903  0.0339 -0.5935 -0.4037
22504SOL    HW269520   7.316  10.339   2.922 -0.2032  0.0397 -0.5789
22505SOL     OW69521   6.991   2.883   4.807  0.2817 -1.0358 -0.2441
22505SOL    HW169522   6.995   2.933   4.725 -1.0230 -1.1680 -0.4214
22505SOL    HW269523   6.963   2.795   4.779 -0.2156 -1.0671  0.3309
22506SOL     OW69524   9.005  11.061   9.580 -0.4645 -0.2182  0.3175
22506SOL    HW169525   8.967  11.057   9.492 -0.5879 -1.5340  0.4081
22506SOL    HW269526   9.033  10.971   9.598 -0.9464 -0.0874  1.8540
22507SOL     OW69527   5.760   8.711   2.970  0.2987  0.2321 -0.6020
22507SOL    HW169528   5.718   8.790   3.005  1.1132 -0.3930  2.0327
22507SOL    HW269529   5.838   8.742   2.926  0.4769  0.9530  0.1956
22508SOL     OW69530   5.634  10.452   4.270  0.0898 -0.0683  0.1920
22508SOL    HW169531   5.686  10.526   4.237  1.2524 -0.1102  1.7974
22508SOL    HW269532   5.696  10.401   4.322 -1.3008 -0.7858  1.1973
22509SOL     OW69533   9.371   8.768   7.005 -0.3642 -0.2909  0.1423
22509SOL    HW169534   9.349   8.855   7.040 -1.9726  0.8348 -3.2129
22509SOL    HW269535   9.464   8.758   7.024  0.1040  2.5947 -0.0950
22510SOL     OW69536   3.160   1.792   4.722  0.1861 -0.6041 -0.1168
22510SOL    HW169537   3.076   1.754   4.696 -1.0091  0.5801  1.7575
22510SOL    HW269538   3.203   1.724   4.773 -0.0200 -0.9317 -0.3786
22511SOL     OW69539   4.043   8.393  10.674  0.1212  0.4007 -0.0897
22511SOL    HW169540   4.024   8.392  10.768  0.5200 -1.4968  0.0014
22511SOL    HW269541   3.959   8.415  10.633 -0.2932  0.2568  0.6643
22512SOL     OW69542   6.088   4.363   9.684  0.0720  0.2387 -0.3744
22512SOL    HW169543   6.012   4.324   9.726  0.3426  0.9535  0.8347
22512SOL    HW269544   6.162   4.312   9.715  0.3802  1.3838  0.8620
22513SOL     OW69545   5.335   9.252   6.369 -0.2388 -0.1438  0.0707
22513SOL    HW169546   5.262   9.314   6.373  0.4294  0.8397 -1.7241
22513SOL    HW269547   5.295   9.166   6.383 -1.5053  0.4997  0.5224
22514SOL     OW69548   1.352  10.553   8.531  0.3004 -0.1962  0.0301
22514SOL    HW169549   1.318  10.637   8.563  0.2440  0.3347 -1.3528
22514SOL    HW269550   1.290  10.489   8.565  0.2284  0.3374  0.9460
22515SOL     OW69551  10.594   1.392   4.959  0.1514  0.4392  0.1523
22515SOL    HW169552  10.622   1.454   4.891  1.3910  2.7149  2.5478
22515SOL    HW269553  10.676   1.363   5.000 -0.3802 -2.9927 -0.9100
22516SOL     OW69554   3.780   3.360   3.119  0.2059  0.5724  0.0340
22516SOL    HW169555   3.852   3.316   3.165 -1.3035 -0.8583  1.1391
22516SOL    HW269556   3.755   3.300   3.049 -1.1743  0.0958  0.8906
22517SOL     OW69557   8.657   0.949   5.005 -0.3918 -0.0982  0.0152
22517SOL    HW169558   8.669   0.934   4.911 -0.2474 -2.1593  0.3229
22517SOL    HW269559   8.585   1.012   5.010 -0.5026 -0.0654 -1.4673
22518SOL     OW69560   5.820   2.220   7.819 -0.3508 -0.7811 -0.0828
22518SOL    HW169561   5.810   2.213   7.914  1.1325 -1.5945  0.0354
22518SOL    HW269562   5.868   2.301   7.806 -2.2422  0.3724 -0.3115
22519SOL     OW69563   7.640   6.105   6.023 -0.4673 -0.4044  0.4822
22519SOL    HW169564   7.565   6.083   5.969  0.1596 -1.1893 -0.0949
22519SOL    HW269565   7.604   6.153   6.097 -1.3436  0.6513 -0.6100
22520SOL     OW69566   9.193   2.690   4.725 -0.5256 -0.0265 -0.5232
22520SOL    HW169567   9.160   2.710   4.638  1.5018 -0.3540 -1.4261
22520SOL    HW269568   9.286   2.711   4.721  0.1841 -2.4512  0.7453
22521SOL     OW69569  10.868   0.724   9.810  0.2846 -0.0290  0.4001
22521SOL    HW169570  10.932   0.718   9.739 -0.7618  0.4478 -0.6067
22521SOL    HW269571  10.920   0.710   9.890  1.3431 -1.4303 -0.4857
22522SOL     OW69572   6.596   3.391   3.537  0.2101 -0.0716  0.1469
22522SOL    HW169573   6.642   3.366   3.616 -2.2577 -1.8720  1.1326
22522SOL    HW269574   6.512   3.347   3.542 -1.0037  1.6495 -2.3536
22523SOL     OW69575   5.845   9.970   0.681  0.0482 -0.3113  0.2567
22523SOL    HW169576   5.880  10.012   0.602  0.5293  1.2967  1.2660
22523SOL    HW269577   5.919   9.967   0.741 -0.6427 -0.2410  1.1297
22524SOL     OW69578   5.052   3.248   5.771  0.1435 -0.0705 -0.3158
22524SOL    HW169579   5.116   3.179   5.751  1.7509  1.0882  0.5810
22524SOL    HW269580   5.079   3.322   5.718  0.6212  0.9835  1.3289
22525SOL     OW69581   4.562   4.794   5.993 -0.3759 -0.7353 -0.4771
22525SOL    HW169582   4.608   4.867   5.951 -2.0184  1.2719  1.0106
22525SOL    HW269583   4.630   4.745   6.038  0.6387  0.5521 -0.5595
22526SOL     OW69584   5.821   7.691   3.444  0.1623  0.3029 -0.1338
22526SOL    HW169585   5.793   7.709   3.354  0.8861  0.3779 -0.3476
22526SOL    HW269586   5.800   7.771   3.492 -1.2293 -0.1170  0.0200
22527SOL     OW69587   6.324   1.453   7.313  0.1700  0.4083 -0.8867
22527SOL    HW169588   6.407   1.406   7.321 -0.3928 -0.4897 -0.0701
22527SOL    HW269589   6.349   1.544   7.296  1.3647  0.4423  0.8403
22528SOL     OW69590   3.283  10.965   6.210 -0.1544  0.3079  0.4004
22528SOL    HW169591   3.239  10.888   6.246  1.0300 -0.4674  0.2715
22528SOL    HW269592   3.214  11.030   6.198 -1.1703 -0.7174  0.5641
22529SOL     OW69593   2.224   1.982   3.570  0.4824 -0.2442  0.2541
22529SOL    HW169594   2.155   2.048   3.557  1.1674  0.5631  0.6466
22529SOL    HW269595   2.263   1.971   3.484 -1.0827 -1.8117 -0.3118
22530SOL     OW69596  10.980   9.863   3.790  0.0334 -0.9547  0.2801
22530SOL    HW169597  10.984   9.768   3.790  1.1666 -0.9352  2.0088
22530SOL    HW269598  10.919   9.885   3.860  1.3256 -0.3951  1.2603
22531SOL     OW69599   8.589   8.964   1.909 -0.7059  0.3688  0.2660
22531SOL    HW169600   8.660   8.969   1.845 -0.4108 -1.4570  0.4212
22531SOL    HW269601   8.529   8.899   1.873 -1.4909  0.6974  0.9490
22532SOL     OW69602  10.287   1.344   3.744 -0.4858  0.1474  0.3148
22532SOL    HW169603  10.289   1.423   3.690 -0.8109  1.0663  1.6207
22532SOL    HW269604  10.250   1.277   3.686  0.3244  0.7906 -0.9843
22533SOL     OW69605   8.236   3.239   5.442 -0.1406 -1.0833 -0.1021
22533SOL    HW169606   8.244   3.156   5.394 -0.2040 -1.3002  0.2543
22533SOL    HW269607   8.211   3.303   5.376 -0.8488 -1.5056 -0.2536
22534SOL     OW69608   8.546   0.136   0.525 -0.2281 -0.1812  0.2639
22534SOL    HW169609   8.560   0.088   0.443 -0.0763  0.3413 -0.0200
22534SOL    HW269610   8.633   0.160   0.554 -0.3910  2.6246 -1.2392
22535SOL     OW69611   3.944   9.700   2.557  0.5295  0.3068  0.0395
22535SOL    HW169612   4.007   9.749   2.611  0.8702 -0.0852  0.0001
22535SOL    HW269613   3.890   9.654   2.620 -1.1147  2.2841  0.1799
22536SOL     OW69614   0.816   2.698   9.730 -0.2273 -0.1565  0.3688
22536SOL    HW169615   0.804   2.606   9.751 -0.7686  0.2845  2.2493
22536SOL    HW269616   0.903   2.719   9.763 -0.4545  0.1990  0.7533
22537SOL     OW69617   1.759   9.803   1.944  0.1406 -0.0460 -0.0152
22537SOL    HW169618   1.837   9.812   1.999  0.6632  0.3615 -0.8121
22537SOL    HW269619   1.702   9.874   1.972 -0.1774 -0.6403  0.9152
22538SOL     OW69620   2.736   8.427   9.518  0.8411  0.3757  0.0344
22538SOL    HW169621   2.729   8.336   9.545  2.2527  0.3980  0.5744
22538SOL    HW269622   2.826   8.452   9.539  1.4710  0.9988 -2.9029
22539SOL     OW69623   6.472   6.044   9.247 -0.5615 -0.1935 -0.6579
22539SOL    HW169624   6.498   6.028   9.338 -1.5870  0.2637 -0.2642
22539SOL    HW269625   6.536   5.997   9.195  1.0482  0.9125  0.2576
22540SOL     OW69626   0.873   1.066   9.965  0.4970  0.0686  0.1769
22540SOL    HW169627   0.851   1.128  10.035  0.5056 -1.0444  1.1960
22540SOL    HW269628   0.968   1.066   9.963  0.4915  0.9922 -0.6710
22541SOL     OW69629   8.679   5.857   6.488 -0.1065  0.1070  0.4956
22541SOL    HW169630   8.633   5.782   6.526 -1.7861  1.1152  0.5573
22541SOL    HW269631   8.690   5.918   6.561  0.8879  0.1106  0.3581
22542SOL     OW69632  10.336   4.235   5.827  0.2386  0.0846  0.1150
22542SOL    HW169633  10.265   4.178   5.797 -0.4240  1.0766 -0.2602
22542SOL    HW269634  10.327   4.236   5.922  0.3321 -0.5253  0.1335
22543SOL     OW69635   8.546   0.250   7.005  0.2114 -0.1594  1.1178
22543SOL    HW169636   8.467   0.236   7.057 -0.4692  0.4969  0.2935
22543SOL    HW269637   8.598   0.171   7.017 -0.3137 -0.3603  2.1193
22544SOL     OW69638   7.351   5.305   6.745 -0.4613  0.0172  0.0871
22544SOL    HW169639   7.258   5.301   6.724 -0.9923 -0.7701  2.2271
22544SOL    HW269640   7.357   5.371   6.815  0.4370 -0.5558  0.5737
22545SOL     OW69641   6.272   0.317  10.151 -0.0139 -0.5350  0.8328
22545SOL    HW169642   6.276   0.230  10.191 -1.8846 -0.1257  2.0472
22545SOL    HW269643   6.244   0.300  10.061  0.4650 -1.2432  0.8093
22546SOL     OW69644   8.917   8.899   6.189 -0.0875 -0.0880  0.3580
22546SOL    HW169645   8.928   8.991   6.167 -1.8116 -0.0990 -0.6823
22546SOL    HW269646   8.993   8.879   6.244  2.0831  1.1126 -1.9692
22547SOL     OW69647   0.247   1.942   9.224 -0.2166 -0.8212 -0.0965
22547SOL    HW169648   0.276   1.973   9.138 -0.9877 -1.0601 -0.4595
22547SOL    HW269649   0.156   1.973   9.231  0.1339  0.0128  1.0463
22548SOL     OW69650   9.182  10.520   1.141 -0.1020 -0.2621  0.3918
22548SOL    HW169651   9.151  10.436   1.173 -0.0189 -0.3678  0.1995
22548SOL    HW269652   9.133  10.585   1.191 -1.0549 -0.4231 -0.2963
22549SOL     OW69653   0.154   3.123   4.232  0.8931  0.2842 -0.1283
22549SOL    HW169654   0.202   3.148   4.311  1.9627  0.6185 -0.8657
22549SOL    HW269655   0.205   3.160   4.160 -1.1857  1.7967 -0.8968
22550SOL     OW69656   4.323   5.324   7.229 -0.4294  0.7018 -0.0875
22550SOL    HW169657   4.410   5.291   7.203 -0.4821 -0.0003  0.5791
22550SOL    HW269658   4.340   5.384   7.301 -0.5733 -0.3741  0.8690
22551SOL     OW69659   3.102   0.758   8.074  0.5258  0.0265 -0.1375
22551SOL    HW169660   3.064   0.681   8.032 -0.6084 -0.6002  1.8764
22551SOL    HW269661   3.195   0.756   8.051  0.6932 -2.4155  0.5015
22552SOL     OW69662   5.823   4.080   5.002 -0.1114  0.5517 -0.4343
22552SOL    HW169663   5.889   4.036   5.056 -0.4436 -0.7738 -1.0762
22552SOL    HW269664   5.866   4.160   4.972  2.0890 -1.3652 -2.7392
22553SOL     OW69665   5.300   1.540   2.700  0.2818 -0.2903 -0.0153
22553SOL    HW169666   5.291   1.602   2.627  1.6812  0.5997  0.5488
22553SOL    HW269667   5.215   1.495   2.702 -0.2949  0.6496 -1.2908
22554SOL     OW69668   1.771   2.305   9.446  0.0977  0.8409 -0.6293
22554SOL    HW169669   1.866   2.308   9.433  0.1817  0.5320 -0.1170
22554SOL    HW269670   1.736   2.373   9.388  0.6391  1.0180 -0.7487
22555SOL     OW69671   0.343   5.081   1.377 -0.1977  0.2688 -0.1793
22555SOL    HW169672   0.283   5.007   1.379 -0.3232  0.3716  1.1801
22555SOL    HW269673   0.385   5.080   1.464  1.0813  0.7514 -0.7689
22556SOL     OW69674   0.797   5.425   5.143 -0.4927 -0.3077  0.0585
22556SOL    HW169675   0.825   5.339   5.111  0.0397 -0.1885  0.1881
22556SOL    HW269676   0.748   5.463   5.071  1.7461  0.4795 -1.1567
22557SOL     OW69677   3.043   2.742   8.031 -0.7060  0.4533  0.3030
22557SOL    HW169678   3.086   2.701   7.955 -0.6719 -2.0002  1.5414
22557SOL    HW269679   3.032   2.833   8.006  1.9442  0.3842 -1.5082
22558SOL     OW69680   8.379   5.315  10.651  0.3973 -0.3047 -0.0533
22558SOL    HW169681   8.327   5.288  10.576  0.0842  0.1006  0.0169
22558SOL    HW269682   8.448   5.370  10.615 -0.1871  0.4989  0.0324
22559SOL     OW69683   3.864   0.290   9.736  0.0481 -0.0099 -0.5646
22559SOL    HW169684   3.882   0.221   9.672  2.4486 -2.3296  2.2763
22559SOL    HW269685   3.944   0.343   9.737 -0.2593  0.4564 -0.0800
22560SOL     OW69686   1.441   3.905   6.923  0.1298 -0.0472  0.1289
22560SOL    HW169687   1.516   3.862   6.963  0.2174 -0.1745 -0.1679
22560SOL    HW269688   1.464   3.998   6.920  0.4854 -0.1486 -0.4142
22561SOL     OW69689   1.937   4.169   7.101  0.4665  0.0582 -0.3417
22561SOL    HW169690   1.925   4.236   7.169 -0.9673  0.0679 -0.5706
22561SOL    HW269691   1.890   4.204   7.025 -0.9603 -1.5234 -0.2369
22562SOL     OW69692   3.283   8.365   3.906 -0.1951 -0.1486  0.2046
22562SOL    HW169693   3.349   8.433   3.923  0.6001 -0.9712  0.4756
22562SOL    HW269694   3.267   8.326   3.992  0.1865 -1.0488 -0.1226
22563SOL     OW69695   8.606   7.929   8.307  0.7228  0.1229 -0.1237
22563SOL    HW169696   8.579   7.843   8.341 -0.8718 -0.0131 -1.5871
22563SOL    HW269697   8.525   7.980   8.303  1.0969  0.6590 -2.1205
22564SOL     OW69698  10.011   6.972   3.490  0.7637 -0.4652 -0.0986
22564SOL    HW169699  10.002   7.043   3.554  0.9890  1.1052 -1.7535
22564SOL    HW269700   9.957   6.901   3.527  1.9782 -0.1708  2.5042
22565SOL     OW69701   1.437   3.515   4.977  0.2430 -0.3445  0.3225
22565SOL    HW169702   1.440   3.560   4.892 -3.2646 -0.2341  0.1100
22565SOL    HW269703   1.457   3.583   5.041  0.0638  0.2971 -0.2842
22566SOL     OW69704   2.091  10.259   3.462 -0.6365 -0.3737 -0.7699
22566SOL    HW169705   2.153  10.298   3.523  0.7976 -0.0326 -2.3866
22566SOL    HW269706   2.083  10.168   3.491 -0.2603 -0.1319  0.1186
22567SOL     OW69707  10.391  10.123   3.440 -0.2055  0.0160 -0.1616
22567SOL    HW169708  10.359  10.070   3.513 -0.8706  0.5630 -0.0476
22567SOL    HW269709  10.361  10.078   3.362 -2.1874  1.0284 -0.0585
22568SOL     OW69710   6.870   0.867   5.995  0.1489 -0.0448  0.2771
22568SOL    HW169711   6.924   0.857   5.916 -1.2007 -0.4830 -0.6185
22568SOL    HW269712   6.783   0.837   5.969 -0.3996  0.0821  1.8623
22569SOL     OW69713   9.281   0.017   6.286 -0.0179  0.0927 -0.0054
22569SOL    HW169714   9.213   0.041   6.349 -0.2081  0.3138 -0.2952
22569SOL    HW269715   9.357   0.071   6.311  0.4871 -1.0910  1.1317
22570SOL     OW69716   7.086   1.658   1.924 -0.2913  0.5912  0.4634
22570SOL    HW169717   7.121   1.680   1.838 -0.5962  1.6803  0.5958
22570SOL    HW269718   7.163   1.643   1.979 -0.0391  1.7147  0.4422
22571SOL     OW69719   5.320   3.465   7.328  0.3746  0.4252  0.0766
22571SOL    HW169720   5.379   3.531   7.363 -2.7975  2.9061  1.2873
22571SOL    HW269721   5.323   3.478   7.233  2.1637  0.0051  0.0407
22572SOL     OW69722   5.513  10.921   8.659  0.0463  0.1107 -0.4357
22572SOL    HW169723   5.477  10.855   8.599 -2.1290  0.3324  0.5547
22572SOL    HW269724   5.542  10.870   8.735  0.9371  0.0539 -0.7904
22573SOL     OW69725   0.320   0.228  10.089  0.0202 -0.1997 -0.3466
22573SOL    HW169726   0.279   0.222  10.002 -0.1152  0.0432 -0.3010
22573SOL    HW269727   0.259   0.282  10.140  0.4043  0.1753 -0.2813
22574SOL     OW69728   7.833   4.358   9.186  0.1715  0.2966  0.0525
22574SOL    HW169729   7.805   4.430   9.129 -1.4207  0.1951  0.6609
22574SOL    HW269730   7.832   4.395   9.274  2.0058  0.2744  0.1169
22575SOL     OW69731   2.061   2.119   3.866 -0.3066 -0.0578  0.0042
22575SOL    HW169732   2.030   2.080   3.947 -1.3482 -0.5421 -0.6056
22575SOL    HW269733   2.076   2.044   3.808 -2.4617  0.3990 -1.2307
22576SOL     OW69734  10.914   5.942  10.761 -0.2130 -0.1596  0.0272
22576SOL    HW169735  10.931   5.863  10.709 -0.0896  0.0417 -0.2357
22576SOL    HW269736  10.840   5.984  10.719 -0.4216 -0.2497  0.3006
22577SOL     OW69737   2.240   3.103   5.632 -0.0889 -0.4266 -0.0767
22577SOL    HW169738   2.241   3.130   5.724  0.7817 -0.5938 -0.0229
22577SOL    HW269739   2.162   3.143   5.595  0.9177  1.8359  0.0876
22578SOL     OW69740   9.952   1.491   2.253  0.1256 -0.4064  0.1652
22578SOL    HW169741   9.981   1.551   2.322  0.0068  0.5028 -0.5539
22578SOL    HW269742   9.864   1.521   2.230  0.5503 -0.0549 -1.0751
22579SOL     OW69743  10.593   3.219   4.115  0.0919  0.6672 -0.1736
22579SOL    HW169744  10.509   3.182   4.089 -0.4839  0.6073  1.6101
22579SOL    HW269745  10.588   3.224   4.211  1.5567  2.0028 -0.1260
22580SOL     OW69746   6.426   0.111   7.811 -0.2352  0.0543 -0.3904
22580SOL    HW169747   6.460   0.182   7.757  0.9758  1.5926  2.1831
22580SOL    HW269748   6.430   0.034   7.755  0.8483  1.5498 -2.4935
22581SOL     OW69749   2.783  10.530   8.517 -0.1372  0.8533  0.3428
22581SOL    HW169750   2.729  10.550   8.593  0.6143  1.3788  0.7492
22581SOL    HW269751   2.724  10.541   8.442 -1.1237 -0.5399  0.8825
22582SOL     OW69752   5.522   3.682   4.335  0.4296  0.3445 -0.0194
22582SOL    HW169753   5.528   3.755   4.274  2.1154  0.5237  0.3041
22582SOL    HW269754   5.428   3.664   4.343 -0.0770  2.8208  0.3218
22583SOL     OW69755   4.771   1.065   9.743  0.1383  0.3673  0.1424
22583SOL    HW169756   4.814   1.100   9.665  1.0491 -0.2787  0.3334
22583SOL    HW269757   4.809   0.978   9.754 -0.8441 -0.0167  0.6380
22584SOL     OW69758   3.807  10.565   1.720 -0.1435 -0.1468  0.2148
22584SOL    HW169759   3.721  10.578   1.761  0.3595 -3.7964  2.9340
22584SOL    HW269760   3.795  10.489   1.662  0.3905  1.9154 -2.8395
22585SOL     OW69761  10.271   1.648   0.653  0.0710  0.4435  0.8120
22585SOL    HW169762  10.184   1.634   0.614 -0.0468 -1.5742  1.6469
22585SOL    HW269763  10.323   1.688   0.584 -0.7113 -1.1083 -0.7555
22586SOL     OW69764   4.616   3.421   1.376  0.2136  0.0487  0.3882
22586SOL    HW169765   4.592   3.448   1.287  2.1900 -1.9799 -0.8564
22586SOL    HW269766   4.693   3.473   1.397  1.5087 -1.4854 -0.3369
22587SOL     OW69767   4.742   1.033   6.259  0.4903  0.3374 -0.8425
22587SOL    HW169768   4.760   0.939   6.248 -0.8143  0.0473 -0.6368
22587SOL    HW269769   4.653   1.044   6.226 -0.1596  1.1127  1.0478
22588SOL     OW69770   1.305   6.855   1.506  0.2380 -0.2752  0.4961
22588SOL    HW169771   1.298   6.761   1.491  0.4436 -0.8246  3.1821
22588SOL    HW269772   1.238   6.894   1.450 -0.7236 -2.1408  0.2604
22589SOL     OW69773   6.958   7.616   6.425  0.1957 -0.1391  0.6029
22589SOL    HW169774   6.953   7.595   6.332  1.8217  0.5872  0.3359
22589SOL    HW269775   6.907   7.696   6.434 -0.3357 -0.4493  0.4376
22590SOL     OW69776   5.141   9.496   8.749 -0.0991 -0.6821  0.7432
22590SOL    HW169777   5.079   9.456   8.688  0.7196 -0.0580 -0.5319
22590SOL    HW269778   5.221   9.445   8.739  0.8135  0.9245 -0.5591
22591SOL     OW69779   5.540   9.828   0.341  0.2661  0.0639  0.7917
22591SOL    HW169780   5.497   9.884   0.276  1.7201  0.2404 -0.0695
22591SOL    HW269781   5.511   9.863   0.425 -0.1542  1.0721  0.2489
22592SOL     OW69782   8.109   1.501   2.995 -0.1914 -0.1199  0.2349
22592SOL    HW169783   8.021   1.480   2.965 -1.0305  0.9927  1.7262
22592SOL    HW269784   8.144   1.419   3.030 -1.1924 -0.2775  0.8886
22593SOL     OW69785  10.521   1.446  10.768 -0.1055 -0.5649  0.8157
22593SOL    HW169786  10.524   1.469  10.861  0.4794  1.0379  0.4397
22593SOL    HW269787  10.611   1.458  10.738 -0.3983 -0.5461 -0.0717
22594SOL     OW69788   2.213  11.026   0.919  0.1891 -0.1856  0.2447
22594SOL    HW169789   2.238  11.023   1.011  2.0673 -1.3392 -0.2725
22594SOL    HW269790   2.259  11.102   0.884  1.5101 -1.2113 -0.2878
22595SOL     OW69791   1.128   5.656   2.456  0.3137 -0.1429  0.2727
22595SOL    HW169792   1.106   5.570   2.420  1.2076 -0.2542 -0.0453
22595SOL    HW269793   1.107   5.649   2.549 -3.6642  0.6987 -0.3818
22596SOL     OW69794   8.118   2.580   3.076  0.2669  0.0183  0.0491
22596SOL    HW169795   8.134   2.501   3.024 -0.7730  0.1340 -0.4648
22596SOL    HW269796   8.159   2.561   3.161  1.3689 -0.4493 -0.5692
22597SOL     OW69797   3.969   2.477   2.764  0.1429  0.1926  0.2817
22597SOL    HW169798   4.056   2.517   2.770  0.2450  0.1512 -0.7302
22597SOL    HW269799   3.915   2.544   2.723 -0.3627  0.2787  1.0607
22598SOL     OW69800   5.620   1.096   2.134  0.2289  0.2114 -0.4449
22598SOL    HW169801   5.559   1.170   2.127  1.7898  1.9762  2.4997
22598SOL    HW269802   5.569   1.028   2.178 -0.1650  1.0374  0.4238
22599SOL     OW69803   0.682   7.257   5.257  0.1592  0.1570  0.2799
22599SOL    HW169804   0.587   7.244   5.261  0.1077  0.1703 -0.6767
22599SOL    HW269805   0.694   7.350   5.278 -0.0112  0.0862  0.6968
22600SOL     OW69806   8.894   9.457   4.033  0.0068 -0.1175  0.4394
22600SOL    HW169807   8.974   9.453   3.980  0.5297  0.7853  1.1418
22600SOL    HW269808   8.919   9.508   4.110 -1.1174 -0.2552  0.9058
22601SOL     OW69809   3.111   5.723   8.339 -0.6182  0.0055  0.0377
22601SOL    HW169810   3.089   5.810   8.306  2.0696  0.3926 -0.9968
22601SOL    HW269811   3.180   5.738   8.403 -0.5160 -1.3247  0.2674
22602SOL     OW69812   8.271   9.529   7.906  0.1638  0.1714  0.1097
22602SOL    HW169813   8.334   9.556   7.974  0.2797  1.0877 -0.3408
22602SOL    HW269814   8.323   9.475   7.847  0.7977  1.6516 -0.7487
22603SOL     OW69815   7.818   6.559   2.049  0.2058  0.8541  0.3078
22603SOL    HW169816   7.878   6.509   2.105 -0.1598 -1.3196 -1.0892
22603SOL    HW269817   7.869   6.578   1.970 -0.5185  0.1130 -0.3611
22604SOL     OW69818   6.539   3.106   6.079 -0.5455 -0.6169 -0.5657
22604SOL    HW169819   6.504   3.194   6.064  1.5292  0.7379  1.7133
22604SOL    HW269820   6.517   3.087   6.170  0.1887 -1.8931 -0.6394
22605SOL     OW69821   8.863   0.771   1.706 -0.2059 -0.1410 -0.3302
22605SOL    HW169822   8.778   0.768   1.749 -0.5042  1.3902 -0.7552
22605SOL    HW269823   8.895   0.681   1.710 -1.6309 -0.6517  0.2453
22606SOL     OW69824   7.878   5.836  10.491 -0.0557  0.2096 -0.1652
22606SOL    HW169825   7.797   5.805  10.451 -0.7227  1.0952  0.4808
22606SOL    HW269826   7.921   5.886  10.422  0.7603 -1.6055 -1.0401
22607SOL     OW69827   5.316   2.126   5.199 -0.0837  0.0066 -0.5733
22607SOL    HW169828   5.408   2.105   5.218  0.7483  2.1713 -1.8499
22607SOL    HW269829   5.284   2.166   5.280  0.1704 -0.5183 -0.2097
22608SOL     OW69830   5.279   9.954   1.521  0.6003 -0.2198 -0.0984
22608SOL    HW169831   5.278  10.034   1.573  1.8009 -0.0307 -0.3395
22608SOL    HW269832   5.238   9.888   1.577  0.9378  0.2216  0.6808
22609SOL     OW69833   8.120   0.961   4.219  0.0306 -0.4821  0.2387
22609SOL    HW169834   8.164   1.040   4.188 -0.4110 -1.2846 -2.7313
22609SOL    HW269835   8.027   0.978   4.205 -0.3348 -0.5070  2.2832
22610SOL     OW69836   5.302   1.228   7.949  0.4467  0.1597 -0.4405
22610SOL    HW169837   5.279   1.196   8.037  0.4345  0.3775 -0.3644
22610SOL    HW269838   5.335   1.150   7.904 -0.5326 -0.1912 -0.5849
22611SOL     OW69839   7.352   7.565   5.221 -0.2664  0.5482 -0.1348
22611SOL    HW169840   7.438   7.576   5.262 -0.3281  1.2752 -0.1801
22611SOL    HW269841   7.333   7.650   5.182 -0.5595  0.0906 -1.0121
22612SOL     OW69842   6.637   0.237   7.582  0.5514 -0.4723  0.0871
22612SOL    HW169843   6.698   0.266   7.514  0.6944  0.8748  0.7768
22612SOL    HW269844   6.659   0.144   7.595  2.4599 -0.0390  0.3025
22613SOL     OW69845   7.433   2.390   7.168 -0.0427  0.1265  0.5031
22613SOL    HW169846   7.423   2.466   7.226  0.1063  0.0998  0.5623
22613SOL    HW269847   7.410   2.423   7.081  0.9176  0.4763  0.3700
22614SOL     OW69848   6.861   4.607   8.084  0.2918 -0.1400  0.3307
22614SOL    HW169849   6.839   4.686   8.034 -0.7567  0.5953  1.8687
22614SOL    HW269850   6.839   4.630   8.174  1.5941 -1.6126  1.0574
22615SOL     OW69851   9.996   2.544   1.950  0.0868 -0.2929  0.1772
22615SOL    HW169852   9.983   2.595   1.870  0.4522 -1.9097 -0.9792
22615SOL    HW269853   9.919   2.562   2.003 -0.7211 -0.0479 -1.0384
22616SOL     OW69854   4.694   7.107  10.946  0.4111  0.2693 -0.1464
22616SOL    HW169855   4.725   7.036  11.003  1.4697  1.0116  0.2331
22616SOL    HW269856   4.676   7.179  11.006  0.0796  0.5783 -0.6142
22617SOL     OW69857   5.490   9.944   3.624  0.1074 -0.3192 -0.3042
22617SOL    HW169858   5.525  10.028   3.595  0.1923 -1.2470 -3.1305
22617SOL    HW269859   5.400   9.942   3.592 -0.3169 -0.8279  0.8442
22618SOL     OW69860   0.511   0.323   9.450  0.0091  0.2422 -0.1844
22618SOL    HW169861   0.460   0.316   9.370  1.5389  0.4450 -1.2231
22618SOL    HW269862   0.491   0.411   9.484 -0.7364  0.1089 -0.2695
22619SOL     OW69863   3.422  11.033   2.909 -0.2614 -0.1965  0.1601
22619SOL    HW169864   3.472  11.058   2.987  0.3287  0.2966 -0.3678
22619SOL    HW269865   3.397  11.117   2.870 -0.1310 -0.4426 -0.4471
22620SOL     OW69866   1.651   0.711   1.018  0.0889  0.1204 -0.0784
22620SOL    HW169867   1.623   0.724   1.108  1.5312 -0.5328  0.5011
22620SOL    HW269868   1.746   0.699   1.024  0.0183 -1.5990 -1.4801
22621SOL     OW69869   6.441   0.241   5.428  0.1880 -0.6848 -0.1539
22621SOL    HW169870   6.382   0.170   5.404  0.3503 -1.1278  0.7298
22621SOL    HW269871   6.527   0.200   5.432  0.0378 -0.9204  2.2618
22622SOL     OW69872  10.834   2.882   3.810  0.1334 -0.1913  0.5879
22622SOL    HW169873  10.851   2.932   3.730  1.0146 -2.5733 -0.7974
22622SOL    HW269874  10.741   2.897   3.828  0.2922  1.6857  0.0995
22623SOL     OW69875   9.945   3.260   6.226 -0.1399  0.1265 -0.0243
22623SOL    HW169876   9.920   3.346   6.261  0.7408  0.7328 -0.8321
22623SOL    HW269877   9.875   3.202   6.254 -0.0292  0.8006  1.7916
22624SOL     OW69878  10.678   5.187  10.520  0.0133  0.3419 -0.0609
22624SOL    HW169879  10.651   5.213  10.432 -0.7224 -1.8486 -0.5665
22624SOL    HW269880  10.597   5.153  10.561  0.6177  0.0765  0.9611
22625SOL     OW69881   2.606   7.958   2.507  0.4412 -0.4808 -0.9260
22625SOL    HW169882   2.698   7.956   2.479  0.8005  1.2594 -0.0118
22625SOL    HW269883   2.597   7.882   2.565  1.0722 -1.1017 -1.6063
22626SOL     OW69884   5.476   2.503   0.626 -0.1839  0.6986  0.1875
22626SOL    HW169885   5.453   2.410   0.626 -2.6812  1.2645 -0.5866
22626SOL    HW269886   5.513   2.518   0.713  2.2577 -1.3951 -0.3307
22627SOL     OW69887   8.170   3.393   8.098 -0.0525  0.2446  0.5704
22627SOL    HW169888   8.175   3.469   8.156 -3.6528  1.4825 -0.4674
22627SOL    HW269889   8.190   3.426   8.011  1.2520 -0.7001  0.4809
22628SOL     OW69890   3.593   2.524   6.373  0.3168  0.0525 -0.3736
22628SOL    HW169891   3.560   2.451   6.319  0.8910  0.5306 -1.3986
22628SOL    HW269892   3.667   2.486   6.420  1.2009  0.1786 -1.6030
22629SOL     OW69893   7.966   8.809   0.841 -0.2010  0.6734 -0.3787
22629SOL    HW169894   7.939   8.890   0.883 -3.3478 -0.2190 -0.4451
22629SOL    HW269895   7.964   8.829   0.747 -0.8796  0.5697 -0.3910
22630SOL     OW69896   6.099   9.327   9.158 -0.1596  0.4677 -0.6453
22630SOL    HW169897   6.014   9.318   9.114 -0.9387 -0.6906  0.9902
22630SOL    HW269898   6.104   9.250   9.215  0.7268  1.9299  1.3435
22631SOL     OW69899   9.209   6.663   6.294  0.4137  0.6461  0.0838
22631SOL    HW169900   9.238   6.601   6.228 -1.1586 -0.1808  0.1265
22631SOL    HW269901   9.144   6.718   6.249 -0.4402  0.2779  0.8357
22632SOL     OW69902   3.414   1.693  10.600  0.0414  0.0007  0.1048
22632SOL    HW169903   3.365   1.682  10.519 -0.1430  0.6044  0.1232
22632SOL    HW269904   3.505   1.679  10.576 -0.0480 -0.1711 -0.1322
22633SOL     OW69905   6.175   8.100   2.740  0.7175 -0.2525  0.3683
22633SOL    HW169906   6.239   8.171   2.736  1.0580 -0.5177 -4.2352
22633SOL    HW269907   6.228   8.020   2.742  0.5713 -0.4221 -1.2348
22634SOL     OW69908   8.824   8.421   2.381  0.1128  0.1096  0.2034
22634SOL    HW169909   8.827   8.355   2.450  1.4956 -0.2056 -0.1411
22634SOL    HW269910   8.900   8.477   2.397  0.8126 -0.3279 -1.3983
22635SOL     OW69911   4.513   2.878   6.006 -0.4269  0.1056 -0.1385
22635SOL    HW169912   4.516   2.888   6.101  2.5700  0.1777 -0.1594
22635SOL    HW269913   4.568   2.802   5.987  1.3628  1.7127 -1.9334
22636SOL     OW69914   2.616   1.754   9.678  0.0827 -0.5169 -0.3552
22636SOL    HW169915   2.585   1.791   9.595 -0.4072  0.0047  0.0427
22636SOL    HW269916   2.590   1.662   9.675  1.5853 -0.9334 -1.4941
22637SOL     OW69917   6.900   0.191   6.495 -0.1618 -0.0952  0.1909
22637SOL    HW169918   6.806   0.190   6.512 -0.4885  1.0077 -1.2832
22637SOL    HW269919   6.914   0.270   6.442  1.4179 -0.8084 -0.5308
22638SOL     OW69920   2.367   7.043  10.870  0.5186 -0.4111  0.2179
22638SOL    HW169921   2.296   7.102  10.894  0.0932 -0.5834 -0.5873
22638SOL    HW269922   2.441   7.072  10.922  0.1494  0.4503  0.2770
22639SOL     OW69923   7.051   0.165   8.868  0.4227 -0.1622  0.3173
22639SOL    HW169924   7.104   0.107   8.813  1.0023 -0.0261  0.7325
22639SOL    HW269925   7.003   0.220   8.806  0.0968 -0.8677 -0.0781
22640SOL     OW69926   8.139   0.501   1.066 -0.3454 -0.1459 -0.0624
22640SOL    HW169927   8.157   0.425   1.011 -1.5510 -0.3314 -0.2096
22640SOL    HW269928   8.086   0.559   1.012 -0.1686  0.4089  0.3480
22641SOL     OW69929   4.479   1.171   9.534 -0.1132  0.8143 -0.0793
22641SOL    HW169930   4.390   1.205   9.530 -0.9919 -1.4262 -1.5910
22641SOL    HW269931   4.483   1.124   9.617 -0.8974 -0.4007 -0.7074
22642SOL     OW69932   1.677  11.041   5.589  0.4943 -0.1338 -0.5981
22642SOL    HW169933   1.626  11.092   5.652  0.1537  1.0328 -1.7453
22642SOL    HW269934   1.633  11.058   5.505  1.9221 -0.2498 -1.4005
22643SOL     OW69935   4.883   2.075   8.087  0.2143  0.4043  0.3752
22643SOL    HW169936   4.814   2.018   8.120  1.2365 -1.3133 -0.2881
22643SOL    HW269937   4.917   2.119   8.165  0.2464 -0.9055  1.1334
22644SOL     OW69938   7.362   4.101   1.417  0.2460  1.0928 -0.1554
22644SOL    HW169939   7.270   4.088   1.437  1.0043 -0.5380  2.9578
22644SOL    HW269940   7.406   4.099   1.502  3.2287  1.1558 -1.5494
22645SOL     OW69941   2.965   9.854   7.468  0.6162 -0.3545 -0.0067
22645SOL    HW169942   2.953   9.783   7.531 -0.9246 -0.8670 -0.8371
22645SOL    HW269943   2.991   9.929   7.522 -0.0382 -0.9393  1.1678
22646SOL     OW69944   4.775   7.612   8.202 -0.0913 -0.0081  0.2503
22646SOL    HW169945   4.849   7.667   8.177 -0.1974  0.3319  0.6790
22646SOL    HW269946   4.815   7.539   8.251 -0.0897  0.4768  0.9817
22647SOL     OW69947  10.356   7.660   5.907 -0.2377  0.7485  0.1479
22647SOL    HW169948  10.355   7.608   5.827 -1.0267 -0.6091  0.9852
22647SOL    HW269949  10.264   7.683   5.922  0.2103  3.4550 -0.8151
22648SOL     OW69950   0.915   2.257   5.981  0.1954  0.1209 -0.1987
22648SOL    HW169951   0.918   2.163   5.999 -0.3384 -0.3031 -2.0960
22648SOL    HW269952   0.827   2.284   6.007  0.6218  0.2968  1.1271
22649SOL     OW69953   7.027  11.036   7.552 -0.6170 -0.2009  0.1301
22649SOL    HW169954   7.034  11.077   7.466  1.2629  0.5826  0.5918
22649SOL    HW269955   7.065  11.101   7.612  0.0002 -1.5465  1.2561
22650SOL     OW69956   4.362  11.072   4.867  0.1764  0.8667 -0.7058
22650SOL    HW169957   4.334  11.078   4.776 -0.1052  1.2668 -0.5945
22650SOL    HW269958   4.454  11.047   4.862 -0.0417  0.1212 -1.0827
22651SOL     OW69959   5.146   0.085   7.865  0.1640 -0.1334 -0.4996
22651SOL    HW169960   5.107   0.011   7.911 -0.4877  0.0399 -0.7562
22651SOL    HW269961   5.090   0.159   7.887  0.9204  0.3307 -0.0922
22652SOL     OW69962   3.841   7.004   8.712 -0.4033  0.1815 -0.1241
22652SOL    HW169963   3.850   6.957   8.629 -0.0903  1.1663 -0.6634
22652SOL    HW269964   3.924   7.050   8.723 -0.2362 -0.3676  1.0198
22653SOL     OW69965  10.973   9.599   4.765 -0.2028  0.0335  0.1387
22653SOL    HW169966  10.908   9.609   4.696  0.1436 -0.9092 -0.3352
22653SOL    HW269967  11.021   9.519   4.743  1.0198  0.6207  0.5603
22654SOL     OW69968   4.315   6.200   1.499 -0.1207  0.3173 -0.3334
22654SOL    HW169969   4.238   6.203   1.554 -0.4530 -0.2138 -0.7578
22654SOL    HW269970   4.385   6.167   1.556 -0.3618  0.1709 -0.1214
22655SOL     OW69971   9.471   5.249   7.503  0.3925  0.0721 -0.1509
22655SOL    HW169972   9.453   5.176   7.562  2.0636 -1.0491 -0.9316
22655SOL    HW269973   9.427   5.324   7.543  1.3426 -0.6474  2.4896
22656SOL     OW69974   3.872  11.067   2.996 -0.6002 -0.2869  0.7952
22656SOL    HW169975   3.865  10.972   2.989 -1.1372 -0.1962 -0.0814
22656SOL    HW269976   3.800  11.093   3.052 -0.9955 -0.3241  0.3131
22657SOL     OW69977   4.491   4.395   5.340 -0.0904  0.3573  0.2421
22657SOL    HW169978   4.432   4.471   5.345 -1.1624 -0.2961 -1.4738
22657SOL    HW269979   4.458   4.344   5.266  0.7047 -1.7079  1.2194
22658SOL     OW69980   2.155   7.592   7.023 -0.3312  0.1310 -0.6135
22658SOL    HW169981   2.158   7.542   7.104  1.2469  0.4877 -0.4319
22658SOL    HW269982   2.090   7.661   7.040 -1.0661 -0.6401 -0.1838
22659SOL     OW69983   4.250   0.588   2.602  0.0452 -0.1076  0.8601
22659SOL    HW169984   4.206   0.649   2.662  0.5410  0.7174  0.4085
22659SOL    HW269985   4.271   0.512   2.656 -0.1883  0.3092  1.5499
22660SOL     OW69986   1.644   2.121   7.857  0.0012  0.5122 -0.5292
22660SOL    HW169987   1.587   2.069   7.914  1.2027 -0.2356  0.0219
22660SOL    HW269988   1.624   2.091   7.769 -2.8224  2.5842 -0.7399
22661SOL     OW69989   7.878   2.590   5.024  0.8831  0.0233 -0.0594
22661SOL    HW169990   7.884   2.501   5.058  0.4559  1.1081  3.3006
22661SOL    HW269991   7.964   2.608   4.987  0.5831 -2.1181 -1.9871
22662SOL     OW69992   5.437  10.896   7.486  0.5548  0.3270  0.2340
22662SOL    HW169993   5.478  10.979   7.464 -0.9403  1.0609  0.0750
22662SOL    HW269994   5.410  10.905   7.577  2.3231 -0.8351  0.9075
22663SOL     OW69995   5.244   1.986   5.809  0.0558 -0.3905  0.3834
22663SOL    HW169996   5.235   1.896   5.840 -0.9184  0.1054  1.5948
22663SOL    HW269997   5.165   2.002   5.757  0.4027 -0.3367 -0.1453
22664SOL     OW69998   6.443   2.077   1.987 -0.0332  0.3964 -0.0573
22664SOL    HW169999   6.386   2.145   2.022  0.6484  0.9531 -0.0101
22664SOL    HW270000   6.427   2.077   1.893 -0.5535  0.1269  0.0260
22665SOL     OW70001   6.224  10.683   2.740  0.2690 -0.2892  0.0346
22665SOL    HW170002   6.311  10.649   2.759 -0.2315 -1.8625 -0.2948
22665SOL    HW270003   6.225  10.700   2.646  0.3447  0.0441  0.0979
22666SOL     OW70004   8.164   3.304   1.037  0.3392  0.2412  0.5204
22666SOL    HW170005   8.100   3.361   0.995  1.0688  1.3114  0.8188
22666SOL    HW270006   8.112   3.243   1.089 -0.4685  0.5106  0.0380
22667SOL     OW70007  11.076   0.642   1.186 -0.0774  0.4208  0.1925
22667SOL    HW170008  11.158   0.690   1.185  0.3178 -0.1973 -2.5199
22667SOL    HW270009  11.052   0.631   1.094 -2.6212 -0.4156  0.8616
22668SOL     OW70010  10.154   9.673   5.766 -0.2975  0.0718 -0.1403
22668SOL    HW170011  10.213   9.749   5.763 -0.0709 -0.1309 -1.0945
22668SOL    HW270012  10.077   9.700   5.716  0.1788 -0.6482 -1.2831
22669SOL     OW70013   8.981   9.995   7.651  0.1552  0.5399  0.5198
22669SOL    HW170014   9.064   9.952   7.672 -0.1067 -0.4194 -0.3003
22669SOL    HW270015   9.005  10.064   7.590  0.6431  1.9195  2.2204
22670SOL     OW70016   9.030   0.566   7.286  0.1330 -0.6896  1.3226
22670SOL    HW170017   9.095   0.632   7.262  0.4338 -1.5100 -0.2372
22670SOL    HW270018   8.947   0.612   7.282  0.2990 -0.4418 -0.1596
22671SOL     OW70019   0.919  10.230   7.002  0.9200 -0.4366 -0.5466
22671SOL    HW170020   0.978  10.289   7.049  1.4500 -0.5686 -1.0360
22671SOL    HW270021   0.924  10.148   7.051 -1.6507  0.5182  1.5958
22672SOL     OW70022   9.627   5.898   8.564  0.0748 -0.2591  0.5237
22672SOL    HW170023   9.659   5.864   8.648 -0.2970  0.3208  0.9092
22672SOL    HW270024   9.531   5.895   8.572  0.0328 -0.7454 -0.1093
22673SOL     OW70025   9.194   3.757   7.297 -0.2529  0.9951 -0.0490
22673SOL    HW170026   9.148   3.839   7.278 -1.8538 -0.0995 -1.0398
22673SOL    HW270027   9.178   3.702   7.221  1.2671 -0.0640  0.3614
22674SOL     OW70028   2.935  10.992   3.058  0.0877 -0.5318  0.2771
22674SOL    HW170029   3.024  11.024   3.075  0.3408 -1.1851  0.2138
22674SOL    HW270030   2.897  11.058   2.999  0.5984 -0.3477  0.1478
22675SOL     OW70031   0.278   3.977   7.940 -0.3452 -0.4268  0.1362
22675SOL    HW170032   0.370   3.951   7.927  0.2970  1.7881 -0.1638
22675SOL    HW270033   0.256   4.027   7.861 -1.4234  0.0896  0.7426
22676SOL     OW70034   0.683   1.039   6.945 -0.4629 -0.1770  0.0822
22676SOL    HW170035   0.675   1.036   6.849 -0.3805 -0.4318  0.0828
22676SOL    HW270036   0.734   1.118   6.962 -0.1655 -0.3248 -0.1065
22677SOL     OW70037   7.447  10.682   7.900 -0.4396  0.5458 -0.0523
22677SOL    HW170038   7.534  10.656   7.871 -0.3761  0.6784  0.0176
22677SOL    HW270039   7.443  10.776   7.884 -0.7864  0.4377 -0.5995
22678SOL     OW70040   4.700   4.578   6.318 -0.3501 -0.7463  0.3193
22678SOL    HW170041   4.726   4.631   6.242  2.5269  1.5389  2.6762
22678SOL    HW270042   4.750   4.496   6.308  1.6409  0.3660  0.6874
22679SOL     OW70043   9.762   3.650   5.124  0.0321  0.8887  0.0628
22679SOL    HW170044   9.801   3.652   5.037 -0.5042 -0.1502 -0.2203
22679SOL    HW270045   9.836   3.641   5.184  0.2879 -0.6470 -0.4362
22680SOL     OW70046   8.918   6.828   7.267 -0.2565 -0.0548  0.0171
22680SOL    HW170047   8.860   6.903   7.278  0.0305  0.1870 -0.0909
22680SOL    HW270048   8.948   6.806   7.356 -0.5327 -0.1971  0.0751
22681SOL     OW70049   6.360   9.373   6.884  0.1235 -0.0031 -0.3752
22681SOL    HW170050   6.347   9.288   6.842 -0.3163 -0.3718  0.4674
22681SOL    HW270051   6.388   9.431   6.814 -0.8166 -0.5356 -1.2127
22682SOL     OW70052   3.307   7.265   5.588 -0.5078 -0.1497  0.2478
22682SOL    HW170053   3.356   7.321   5.528  2.0573 -2.3812  0.0872
22682SOL    HW270054   3.269   7.326   5.652  1.0499  1.8432 -0.6357
22683SOL     OW70055   2.338   2.114   6.366 -0.3050  0.1212 -0.7570
22683SOL    HW170056   2.395   2.189   6.386  0.1677 -0.7935  1.6620
22683SOL    HW270057   2.374   2.078   6.285 -0.6850  2.5843 -2.1212
22684SOL     OW70058  10.430  11.008   6.608  0.0615  0.1405 -0.1631
22684SOL    HW170059  10.378  11.068   6.555 -0.8094 -0.7262 -0.3335
22684SOL    HW270060  10.505  11.059   6.637 -0.3773  1.1388 -0.7501
22685SOL     OW70061   1.706  10.797   4.560 -0.6835 -0.4101 -0.1951
22685SOL    HW170062   1.702  10.821   4.653  2.3404  1.5780 -0.4619
22685SOL    HW270063   1.689  10.879   4.514  1.8061 -0.4355 -1.2894
22686SOL     OW70064   6.123   0.525   9.860  0.6993  0.3045  0.5589
22686SOL    HW170065   6.182   0.462   9.818 -0.4759  0.0055 -0.7297
22686SOL    HW270066   6.126   0.602   9.803 -0.1767  0.2593  0.4359
22687SOL     OW70067   3.596  10.541   4.958  0.1101  0.4620 -0.1553
22687SOL    HW170068   3.502  10.527   4.971 -0.1906  1.9676 -0.5892
22687SOL    HW270069   3.622  10.470   4.898 -0.4497 -0.7655  0.9944
22688SOL     OW70070   2.680   2.693   9.136  0.1295  0.1408 -0.3669
22688SOL    HW170071   2.709   2.774   9.177 -1.1777  0.3465  0.1988
22688SOL    HW270072   2.741   2.626   9.168 -0.6559  0.3411  1.7121
22689SOL     OW70073   0.075   9.028   3.938  0.2436 -0.4390  0.1467
22689SOL    HW170074   0.118   9.068   4.014 -0.0539 -0.6043  0.4060
22689SOL    HW270075   0.061   8.937   3.964  0.1044 -0.4872 -0.0953
22690SOL     OW70076   0.301   9.891  10.637 -0.0918 -0.0227 -0.1816
22690SOL    HW170077   0.259   9.834  10.572 -0.3102 -0.2639  0.1672
22690SOL    HW270078   0.232   9.910  10.700  0.5018 -1.0211  0.7997
22691SOL     OW70079   1.983   0.809   1.917  0.2382 -0.6373  0.1716
22691SOL    HW170080   1.997   0.900   1.889  1.4833 -1.2061 -1.1556
22691SOL    HW270081   2.023   0.756   1.848 -1.7939 -2.2511  0.1380
22692SOL     OW70082   0.468   2.343   2.690  0.1293 -0.0169 -0.5161
22692SOL    HW170083   0.469   2.436   2.668  2.7943  0.0288 -0.4835
22692SOL    HW270084   0.453   2.341   2.784 -2.4255  0.2009 -0.8538
22693SOL     OW70085   4.560   4.822   2.320 -0.5267  0.4884 -0.3792
22693SOL    HW170086   4.655   4.815   2.331 -0.7097 -1.3042  0.2753
22693SOL    HW270087   4.550   4.884   2.247  1.2211 -0.9264 -1.9499
22694SOL     OW70088   7.541   2.390   4.202 -0.4557 -0.3027  0.0843
22694SOL    HW170089   7.574   2.465   4.252  1.3729  0.1321 -1.6720
22694SOL    HW270090   7.600   2.318   4.224  0.2652 -0.1512 -1.2848
22695SOL     OW70091   9.506   9.614  10.316 -0.3711  0.1134  0.1045
22695SOL    HW170092   9.500   9.598  10.410 -0.9267 -0.1255  0.0336
22695SOL    HW270093   9.450   9.546  10.277  1.5428 -1.1664 -0.5377
22696SOL     OW70094   8.178   3.939   7.147  0.1355 -0.4755 -0.0990
22696SOL    HW170095   8.257   3.990   7.160 -0.8386  1.4961 -1.4238
22696SOL    HW270096   8.112   4.003   7.118 -1.7061 -2.1705  0.1041
22697SOL     OW70097  10.846  10.411   1.531 -0.2265 -0.4667 -0.3604
22697SOL    HW170098  10.827  10.369   1.615 -2.5981  0.8992 -0.1172
22697SOL    HW270099  10.922  10.466   1.548 -0.8126 -0.0318  1.0022
22698SOL     OW70100   8.346   5.780   8.937 -0.2111  0.7354 -0.2678
22698SOL    HW170101   8.396   5.742   8.866  0.3555  1.2065 -0.1322
22698SOL    HW270102   8.332   5.871   8.910  3.4514  2.1429  1.9118
22699SOL     OW70103   2.706   6.699   7.372  0.3247  0.1947  0.1282
22699SOL    HW170104   2.773   6.721   7.437  1.2981 -0.0944 -0.7442
22699SOL    HW270105   2.755   6.664   7.298 -0.9119 -2.0167  0.2445
22700SOL     OW70106   9.052  10.767   0.819  0.2496 -0.5534  0.9204
22700SOL    HW170107   9.139  10.766   0.859  0.6023 -0.4770  0.1801
22700SOL    HW270108   9.021  10.677   0.826  0.4140 -0.5935  1.1422
22701SOL     OW70109   7.599   5.958   9.651  0.1361 -0.2670  0.2331
22701SOL    HW170110   7.656   6.002   9.714  0.2708  0.1961 -0.2051
22701SOL    HW270111   7.626   5.866   9.654  0.0819 -0.2624  0.9083
22702SOL     OW70112   4.665   3.845   9.051 -0.2655 -0.2804 -0.0955
22702SOL    HW170113   4.667   3.919   9.110 -0.7885 -0.4695  0.1670
22702SOL    HW270114   4.572   3.836   9.026 -0.1068 -0.4212 -0.6583
22703SOL     OW70115   5.894   0.548   2.762 -0.9160 -0.2586 -0.0902
22703SOL    HW170116   5.955   0.478   2.786  1.1267  1.7436  0.9583
22703SOL    HW270117   5.912   0.565   2.669 -1.3492 -1.0301 -0.3216
22704SOL     OW70118   5.202   4.568   0.372  0.3270 -0.2890 -0.4944
22704SOL    HW170119   5.231   4.658   0.387  2.7919 -0.9652 -0.8064
22704SOL    HW270120   5.134   4.576   0.305  1.3701  1.2670 -1.4303
22705SOL     OW70121   4.784  10.416   7.779 -0.7325 -0.0004 -0.4328
22705SOL    HW170122   4.876  10.388   7.777 -1.1045 -1.2986 -0.9624
22705SOL    HW270123   4.787  10.511   7.771  0.5644 -0.0272 -0.4752
22706SOL     OW70124  10.237   4.428   4.408  0.1209 -0.1738  0.3388
22706SOL    HW170125  10.170   4.449   4.473 -0.6850  2.0121 -1.0962
22706SOL    HW270126  10.318   4.465   4.443  0.2376 -1.2251  1.2269
22707SOL     OW70127   0.282   0.857   9.104 -0.0282  0.4792  0.2739
22707SOL    HW170128   0.215   0.801   9.064 -1.1591  0.5340  2.0058
22707SOL    HW270129   0.349   0.796   9.135  0.5000  0.3861 -0.9711
22708SOL     OW70130  10.595   6.923   6.798 -0.2185  0.0673 -0.1956
22708SOL    HW170131  10.581   7.013   6.767 -0.5088 -0.1014 -0.5468
22708SOL    HW270132  10.573   6.867   6.724  0.8643 -0.2717 -0.2907
22709SOL     OW70133   3.577   0.227   7.736  0.9211  0.4436 -0.0740
22709SOL    HW170134   3.671   0.229   7.717  0.9701  0.4766  0.1760
22709SOL    HW270135   3.536   0.226   7.650  1.1239  1.3392 -0.1904
22710SOL     OW70136   5.875   1.781   4.846  0.0451  0.0533  0.1425
22710SOL    HW170137   5.857   1.874   4.860  3.1371  0.9156 -0.8228
22710SOL    HW270138   5.937   1.757   4.915  0.7471 -0.7552 -0.7341
22711SOL     OW70139   0.182   5.684   6.605  0.2751 -0.1257 -0.3552
22711SOL    HW170140   0.189   5.595   6.640  1.0891  0.3284  0.6849
22711SOL    HW270141   0.095   5.714   6.632 -1.0049 -1.4128 -2.7469
22712SOL     OW70142   8.754   9.916   3.167 -0.1658 -0.3646  0.0521
22712SOL    HW170143   8.765   9.827   3.201  0.8825 -0.7724 -1.2670
22712SOL    HW270144   8.735   9.904   3.074 -4.1583  0.6654  0.5434
22713SOL     OW70145   3.276  10.493  10.168  0.0005 -0.5599  0.0725
22713SOL    HW170146   3.257  10.406  10.203 -0.3379 -1.1914 -1.6054
22713SOL    HW270147   3.337  10.478  10.096 -1.7744  0.3236 -1.7073
22714SOL     OW70148   4.590   7.716   1.265  0.1756 -0.4297 -0.0461
22714SOL    HW170149   4.684   7.733   1.263  0.0269  0.3735 -1.7530
22714SOL    HW270150   4.578   7.652   1.336  2.0498 -0.8653 -0.0925
22715SOL     OW70151  11.062   7.484   3.968 -0.5813  0.3031  0.5495
22715SOL    HW170152  11.147   7.501   4.009  1.4226 -0.3773 -2.8826
22715SOL    HW270153  11.057   7.389   3.961 -0.4866  0.3828 -1.2348
22716SOL     OW70154   4.629   9.608   7.639  0.7945  0.1350 -0.3489
22716SOL    HW170155   4.719   9.636   7.625  1.6135 -0.8895  2.3072
22716SOL    HW270156   4.635   9.518   7.669 -1.2232 -0.2793 -0.9865
22717SOL     OW70157   6.354   9.604   0.816  0.1070 -0.4680 -0.1276
22717SOL    HW170158   6.298   9.639   0.886 -0.6597 -2.0009  0.0799
22717SOL    HW270159   6.407   9.537   0.859  0.5515 -0.5351 -0.7668
22718SOL     OW70160   9.848   2.864   3.921  0.4061  0.5206 -0.2301
22718SOL    HW170161   9.906   2.931   3.885  0.5952  0.1541 -0.6137
22718SOL    HW270162   9.879   2.782   3.882  1.1674 -0.0133  1.4033
22719SOL     OW70163   8.128   1.706   8.086  0.1648 -0.1015 -0.2179
22719SOL    HW170164   8.158   1.667   8.004  3.4200  0.3229  0.6173
22719SOL    HW270165   8.196   1.769   8.109 -0.7148 -0.0526  2.7076
22720SOL     OW70166   5.472   5.651   9.735  0.4253  0.8084  0.2446
22720SOL    HW170167   5.443   5.613   9.818  0.2052  0.6003  0.0708
22720SOL    HW270168   5.529   5.723   9.761  0.9962  0.2451  0.5705
22721SOL     OW70169   5.602   6.215   4.656  0.2241  0.2050  0.3586
22721SOL    HW170170   5.609   6.309   4.641  0.2928  0.2513  0.6890
22721SOL    HW270171   5.657   6.198   4.732  1.8429 -0.4095 -0.8913
22722SOL     OW70172   7.033   1.153   8.243 -0.1161  0.0480 -0.6939
22722SOL    HW170173   7.055   1.111   8.326 -1.1498 -0.3662 -0.6174
22722SOL    HW270174   6.939   1.172   8.250 -0.1669  0.1966 -1.6874
22723SOL     OW70175   8.533  10.546   3.844  0.0063 -0.2657  0.7354
22723SOL    HW170176   8.518  10.463   3.799  0.8918 -0.4450  0.7464
22723SOL    HW270177   8.465  10.550   3.911 -1.6694  0.2426 -0.9181
22724SOL     OW70178   3.657   1.573  10.986 -0.4316  0.7630 -0.4344
22724SOL    HW170179   3.675   1.562  10.892 -0.0487  1.8536 -0.5040
22724SOL    HW270180   3.583   1.633  10.990  0.9391  2.5345 -0.0500
22725SOL     OW70181   8.556  10.683   9.710  0.0684  0.4027 -0.0140
22725SOL    HW170182   8.624  10.743   9.679 -0.2005  0.2692 -0.9050
22725SOL    HW270183   8.556  10.693   9.805 -1.0685  3.0816 -0.1818
22726SOL     OW70184   2.632   3.364   5.108  0.6591  0.3079 -0.2083
22726SOL    HW170185   2.583   3.380   5.028  0.5592  1.0849  0.0007
22726SOL    HW270186   2.678   3.281   5.092 -1.9663 -1.3299  0.1988
22727SOL     OW70187   2.204   0.169   9.162  1.0688  0.1729  0.1585
22727SOL    HW170188   2.222   0.077   9.142  1.0142  0.2629 -0.3298
22727SOL    HW270189   2.130   0.166   9.223 -0.0708 -0.0811 -1.1588
22728SOL     OW70190   7.306   1.343   7.835  0.5139  0.5330  0.3483
22728SOL    HW170191   7.253   1.383   7.766 -0.7702  1.9582  2.0955
22728SOL    HW270192   7.363   1.414   7.865  1.3396 -0.1855  0.5107
22729SOL     OW70193   3.361   6.102   5.584  0.0457 -0.3986 -0.1145
22729SOL    HW170194   3.438   6.112   5.528  2.1562 -2.0321  2.2419
22729SOL    HW270195   3.316   6.186   5.579  1.8509  0.5547 -1.7517
22730SOL     OW70196   9.397   2.895   4.685 -0.4231 -0.7584  0.4288
22730SOL    HW170197   9.334   2.964   4.707  1.0972  1.2002 -1.0226
22730SOL    HW270198   9.471   2.911   4.743  0.5198 -0.2424 -0.8805
22731SOL     OW70199   0.127   6.188   9.250  0.0859 -0.6178  0.1288
22731SOL    HW170200   0.040   6.212   9.217  0.4722  1.0043  0.2289
22731SOL    HW270201   0.110   6.116   9.311 -1.0166 -1.2854 -0.9258
22732SOL     OW70202   1.335   8.976   2.146 -0.6611 -0.4092  0.4769
22732SOL    HW170203   1.291   9.042   2.093 -1.0772  0.7549  2.1882
22732SOL    HW270204   1.279   8.899   2.139  0.1256 -0.8279 -2.0014
22733SOL     OW70205   8.660   4.250   6.741 -0.1108 -0.0696  0.0145
22733SOL    HW170206   8.639   4.338   6.710 -0.6582 -0.7472 -1.6037
22733SOL    HW270207   8.756   4.249   6.747 -0.1371  1.5767  3.0871
22734SOL     OW70208   3.625   1.092  10.662 -0.2961 -0.0652  0.4781
22734SOL    HW170209   3.553   1.069  10.720 -1.7872  0.6725 -0.9979
22734SOL    HW270210   3.591   1.163  10.608  1.0134 -0.7198 -1.2972
22735SOL     OW70211   2.718   7.983  10.777  0.0441  0.2590 -0.4589
22735SOL    HW170212   2.809   8.009  10.792  0.2775 -1.6794  2.2183
22735SOL    HW270213   2.722   7.889  10.760 -1.4356  0.1619 -0.4563
22736SOL     OW70214   2.215   0.583   6.670  0.1025  0.6605 -0.2256
22736SOL    HW170215   2.224   0.488   6.671 -3.1988  0.1300 -3.1074
22736SOL    HW270216   2.137   0.600   6.722 -0.5488  1.5416 -1.4527
22737SOL     OW70217   7.876   6.160   3.673 -0.0561 -0.7485 -0.7180
22737SOL    HW170218   7.909   6.146   3.584 -0.5883 -0.3482 -0.9832
22737SOL    HW270219   7.827   6.241   3.668 -1.5903 -1.6261 -0.4801
22738SOL     OW70220   6.416   5.666   0.522 -0.7882  0.0914 -0.3396
22738SOL    HW170221   6.459   5.632   0.443 -0.0456  2.1905 -0.9032
22738SOL    HW270222   6.350   5.727   0.489 -0.4067  1.0766  0.6382
22739SOL     OW70223   6.449   0.655   6.926  0.3469 -0.3138  0.5993
22739SOL    HW170224   6.370   0.686   6.970  1.1901  0.3456  1.6762
22739SOL    HW270225   6.513   0.641   6.996  2.0385  1.6870 -0.4293
22740SOL     OW70226   7.851   5.465   2.397  0.2122  0.3995  0.0527
22740SOL    HW170227   7.798   5.416   2.334  0.0725 -1.5014  1.5596
22740SOL    HW270228   7.816   5.554   2.394 -3.1492 -0.7412  0.9622
22741SOL     OW70229   7.115   0.930   6.863 -0.5127 -0.5638  0.1530
22741SOL    HW170230   7.133   1.021   6.887 -0.0821 -0.7478  0.5495
22741SOL    HW270231   7.059   0.896   6.933 -1.2214 -0.4170 -0.3343
22742SOL     OW70232   0.793   2.506   5.059  0.4080  0.3080 -0.2013
22742SOL    HW170233   0.700   2.526   5.072  1.2413  3.6658  1.6344
22742SOL    HW270234   0.823   2.479   5.146  1.1309 -1.1556 -0.8688
22743SOL     OW70235   5.197   0.600   0.922 -0.1414 -0.8054  0.4305
22743SOL    HW170236   5.110   0.620   0.956  0.3710  0.6464  1.0087
22743SOL    HW270237   5.182   0.562   0.836 -1.3240  0.0535  0.2381
22744SOL     OW70238   0.821   5.973   8.623  0.1975 -0.9085 -0.3930
22744SOL    HW170239   0.777   5.888   8.618  0.9111 -1.4188  1.4213
22744SOL    HW270240   0.901   5.961   8.572 -0.9078 -0.4658 -2.3486
22745SOL     OW70241   5.860  10.319   9.292 -0.0873  0.7054 -0.0632
22745SOL    HW170242   5.872  10.242   9.349 -0.8773  1.3324  0.9881
22745SOL    HW270243   5.907  10.297   9.212 -0.8212 -1.1577 -0.0352
22746SOL     OW70244   6.891   0.589   8.716 -0.0297 -0.2861  0.4606
22746SOL    HW170245   6.827   0.611   8.649  1.2215  1.1267 -0.3381
22746SOL    HW270246   6.961   0.653   8.705  1.0601 -1.1331  1.9594
22747SOL     OW70247   5.542   1.976   9.174  0.3718  0.5677  0.2193
22747SOL    HW170248   5.483   1.988   9.100  1.1904  3.1735 -0.1227
22747SOL    HW270249   5.495   2.013   9.249  0.8151  0.9147  0.3314
22748SOL     OW70250   5.280  10.417   0.030 -0.1391 -0.2675 -0.3923
22748SOL    HW170251   5.302  10.369  -0.050 -1.2274  0.8553 -1.4215
22748SOL    HW270252   5.204  10.371   0.065 -0.3000 -0.1681 -0.5996
22749SOL     OW70253   7.431   1.086   4.867  0.0392 -0.1123  0.3450
22749SOL    HW170254   7.442   1.176   4.898  0.9626 -0.1891  0.2644
22749SOL    HW270255   7.470   1.087   4.779 -0.1449 -0.5406  0.2581
22750SOL     OW70256   1.299   1.881   3.237  0.3456  0.1965 -0.4378
22750SOL    HW170257   1.271   1.970   3.218  1.2384  0.5848  0.0150
22750SOL    HW270258   1.324   1.845   3.152  2.0152  1.1081 -0.3710
22751SOL     OW70259   7.813   0.482   3.332  0.2751 -1.0223  0.4144
22751SOL    HW170260   7.842   0.538   3.260  1.5120 -0.1010  1.5827
22751SOL    HW270261   7.893   0.438   3.361  0.0645 -0.3988  2.0344
22752SOL     OW70262   7.207  10.541   9.642  0.1288  0.5989 -0.3438
22752SOL    HW170263   7.120  10.507   9.623 -0.6294  3.0192 -1.5987
22752SOL    HW270264   7.208  10.554   9.737 -2.2932  3.7600 -0.5878
22753SOL     OW70265   7.400   3.453   3.261  0.4571 -0.4205 -0.4669
22753SOL    HW170266   7.346   3.498   3.197  1.6556  1.7071 -0.0943
22753SOL    HW270267   7.421   3.368   3.220 -0.1810  0.1881 -2.1377
22754SOL     OW70268   9.000   4.645   9.568  0.0819  0.0189  0.3837
22754SOL    HW170269   8.954   4.669   9.487  1.7786  1.7144 -0.1449
22754SOL    HW270270   9.087   4.616   9.539  0.3621 -0.3646  1.5481
22755SOL     OW70271   6.879   7.924   7.509  0.1884 -0.3111 -0.2724
22755SOL    HW170272   6.968   7.898   7.485  0.7889 -0.2738  1.7973
22755SOL    HW270273   6.883   8.019   7.518 -0.1235 -0.2871 -0.3642
22756SOL     OW70274   4.065   2.625  10.867  0.0322 -0.3946 -0.5829
22756SOL    HW170275   4.072   2.660  10.956  1.4932  0.7783 -1.1009
22756SOL    HW270276   4.001   2.682  10.824  0.6843  0.2124 -0.7729
22757SOL     OW70277   4.866   9.652   3.005  0.7450 -0.3828 -0.0662
22757SOL    HW170278   4.770   9.655   3.002  0.7787  1.9217 -0.3745
22757SOL    HW270279   4.888   9.565   2.972 -1.2014 -0.4423 -1.3996
22758SOL     OW70280   1.528   0.591   8.751 -0.3335  0.9762  0.0923
22758SOL    HW170281   1.555   0.680   8.775 -1.4136  1.3064  0.1372
22758SOL    HW270282   1.432   0.593   8.756 -0.3594 -0.2853  0.4280
22759SOL     OW70283   9.655   2.073   1.201 -0.6998  0.3447 -0.4259
22759SOL    HW170284   9.744   2.038   1.191 -0.9940 -0.3337 -0.7421
22759SOL    HW270285   9.667   2.168   1.209  0.2503  0.0675  2.1441
22760SOL     OW70286   5.944   3.863  11.027  0.1440 -0.5942  0.1777
22760SOL    HW170287   6.020   3.911  10.995 -0.0758  0.8082  1.6111
22760SOL    HW270288   5.938   3.786  10.971  1.1284  0.5387 -1.5746
22761SOL     OW70289   0.093   8.905   1.827 -0.1834  0.9855  0.2119
22761SOL    HW170290   0.092   8.809   1.818 -2.0735  0.9936 -0.1141
22761SOL    HW270291   0.092   8.920   1.922 -0.6457  0.6531  0.2669
22762SOL     OW70292   5.975   9.407   8.547 -0.2570 -0.2170 -1.1351
22762SOL    HW170293   5.892   9.369   8.515 -1.2990  0.4663  0.6203
22762SOL    HW270294   6.039   9.382   8.481 -1.5350 -2.1995 -1.7230
22763SOL     OW70295   7.833   4.613   7.165 -0.0331 -0.5582  0.5837
22763SOL    HW170296   7.816   4.601   7.071 -0.9573 -0.6174  0.7510
22763SOL    HW270297   7.890   4.689   7.170  1.7719 -1.7958 -0.1689
22764SOL     OW70298   2.809   4.253   0.920 -0.1674  0.2025  0.4471
22764SOL    HW170299   2.885   4.208   0.883 -0.2243  0.1016  0.4538
22764SOL    HW270300   2.783   4.199   0.995 -0.5566 -0.0377  0.1434
22765SOL     OW70301   7.825   4.749   8.877 -0.6695 -0.2442 -0.1359
22765SOL    HW170302   7.898   4.774   8.821  0.3210 -2.2574  0.1680
22765SOL    HW270303   7.764   4.823   8.871  0.8332  0.9710 -1.3285
22766SOL     OW70304   8.315   5.451   7.389 -0.0715 -0.0821  0.5018
22766SOL    HW170305   8.308   5.432   7.295  0.0836  0.5216  0.3615
22766SOL    HW270306   8.399   5.412   7.415 -1.7789 -3.6879  1.2806
22767SOL     OW70307   6.695   8.325   8.506 -0.5363  0.1194 -0.2381
22767SOL    HW170308   6.640   8.391   8.549 -0.6856  1.7830 -2.7771
22767SOL    HW270309   6.633   8.265   8.465 -0.3966 -0.4733  0.3917
22768SOL     OW70310   1.907   3.030   6.599 -0.1150 -0.0928 -0.2951
22768SOL    HW170311   1.992   3.073   6.613 -1.2222  1.8532  0.7671
22768SOL    HW270312   1.928   2.936   6.602  1.6278  0.2580  2.7217
22769SOL     OW70313   0.076   3.254   6.303 -0.5696  0.2942 -0.5615
22769SOL    HW170314   0.046   3.181   6.357 -0.3174  1.2167  0.8721
22769SOL    HW270315  -0.004   3.290   6.265 -1.1674  1.5715  1.7379
22770SOL     OW70316   5.382   8.639   1.569  0.3894 -0.1440  0.0824
22770SOL    HW170317   5.300   8.589   1.571 -0.2111  0.8239  1.1484
22770SOL    HW270318   5.358   8.722   1.528  1.2972 -0.5395 -1.3507
22771SOL     OW70319   9.831   4.035   5.071  0.3457  0.3500  0.0434
22771SOL    HW170320   9.917   4.069   5.095  0.7154  1.3660 -2.4005
22771SOL    HW270321   9.848   3.974   4.999 -0.8154 -1.1249  0.9586
22772SOL     OW70322   6.733   8.227   0.586  0.0630 -0.2014 -0.4764
22772SOL    HW170323   6.772   8.231   0.499 -0.1851  0.0692 -0.5741
22772SOL    HW270324   6.734   8.318   0.617  2.4194 -0.5474  0.7989
22773SOL     OW70325   4.942   3.874   5.255  0.1342  0.1592  0.1783
22773SOL    HW170326   5.020   3.925   5.279  0.1388 -0.4956  1.6540
22773SOL    HW270327   4.871   3.939   5.253  0.0148  0.1917  2.6823
22774SOL     OW70328   5.145   3.552   8.280 -0.4351 -0.3584 -0.0100
22774SOL    HW170329   5.117   3.631   8.326 -0.5229  0.5744 -1.6033
22774SOL    HW270330   5.076   3.488   8.299 -1.5297  0.6372 -0.5033
22775SOL     OW70331   7.317   5.423  10.163 -0.3415  0.3207  0.4303
22775SOL    HW170332   7.350   5.366  10.232 -0.2141 -0.3074 -0.1342
22775SOL    HW270333   7.295   5.363  10.091 -0.8978  0.9150  0.0949
22776SOL     OW70334   6.476   3.369   7.416  0.5745 -0.4620 -0.1151
22776SOL    HW170335   6.470   3.280   7.451  0.8427 -0.7314 -0.7419
22776SOL    HW270336   6.502   3.357   7.324  0.2728  0.2486 -0.2979
22777SOL     OW70337   4.647   8.593  10.827 -0.1401  0.4802 -0.0574
22777SOL    HW170338   4.587   8.544  10.883  0.3965 -0.7452 -0.5276
22777SOL    HW270339   4.589   8.647  10.773 -0.8131 -0.3988 -0.2374
22778SOL     OW70340   6.462   8.933   8.378  0.5240 -0.5222 -0.1530
22778SOL    HW170341   6.555   8.950   8.362  0.4768 -0.4415 -0.3415
22778SOL    HW270342   6.419   9.017   8.360  0.5307 -0.2728  0.9082
22779SOL     OW70343   6.863  11.033   2.060 -0.1900 -0.3682 -0.5034
22779SOL    HW170344   6.830  11.075   1.980 -0.3196 -0.6324 -0.5897
22779SOL    HW270345   6.919  11.100   2.101 -1.8847  0.5783  0.3526
22780SOL     OW70346   0.588   9.197   0.103  0.4245  0.3043  0.0299
22780SOL    HW170347   0.576   9.192   0.198  0.5165 -0.0807  0.0205
22780SOL    HW270348   0.504   9.168   0.067 -0.0233  1.5563 -0.0059
22781SOL     OW70349  11.050   0.373   0.831 -0.1983  0.1293  0.6422
22781SOL    HW170350  10.962   0.358   0.796  0.2366 -0.3081 -0.3055
22781SOL    HW270351  11.105   0.308   0.786  0.8062  1.1359  0.3811
22782SOL     OW70352   2.770   0.494   5.504  0.1429  0.9427 -0.4254
22782SOL    HW170353   2.744   0.405   5.480  1.0729  0.9351 -1.5094
22782SOL    HW270354   2.746   0.502   5.596  0.4717 -0.5974 -0.1778
22783SOL     OW70355   7.819   3.922   7.998  0.2433 -0.1508  0.4190
22783SOL    HW170356   7.871   3.846   7.970 -0.4881 -0.5512  0.1246
22783SOL    HW270357   7.734   3.909   7.957  0.6775  1.8391 -1.2455
22784SOL     OW70358   1.243   0.617   4.700  0.1013 -0.2578 -0.3870
22784SOL    HW170359   1.173   0.600   4.637 -1.7321  0.3544  1.3801
22784SOL    HW270360   1.309   0.665   4.650 -0.5402 -1.1679 -2.2028
22785SOL     OW70361   4.203   1.585   8.059  0.0711  0.2831 -0.0282
22785SOL    HW170362   4.192   1.509   8.002 -1.4221  0.3566  0.1080
22785SOL    HW270363   4.282   1.567   8.109 -1.1520 -2.0518  1.2490
22786SOL     OW70364   4.736   7.799   6.170  0.4637 -0.1015  0.5846
22786SOL    HW170365   4.779   7.726   6.216 -1.4584  0.5297  3.6508
22786SOL    HW270366   4.776   7.877   6.206 -1.3567  0.4257  1.5881
22787SOL     OW70367   7.586   9.022   0.622  0.7011 -0.3514  0.0378
22787SOL    HW170368   7.515   8.982   0.673  0.0481 -2.1503 -2.1319
22787SOL    HW270369   7.640   9.067   0.688 -3.0030  2.1723  1.6765
22788SOL     OW70370   8.609   5.147   3.630  0.5666  0.8257 -0.1265
22788SOL    HW170371   8.541   5.123   3.692 -0.1708 -0.7896 -1.4698
22788SOL    HW270372   8.565   5.202   3.566  1.0399  1.5319  0.1490
22789SOL     OW70373  10.594   8.849   6.815  0.1068  0.6092 -0.1150
22789SOL    HW170374  10.636   8.897   6.888  1.1450 -1.0681  0.4437
22789SOL    HW270375  10.512   8.896   6.800 -0.4218  0.7014  2.5382
22790SOL     OW70376  10.811   9.103   1.275  0.1684  0.2082 -0.2514
22790SOL    HW170377  10.864   9.134   1.201  1.2620  1.0371  0.8389
22790SOL    HW270378  10.753   9.176   1.294  0.3462  0.2542  0.1198
22791SOL     OW70379   6.215   3.272   5.214 -0.0106  0.4871  0.1045
22791SOL    HW170380   6.177   3.352   5.178  2.7797  1.1911 -1.5133
22791SOL    HW270381   6.277   3.302   5.280 -0.5690 -0.5084  1.1311
22792SOL     OW70382   6.000   2.290   9.027 -0.1707 -0.5564  0.1836
22792SOL    HW170383   5.906   2.308   9.028  0.2365  2.1641  2.8904
22792SOL    HW270384   6.035   2.354   8.965  0.1799  0.7059  1.6447
22793SOL     OW70385   6.114   7.474  10.185  0.8543 -0.4194  0.1513
22793SOL    HW170386   6.142   7.384  10.171  0.2451 -0.6581  0.4248
22793SOL    HW270387   6.161   7.525  10.119 -0.7131 -1.2717 -1.7392
22794SOL     OW70388   0.172   9.890   7.390 -0.0124  0.6570  0.2777
22794SOL    HW170389   0.253   9.877   7.439  0.5263  0.3841 -0.6535
22794SOL    HW270390   0.199   9.941   7.313 -0.2881 -1.2297 -1.1516
22795SOL     OW70391   3.620   8.574  10.548 -0.9255 -0.1813 -0.1616
22795SOL    HW170392   3.674   8.500  10.521 -1.7941 -0.2590 -1.7870
22795SOL    HW270393   3.530   8.546  10.530 -1.2043  1.7824 -2.2827
22796SOL     OW70394   8.935   7.459   8.908 -0.3968  0.5766 -0.0663
22796SOL    HW170395   9.004   7.393   8.911 -0.6007  0.3893  1.0039
22796SOL    HW270396   8.885   7.445   8.989 -0.2654  2.2413  0.3299
22797SOL     OW70397   0.872   9.858   1.373 -0.0983  0.7324 -0.0232
22797SOL    HW170398   0.777   9.868   1.362 -0.3245 -1.0615  0.0232
22797SOL    HW270399   0.896   9.793   1.307  1.0941  1.0857  0.0506
22798SOL     OW70400   9.378   2.287  10.398  0.1440  0.4507  0.3115
22798SOL    HW170401   9.387   2.327  10.485  0.3123  1.5275 -0.1757
22798SOL    HW270402   9.345   2.199  10.415  1.9926 -0.0470  1.5788
22799SOL     OW70403   2.681   6.056   3.570  0.0850 -0.0844 -0.5298
22799SOL    HW170404   2.634   5.978   3.599 -0.7266 -0.0317 -1.6504
22799SOL    HW270405   2.769   6.045   3.605 -0.3459 -0.9288  0.3203
22800SOL     OW70406   4.535  10.031   0.463  0.3612  0.4453  0.1809
22800SOL    HW170407   4.556   9.938   0.453  1.2773  0.5594  0.8333
22800SOL    HW270408   4.441  10.037   0.446  0.1705 -0.6949  0.7382
22801SOL     OW70409   7.070   1.679   5.991 -0.0695 -0.2670  0.3635
22801SOL    HW170410   7.075   1.657   6.084 -1.1705 -0.0220  0.4935
22801SOL    HW270411   7.037   1.769   5.989  0.5406 -0.0481 -0.2515
22802SOL     OW70412   6.902   3.168   2.609  0.3651  0.5216  0.2989
22802SOL    HW170413   6.864   3.144   2.524 -0.4699  0.1359  0.7662
22802SOL    HW270414   6.995   3.180   2.591  0.3970 -0.6527 -0.4663
22803SOL     OW70415   9.626   4.971   1.467 -0.0897  0.3273  0.1348
22803SOL    HW170416   9.553   4.915   1.439  0.7545 -0.6157 -0.2303
22803SOL    HW270417   9.583   5.046   1.508 -1.2500 -1.1431  1.7734
22804SOL     OW70418   4.520   0.589   0.677 -0.6000 -0.5043 -0.1164
22804SOL    HW170419   4.530   0.684   0.676 -2.5229 -0.2635 -0.7731
22804SOL    HW270420   4.597   0.556   0.630 -1.2009  0.8912 -2.2018
22805SOL     OW70421   4.280   9.296   9.822  0.3136 -0.2372 -0.6182
22805SOL    HW170422   4.364   9.279   9.864  0.1221  1.1129  0.3859
22805SOL    HW270423   4.232   9.213   9.831  0.2897 -0.0354  1.9185
22806SOL     OW70424   0.614   6.293   2.566  0.0185 -0.6534 -0.5476
22806SOL    HW170425   0.674   6.368   2.571 -0.2932 -0.3906 -0.7131
22806SOL    HW270426   0.576   6.287   2.654  0.6832 -1.1584 -0.2827
22807SOL     OW70427   2.035   2.511   3.475  0.3277 -0.9101 -0.2595
22807SOL    HW170428   2.001   2.449   3.540  1.6613 -0.5547  0.8455
22807SOL    HW270429   2.111   2.550   3.518  1.7219 -1.1950 -2.3195
22808SOL     OW70430  10.845   3.113   6.471 -0.0899  0.5712 -0.4233
22808SOL    HW170431  10.822   3.023   6.449 -1.2421  1.3256 -2.6195
22808SOL    HW270432  10.940   3.112   6.482 -0.0707 -0.8609 -0.6253
22809SOL     OW70433   1.841   9.798   8.348  0.2422 -0.1387  0.4905
22809SOL    HW170434   1.843   9.736   8.275  1.6962  0.2343  0.1916
22809SOL    HW270435   1.927   9.791   8.388 -0.2741  0.2447  1.6988
22810SOL     OW70436   0.367   0.394   1.248  0.4424 -0.0165  0.1306
22810SOL    HW170437   0.291   0.386   1.191  0.4996  2.6918 -0.4740
22810SOL    HW270438   0.398   0.304   1.260 -0.6340 -0.8633 -2.6428
22811SOL     OW70439   4.334   4.630   0.511 -0.5732  0.8503  0.3031
22811SOL    HW170440   4.339   4.687   0.588 -2.1239  2.0675 -0.4314
22811SOL    HW270441   4.268   4.672   0.455 -1.0816 -1.1818 -0.7087
22812SOL     OW70442   6.686   4.284   1.148  0.0369 -0.2841  0.3711
22812SOL    HW170443   6.610   4.270   1.092 -0.1551  0.7697  0.3468
22812SOL    HW270444   6.696   4.379   1.152  1.1700 -0.3967  0.6285
22813SOL     OW70445   8.890  10.160   2.148 -0.0486 -0.3072 -0.0032
22813SOL    HW170446   8.939  10.104   2.210 -0.4493 -0.8690 -0.1867
22813SOL    HW270447   8.958  10.196   2.090  0.4490  0.9184  1.2687
22814SOL     OW70448   4.742  10.179   5.513 -0.2147  0.1944  0.2946
22814SOL    HW170449   4.699  10.100   5.481  1.2713  0.2355 -2.0289
22814SOL    HW270450   4.832  10.152   5.532 -0.1516  0.9615  1.1992
22815SOL     OW70451   7.499   1.328   0.874  0.1467 -0.4827 -0.1693
22815SOL    HW170452   7.411   1.334   0.911 -0.7949 -1.5012 -2.1093
22815SOL    HW270453   7.550   1.282   0.940 -1.3911 -2.0036  0.0244
22816SOL     OW70454   9.606   5.128   4.030  0.1153  0.4318 -0.1822
22816SOL    HW170455   9.681   5.132   4.089  0.4724 -0.0721 -0.5978
22816SOL    HW270456   9.532   5.105   4.086 -0.3903  3.9676  0.8278
22817SOL     OW70457   9.543   6.665   3.386  0.4083 -0.4188  0.0896
22817SOL    HW170458   9.528   6.690   3.477  0.7120  0.9819 -0.2164
22817SOL    HW270459   9.461   6.686   3.341  0.4706 -0.5144 -0.0682
22818SOL     OW70460   8.161   7.132   5.091 -0.0982  0.3569 -0.3536
22818SOL    HW170461   8.215   7.056   5.073  2.4108  1.9211 -0.0026
22818SOL    HW270462   8.139   7.168   5.005  0.7678  0.5512 -0.5041
22819SOL     OW70463   6.421   0.006   6.014 -0.5606  0.2489  0.5017
22819SOL    HW170464   6.416  -0.083   5.978 -0.9397  0.1849  0.7087
22819SOL    HW270465   6.509   0.035   5.992 -0.5061 -0.0969  0.2389
22820SOL     OW70466   6.363   4.778   6.764 -0.1690 -0.3127 -0.1043
22820SOL    HW170467   6.369   4.801   6.857  0.2285 -1.4135  0.1540
22820SOL    HW270468   6.315   4.851   6.725 -0.0194  0.3460  0.8978
22821SOL     OW70469   9.649   6.385   4.011  0.2240 -0.3001  0.3799
22821SOL    HW170470   9.570   6.382   3.957 -0.7244 -4.4071  1.6857
22821SOL    HW270471   9.699   6.308   3.985 -0.1606 -2.4085  4.9267
22822SOL     OW70472   2.370   4.120   6.558  0.2970  0.1267  0.0247
22822SOL    HW170473   2.363   4.087   6.647  1.1093  0.6271  0.2782
22822SOL    HW270474   2.280   4.143   6.534  0.1972  0.9069  1.0650
22823SOL     OW70475   8.876   6.952   1.582 -0.0649 -0.0401 -0.0715
22823SOL    HW170476   8.814   6.884   1.610  0.9639 -0.8265  0.3602
22823SOL    HW270477   8.962   6.912   1.594  0.5231  0.8337 -1.1728
22824SOL     OW70478   6.354   2.989   9.373 -0.0343  0.1185  0.4106
22824SOL    HW170479   6.445   2.958   9.371  0.3473  1.1338  1.2307
22824SOL    HW270480   6.341   3.021   9.462 -1.0581  0.4049  0.1765
22825SOL     OW70481   6.943   2.677   7.454 -0.7655  0.6388  0.0290
22825SOL    HW170482   7.038   2.693   7.455 -0.8348  1.1534 -0.6484
22825SOL    HW270483   6.929   2.610   7.521  0.1747  0.0129 -0.3841
22826SOL     OW70484   6.022   7.344   0.819  1.1842 -0.2213 -0.1437
22826SOL    HW170485   6.031   7.412   0.752 -1.2927 -1.4688 -1.8823
22826SOL    HW270486   5.946   7.370   0.870  2.2378 -0.0080  1.3916
22827SOL     OW70487   9.264   2.640   4.303 -0.1975 -0.0164  0.2202
22827SOL    HW170488   9.262   2.653   4.208 -0.5351 -0.7842  0.1111
22827SOL    HW270489   9.322   2.709   4.336  0.5519 -0.2284 -0.6200
22828SOL     OW70490   6.693   5.263  10.829  0.2500  0.2570 -0.6176
22828SOL    HW170491   6.707   5.297  10.917 -1.4949 -0.0960 -0.1835
22828SOL    HW270492   6.729   5.331  10.771 -1.2024  1.8553  0.2924
22829SOL     OW70493  10.973   4.808   0.436  0.0184  0.2244  0.2212
22829SOL    HW170494  11.052   4.773   0.478  0.2440 -0.1506 -0.4891
22829SOL    HW270495  10.917   4.835   0.508 -0.3771 -2.0796  0.8305
22830SOL     OW70496   2.155   6.076   3.928 -0.7766 -0.1403  0.3591
22830SOL    HW170497   2.182   6.151   3.982  1.8768  0.1654 -1.1904
22830SOL    HW270498   2.153   6.111   3.839  1.6749 -2.0634 -0.5645
22831SOL     OW70499   2.909  10.646   1.389  0.8061  0.6029  0.5205
22831SOL    HW170500   2.905  10.723   1.447 -2.3155 -0.6383  2.2121
22831SOL    HW270501   2.905  10.571   1.449  1.6124 -0.8575 -1.1835
22832SOL     OW70502   6.714   1.963   8.995  0.2029  0.1587 -0.4019
22832SOL    HW170503   6.695   1.935   9.085 -0.6426  1.6974 -0.0650
22832SOL    HW270504   6.768   1.893   8.959 -1.4364 -1.6929  0.5179
22833SOL     OW70505   1.174   0.662   8.307  0.2373 -0.3144  0.0295
22833SOL    HW170506   1.134   0.738   8.265  0.9011 -0.0755 -0.1783
22833SOL    HW270507   1.237   0.629   8.242  0.0972 -0.9197  0.1969
22834SOL     OW70508   2.376   0.551   5.230 -0.0502 -0.4909  0.4825
22834SOL    HW170509   2.405   0.510   5.149 -0.8414  0.7296 -0.4486
22834SOL    HW270510   2.387   0.483   5.297 -2.2873 -2.5995 -1.1358
22835SOL     OW70511   8.321   4.943   7.373 -0.0336  0.2793  0.1304
22835SOL    HW170512   8.408   4.983   7.363 -1.0159  2.9347  1.4622
22835SOL    HW270513   8.312   4.887   7.296  2.2464  1.1285 -0.8433
22836SOL     OW70514   1.189   8.940   5.267  0.1476  0.0941 -0.8584
22836SOL    HW170515   1.108   8.985   5.288 -0.3481 -0.0579 -2.3060
22836SOL    HW270516   1.243   8.949   5.345 -2.6981 -3.2897  1.7655
22837SOL     OW70517   5.059   4.253   0.256  0.0598  0.0785 -0.1552
22837SOL    HW170518   4.973   4.212   0.265 -0.6731  1.6091 -0.0118
22837SOL    HW270519   5.075   4.296   0.340  0.9280 -0.0910 -0.2179
22838SOL     OW70520   5.391   0.839   3.007  0.0640 -0.3197 -0.3865
22838SOL    HW170521   5.415   0.770   2.944  1.4393  0.1898 -0.4509
22838SOL    HW270522   5.370   0.791   3.087  1.7542 -0.8152 -0.1956
22839SOL     OW70523   3.139   4.443   4.927 -0.2935 -0.4582 -0.0698
22839SOL    HW170524   3.233   4.443   4.911 -0.3827 -0.8466 -0.5969
22839SOL    HW270525   3.113   4.534   4.913 -0.7710 -1.0700 -4.6702
22840SOL     OW70526   3.434   1.188   9.213 -0.6453 -0.0419  0.3879
22840SOL    HW170527   3.386   1.114   9.177  1.2152  0.0471 -2.5687
22840SOL    HW270528   3.524   1.174   9.186  0.0367  2.5763  1.0127
22841SOL     OW70529   7.873   3.239   3.564  0.5311 -0.2793  0.0886
22841SOL    HW170530   7.816   3.273   3.632  0.2052  0.2666 -0.4461
22841SOL    HW270531   7.949   3.206   3.611  0.3172  0.0979  0.7167
22842SOL     OW70532   8.440   2.522   0.326 -0.4405 -0.2883 -0.3550
22842SOL    HW170533   8.448   2.506   0.420  0.4309 -2.8887 -0.8020
22842SOL    HW270534   8.404   2.611   0.320 -1.7122 -0.5175  2.4246
22843SOL     OW70535   4.681   8.566   9.779  0.5894  0.1215 -0.0402
22843SOL    HW170536   4.598   8.541   9.736 -0.0044 -0.5249  1.4032
22843SOL    HW270537   4.692   8.501   9.848  1.1379  1.5426  1.2503
22844SOL     OW70538   8.013   0.269   7.825  0.0937 -0.8085 -0.2152
22844SOL    HW170539   7.925   0.239   7.849 -0.7220  2.5210  1.7470
22844SOL    HW270540   8.069   0.238   7.896 -0.7249  1.7978  1.7577
22845SOL     OW70541   2.878   4.574   4.268 -0.1704  0.4610 -0.2938
22845SOL    HW170542   2.960   4.607   4.230  0.4239 -0.3098  0.2978
22845SOL    HW270543   2.877   4.609   4.357 -0.8834  1.1156 -0.5462
22846SOL     OW70544   6.058   3.619   6.834 -0.2574  0.3504 -0.2845
22846SOL    HW170545   6.031   3.536   6.795  1.6474 -0.4562  0.0100
22846SOL    HW270546   6.143   3.637   6.795 -0.2004  1.6652  0.4038
22847SOL     OW70547   7.283  10.500   6.951 -0.0122 -0.0332 -0.1009
22847SOL    HW170548   7.222  10.526   7.019 -0.1955  0.0435 -0.2925
22847SOL    HW270549   7.319  10.582   6.917 -0.5909 -0.0236 -0.7049
22848SOL     OW70550   7.932   4.206   2.294 -0.1801 -0.6579  0.1170
22848SOL    HW170551   7.997   4.242   2.233 -1.3931 -0.4171 -1.0758
22848SOL    HW270552   7.873   4.280   2.312 -1.1577 -1.3282 -0.2562
22849SOL     OW70553   8.545   0.117  10.310 -0.2614  0.3603 -0.0190
22849SOL    HW170554   8.541   0.081  10.221 -0.9333 -0.1513  0.2105
22849SOL    HW270555   8.465   0.087  10.351  0.0588  0.5740  0.7724
22850SOL     OW70556   4.540   0.810  10.619 -0.4682  0.2553  0.0519
22850SOL    HW170557   4.450   0.780  10.636 -0.9976  2.0473  0.6280
22850SOL    HW270558   4.571   0.840  10.705 -0.0071  1.3735 -0.4906
22851SOL     OW70559   6.532   5.842   1.008 -0.5060  0.0484 -0.0189
22851SOL    HW170560   6.490   5.756   1.011  1.3803 -0.8900  1.7014
22851SOL    HW270561   6.519   5.878   1.096 -1.4620  1.6663 -0.7794
22852SOL     OW70562   5.035   2.648  10.734 -0.0686 -0.8606  0.0838
22852SOL    HW170563   4.989   2.718  10.780 -1.1832 -0.7397 -1.1499
22852SOL    HW270564   4.978   2.572  10.741 -0.9501 -0.4966 -2.1683
22853SOL     OW70565   6.064  10.194   9.133 -0.5686 -0.1909  0.0435
22853SOL    HW170566   6.078  10.234   9.047  0.3908 -0.0325  0.2575
22853SOL    HW270567   6.041  10.103   9.113  2.7503 -1.0894 -0.4150
22854SOL     OW70568   6.373   7.401  10.659  0.2534 -0.0600  0.0974
22854SOL    HW170569   6.353   7.449  10.740  0.7921  1.0382 -0.3969
22854SOL    HW270570   6.435   7.333  10.685 -1.6323 -1.4917  1.0814
22855SOL     OW70571   5.913   0.618   8.070 -0.0245 -0.0482  0.3381
22855SOL    HW170572   5.856   0.694   8.082  0.5616  0.2991  1.0027
22855SOL    HW270573   5.871   0.549   8.121 -0.3186 -0.0450  0.1022
22856SOL     OW70574   7.733   5.717   2.398 -0.0809 -0.4886  0.2787
22856SOL    HW170575   7.645   5.754   2.410 -0.5674 -1.3984 -0.3700
22856SOL    HW270576   7.774   5.774   2.333 -1.0248 -1.3477 -1.1342
22857SOL     OW70577   3.028   9.991   9.296  0.2242  0.6939  0.3573
22857SOL    HW170578   3.054  10.036   9.215 -0.7829  1.5432  0.4812
22857SOL    HW270579   2.958  10.045   9.332  0.2299 -0.0144  1.4814
22858SOL     OW70580   7.310   1.997   9.527 -0.6674 -0.4368 -0.7099
22858SOL    HW170581   7.253   1.979   9.602  0.1290 -0.1016  0.0004
22858SOL    HW270582   7.352   1.913   9.508  0.5238 -0.1494  0.4449
22859SOL     OW70583   9.072   1.560   5.766  0.0044  0.3807 -0.1727
22859SOL    HW170584   9.102   1.480   5.809  0.0104  0.4871  0.0194
22859SOL    HW270585   9.047   1.618   5.837  0.1058  0.5927 -0.3079
22860SOL     OW70586   1.094   2.031   6.629 -0.4979  0.5659 -0.0977
22860SOL    HW170587   1.022   2.085   6.597 -0.1518  2.1130  1.5722
22860SOL    HW270588   1.059   1.942   6.629 -2.4063  1.2518  0.5701
22861SOL     OW70589   1.579   3.218   5.815 -0.9668  0.0785  0.2634
22861SOL    HW170590   1.529   3.298   5.828 -2.2600 -0.7009  0.1969
22861SOL    HW270591   1.621   3.229   5.730 -0.5342  0.9907  0.5902
22862SOL     OW70592   9.167   5.104   5.283 -0.1498 -0.0065 -0.4140
22862SOL    HW170593   9.254   5.106   5.322 -1.0277  1.8707  1.7460
22862SOL    HW270594   9.172   5.166   5.210  0.4597 -0.3961 -0.7136
22863SOL     OW70595   4.251   1.439   5.261 -0.7729  0.6200  0.3117
22863SOL    HW170596   4.291   1.354   5.278  1.3449  0.9971 -2.2886
22863SOL    HW270597   4.177   1.420   5.203 -1.2170  0.4556  0.9146
22864SOL     OW70598   9.141  10.154   9.037  0.2514  0.6361 -0.2194
22864SOL    HW170599   9.074  10.129   8.974  0.6822 -0.3059 -0.3222
22864SOL    HW270600   9.154  10.248   9.023  1.8803  0.1097 -3.0814
22865SOL     OW70601   3.845   3.127   0.131 -0.2142  0.3190  0.6787
22865SOL    HW170602   3.881   3.180   0.061 -0.5557  0.6068  0.7160
22865SOL    HW270603   3.806   3.190   0.192 -1.8875 -0.0059  0.0198
22866SOL     OW70604   0.611   2.202   3.632  0.5384 -0.0898  0.1575
22866SOL    HW170605   0.683   2.140   3.619 -1.3445 -2.5630  0.6404
22866SOL    HW270606   0.573   2.214   3.546  0.6005 -0.0089  0.1414
22867SOL     OW70607   6.608   1.697   8.157  0.1946  0.3220  0.1437
22867SOL    HW170608   6.691   1.671   8.197  1.3676  2.1311 -0.9510
22867SOL    HW270609   6.576   1.768   8.211  0.4751  1.0539 -0.6270
22868SOL     OW70610   6.208   9.537   9.002  0.5369  0.7069 -0.5320
22868SOL    HW170611   6.239   9.611   9.054 -0.0109  0.8761 -0.4453
22868SOL    HW270612   6.133   9.502   9.050  0.9984 -0.1219 -0.3987
22869SOL     OW70613   9.622   2.363   3.374  0.4084 -0.4508  0.2143
22869SOL    HW170614   9.584   2.285   3.334 -0.0970  0.3970 -1.0492
22869SOL    HW270615   9.550   2.426   3.376  1.3067  0.6514 -0.7104
22870SOL     OW70616   5.699   3.703   6.557 -0.2632  0.1467 -0.2608
22870SOL    HW170617   5.788   3.721   6.586 -0.4249  1.3254 -0.4426
22870SOL    HW270618   5.681   3.772   6.494 -1.2078 -0.2609 -0.4466
22871SOL     OW70619   3.469   3.010   5.995 -0.4071 -0.1570 -0.8762
22871SOL    HW170620   3.396   2.976   6.047  0.8697 -1.1641  0.3533
22871SOL    HW270621   3.545   3.002   6.053  0.6814  0.9140 -2.0897
22872SOL     OW70622   0.915  10.348   9.852  0.3516  0.3360 -0.0369
22872SOL    HW170623   1.001  10.318   9.880  1.1859  0.9953 -1.7214
22872SOL    HW270624   0.934  10.415   9.786 -1.3375 -2.1435 -3.3637
22873SOL     OW70625   6.344   3.166   8.705  0.1859  0.2945  0.2383
22873SOL    HW170626   6.307   3.096   8.759  2.1052  0.8091  2.3754
22873SOL    HW270627   6.388   3.119   8.634 -0.3552 -0.5589  0.4477
22874SOL     OW70628  10.872  10.785   6.115  0.1734  0.0170 -0.1020
22874SOL    HW170629  10.821  10.863   6.092  1.3917  0.3876 -1.7570
22874SOL    HW270630  10.863  10.728   6.038  0.0468 -1.0849  0.7130
22875SOL     OW70631   0.646  10.170   2.342 -0.3729 -0.2359 -0.2721
22875SOL    HW170632   0.609  10.081   2.344  1.0765 -0.8953 -1.3928
22875SOL    HW270633   0.738  10.159   2.366 -0.2562  1.0191 -0.0692
22876SOL     OW70634   5.199   2.679  10.467 -0.0777 -0.0871  0.0461
22876SOL    HW170635   5.133   2.613  10.447  0.1217  0.0431 -1.1243
22876SOL    HW270636   5.151   2.749  10.510 -1.5528  1.6912 -3.9443
22877SOL     OW70637   6.730  10.232   6.699 -0.6294  0.3423  0.3743
22877SOL    HW170638   6.741  10.212   6.792  0.8436  0.3268  0.2267
22877SOL    HW270639   6.818  10.257   6.670 -0.6040 -1.6455 -1.4922
22878SOL     OW70640   2.111  10.894   7.120  0.7561  1.2813 -0.0346
22878SOL    HW170641   2.187  10.903   7.062  0.6950 -2.8146 -1.0406
22878SOL    HW270642   2.084  10.803   7.110 -1.5641  1.3574  3.7219
22879SOL     OW70643   9.850   2.863   3.040  0.0187  0.5936  0.1243
22879SOL    HW170644   9.829   2.914   3.117  0.0914  0.0217  0.5326
22879SOL    HW270645   9.804   2.906   2.968 -4.3405 -1.6821  1.2060
22880SOL     OW70646   8.851   2.656   9.296 -0.0423 -0.6511  0.2220
22880SOL    HW170647   8.913   2.613   9.238 -0.1512 -0.4736 -0.0255
22880SOL    HW270648   8.774   2.672   9.242 -0.1720 -0.5538  0.4347
22881SOL     OW70649   9.305   4.106   9.795 -0.1746  0.4711 -0.5901
22881SOL    HW170650   9.214   4.100   9.825  0.1951 -2.4983  0.2585
22881SOL    HW270651   9.299   4.094   9.700 -0.7018  1.1815 -0.6605
22882SOL     OW70652   8.207   9.089   0.454 -0.2018  0.6434 -0.1594
22882SOL    HW170653   8.128   9.129   0.489 -0.8097  0.7293 -1.5519
22882SOL    HW270654   8.254   9.162   0.413  0.6359  0.6005  0.6842
22883SOL     OW70655   7.219  10.988   8.272 -0.0202  0.2987 -0.1568
22883SOL    HW170656   7.309  11.017   8.286 -0.6033  2.8716 -1.2643
22883SOL    HW270657   7.193  10.950   8.356  3.0018 -3.5195 -0.6641
22884SOL     OW70658   5.262   2.793  10.228  0.4635 -0.2068  0.0588
22884SOL    HW170659   5.352   2.785  10.262  0.0882  2.7663  2.0872
22884SOL    HW270660   5.207   2.761  10.299 -0.1553  0.4201 -0.1314
22885SOL     OW70661   8.563   0.416   4.264 -0.3289 -0.0132 -0.7693
22885SOL    HW170662   8.636   0.455   4.312  0.2931 -0.4526 -1.3434
22885SOL    HW270663   8.563   0.324   4.291 -1.1904  0.1475 -0.1520
22886SOL     OW70664  10.400   0.396   0.508 -0.3332 -0.2412 -0.9505
22886SOL    HW170665  10.409   0.354   0.593 -0.9410  1.2194 -0.1161
22886SOL    HW270666  10.432   0.332   0.445 -0.8693 -1.7692  0.2795
22887SOL     OW70667   6.865   6.490   8.728  0.3991  0.9802 -0.3704
22887SOL    HW170668   6.943   6.518   8.680 -0.9537  0.5181 -3.0681
22887SOL    HW270669   6.793   6.540   8.688 -0.9444 -0.0724  0.6143
22888SOL     OW70670   5.569   5.378   7.925 -0.0444  0.2425 -0.0821
22888SOL    HW170671   5.541   5.287   7.918  0.4602  0.0460  0.3886
22888SOL    HW270672   5.615   5.396   7.842 -0.2902  0.1274 -0.2453
22889SOL     OW70673  10.339   7.491   7.225 -0.3011  0.3591 -0.1892
22889SOL    HW170674  10.301   7.525   7.144  1.7995  2.8653 -0.2381
22889SOL    HW270675  10.432   7.509   7.218  0.1845 -0.7969  2.1413
22890SOL     OW70676   5.578   8.712   9.474  0.2921 -0.1571  0.4068
22890SOL    HW170677   5.529   8.763   9.538  1.2653  1.3853 -0.0333
22890SOL    HW270678   5.536   8.733   9.390  1.3534  0.7977  0.0873
22891SOL     OW70679   8.718   1.601   9.362 -0.1456  0.4235  0.1025
22891SOL    HW170680   8.754   1.687   9.342  0.3287  0.1921 -0.0881
22891SOL    HW270681   8.624   1.615   9.374 -0.0749  0.9565  0.0366
22892SOL     OW70682   8.741   5.064   9.798 -0.1498 -0.1615  0.1989
22892SOL    HW170683   8.771   5.117   9.872  0.9899 -0.0500 -0.3207
22892SOL    HW270684   8.820   5.022   9.765 -0.4899  0.3733 -1.4085
22893SOL     OW70685   5.642   5.052   9.406 -0.2673 -0.2042  0.6482
22893SOL    HW170686   5.579   5.107   9.359 -0.3768 -0.2603  0.7278
22893SOL    HW270687   5.690   5.113   9.462  1.8747  0.3568 -1.6278
22894SOL     OW70688   3.067   6.334   1.782 -0.3680 -0.6601  0.4518
22894SOL    HW170689   3.003   6.305   1.847 -1.6558 -3.6802 -1.9237
22894SOL    HW270690   3.019   6.334   1.699  1.9291  0.0928 -0.9723
22895SOL     OW70691   0.655   6.555   3.319 -0.5668 -0.0051  0.0141
22895SOL    HW170692   0.649   6.516   3.232 -0.6170  0.6910 -0.3015
22895SOL    HW270693   0.748   6.571   3.333 -0.4503 -1.0217  0.5070
22896SOL     OW70694   2.760   7.316  10.152  0.1087 -0.0487 -0.1177
22896SOL    HW170695   2.691   7.320  10.219 -0.9376 -0.5346 -1.1370
22896SOL    HW270696   2.723   7.264  10.082  1.4091 -0.0406 -0.8482
22897SOL     OW70697   0.200  10.932   4.245 -0.4521  0.4391  0.1420
22897SOL    HW170698   0.235  10.957   4.160  3.4375  0.6363  1.5671
22897SOL    HW270699   0.152  10.851   4.229  0.9889 -0.0432 -2.1273
22898SOL     OW70700   7.938   1.712  11.060  0.0038 -0.3816  0.0004
22898SOL    HW170701   7.999   1.757  11.002  0.5441  1.0500  1.6158
22898SOL    HW270702   7.859   1.765  11.058 -0.2205 -0.7103  0.0415
22899SOL     OW70703   0.147   5.076   5.419  0.1615 -0.0050 -0.3411
22899SOL    HW170704   0.202   4.998   5.430 -0.5673 -0.6158 -0.8676
22899SOL    HW270705   0.184   5.120   5.342 -0.7051 -0.9984 -1.3749
22900SOL     OW70706   8.542   8.981   8.673  0.0243  0.1675 -0.8067
22900SOL    HW170707   8.515   8.957   8.584  2.2147 -0.1919 -1.4312
22900SOL    HW270708   8.624   8.934   8.687  0.1627  0.8835  1.0978
22901SOL     OW70709   6.252   7.048   9.495  0.5913 -0.3263  0.3786
22901SOL    HW170710   6.310   7.036   9.420  0.0354  1.7158 -0.4452
22901SOL    HW270711   6.226   7.140   9.490 -1.5881 -0.8298  1.5301
22902SOL     OW70712   7.712   3.936   0.492 -0.1484  0.0011  0.0472
22902SOL    HW170713   7.770   4.000   0.534  0.1504 -1.1270  1.4223
22902SOL    HW270714   7.629   3.944   0.539  0.1414 -1.1746  0.7976
22903SOL     OW70715   9.283   0.150   7.219 -0.1315  0.6811 -0.4522
22903SOL    HW170716   9.285   0.241   7.249 -1.2645  0.0376  1.8019
22903SOL    HW270717   9.255   0.156   7.127 -0.0547  2.5952 -0.3959
22904SOL     OW70718  10.371   8.294   4.713  0.0862  0.0344  0.0202
22904SOL    HW170719  10.445   8.299   4.654 -0.0372  0.4584 -0.1079
22904SOL    HW270720  10.356   8.385   4.740  0.7684 -0.2466  1.4910
22905SOL     OW70721   9.694  11.098   5.977 -0.0973  0.0425 -0.3893
22905SOL    HW170722   9.646  11.056   6.048 -1.5545  0.7595 -0.9060
22905SOL    HW270723   9.627  11.147   5.928  1.0617  0.5579 -1.5289
22906SOL     OW70724   2.808   4.595  11.076 -0.4629  0.3321 -0.0622
22906SOL    HW170725   2.811   4.641  10.992 -0.4202 -0.5913 -0.5790
22906SOL    HW270726   2.889   4.621  11.121  1.0813 -1.5379 -1.6019
22907SOL     OW70727   7.648   5.758   5.726  0.4760  0.6740 -0.6453
22907SOL    HW170728   7.742   5.778   5.723  0.5273  0.3684 -1.2417
22907SOL    HW270729   7.641   5.688   5.791  0.7512  0.2373 -1.0808
22908SOL     OW70730   1.964  10.464   1.113 -0.4967  0.5250  0.1591
22908SOL    HW170731   1.960  10.455   1.018 -0.2137  0.5562  0.1417
22908SOL    HW270732   1.884  10.510   1.137  0.0828  1.7729 -0.2259
22909SOL     OW70733   7.179   0.526   6.962 -0.3492  0.0453 -0.4215
22909SOL    HW170734   7.226   0.553   7.041 -0.3539 -0.8884 -0.0947
22909SOL    HW270735   7.213   0.583   6.893  2.1662 -1.3761 -0.4470
22910SOL     OW70736   5.653   9.343  10.647 -0.3213  0.2951  0.2439
22910SOL    HW170737   5.619   9.430  10.666  0.5793  0.8378 -0.5431
22910SOL    HW270738   5.631   9.328  10.555  0.0207 -0.0840  0.2190
22911SOL     OW70739   6.936   3.524   8.326 -0.3970 -0.4692 -0.3807
22911SOL    HW170740   6.847   3.555   8.309 -0.4466 -1.0598 -1.2867
22911SOL    HW270741   6.938   3.506   8.420 -0.5097  1.7734  0.1061
22912SOL     OW70742   8.966  10.802  10.627 -0.5461  0.3006  0.3224
22912SOL    HW170743   8.959  10.783  10.720 -1.0810  1.0040  0.4340
22912SOL    HW270744   8.876  10.801  10.595 -0.2248 -2.9623 -0.8573
22913SOL     OW70745   2.955   0.267  10.036 -0.2401  0.0797 -0.3069
22913SOL    HW170746   2.888   0.289   9.971  0.4303  0.4640 -0.8851
22913SOL    HW270747   2.907   0.263  10.119 -0.6937  2.2708 -0.3919
22914SOL     OW70748   4.037   0.317   4.764 -0.0647 -0.5319  0.4432
22914SOL    HW170749   3.969   0.375   4.730  0.1624 -1.0847 -1.0163
22914SOL    HW270750   4.022   0.314   4.858 -2.0578 -0.6439  0.1488
22915SOL     OW70751  10.705   3.252   4.595  0.0166 -0.4299  0.0433
22915SOL    HW170752  10.799   3.272   4.598 -0.0175 -0.3398  1.1626
22915SOL    HW270753  10.687   3.212   4.680 -1.3077  1.2589  0.6214
22916SOL     OW70754   6.378   0.698   9.959  0.6368  0.3085  0.1991
22916SOL    HW170755   6.447   0.672  10.019 -0.7282 -0.3616  1.5509
22916SOL    HW270756   6.366   0.622   9.902  1.2492  0.5639 -0.2760
22917SOL     OW70757  10.582  11.055   3.208 -0.2098 -0.1455  0.6810
22917SOL    HW170758  10.516  11.113   3.169  0.1080 -2.1628 -3.3564
22917SOL    HW270759  10.665  11.101   3.193 -0.0285 -1.1286 -1.8999
22918SOL     OW70760   2.436   0.626   7.204 -0.0964 -0.0458  0.1971
22918SOL    HW170761   2.443   0.703   7.260 -0.6272  0.4640 -0.4230
22918SOL    HW270762   2.437   0.552   7.265 -1.3937  0.5237  0.9361
22919SOL     OW70763   3.205   1.414   7.835 -0.0008 -0.1543  0.3078
22919SOL    HW170764   3.229   1.451   7.750 -0.1717 -2.3281 -0.7464
22919SOL    HW270765   3.113   1.437   7.846  0.0395  0.1893 -0.0583
22920SOL     OW70766   5.723   5.731   8.212 -0.2928 -0.2151 -0.7787
22920SOL    HW170767   5.774   5.650   8.208  1.2101  0.6270  0.0730
22920SOL    HW270768   5.650   5.717   8.152  0.2050 -1.9987 -1.0231
22921SOL     OW70769   7.520   1.421   3.763  0.2702  0.1184  0.5756
22921SOL    HW170770   7.461   1.394   3.693 -0.6712  0.6755  1.1362
22921SOL    HW270771   7.605   1.387   3.737 -0.0909  0.1990 -0.7687
22922SOL     OW70772   8.069   8.341   9.680  0.8278  0.2341  0.3084
22922SOL    HW170773   8.143   8.376   9.731  2.0000  0.5593 -1.5173
22922SOL    HW270774   7.998   8.333   9.744  2.1083  0.9327  1.9096
22923SOL     OW70775   7.804   4.385   3.069  0.1641  0.4002  0.0072
22923SOL    HW170776   7.877   4.446   3.072  2.1800 -1.8934  0.7646
22923SOL    HW270777   7.771   4.392   2.979  1.8690  0.9043 -0.6271
22924SOL     OW70778   4.574   8.916   7.407 -0.2588  0.3324 -0.2280
22924SOL    HW170779   4.492   8.911   7.357  0.5574 -1.4854 -1.5300
22924SOL    HW270780   4.583   8.829   7.447  0.9836  0.5290 -0.0200
22925SOL     OW70781   6.585   8.332  10.628 -0.2415 -0.5108 -0.1376
22925SOL    HW170782   6.662   8.361  10.579 -0.4917  1.8738  0.7802
22925SOL    HW270783   6.569   8.243  10.596  1.0921  0.0211 -2.5348
22926SOL     OW70784   9.061   8.523   7.072  0.6726  0.2145 -0.0428
22926SOL    HW170785   9.124   8.454   7.051  0.9302 -0.1425  1.7600
22926SOL    HW270786   8.977   8.477   7.080  0.5822  0.3470 -0.2048
22927SOL     OW70787   7.149   7.703   9.410  0.3437  0.2778 -0.2076
22927SOL    HW170788   7.172   7.695   9.502  1.4963 -1.0892 -0.5801
22927SOL    HW270789   7.068   7.755   9.409  0.1304  0.0119  1.5768
22928SOL     OW70790   0.597   7.038   8.959  0.3236 -0.7069 -0.2718
22928SOL    HW170791   0.608   7.133   8.953 -2.1326 -0.4390 -2.4010
22928SOL    HW270792   0.523   7.026   9.019  0.1406 -1.2145 -0.5884
22929SOL     OW70793   6.001   4.286   4.907  0.2260 -0.2801 -0.0203
22929SOL    HW170794   6.065   4.271   4.838 -0.0419 -0.5118 -0.2232
22929SOL    HW270795   6.050   4.274   4.989  0.2002 -1.5488 -0.1759
22930SOL     OW70796   4.275   2.844   1.791  0.1485  0.0800 -0.0419
22930SOL    HW170797   4.183   2.871   1.801  0.0612 -0.2965  0.1889
22930SOL    HW270798   4.282   2.816   1.700  0.1727  0.6171 -0.2113
22931SOL     OW70799   3.087   2.240   2.477 -0.3250 -0.0616 -0.4902
22931SOL    HW170800   3.097   2.145   2.473  0.5288 -0.0345  0.6832
22931SOL    HW270801   3.174   2.273   2.500 -0.5109  1.0491 -1.2546
22932SOL     OW70802   7.587   3.045   9.432 -0.4750 -0.3588  0.4395
22932SOL    HW170803   7.567   2.958   9.395 -0.2746 -1.3519  2.5005
22932SOL    HW270804   7.680   3.057   9.417 -0.6293 -0.2145 -0.4150
22933SOL     OW70805  10.701   8.033   2.847 -0.0728  0.1925 -0.0824
22933SOL    HW170806  10.607   8.033   2.866  0.0701 -0.2296  0.6402
22933SOL    HW270807  10.708   8.081   2.764 -1.0239 -0.5514 -0.6239
22934SOL     OW70808   3.135  10.003   9.539 -0.0860 -0.1551  0.5248
22934SOL    HW170809   3.095   9.976   9.457 -1.0295  1.9480  0.2219
22934SOL    HW270810   3.075   9.973   9.607 -0.8213  0.6142  0.2330
22935SOL     OW70811   9.410   2.817   0.943 -0.2300  0.3739 -0.4072
22935SOL    HW170812   9.327   2.796   0.984 -0.1049  0.6079 -0.0286
22935SOL    HW270813   9.475   2.803   1.012  0.4197 -2.7358 -1.4986
22936SOL     OW70814   0.709   9.359   6.729 -0.1905  0.3835 -1.1676
22936SOL    HW170815   0.633   9.303   6.708 -0.0532 -0.0946 -0.4107
22936SOL    HW270816   0.671   9.434   6.774 -0.0761 -0.7654  0.9825
22937SOL     OW70817   7.865   6.470   3.325 -0.0659  0.5048 -0.6220
22937SOL    HW170818   7.920   6.534   3.370  2.0996 -1.6888  0.0934
22937SOL    HW270819   7.846   6.510   3.240  0.4612  2.4088  0.1070
22938SOL     OW70820   7.085   1.120   6.006 -0.1713 -0.7494  0.2246
22938SOL    HW170821   7.005   1.154   5.968 -0.1051 -0.9118 -0.0581
22938SOL    HW270822   7.072   1.129   6.101 -0.2522 -0.1574  0.1654
22939SOL     OW70823   4.522   2.242   2.425 -0.0033  0.0706  0.6228
22939SOL    HW170824   4.507   2.256   2.518  3.5873  0.3246  1.3043
22939SOL    HW270825   4.616   2.227   2.417 -0.3228 -1.2088 -2.8461
22940SOL     OW70826   4.402   2.140   8.862  0.3965  0.1837 -0.6486
22940SOL    HW170827   4.331   2.094   8.907  0.5399  0.8923  0.3446
22940SOL    HW270828   4.454   2.070   8.821  0.2182 -0.4868  0.2356
22941SOL     OW70829   9.310   1.418   0.740 -0.0828 -0.2116  0.0678
22941SOL    HW170830   9.353   1.374   0.666 -0.0072 -1.1165  0.6338
22941SOL    HW270831   9.360   1.499   0.752  2.4643 -1.8982  1.6400
22942SOL     OW70832   4.453   4.645   2.501  0.6039  0.7867 -0.4198
22942SOL    HW170833   4.512   4.625   2.573  0.3092 -0.4388 -0.4982
22942SOL    HW270834   4.506   4.698   2.441  1.8833 -0.8581 -0.8177
22943SOL     OW70835   0.215   6.637  10.366  0.7653  0.3261 -0.0062
22943SOL    HW170836   0.218   6.612  10.458 -0.8544 -0.6262 -0.1715
22943SOL    HW270837   0.148   6.706  10.362 -0.0030 -0.4317 -0.6122
22944SOL     OW70838   0.775   8.259  10.266 -0.3180 -0.1803  0.4864
22944SOL    HW170839   0.781   8.353  10.245 -1.0446 -0.6547 -2.3686
22944SOL    HW270840   0.743   8.256  10.356 -0.4969  2.3169  0.5721
22945SOL     OW70841   1.872   1.760   6.717 -0.2712 -0.4141 -0.2690
22945SOL    HW170842   1.790   1.765   6.668 -0.1611  0.3270 -0.3934
22945SOL    HW270843   1.940   1.768   6.650 -0.0518 -2.0981 -0.3019
22946SOL     OW70844   6.410   0.279  10.583  0.1286  0.3422  0.4118
22946SOL    HW170845   6.389   0.185  10.578 -1.7053  0.6830  1.1136
22946SOL    HW270846   6.496   0.282  10.624 -0.0236 -1.0260  0.8792
22947SOL     OW70847   5.826   2.735   6.912  0.6667  0.2786 -0.4681
22947SOL    HW170848   5.834   2.826   6.883  1.0448  0.9978  1.7621
22947SOL    HW270849   5.804   2.740   7.005 -1.7701 -1.9056 -0.7965
22948SOL     OW70850   6.741   2.399   5.077  0.5834 -0.5513 -0.2573
22948SOL    HW170851   6.744   2.492   5.053  1.6509 -0.0695  1.5531
22948SOL    HW270852   6.675   2.396   5.147 -0.3853 -1.4072 -1.1811
22949SOL     OW70853   9.005   0.588   9.846  0.5478  0.8111 -0.8318
22949SOL    HW170854   9.066   0.518   9.825 -0.4585 -0.0462 -0.9548
22949SOL    HW270855   9.022   0.655   9.780  2.3843  1.2538  0.0435
22950SOL     OW70856   6.797   8.511  10.215 -0.0216 -0.2444 -0.5249
22950SOL    HW170857   6.814   8.538  10.305 -0.4477 -0.1991 -0.4545
22950SOL    HW270858   6.716   8.556  10.192 -0.6181 -1.2810 -0.4852
22951SOL     OW70859   5.759  10.357   0.205 -0.7046 -0.2682 -0.7426
22951SOL    HW170860   5.695  10.313   0.149  1.3067 -2.5387 -1.4045
22951SOL    HW270861   5.748  10.318   0.291 -0.7190 -0.1091 -0.6713
22952SOL     OW70862   5.512   9.839   6.410 -0.0017  0.8184  0.0685
22952SOL    HW170863   5.540   9.930   6.413  2.4903  0.1544 -0.6325
22952SOL    HW270864   5.480   9.821   6.499  0.4225  2.1102  0.5042
22953SOL     OW70865   8.106   4.893   6.728  0.1461  0.3370  0.7488
22953SOL    HW170866   8.021   4.883   6.771  0.1104 -1.6424  0.3093
22953SOL    HW270867   8.145   4.806   6.731  1.4150  0.8104 -0.5948
22954SOL     OW70868   0.792   7.634   8.146  0.0978 -0.4553  0.2030
22954SOL    HW170869   0.845   7.593   8.214 -0.3132 -0.1689  0.7023
22954SOL    HW270870   0.842   7.712   8.120  0.3064 -0.6230  0.1007
22955SOL     OW70871   2.918   9.132   2.718 -0.2748 -0.0706 -0.4528
22955SOL    HW170872   2.930   9.038   2.724  0.0021  0.0277  0.6074
22955SOL    HW270873   3.006   9.168   2.716 -0.2771  0.3380  2.4284
22956SOL     OW70874   9.946   8.590   8.076 -0.0820 -0.0065 -0.5815
22956SOL    HW170875   9.886   8.655   8.041  0.7198  0.9211 -0.2623
22956SOL    HW270876  10.021   8.592   8.016  0.0515 -0.4790 -0.4402
22957SOL     OW70877  10.881   3.397  10.771  0.2780  0.3896 -0.2865
22957SOL    HW170878  10.852   3.397  10.862  3.1996 -0.0804  0.7164
22957SOL    HW270879  10.800   3.413  10.721 -1.4691  0.3137  2.3119
22958SOL     OW70880  11.056   2.515  10.253 -0.5918  0.3231  0.4204
22958SOL    HW170881  11.014   2.454  10.313 -0.7245  1.9952  2.1090
22958SOL    HW270882  11.018   2.601  10.274 -0.6850  1.0009 -2.1055
22959SOL     OW70883   9.720   2.325  10.922  0.8517 -0.3178  0.1757
22959SOL    HW170884   9.635   2.281  10.929  0.7236 -0.1832 -0.4840
22959SOL    HW270885   9.759   2.316  11.010 -0.2893  0.5651  0.7943
22960SOL     OW70886   4.944   8.584   5.517 -0.2173 -0.0237  0.1459
22960SOL    HW170887   5.004   8.519   5.480  2.1523  1.5852  0.9157
22960SOL    HW270888   4.945   8.567   5.611 -0.4552  0.4150  0.2333
22961SOL     OW70889   4.873   7.218   8.507 -0.1007 -0.0267 -0.0293
22961SOL    HW170890   4.792   7.168   8.493  0.5077 -1.2118  0.5409
22961SOL    HW270891   4.878   7.277   8.432 -1.9573  0.7184  0.3872
22962SOL     OW70892   4.638   7.290   6.678 -0.5697  0.1320 -0.0149
22962SOL    HW170893   4.709   7.269   6.738  0.0757  1.6739 -0.2007
22962SOL    HW270894   4.600   7.205   6.655  1.9033 -0.8635 -0.7506
22963SOL     OW70895   6.154  11.089   5.121  0.5216  0.4791  0.1955
22963SOL    HW170896   6.149  11.062   5.029  1.6421 -0.2418  0.3307
22963SOL    HW270897   6.240  11.129   5.129  0.5512  0.2600  1.0134
22964SOL     OW70898  10.311   8.200   3.200 -0.7281 -0.3890 -0.4695
22964SOL    HW170899  10.385   8.206   3.260 -0.1348 -1.4548 -1.0782
22964SOL    HW270900  10.234   8.206   3.256 -0.1839 -0.6072  0.3136
22965SOL     OW70901   8.132   0.677   2.200  0.6613 -0.1779  0.0562
22965SOL    HW170902   8.097   0.634   2.122  1.1579  0.9744 -0.8274
22965SOL    HW270903   8.132   0.609   2.267 -0.0821 -1.1031 -0.8524
22966SOL     OW70904   7.916  10.746  10.750  0.0844 -0.6436 -0.6069
22966SOL    HW170905   7.926  10.739  10.845 -0.0634  1.9907 -0.3025
22966SOL    HW270906   8.006  10.747  10.716  0.2689  1.1834 -0.1568
22967SOL     OW70907   2.714   3.772   4.886  0.2640  0.3263  0.0399
22967SOL    HW170908   2.631   3.816   4.903 -0.8851 -0.4783 -2.8136
22967SOL    HW270909   2.776   3.842   4.866  0.2976  0.9143  1.9548
22968SOL     OW70910   7.081   1.435   0.496  0.1084  0.0511  0.0515
22968SOL    HW170911   7.032   1.395   0.425 -0.3822  0.0734  0.3705
22968SOL    HW270912   7.037   1.518   0.513  0.9937  0.6395 -0.4641
22969SOL     OW70913   3.923  10.973   3.912 -0.0591 -0.0414 -0.4552
22969SOL    HW170914   4.002  10.973   3.966  1.9304 -5.2433 -2.7286
22969SOL    HW270915   3.851  10.961   3.974  1.1178  1.9275  1.4431
22970SOL     OW70916   4.887   3.652  10.636  0.4393 -0.1288 -0.1965
22970SOL    HW170917   4.877   3.747  10.636 -2.0517 -0.3399  0.5056
22970SOL    HW270918   4.898   3.630  10.543 -0.4387  0.7253 -0.5246
22971SOL     OW70919   6.812  10.738  10.983  0.5854 -0.1418 -0.2898
22971SOL    HW170920   6.885  10.771  11.035  0.8231 -0.2729 -0.5357
22971SOL    HW270921   6.820  10.642  10.987  1.2811 -0.1497 -1.4969
22972SOL     OW70922   6.624   1.069   5.850 -0.1065  0.1475 -0.2425
22972SOL    HW170923   6.618   0.974   5.850 -0.0586  0.1443 -0.2639
22972SOL    HW270924   6.670   1.090   5.769 -3.2410  0.3767 -2.1582
22973SOL     OW70925   4.928   4.816   4.256  0.1393 -0.0013  0.1513
22973SOL    HW170926   4.937   4.822   4.161 -0.9271 -0.5192 -0.0068
22973SOL    HW270927   4.958   4.728   4.278 -2.8177 -1.2382 -0.2141
22974SOL     OW70928   4.371   2.377   9.173 -0.4917  0.0377  0.5990
22974SOL    HW170929   4.441   2.320   9.206  1.2409  1.8346  0.2835
22974SOL    HW270930   4.290   2.336   9.201  0.7672 -0.9237  3.1004
22975SOL     OW70931   0.259   3.896   4.472  0.3568  0.0635  0.4394
22975SOL    HW170932   0.255   3.810   4.514  1.1252  0.3793  1.1757
22975SOL    HW270933   0.185   3.944   4.509  0.3802 -0.0262  0.6033
22976SOL     OW70934   7.880   2.396   7.716 -0.8546 -0.3210 -0.3995
22976SOL    HW170935   7.881   2.469   7.778 -2.6711 -1.0271  0.5225
22976SOL    HW270936   7.789   2.367   7.714 -0.6233 -1.0766 -2.5387
22977SOL     OW70937   8.545   6.539   5.633 -0.3365  0.1731  0.0451
22977SOL    HW170938   8.519   6.622   5.593  3.3408  2.0733  1.1530
22977SOL    HW270939   8.599   6.496   5.566 -0.1865 -0.1476  0.3717
22978SOL     OW70940   6.080  10.283   2.178 -0.1839  0.3326 -0.5006
22978SOL    HW170941   6.035  10.222   2.236  0.3769  1.2714  0.9538
22978SOL    HW270942   6.065  10.247   2.090  0.2734 -1.9953  0.2998
22979SOL     OW70943   5.560   9.955   2.075  0.0200  0.4899  0.1832
22979SOL    HW170944   5.474   9.927   2.107 -0.2716  0.5825 -0.5061
22979SOL    HW270945   5.621   9.889   2.108 -0.4565 -0.1467 -0.1936
22980SOL     OW70946   7.422   3.821   5.565 -0.3378 -0.4233 -0.1684
22980SOL    HW170947   7.348   3.771   5.600 -0.6963 -0.4028 -0.8749
22980SOL    HW270948   7.425   3.900   5.619 -1.2558 -0.1091 -0.5562
22981SOL     OW70949   5.284   7.955   1.033  0.3572 -0.3387 -0.6399
22981SOL    HW170950   5.238   7.874   1.013 -1.4579  0.3317  0.5893
22981SOL    HW270951   5.218   8.011   1.073  2.3168  0.5886  1.5174
22982SOL     OW70952   6.498   3.227   9.241 -0.4799 -0.2846 -0.2836
22982SOL    HW170953   6.431   3.175   9.285 -1.2740  0.6827 -0.3281
22982SOL    HW270954   6.529   3.288   9.309 -0.3092 -0.1128 -0.5130
22983SOL     OW70955   4.027  10.505   9.227  0.7613 -0.1573  0.2342
22983SOL    HW170956   4.037  10.597   9.201 -1.3377 -0.0697 -0.4401
22983SOL    HW270957   4.018  10.458   9.144 -1.4993 -0.4924  0.6127
22984SOL     OW70958   0.009  10.197  10.587  0.4562  0.1912  0.1865
22984SOL    HW170959  -0.003  10.246  10.506  0.0502 -1.7849 -1.0145
22984SOL    HW270960   0.099  10.164  10.582 -0.5096 -2.5704 -1.0973
22985SOL     OW70961   7.343   4.164   3.663  0.2005  0.1524 -0.5495
22985SOL    HW170962   7.364   4.078   3.626  1.0101  0.1725 -0.1446
22985SOL    HW270963   7.264   4.149   3.714  0.6523 -0.4873 -0.0116
22986SOL     OW70964   8.231   8.478   5.060 -0.3740  0.8235  0.0062
22986SOL    HW170965   8.302   8.433   5.105 -1.9502  1.4423  3.4558
22986SOL    HW270966   8.246   8.571   5.078 -1.0528  1.1086 -0.8073
22987SOL     OW70967   8.476  10.836   7.880  0.4422  0.0061 -0.0971
22987SOL    HW170968   8.465  10.761   7.937  0.3685 -0.3634 -0.5904
22987SOL    HW270969   8.457  10.912   7.935  3.8361 -0.0424  1.3870
22988SOL     OW70970   4.988   9.333   2.331  0.3140  0.3534 -0.5240
22988SOL    HW170971   5.025   9.263   2.277 -0.1375  0.9734 -1.6723
22988SOL    HW270972   4.916   9.369   2.279  0.0593  1.1868  0.3593
22989SOL     OW70973   6.904   9.186   0.680 -0.6772 -0.4852  0.0892
22989SOL    HW170974   6.831   9.129   0.704 -1.1416  0.8655  2.1956
22989SOL    HW270975   6.872   9.274   0.697  0.6429  0.3029 -1.2897
22990SOL     OW70976   1.635   7.676  10.791 -0.6736 -0.0400 -0.2061
22990SOL    HW170977   1.695   7.647  10.723 -0.6761 -2.0915  0.6150
22990SOL    HW270978   1.560   7.618  10.783 -2.4684  2.2275 -0.9608
22991SOL     OW70979   5.993   5.271   5.979 -0.1201 -0.4166 -0.5272
22991SOL    HW170980   6.069   5.323   5.953 -1.0395  1.1537 -0.2059
22991SOL    HW270981   6.001   5.190   5.928  1.3089  0.0695 -1.1269
22992SOL     OW70982   6.268   3.627   4.268  0.5093 -0.1101  0.3884
22992SOL    HW170983   6.328   3.702   4.275  0.6152 -0.2827  1.6684
22992SOL    HW270984   6.314   3.555   4.310  0.4396 -0.9379 -0.9111
22993SOL     OW70985   3.331   0.513   2.874 -0.3194  0.5119 -0.8810
22993SOL    HW170986   3.405   0.561   2.909  1.4772 -2.7745  0.3356
22993SOL    HW270987   3.266   0.513   2.944 -0.0757  0.6585 -0.6585
22994SOL     OW70988   5.297   3.431  10.786 -0.1631  0.2871 -0.3311
22994SOL    HW170989   5.368   3.432  10.851  1.9056  0.4741 -2.4352
22994SOL    HW270990   5.314   3.508  10.732 -0.5125 -0.9496 -2.3221
22995SOL     OW70991   9.785   3.094   0.477  0.0594  0.2844 -0.5191
22995SOL    HW170992   9.727   3.142   0.537 -0.4240 -0.2812 -0.5273
22995SOL    HW270993   9.846   3.049   0.534  1.4080  1.9720 -0.5384
22996SOL     OW70994  10.658   1.753   2.530 -0.7025  0.8213 -0.2263
22996SOL    HW170995  10.661   1.813   2.456  0.6202  1.4892  0.3236
22996SOL    HW270996  10.630   1.670   2.492  2.1881  0.4907 -2.0180
22997SOL     OW70997   3.404   2.412   9.044  0.5263  0.1508 -0.3963
22997SOL    HW170998   3.317   2.373   9.056 -0.0769  1.3991 -0.5432
22997SOL    HW270999   3.436   2.375   8.961 -0.5560  0.8612 -1.1652
22998SOL     OW71000   5.388   1.811   1.563  0.2145  0.2443  0.4855
22998SOL    HW171001   5.377   1.748   1.634  1.1258  1.1593  1.4802
22998SOL    HW271002   5.475   1.791   1.527 -0.7310 -1.0340 -1.2597
22999SOL     OW71003   7.437   6.724   8.339  0.3734  0.2378  0.6606
22999SOL    HW171004   7.371   6.691   8.278  1.1801 -1.3814  0.6036
22999SOL    HW271005   7.404   6.809   8.367 -1.0094  0.1097 -0.4706
23000SOL     OW71006   7.694   3.546   6.570 -0.9345  0.6822 -0.2517
23000SOL    HW171007   7.606   3.570   6.539  0.1474  1.8971 -2.6900
23000SOL    HW271008   7.736   3.630   6.590 -0.1103  0.1711  0.2268
23001SOL     OW71009   4.853   7.752   1.211 -0.0695 -0.2127 -0.4580
23001SOL    HW171010   4.908   7.676   1.229 -0.8036 -0.9969 -1.4264
23001SOL    HW271011   4.900   7.801   1.145 -0.2012 -0.5172 -0.7798
23002SOL     OW71012   3.310  10.541   9.010 -0.1094  0.6711  0.3833
23002SOL    HW171013   3.227  10.505   9.041  0.9766 -1.1435  1.3574
23002SOL    HW271014   3.340  10.478   8.944  1.0883  0.5997  0.9658
23003SOL     OW71015   5.000   8.002   6.625  0.1458  0.0895  0.2984
23003SOL    HW171016   4.990   7.990   6.531  1.8782  1.4077 -0.1001
23003SOL    HW271017   4.988   8.096   6.640 -0.0987 -0.0957  1.3899
23004SOL     OW71018   7.877   2.658   9.909 -0.3483  0.4361 -0.5767
23004SOL    HW171019   7.870   2.631   9.818 -1.7579 -1.4401  0.0179
23004SOL    HW271020   7.804   2.614   9.953  0.4656  1.0378  1.5192
23005SOL     OW71021   9.485   8.189   2.713 -0.4875  0.1338 -0.1269
23005SOL    HW171022   9.410   8.247   2.700  0.9437  1.6244 -2.5695
23005SOL    HW271023   9.515   8.208   2.801 -1.4584  1.4287 -0.0468
23006SOL     OW71024   3.099   7.958   9.522  0.6482  0.1865 -0.2659
23006SOL    HW171025   3.148   8.035   9.492  0.5475  0.2604 -0.2384
23006SOL    HW271026   3.146   7.929   9.601  0.4554  0.4510 -0.0537
23007SOL     OW71027   4.552   3.721   2.998  0.3842  0.3818  0.0822
23007SOL    HW171028   4.485   3.695   3.061  1.6663  0.5851  1.6070
23007SOL    HW271029   4.507   3.781   2.939 -0.8907  0.1271  0.7430
23008SOL     OW71030   3.734   8.965   4.860 -0.2167 -0.4613  0.2268
23008SOL    HW171031   3.744   8.901   4.930  1.9712  0.0858  0.5068
23008SOL    HW271032   3.821   9.005   4.851 -0.8946  0.7894 -1.5523
23009SOL     OW71033   7.771   8.436   9.601  0.2443  0.1400  0.0845
23009SOL    HW171034   7.809   8.383   9.531 -0.3648  0.2051 -0.2974
23009SOL    HW271035   7.817   8.520   9.596  0.5420 -0.0227  0.0805
23010SOL     OW71036   1.923   9.575   3.664 -0.1935  0.2347  0.4753
23010SOL    HW171037   1.894   9.666   3.661 -0.1894  0.2080 -1.3539
23010SOL    HW271038   1.846   9.525   3.636  0.2826 -0.1808 -0.1162
23011SOL     OW71039   9.403   5.797   6.228 -0.2706  0.2374 -0.3391
23011SOL    HW171040   9.411   5.892   6.219  1.4561 -0.0701 -2.8964
23011SOL    HW271041   9.318   5.777   6.190 -0.3146  0.6912 -0.4919
23012SOL     OW71042   8.390   6.041   4.185  0.3632 -0.0815  0.2097
23012SOL    HW171043   8.372   5.958   4.229  0.4949 -1.0050 -1.4123
23012SOL    HW271044   8.418   6.099   4.255  1.0767 -1.6369  1.2776
23013SOL     OW71045   7.716   8.117   4.373  0.8437 -0.1905 -0.2276
23013SOL    HW171046   7.681   8.029   4.356 -0.6578  0.1440  0.8766
23013SOL    HW271047   7.756   8.143   4.291 -0.0213 -1.3214 -1.0432
23014SOL     OW71048   7.930   6.653   8.414 -0.4858 -0.2773  0.1360
23014SOL    HW171049   7.954   6.579   8.470  0.3652 -0.3453 -0.3076
23014SOL    HW271050   8.013   6.691   8.387 -0.8932  2.2659  2.1788
23015SOL     OW71051  10.966   7.744   3.420  1.0047  0.0823 -0.6186
23015SOL    HW171052  10.982   7.650   3.432  1.3484 -0.0088 -1.7090
23015SOL    HW271053  10.910   7.749   3.343  0.1123  0.7269  0.0511
23016SOL     OW71054   5.388   7.680   8.506  0.0741  0.3253 -0.2478
23016SOL    HW171055   5.406   7.737   8.431  0.0653  0.6819  0.0195
23016SOL    HW271056   5.472   7.670   8.550 -0.0498  0.6690  0.0768
23017SOL     OW71057   8.030   1.076   8.650 -0.1765  0.0636 -0.1140
23017SOL    HW171058   7.984   1.029   8.720 -0.4361 -0.3541 -0.5573
23017SOL    HW271059   7.962   1.095   8.585  0.3203 -0.8466 -0.9345
23018SOL     OW71060   1.048  10.389   2.733 -0.0148 -1.2530 -0.5511
23018SOL    HW171061   0.965  10.361   2.772 -0.6383 -0.7839 -1.5027
23018SOL    HW271062   1.075  10.316   2.678  0.8675 -1.9165  0.7141
23019SOL     OW71063   6.668   7.362   7.632  0.1777  0.2676 -0.0244
23019SOL    HW171064   6.681   7.444   7.583 -0.2947 -0.1207 -0.8292
23019SOL    HW271065   6.577   7.368   7.662  0.1540  0.0588 -0.0568
23020SOL     OW71066   5.784   8.280   0.561  0.0003 -0.0451  0.1948
23020SOL    HW171067   5.720   8.351   0.569  1.0541  1.0859 -1.0569
23020SOL    HW271068   5.745   8.208   0.610 -1.9540  0.8034 -0.0073
23021SOL     OW71069   4.014   0.785   3.698 -0.0316 -0.0907  0.0957
23021SOL    HW171070   4.000   0.862   3.754 -0.0998  1.8692 -2.4654
23021SOL    HW271071   4.106   0.790   3.673  0.2785 -1.5736  0.8478
23022SOL     OW71072   6.013   2.996   2.128  0.0513  0.5463  0.3455
23022SOL    HW171073   6.007   2.901   2.136  0.0283  0.6091  1.2098
23022SOL    HW271074   6.036   3.011   2.037  0.9456 -0.3320  0.4078
23023SOL     OW71075   0.111  10.628   4.957  0.3225 -0.5776 -0.6032
23023SOL    HW171076   0.069  10.629   5.044 -1.4379 -0.0377 -1.4110
23023SOL    HW271077   0.198  10.665   4.972 -0.6450  1.3695  0.6354
23024SOL     OW71078   2.384   0.022   1.814  0.5468 -0.1631  0.4369
23024SOL    HW171079   2.465   0.069   1.835  0.1303  0.3037  1.0208
23024SOL    HW271080   2.323   0.090   1.789  0.8445 -0.6505 -1.8091
23025SOL     OW71081   8.963   8.955   0.402 -0.3422 -0.3829 -0.5191
23025SOL    HW171082   8.899   8.887   0.425 -0.0611 -0.4628  0.0435
23025SOL    HW271083   9.018   8.963   0.480  1.0355 -1.1068 -1.3792
23026SOL     OW71084   4.453   5.446   8.114  0.4317  0.1202 -0.1944
23026SOL    HW171085   4.449   5.538   8.088  0.8053  0.1609 -0.1094
23026SOL    HW271086   4.382   5.404   8.066  0.7609  0.3042 -0.8501
23027SOL     OW71087   7.512   0.391   1.723  0.9805 -0.2470  0.6105
23027SOL    HW171088   7.483   0.425   1.638  1.9411 -1.3279 -0.1859
23027SOL    HW271089   7.575   0.456   1.754  2.0500 -0.7461 -0.4199
23028SOL     OW71090   4.512   4.296  10.036  0.1392 -0.3163  0.0301
23028SOL    HW171091   4.556   4.236   9.976 -2.0263  1.8444 -4.2583
23028SOL    HW271092   4.421   4.266  10.036 -0.5219  1.5473 -0.4153
23029SOL     OW71093   9.588   2.641   1.820  0.0022  0.0347  0.0089
23029SOL    HW171094   9.571   2.703   1.890 -0.7335  0.2751 -0.3813
23029SOL    HW271095   9.642   2.689   1.758 -0.7423  0.3629 -0.3955
23030SOL     OW71096   3.349   5.690   9.141 -1.1148  0.1653  0.1389
23030SOL    HW171097   3.310   5.608   9.172  0.6480 -0.5532  0.5678
23030SOL    HW271098   3.333   5.752   9.212 -1.6760 -0.0543  0.2061
23031SOL     OW71099  10.375   6.817   9.572  0.2886 -0.2716 -0.8040
23031SOL    HW171100  10.302   6.766   9.536  2.2758 -2.2682 -2.2403
23031SOL    HW271101  10.440   6.820   9.502  2.2617  0.0241  0.9350
23032SOL     OW71102   4.658   0.846   3.239  0.5361  0.6176 -0.0062
23032SOL    HW171103   4.645   0.751   3.242 -0.7950  0.8068  1.5122
23032SOL    HW271104   4.745   0.859   3.276  0.5451  0.0133  0.2119
23033SOL     OW71105   5.092   1.890   5.416 -0.0885  0.0057 -0.5409
23033SOL    HW171106   5.152   1.964   5.422 -1.4763  1.2319 -1.1321
23033SOL    HW271107   5.063   1.890   5.325  0.3902 -1.7041 -0.7228
23034SOL     OW71108   6.956   7.962   3.004  0.3942 -0.2973  0.1306
23034SOL    HW171109   6.912   8.036   2.962 -0.6467 -0.1697  1.3737
23034SOL    HW271110   6.894   7.890   2.999 -0.0071 -0.1281  1.8674
23035SOL     OW71111   1.268   1.330  10.983 -0.0319 -0.0507 -0.2616
23035SOL    HW171112   1.299   1.239  10.976 -1.8609 -0.7538  0.1589
23035SOL    HW271113   1.190   1.333  10.927 -0.7215  0.8942  0.7056
23036SOL     OW71114   0.015  10.200   6.292  0.0358  0.1779 -0.4625
23036SOL    HW171115  -0.074  10.166   6.290  0.5907 -1.3631 -2.1403
23036SOL    HW271116   0.020  10.260   6.218  0.7435 -0.8228 -1.2534
23037SOL     OW71117   5.297   3.759   7.301  0.2793  0.4682 -0.1360
23037SOL    HW171118   5.331   3.781   7.388 -1.9993  1.4680  0.5839
23037SOL    HW271119   5.248   3.678   7.314 -1.1719  1.3101 -0.1405
23038SOL     OW71120   6.078   3.544   8.349  0.4187  0.0968 -0.3537
23038SOL    HW171121   6.124   3.481   8.293 -0.7842 -2.1146  1.0272
23038SOL    HW271122   6.016   3.588   8.290  0.8756 -0.4009 -1.2304
23039SOL     OW71123   6.638   0.070   4.550 -0.0662  0.2585  0.2059
23039SOL    HW171124   6.682   0.152   4.525 -1.6411  0.7802 -1.0530
23039SOL    HW271125   6.551   0.098   4.579 -1.3423 -1.0539 -2.1068
23040SOL     OW71126   9.951   3.965   9.708 -0.3430  0.0128  0.1171
23040SOL    HW171127   9.972   3.879   9.744  3.8000  0.9184  0.2980
23040SOL    HW271128   9.894   4.005   9.774  0.9019 -1.1633  1.9998
23041SOL     OW71129   4.054  10.492   0.931  0.3931  0.1672 -0.0397
23041SOL    HW171130   4.012  10.577   0.944 -0.0346 -0.0083 -0.2499
23041SOL    HW271131   4.137  10.513   0.888  0.3014  0.4798 -0.0671
23042SOL     OW71132   7.368   1.223   4.059 -0.4801  0.1232  0.0513
23042SOL    HW171133   7.442   1.281   4.043 -0.2969 -0.4800 -1.4611
23042SOL    HW271134   7.292   1.282   4.062 -0.4385  0.4384 -2.5119
23043SOL     OW71135   9.152   2.065   4.453  0.5972  0.0872  0.3941
23043SOL    HW171136   9.211   2.007   4.502  1.1390  0.7162  0.5001
23043SOL    HW271137   9.206   2.141   4.432 -0.4524  1.1412  1.3724
23044SOL     OW71138   3.852   0.547   0.561  0.3328  0.4129 -0.2314
23044SOL    HW171139   3.817   0.618   0.615 -0.7164  0.5741 -1.0783
23044SOL    HW271140   3.808   0.468   0.593  0.1468  0.4232 -0.4550
23045SOL     OW71141   6.107   0.377   9.602  0.2134 -0.5410  0.5254
23045SOL    HW171142   6.099   0.471   9.621 -0.2473 -0.7417  1.3518
23045SOL    HW271143   6.021   0.341   9.620 -0.1140 -0.8611 -1.4726
23046SOL     OW71144   2.080   1.676   0.251  0.1361 -0.0300 -0.0916
23046SOL    HW171145   2.032   1.595   0.268  0.6945 -0.1088  1.2985
23046SOL    HW271146   2.162   1.647   0.211  0.3616 -0.1678  0.4609
23047SOL     OW71147   0.552   0.221   6.929  0.7300 -0.3164  0.7703
23047SOL    HW171148   0.601   0.294   6.966  2.1937 -0.2537 -1.1643
23047SOL    HW271149   0.619   0.160   6.897 -0.4644 -1.5363  0.4677
23048SOL     OW71150   4.719   2.790   1.237  0.1150 -0.1101  0.5748
23048SOL    HW171151   4.656   2.740   1.288 -0.0744  1.8772  2.3968
23048SOL    HW271152   4.667   2.829   1.166 -0.3838  0.1480  1.0767
23049SOL     OW71153   5.195   4.399  10.939  0.1392 -0.1461  0.3399
23049SOL    HW171154   5.273   4.453  10.950  0.5765 -0.4230 -1.2199
23049SOL    HW271155   5.131   4.457  10.899 -0.1269 -0.2029  0.6753
23050SOL     OW71156  11.079   0.127  10.377  0.9593  0.0945  0.3959
23050SOL    HW171157  11.079   0.036  10.405 -0.1473  0.3392  1.2502
23050SOL    HW271158  11.171   0.146  10.355  1.3906 -0.8812  1.3066
23051SOL     OW71159   8.185  11.057   3.057 -0.5156 -0.1885  0.0010
23051SOL    HW171160   8.266  11.006   3.057 -0.4910 -0.1583 -0.9367
23051SOL    HW271161   8.213  11.145   3.082 -0.2931 -0.2418 -0.0550
23052SOL     OW71162   2.327   2.791   4.948  0.1938  0.1763 -0.1273
23052SOL    HW171163   2.269   2.863   4.924 -0.7720 -0.4491  0.2872
23052SOL    HW271164   2.306   2.773   5.039 -1.7490 -2.5650 -0.9779
23053SOL     OW71165   8.635   5.841   0.048 -0.1344  0.0131  0.4522
23053SOL    HW171166   8.686   5.909   0.004  1.5290 -1.5340 -0.1325
23053SOL    HW271167   8.586   5.798  -0.022  0.7717 -0.9939  0.4194
23054SOL     OW71168  10.943   2.631   4.031  0.1483  0.1801  0.6171
23054SOL    HW171169  10.877   2.585   4.083  2.0201 -0.2733  2.7523
23054SOL    HW271170  11.019   2.573   4.032  0.9092  1.0865 -0.9909
23055SOL     OW71171   7.462   7.087   4.508  0.1603 -0.3092 -0.2020
23055SOL    HW171172   7.520   7.085   4.432 -0.8395 -0.0372 -0.9925
23055SOL    HW271173   7.445   7.180   4.523  2.1806 -0.1755  1.8226
23056SOL     OW71174   6.127   7.092   6.979  0.7237 -0.0523  0.5756
23056SOL    HW171175   6.124   7.091   6.884 -1.1329  0.0637  0.6015
23056SOL    HW271176   6.081   7.172   7.004  0.4915 -0.4801  1.5791
23057SOL     OW71177   3.398   1.954   9.565 -0.2360 -0.3664  0.5275
23057SOL    HW171178   3.460   2.014   9.523 -0.1821 -0.3453  0.6342
23057SOL    HW271179   3.452   1.905   9.627  0.3861 -2.7859 -1.7613
23058SOL     OW71180   4.660   0.177   7.884 -0.3543 -0.2708 -0.4299
23058SOL    HW171181   4.726   0.230   7.838 -0.8471  1.9493  1.2444
23058SOL    HW271182   4.708   0.100   7.915  0.2994 -1.1274 -3.3199
23059SOL     OW71183  10.754   3.057   8.168 -0.4363  0.6454  0.4645
23059SOL    HW171184  10.791   3.068   8.080  0.4735 -1.3145  0.5418
23059SOL    HW271185  10.734   2.963   8.174 -2.4591  1.0947  1.6170
23060SOL     OW71186   6.261  10.657   6.581 -0.1745 -0.2574 -0.2143
23060SOL    HW171187   6.184  10.607   6.607 -1.6874  2.8153  1.6453
23060SOL    HW271188   6.326  10.637   6.648 -0.7012  0.1158  0.4159
23061SOL     OW71189   4.170  10.819  10.951 -0.2575 -0.1818 -0.4729
23061SOL    HW171190   4.183  10.788  10.862  0.5055 -0.8906 -0.1289
23061SOL    HW271191   4.095  10.878  10.946  0.7971  1.1055 -1.8704
23062SOL     OW71192   5.274   2.057   7.380 -0.1102 -0.2124  0.3800
23062SOL    HW171193   5.367   2.067   7.362 -0.1621  0.2314  0.3541
23062SOL    HW271194   5.244   1.991   7.317 -0.0912  0.6143 -0.5104
23063SOL     OW71195   8.529  10.369   1.823  0.2340  0.3336 -0.3695
23063SOL    HW171196   8.486  10.446   1.861  2.2060  0.8496  0.9141
23063SOL    HW271197   8.548  10.395   1.733  0.2182  1.0715 -0.1687
23064SOL     OW71198   5.537   7.725   9.425 -0.2389  0.9279 -0.3115
23064SOL    HW171199   5.483   7.665   9.476  0.5472  1.2707  0.9816
23064SOL    HW271200   5.576   7.783   9.490  1.6619  0.7055 -1.1785
23065SOL     OW71201   1.421   2.384   9.098 -0.2769  0.0773  0.2188
23065SOL    HW171202   1.399   2.377   9.005  0.8857 -1.6629  0.0252
23065SOL    HW271203   1.392   2.301   9.136  2.2150 -0.6637  0.6968
23066SOL     OW71204   1.646   9.880   1.694  0.2113 -0.2768  0.4509
23066SOL    HW171205   1.713   9.942   1.665 -0.6252  1.5856  2.2627
23066SOL    HW271206   1.689   9.829   1.763  1.5968 -3.4068 -2.4361
23067SOL     OW71207   6.621   7.278  10.265 -0.2130  0.3517  0.2190
23067SOL    HW171208   6.583   7.231  10.191 -0.7714  1.0791  0.0238
23067SOL    HW271209   6.617   7.370  10.239  2.3212  0.4471 -0.0912
23068SOL     OW71210   0.241   1.873   1.300 -0.3302 -1.0642  0.1469
23068SOL    HW171211   0.316   1.880   1.359 -1.5739 -0.9334  1.7894
23068SOL    HW271212   0.280   1.853   1.215  1.4833 -2.2837  1.1790
23069SOL     OW71213   2.113   1.049   4.426  0.3662  0.6246 -0.2409
23069SOL    HW171214   2.099   1.065   4.333 -0.5987  0.7390 -0.0772
23069SOL    HW271215   2.064   1.118   4.471 -0.2797 -0.2165  0.3737
23070SOL     OW71216   8.221   7.651   1.258  0.0204 -0.0648 -0.4904
23070SOL    HW171217   8.251   7.582   1.198 -0.1921 -1.0498  0.5003
23070SOL    HW271218   8.156   7.700   1.207 -2.2610 -2.6000 -0.2843
23071SOL     OW71219   5.912   2.950   5.479  0.4490  0.1457 -0.2585
23071SOL    HW171220   5.885   3.040   5.495 -1.0071 -0.3190  0.0865
23071SOL    HW271221   5.988   2.937   5.536  0.0066  0.8371  0.5108
23072SOL     OW71222  10.026   0.912   6.528  0.4299  0.6186 -0.1118
23072SOL    HW171223   9.967   0.908   6.604  0.1817  2.1368 -0.1946
23072SOL    HW271224  10.095   0.972   6.555  2.8649 -2.2157  0.5445
23073SOL     OW71225   8.159  11.087   0.623 -0.3343 -0.8394 -0.4923
23073SOL    HW171226   8.087  11.033   0.592 -0.6593 -0.3829 -0.5509
23073SOL    HW271227   8.183  11.049   0.708 -1.4497 -0.2831  0.1019
23074SOL     OW71228   4.409  11.001  10.918  0.4497  0.3691  0.1506
23074SOL    HW171229   4.437  11.066  10.983  1.4651 -0.9834  1.1161
23074SOL    HW271230   4.319  10.979  10.943  0.2377  1.0886  0.0520
23075SOL     OW71231   6.174   6.421   0.157  0.2922  0.1616 -0.0783
23075SOL    HW171232   6.113   6.358   0.118 -0.8268  0.2497  1.4387
23075SOL    HW271233   6.230   6.369   0.213  0.5893  0.2904 -0.2518
23076SOL     OW71234   8.329   7.958   8.035  0.2426  0.2585 -0.9827
23076SOL    HW171235   8.411   7.915   8.008 -1.0514 -2.8655 -0.3347
23076SOL    HW271236   8.283   7.892   8.086 -2.0577  2.4504 -0.0200
23077SOL     OW71237   9.624   8.958   2.900  0.3503 -0.0211  0.6270
23077SOL    HW171238   9.563   8.994   2.836  1.8135  0.1514 -0.7330
23077SOL    HW271239   9.571   8.945   2.979 -1.9848 -1.9409 -1.1134
23078SOL     OW71240   4.498   2.402   8.920  0.6048 -0.5901  0.8641
23078SOL    HW171241   4.478   2.326   8.864  0.4917 -0.3419  0.5662
23078SOL    HW271242   4.449   2.386   9.001 -0.1605 -0.3820  0.4505
23079SOL     OW71243   3.099   1.375  11.055 -0.4218 -0.0273 -0.2270
23079SOL    HW171244   3.186   1.379  11.015 -0.4895 -2.3879 -0.7365
23079SOL    HW271245   3.039   1.375  10.980 -1.0759  3.3072  0.1258
23080SOL     OW71246   5.800   3.460   8.244 -0.3721  0.0618 -0.5309
23080SOL    HW171247   5.834   3.533   8.192 -0.5501  0.1297 -0.5519
23080SOL    HW271248   5.760   3.502   8.320  0.3651 -0.0629 -0.0657
23081SOL     OW71249   9.479   0.624   9.405  0.2556  0.0416 -0.2248
23081SOL    HW171250   9.406   0.682   9.426 -0.7529 -1.3344  0.1759
23081SOL    HW271251   9.540   0.635   9.479 -0.2204  0.1176  0.1588
23082SOL     OW71252   1.860   5.155   0.096  0.0724  0.1013  0.3126
23082SOL    HW171253   1.898   5.219   0.035  0.0707  1.1489  1.3841
23082SOL    HW271254   1.815   5.093   0.039  1.5323  0.0546 -0.8701
23083SOL     OW71255   9.807   3.148   9.595  0.3096 -0.1046 -0.4041
23083SOL    HW171256   9.724   3.100   9.604  0.1328 -0.4714 -3.2006
23083SOL    HW271257   9.781   3.236   9.571  0.7428  0.0179 -0.4214
23084SOL     OW71258  10.301   2.885  10.057  0.2474  0.1992  0.0348
23084SOL    HW171259  10.372   2.849  10.004 -0.8202 -1.3673 -0.4187
23084SOL    HW271260  10.319   2.979  10.061  1.6145  0.0251 -1.1710
23085SOL     OW71261  10.451   3.910   6.968  0.1839 -0.1527 -0.0681
23085SOL    HW171262  10.476   3.819   6.984  0.0019 -0.1749  0.0983
23085SOL    HW271263  10.504   3.937   6.893 -0.3122 -0.6266 -0.5977
23086SOL     OW71264   6.096   0.792   6.053  0.1643  0.5568 -0.6043
23086SOL    HW171265   6.100   0.886   6.067 -1.7416  0.5188  0.4080
23086SOL    HW271266   6.145   0.778   5.972  2.9934  2.0146  0.7016
23087SOL     OW71267   4.355   0.383   0.476 -0.6962  0.6547 -0.2222
23087SOL    HW171268   4.438   0.340   0.497 -0.7150  0.4996 -0.4581
23087SOL    HW271269   4.289   0.314   0.485 -0.7991  0.7756 -0.0431
23088SOL     OW71270   7.278   0.279   0.957  0.1126  0.5649  0.2085
23088SOL    HW171271   7.300   0.369   0.978  2.3212  0.5441 -1.6561
23088SOL    HW271272   7.262   0.237   1.042  2.9693  1.7493  1.4369
23089SOL     OW71273   6.560   9.963   8.032  0.2675  0.4646 -0.0066
23089SOL    HW171274   6.523  10.047   8.058 -0.2613 -0.1406  1.2778
23089SOL    HW271275   6.643   9.986   7.991 -1.2248  1.8190 -2.5139
23090SOL     OW71276   5.108   3.596   1.586  0.4419  0.2227  0.1035
23090SOL    HW171277   5.166   3.654   1.635  2.5026 -0.4270 -1.4206
23090SOL    HW271278   5.124   3.509   1.623 -0.8591  0.2544  0.7941
23091SOL     OW71279   4.221   0.150   8.816 -0.0228 -0.5883 -0.4941
23091SOL    HW171280   4.132   0.179   8.795  0.3322  0.2630 -0.8816
23091SOL    HW271281   4.264   0.141   8.731  1.4694  3.0185 -0.3083
23092SOL     OW71282   8.716   7.046   7.718 -0.2370  0.3389  0.2104
23092SOL    HW171283   8.669   7.015   7.796  0.7488  0.2925  0.8048
23092SOL    HW271284   8.647   7.082   7.662 -0.8847  1.3165  1.5470
23093SOL     OW71285   3.804   2.441   9.264 -0.4469  0.0480 -0.8217
23093SOL    HW171286   3.835   2.411   9.179 -1.1070 -1.2738 -0.6162
23093SOL    HW271287   3.709   2.443   9.257 -0.5950 -1.4192  0.2830
23094SOL     OW71288   5.655   2.821   6.032  0.7749  0.3723  0.3586
23094SOL    HW171289   5.737   2.812   6.080  0.4389  2.6247  1.4800
23094SOL    HW271290   5.681   2.855   5.947  1.0639  0.2709  0.4062
23095SOL     OW71291  10.386  10.461   8.694 -0.3001 -0.0204 -0.2043
23095SOL    HW171292  10.467  10.416   8.669  0.8596  1.5683  0.4889
23095SOL    HW271293  10.327  10.448   8.620  1.4138  0.7429 -1.7744
23096SOL     OW71294   0.926  10.551   3.871 -0.0396  0.4684  0.0634
23096SOL    HW171295   1.020  10.556   3.857  0.4400 -2.2145  1.6991
23096SOL    HW271296   0.891  10.517   3.788  0.3883  1.4385 -0.5347
23097SOL     OW71297   8.018   0.979   0.637  0.6239 -0.5525  0.0872
23097SOL    HW171298   7.985   1.055   0.590 -0.6221 -1.2374 -0.2012
23097SOL    HW271299   8.109   1.000   0.658  0.9167  0.1603 -1.7913
23098SOL     OW71300   7.412   4.876   8.912  0.4069 -0.0827  0.6699
23098SOL    HW171301   7.352   4.802   8.915  0.4253 -0.0798  1.5935
23098SOL    HW271302   7.371   4.942   8.968 -0.1520  1.0423 -1.0056
23099SOL     OW71303   5.078   2.849   7.486 -0.1149  0.4512  0.5583
23099SOL    HW171304   5.147   2.912   7.467 -1.6639  1.9433 -0.4959
23099SOL    HW271305   5.008   2.902   7.525 -1.4234 -0.6296 -0.2433
23100SOL     OW71306  10.520   8.494   3.283  0.2921 -0.4512 -0.0192
23100SOL    HW171307  10.492   8.555   3.352  2.6456 -0.7928  1.3329
23100SOL    HW271308  10.525   8.409   3.326  2.8583 -0.4882 -0.2046
23101SOL     OW71309   7.852  10.110   7.830  0.4166  0.3200 -0.7612
23101SOL    HW171310   7.926  10.166   7.851 -0.6343  1.7960 -0.8663
23101SOL    HW271311   7.890  10.036   7.782  1.8420  0.9011 -0.5558
23102SOL     OW71312   7.209   2.755   7.491 -0.0790  0.4358  0.0508
23102SOL    HW171313   7.251   2.669   7.496  2.5448  1.6378  0.2274
23102SOL    HW271314   7.236   2.799   7.572 -1.3624  1.4467 -0.0540
23103SOL     OW71315   8.524   0.391   1.015  0.3044  0.3879  0.2028
23103SOL    HW171316   8.495   0.299   1.012 -0.2452  0.5365  0.7736
23103SOL    HW271317   8.479   0.432   0.941 -0.3065  0.4381  0.6026
23104SOL     OW71318   0.440   9.605   3.659  0.0593 -0.0379 -0.3254
23104SOL    HW171319   0.394   9.642   3.734  0.9251  0.4577 -0.0282
23104SOL    HW271320   0.503   9.672   3.633  1.5431 -1.2002  0.1190
23105SOL     OW71321   6.982   2.811   9.351 -0.5144 -0.0354  0.6898
23105SOL    HW171322   6.940   2.789   9.268  0.2722  2.0107 -0.3177
23105SOL    HW271323   7.003   2.726   9.390  0.3557 -1.0969 -1.8565
23106SOL     OW71324   2.578   9.285   0.186 -0.6905 -0.1623  0.1642
23106SOL    HW171325   2.586   9.300   0.092  0.9820  0.2459  0.3375
23106SOL    HW271326   2.490   9.316   0.209 -0.1791  2.1599 -0.8273
23107SOL     OW71327   8.257   2.322   8.104  0.4413  0.3247  0.1967
23107SOL    HW171328   8.213   2.303   8.187 -0.0341  1.2283  0.1590
23107SOL    HW271329   8.226   2.410   8.080 -0.2890 -0.3639 -1.4996
23108SOL     OW71330   5.034   1.988   9.748 -0.0371 -0.2487  0.1939
23108SOL    HW171331   5.037   2.062   9.687  0.7328 -0.2704  0.1845
23108SOL    HW271332   5.125   1.957   9.750 -0.3467 -1.1568  0.2396
23109SOL     OW71333   9.948  10.659   2.171  0.6389 -0.6812  0.2734
23109SOL    HW171334  10.002  10.729   2.134  1.5093 -0.9975  0.8913
23109SOL    HW271335  10.006  10.616   2.234 -0.9323  0.1660  2.4230
23110SOL     OW71336   5.099   3.674   7.550  0.3708 -0.7915  0.0462
23110SOL    HW171337   5.193   3.671   7.567  0.3624  0.4866  0.4893
23110SOL    HW271338   5.087   3.753   7.497 -0.7922  1.1291  2.8799
23111SOL     OW71339   8.382   3.131   7.944  0.1157 -0.0893 -0.1519
23111SOL    HW171340   8.444   3.072   7.900 -0.6233 -0.4680 -0.7056
23111SOL    HW271341   8.339   3.178   7.872 -0.5809 -0.1774  0.1982
23112SOL     OW71342   6.519   6.948   4.717  0.6099 -0.4769  0.4304
23112SOL    HW171343   6.559   6.956   4.630 -0.8140  0.9394 -0.1331
23112SOL    HW271344   6.505   6.854   4.727  0.3128 -0.6314 -1.1185
23113SOL     OW71345   7.689   9.400   0.522 -0.2979 -0.3000  0.2524
23113SOL    HW171346   7.701   9.428   0.431  0.4850 -0.4283  0.3041
23113SOL    HW271347   7.603   9.360   0.524 -0.7441  0.6125 -0.2027
23114SOL     OW71348   1.259   6.090   4.069 -0.2911 -0.2307  0.4172
23114SOL    HW171349   1.268   6.184   4.086 -0.6307 -0.6055  3.2225
23114SOL    HW271350   1.220   6.085   3.982 -0.4865  2.2096  0.2760
23115SOL     OW71351   8.212   4.290   3.191 -0.0837 -0.4727  0.4652
23115SOL    HW171352   8.214   4.300   3.095  1.0894  1.2523  0.6226
23115SOL    HW271353   8.126   4.323   3.217 -0.0349 -0.0299  0.0778
23116SOL     OW71354   3.956   0.300   7.356 -0.0376  0.4885  0.6467
23116SOL    HW171355   3.985   0.258   7.437 -1.5737 -0.3769  0.7767
23116SOL    HW271356   3.937   0.390   7.381 -2.2813 -0.2206  1.7370
23117SOL     OW71357   5.916   4.097  10.684  0.0264 -0.3751  0.5689
23117SOL    HW171358   5.916   4.067  10.593 -0.8111 -1.2221  0.8301
23117SOL    HW271359   5.988   4.048  10.725  0.3609 -0.0427  0.3928
23118SOL     OW71360   7.902   1.423   9.877  0.2049 -0.0003  0.3197
23118SOL    HW171361   7.971   1.489   9.882  0.5263 -0.3593  0.7201
23118SOL    HW271362   7.820   1.472   9.884  0.4506  0.3131  1.1168
23119SOL     OW71363   8.765  10.446   9.517  0.2213  0.0116  0.4698
23119SOL    HW171364   8.769  10.541   9.525 -0.4333 -0.0455  1.5985
23119SOL    HW271365   8.682  10.429   9.471 -0.0480 -0.0472  0.9743
23120SOL     OW71366   1.656   5.446   3.107 -0.0271  0.1181  0.1967
23120SOL    HW171367   1.632   5.455   3.199  0.2231 -0.9585  0.3843
23120SOL    HW271368   1.714   5.370   3.105  1.1663  1.0260 -0.6408
23121SOL     OW71369   8.611   3.910   0.030 -0.7792 -0.9216  0.0432
23121SOL    HW171370   8.529   3.946  -0.004 -0.8210 -0.9688  0.0938
23121SOL    HW271371   8.679   3.947  -0.027 -0.9093 -1.5550 -0.5440
23122SOL     OW71372   7.368   8.959   8.062  0.3428  0.0529  0.2609
23122SOL    HW171373   7.356   8.959   8.157  1.8216  1.4617  0.4879
23122SOL    HW271374   7.423   8.883   8.045  0.8466  0.3169  0.6677
23123SOL     OW71375   5.867   1.866   2.417 -0.0202 -0.0554 -0.0968
23123SOL    HW171376   5.803   1.795   2.405  0.1512  0.1065 -2.4406
23123SOL    HW271377   5.948   1.820   2.440 -0.8684 -0.2561  3.0398
23124SOL     OW71378   6.814   1.696   3.488  0.5755  0.1552  0.0311
23124SOL    HW171379   6.882   1.762   3.494  0.9007 -0.0291 -1.2072
23124SOL    HW271380   6.732   1.745   3.491  0.7984  0.5410 -0.1029
23125SOL     OW71381   6.286   4.071   9.818 -0.1806  0.1005  0.0729
23125SOL    HW171382   6.327   4.030   9.741 -0.1734 -0.5383  0.4107
23125SOL    HW271383   6.217   4.010   9.844  0.8870 -0.5248  1.5675
23126SOL     OW71384   5.030   7.924   0.731  0.0514  0.5656  0.4097
23126SOL    HW171385   5.076   8.008   0.723 -0.0996  0.6902  0.8208
23126SOL    HW271386   4.967   7.924   0.658  1.7691 -0.3105 -1.1613
23127SOL     OW71387  10.307   3.022  10.358  0.2292 -0.2708  0.3274
23127SOL    HW171388  10.332   3.114  10.357  0.2403 -0.2629  0.7955
23127SOL    HW271389  10.381   2.976  10.319  0.9101 -0.2309  1.5264
23128SOL     OW71390  10.248   0.907   1.906  0.2632 -0.0542 -0.3681
23128SOL    HW171391  10.188   0.902   1.980  0.2470 -1.7968 -0.4761
23128SOL    HW271392  10.215   0.981   1.854  0.7694  1.7424  1.7300
23129SOL     OW71393   6.677   5.637   2.429 -0.1494  0.0528 -0.3068
23129SOL    HW171394   6.697   5.544   2.439 -0.8701  0.0838  1.7999
23129SOL    HW271395   6.759   5.681   2.452 -0.9336  0.0076  3.0492
23130SOL     OW71396   8.652  10.583   8.629  0.0736 -0.9727 -0.7018
23130SOL    HW171397   8.660  10.590   8.534  0.4872  0.3215 -0.5778
23130SOL    HW271398   8.636  10.672   8.660 -1.0007 -1.4884  0.3754
23131SOL     OW71399   9.267   6.493   1.791 -0.1076 -0.0500  0.0576
23131SOL    HW171400   9.286   6.465   1.702 -0.1800 -0.6833  0.2366
23131SOL    HW271401   9.172   6.487   1.799 -0.1320  0.3161  0.0786
23132SOL     OW71402   5.634   1.924   4.688  0.5691 -0.1729  0.2809
23132SOL    HW171403   5.547   1.962   4.675 -0.2501 -2.2613 -0.8968
23132SOL    HW271404   5.622   1.859   4.757  1.2386 -0.3426  0.2432
23133SOL     OW71405  10.199   9.984   9.998 -0.1404  0.5929 -0.2316
23133SOL    HW171406  10.291   9.986  10.024  0.2560  1.5020 -1.5817
23133SOL    HW271407  10.150   9.989  10.080  0.9920 -0.6413  0.5532
23134SOL     OW71408   9.480   2.962   8.433  0.6857 -0.3276  0.4444
23134SOL    HW171409   9.408   2.994   8.488 -0.3962 -0.8215 -0.6413
23134SOL    HW271410   9.447   2.969   8.344  1.7087 -1.2983 -0.0330
23135SOL     OW71411   8.774   8.843   8.736  0.7759 -0.3589 -0.4737
23135SOL    HW171412   8.836   8.777   8.707  2.4049  0.3191  1.2765
23135SOL    HW271413   8.820   8.926   8.725 -0.0644  0.2197  0.2631
23136SOL     OW71414   3.908   3.763   1.325  0.1651  0.0540 -0.3832
23136SOL    HW171415   3.942   3.675   1.343 -2.0964 -1.1922 -1.7625
23136SOL    HW271416   3.835   3.773   1.387 -0.6463  0.2352 -1.3399
23137SOL     OW71417   9.239   5.566   4.690 -0.3294  0.0881  0.1488
23137SOL    HW171418   9.170   5.503   4.668 -1.6908  1.1990  1.0663
23137SOL    HW271419   9.251   5.618   4.610 -0.5397 -0.1245 -0.0195
23138SOL     OW71420   4.541   1.736   6.461  0.1826 -0.4557  0.6503
23138SOL    HW171421   4.627   1.697   6.444  1.8177  2.4692  1.4283
23138SOL    HW271422   4.514   1.700   6.545  0.3057 -1.9173  0.0838
23139SOL     OW71423  10.688  10.153   0.828  0.2892  0.3749  0.6495
23139SOL    HW171424  10.683  10.162   0.732 -0.2409 -0.5752  0.5814
23139SOL    HW271425  10.658  10.237   0.861  2.3921  1.4824 -0.0254
23140SOL     OW71426   6.815   9.222   8.440 -0.3058  0.5461  0.3807
23140SOL    HW171427   6.823   9.262   8.527  1.2795 -0.7703  0.8897
23140SOL    HW271428   6.905   9.214   8.409 -0.7080 -0.7843 -0.5320
23141SOL     OW71429  10.698   0.661   7.457 -0.3882 -0.0668  0.3376
23141SOL    HW171430  10.728   0.595   7.394  0.0884 -0.1504  0.6456
23141SOL    HW271431  10.701   0.616   7.542  0.6948  0.5744  0.6594
23142SOL     OW71432   6.166   6.523   2.990  0.2076 -0.3017  0.5238
23142SOL    HW171433   6.103   6.453   3.008  0.9287 -0.2848  3.9480
23142SOL    HW271434   6.223   6.523   3.067  1.2229  2.9985 -0.0814
23143SOL     OW71435   1.497   1.433   2.007 -0.0458 -0.6961 -1.0014
23143SOL    HW171436   1.593   1.437   2.008  0.0065 -0.9885  1.3637
23143SOL    HW271437   1.469   1.511   2.055 -0.8371 -1.9555  0.7213
23144SOL     OW71438   6.216   7.408   4.663 -0.1233  0.0001  0.1754
23144SOL    HW171439   6.136   7.456   4.684 -0.2129 -0.4654  0.9219
23144SOL    HW271440   6.196   7.317   4.685  1.4152  0.2035  2.8131
23145SOL     OW71441   5.654   4.088   1.182  0.4666  0.4174  0.1054
23145SOL    HW171442   5.601   4.126   1.112  1.1398  2.1717  0.5044
23145SOL    HW271443   5.677   4.000   1.149 -2.0011 -0.1078 -0.3910
23146SOL     OW71444   7.844   2.047   6.012  0.2825  0.2373  0.0383
23146SOL    HW171445   7.938   2.035   6.025  0.2377 -0.7038 -0.4478
23146SOL    HW271446   7.834   2.063   5.919 -0.2110 -1.6367 -0.2617
23147SOL     OW71447   8.197   3.035   0.036  0.9451  0.6988  0.4175
23147SOL    HW171448   8.265   2.968   0.044  1.2744  0.8986 -0.6187
23147SOL    HW271449   8.118   2.987   0.013  1.3105  0.6986 -0.9172
23148SOL     OW71450   4.261   8.334   4.989  0.1353 -0.2519 -0.2025
23148SOL    HW171451   4.167   8.335   4.975  0.1867  0.0088 -0.5354
23148SOL    HW271452   4.271   8.318   5.083 -0.2306 -0.6413 -0.2257
23149SOL     OW71453   0.852   4.280   0.930  0.1820 -0.1565 -0.6539
23149SOL    HW171454   0.761   4.249   0.931  0.4987 -1.1599 -1.2973
23149SOL    HW271455   0.846   4.372   0.908 -0.6215 -0.4759 -1.8531
23150SOL     OW71456   0.057  10.382   2.480  0.2184 -0.5051 -0.2691
23150SOL    HW171457   0.040  10.293   2.448 -0.1414 -0.1470 -1.0925
23150SOL    HW271458   0.132  10.412   2.429  0.4517 -0.3979  0.1343
23151SOL     OW71459   1.969   1.967   4.068  0.1346 -0.1010 -1.0033
23151SOL    HW171460   2.030   1.915   4.120 -0.2208  0.0265 -0.4535
23151SOL    HW271461   1.910   1.904   4.029 -2.0226 -0.0461  1.8173
23152SOL     OW71462   5.606   4.461   3.238  0.1950  0.2094 -0.5112
23152SOL    HW171463   5.539   4.420   3.183  0.3477  0.9264 -1.2411
23152SOL    HW271464   5.627   4.393   3.303 -0.9508 -0.1608 -0.5001
23153SOL     OW71465   9.764   0.532  10.236 -0.4196  0.1871 -0.1886
23153SOL    HW171466   9.735   0.442  10.249  0.2095  0.2451  2.1892
23153SOL    HW271467   9.724   0.580  10.309  1.5181  1.2429  0.2457
23154SOL     OW71468   5.199   8.420   2.448  0.3520 -0.4738  0.2022
23154SOL    HW171469   5.126   8.480   2.462  0.1801 -0.7751  0.6230
23154SOL    HW271470   5.163   8.350   2.394  0.3404 -0.6000  0.3729
23155SOL     OW71471   3.389   5.893   2.246 -0.0645 -0.0923 -0.1750
23155SOL    HW171472   3.349   5.825   2.300 -0.0572 -0.8089 -1.0516
23155SOL    HW271473   3.454   5.847   2.194 -0.0003  0.5998 -0.7207
23156SOL     OW71474  10.164   3.103  11.031 -0.7217 -0.1362 -0.0424
23156SOL    HW171475  10.234   3.123  10.969 -1.3074  1.8181 -0.1354
23156SOL    HW271476  10.148   3.009  11.020  0.6617 -0.2631 -1.2767
23157SOL     OW71477   0.580  10.786   4.300  0.2071  0.2887 -0.5898
23157SOL    HW171478   0.581  10.858   4.238 -1.7057  0.4688 -0.4533
23157SOL    HW271479   0.533  10.820   4.376  0.6041 -0.6316  0.0936
23158SOL     OW71480   9.324   0.813   5.924  0.5730  0.3053  0.4791
23158SOL    HW171481   9.323   0.825   6.019  0.3021 -0.1859  0.5442
23158SOL    HW271482   9.416   0.796   5.903  0.7283  1.0238  0.5697
23159SOL     OW71483   4.790   3.985   2.222 -0.5271 -0.0637 -0.4652
23159SOL    HW171484   4.842   3.937   2.156  0.6186  0.8259 -0.2428
23159SOL    HW271485   4.707   4.002   2.178  0.0666  0.1556 -1.5685
23160SOL     OW71486   3.452   4.636   1.053 -0.0754  0.0892  0.4610
23160SOL    HW171487   3.361   4.650   1.026  0.2928  1.6743 -0.0737
23160SOL    HW271488   3.488   4.578   0.986 -0.7547 -0.7952  0.8432
23161SOL     OW71489   0.416   0.978   1.034  0.2333 -0.1779 -0.7757
23161SOL    HW171490   0.436   1.012   0.947 -1.3978  2.6739 -0.1648
23161SOL    HW271491   0.470   1.030   1.093  0.4498 -1.2602  0.0012
23162SOL     OW71492  11.004   4.000  10.355  0.4999  0.7352 -0.1836
23162SOL    HW171493  10.950   4.024  10.431 -0.4621 -0.4917 -0.4299
23162SOL    HW271494  10.980   4.063  10.288  1.0951  1.6138  0.4154
23163SOL     OW71495   7.625   0.528   9.631  0.0451 -0.1962  0.3740
23163SOL    HW171496   7.608   0.551   9.722 -1.2059 -1.7678  0.5741
23163SOL    HW271497   7.591   0.602   9.580 -0.3720  0.1279  1.1200
23164SOL     OW71498   1.558   6.215   1.081 -0.6359 -0.0779  0.0598
23164SOL    HW171499   1.609   6.199   1.160 -2.6641  0.5302  1.5676
23164SOL    HW271500   1.517   6.131   1.061 -2.4929  0.4109  1.4907
23165SOL     OW71501  10.411   7.502   7.644 -0.6059  0.0953  0.1228
23165SOL    HW171502  10.468   7.457   7.582 -0.3496  1.8156 -0.9578
23165SOL    HW271503  10.332   7.523   7.593 -1.3107 -0.3407  0.9955
23166SOL     OW71504   0.370   0.810   0.811  0.3002  0.1580  0.0899
23166SOL    HW171505   0.413   0.834   0.893  0.6546 -1.1253  0.2921
23166SOL    HW271506   0.323   0.729   0.831  0.2591 -0.0848 -0.9398
23167SOL     OW71507   4.275   8.227   9.553  0.6562 -0.4806 -0.1519
23167SOL    HW171508   4.253   8.148   9.505 -0.1070 -0.2922 -0.1361
23167SOL    HW271509   4.370   8.224   9.564  0.9252 -0.2750 -2.0880
23168SOL     OW71510   7.660   2.620   4.350  0.2823  0.1357  0.3491
23168SOL    HW171511   7.583   2.646   4.400 -1.5344  0.2249 -2.3125
23168SOL    HW271512   7.718   2.696   4.354 -0.9167  1.0713  0.2808
23169SOL     OW71513   8.322   4.151   1.353  0.0750  0.1856 -1.2701
23169SOL    HW171514   8.403   4.171   1.307  1.2974 -2.6233 -0.5720
23169SOL    HW271515   8.350   4.123   1.440 -1.8712  1.4646 -0.1557
23170SOL     OW71516   1.552   4.079   0.504 -0.1325  0.1681  0.2047
23170SOL    HW171517   1.631   4.076   0.451  0.7418  1.0678  1.4209
23170SOL    HW271518   1.504   4.000   0.479  0.9538 -0.1912 -0.8300
23171SOL     OW71519   0.351   3.648   3.008  0.2175 -0.2641 -0.3097
23171SOL    HW171520   0.260   3.677   2.999  0.3405 -0.0968 -1.0528
23171SOL    HW271521   0.361   3.578   2.944  0.7317  0.0100 -0.5356
23172SOL     OW71522   5.477   0.195   7.198  0.1915 -0.2162  0.0371
23172SOL    HW171523   5.571   0.193   7.218 -0.3453 -1.7422  3.0870
23172SOL    HW271524   5.469   0.257   7.126  3.2592  2.0698  1.4263
23173SOL     OW71525   6.750   1.857   8.590  0.2513  0.2153 -0.8950
23173SOL    HW171526   6.689   1.841   8.662  0.7729  0.6724 -0.3437
23173SOL    HW271527   6.777   1.769   8.561 -3.6189 -0.2782 -3.8096
23174SOL     OW71528   1.586   7.850   0.028 -0.4157  0.0433 -0.2161
23174SOL    HW171529   1.648   7.921   0.013 -0.3179 -0.0278 -0.1487
23174SOL    HW271530   1.627   7.773  -0.012 -1.8017  0.5784 -2.8621
23175SOL     OW71531   7.022   0.343   0.821 -0.4225  0.0390  0.5581
23175SOL    HW171532   7.053   0.253   0.831 -0.1907  0.0026 -0.3644
23175SOL    HW271533   7.061   0.373   0.739  1.2793  1.7541  1.9186
23176SOL     OW71534   9.797   7.661   8.587 -0.1166  0.1751  0.3767
23176SOL    HW171535   9.745   7.721   8.533 -1.5058 -2.0137 -0.8443
23176SOL    HW271536   9.875   7.643   8.535  0.8615  1.7028  1.2334
23177SOL     OW71537  11.058  11.098   9.551  0.3354 -0.0971  0.1315
23177SOL    HW171538  10.998  11.039   9.596 -0.4205  3.0546  3.7964
23177SOL    HW271539  11.138  11.046   9.539 -0.8070 -2.3527  1.5013
23178SOL     OW71540  10.555   9.996   7.961 -0.5495 -1.0314 -0.3568
23178SOL    HW171541  10.481   9.935   7.962 -1.5776  0.1419  1.1169
23178SOL    HW271542  10.515  10.082   7.966  0.9054 -0.3792  1.2406
23179SOL     OW71543  10.151   0.269   0.247 -0.1222 -0.0149 -0.1319
23179SOL    HW171544  10.226   0.323   0.223  1.2951 -1.3761  1.0156
23179SOL    HW271545  10.104   0.321   0.312  1.1100 -0.0288  0.8104
23180SOL     OW71546   1.857   4.059   1.641 -0.0754  0.3790 -0.8906
23180SOL    HW171547   1.761   4.067   1.644 -0.1433 -0.3328  2.2332
23180SOL    HW271548   1.888   4.130   1.697  1.0956 -0.6268 -0.2286
23181SOL     OW71549   5.660  10.957   0.539  0.0362 -0.0051 -0.3045
23181SOL    HW171550   5.706  10.979   0.458  1.6349  0.4206  0.6655
23181SOL    HW271551   5.699  11.013   0.605 -1.5920  0.0281  0.6948
23182SOL     OW71552   5.309   1.953   2.231  0.1812  0.0616 -0.0354
23182SOL    HW171553   5.399   1.959   2.262  0.3257 -1.8688  0.0371
23182SOL    HW271554   5.278   2.043   2.228  2.0944  0.7487 -0.0247
23183SOL     OW71555   0.224   4.071   4.133 -0.2760  0.2929  0.0895
23183SOL    HW171556   0.273   4.058   4.214 -2.2586 -0.6956  1.2075
23183SOL    HW271557   0.269   4.015   4.070  0.6755  0.2629  0.7576
23184SOL     OW71558  10.238   1.887   4.597 -0.0381  0.8023 -0.4513
23184SOL    HW171559  10.192   1.812   4.560 -0.4591  0.9543 -0.2379
23184SOL    HW271560  10.331   1.864   4.591 -0.1934 -0.1634  0.5180
23185SOL     OW71561   9.949   2.110   6.287 -0.0681  0.5001  0.3341
23185SOL    HW171562   9.900   2.119   6.369  1.7799 -0.9998  1.6863
23185SOL    HW271563   9.979   2.198   6.266  1.8816  0.5692  2.9179
23186SOL     OW71564   9.964   0.278   5.039  0.4161  0.1302 -0.9109
23186SOL    HW171565  10.005   0.202   5.080  0.2593 -0.3704 -1.6501
23186SOL    HW271566   9.994   0.274   4.948 -0.7004  0.1581 -1.2884
23187SOL     OW71567  10.990   3.074   4.800 -0.0232 -0.1960 -0.1984
23187SOL    HW171568  10.951   3.079   4.713 -1.3118 -0.8566  0.3171
23187SOL    HW271569  10.968   3.158   4.841  0.0723 -0.1234 -0.2946
23188SOL     OW71570   0.953   9.927   6.582 -0.4656 -0.1925 -0.2103
23188SOL    HW171571   0.975   9.920   6.675 -0.9443 -0.8279 -0.1358
23188SOL    HW271572   0.867   9.886   6.575 -0.1443 -0.7409 -1.0421
23189SOL     OW71573   4.434   6.340  10.911 -0.0870  0.3109  0.0006
23189SOL    HW171574   4.344   6.354  10.939 -0.1123 -1.0656  0.7167
23189SOL    HW271575   4.487   6.357  10.989  0.1870  0.1754 -0.1539
23190SOL     OW71576   6.485  10.307   0.135 -0.3295  0.5080  0.0034
23190SOL    HW171577   6.460  10.330   0.046  0.7899  0.3876 -0.3464
23190SOL    HW271578   6.401  10.296   0.181 -0.9178  1.8135 -0.6965
23191SOL     OW71579   4.410   9.159   2.377  0.5167 -0.6640 -0.0422
23191SOL    HW171580   4.463   9.138   2.301  0.6869 -1.5835  0.3266
23191SOL    HW271581   4.386   9.075   2.415 -1.9818 -0.3468 -0.7057
23192SOL     OW71582   9.459   3.508   9.229 -0.6176  0.0094  0.1189
23192SOL    HW171583   9.495   3.489   9.316  0.4330 -1.8129 -0.6371
23192SOL    HW271584   9.365   3.514   9.243 -0.4052  0.5002  1.4977
23193SOL     OW71585   0.995   5.531  10.557  0.2665  0.1331  0.0634
23193SOL    HW171586   1.074   5.563  10.600  0.4988  0.5889 -0.6851
23193SOL    HW271587   0.923   5.568  10.608  0.5209 -0.5311  0.9289
23194SOL     OW71588   7.710   4.249   8.060  0.1127  0.6221 -0.4888
23194SOL    HW171589   7.638   4.186   8.060 -1.0871  1.8748  1.5532
23194SOL    HW271590   7.785   4.199   8.094 -0.0786 -0.3845 -1.4981
23195SOL     OW71591   6.484   4.661   0.157 -0.1124 -0.0867  0.2956
23195SOL    HW171592   6.431   4.719   0.102 -1.4362 -0.3891  1.2029
23195SOL    HW271593   6.555   4.632   0.099 -1.0668  0.1339 -1.0391
23196SOL     OW71594   3.265  10.834   3.736 -0.1847  0.4739  0.0627
23196SOL    HW171595   3.194  10.897   3.745 -0.7741  0.2389 -2.2840
23196SOL    HW271596   3.231  10.753   3.776  0.2782  1.3345  2.3642
23197SOL     OW71597   9.749   7.248   2.320 -0.3139  0.0520 -0.1030
23197SOL    HW171598   9.660   7.214   2.327  0.4494 -2.8104 -2.4430
23197SOL    HW271599   9.754   7.284   2.231  0.9590 -0.2426 -0.1695
23198SOL     OW71600   3.156   2.252   3.653 -0.1660 -0.1751  0.2175
23198SOL    HW171601   3.114   2.187   3.597  1.7600 -2.1677  0.9622
23198SOL    HW271602   3.096   2.263   3.727 -1.8618  1.1228 -1.2510
23199SOL     OW71603   2.567   0.482   6.750 -0.0470 -0.6111  0.3387
23199SOL    HW171604   2.504   0.530   6.804  0.1815 -2.5012  2.4393
23199SOL    HW271605   2.604   0.548   6.692 -0.0424  1.6730  2.7547
23200SOL     OW71606   3.189   0.720   9.172  0.2756  0.1191 -0.4114
23200SOL    HW171607   3.116   0.743   9.230  1.2243 -0.9349  1.3191
23200SOL    HW271608   3.158   0.645   9.123 -0.3184  0.6195 -0.8196
23201SOL     OW71609   6.525   6.995   1.789  0.4228  0.6352  0.5166
23201SOL    HW171610   6.577   7.060   1.741  1.6740  0.5194  1.6703
23201SOL    HW271611   6.569   6.912   1.773  0.7625  0.5698  1.6999
23202SOL     OW71612   3.451  10.214   9.357 -0.6979  0.2178 -0.4838
23202SOL    HW171613   3.545  10.227   9.343 -0.1944 -0.8927  1.5008
23202SOL    HW271614   3.414  10.303   9.356  0.5093  0.7355 -0.4270
23203SOL     OW71615   7.939   3.787   0.087  0.6994  0.0786  0.2978
23203SOL    HW171616   7.978   3.798  -0.000  0.3947  0.7145  0.2312
23203SOL    HW271617   7.847   3.766   0.070  1.1422 -2.1594  0.4426
23204SOL     OW71618   7.293  10.013   2.415 -0.5404  0.1229  0.1497
23204SOL    HW171619   7.210   9.974   2.442 -0.1693  0.4249  1.8310
23204SOL    HW271620   7.289  10.104   2.446  0.7376 -0.0865  1.0323
23205SOL     OW71621   9.351   0.435   3.419  0.3291  0.2481 -0.3071
23205SOL    HW171622   9.286   0.474   3.361 -0.8266 -1.1173  0.0104
23205SOL    HW271623   9.429   0.490   3.409 -1.1952  2.6675  0.1965
23206SOL     OW71624   9.133   0.940   5.783 -0.3683  0.1677  0.1536
23206SOL    HW171625   9.183   0.877   5.833 -0.7446 -1.1026 -1.0033
23206SOL    HW271626   9.122   0.899   5.697  2.1937  3.1303 -1.8389
23207SOL     OW71627   4.740   1.497   6.524 -0.5214  0.1701 -0.6823
23207SOL    HW171628   4.789   1.569   6.563 -0.3971  0.1538 -0.8081
23207SOL    HW271629   4.774   1.490   6.435 -0.5810  0.0012 -0.6926
23208SOL     OW71630   4.628   4.401   6.611 -0.7844  0.4938 -0.3610
23208SOL    HW171631   4.655   4.423   6.700 -0.5423  0.6273 -0.4670
23208SOL    HW271632   4.640   4.306   6.605 -0.5379  0.5231 -0.3409
23209SOL     OW71633   8.177   4.484   6.017  0.1089  0.7552  0.0467
23209SOL    HW171634   8.162   4.476   5.923 -0.1353  3.3774 -0.2108
23209SOL    HW271635   8.111   4.548   6.046  0.0745 -0.1144  2.0423
23210SOL     OW71636   8.299   7.439   1.110  0.1574 -0.4666 -0.2459
23210SOL    HW171637   8.394   7.424   1.113  0.7072  2.4853  0.1627
23210SOL    HW271638   8.262   7.367   1.161  2.4014 -0.4438  1.5671
23211SOL     OW71639  10.502  11.052   3.785 -0.8364 -0.1678 -0.2020
23211SOL    HW171640  10.503  11.024   3.693 -0.6034  1.5487 -0.7671
23211SOL    HW271641  10.505  11.148   3.780  0.1477 -0.0678  1.6280
23212SOL     OW71642   4.645   5.214   5.731  0.5853  0.2929  0.1634
23212SOL    HW171643   4.716   5.235   5.670  0.4380 -0.4155 -0.2671
23212SOL    HW271644   4.569   5.262   5.697  0.7493  0.6977  0.3692
23213SOL     OW71645   8.549   3.218   2.482  0.6209  0.4912  0.2690
23213SOL    HW171646   8.473   3.251   2.434  1.1654 -1.2442 -2.0046
23213SOL    HW271647   8.511   3.172   2.557 -0.5360  0.5361 -0.2539
23214SOL     OW71648   3.945   7.911  10.056  0.3644 -0.0501 -0.0269
23214SOL    HW171649   3.968   7.889   9.966  0.7722  0.3257 -0.0190
23214SOL    HW271650   3.856   7.877  10.068  0.2184  0.1134 -0.6488
23215SOL     OW71651   8.320   0.550   4.297 -0.0744 -0.1276 -0.9402
23215SOL    HW171652   8.344   0.640   4.275  0.1022  0.2906  0.8415
23215SOL    HW271653   8.404   0.504   4.307  0.0041  0.3727  1.3978
23216SOL     OW71654  11.038   6.100   8.930 -0.0649 -0.7543  0.2855
23216SOL    HW171655  11.025   6.042   8.855 -2.8590  0.6942 -0.5303
23216SOL    HW271656  11.126   6.135   8.919 -0.0380 -1.3353 -1.7920
23217SOL     OW71657   7.960   1.855   4.684  0.0934  0.2755  0.4232
23217SOL    HW171658   7.934   1.940   4.721  1.5031 -0.3603  3.1515
23217SOL    HW271659   8.044   1.836   4.725  1.9604 -0.5596 -3.3183
23218SOL     OW71660   8.049   2.439   6.762 -0.1358 -0.4442  0.0429
23218SOL    HW171661   8.014   2.400   6.841 -2.1333  1.0211 -0.0445
23218SOL    HW271662   8.002   2.522   6.753  1.2540  0.2254 -1.7689
23219SOL     OW71663  10.007   3.889   9.453  0.6114  0.5348  0.1959
23219SOL    HW171664   9.947   3.815   9.440  0.3141  0.9669 -1.0971
23219SOL    HW271665   9.981   3.926   9.537 -0.2042  0.0397  0.1808
23220SOL     OW71666   5.106   0.373   3.438  0.5006  0.0082 -0.7627
23220SOL    HW171667   5.121   0.431   3.513  1.8684 -0.7672 -0.4115
23220SOL    HW271668   5.015   0.344   3.448 -0.3588  2.3602 -1.1679
23221SOL     OW71669   4.364   2.592   4.304 -0.6428 -0.3011 -0.1581
23221SOL    HW171670   4.425   2.570   4.233  0.2954 -2.3595  1.1953
23221SOL    HW271671   4.288   2.628   4.260  0.4681 -0.2046 -2.1029
23222SOL     OW71672   7.008   4.622   3.165 -0.5034 -0.2568  0.0399
23222SOL    HW171673   6.971   4.603   3.251 -0.6094  1.0656  0.3103
23222SOL    HW271674   7.097   4.587   3.169 -0.1625  0.6622  1.0709
23223SOL     OW71675   6.380   3.445   8.703  0.2905  0.2024 -0.0343
23223SOL    HW171676   6.310   3.491   8.657  0.1378 -0.9837 -1.0583
23223SOL    HW271677   6.359   3.352   8.691  1.5265 -0.1547  0.4504
23224SOL     OW71678   7.637   6.335  11.020 -0.2604 -0.3683  0.1173
23224SOL    HW171679   7.687   6.296  10.948  1.2515  1.4176  0.1229
23224SOL    HW271680   7.549   6.347  10.984  0.2979 -0.1077 -1.2225
23225SOL     OW71681  11.081   2.076   9.228 -0.2805  0.1800  0.1201
23225SOL    HW171682  11.037   2.069   9.313  0.0484  0.0794  0.2848
23225SOL    HW271683  11.050   2.158   9.191  0.0567  0.5365  0.6186
23226SOL     OW71684   5.835   9.127  10.220 -0.1687  0.0570 -0.3966
23226SOL    HW171685   5.884   9.206  10.245  2.6115 -0.5678 -3.2339
23226SOL    HW271686   5.886   9.055  10.258  0.6499 -0.5448 -2.4539
23227SOL     OW71687   8.389   1.749   0.510  0.2854 -0.5064  0.0107
23227SOL    HW171688   8.451   1.778   0.442 -0.5449  0.6536 -0.2869
23227SOL    HW271689   8.315   1.809   0.501 -0.6920 -1.5924  0.6568
23228SOL     OW71690   8.138  10.912   1.670 -0.6304 -0.2181  0.0229
23228SOL    HW171691   8.112  10.830   1.628 -0.3191  0.0439 -0.7093
23228SOL    HW271692   8.222  10.933   1.629 -0.8030  0.5668  0.0726
23229SOL     OW71693   3.384   8.592   6.561  0.2449  0.3324  0.2821
23229SOL    HW171694   3.339   8.520   6.517  0.2710  0.4460  0.0686
23229SOL    HW271695   3.476   8.566   6.560  0.7874  1.8513 -2.8036
23230SOL     OW71696   4.041   2.850   4.599 -0.6766 -0.0376 -0.5179
23230SOL    HW171697   3.950   2.863   4.626 -0.9661 -0.8918 -1.0575
23230SOL    HW271698   4.047   2.757   4.577  0.0856  0.2109 -1.4211
23231SOL     OW71699   8.253   2.367  10.768  0.4177  0.2235  0.3791
23231SOL    HW171700   8.198   2.444  10.774  0.0575  0.0295 -0.2779
23231SOL    HW271701   8.304   2.379  10.688  0.2528 -0.2792  0.1891
23232SOL     OW71702   1.651   4.170   8.087 -0.2099  0.3137  0.1938
23232SOL    HW171703   1.630   4.262   8.098 -2.6194 -0.2871  1.1719
23232SOL    HW271704   1.735   4.159   8.132  1.2637  2.3947 -1.8401
23233SOL     OW71705   5.272   0.810   7.554  0.4161 -0.1549  0.0540
23233SOL    HW171706   5.267   0.899   7.518  1.0020  0.8272  2.2334
23233SOL    HW271707   5.301   0.757   7.481 -0.6130  1.3150 -1.5049
23234SOL     OW71708  10.498   2.785  10.596  0.0790 -0.1345  0.2531
23234SOL    HW171709  10.593   2.769  10.594 -0.0619 -0.9130 -0.7797
23234SOL    HW271710  10.491   2.878  10.620  1.2043  0.5547 -1.7881
23235SOL     OW71711   2.899   0.225   1.182 -0.3363  0.4632 -0.2376
23235SOL    HW171712   2.980   0.227   1.234 -2.1376  0.2062  2.8496
23235SOL    HW271713   2.842   0.289   1.225 -1.7807  0.7347 -2.3949
23236SOL     OW71714   8.691   7.388   6.227 -0.2375 -0.4366  0.5184
23236SOL    HW171715   8.778   7.423   6.247  1.1909 -1.4995 -2.9067
23236SOL    HW271716   8.706   7.294   6.215 -2.0393 -0.7688  0.6466
23237SOL     OW71717   9.118   7.486   2.225 -0.4085 -0.0139 -0.2016
23237SOL    HW171718   9.149   7.569   2.262 -1.3503  0.1132  0.3470
23237SOL    HW271719   9.117   7.501   2.130  1.9034 -0.2927 -0.3218
23238SOL     OW71720   2.810   5.841   2.485 -0.1650 -0.2651  0.2943
23238SOL    HW171721   2.858   5.886   2.555  1.1180  0.1285 -0.8072
23238SOL    HW271722   2.749   5.784   2.531  0.4758  0.1729  1.7389
23239SOL     OW71723   9.102   7.967   3.822 -0.3575  0.2917  0.8125
23239SOL    HW171724   9.084   8.055   3.856  0.4461 -0.1934  2.6110
23239SOL    HW271725   9.064   7.908   3.886  0.0447 -0.6859  0.1818
23240SOL     OW71726   3.309   6.861   2.845  0.1497 -0.5475  0.1941
23240SOL    HW171727   3.376   6.819   2.898 -0.9421  0.3880  2.4304
23240SOL    HW271728   3.240   6.794   2.836  1.1637 -1.3972 -1.8335
23241SOL     OW71729   5.857   1.592   2.713  0.2557  0.5259 -0.2404
23241SOL    HW171730   5.793   1.656   2.680 -0.1486 -0.5864 -1.7293
23241SOL    HW271731   5.804   1.517   2.740  0.7333  0.7320  1.3815
23242SOL     OW71732   6.701  10.486   7.802 -0.0904 -0.8783  0.1463
23242SOL    HW171733   6.646  10.523   7.871 -1.7385 -0.1099 -1.4916
23242SOL    HW271734   6.767  10.553   7.786 -1.8716  0.5967 -1.4338
23243SOL     OW71735   5.636   3.157   0.469  0.2937  0.1811  0.2539
23243SOL    HW171736   5.720   3.119   0.493  0.5905 -0.4763 -1.6795
23243SOL    HW271737   5.592   3.088   0.419 -0.9825  0.8749  0.3714
23244SOL     OW71738   5.537   1.656   6.330 -0.0607 -0.2001  0.5763
23244SOL    HW171739   5.461   1.699   6.369 -0.1866 -1.4219  1.7937
23244SOL    HW271740   5.504   1.570   6.304  0.7345 -0.4890  0.4972
23245SOL     OW71741   0.620   0.623   9.515 -0.2162 -0.1478 -0.0816
23245SOL    HW171742   0.652   0.623   9.425  1.3806 -0.6302  0.4616
23245SOL    HW271743   0.694   0.595   9.568 -1.1525  0.0076  1.3925
23246SOL     OW71744   0.259  10.490   0.883  0.8412 -0.0280  0.6499
23246SOL    HW171745   0.186  10.429   0.895  0.1329  0.3643 -1.3398
23246SOL    HW271746   0.322  10.442   0.831 -0.3846  1.2957 -2.2954
23247SOL     OW71747   3.143   7.733   1.100 -0.2870  0.1866 -0.0462
23247SOL    HW171748   3.124   7.658   1.158 -1.6239  1.5015  1.3094
23247SOL    HW271749   3.212   7.781   1.145  0.1155  0.1223 -0.5904
23248SOL     OW71750   3.703   0.056   7.444  0.3895 -0.4866  0.3071
23248SOL    HW171751   3.791   0.019   7.455 -0.4194 -1.8259  3.3867
23248SOL    HW271752   3.644  -0.013   7.474 -1.7537  0.4239 -1.5438
23249SOL     OW71753   8.896   2.777   5.090  0.2939  0.0975  0.1938
23249SOL    HW171754   8.840   2.699   5.092  0.2461  0.1217 -0.1604
23249SOL    HW271755   8.843   2.846   5.130 -1.1047  0.8791 -2.7371
23250SOL     OW71756   4.721   7.666  10.566  0.0181 -0.1662  0.0386
23250SOL    HW171757   4.800   7.697  10.521 -0.5245  0.7951 -0.2946
23250SOL    HW271758   4.748   7.586  10.611  1.1720  0.1344 -0.0946
23251SOL     OW71759   7.544   4.953  10.165 -0.0276  0.1206 -0.0416
23251SOL    HW171760   7.528   5.004  10.086 -1.2746  0.1258  0.1996
23251SOL    HW271761   7.638   4.938  10.165 -0.3086 -3.0596 -3.5109
23252SOL     OW71762   4.875   0.719   4.657  0.1153  0.0090 -0.0679
23252SOL    HW171763   4.798   0.768   4.687  0.3284  0.3142 -0.0191
23252SOL    HW271764   4.925   0.702   4.737 -0.1796 -0.6791 -0.0223
23253SOL     OW71765   3.964   1.324   6.040  0.4658 -0.0630  0.1826
23253SOL    HW171766   3.961   1.258   5.970 -0.2362  1.7184 -1.5843
23253SOL    HW271767   4.034   1.384   6.012 -1.6388  2.2088 -0.5518
23254SOL     OW71768   7.916   0.808   1.841 -0.8475  0.3099  0.0659
23254SOL    HW171769   7.948   0.896   1.819  0.1222 -0.2669 -0.9696
23254SOL    HW271770   7.833   0.801   1.795  0.3789 -0.2754 -2.2121
23255SOL     OW71771   0.475   4.694   7.342 -0.1540 -0.1174  0.1281
23255SOL    HW171772   0.462   4.728   7.253 -1.1910 -2.5649 -0.7322
23255SOL    HW271773   0.492   4.601   7.330  2.2555 -0.0787  2.3887
23256SOL     OW71774   9.846   4.562   0.804 -0.1215 -0.2680  0.0609
23256SOL    HW171775   9.780   4.501   0.839 -1.2070  0.9891  0.2725
23256SOL    HW271776   9.847   4.544   0.710  0.0292 -1.0421  0.2027
23257SOL     OW71777   5.928   2.016   1.158 -0.1734  0.4505  0.0841
23257SOL    HW171778   5.920   2.109   1.180  1.2697  0.6214  0.0014
23257SOL    HW271779   5.938   2.015   1.063 -2.1052  0.0393 -0.1478
23258SOL     OW71780   6.879   4.156   8.438  0.3263 -0.4308 -0.1479
23258SOL    HW171781   6.934   4.080   8.421 -0.7087 -0.8766 -1.6005
23258SOL    HW271782   6.793   4.120   8.457 -0.3054  0.3896 -1.3810
23259SOL     OW71783   9.158   7.877   7.594 -0.3673 -0.4855 -0.0391
23259SOL    HW171784   9.107   7.881   7.513 -2.7971 -0.8272  1.3654
23259SOL    HW271785   9.144   7.962   7.635  1.5444  0.0070 -0.2882
23260SOL     OW71786   4.993   3.580   3.355  0.3495  0.1321 -0.8595
23260SOL    HW171787   4.934   3.655   3.363  0.3278  0.0080  0.2516
23260SOL    HW271788   5.079   3.614   3.379  0.2246 -0.3367  0.3114
23261SOL     OW71789   5.442   4.936   8.618  0.5065  0.0595 -0.4617
23261SOL    HW171790   5.537   4.945   8.624  0.7196  0.4599 -3.0127
23261SOL    HW271791   5.427   4.906   8.528 -1.7596 -0.4648  0.0342
23262SOL     OW71792   9.524   8.269   2.967 -0.0803  0.4704  0.3165
23262SOL    HW171793   9.561   8.329   3.032  0.6925 -0.8360  1.1271
23262SOL    HW271794   9.444   8.236   3.008  0.2083 -0.0618  0.4685
23263SOL     OW71795   6.631   0.698   8.041  0.1800 -0.1182  0.1669
23263SOL    HW171796   6.554   0.749   8.018 -0.0032 -0.2665  0.4492
23263SOL    HW271797   6.682   0.694   7.960 -0.0071  0.1548  0.0354
23264SOL     OW71798   0.526   7.057   0.217 -0.1174 -0.7375 -0.5702
23264SOL    HW171799   0.564   6.970   0.227 -1.1043 -1.1799 -0.5361
23264SOL    HW271800   0.454   7.045   0.154  0.5131  0.2952 -1.5289
23265SOL     OW71801   8.737   7.819   1.629  0.5401  0.0561 -0.0275
23265SOL    HW171802   8.694   7.887   1.681  1.6975  2.3114 -1.8179
23265SOL    HW271803   8.824   7.812   1.667  0.7201  0.2516 -0.3982
23266SOL     OW71804   9.770   8.091   1.164  0.4782 -0.2185  0.0096
23266SOL    HW171805   9.711   8.159   1.196  1.0081  1.1089 -1.6621
23266SOL    HW271806   9.835   8.080   1.233  0.9307  1.7025 -0.0397
23267SOL     OW71807   6.250   3.077   4.005 -0.0869 -0.4158  0.4298
23267SOL    HW171808   6.241   3.134   3.928 -0.5328 -0.0928  0.7130
23267SOL    HW271809   6.280   2.994   3.969 -1.0760 -0.5217 -0.2019
23268SOL     OW71810   1.079   8.777   4.469  0.1484  0.2671 -1.2137
23268SOL    HW171811   1.029   8.735   4.398  1.7807 -0.1941 -2.1443
23268SOL    HW271812   1.169   8.749   4.454  0.7521  1.3352  0.2281
23269SOL     OW71813   7.431   3.839   6.917 -0.5499  0.4961 -0.2212
23269SOL    HW171814   7.408   3.802   6.832  0.8938 -0.6130 -0.1579
23269SOL    HW271815   7.377   3.918   6.924 -2.2775 -0.5323 -1.2119
23270SOL     OW71816  10.419   5.787   3.040 -0.1761  0.7648 -0.2455
23270SOL    HW171817  10.380   5.774   3.126 -0.3509 -1.2633 -0.5815
23270SOL    HW271818  10.348   5.771   2.978  0.0358  1.8453 -0.7979
23271SOL     OW71819   5.445   3.878   1.200 -0.0315  0.1658 -0.3184
23271SOL    HW171820   5.398   3.960   1.219 -0.4490 -0.0090 -0.5799
23271SOL    HW271821   5.467   3.843   1.286  1.4156  1.2539 -0.1971
23272SOL     OW71822   9.156   2.799   5.150  0.0848 -0.0224  0.2745
23272SOL    HW171823   9.216   2.756   5.090  0.2811 -1.6202  1.5549
23272SOL    HW271824   9.075   2.811   5.100  0.5284 -0.4986 -0.5591
23273SOL     OW71825   9.008   8.281   8.525  0.0409  0.3344  0.3659
23273SOL    HW171826   9.081   8.242   8.572 -0.6522 -2.1357 -0.4350
23273SOL    HW271827   9.042   8.299   8.437 -0.0645  0.0171  0.2584
23274SOL     OW71828   2.298   5.578  10.725  0.1643 -0.2503 -0.3112
23274SOL    HW171829   2.326   5.666  10.700 -1.3121  1.0262  2.1033
23274SOL    HW271830   2.211   5.568  10.687 -0.8112  0.4912  1.6068
23275SOL     OW71831   6.612   6.775   3.033 -0.5524  0.0899  0.1077
23275SOL    HW171832   6.667   6.852   3.019 -1.1477  0.8574  1.7330
23275SOL    HW271833   6.659   6.724   3.099 -0.2939 -0.8146 -0.7670
23276SOL     OW71834   1.222   9.865   8.118 -0.0102 -0.4172 -0.0167
23276SOL    HW171835   1.203   9.890   8.209  2.6126  0.1041  0.4623
23276SOL    HW271836   1.219   9.948   8.070  1.2789 -0.2576  0.1458
23277SOL     OW71837   5.325   1.230   1.895 -0.7286  0.2122 -0.4746
23277SOL    HW171838   5.373   1.291   1.951  0.0404 -1.9914  1.4575
23277SOL    HW271839   5.307   1.155   1.952 -0.8160 -1.7607 -2.9404
23278SOL     OW71840   5.002   1.361   9.950  0.2038  0.0324 -0.0903
23278SOL    HW171841   4.947   1.414   9.892  2.1704  0.7119 -1.4446
23278SOL    HW271842   5.050   1.303   9.891  0.5347 -0.9489  1.0966
23279SOL     OW71843   2.885   6.256   6.033 -0.4755  0.1564 -0.3771
23279SOL    HW171844   2.976   6.276   6.058 -0.0089 -1.9409 -0.1810
23279SOL    HW271845   2.845   6.225   6.113 -0.5706 -1.4060 -0.9868
23280SOL     OW71846   1.532   4.075   5.539  0.5269  0.0286 -0.2363
23280SOL    HW171847   1.506   4.080   5.447 -0.4490  0.4621  0.0506
23280SOL    HW271848   1.569   4.161   5.558 -1.6459  0.8930  0.4361
23281SOL     OW71849  10.540   4.887   5.433 -0.2387  0.1024  0.2795
23281SOL    HW171850  10.472   4.950   5.455 -0.7799 -0.5444  0.4950
23281SOL    HW271851  10.492   4.808   5.406  0.3625  0.5494 -2.4402
23282SOL     OW71852   5.826   3.363   7.145 -0.5447 -0.3041  0.2569
23282SOL    HW171853   5.751   3.362   7.085  0.1759 -0.8971 -0.6581
23282SOL    HW271854   5.788   3.340   7.230 -1.4627 -0.2447 -0.1175
23283SOL     OW71855   7.400   1.817   8.730  0.0071 -0.4405 -0.1282
23283SOL    HW171856   7.439   1.904   8.717 -1.5201  0.4719  0.9694
23283SOL    HW271857   7.366   1.792   8.644  1.0324 -0.2711 -0.5996
23284SOL     OW71858   6.381   0.134   9.561  0.0153 -0.5053 -0.5938
23284SOL    HW171859   6.298   0.157   9.519 -0.5012 -1.8535 -0.3618
23284SOL    HW271860   6.412   0.057   9.513  1.3645  0.2214 -0.9499
23285SOL     OW71861   3.146   9.258  10.983 -0.2893  0.3308  0.0037
23285SOL    HW171862   3.159   9.244  11.077  0.6279 -1.6543 -0.3668
23285SOL    HW271863   3.229   9.292  10.951 -0.2144 -0.1100 -0.2779
23286SOL     OW71864   9.796   4.831   0.809  0.0127  0.2694  0.0375
23286SOL    HW171865   9.836   4.863   0.728  2.1475 -1.7682  0.1675
23286SOL    HW271866   9.785   4.737   0.795  1.3952 -0.3389  2.3984
23287SOL     OW71867   7.661   3.615   8.805  0.0604  0.0950 -0.8610
23287SOL    HW171868   7.645   3.658   8.889 -0.5805 -0.2371 -0.8070
23287SOL    HW271869   7.704   3.532   8.828 -2.4796 -1.2425 -0.6279
23288SOL     OW71870  10.252   9.336   1.593 -0.3683  0.5688  0.2044
23288SOL    HW171871  10.302   9.310   1.516 -1.0207 -1.3996  0.3772
23288SOL    HW271872  10.294   9.416   1.624  1.4148  0.0629 -0.7896
23289SOL     OW71873   3.095   8.322   1.946 -0.0162 -0.1255  0.2919
23289SOL    HW171874   3.004   8.294   1.933  0.1976 -0.1483 -1.3310
23289SOL    HW271875   3.146   8.241   1.940  0.1836  0.0009  0.2617
23290SOL     OW71876   0.784   9.692   5.801 -0.2123  0.4003 -0.1011
23290SOL    HW171877   0.842   9.750   5.851  1.0525 -2.3432  1.8941
23290SOL    HW271878   0.843   9.632   5.756 -1.3506 -2.0069  1.3932
23291SOL     OW71879   5.601   3.409   1.590  0.0573  0.1816  0.2043
23291SOL    HW171880   5.623   3.465   1.665 -0.2924  0.0761  0.3859
23291SOL    HW271881   5.686   3.386   1.552  0.2180  0.5677  0.3249
23292SOL     OW71882   7.821   0.356   1.805 -0.2267  0.7055 -0.5755
23292SOL    HW171883   7.780   0.441   1.816  2.2368  1.9517 -0.2369
23292SOL    HW271884   7.862   0.338   1.890  0.9485  0.1589 -1.2274
23293SOL     OW71885   1.198   1.827  11.096 -0.3826  0.0751  0.2493
23293SOL    HW171886   1.186   1.757  11.160  2.3347  0.0383  0.8472
23293SOL    HW271887   1.198   1.907  11.148 -1.8781  0.4026 -0.2241
23294SOL     OW71888   7.925  10.594   0.870 -0.1639 -0.0579 -0.1947
23294SOL    HW171889   7.975  10.631   0.798  1.2142  0.2680  0.8737
23294SOL    HW271890   7.893  10.671   0.918 -0.1472 -0.2648  0.1497
23295SOL     OW71891   3.528   7.334   2.821  0.5232 -0.1675 -0.8041
23295SOL    HW171892   3.537   7.286   2.739 -0.3683  0.7605 -1.4861
23295SOL    HW271893   3.445   7.304   2.858  2.1610 -2.5841  1.1947
23296SOL     OW71894   7.532   1.741   2.399 -0.5130 -0.1358 -0.3424
23296SOL    HW171895   7.444   1.770   2.375 -0.7023 -0.8011 -0.4542
23296SOL    HW271896   7.569   1.705   2.319 -1.8615 -4.1907  0.6341
23297SOL     OW71897   9.153   4.111  10.105 -0.2856  0.2004 -0.2886
23297SOL    HW171898   9.199   4.036  10.069 -0.2565  1.0406 -2.1079
23297SOL    HW271899   9.073   4.075  10.143  0.2350 -0.8602 -0.1618
23298SOL     OW71900   4.893   7.765   5.622 -0.3095  0.4865 -0.0871
23298SOL    HW171901   4.904   7.821   5.699  1.3920 -0.3720  0.3595
23298SOL    HW271902   4.943   7.808   5.553  1.1450 -0.5147  0.3049
23299SOL     OW71903   5.563   8.575   5.897 -0.1705  0.0027 -0.1754
23299SOL    HW171904   5.481   8.583   5.848  0.1817  0.5781 -0.6942
23299SOL    HW271905   5.557   8.642   5.965  0.3206  0.8167 -0.9033
23300SOL     OW71906   2.306   9.026  10.748 -0.4743  0.0918  0.2011
23300SOL    HW171907   2.377   9.064  10.697 -0.1986 -0.9910 -0.2496
23300SOL    HW271908   2.246   9.099  10.762  0.4846  0.9179  0.1844
23301SOL     OW71909   1.656   4.172   9.254  0.1653  0.2638 -0.2801
23301SOL    HW171910   1.714   4.098   9.270  1.2958  0.9492 -1.0310
23301SOL    HW271911   1.589   4.138   9.194 -0.5541 -0.6806  1.0193
23302SOL     OW71912   1.792   1.989   2.850  0.6817 -0.2681  0.4194
23302SOL    HW171913   1.706   1.991   2.894  0.5479 -0.2881  0.1613
23302SOL    HW271914   1.855   1.981   2.922  0.4277 -0.9845  0.5667
23303SOL     OW71915   1.787   9.507   6.606  0.0238  0.4757 -0.2844
23303SOL    HW171916   1.858   9.541   6.660 -1.1997  1.4907  0.7452
23303SOL    HW271917   1.829   9.485   6.522  2.0475 -1.4980  1.1097
23304SOL     OW71918   2.084   3.508  11.072 -0.0445 -0.0205  0.0782
23304SOL    HW171919   2.078   3.436  11.134  0.2329 -0.2844 -0.1931
23304SOL    HW271920   2.169   3.548  11.089 -0.4442  0.6187  0.6221
23305SOL     OW71921   6.921   1.611   5.115  0.4645 -0.3103  0.3851
23305SOL    HW171922   6.945   1.519   5.114 -1.8781 -0.9946  1.0380
23305SOL    HW271923   6.838   1.615   5.068  0.9639  1.6254 -0.4123
23306SOL     OW71924   5.678   4.707   2.770 -0.0930 -0.4117  0.1750
23306SOL    HW171925   5.731   4.717   2.691 -0.0241 -0.7288  0.1781
23306SOL    HW271926   5.693   4.616   2.797  1.3681  0.1964  1.6015
23307SOL     OW71927   8.580   8.559  10.135  0.1493  0.4456  0.0827
23307SOL    HW171928   8.503   8.511  10.105 -0.4607  1.3297  0.1789
23307SOL    HW271929   8.621   8.592  10.055  2.3037 -2.6758 -0.2570
23308SOL     OW71930  10.748   2.038   6.617 -0.2600 -0.1441  0.0384
23308SOL    HW171931  10.766   2.097   6.690  2.6052  0.5510 -1.0611
23308SOL    HW271932  10.653   2.041   6.606 -0.3865  3.5388  0.6706
23309SOL     OW71933   7.266   4.799   6.581  0.5365 -0.0295  0.1080
23309SOL    HW171934   7.296   4.889   6.566  1.5355  0.0488  2.2441
23309SOL    HW271935   7.174   4.800   6.553  0.0355  2.1232  1.5837
23310SOL     OW71936   3.608   1.565   3.512 -0.0860  0.2631 -0.0936
23310SOL    HW171937   3.561   1.575   3.430  0.5197  0.6725 -0.3953
23310SOL    HW271938   3.655   1.482   3.503  0.2528  0.4763 -0.3000
23311SOL     OW71939   8.562   5.314   3.967 -0.0533 -0.4609 -0.5555
23311SOL    HW171940   8.590   5.338   3.878  1.5883  0.2021  0.1106
23311SOL    HW271941   8.619   5.364   4.024 -1.9701  0.1449  0.9078
23312SOL     OW71942   3.058   0.293   0.253  0.8300 -0.2683  0.1766
23312SOL    HW171943   3.061   0.323   0.344 -3.0810 -1.2361  0.7945
23312SOL    HW271944   3.052   0.198   0.259 -0.9641 -0.2787 -0.9290
23313SOL     OW71945   9.518   6.362   0.970  0.1854 -0.1624  0.5533
23313SOL    HW171946   9.468   6.358   0.888  0.0200  1.2890  0.5530
23313SOL    HW271947   9.609   6.360   0.943  0.1618 -2.0893  0.5065
23314SOL     OW71948  10.388   1.527   9.112  0.0880  0.5322  0.0143
23314SOL    HW171949  10.305   1.498   9.149  0.9521 -0.7278  1.0433
23314SOL    HW271950  10.363   1.578   9.035 -1.6603  0.9905  0.8331
23315SOL     OW71951   1.415   3.784   9.273 -0.3962  0.1419 -0.5677
23315SOL    HW171952   1.454   3.820   9.193  0.2268  0.5645 -0.0903
23315SOL    HW271953   1.409   3.859   9.332  1.2762 -0.5764  0.5928
23316SOL     OW71954   5.878   5.505  10.792  0.4670  0.0964 -0.1170
23316SOL    HW171955   5.968   5.521  10.820  1.0325  0.3806 -1.9425
23316SOL    HW271956   5.877   5.530  10.700 -1.3320 -0.5111 -0.3027
23317SOL     OW71957   2.354   9.868   5.941  0.2699  0.0219 -0.6573
23317SOL    HW171958   2.355   9.952   5.986 -0.3907 -0.8630  1.0930
23317SOL    HW271959   2.426   9.819   5.981  0.0637 -0.5765 -1.0144
23318SOL     OW71960   1.505   7.578   1.510  0.1112 -0.1497  0.1025
23318SOL    HW171961   1.582   7.590   1.455 -0.3319  1.1653 -0.2681
23318SOL    HW271962   1.523   7.498   1.560  1.5944 -0.0037 -0.1607
23319SOL     OW71963   3.436   2.302   5.175  0.3378 -0.1611 -0.1219
23319SOL    HW171964   3.382   2.300   5.254  1.8098 -2.8917  0.9250
23319SOL    HW271965   3.380   2.263   5.108 -0.5669  1.2964 -0.2850
23320SOL     OW71966   6.195   0.368   2.195  0.1937  0.2553 -0.4952
23320SOL    HW171967   6.132   0.311   2.151  1.2043 -0.7252 -0.7349
23320SOL    HW271968   6.279   0.325   2.182  0.6539  0.3430  1.7064
23321SOL     OW71969   5.043   3.078   2.929  0.0475  0.3999 -0.1923
23321SOL    HW171970   4.953   3.077   2.961  0.0989  0.7808 -0.0317
23321SOL    HW271971   5.037   3.123   2.844  0.1453  0.8054  0.0112
23322SOL     OW71972   6.000   8.978   2.121 -0.0984 -0.3697  0.1971
23322SOL    HW171973   5.995   8.918   2.047  0.3025  1.3838 -1.3219
23322SOL    HW271974   5.910   8.990   2.149 -0.1301 -2.2108  1.0254
23323SOL     OW71975   2.802   5.334   2.916 -0.1247  0.1390 -0.0922
23323SOL    HW171976   2.818   5.314   3.008  0.3951 -0.3620 -0.2880
23323SOL    HW271977   2.775   5.251   2.877 -1.5283  0.5849 -0.1551
23324SOL     OW71978   4.362   9.525   2.671  0.0929  0.0422  0.6689
23324SOL    HW171979   4.281   9.572   2.691 -0.7447 -0.2880 -1.6188
23324SOL    HW271980   4.419   9.541   2.746 -0.7351  3.3498  0.7119
23325SOL     OW71981   3.863   1.797  10.687  0.0679 -1.0670  0.3732
23325SOL    HW171982   3.942   1.799  10.740 -0.1709 -1.7783  0.7772
23325SOL    HW271983   3.828   1.886  10.691 -0.1134 -1.1844  1.6785
23326SOL     OW71984   5.641   3.778   5.437  0.1041  0.2942 -0.2545
23326SOL    HW171985   5.665   3.776   5.345  1.2717 -1.3034  0.0475
23326SOL    HW271986   5.568   3.839   5.441  0.7272  1.2271 -2.0555
23327SOL     OW71987   6.003   3.586   4.195 -0.3729  0.2837 -0.3141
23327SOL    HW171988   6.097   3.605   4.197  0.0124 -1.4617  0.6415
23327SOL    HW271989   5.970   3.620   4.278 -0.1448 -0.9065  0.2964
23328SOL     OW71990   5.451   4.695   0.165  0.1634  0.1359  0.3817
23328SOL    HW171991   5.428   4.603   0.157 -0.7444  0.2513  1.3630
23328SOL    HW271992   5.403   4.739   0.095  1.6118 -0.2781 -0.9027
23329SOL     OW71993   0.988   0.568   0.148  0.6534 -1.2144 -0.7895
23329SOL    HW171994   1.039   0.501   0.105  1.7254  0.2746 -1.9422
23329SOL    HW271995   1.049   0.641   0.160 -1.0691  0.5033 -1.8978
23330SOL     OW71996   5.355   3.351   3.244 -0.7594  0.6727 -0.0643
23330SOL    HW171997   5.321   3.431   3.204 -0.7369 -0.1364 -1.7926
23330SOL    HW271998   5.391   3.301   3.171 -1.2987 -1.1818  0.8860
23331SOL     OW71999   9.270   8.403   2.311 -0.3532  0.2200  0.4274
23331SOL    HW172000   9.309   8.476   2.359 -0.2312 -0.4039  1.2848
23331SOL    HW272001   9.223   8.445   2.239  1.5449  1.0143 -0.4072
23332SOL     OW72002   3.793   7.050   7.290  0.5252  0.2194  0.1308
23332SOL    HW172003   3.777   7.103   7.211 -0.5719 -0.8886 -0.4161
23332SOL    HW272004   3.837   6.972   7.258  1.3002  0.3591  0.8181
23333SOL     OW72005   5.574   0.593   2.373  0.0979 -0.5111  0.3265
23333SOL    HW172006   5.562   0.500   2.389 -0.9620 -0.5175 -0.4632
23333SOL    HW272007   5.556   0.605   2.280 -1.3992  0.7274  0.7394
23334SOL     OW72008   8.046   7.346  10.676  0.9508 -0.1795  0.0112
23334SOL    HW172009   7.951   7.333  10.680  0.8506  0.5333  3.8459
23334SOL    HW272010   8.058   7.408  10.604 -1.2036 -1.8109 -1.8942
23335SOL     OW72011   0.322   5.493   2.470 -0.4260  0.3958 -0.1746
23335SOL    HW172012   0.403   5.494   2.418  0.0183  2.1705  0.4634
23335SOL    HW272013   0.299   5.400   2.477  2.1489 -0.2760  0.4918
23336SOL     OW72014   5.277   4.958   1.771 -0.1545  0.2174  0.3493
23336SOL    HW172015   5.305   5.049   1.761  1.7404 -0.2127  1.2917
23336SOL    HW272016   5.251   4.950   1.863 -0.1226 -0.2443  0.3221
23337SOL     OW72017   8.668   5.255  11.085  0.1340  0.6152 -0.1215
23337SOL    HW172018   8.671   5.338  11.038 -0.7187  1.0272  0.5173
23337SOL    HW272019   8.647   5.280  11.175  3.1818 -0.0063  0.8868
23338SOL     OW72020   5.186   7.904   6.091 -0.3480 -0.0404 -0.0221
23338SOL    HW172021   5.103   7.875   6.052 -0.0549 -0.6199 -0.2383
23338SOL    HW272022   5.231   7.949   6.020 -0.3018 -0.0882 -0.0233
23339SOL     OW72023   7.131   4.801   1.354 -0.1863 -0.3734  0.0257
23339SOL    HW172024   7.118   4.882   1.402 -1.3074 -0.1741 -0.5591
23339SOL    HW272025   7.075   4.811   1.276  0.1646 -1.4295 -0.3771
23340SOL     OW72026   8.576   6.576   5.909 -0.2363 -0.2267 -0.1317
23340SOL    HW172027   8.538   6.658   5.942  1.1274 -0.1784  1.4349
23340SOL    HW272028   8.556   6.577   5.815 -1.3604  1.2758  0.0789
23341SOL     OW72029   3.398  11.033   2.558 -0.3832 -0.4148 -0.2337
23341SOL    HW172030   3.451  11.083   2.620 -0.7099 -2.8607  2.2395
23341SOL    HW272031   3.461  10.994   2.498  0.4918 -1.3991  1.2447
23342SOL     OW72032   7.344   4.124   6.933 -0.2626 -0.0938 -0.0816
23342SOL    HW172033   7.371   4.215   6.940  1.0761 -0.3847 -1.1000
23342SOL    HW272034   7.252   4.124   6.959  0.3815  1.1118  2.5893
23343SOL     OW72035   6.851   7.443   1.117  0.5641 -0.0656 -0.0875
23343SOL    HW172036   6.927   7.469   1.066  0.5817  0.6652  0.3013
23343SOL    HW272037   6.884   7.380   1.180  1.0273  0.8660  0.6299
23344SOL     OW72038   8.296   1.167   4.766  0.6344 -0.0900 -0.7971
23344SOL    HW172039   8.266   1.255   4.788  2.4303  0.4764 -0.4173
23344SOL    HW272040   8.220   1.111   4.781  0.3430  0.9423  2.1450
23345SOL     OW72041   4.579   9.581   4.009 -0.3205  0.4772 -0.3149
23345SOL    HW172042   4.554   9.667   4.043 -0.7250  1.1899 -2.2823
23345SOL    HW272043   4.616   9.536   4.084 -0.4761  2.2158  0.8777
23346SOL     OW72044   1.046   3.907   3.532  0.4604 -0.1638 -0.0883
23346SOL    HW172045   0.960   3.897   3.573  0.7002  0.6587  0.6651
23346SOL    HW272046   1.026   3.923   3.439 -0.4486  3.1443  0.5328
23347SOL     OW72047  10.563   5.529   9.370  0.7155  0.1251  0.0035
23347SOL    HW172048  10.594   5.615   9.342  1.2055  0.1948  0.7458
23347SOL    HW272049  10.570   5.531   9.465  0.1566 -0.5236  0.0671
23348SOL     OW72050   3.608   3.959   8.915 -0.5460  0.0289  0.2129
23348SOL    HW172051   3.676   4.006   8.866  0.1885  0.4571  1.5839
23348SOL    HW272052   3.606   3.872   8.876 -0.1652  0.4325 -0.7359
23349SOL     OW72053   3.240   3.344   5.701 -0.0246 -0.3747 -0.1565
23349SOL    HW172054   3.207   3.312   5.617  0.4420  1.3587 -1.0384
23349SOL    HW272055   3.217   3.437   5.702 -0.3747 -0.4387  1.8285
23350SOL     OW72056   8.300   0.321   1.468  0.3465 -0.0565  0.2945
23350SOL    HW172057   8.366   0.259   1.439 -0.2268 -0.9321  0.8046
23350SOL    HW272058   8.229   0.312   1.405  0.1391 -0.1430  0.5378
23351SOL     OW72059   6.575   1.157   4.567 -0.3322  0.2354 -0.4922
23351SOL    HW172060   6.520   1.192   4.496 -1.1741  0.5959  0.3235
23351SOL    HW272061   6.665   1.168   4.534 -0.5765  2.5950 -0.5552
23352SOL     OW72062   4.054   4.469   2.918 -0.3743  0.0419  0.2352
23352SOL    HW172063   4.041   4.546   2.862 -2.9872  0.2982  1.0524
23352SOL    HW272064   3.995   4.483   2.992 -0.4388 -2.4484  0.7399
23353SOL     OW72065   1.154   4.533   6.388  0.2359 -0.2643  0.0427
23353SOL    HW172066   1.246   4.536   6.412  0.0084  0.1165  0.9345
23353SOL    HW272067   1.116   4.468   6.447  0.0813 -1.0765 -0.9164
23354SOL     OW72068   1.987   2.474   7.307 -0.1137 -0.4976 -0.1477
23354SOL    HW172069   2.039   2.544   7.268 -1.6258  2.0707  2.1393
23354SOL    HW272070   1.913   2.463   7.247  1.2098 -1.8491 -1.6678
23355SOL     OW72071   1.618   9.664  10.491 -0.4026 -0.2135 -0.1606
23355SOL    HW172072   1.596   9.745  10.537  4.0111  1.6417 -0.7633
23355SOL    HW272073   1.581   9.676  10.403  1.2287  1.9430 -0.6615
23356SOL     OW72074   5.169   9.049   0.218 -0.3341  0.3665 -0.0496
23356SOL    HW172075   5.088   9.052   0.167  0.6476  1.4294 -1.5835
23356SOL    HW272076   5.147   9.095   0.299 -1.6673 -0.6298  0.1974
23357SOL     OW72077   0.147   8.361   0.262 -0.4946 -0.0551 -0.4214
23357SOL    HW172078   0.210   8.293   0.287  0.7305  1.1994  0.0012
23357SOL    HW272079   0.105   8.325   0.184  0.4644 -1.1004 -0.5001
23358SOL     OW72080   7.404   1.915   1.880  0.4421  0.0752 -0.2141
23358SOL    HW172081   7.446   1.954   1.957 -0.9165  1.4509 -0.1309
23358SOL    HW272082   7.477   1.894   1.822  1.3919  0.3756  0.8256
23359SOL     OW72083   3.940   1.896   5.560 -0.4822 -0.8011 -0.0058
23359SOL    HW172084   4.033   1.903   5.578 -0.2783 -1.2680 -0.8076
23359SOL    HW272085   3.934   1.896   5.464 -1.3214 -0.5979  0.0339
23360SOL     OW72086   9.397   0.507   5.615  0.1446  0.2934 -0.5306
23360SOL    HW172087   9.358   0.487   5.530 -2.0854  1.8930  0.0259
23360SOL    HW272088   9.433   0.595   5.605 -1.2809  1.0260  0.4997
23361SOL     OW72089   5.156   4.932   6.453  0.1506  0.2256 -0.2250
23361SOL    HW172090   5.121   5.021   6.456 -1.2398 -0.3213  1.1014
23361SOL    HW272091   5.216   4.927   6.527  1.6797  0.5689 -1.3737
23362SOL     OW72092   6.548  10.991   6.508  0.4473 -0.3696 -0.2107
23362SOL    HW172093   6.564  11.085   6.519  2.0415 -0.3889 -1.8130
23362SOL    HW272094   6.506  10.964   6.589  1.2879  1.4504  0.9060
23363SOL     OW72095   8.753   1.012   6.559  0.4471 -0.0402  0.7358
23363SOL    HW172096   8.753   0.958   6.638  0.1573 -1.2644 -0.0765
23363SOL    HW272097   8.672   0.989   6.514  1.2197 -0.3430 -0.5620
23364SOL     OW72098   2.013   0.064   4.868 -0.3232  0.4546  0.4680
23364SOL    HW172099   2.001  -0.029   4.850 -0.6308  0.3388  1.2455
23364SOL    HW272100   2.091   0.068   4.922 -0.5056  0.6191  0.7196
23365SOL     OW72101   8.183   3.005   7.067  0.9180 -0.2007  0.0826
23365SOL    HW172102   8.255   3.039   7.120  1.5936  1.7460 -1.9269
23365SOL    HW272103   8.137   2.944   7.125  2.5722  0.5381  2.3072
23366SOL     OW72104   6.418   2.909   4.626  0.4221 -0.6102  0.1015
23366SOL    HW172105   6.438   3.003   4.622 -0.3277 -0.3346  1.8350
23366SOL    HW272106   6.495   2.871   4.668  0.8211 -0.8197 -0.8031
23367SOL     OW72107   6.973   5.269   3.582 -0.1497 -0.2502 -0.7210
23367SOL    HW172108   6.939   5.183   3.559 -1.5762  0.4317 -1.2567
23367SOL    HW272109   6.916   5.300   3.652 -0.6176  0.8864 -1.5804
23368SOL     OW72110   8.813   2.667   1.388 -0.7702 -0.4051 -0.2263
23368SOL    HW172111   8.827   2.751   1.344 -1.5686 -0.0647  0.1569
23368SOL    HW272112   8.893   2.618   1.371  0.4544  1.0781  0.9899
23369SOL     OW72113   8.309   0.484   5.036  0.2617 -0.6452 -0.3052
23369SOL    HW172114   8.356   0.567   5.034  0.2818 -0.6111  0.8281
23369SOL    HW272115   8.351   0.431   4.969  1.4313 -0.3529  0.1729
23370SOL     OW72116   7.802   3.278   7.152  0.1356  0.3196 -0.2773
23370SOL    HW172117   7.806   3.186   7.126 -0.7022  0.0286  0.5191
23370SOL    HW272118   7.729   3.314   7.101 -0.1659  0.2779  0.1141
23371SOL     OW72119   7.767   9.790   8.471  0.8340 -0.5129  0.2250
23371SOL    HW172120   7.720   9.746   8.541  0.6752 -1.8760 -0.7014
23371SOL    HW272121   7.859   9.777   8.491  0.7889 -1.2613 -0.0126
23372SOL     OW72122   9.949   2.583   5.083 -0.1041 -0.6518  0.2584
23372SOL    HW172123   9.864   2.561   5.043 -0.2021 -2.1948  1.2329
23372SOL    HW272124   9.988   2.498   5.103  0.9968  0.0627  1.2222
23373SOL     OW72125   6.199   3.072   5.025  0.0374 -0.5363  0.3682
23373SOL    HW172126   6.119   3.048   5.072 -1.0457  1.4893 -0.3399
23373SOL    HW272127   6.238   3.142   5.077  1.9907 -2.2092  1.2798
23374SOL     OW72128   5.045   4.095   7.222 -0.5987 -0.2919 -0.5280
23374SOL    HW172129   5.113   4.131   7.278 -1.4927  0.2420  0.2437
23374SOL    HW272130   5.057   4.000   7.227 -1.7929 -0.4028  2.1170
23375SOL     OW72131   9.173   1.147   0.849 -0.2438 -0.1080 -0.8723
23375SOL    HW172132   9.235   1.220   0.842  1.2411 -0.8031  2.7511
23375SOL    HW272133   9.216   1.075   0.802  0.1004  0.2952 -1.1899
23376SOL     OW72134  10.054   3.402   4.204  0.0343 -0.0673  0.1474
23376SOL    HW172135  10.032   3.467   4.271 -0.3562  0.8399 -0.8264
23376SOL    HW272136  10.149   3.410   4.195  0.2260 -0.8652  1.2365
23377SOL     OW72137   4.866   3.847   6.329 -0.6994 -0.3475  0.2447
23377SOL    HW172138   4.907   3.934   6.322  1.5663 -1.3166  0.6479
23377SOL    HW272139   4.828   3.846   6.416 -0.7118  0.2118  0.2532
23378SOL     OW72140   4.772   6.361   2.680  0.4639 -0.1407  0.1445
23378SOL    HW172141   4.760   6.266   2.679 -0.8045  0.0051 -1.5229
23378SOL    HW272142   4.776   6.383   2.773 -2.5631 -1.4693  0.7224
23379SOL     OW72143   9.063   1.607   1.013 -0.6831  0.0707  0.2688
23379SOL    HW172144   9.139   1.553   1.036 -1.8698 -2.2044 -0.8191
23379SOL    HW272145   9.075   1.688   1.063  1.5710 -0.8852  1.4193
23380SOL     OW72146   3.228   4.035   4.261 -0.0498  0.2703 -0.2890
23380SOL    HW172147   3.150   3.983   4.243 -0.5143  1.0411 -0.5440
23380SOL    HW272148   3.249   4.077   4.178 -0.1915  1.1609  0.1151
23381SOL     OW72149   5.316   7.878   0.190  0.2488 -0.4718 -0.1030
23381SOL    HW172150   5.365   7.814   0.241  1.1532 -0.5346 -1.0284
23381SOL    HW272151   5.311   7.840   0.102 -1.5704 -0.5224 -0.0273
23382SOL     OW72152   7.154   0.612   4.691 -0.1303 -0.3131  0.1331
23382SOL    HW172153   7.207   0.678   4.647 -0.0856  0.9961  2.0419
23382SOL    HW272154   7.216   0.569   4.751 -1.1461  1.4319  2.6110
23383SOL     OW72155   5.514  10.259   7.111  0.3081 -0.5080  0.3054
23383SOL    HW172156   5.568  10.267   7.033  1.8411 -0.5639  1.3255
23383SOL    HW272157   5.435  10.309   7.090  0.9292 -0.0487 -1.0570
23384SOL     OW72158   1.088   3.144   0.011 -0.3556  0.3489  0.2520
23384SOL    HW172159   1.027   3.197  -0.041  0.8969  1.7634  0.1376
23384SOL    HW272160   1.144   3.209   0.054  1.2676 -0.8918  0.0922
23385SOL     OW72161   4.290   7.455   1.257 -0.0603 -0.0101 -0.3137
23385SOL    HW172162   4.248   7.479   1.340  1.1511  0.7072  0.1256
23385SOL    HW272163   4.291   7.536   1.207 -0.9877 -0.4937 -1.1367
23386SOL     OW72164   2.878   8.392  10.703 -0.4517 -0.3837  0.0620
23386SOL    HW172165   2.858   8.485  10.717 -0.4822 -0.2029 -1.0684
23386SOL    HW272166   2.792   8.349  10.701 -0.4939 -0.2848 -0.3591
23387SOL     OW72167  10.366   0.119   8.898  0.2144 -0.1783  0.5155
23387SOL    HW172168  10.419   0.094   8.974 -0.0880 -3.9934 -0.3177
23387SOL    HW272169  10.417   0.187   8.854  1.7920  0.0585  2.5313
23388SOL     OW72170   4.490   5.475   2.143  0.0262  0.0641  0.3464
23388SOL    HW172171   4.419   5.411   2.139  0.4329 -0.3242 -1.8206
23388SOL    HW272172   4.567   5.428   2.113  0.9666  0.8319  1.4726
23389SOL     OW72173   6.727   7.161   1.690 -0.1446  0.4137  0.4485
23389SOL    HW172174   6.738   7.255   1.676  0.9085  0.1625 -0.5976
23389SOL    HW272175   6.773   7.143   1.772  0.4967  0.6633  0.1505
23390SOL     OW72176   6.078   2.654   3.894 -0.0649  0.9176 -0.1594
23390SOL    HW172177   6.154   2.699   3.931  0.5953 -0.6351  0.4730
23390SOL    HW272178   6.115   2.588   3.836 -0.8402 -0.6527  1.0436
23391SOL     OW72179   2.240   4.096   7.114 -0.4471 -0.2681 -0.1242
23391SOL    HW172180   2.295   4.142   7.177 -0.3981 -1.1598  0.5067
23391SOL    HW272181   2.151   4.127   7.133 -0.4161 -0.4282  0.3004
23392SOL     OW72182  10.139   5.913   0.547  0.6032  0.3352  0.3829
23392SOL    HW172183  10.190   5.969   0.487  0.3622  0.2090  0.0571
23392SOL    HW272184  10.094   5.852   0.489  2.5925 -1.6959  0.8232
23393SOL     OW72185   8.996   9.356  10.916  0.2462 -0.0021 -0.2854
23393SOL    HW172186   9.073   9.337  10.862 -0.2264 -1.7164 -0.4158
23393SOL    HW272187   8.925   9.371  10.853  0.1739  0.2622 -0.1459
23394SOL     OW72188   4.376   7.523   3.059 -0.1687 -0.1130 -0.1662
23394SOL    HW172189   4.326   7.577   2.998  1.8195 -0.5011 -2.2479
23394SOL    HW272190   4.430   7.585   3.108  0.6976 -0.0239 -1.2041
23395SOL     OW72191   8.239   1.336   1.086 -0.1287  0.7954  0.6786
23395SOL    HW172192   8.318   1.282   1.097 -0.7303 -0.4146 -0.6298
23395SOL    HW272193   8.261   1.418   1.130  1.6480  0.2922  0.8465
23396SOL     OW72194   2.624   4.074   3.434 -0.3131 -0.6050  0.1172
23396SOL    HW172195   2.614   4.014   3.360 -1.7698 -0.9819  0.5667
23396SOL    HW272196   2.534   4.102   3.454  0.0699 -0.3144  1.5648
23397SOL     OW72197   7.389   3.882   1.251  0.0317 -0.0554 -0.2213
23397SOL    HW172198   7.370   3.956   1.309  0.1994  0.3592 -0.6919
23397SOL    HW272199   7.307   3.868   1.203  0.0720 -0.0268 -0.2982
23398SOL     OW72200   8.106   2.811   9.910 -0.2373  0.3885 -0.4502
23398SOL    HW172201   8.091   2.890   9.962  0.5240  0.0891  0.2470
23398SOL    HW272202   8.019   2.774   9.897 -0.4331  0.3606  0.7888
23399SOL     OW72203   2.097   6.359   4.539 -0.4706 -0.1666 -0.1918
23399SOL    HW172204   2.054   6.441   4.561 -0.0334  0.2602 -0.9109
23399SOL    HW272205   2.040   6.319   4.474 -2.0276 -1.6648  1.9350
23400SOL     OW72206   0.105  10.515   6.745 -0.0765 -0.2610 -0.3072
23400SOL    HW172207   0.011  10.524   6.761 -0.0797  0.4515 -0.7049
23400SOL    HW272208   0.112  10.471   6.660 -0.0491 -2.9011  0.9696
23401SOL     OW72209   4.633   3.490   8.893  0.1589  0.3734 -0.2218
23401SOL    HW172210   4.611   3.544   8.818  0.1115 -0.8383 -1.1172
23401SOL    HW272211   4.561   3.427   8.899 -1.3017  2.0931  2.5560
23402SOL     OW72212   7.150   7.419   1.772  0.0803 -0.5445 -0.4393
23402SOL    HW172213   7.171   7.344   1.715  0.5809 -0.5794 -0.2154
23402SOL    HW272214   7.099   7.477   1.716  0.2954 -0.7253 -0.8329
23403SOL     OW72215   0.944   4.522   5.231  0.2557  0.1738  0.2804
23403SOL    HW172216   0.907   4.538   5.318 -0.6684  0.0718 -0.0896
23403SOL    HW272217   1.020   4.467   5.248  1.1653  1.6319  1.1974
23404SOL     OW72218   2.421   5.230  10.097 -0.0988 -0.2013  0.6052
23404SOL    HW172219   2.340   5.179  10.091  0.0255 -0.4455  0.9354
23404SOL    HW272220   2.411   5.280  10.178 -0.8340  1.3969 -0.4337
23405SOL     OW72221   1.909   6.810   4.947  0.0725  0.0926  0.4932
23405SOL    HW172222   1.998   6.815   4.914  0.0618 -1.2800  0.2092
23405SOL    HW272223   1.875   6.899   4.937  2.7775  1.9036  4.7080
23406SOL     OW72224   8.828   3.987   8.108  0.4212 -0.1357 -0.5438
23406SOL    HW172225   8.790   3.900   8.090  1.1645 -0.6752  0.4088
23406SOL    HW272226   8.771   4.024   8.175  1.6832 -1.0865  1.1390
23407SOL     OW72227   3.472   5.899   1.457  0.2692  0.1831  0.0552
23407SOL    HW172228   3.524   5.860   1.387  1.3045  2.5823 -0.6090
23407SOL    HW272229   3.391   5.927   1.414 -0.6145 -1.4200  0.5954
23408SOL     OW72230   7.700   0.038   0.379  0.2654 -0.8169 -0.1905
23408SOL    HW172231   7.719  -0.055   0.388 -0.8643 -0.9657  0.9886
23408SOL    HW272232   7.615   0.049   0.422  0.7979  0.9151  0.4913
23409SOL     OW72233   5.406   2.573   5.092 -0.1767 -0.1131  0.7076
23409SOL    HW172234   5.313   2.591   5.102 -0.1913  0.1544  0.1439
23409SOL    HW272235   5.410   2.506   5.023  0.1827  2.0139 -1.4528
23410SOL     OW72236   9.001   8.328   9.908 -0.3305 -0.0742  0.0988
23410SOL    HW172237   9.052   8.339   9.828  2.6292 -2.2698  1.5158
23410SOL    HW272238   8.910   8.331   9.878  0.6192 -0.8055 -3.3448
23411SOL     OW72239   4.296   4.571   4.601  0.3571 -0.0441  0.1644
23411SOL    HW172240   4.205   4.548   4.623  0.2596 -0.3753 -0.5308
23411SOL    HW272241   4.309   4.657   4.641  0.5635 -1.0457  2.4031
23412SOL     OW72242   8.219   1.624   2.265 -0.8110  0.0772 -0.0806
23412SOL    HW172243   8.160   1.588   2.331 -1.5859 -0.9667 -1.3052
23412SOL    HW272244   8.191   1.716   2.257 -1.9164 -0.2576 -0.2440
23413SOL     OW72245   8.225   5.915   5.907 -1.0609 -0.0574 -0.2804
23413SOL    HW172246   8.298   5.906   5.967 -2.5484 -1.5107  1.4308
23413SOL    HW272247   8.240   5.849   5.840  0.0054  0.7780 -0.8948
23414SOL     OW72248   1.665   9.152   2.911  0.3007 -0.1332  0.5712
23414SOL    HW172249   1.688   9.060   2.917 -1.2221 -0.7550 -1.5993
23414SOL    HW272250   1.584   9.160   2.962 -0.5441 -0.4402 -0.6805
23415SOL     OW72251   1.629   9.726   0.820  0.0995  0.3015 -0.4746
23415SOL    HW172252   1.702   9.710   0.880 -0.5146  1.1138  0.5398
23415SOL    HW272253   1.601   9.815   0.840  0.0120  0.6792 -2.1586
23416SOL     OW72254   8.912   7.427   3.149  0.2450  0.5397  0.4632
23416SOL    HW172255   8.997   7.395   3.177  0.3422  1.0670  0.7694
23416SOL    HW272256   8.849   7.372   3.196  0.4112  0.7580  0.9478
23417SOL     OW72257   3.931   3.293   4.052  0.1466 -0.2048  0.4735
23417SOL    HW172258   3.859   3.242   4.016 -0.3457  0.2127  0.8519
23417SOL    HW272259   3.888   3.364   4.101  0.7925  1.1978 -0.9093
23418SOL     OW72260   4.196   2.610   4.789  0.2310 -0.3276 -0.3874
23418SOL    HW172261   4.105   2.631   4.809  0.8366  2.0028  0.2493
23418SOL    HW272262   4.228   2.564   4.867 -0.3187 -0.9329 -0.5161
23419SOL     OW72263   9.825   4.181  10.113  0.1257 -0.0063  0.2514
23419SOL    HW172264   9.741   4.188  10.159 -0.6842  0.0194 -1.1881
23419SOL    HW272265   9.802   4.166  10.022  1.7076 -0.7133 -0.0696
23420SOL     OW72266   6.230   2.716  10.049 -0.2707  0.5472  0.1905
23420SOL    HW172267   6.245   2.671  10.132  0.0921 -1.4256 -0.8700
23420SOL    HW272268   6.173   2.656   9.999 -0.7560  1.8295 -0.8579
23421SOL     OW72269   2.700   9.258   5.416 -0.3131  0.2411 -0.3475
23421SOL    HW172270   2.673   9.196   5.484  0.6858  0.2280  0.0559
23421SOL    HW272271   2.702   9.342   5.460 -0.2095  0.3237 -0.5084
23422SOL     OW72272   4.217   4.311   1.527  0.0841  0.5705 -0.1046
23422SOL    HW172273   4.280   4.274   1.465 -0.6044  1.2967 -1.2812
23422SOL    HW272274   4.233   4.406   1.524 -1.3591  0.8189 -0.7984
23423SOL     OW72275   7.221   3.815   7.162  0.3348 -0.2807  0.2349
23423SOL    HW172276   7.294   3.855   7.209 -0.5102  0.8221  0.6595
23423SOL    HW272277   7.180   3.888   7.114 -1.6643 -0.4377  1.5820
23424SOL     OW72278   4.105   0.591   8.690  0.3018 -0.0636 -0.1500
23424SOL    HW172279   4.073   0.580   8.780  0.4266  0.0928 -0.0871
23424SOL    HW272280   4.049   0.533   8.638  0.3505 -0.2968  0.0556
23425SOL     OW72281  10.587   2.954  10.326  0.4528 -0.0736  0.2742
23425SOL    HW172282  10.573   2.875  10.378 -0.2363  0.3613  0.7765
23425SOL    HW272283  10.679   2.975  10.338  1.1982 -1.9797 -1.5821
23426SOL     OW72284   9.883   5.035   0.184 -0.4578  0.0888  0.0674
23426SOL    HW172285   9.876   4.968   0.117  1.7597  1.2182 -1.4239
23426SOL    HW272286   9.935   4.994   0.254 -1.7973 -0.7101  0.6331
23427SOL     OW72287   9.614   1.146   6.776 -0.0815  0.2999 -0.0334
23427SOL    HW172288   9.530   1.179   6.807 -0.5540 -0.2342 -0.7284
23427SOL    HW272289   9.614   1.164   6.682  0.4912  0.1099 -0.0719
23428SOL     OW72290   7.612   3.258   2.724 -0.2819  0.2262 -0.3673
23428SOL    HW172291   7.618   3.202   2.647  0.7116 -0.9973  0.5428
23428SOL    HW272292   7.546   3.323   2.702  0.2251  0.1282 -2.3734
23429SOL     OW72293   0.622   2.427   4.189 -0.0184 -0.3509 -0.0108
23429SOL    HW172294   0.567   2.480   4.132 -0.8154 -1.2837 -0.1340
23429SOL    HW272295   0.655   2.489   4.255 -0.8395  0.3151 -0.2053
23430SOL     OW72296   9.506   2.334   5.837 -0.4320  0.0570  0.4454
23430SOL    HW172297   9.591   2.375   5.856 -0.3812  0.2852 -0.2346
23430SOL    HW272298   9.528   2.245   5.810 -0.1436  0.8673 -2.2900
23431SOL     OW72299   6.493  10.936   3.797  0.0293  0.4249  0.2659
23431SOL    HW172300   6.461  10.974   3.879 -0.0883  0.2762  0.2898
23431SOL    HW272301   6.446  10.985   3.729  1.9119  2.2617  0.1727
23432SOL     OW72302   3.555   3.129   2.213  0.0753 -0.1288 -0.0033
23432SOL    HW172303   3.578   3.060   2.152  0.4683 -0.9235  1.0102
23432SOL    HW272304   3.575   3.093   2.299 -2.1250  0.2808  0.7407
23433SOL     OW72305   9.017   3.012   6.312  0.5045  0.6489  0.5883
23433SOL    HW172306   8.970   3.007   6.395 -0.1353  0.3156  0.2139
23433SOL    HW272307   8.973   2.949   6.256  0.9642  0.8382  0.0049
23434SOL     OW72308  10.593  11.029   4.457 -0.2730 -0.5179  0.2595
23434SOL    HW172309  10.660  10.960   4.455  0.7076  0.4280  0.0012
23434SOL    HW272310  10.620  11.091   4.390 -1.4915 -0.1835  0.0641
23435SOL     OW72311   9.483   4.371  10.521 -0.3703 -0.0870 -0.1495
23435SOL    HW172312   9.569   4.391  10.559 -0.6492  1.0821 -0.1060
23435SOL    HW272313   9.422   4.380  10.593 -1.1610  3.9979 -1.1109
23436SOL     OW72314   0.400   0.932   0.502 -0.0104 -0.8563 -0.4149
23436SOL    HW172315   0.477   0.887   0.468  0.8760  0.1109  0.2574
23436SOL    HW272316   0.416   1.024   0.483 -0.9273 -0.6216 -0.1158
23437SOL     OW72317   0.051   0.951   4.729 -0.3745 -0.4774 -0.4593
23437SOL    HW172318   0.018   0.870   4.689  1.2601 -0.6387 -1.6019
23437SOL    HW272319   0.145   0.937   4.736  0.1164  1.7129 -1.7248
23438SOL     OW72320   2.623   1.533   4.971 -0.2593  0.5350  0.3342
23438SOL    HW172321   2.694   1.482   5.011  0.7886  1.0508 -0.8010
23438SOL    HW272322   2.667   1.591   4.909 -1.7961 -0.4843 -1.8455
23439SOL     OW72323  10.501   2.130   3.883  0.0578 -1.3474  0.0375
23439SOL    HW172324  10.413   2.097   3.870 -0.4824 -0.3463  1.0142
23439SOL    HW272325  10.490   2.224   3.899  1.1734 -1.4057  1.3846
23440SOL     OW72326   0.960  10.941   0.590  0.1000 -0.1518  0.2146
23440SOL    HW172327   0.962  10.888   0.510  2.5116 -0.4445  0.3892
23440SOL    HW272328   1.040  10.916   0.637 -1.3745 -0.1933  2.8912
23441SOL     OW72329   5.729   3.873   7.458 -0.4091  0.2422  0.0869
23441SOL    HW172330   5.681   3.864   7.375 -0.4889  1.8740 -0.0632
23441SOL    HW272331   5.690   3.949   7.501 -0.1064 -0.3432  1.4660
23442SOL     OW72332   8.540   7.728  10.633  0.0265 -0.8250  0.0196
23442SOL    HW172333   8.511   7.800  10.689  0.9640 -0.6276  0.2584
23442SOL    HW272334   8.626   7.755  10.601 -0.7299 -0.6398 -2.0312
23443SOL     OW72335   9.498   4.881   4.207 -0.0368 -0.4062  0.1997
23443SOL    HW172336   9.544   4.814   4.258 -1.1850 -0.7828  0.7749
23443SOL    HW272337   9.428   4.912   4.266 -0.5111  0.1627 -0.6427
23444SOL     OW72338   3.313  10.133   0.668 -0.0142  0.0991 -0.3474
23444SOL    HW172339   3.400  10.157   0.701 -0.6810 -0.8067  2.3471
23444SOL    HW272340   3.255  10.200   0.704 -0.6139 -0.1060 -0.9314
23445SOL     OW72341   6.215   1.400   5.883  0.2451 -0.7586 -0.3923
23445SOL    HW172342   6.286   1.338   5.898 -0.1936 -1.3250 -0.6080
23445SOL    HW272343   6.246   1.481   5.922  1.1101 -0.9307 -0.6871
23446SOL     OW72344   6.494   4.215   9.887  0.2050 -0.1706  0.2293
23446SOL    HW172345   6.424   4.163   9.847 -0.5270  1.8964 -1.3788
23446SOL    HW272346   6.458   4.242   9.972  0.3091 -1.6071  0.7549
23447SOL     OW72347  10.767   2.404   3.512  0.2258 -0.1523  0.3178
23447SOL    HW172348  10.845   2.459   3.504 -0.3553  0.8895  1.4143
23447SOL    HW272349  10.737   2.392   3.422  1.9739 -1.0961 -0.1839
23448SOL     OW72350   8.228   8.317   0.600  0.5631 -0.3591 -0.3919
23448SOL    HW172351   8.160   8.384   0.594  0.1691 -0.7505 -0.3548
23448SOL    HW272352   8.252   8.299   0.510  1.0991  0.2566 -0.3829
23449SOL     OW72353   7.606  10.713   3.976 -0.0090 -0.4455 -0.0060
23449SOL    HW172354   7.515  10.711   3.946 -1.4896  0.0897  3.8764
23449SOL    HW272355   7.634  10.804   3.960  0.2353 -0.8174 -1.9705
23450SOL     OW72356  10.793   4.991   8.266 -0.1048  0.0143 -0.0228
23450SOL    HW172357  10.829   4.943   8.341 -0.4883  0.9202  0.7689
23450SOL    HW272358  10.840   4.957   8.190  1.5310  0.2630  0.8268
23451SOL     OW72359   7.356   1.725   0.182 -0.2936  0.5387  0.0554
23451SOL    HW172360   7.376   1.806   0.229 -0.5611  0.5527  0.1459
23451SOL    HW272361   7.262   1.714   0.191 -0.2820  0.2990 -0.0911
23452SOL     OW72362   1.379   4.993   5.693  0.0985 -0.5103 -0.4290
23452SOL    HW172363   1.323   4.984   5.770 -1.4089 -0.1949 -1.4439
23452SOL    HW272364   1.465   5.015   5.728 -0.8830  1.0990  1.0912
23453SOL     OW72365   4.362   0.901   5.992 -0.6709  1.0250 -0.0165
23453SOL    HW172366   4.419   0.825   5.978  0.3131  1.7271  0.0384
23453SOL    HW272367   4.320   0.915   5.907 -2.1866 -0.5777  0.3962
23454SOL     OW72368   9.336   9.226   6.361 -0.1091 -0.5631  0.0851
23454SOL    HW172369   9.333   9.290   6.432  0.1276  0.6204 -0.9182
23454SOL    HW272370   9.325   9.141   6.403  1.8255 -0.0641  1.7513
23455SOL     OW72371   6.458   3.820   4.300 -0.2095 -0.1659 -0.5031
23455SOL    HW172372   6.457   3.826   4.395 -0.9276  0.1805 -0.5276
23455SOL    HW272373   6.550   3.831   4.276  0.0093 -0.4862  0.1578
23456SOL     OW72374  10.372   4.682  10.254 -0.3488  0.2938 -0.3360
23456SOL    HW172375  10.461   4.717  10.244  0.1316 -1.0379 -0.9674
23456SOL    HW272376  10.320   4.728  10.188 -0.2526  1.4375  0.3673
23457SOL     OW72377  10.668   9.837   2.707 -0.2490  0.4501  0.1866
23457SOL    HW172378  10.662   9.843   2.803 -0.6588  0.1388  0.1861
23457SOL    HW272379  10.582   9.867   2.676  0.0291  0.9550 -0.1059
23458SOL     OW72380   4.785   3.823   6.584 -0.0900  0.3940 -0.4124
23458SOL    HW172381   4.873   3.835   6.619 -0.1109  0.9053 -0.5283
23458SOL    HW272382   4.742   3.764   6.646  0.9595 -1.5042 -1.4165
23459SOL     OW72383   4.178   3.806   6.151 -0.5315  0.5882 -0.2369
23459SOL    HW172384   4.209   3.745   6.218 -2.1057  0.6685  0.6031
23459SOL    HW272385   4.257   3.831   6.103  0.7560  1.0114  1.9770
23460SOL     OW72386   3.163   8.533   0.512 -0.5857  0.5885  0.4383
23460SOL    HW172387   3.230   8.600   0.517 -0.4276  0.4589  0.0727
23460SOL    HW272388   3.100   8.557   0.580  0.0709  0.4411  1.1095
23461SOL     OW72389   8.982   0.822   6.027  0.4281  0.2560  0.4635
23461SOL    HW172390   8.902   0.814   5.975 -0.0910 -0.1642  1.3006
23461SOL    HW272391   9.049   0.778   5.975  0.4493  1.8000 -0.8871
23462SOL     OW72392   8.606   2.600   6.410  0.4305  0.4503 -0.3799
23462SOL    HW172393   8.680   2.563   6.364  0.3617  0.4126 -0.4591
23462SOL    HW272394   8.538   2.532   6.407  0.2711  0.6170 -0.6117
23463SOL     OW72395   9.052   5.486   4.340 -0.4868  0.1545  0.4527
23463SOL    HW172396   8.995   5.559   4.363  0.9469  1.8280 -1.0742
23463SOL    HW272397   9.128   5.526   4.299  1.3238 -2.0736  1.4089
23464SOL     OW72398   7.276   4.007   9.402  0.4162 -0.1579 -0.0642
23464SOL    HW172399   7.237   4.089   9.433 -1.4369  0.1791 -2.9091
23464SOL    HW272400   7.361   4.033   9.365  0.0123  0.4530 -0.5931
23465SOL     OW72401   3.038   2.224   7.867  0.2735  0.1135 -0.1113
23465SOL    HW172402   3.071   2.219   7.957  0.8438 -0.4063 -0.3470
23465SOL    HW272403   2.944   2.236   7.877  0.2329 -0.6775  0.5639
23466SOL     OW72404   7.511   4.871   8.229 -0.8383  0.1855 -0.4141
23466SOL    HW172405   7.426   4.899   8.260 -0.3931 -0.4039  1.4946
23466SOL    HW272406   7.566   4.949   8.233 -0.8723  0.1897 -0.0135
23467SOL     OW72407   6.914   4.907   0.832 -0.1195 -0.6023  0.1504
23467SOL    HW172408   6.922   4.880   0.923 -0.6602 -2.0714 -0.2045
23467SOL    HW272409   6.819   4.911   0.817 -0.0336 -0.3113 -0.3317
23468SOL     OW72410  10.344   6.122   3.618  0.3584 -0.3042  0.1037
23468SOL    HW172411  10.300   6.037   3.627 -0.8315  0.3035  0.1135
23468SOL    HW272412  10.273   6.186   3.614  1.2528  0.7226  0.3196
23469SOL     OW72413   4.432   2.303   4.390 -0.1796 -0.2874  0.2892
23469SOL    HW172414   4.395   2.357   4.459  1.4107  2.1196 -0.6072
23469SOL    HW272415   4.456   2.365   4.321  1.0920 -2.2344 -1.1244
23470SOL     OW72416   1.965   4.128   6.177  0.2412  0.2561  0.2493
23470SOL    HW172417   2.018   4.189   6.126 -0.3548  0.8797  0.3602
23470SOL    HW272418   2.006   4.126   6.263  0.8189 -0.2362 -0.0305
23471SOL     OW72419   6.413   5.583   4.247  0.0129 -0.2704 -0.3902
23471SOL    HW172420   6.435   5.568   4.339 -1.7548 -0.6322  0.0016
23471SOL    HW272421   6.484   5.542   4.198  0.7645 -0.4333  0.8106
23472SOL     OW72422   8.996   6.248   7.945 -0.2515 -0.2795 -0.2609
23472SOL    HW172423   8.956   6.211   8.024  0.6292 -1.6217 -0.4081
23472SOL    HW272424   8.986   6.343   7.955  2.6250 -0.1176  3.0674
23473SOL     OW72425   7.469   9.915   1.946 -0.3921  0.0256  0.2487
23473SOL    HW172426   7.423   9.989   1.906  0.7493  1.8497  2.0619
23473SOL    HW272427   7.553   9.952   1.974 -0.1003 -1.7503  1.9593
23474SOL     OW72428   0.832   1.017   2.967  0.5059  0.1024  0.1222
23474SOL    HW172429   0.784   0.939   2.994  1.7907  0.1503  2.8618
23474SOL    HW272430   0.765   1.082   2.948 -0.5515 -1.3155 -1.2348
23475SOL     OW72431   3.831   7.361   0.161 -0.5423  0.1898  0.0306
23475SOL    HW172432   3.912   7.413   0.160 -1.0435  1.1021  2.0475
23475SOL    HW272433   3.761   7.426   0.154 -1.1293 -0.4832 -0.4270
23476SOL     OW72434   4.520  10.707   2.319 -0.1274 -0.3023 -0.1201
23476SOL    HW172435   4.610  10.727   2.294  0.3412 -1.7278  0.3311
23476SOL    HW272436   4.519  10.717   2.414 -0.4483 -0.3239 -0.1192
23477SOL     OW72437   6.532   4.302   5.015  0.2232 -0.2985 -0.0590
23477SOL    HW172438   6.554   4.220   4.970 -0.5862 -0.9289  0.6866
23477SOL    HW272439   6.534   4.280   5.108  2.2891  1.1018  0.2927
23478SOL     OW72440  10.686   3.635   3.274  0.0887  0.2595 -0.0269
23478SOL    HW172441  10.590   3.644   3.280  0.0149 -0.6323  0.2915
23478SOL    HW272442  10.702   3.602   3.186  0.2115  1.5485 -0.5118
23479SOL     OW72443   3.340  10.322   4.035  0.2184 -0.4775  0.1841
23479SOL    HW172444   3.377  10.406   4.006 -2.2497  0.0858 -1.5767
23479SOL    HW272445   3.388  10.256   3.986 -0.4532  0.1875 -1.4245
23480SOL     OW72446   4.957   1.780  10.385 -0.6876 -0.2027  0.3977
23480SOL    HW172447   4.927   1.868  10.364 -3.4964 -1.6482 -2.5182
23480SOL    HW272448   5.003   1.751  10.307 -1.2875 -1.8928  0.6294
23481SOL     OW72449   1.076   6.777   1.844 -0.4383 -0.3866  0.0736
23481SOL    HW172450   0.986   6.772   1.878 -1.1555  2.3984 -1.1393
23481SOL    HW272451   1.070   6.739   1.756 -0.2620 -0.7717  0.2247
23482SOL     OW72452   2.026  10.777   4.157 -0.3658 -0.4668 -0.3607
23482SOL    HW172453   2.003  10.761   4.249  0.2139  0.7328  0.0192
23482SOL    HW272454   2.061  10.694   4.126 -1.2052 -1.0912  0.2915
23483SOL     OW72455   7.533   3.934   1.823 -0.0585 -0.2828 -0.0051
23483SOL    HW172456   7.493   4.021   1.819  0.1205 -0.2292 -1.0142
23483SOL    HW272457   7.599   3.935   1.753 -0.7627 -1.5683 -0.7245
23484SOL     OW72458   9.352   8.804   7.939 -0.2191 -0.1305 -0.0583
23484SOL    HW172459   9.406   8.809   7.860  0.3426  1.8631  0.4105
23484SOL    HW272460   9.388   8.729   7.987 -0.7497 -1.5629 -1.7671
23485SOL     OW72461   4.817   8.790   1.179 -0.1811  0.4746  0.3065
23485SOL    HW172462   4.835   8.704   1.217 -2.9944 -1.0347 -1.5050
23485SOL    HW272463   4.739   8.821   1.224 -0.0010  1.4696 -0.0340
23486SOL     OW72464   4.620   7.904   3.005 -0.0780  0.0358  0.1754
23486SOL    HW172465   4.591   7.852   2.930 -0.1880 -0.0617  0.2840
23486SOL    HW272466   4.685   7.964   2.969  2.0984 -1.9813  0.5094
23487SOL     OW72467   8.132   3.292   9.848 -0.1582 -0.2421 -0.4721
23487SOL    HW172468   8.205   3.250   9.802 -0.3706 -0.4015 -0.6630
23487SOL    HW272469   8.094   3.222   9.901  1.6831  0.4819  1.9876
23488SOL     OW72470   3.762   7.317   3.774  0.5119  0.4269 -0.1023
23488SOL    HW172471   3.688   7.260   3.753  1.1893 -0.2233 -0.7555
23488SOL    HW272472   3.811   7.270   3.842  0.6562  0.5901 -0.0924
23489SOL     OW72473   6.916   9.075   2.108  0.4555  0.3116  0.5702
23489SOL    HW172474   6.965   9.034   2.037  1.3799  1.7338  0.3456
23489SOL    HW272475   6.847   9.125   2.064 -0.2573 -0.4437  0.8046
23490SOL     OW72476   0.810   9.746   2.474  0.2811 -0.1245 -0.0418
23490SOL    HW172477   0.769   9.750   2.388  0.2598  3.9135 -0.0267
23490SOL    HW272478   0.747   9.699   2.528 -0.8621 -0.5251 -1.6415
23491SOL     OW72479  10.232   8.535   4.918 -0.4277 -0.3004  0.1703
23491SOL    HW172480  10.307   8.584   4.883  0.0547 -0.1163  1.4053
23491SOL    HW272481  10.180   8.513   4.841  0.2154  0.7068 -0.5857
23492SOL     OW72482   4.269   7.915  10.700  0.4020 -0.2520 -0.2905
23492SOL    HW172483   4.267   8.011  10.698 -1.8460 -0.2128  0.3878
23492SOL    HW272484   4.297   7.894  10.789 -1.3389 -0.1252  0.3366
23493SOL     OW72485   3.871   9.954   1.217 -0.2332 -0.1768  0.2177
23493SOL    HW172486   3.872   9.930   1.310 -2.4750  1.0973  0.6400
23493SOL    HW272487   3.861   9.871   1.171 -0.7801 -0.6778  1.2142
23494SOL     OW72488   6.921   0.707  11.027  0.6461 -0.0503 -0.2632
23494SOL    HW172489   6.925   0.723  11.121  0.8688  0.0684 -0.2916
23494SOL    HW272490   6.921   0.612  11.018 -1.3996 -0.1093 -0.0583
23495SOL     OW72491   7.368   9.398   2.393  0.1411  0.3256 -0.4003
23495SOL    HW172492   7.280   9.401   2.356 -0.0591  0.8190  0.1127
23495SOL    HW272493   7.371   9.315   2.441 -0.5691  0.9909  0.8452
23496SOL     OW72494   8.938   4.649   0.180 -0.8165  0.3618 -0.2844
23496SOL    HW172495   8.855   4.617   0.215 -0.7785  0.1065 -0.4279
23496SOL    HW272496   8.937   4.743   0.198 -0.3733  0.0912  1.2722
23497SOL     OW72497   2.570   0.339   4.631  0.3482  0.2073 -0.3724
23497SOL    HW172498   2.647   0.364   4.581  1.9671 -2.4103  0.5755
23497SOL    HW272499   2.502   0.324   4.565  2.0503 -1.9611 -1.7976
23498SOL     OW72500   3.817   7.876   8.490 -0.0504 -0.0549 -0.0232
23498SOL    HW172501   3.806   7.930   8.412 -0.0251  0.6393  0.4470
23498SOL    HW272502   3.868   7.801   8.460  0.4848  0.5080 -0.5470
23499SOL     OW72503   0.980   8.471   2.930 -0.0038  0.1416 -0.2881
23499SOL    HW172504   0.949   8.484   2.841  0.9095  0.1907 -0.6082
23499SOL    HW272505   0.966   8.555   2.973 -1.1402 -0.0970 -0.1534
23500SOL     OW72506   4.990   2.334   3.140  0.3115  0.3605  0.6930
23500SOL    HW172507   4.998   2.239   3.153  0.2640  0.1352 -0.7647
23500SOL    HW272508   5.054   2.354   3.072  0.7032  1.4802  1.3636
23501SOL     OW72509   2.875   9.823   4.131  0.4271  0.0866  0.4324
23501SOL    HW172510   2.904   9.911   4.104  0.4466 -0.0519 -0.0133
23501SOL    HW272511   2.874   9.773   4.049 -0.9725  0.0633  0.4364
23502SOL     OW72512   6.523   6.570   0.186  0.2924  0.7937  0.3190
23502SOL    HW172513   6.440   6.589   0.143 -0.3453  0.5385  1.3951
23502SOL    HW272514   6.561   6.499   0.135  0.0903  1.2442 -0.4709
23503SOL     OW72515   2.772   5.959   7.115 -0.1669 -0.4360  0.3297
23503SOL    HW172516   2.726   5.977   7.032  0.7564  0.1842 -0.0611
23503SOL    HW272517   2.841   6.025   7.119 -0.1078 -0.5554  1.5352
23504SOL     OW72518   4.139  10.977   9.534  0.5456 -0.0668 -0.2005
23504SOL    HW172519   4.135  11.047   9.468  1.4767 -0.2773 -0.4904
23504SOL    HW272520   4.186  10.906   9.490  1.2955 -0.1643  0.7418
23505SOL     OW72521   9.619   2.352   8.220  0.3987  0.1995  0.1405
23505SOL    HW172522   9.696   2.299   8.199  0.7225  0.4974  0.5424
23505SOL    HW272523   9.546   2.291   8.216  0.6873 -0.1472  0.0174
23506SOL     OW72524   7.019   1.654   2.400  0.3611 -0.4587  0.4235
23506SOL    HW172525   7.012   1.722   2.467 -0.9497  0.5623 -0.6961
23506SOL    HW272526   7.070   1.585   2.442  1.3151  0.9832  1.7773
23507SOL     OW72527   4.915   3.258   4.347 -0.2466  0.1310  0.2279
23507SOL    HW172528   4.841   3.301   4.389  0.2041  0.5504  0.6085
23507SOL    HW272529   4.968   3.225   4.420  0.4209  0.6592  0.0001
23508SOL     OW72530   3.367   9.910   8.392 -0.2054  0.4523 -0.5047
23508SOL    HW172531   3.405   9.997   8.406 -1.1094  1.1957 -2.3435
23508SOL    HW272532   3.321   9.917   8.309 -0.8558 -1.6218 -0.3769
23509SOL     OW72533   1.694   0.566   3.586  0.4696  0.5646  0.4363
23509SOL    HW172534   1.788   0.572   3.571  0.4203 -1.4243 -0.9823
23509SOL    HW272535   1.655   0.571   3.499 -0.6141 -0.3372  0.8457
23510SOL     OW72536   9.644   3.091   1.007 -0.0220 -0.0919  0.4838
23510SOL    HW172537   9.716   3.046   1.050  0.0208 -0.1357  0.3671
23510SOL    HW272538   9.567   3.068   1.059 -0.0807 -0.7240  0.1257
23511SOL     OW72539   4.245   4.246   0.578  0.1308 -0.6970 -0.2845
23511SOL    HW172540   4.261   4.311   0.509  0.7952  0.4095  0.8689
23511SOL    HW272541   4.314   4.262   0.642 -0.3694 -1.8234  0.5565
23512SOL     OW72542   0.656   4.346   9.846  0.7449 -0.2987  0.8523
23512SOL    HW172543   0.726   4.323   9.908  1.2132  0.3977  0.5867
23512SOL    HW272544   0.623   4.430   9.877 -0.1416 -0.7296  1.1084
23513SOL     OW72545   4.431   9.710  10.936  0.1899  0.1172  0.0786
23513SOL    HW172546   4.373   9.650  10.889  0.4975  1.0937 -1.6414
23513SOL    HW272547   4.517   9.669  10.929 -0.1086 -0.8747  1.8307
23514SOL     OW72548   3.102   4.913   7.074  0.5476  0.1661  0.4727
23514SOL    HW172549   3.165   4.855   7.115  2.1132  0.7579 -0.9779
23514SOL    HW272550   3.046   4.856   7.022  1.2894 -0.1689  0.0357
23515SOL     OW72551   7.127   0.230   9.279  0.1843 -0.2179  0.0270
23515SOL    HW172552   7.188   0.196   9.213  0.3562  1.4776 -0.7427
23515SOL    HW272553   7.060   0.275   9.229 -0.0346  0.5493  0.9812
23516SOL     OW72554   7.150   1.080   8.503  0.2018  0.8039 -0.3150
23516SOL    HW172555   7.096   1.152   8.536  0.7937  0.9260  0.3980
23516SOL    HW272556   7.116   1.002   8.548 -0.8934  0.4962 -1.5921
23517SOL     OW72557   8.802   3.160   8.052 -0.2924  0.1097  0.7407
23517SOL    HW172558   8.763   3.143   8.138  0.0650 -0.9612  0.7047
23517SOL    HW272559   8.823   3.074   8.018  1.4704  0.6148  0.4653
23518SOL     OW72560   5.865   4.641   2.534 -0.2016 -0.4305  0.2174
23518SOL    HW172561   5.909   4.606   2.611  0.1726  0.6005  0.4853
23518SOL    HW272562   5.876   4.573   2.467 -1.2612 -1.7078  1.2950
23519SOL     OW72563  11.002   7.504  10.321 -0.0311 -0.1910  0.7993
23519SOL    HW172564  11.051   7.542  10.394  2.0017 -0.4195 -0.3586
23519SOL    HW272565  11.069   7.483  10.256 -1.7199 -0.3718 -0.9764
23520SOL     OW72566   0.758   7.890   3.573  0.1566  0.0929 -0.8398
23520SOL    HW172567   0.798   7.864   3.656  0.1436  4.0816  0.6593
23520SOL    HW272568   0.666   7.865   3.583  0.0153  1.0508  0.7069
23521SOL     OW72569   3.828   8.121   3.370  0.0389  0.4263 -0.3311
23521SOL    HW172570   3.854   8.088   3.284  0.9701  3.0652 -1.1876
23521SOL    HW272571   3.795   8.045   3.416 -1.7223 -0.9047 -3.4595
23522SOL     OW72572   1.180   4.467   5.893  0.0978 -0.6556 -0.0212
23522SOL    HW172573   1.253   4.426   5.939 -0.6652 -1.3228  0.6132
23522SOL    HW272574   1.140   4.397   5.843 -0.4017 -0.3952  0.0054
23523SOL     OW72575   2.692   8.993   2.342  0.1078 -0.3941 -0.2534
23523SOL    HW172576   2.771   8.952   2.378  1.1858  0.1065 -1.9445
23523SOL    HW272577   2.620   8.954   2.392  1.3197 -1.8655  0.4219
23524SOL     OW72578   2.711   8.556   2.088  0.2307  0.1696  0.4503
23524SOL    HW172579   2.803   8.529   2.082  0.2797  0.5962 -2.3528
23524SOL    HW272580   2.708   8.640   2.042 -1.2558  1.1780  2.2585
23525SOL     OW72581   4.085   4.510   2.094 -0.5006 -0.1267  0.4958
23525SOL    HW172582   4.016   4.528   2.158 -0.2640 -2.4874  1.4894
23525SOL    HW272583   4.164   4.494   2.146  0.4644  0.9685 -0.5525
23526SOL     OW72584   8.619   1.610  10.984 -0.6013 -0.1636 -0.1543
23526SOL    HW172585   8.619   1.557  10.905 -1.1280 -0.9376  0.3502
23526SOL    HW272586   8.533   1.652  10.986 -0.5084  0.0268 -0.1090
23527SOL     OW72587   2.486   6.830   6.117  0.1862 -0.3586  0.1603
23527SOL    HW172588   2.560   6.771   6.130 -0.1788 -0.7856  0.2810
23527SOL    HW272589   2.527   6.915   6.098  0.7047 -0.4051  1.0505
23528SOL     OW72590   7.827   6.332   9.351  0.1381 -0.2195  0.2469
23528SOL    HW172591   7.843   6.255   9.406 -0.2467 -0.6144 -0.1737
23528SOL    HW272592   7.797   6.400   9.411  1.4491 -0.0780  0.7649
23529SOL     OW72593   3.589   2.644   1.509 -0.4396  0.5417  0.1708
23529SOL    HW172594   3.639   2.688   1.441 -0.8153  0.0857 -0.4168
23529SOL    HW272595   3.502   2.633   1.471 -0.0114 -1.9403 -0.2941
23530SOL     OW72596   6.666  10.784   5.541  0.0156 -0.1686 -0.1356
23530SOL    HW172597   6.582  10.740   5.547  0.5527 -1.1480  0.5782
23530SOL    HW272598   6.655  10.865   5.591 -1.1467  0.8233 -1.9158
23531SOL     OW72599   8.509   1.137   8.002  0.1042  0.0273 -0.1865
23531SOL    HW172600   8.437   1.184   8.045  1.0420 -0.5093  2.1264
23531SOL    HW272601   8.511   1.174   7.914 -2.3717  0.7322 -0.0459
23532SOL     OW72602   6.098   9.412   9.827 -0.1980  0.3648 -0.0685
23532SOL    HW172603   6.177   9.454   9.793  0.0414 -0.2129 -0.2329
23532SOL    HW272604   6.043   9.399   9.750 -0.7711  1.4122  0.1417
23533SOL     OW72605   5.392   2.967   9.762  0.5641  0.0628 -0.0213
23533SOL    HW172606   5.310   3.012   9.743  0.0031 -1.2263 -0.7372
23533SOL    HW272607   5.450   2.992   9.689  1.0146  1.3761  0.7430
23534SOL     OW72608   7.384   3.864   2.669 -0.5486  0.1066 -0.1714
23534SOL    HW172609   7.392   3.856   2.764 -0.6412 -1.3088 -0.2608
23534SOL    HW272610   7.290   3.880   2.655 -1.2363 -3.1888 -0.1541
23535SOL     OW72611   5.146   7.159   2.093  0.2961  0.2898 -0.1543
23535SOL    HW172612   5.219   7.134   2.038  1.3066  0.7420  0.9354
23535SOL    HW272613   5.073   7.173   2.032  0.3715 -2.5928 -1.0641
23536SOL     OW72614   1.238   3.208   2.326 -0.1538  0.3303 -0.2402
23536SOL    HW172615   1.160   3.181   2.373 -1.8824  0.2870 -2.9182
23536SOL    HW272616   1.265   3.129   2.277 -0.3322  1.1451 -1.7203
23537SOL     OW72617   7.234   1.086   9.443  0.2025 -0.2274  0.4589
23537SOL    HW172618   7.273   1.164   9.482  0.9099 -0.9274  1.1841
23537SOL    HW272619   7.207   1.032   9.518 -0.3942 -0.6345 -0.0322
23538SOL     OW72620   6.563   7.099   1.091  0.0971 -0.5077  0.2784
23538SOL    HW172621   6.658   7.095   1.077  0.2303 -2.2164  1.2685
23538SOL    HW272622   6.537   7.007   1.102 -1.8111 -0.1420 -0.7474
23539SOL     OW72623   7.211   2.520   1.376 -0.0011  0.1355 -0.0759
23539SOL    HW172624   7.139   2.531   1.438 -0.9028 -0.2044 -1.0360
23539SOL    HW272625   7.262   2.446   1.411  0.9507  1.4950  1.5713
23540SOL     OW72626   7.861   1.825   7.245 -0.0563 -0.5178 -0.3504
23540SOL    HW172627   7.954   1.817   7.268  0.0591 -1.5376 -1.1218
23540SOL    HW272628   7.816   1.831   7.330  0.3745 -4.0587  0.3159
23541SOL     OW72629   6.478   5.827   2.438 -0.3440  0.0692  0.5365
23541SOL    HW172630   6.492   5.922   2.438  0.1142  0.0021  0.6452
23541SOL    HW272631   6.565   5.790   2.430 -0.6662 -0.3190 -1.7966
23542SOL     OW72632   4.941   7.276   1.491 -0.0893  0.4079 -0.1323
23542SOL    HW172633   4.899   7.206   1.441 -1.2148  1.8001 -1.2513
23542SOL    HW272634   4.883   7.290   1.566  0.1474  0.1247  0.1031
23543SOL     OW72635   9.123   4.837   4.446  0.0767 -0.1621  0.4980
23543SOL    HW172636   9.177   4.885   4.384 -1.5651  1.8676  0.5182
23543SOL    HW272637   9.037   4.880   4.442 -0.4186 -0.6777  3.3182
23544SOL     OW72638   8.066   0.534   7.741 -0.2462 -0.4071 -0.2732
23544SOL    HW172639   8.052   0.550   7.834 -1.2294 -1.3260 -0.2416
23544SOL    HW272640   8.064   0.439   7.733  0.8576 -0.3724 -1.0927
23545SOL     OW72641  10.434  10.429   4.753 -0.0935 -0.0638  0.3395
23545SOL    HW172642  10.352  10.462   4.717 -0.5674 -1.0305  0.5196
23545SOL    HW272643  10.418  10.336   4.769  1.4661 -0.5975 -0.9106
23546SOL     OW72644  10.412   8.982   2.784  0.1382  0.1918  0.7389
23546SOL    HW172645  10.326   9.024   2.784  0.4083  0.9618 -1.8074
23546SOL    HW272646  10.449   9.003   2.698  2.5283 -0.8467  1.4106
23547SOL     OW72647   0.263   1.086   5.946 -0.4394  0.3763  0.0508
23547SOL    HW172648   0.221   1.172   5.949 -0.8574  0.2651 -1.7040
23547SOL    HW272649   0.351   1.103   5.913 -0.2763  0.2128  0.4006
23548SOL     OW72650   5.973   1.520   4.410 -0.1811  0.2570 -0.9265
23548SOL    HW172651   5.932   1.543   4.494  0.1120 -0.1331 -0.6689
23548SOL    HW272652   5.981   1.425   4.413  1.9632  0.3920 -0.3556
23549SOL     OW72653   5.908  10.213   6.011  0.4329  0.1300 -0.3619
23549SOL    HW172654   5.943  10.243   6.095  0.5661  0.1046 -0.4079
23549SOL    HW272655   5.879  10.123   6.028 -0.8195  0.5916  0.0186
23550SOL     OW72656   6.590   5.243   3.413  0.6289  0.4723  0.2622
23550SOL    HW172657   6.626   5.332   3.424  0.2813  0.5610  0.7138
23550SOL    HW272658   6.660   5.186   3.445  0.3988  0.6434  1.1122
23551SOL     OW72659   5.635   1.670   7.188  0.4838  0.3049 -0.8276
23551SOL    HW172660   5.653   1.653   7.096 -0.4935  1.1907 -1.1994
23551SOL    HW272661   5.626   1.765   7.194  0.2153  0.2316  0.1249
23552SOL     OW72662  10.455   3.940   8.739  0.7534  0.0219  0.1729
23552SOL    HW172663  10.365   3.972   8.750  0.6393  0.2670 -1.3126
23552SOL    HW272664  10.505   3.986   8.805  0.2382  1.8641 -0.6688
23553SOL     OW72665   7.178   8.573   3.362  0.3096 -0.6416  0.2910
23553SOL    HW172666   7.168   8.480   3.341  1.0925 -0.5941 -0.3697
23553SOL    HW272667   7.088   8.606   3.367 -0.0488 -0.6970 -3.0070
23554SOL     OW72668   8.164   9.794   1.846 -0.2165  0.1311  0.3551
23554SOL    HW172669   8.247   9.773   1.888 -0.3828 -0.7552  0.2490
23554SOL    HW272670   8.150   9.723   1.783  0.1281  1.5076 -1.3635
23555SOL     OW72671   8.361   0.206   5.754  0.3429  0.2508  0.3083
23555SOL    HW172672   8.455   0.208   5.736  0.5709 -0.6913  1.2762
23555SOL    HW272673   8.343   0.287   5.802  0.3500  1.1696 -1.1761
23556SOL     OW72674  10.856   3.141   2.494  0.7294  0.0410 -0.1921
23556SOL    HW172675  10.940   3.113   2.530  1.4745  2.0437 -0.2671
23556SOL    HW272676  10.805   3.168   2.570  0.5641 -0.1199 -0.2454
23557SOL     OW72677   2.216   2.348   1.379  0.5703  1.1109  0.1890
23557SOL    HW172678   2.136   2.398   1.361  0.5621  0.9517 -0.2101
23557SOL    HW272679   2.194   2.295   1.456 -0.7751 -1.2826 -1.6916
23558SOL     OW72680   8.939   0.393   2.966  0.3551  0.0307 -0.1362
23558SOL    HW172681   8.984   0.386   3.050 -0.6111 -1.2640  0.3099
23558SOL    HW272682   8.930   0.303   2.936 -0.9036  0.3371 -0.7530
23559SOL     OW72683   6.330   9.023   0.559  0.1210  0.3343  0.0381
23559SOL    HW172684   6.238   9.035   0.534  0.0943  0.1750  0.0574
23559SOL    HW272685   6.376   9.011   0.476  0.0567 -0.0379  0.0563
23560SOL     OW72686   5.256  10.920  10.658 -0.1415 -0.1954 -0.5079
23560SOL    HW172687   5.341  10.911  10.615 -0.1163 -1.1226 -0.2963
23560SOL    HW272688   5.276  10.912  10.751 -0.4875 -0.6943 -0.4736
23561SOL     OW72689   8.341   0.393   9.318  0.2977  0.4718  0.8631
23561SOL    HW172690   8.254   0.359   9.337 -0.4223  1.0541 -1.2236
23561SOL    HW272691   8.393   0.316   9.295  0.2753  0.1698  1.7651
23562SOL     OW72692   9.215   9.861   0.002 -0.1694 -0.1259 -0.4402
23562SOL    HW172693   9.197   9.925   0.070 -1.2029 -2.5708  1.7747
23562SOL    HW272694   9.311   9.857  -0.002 -0.0967  1.3845 -0.4819
23563SOL     OW72695   6.351   2.593   5.153 -0.3102 -0.1326  0.6266
23563SOL    HW172696   6.324   2.535   5.224  1.4056  0.1271  1.5604
23563SOL    HW272697   6.278   2.655   5.143 -1.4887 -1.4731  0.6711
23564SOL     OW72698   1.615   3.713   6.238  0.1602 -0.7638 -0.0823
23564SOL    HW172699   1.664   3.752   6.165 -0.2227 -1.3789 -0.6771
23564SOL    HW272700   1.643   3.763   6.315 -0.4981  0.8704 -0.8454
23565SOL     OW72701   8.159   9.389   3.950  0.3841 -0.2627  0.3454
23565SOL    HW172702   8.225   9.339   3.902  1.8922  3.3270 -1.7777
23565SOL    HW272703   8.205   9.420   4.028 -0.0276 -0.7986  0.8108
23566SOL     OW72704   9.340   0.011   3.502 -0.5264 -0.2278 -0.6386
23566SOL    HW172705   9.247   0.018   3.524 -0.3943 -0.7297  0.1386
23566SOL    HW272706   9.385   0.031   3.584  0.1972  3.6330 -1.7736
23567SOL     OW72707   5.210   7.420   5.915 -0.2713 -0.0206  0.1662
23567SOL    HW172708   5.201   7.361   5.841  1.6286 -0.7886  0.4810
23567SOL    HW272709   5.291   7.468   5.898 -0.1445  0.2481  1.4067
23568SOL     OW72710   5.438   2.625   3.706 -0.9282  0.7942  0.0732
23568SOL    HW172711   5.422   2.587   3.793 -0.4760  0.8910  0.1994
23568SOL    HW272712   5.477   2.710   3.724  2.1552 -0.4533 -0.2262
23569SOL     OW72713   9.478   2.643   0.594 -0.2422 -0.1358 -0.1026
23569SOL    HW172714   9.566   2.607   0.601  0.9101  1.5277 -3.7995
23569SOL    HW272715   9.425   2.571   0.558  0.9162  0.2333 -2.7852
23570SOL     OW72716   7.714   1.579   6.212 -0.3050 -0.7798  0.3527
23570SOL    HW172717   7.646   1.578   6.144  1.9777 -0.2812 -2.1312
23570SOL    HW272718   7.751   1.490   6.211 -0.4311 -0.8437  1.1371
23571SOL     OW72719   9.228   2.395   8.087  0.0846 -0.0159  0.1305
23571SOL    HW172720   9.150   2.432   8.130  0.6759  1.8137 -0.3017
23571SOL    HW272721   9.203   2.388   7.995  0.3592  0.3793  0.0250
23572SOL     OW72722   9.142   4.899   5.836  0.3517 -0.1059 -0.3710
23572SOL    HW172723   9.085   4.972   5.815  0.2919 -0.6081 -2.0917
23572SOL    HW272724   9.189   4.881   5.755  1.2918 -1.1665  0.3767
23573SOL     OW72725  10.130   1.670   4.834  0.1569 -0.1087 -0.1796
23573SOL    HW172726  10.151   1.749   4.785 -1.5002 -0.2209 -1.1395
23573SOL    HW272727  10.159   1.598   4.778 -1.3963 -0.2284 -0.8714
23574SOL     OW72728   8.673   6.388   1.744  0.0870  0.5345  0.4658
23574SOL    HW172729   8.608   6.318   1.749  0.9173 -0.2954  0.0285
23574SOL    HW272730   8.727   6.375   1.822  1.3744 -0.4993 -0.5516
23575SOL     OW72731   4.715   8.695   9.476 -0.3022  0.1846  0.0088
23575SOL    HW172732   4.682   8.711   9.565 -2.6286 -1.1188 -0.5250
23575SOL    HW272733   4.705   8.779   9.432 -0.4124  0.5075  0.6357
23576SOL     OW72734   6.382   5.869   1.625 -0.1143 -0.6726 -0.3390
23576SOL    HW172735   6.394   5.830   1.712 -0.4583  0.7661  0.3757
23576SOL    HW272736   6.344   5.955   1.642 -1.3837 -0.8509 -1.9852
23577SOL     OW72737   6.461   3.464  10.350 -0.5137 -0.0513 -0.0349
23577SOL    HW172738   6.389   3.429  10.298 -0.6261 -1.3801  0.9446
23577SOL    HW272739   6.540   3.426  10.311 -0.5783 -0.8257  0.5480
23578SOL     OW72740   2.973  10.425   3.862  0.0433  0.0947  0.0837
23578SOL    HW172741   2.971  10.331   3.840 -0.7278  0.2819 -0.7172
23578SOL    HW272742   2.982  10.469   3.778  0.9542  0.7416  0.5038
23579SOL     OW72743   5.579   5.138   5.750  0.1631  0.1163 -0.3031
23579SOL    HW172744   5.664   5.176   5.730  0.5978 -0.7185 -0.1093
23579SOL    HW272745   5.523   5.212   5.770  1.6234  0.5541  2.5408
23580SOL     OW72746   8.115   2.208   2.542  0.3296 -0.5235  0.0330
23580SOL    HW172747   8.077   2.296   2.534  0.9035 -0.2846 -0.1327
23580SOL    HW272748   8.173   2.201   2.466  0.6322 -0.8706  0.2990
23581SOL     OW72749   2.762   2.099   0.899 -0.0817 -0.1762 -0.1825
23581SOL    HW172750   2.838   2.144   0.862  0.0557 -0.5061 -0.3028
23581SOL    HW272751   2.782   2.006   0.889  0.3262 -0.2990  1.4757
23582SOL     OW72752   6.527   6.429   5.556 -0.0196  0.5003  0.3824
23582SOL    HW172753   6.521   6.524   5.570 -0.0820  0.2286  2.6646
23582SOL    HW272754   6.616   6.407   5.583 -0.1742 -0.1441  0.3711
23583SOL     OW72755   6.218   1.765   5.184 -0.4755 -0.1952  0.4539
23583SOL    HW172756   6.212   1.824   5.108 -0.5478 -0.1739  0.4763
23583SOL    HW272757   6.178   1.683   5.153 -0.4640 -0.2007  0.4540
23584SOL     OW72758   6.910   2.931   0.608 -0.2185  0.2522  0.1243
23584SOL    HW172759   6.971   2.863   0.636  1.0428  0.9129 -0.9439
23584SOL    HW272760   6.932   2.948   0.516 -3.0204 -0.5648 -0.8079
23585SOL     OW72761   6.816   7.745   7.885  0.1037 -0.6051  0.6995
23585SOL    HW172762   6.858   7.676   7.937 -0.1938 -0.8271  0.6458
23585SOL    HW272763   6.767   7.797   7.949  1.9203  0.7928  1.0667
23586SOL     OW72764   8.413  11.099   8.701  0.2406 -0.2204  0.1960
23586SOL    HW172765   8.334  11.047   8.715 -0.0220  0.0590 -0.2254
23586SOL    HW272766   8.428  11.143   8.785 -0.0894 -0.2282  0.2603
23587SOL     OW72767   7.973   8.052   4.750 -0.1486  0.3764 -0.2886
23587SOL    HW172768   8.056   8.004   4.753  0.8328  1.9789  2.6762
23587SOL    HW272769   7.911   7.996   4.798 -0.8892 -0.8030 -2.4707
23588SOL     OW72770   6.480   4.727   0.652  0.5717 -0.3604 -0.0297
23588SOL    HW172771   6.462   4.782   0.576  0.1260  1.0746  1.0810
23588SOL    HW272772   6.555   4.673   0.626  0.9957  0.7406 -1.1510
23589SOL     OW72773   6.583   0.996   5.458  0.0912  0.5314 -0.2420
23589SOL    HW172774   6.601   0.904   5.473  1.1074  0.3836 -2.1230
23589SOL    HW272775   6.657   1.042   5.499  1.8346  0.2326 -2.8372
23590SOL     OW72776  11.011   1.948   5.234  0.2504  0.6716 -0.1462
23590SOL    HW172777  10.920   1.961   5.208 -0.0695 -0.0719  0.5297
23590SOL    HW272778  11.007   1.936   5.329  1.0633  0.7077 -0.0973
23591SOL     OW72779   0.121   9.329   0.167 -0.6737  0.2731 -0.0817
23591SOL    HW172780   0.047   9.282   0.204 -1.2548  0.7875 -0.5736
23591SOL    HW272781   0.088   9.417   0.149 -0.1427  0.3188 -0.9219
23592SOL     OW72782   1.924   3.512   2.203  0.5613 -0.6139  0.2421
23592SOL    HW172783   1.835   3.539   2.227  0.1846 -1.2806 -0.3841
23592SOL    HW272784   1.971   3.509   2.286 -0.0940 -0.5765  0.6195
23593SOL     OW72785   1.317   3.898   6.663  0.2320 -0.8411  0.3743
23593SOL    HW172786   1.227   3.916   6.689 -0.3151 -2.4919 -0.2110
23593SOL    HW272787   1.368   3.907   6.743 -0.6391 -1.0222  0.9670
23594SOL     OW72788  10.880   9.406   3.241 -0.2758 -0.5046  0.9777
23594SOL    HW172789  10.845   9.399   3.330 -0.5353 -1.6384  0.8113
23594SOL    HW272790  10.840   9.333   3.195  1.8797 -1.5478  0.6227
23595SOL     OW72791   7.496   9.970   1.110  0.3936 -0.0195  0.5444
23595SOL    HW172792   7.441   9.925   1.046  1.1295 -1.8522  1.1554
23595SOL    HW272793   7.469   9.934   1.195  0.7132  1.0230  1.1107
23596SOL     OW72794   2.464  10.838   5.797 -0.1200 -0.7798 -0.0906
23596SOL    HW172795   2.550  10.818   5.760  1.3916  1.5290  1.8701
23596SOL    HW272796   2.423  10.895   5.732  1.9670  2.1477  0.8961
23597SOL     OW72797   5.590   1.747   1.385 -0.4761  0.0792  0.4173
23597SOL    HW172798   5.658   1.690   1.423 -0.3366 -0.6342 -0.8527
23597SOL    HW272799   5.639   1.816   1.341 -0.6068  0.2570  0.5503
23598SOL     OW72800   6.115   1.390   5.556  0.2743  0.2053 -0.3871
23598SOL    HW172801   6.087   1.472   5.596 -1.9171 -0.9261  0.5643
23598SOL    HW272802   6.131   1.331   5.629  0.9221 -0.4992 -1.0751
23599SOL     OW72803   7.501   8.678   2.311  0.0663 -0.3786 -0.3696
23599SOL    HW172804   7.425   8.659   2.366 -1.8309  1.0309 -2.3653
23599SOL    HW272805   7.510   8.773   2.314  0.8392 -0.4051 -1.3295
23600SOL     OW72806   9.746   5.950   7.624  0.3382  0.1381 -0.0702
23600SOL    HW172807   9.835   5.952   7.660  0.5347  1.1548 -0.6041
23600SOL    HW272808   9.758   5.932   7.531 -0.1046 -1.0962  0.0858
23601SOL     OW72809   8.765   3.594   9.452  0.0054  0.1189 -0.2620
23601SOL    HW172810   8.785   3.668   9.395 -1.2792  1.4366  0.8888
23601SOL    HW272811   8.723   3.634   9.529  0.8731 -1.6576  1.2075
23602SOL     OW72812   6.134   5.934   5.819 -0.5534 -0.0797  0.0196
23602SOL    HW172813   6.110   6.007   5.762  1.5475  0.7695  0.1581
23602SOL    HW272814   6.068   5.936   5.889 -2.6302 -0.5902 -1.8280
23603SOL     OW72815   0.878   7.560   4.650 -0.3469  0.1888 -0.2521
23603SOL    HW172816   0.866   7.474   4.691 -2.0333  0.4347 -0.1343
23603SOL    HW272817   0.969   7.561   4.622 -0.1845 -1.4779  0.1024
23604SOL     OW72818   7.203   1.112   7.530 -0.4021 -0.1466  0.2920
23604SOL    HW172819   7.156   1.186   7.492  1.2002  1.2598  0.8983
23604SOL    HW272820   7.295   1.137   7.523  0.0765 -1.0728  2.5392
23605SOL     OW72821   7.695   2.989   9.797 -0.1181  0.1180  0.3699
23605SOL    HW172822   7.619   3.043   9.778 -1.0522 -1.5213 -0.7835
23605SOL    HW272823   7.726   2.959   9.711  1.3811  0.1347  0.8626
23606SOL     OW72824   8.977   7.611   6.818 -0.5485  0.2596  0.4347
23606SOL    HW172825   9.029   7.540   6.855  0.5799  0.3206 -0.9348
23606SOL    HW272826   8.894   7.569   6.793 -0.5172 -0.2139  1.0930
23607SOL     OW72827   6.449   9.290   1.507  0.0042  0.0415 -0.1845
23607SOL    HW172828   6.515   9.245   1.560 -1.7299 -0.1366  1.9624
23607SOL    HW272829   6.460   9.382   1.528 -1.4955 -0.1231  1.6171
23608SOL     OW72830   8.941   5.904   7.561 -0.7157  0.5804  0.5851
23608SOL    HW172831   8.880   5.831   7.551  1.1118 -0.9318 -0.2514
23608SOL    HW272832   9.001   5.876   7.630 -0.8494  1.9671  1.2935
23609SOL     OW72833   7.444   0.964   2.388  0.0407 -0.4922 -0.2660
23609SOL    HW172834   7.391   0.949   2.311 -0.6349 -1.9615  0.4491
23609SOL    HW272835   7.469   1.057   2.383 -2.5270  0.2376 -0.6558
23610SOL     OW72836   7.897   3.257   8.425  0.2730  0.7738  0.0579
23610SOL    HW172837   7.874   3.333   8.371  0.4441 -0.6568 -2.1360
23610SOL    HW272838   7.934   3.194   8.363  1.3411 -0.6223  2.0180
23611SOL     OW72839  10.522   1.634   8.219 -0.1733 -0.1159 -0.5563
23611SOL    HW172840  10.580   1.638   8.295 -0.5721  0.0853 -0.2559
23611SOL    HW272841  10.434   1.648   8.256 -0.1658  2.5809 -1.3405
23612SOL     OW72842   7.369   3.728  10.723  0.1252  0.2809 -0.2416
23612SOL    HW172843   7.409   3.715  10.810 -1.8906  1.5674  0.9597
23612SOL    HW272844   7.443   3.735  10.663  1.5817 -1.4199  1.2168
23613SOL     OW72845   4.146   2.760  11.099  0.5137 -0.0298  0.1169
23613SOL    HW172846   4.209   2.781  11.168 -0.0451  0.1821  0.5782
23613SOL    HW272847   4.086   2.698  11.139  0.3148 -0.0798 -0.2507
23614SOL     OW72848   4.574   2.667   6.882  0.4414  0.3699 -0.2369
23614SOL    HW172849   4.579   2.575   6.910 -0.5998  0.7233  1.1840
23614SOL    HW272850   4.492   2.673   6.834 -2.1925  1.5743  3.9768
23615SOL     OW72851   2.700   3.513   0.702 -0.2627  0.3259  0.1294
23615SOL    HW172852   2.724   3.576   0.634 -2.4664  1.0285 -0.0748
23615SOL    HW272853   2.696   3.429   0.656 -0.1776  0.5338 -0.2654
23616SOL     OW72854   6.598   0.603  10.074  0.1503 -0.2964 -0.4393
23616SOL    HW172855   6.690   0.627  10.080  0.0067  0.0668  0.5365
23616SOL    HW272856   6.586   0.538  10.143 -0.6921  0.9289  0.6234
23617SOL     OW72857   9.284   9.732   2.082  0.8341 -0.4013 -0.6769
23617SOL    HW172858   9.306   9.639   2.082  1.9881 -0.1422 -1.6990
23617SOL    HW272859   9.209   9.738   2.142  1.3363 -1.8300  0.1435
23618SOL     OW72860   7.987  10.869   8.297 -0.2510 -0.0302 -0.1425
23618SOL    HW172861   8.068  10.820   8.279  0.8470  1.1605  1.3029
23618SOL    HW272862   7.931  10.806   8.341  0.7788 -0.2921  0.8465
23619SOL     OW72863   5.457   0.086   6.416  0.2695 -0.1226  0.3248
23619SOL    HW172864   5.548   0.078   6.386  0.2612  0.3572  0.1638
23619SOL    HW272865   5.408   0.026   6.360  0.7141 -1.6226  1.4831
23620SOL     OW72866   1.008   4.153   5.222 -0.3075  0.0671  0.4602
23620SOL    HW172867   1.003   4.231   5.277  0.9393 -0.6525  1.6742
23620SOL    HW272868   0.924   4.109   5.234  0.1963 -0.4387  2.4062
23621SOL     OW72869   6.898   6.110   6.341  0.0440  0.3679 -0.1973
23621SOL    HW172870   6.954   6.072   6.273  0.1380 -1.2994  0.7575
23621SOL    HW272871   6.910   6.205   6.332  2.6540  0.1010 -0.3558
23622SOL     OW72872   6.816   3.399   6.673  0.0924 -0.1793  0.1135
23622SOL    HW172873   6.735   3.402   6.724 -0.9735  0.3887 -1.5685
23622SOL    HW272874   6.874   3.462   6.717 -1.4377  1.6750 -0.4018
23623SOL     OW72875   7.359   0.489   5.822 -0.0157 -0.1882 -0.3726
23623SOL    HW172876   7.383   0.445   5.904  1.6104 -1.2098 -1.3420
23623SOL    HW272877   7.421   0.455   5.758  0.0483  2.0732 -1.6105
23624SOL     OW72878   5.307   8.094  11.051  0.4802  0.0084  0.3843
23624SOL    HW172879   5.294   8.134  11.137  0.8054 -0.3009  0.5784
23624SOL    HW272880   5.398   8.066  11.050  0.4404 -0.1224 -0.0091
23625SOL     OW72881   8.763   0.119   0.140  0.2933  0.6068 -0.2289
23625SOL    HW172882   8.699   0.187   0.161 -1.0376  0.0142 -2.0612
23625SOL    HW272883   8.817   0.158   0.072  0.3630  0.2864 -0.3570
23626SOL     OW72884   5.008   9.467   4.056 -0.3236 -0.5366  0.1419
23626SOL    HW172885   5.006   9.548   4.005 -0.7606 -0.8077 -0.2762
23626SOL    HW272886   5.073   9.412   4.011  0.3327 -0.2418  0.7085
23627SOL     OW72887   5.098   0.985   7.920  0.4025 -0.1191 -0.2779
23627SOL    HW172888   5.031   1.053   7.928  0.7896  0.1818  0.4393
23627SOL    HW272889   5.172   1.018   7.971  0.9432 -0.6452 -0.7105
23628SOL     OW72890   7.554   0.564   2.126  0.2043 -0.6610 -0.9635
23628SOL    HW172891   7.534   0.658   2.129 -1.4297 -1.0224  0.8148
23628SOL    HW272892   7.624   0.552   2.191  0.9074 -0.5988 -1.6881
23629SOL     OW72893   7.732  10.944   1.671  0.0710  0.0804 -0.0759
23629SOL    HW172894   7.778  11.009   1.724  1.1027 -1.2662  0.7272
23629SOL    HW272895   7.694  10.995   1.599 -0.6673  1.8316  1.4719
23630SOL     OW72896   9.706   2.456   2.691 -0.0383  0.2260  0.1598
23630SOL    HW172897   9.621   2.499   2.704  0.6777  1.4230  1.1511
23630SOL    HW272898   9.749   2.508   2.624 -0.5547 -1.1513 -1.2967
23631SOL     OW72899   7.842   6.295   5.414  0.0770  0.3549 -0.7175
23631SOL    HW172900   7.855   6.324   5.324 -0.2550 -1.8416 -1.5339
23631SOL    HW272901   7.747   6.288   5.424  0.1270  0.1205 -0.3757
23632SOL     OW72902   3.886   6.475   7.485 -0.1891 -0.2372  0.1371
23632SOL    HW172903   3.805   6.424   7.488  0.0943 -0.6651  1.0661
23632SOL    HW272904   3.952   6.413   7.455 -0.1218 -0.0047 -0.2006
23633SOL     OW72905   9.273   9.716   1.634 -0.3744  0.2573  0.0620
23633SOL    HW172906   9.284   9.791   1.693 -1.4031  0.0917  0.4857
23633SOL    HW272907   9.194   9.672   1.666 -0.1616 -0.6270 -0.5981
23634SOL     OW72908   0.316   4.341   8.543  0.0816  0.3434  1.1327
23634SOL    HW172909   0.223   4.362   8.536  0.1351  0.1648 -0.7518
23634SOL    HW272910   0.319   4.246   8.556 -0.0035  0.0863 -0.5252
23635SOL     OW72911   1.873   3.740   2.445  0.3471 -0.0019  0.3174
23635SOL    HW172912   1.856   3.821   2.494  0.8086  1.1883 -1.3850
23635SOL    HW272913   1.805   3.737   2.378  0.9796 -0.4332 -0.3293
23636SOL     OW72914   9.506  10.487   1.967 -0.3785 -0.0131  0.0591
23636SOL    HW172915   9.547  10.444   1.892 -0.6880 -1.6198  0.7687
23636SOL    HW272916   9.529  10.579   1.958  0.5302 -0.3590 -1.3854
23637SOL     OW72917   8.782   0.854   1.199 -0.1769  0.3496  0.1629
23637SOL    HW172918   8.821   0.859   1.286  0.4622 -0.7797 -0.0458
23637SOL    HW272919   8.805   0.767   1.167 -1.7182  0.1600 -0.5280
23638SOL     OW72920   9.328  10.030   9.800  0.0446  0.1336 -0.0183
23638SOL    HW172921   9.420  10.048   9.819 -0.4008  0.8414  1.6568
23638SOL    HW272922   9.313  10.072   9.716  1.0858  0.5791 -0.0072
23639SOL     OW72923   0.703   8.878   1.045 -0.3849  0.2645  0.4602
23639SOL    HW172924   0.677   8.840   0.961  1.8841 -0.8768  0.1754
23639SOL    HW272925   0.721   8.970   1.026  1.4133 -0.2665 -0.7053
23640SOL     OW72926   8.104   1.437   4.105  0.1011  0.2767 -0.2208
23640SOL    HW172927   8.103   1.388   4.187 -2.6335  0.1945 -0.1900
23640SOL    HW272928   8.149   1.380   4.043 -0.5169 -1.0589  0.5148
23641SOL     OW72929   1.445   5.306   6.387 -0.8702 -0.4131  0.3592
23641SOL    HW172930   1.523   5.328   6.439 -1.5989 -0.3209  1.4523
23641SOL    HW272931   1.403   5.235   6.436 -1.1265 -0.9065 -0.5674
23642SOL     OW72932   3.020   5.973   8.264 -0.4654  0.1637 -0.3005
23642SOL    HW172933   2.947   5.969   8.203 -1.2992 -0.5962  0.7131
23642SOL    HW272934   2.987   6.023   8.338 -0.3830 -1.1673  0.6779
23643SOL     OW72935   4.964   3.648   5.084  0.3648 -0.2700  0.0507
23643SOL    HW172936   5.044   3.667   5.034  1.2385 -1.5333  0.9045
23643SOL    HW272937   4.950   3.726   5.137 -0.1783  0.8070 -1.5917
23644SOL     OW72938   6.734  10.236   4.781  0.8306  0.0540  0.7246
23644SOL    HW172939   6.663  10.300   4.791 -0.5671 -1.3010 -0.0973
23644SOL    HW272940   6.756  10.238   4.688 -0.2710 -1.6637  0.3826
23645SOL     OW72941   5.890   3.951  10.129 -0.0545  0.2959 -0.3922
23645SOL    HW172942   5.927   4.011  10.194 -2.4549 -0.2905  1.6961
23645SOL    HW272943   5.798   3.977  10.123 -0.6764 -1.8505 -0.9913
23646SOL     OW72944   0.570   6.452   1.145  0.4884  0.1010 -0.1260
23646SOL    HW172945   0.476   6.458   1.127  0.0454 -1.8086  1.2818
23646SOL    HW272946   0.584   6.508   1.221  0.3576 -0.1337  0.0721
23647SOL     OW72947  10.895   0.539   6.735 -0.0501 -0.2351 -0.9492
23647SOL    HW172948  10.987   0.547   6.763  0.0213 -0.1775 -1.1983
23647SOL    HW272949  10.850   0.610   6.781  0.4227  1.1058 -2.4553
23648SOL     OW72950   3.660  11.018   6.335  0.0478  0.4918  0.5697
23648SOL    HW172951   3.743  10.972   6.320  0.3486  1.3488 -0.5789
23648SOL    HW272952   3.615  10.966   6.401  1.1470 -0.4491  0.6084
23649SOL     OW72953   1.295   3.448   1.517  0.3231  0.4259 -0.3974
23649SOL    HW172954   1.210   3.482   1.490 -0.2483 -0.6461  0.0254
23649SOL    HW272955   1.315   3.495   1.598  0.3265  0.9593 -0.7026
23650SOL     OW72956   9.970   6.586   1.625 -0.3365  0.1993  0.1667
23650SOL    HW172957   9.877   6.566   1.610 -1.3659  2.6386  2.4184
23650SOL    HW272958   9.971   6.633   1.708  2.9129  0.6605 -0.0065
23651SOL     OW72959   4.219  10.954   7.778  0.5991 -0.1733  0.2714
23651SOL    HW172960   4.198  11.032   7.726 -0.7848  0.2682  1.4071
23651SOL    HW272961   4.289  10.910   7.729  0.1089  0.7818 -1.3724
23652SOL     OW72962   5.719   3.538   2.042  0.0459 -0.0318  0.1515
23652SOL    HW172963   5.652   3.582   2.095  0.6102  1.7645 -0.5461
23652SOL    HW272964   5.785   3.510   2.106  1.0123  2.6294  0.4601
23653SOL     OW72965   2.888  11.074   2.413  0.0932 -0.1049  0.3254
23653SOL    HW172966   2.949  11.067   2.487  0.5598 -0.8667 -0.1211
23653SOL    HW272967   2.936  11.039   2.338 -0.2605  0.9599 -0.4205
23654SOL     OW72968   4.591   8.025   8.673 -0.1944 -0.1203  0.0127
23654SOL    HW172969   4.671   7.992   8.632 -0.3572  0.9177 -1.2196
23654SOL    HW272970   4.520   7.982   8.625 -0.3833  0.6559 -0.4198
23655SOL     OW72971   0.425   4.289  10.728  1.0163 -0.0848 -0.4405
23655SOL    HW172972   0.331   4.284  10.745  1.2679 -0.9816  0.8103
23655SOL    HW272973   0.459   4.346  10.797  1.1282  2.0970 -2.1870
23656SOL     OW72974   9.422   6.182   0.289  0.1223  0.3102 -0.4329
23656SOL    HW172975   9.480   6.147   0.222  3.2087  3.2045  0.4490
23656SOL    HW272976   9.432   6.123   0.363  2.6032  1.0363 -0.0954
23657SOL     OW72977   4.736   2.894   1.793 -0.7799  0.0801 -0.3097
23657SOL    HW172978   4.820   2.849   1.802  0.1953  1.7904 -0.3547
23657SOL    HW272979   4.670   2.829   1.818  0.4763 -1.5797 -1.1607
23658SOL     OW72980   7.186  10.442   3.282  0.1226  0.5121  0.3794
23658SOL    HW172981   7.139  10.373   3.329  0.3601  1.3483  1.9269
23658SOL    HW272982   7.270  10.448   3.327 -0.1820  2.2974  0.7928
23659SOL     OW72983   2.816   0.678   3.065 -0.3457  0.5718  0.3755
23659SOL    HW172984   2.846   0.709   2.979  0.6606  0.7324  0.7750
23659SOL    HW272985   2.857   0.737   3.128 -0.5267  0.0375  1.0089
23660SOL     OW72986   6.965   3.454   5.712  0.0478 -0.6657 -0.5887
23660SOL    HW172987   7.003   3.375   5.673  0.8394 -0.4541 -0.2815
23660SOL    HW272988   6.886   3.471   5.661 -0.6179 -2.1520 -0.0998
23661SOL     OW72989   6.624   2.669   6.446 -0.4800 -0.0605  0.1839
23661SOL    HW172990   6.554   2.704   6.391 -1.5414 -0.1285  1.4311
23661SOL    HW272991   6.581   2.648   6.529  1.1398  0.4729  1.2148
23662SOL     OW72992   8.722   5.575   8.562  0.5903 -0.1129  0.2810
23662SOL    HW172993   8.732   5.572   8.467 -0.8617  0.4306  0.0793
23662SOL    HW272994   8.731   5.484   8.590  1.0848 -0.2688 -0.3646
23663SOL     OW72995   6.484   8.196   8.419 -0.1853  0.1589 -0.0422
23663SOL    HW172996   6.426   8.187   8.343 -1.6324 -0.9291  1.1643
23663SOL    HW272997   6.462   8.123   8.476  1.0683  0.7989  1.3283
23664SOL     OW72998   1.030   2.692   6.316 -0.6666  0.3582 -0.5929
23664SOL    HW172999   1.081   2.615   6.290 -0.0115  0.7560 -0.5318
23664SOL    HW273000   0.975   2.711   6.240 -1.4587 -0.6673 -0.2876
23665SOL     OW73001   5.046   8.605   3.315 -0.6623  0.3201 -0.0449
23665SOL    HW173002   5.053   8.510   3.322  1.1018  0.4170 -0.0168
23665SOL    HW273003   5.107   8.628   3.245 -0.2024  1.5440  0.7366
23666SOL     OW73004   5.477   9.726   1.579 -0.0523  0.4698  0.2051
23666SOL    HW173005   5.460   9.815   1.611 -1.8504 -0.4242  2.0164
23666SOL    HW273006   5.432   9.722   1.494  0.0247  1.2904  0.1217
23667SOL     OW73007   4.196   6.710   7.967  0.0237  0.4269 -0.1931
23667SOL    HW173008   4.241   6.727   7.884 -0.2598  0.2699 -0.3808
23667SOL    HW273009   4.233   6.627   7.997 -1.0492 -0.3666 -0.9889
23668SOL     OW73010   5.531   3.461   9.622 -0.0016 -0.1477 -0.0686
23668SOL    HW173011   5.552   3.414   9.540 -1.7718 -0.6411 -0.2703
23668SOL    HW273012   5.449   3.505   9.604  0.2819  0.8630  1.0278
23669SOL     OW73013   2.687   5.437   4.417 -0.2854 -0.0004  0.1606
23669SOL    HW173014   2.652   5.468   4.501  0.8152  0.6598  0.3886
23669SOL    HW273015   2.710   5.517   4.370  1.0512 -0.4237  0.0738
23670SOL     OW73016   2.199   3.746   1.948  0.0263  0.4073  0.5456
23670SOL    HW173017   2.222   3.674   1.889 -0.5110 -1.2759  2.2890
23670SOL    HW273018   2.132   3.795   1.901  0.1905 -0.3863 -0.5676
23671SOL     OW73019   4.688   2.049   5.509 -0.4363  0.2068 -0.2235
23671SOL    HW173020   4.721   2.018   5.424  0.3059  0.6184 -0.0945
23671SOL    HW273021   4.661   1.969   5.554  0.5331 -0.1611 -0.2813
23672SOL     OW73022   7.945   4.662   9.132 -0.1481  0.2506 -0.6588
23672SOL    HW173023   7.881   4.719   9.175  0.3195 -0.0104  0.3985
23672SOL    HW273024   7.930   4.677   9.039  0.2401  2.4171 -0.4212
23673SOL     OW73025   4.587   5.813   3.928 -0.3523 -0.4959 -0.9771
23673SOL    HW173026   4.665   5.771   3.966 -0.0112  0.2037 -0.8781
23673SOL    HW273027   4.537   5.843   4.003  0.3531  0.9458 -1.0388
23674SOL     OW73028   6.640   3.699   6.835  0.0243 -0.1581  0.0790
23674SOL    HW173029   6.630   3.740   6.749 -1.2227  2.6253  1.4176
23674SOL    HW273030   6.555   3.709   6.877  0.8220 -0.6558  1.9524
23675SOL     OW73031   7.684   0.014   1.216  0.5873 -0.0829 -0.2448
23675SOL    HW173032   7.634   0.003   1.296 -1.6507  0.0560 -1.5434
23675SOL    HW273033   7.680  -0.071   1.173  0.3528  0.2853 -0.9737
23676SOL     OW73034  10.153   2.811   5.730 -0.1271 -0.5193 -0.2451
23676SOL    HW173035  10.101   2.807   5.811  1.9577 -0.4273  1.1895
23676SOL    HW273036  10.138   2.727   5.687 -1.0790 -0.6736  0.3684
23677SOL     OW73037   8.596   0.726   5.168 -0.3501  0.2107  0.0935
23677SOL    HW173038   8.510   0.733   5.126 -1.8775  1.4384  3.0984
23677SOL    HW273039   8.649   0.794   5.127 -1.8966  1.6362  0.3383
23678SOL     OW73040   3.940   9.995   1.687 -0.1813 -0.2149  0.3443
23678SOL    HW173041   3.943  10.085   1.720 -0.6003  0.4234 -1.2723
23678SOL    HW273042   4.023   9.984   1.641 -0.2129 -0.5943  0.3793
23679SOL     OW73043   6.893   3.318  10.585 -0.0831  0.2749  0.0061
23679SOL    HW173044   6.850   3.396  10.548 -1.1283 -0.1008  0.3768
23679SOL    HW273045   6.911   3.262  10.509 -0.5383  0.3066 -0.1285
23680SOL     OW73046  10.511   2.738   7.469  0.5230  0.0702 -0.0270
23680SOL    HW173047  10.471   2.751   7.555 -1.1745  0.2224 -0.7852
23680SOL    HW273048  10.518   2.825   7.432 -2.4538 -0.1996 -1.5394
23681SOL     OW73049   8.294   2.673   1.008  0.2984 -0.1829  0.2257
23681SOL    HW173050   8.377   2.681   0.962 -0.6094  3.8501 -1.1641
23681SOL    HW273051   8.301   2.734   1.081 -2.4274  3.2037 -2.0077
23682SOL     OW73052   5.912   6.209   0.349  0.3546 -0.2543 -0.0532
23682SOL    HW173053   5.868   6.289   0.324 -0.8277 -0.2278  1.8800
23682SOL    HW273054   5.983   6.237   0.408 -0.9388 -0.6462  1.7747
23683SOL     OW73055   0.124   2.173   7.314  0.5522  0.1555 -0.1164
23683SOL    HW173056   0.122   2.108   7.244 -0.9703  0.3109 -0.2565
23683SOL    HW273057   0.185   2.137   7.379 -1.2059 -2.0834  0.4217
23684SOL     OW73058   6.986   9.861   1.472  0.9647  0.2707 -0.0047
23684SOL    HW173059   6.905   9.912   1.467  1.4668  0.9811 -1.4821
23684SOL    HW273060   7.037   9.903   1.541  0.5001  0.4591  0.2292
23685SOL     OW73061   2.320   0.984   1.186 -0.8337 -0.2799  0.9205
23685SOL    HW173062   2.412   1.010   1.176 -1.0228  0.5767  1.3060
23685SOL    HW273063   2.296   0.949   1.101 -0.2580 -0.1542  0.6975
23686SOL     OW73064   3.966   2.441   7.013 -0.0141 -0.2994  0.2506
23686SOL    HW173065   3.908   2.445   6.937 -0.9517  0.3512  0.9642
23686SOL    HW273066   4.050   2.474   6.982 -0.0441 -1.1604 -0.7822
23687SOL     OW73067   7.047   4.221   5.766  0.2109  0.2156  0.0398
23687SOL    HW173068   7.101   4.152   5.727  1.8605  1.8222 -0.7081
23687SOL    HW273069   6.970   4.226   5.710  0.5443 -0.3667 -0.4774
23688SOL     OW73070   8.942   0.091  10.328  0.2549  0.3593  0.2709
23688SOL    HW173071   8.917  -0.000  10.317 -0.1861  0.3018  1.5190
23688SOL    HW273072   8.864   0.134  10.364  0.8830  0.9132  1.0183
23689SOL     OW73073   5.007   5.759  10.796 -0.0610 -0.0234  0.0405
23689SOL    HW173074   4.966   5.691  10.742  0.1935 -1.5601  1.6876
23689SOL    HW273075   5.099   5.757  10.772 -0.2322  0.5724 -0.7235
23690SOL     OW73076   5.938   3.856   7.206 -0.3457  0.0082  0.1105
23690SOL    HW173077   5.855   3.895   7.179  1.1443  2.0867 -1.8410
23690SOL    HW273078   5.932   3.765   7.177 -1.8603  0.1349 -0.0743
23691SOL     OW73079   7.767   7.708   5.922 -0.0708  0.0957  0.4265
23691SOL    HW173080   7.746   7.726   6.014  0.3829  0.7300  0.4143
23691SOL    HW273081   7.713   7.769   5.872 -1.7900 -1.5631  0.1486
23692SOL     OW73082   4.763   7.148   3.327 -0.0593  0.4308 -1.0338
23692SOL    HW173083   4.766   7.158   3.232  0.8900 -1.4230 -1.2605
23692SOL    HW273084   4.848   7.109   3.349 -0.2779  0.8047  0.5778
23693SOL     OW73085   8.532   5.755  10.907 -0.3338  0.2351  0.1182
23693SOL    HW173086   8.450   5.707  10.916 -0.5731  0.5885 -0.1629
23693SOL    HW273087   8.525   5.800  10.823  1.4559 -2.2132 -1.4879
23694SOL     OW73088   7.309   1.973   7.576 -0.2485 -0.2238  0.1805
23694SOL    HW173089   7.271   1.887   7.596  0.1717 -0.0991  1.6509
23694SOL    HW273090   7.381   1.983   7.639  0.9290  0.4144 -1.2067
23695SOL     OW73091   3.137   3.858   3.096  0.3952 -0.2638  0.1157
23695SOL    HW173092   3.214   3.802   3.087 -0.8156 -2.6280  2.7169
23695SOL    HW273093   3.122   3.863   3.190 -1.4252  1.8789 -0.2085
23696SOL     OW73094   3.033   4.712   8.271  0.1788 -0.1759 -0.0520
23696SOL    HW173095   3.073   4.637   8.315 -0.2583 -0.1770  0.3458
23696SOL    HW273096   3.051   4.697   8.178 -1.7382 -1.9318 -0.2267
23697SOL     OW73097   7.948   9.903   0.041  0.5611 -0.0413 -0.8376
23697SOL    HW173098   7.929   9.945   0.125  3.9325 -0.3437  0.2349
23697SOL    HW273099   7.967   9.976  -0.018 -1.4475  0.1533 -1.3307
23698SOL     OW73100   6.830   0.764   6.374  0.5713  0.1396  0.7222
23698SOL    HW173101   6.737   0.784   6.386  0.2503 -0.2908 -0.8568
23698SOL    HW273102   6.865   0.758   6.463 -1.2245 -1.1748  1.3836
23699SOL     OW73103   7.193   4.255   3.351  0.2467  0.6285  0.1875
23699SOL    HW173104   7.228   4.309   3.280  1.3712 -0.2801  0.0236
23699SOL    HW273105   7.112   4.299   3.377  0.6204  1.8348 -0.6061
23700SOL     OW73106   7.243   2.544  10.277 -0.1811  1.0797 -0.6385
23700SOL    HW173107   7.240   2.452  10.249  0.6711  1.0987 -0.8153
23700SOL    HW273108   7.265   2.592  10.197 -3.0919  1.7368 -1.1463
23701SOL     OW73109   3.655   7.760   8.149 -0.0740 -0.1904 -0.1839
23701SOL    HW173110   3.722   7.703   8.188 -0.7091 -1.5660 -1.0190
23701SOL    HW273111   3.684   7.849   8.169  1.0140 -0.7950  1.0787
23702SOL     OW73112   9.196   2.302   1.179 -0.0673 -0.2489 -0.7148
23702SOL    HW173113   9.248   2.272   1.253 -0.0466 -2.0007 -1.4030
23702SOL    HW273114   9.233   2.388   1.157 -0.6474  0.7402  1.8161
23703SOL     OW73115   5.855  10.967   6.983 -0.6078 -0.3682  0.0893
23703SOL    HW173116   5.815  10.885   6.953 -0.5401 -0.8593  1.2701
23703SOL    HW273117   5.947  10.945   6.995 -0.1870  0.4260 -1.4418
23704SOL     OW73118   8.224   3.997   5.490  0.5516 -0.1133  0.8734
23704SOL    HW173119   8.156   3.998   5.557 -0.8301  3.0666 -0.3208
23704SOL    HW273120   8.178   3.972   5.410  0.7693  1.7062  0.1159
23705SOL     OW73121   3.667   6.227   5.173  0.4205 -0.3131 -0.0019
23705SOL    HW173122   3.664   6.145   5.125  0.3710 -1.2361  1.5192
23705SOL    HW273123   3.675   6.201   5.265  0.5066  1.3820  0.5047
23706SOL     OW73124   9.747   4.007   8.107 -0.1852  0.0850  0.1887
23706SOL    HW173125   9.784   3.920   8.124 -0.6655 -0.4119 -1.1909
23706SOL    HW273126   9.657   4.001   8.140 -0.3881 -0.1290 -0.3891
23707SOL     OW73127   0.404   1.882   7.374 -0.4661  1.0961  0.2933
23707SOL    HW173128   0.358   1.819   7.428 -0.9715 -0.4790 -1.8545
23707SOL    HW273129   0.446   1.941   7.436 -3.2112  1.0376  2.3448
23708SOL     OW73130   3.054   4.355   3.661 -0.4803 -0.1113  0.1776
23708SOL    HW173131   3.121   4.303   3.705  0.2930  1.1794  0.5931
23708SOL    HW273132   3.040   4.311   3.577  0.8090 -0.4767  0.1344
23709SOL     OW73133   9.743   2.325   1.096  0.7096 -0.3351 -0.4647
23709SOL    HW173134   9.663   2.375   1.079 -0.1904 -1.5421  0.0565
23709SOL    HW273135   9.809   2.391   1.117 -0.8778  0.6143  1.9933
23710SOL     OW73136   6.032   9.989   3.422 -0.2941  0.3248  0.1280
23710SOL    HW173137   5.939   9.987   3.445 -1.3961  2.0515 -3.4227
23710SOL    HW273138   6.076  10.009   3.504 -2.9980 -0.7777  2.0054
23711SOL     OW73139   9.806   7.083   2.920  0.2066 -0.3224 -0.1680
23711SOL    HW173140   9.723   7.041   2.942 -1.5532  2.0729 -1.6774
23711SOL    HW273141   9.782   7.173   2.897  3.4033  0.8621  0.5440
23712SOL     OW73142   4.602   1.645   0.467  0.1529 -0.0591 -0.1770
23712SOL    HW173143   4.521   1.605   0.499  0.5762 -1.0453 -0.3036
23712SOL    HW273144   4.575   1.691   0.387 -0.4493  0.4318  0.2874
23713SOL     OW73145   5.294   4.422   1.476  0.2880 -0.3580  0.1285
23713SOL    HW173146   5.337   4.348   1.432  1.5123 -0.1409  0.9120
23713SOL    HW273147   5.260   4.384   1.558  1.6096  0.0758  0.9099
23714SOL     OW73148   6.150   3.200   9.757 -0.7251  0.4835 -0.0881
23714SOL    HW173149   6.096   3.262   9.807  0.4456  0.9314  0.6631
23714SOL    HW273150   6.135   3.116   9.801 -0.4061  0.7057  0.4613
23715SOL     OW73151   9.065   1.863   2.785  0.0621 -0.0874  0.2936
23715SOL    HW173152   9.010   1.938   2.810  0.7586  0.6533 -0.3456
23715SOL    HW273153   9.086   1.878   2.693  0.4631 -0.9163  0.2422
23716SOL     OW73154   4.814   0.245   2.748 -0.1900 -0.2465  0.4177
23716SOL    HW173155   4.828   0.228   2.841  0.3627 -0.0149  0.3823
23716SOL    HW273156   4.750   0.179   2.721 -0.3480 -0.3201  0.9584
23717SOL     OW73157  10.481   2.381   4.021 -0.2512  0.4628  0.4158
23717SOL    HW173158  10.397   2.378   4.067 -0.7040 -0.2674 -0.4260
23717SOL    HW273159  10.545   2.362   4.089 -0.7655  0.9141  1.0494
23718SOL     OW73160   3.175   1.206   1.366  0.3460 -0.5402 -0.0947
23718SOL    HW173161   3.170   1.250   1.451  0.8457 -0.8829  0.1156
23718SOL    HW273162   3.090   1.163   1.357  0.0476  0.0232 -0.0640
23719SOL     OW73163   1.489   3.008   2.565 -0.1121 -0.2939 -0.4300
23719SOL    HW173164   1.527   3.019   2.653  0.0828 -1.2940 -0.3867
23719SOL    HW273165   1.434   2.930   2.572 -0.4149 -0.1446 -1.0935
23720SOL     OW73166   5.890   2.323   5.250 -0.0302 -0.0607  0.1852
23720SOL    HW173167   5.845   2.383   5.191  0.4815 -0.5274 -0.7065
23720SOL    HW273168   5.937   2.380   5.311  0.5171  0.4640 -0.6973
23721SOL     OW73169   4.203   1.751   4.882  0.1564 -0.1798 -0.3738
23721SOL    HW173170   4.207   1.840   4.848 -0.4276  0.4800  1.2243
23721SOL    HW273171   4.281   1.743   4.937  0.9604 -1.1531 -1.5897
23722SOL     OW73172   4.190   2.160   3.278 -0.0441  0.0183  0.2753
23722SOL    HW173173   4.233   2.080   3.308 -0.2350 -0.3967 -0.5348
23722SOL    HW273174   4.219   2.227   3.340  1.7604 -0.2540 -0.2076
23723SOL     OW73175   7.421   9.745   7.907 -0.6459  0.3607  0.0506
23723SOL    HW173176   7.374   9.785   7.834  0.5340  1.2045 -0.2745
23723SOL    HW273177   7.435   9.817   7.969 -0.8542 -0.1560  0.7148
23724SOL     OW73178   7.541   4.292   7.216  0.1905 -0.7177 -0.4149
23724SOL    HW173179   7.596   4.226   7.174  1.1480 -0.4330  0.3767
23724SOL    HW273180   7.509   4.346   7.143 -0.4534 -1.9139 -1.0527
23725SOL     OW73181   5.121   6.220   4.348 -0.2346  0.5483 -0.3338
23725SOL    HW173182   5.174   6.155   4.302  0.3825  0.7915  0.0293
23725SOL    HW273183   5.083   6.172   4.421  1.4625  0.9251  0.8564
23726SOL     OW73184   1.579   9.830   7.434 -0.1708  0.0689  0.0255
23726SOL    HW173185   1.621   9.762   7.381  0.6016  0.4148  0.1751
23726SOL    HW273186   1.555   9.785   7.515  0.5848  0.0225  0.2344
23727SOL     OW73187   4.463   3.026   3.391 -0.2010  0.5397  0.3067
23727SOL    HW173188   4.398   2.990   3.451 -0.4143  2.1196  1.0641
23727SOL    HW273189   4.544   3.031   3.442  0.3891 -0.7688 -0.4284
23728SOL     OW73190   6.186   1.041   3.973 -0.1907  0.4626  0.5071
23728SOL    HW173191   6.172   1.110   4.038  0.9662 -0.6468  2.0119
23728SOL    HW273192   6.215   0.965   4.024  0.8294 -0.4505 -1.3073
23729SOL     OW73193   3.567   9.685   6.051 -0.2820 -0.4567  0.4972
23729SOL    HW173194   3.492   9.639   6.012  1.3558 -2.3478 -0.6435
23729SOL    HW273195   3.580   9.762   5.996 -1.0417 -0.3946  0.3933
23730SOL     OW73196   2.415  10.425   9.250  0.1258  0.1749  0.4356
23730SOL    HW173197   2.487  10.386   9.201  0.7899 -1.7155  2.7139
23730SOL    HW273198   2.456  10.490   9.307 -0.3637  0.9805 -0.1074
23731SOL     OW73199  10.529   2.776   5.584 -1.0349 -0.2009  0.5881
23731SOL    HW173200  10.542   2.681   5.591 -0.0975 -0.0271  1.4353
23731SOL    HW273201  10.492   2.789   5.497 -0.4004 -1.2599  0.1445
23732SOL     OW73202  10.385  10.951   9.102  0.1111 -0.2172 -0.1642
23732SOL    HW173203  10.472  10.930   9.069  0.6083  0.9804  0.3174
23732SOL    HW273204  10.392  11.042   9.133 -1.4746  0.1258 -0.6975
23733SOL     OW73205   3.618   7.250   7.234  0.4619  0.1781 -0.5645
23733SOL    HW173206   3.522   7.255   7.230  0.3658 -1.5133 -1.4411
23733SOL    HW273207   3.635   7.163   7.270  1.6781  0.2644 -0.9109
23734SOL     OW73208   2.060   8.292   7.396 -1.0680 -0.1772 -0.2052
23734SOL    HW173209   1.966   8.305   7.387 -0.7371  2.5370 -0.4845
23734SOL    HW273210   2.093   8.294   7.306 -0.5183  1.2377  0.0107
23735SOL     OW73211   2.724   4.661   1.826 -0.2622 -0.5384  0.5651
23735SOL    HW173212   2.664   4.733   1.805  1.0618  0.4266 -0.0832
23735SOL    HW273213   2.804   4.682   1.778  1.6156 -0.2532  3.5592
23736SOL     OW73214   5.820  10.476   0.926  0.2693  0.6846  0.2988
23736SOL    HW173215   5.788  10.411   0.864 -0.7259  0.2985  1.1699
23736SOL    HW273216   5.744  10.495   0.982  1.0660  1.1650  1.2641
23737SOL     OW73217   6.084   4.182  10.384 -0.3248  0.4990  0.0470
23737SOL    HW173218   6.150   4.180  10.454 -2.9230  2.3586  2.8404
23737SOL    HW273219   6.022   4.113  10.408 -1.2000  1.0932 -0.4448
23738SOL     OW73220   7.700   2.224   9.327  0.0565  0.2330 -0.6431
23738SOL    HW173221   7.780   2.250   9.281  0.9966 -2.0645 -0.4379
23738SOL    HW273222   7.662   2.157   9.271 -0.9551  0.2734 -0.0148
23739SOL     OW73223   3.333   7.040   8.516 -0.6764  0.7734 -0.2102
23739SOL    HW173224   3.266   6.994   8.464 -0.2103  0.1080 -0.2264
23739SOL    HW273225   3.403   6.977   8.526 -0.5484  1.0648  0.8273
23740SOL     OW73226   6.307   1.482  10.406  0.1293  0.0363 -0.5371
23740SOL    HW173227   6.324   1.389  10.391 -0.5324 -0.0695 -0.6467
23740SOL    HW273228   6.240   1.483  10.474  1.0715  0.4631  0.4132
23741SOL     OW73229   3.802   1.001   1.130  0.0818 -0.1752 -0.2439
23741SOL    HW173230   3.854   0.950   1.068  0.0204 -0.4835 -0.0451
23741SOL    HW273231   3.768   1.074   1.079  0.9759  0.2126 -0.3097
23742SOL     OW73232   6.571   5.500   9.811 -0.1041 -0.5823 -0.0280
23742SOL    HW173233   6.490   5.498   9.861  0.8991 -0.0933  1.6904
23742SOL    HW273234   6.639   5.471   9.872  1.1156 -0.4603 -1.2509
23743SOL     OW73235   4.948   2.851  10.459  0.0806  0.2255 -0.4255
23743SOL    HW173236   4.923   2.812  10.375  0.4870  0.3628 -0.6123
23743SOL    HW273237   4.980   2.938  10.436  0.3906  0.1830 -0.1484
23744SOL     OW73238   1.267   6.899   5.352 -0.5982  0.1240  0.2629
23744SOL    HW173239   1.260   6.805   5.332  1.3557 -0.7413  3.0181
23744SOL    HW273240   1.177   6.928   5.364 -1.2414 -1.4680 -0.3974
23745SOL     OW73241   4.722   4.844   4.035  0.1312  0.9461 -0.4298
23745SOL    HW173242   4.731   4.817   3.944 -1.2038  1.0497 -0.6108
23745SOL    HW273243   4.702   4.763   4.082 -2.3339  1.2858 -0.7423
23746SOL     OW73244   3.470   9.683   3.782  0.1736  0.5422  0.2012
23746SOL    HW173245   3.521   9.612   3.821  1.6312  2.0925  1.2526
23746SOL    HW273246   3.379   9.656   3.794  0.6705 -1.0589  0.6903
23747SOL     OW73247   7.825   3.719   4.869  0.4041  0.1075 -0.1056
23747SOL    HW173248   7.832   3.747   4.960 -0.0877 -2.0863  0.6842
23747SOL    HW273249   7.733   3.733   4.847  0.6235  1.0669 -0.4291
23748SOL     OW73250   6.530  10.415   6.618 -0.2644  0.2417 -0.1917
23748SOL    HW173251   6.601  10.384   6.675 -1.4404 -0.4983  0.9118
23748SOL    HW273252   6.529  10.509   6.631 -0.8007  0.0471  1.4019
23749SOL     OW73253   3.216   5.381   4.900 -0.4381  0.0887 -0.3170
23749SOL    HW173254   3.271   5.424   4.966 -0.2166 -1.0076  0.2258
23749SOL    HW273255   3.140   5.440   4.890 -0.5042  0.2381  0.9566
23750SOL     OW73256   5.024   9.700   5.504  0.0945  0.1158  0.2608
23750SOL    HW173257   5.072   9.680   5.584  0.4066 -0.0557  0.0352
23750SOL    HW273258   5.084   9.756   5.454  0.5885 -1.1042 -0.5709
23751SOL     OW73259   5.671   2.629   8.979 -0.6242 -0.4873  0.1224
23751SOL    HW173260   5.688   2.720   9.003 -1.6529 -0.3276  0.2927
23751SOL    HW273261   5.596   2.633   8.919  0.0322 -1.1373 -0.7738
23752SOL     OW73262   7.830   9.230   2.659 -0.2537 -0.5505  1.2920
23752SOL    HW173263   7.818   9.163   2.591 -1.0351  0.8150  0.0381
23752SOL    HW273264   7.923   9.226   2.680  0.1501 -0.5157 -0.3898
23753SOL     OW73265   9.963  10.416   3.355  0.1187 -0.2033 -0.0846
23753SOL    HW173266  10.047  10.387   3.391  0.4708  0.2105 -0.5500
23753SOL    HW273267   9.907  10.428   3.432  1.8194  3.8463  0.8058
23754SOL     OW73268   3.100   0.207   4.031 -0.4477  0.3140 -0.3540
23754SOL    HW173269   3.086   0.243   3.943  0.7516  1.3547 -0.1465
23754SOL    HW273270   3.026   0.238   4.082 -1.1725 -0.3285 -0.9883
23755SOL     OW73271   9.972   4.361   5.040 -0.1622 -0.2006  0.3898
23755SOL    HW173272  10.017   4.281   5.068  0.5058  0.2975  0.7793
23755SOL    HW273273   9.879   4.343   5.058 -0.0880 -1.0911 -0.0448
23756SOL     OW73274   0.855   4.555   0.899  0.4221 -0.0354 -0.0046
23756SOL    HW173275   0.816   4.586   0.818 -1.2674 -0.5404  0.5876
23756SOL    HW273276   0.902   4.631   0.933 -0.6984  0.8363 -0.3542
23757SOL     OW73277   6.150   3.089   8.045 -0.7312 -0.1633  0.1970
23757SOL    HW173278   6.070   3.057   8.087 -0.8025 -0.1677  0.0579
23757SOL    HW273279   6.119   3.150   7.978 -0.6351 -0.4630 -0.1202
23758SOL     OW73280   5.671   6.696   5.570 -0.3789  0.0144  0.2461
23758SOL    HW173281   5.649   6.633   5.639 -1.1339  1.2502  1.1646
23758SOL    HW273282   5.756   6.666   5.537  0.0867 -0.5219  1.8233
23759SOL     OW73283   8.210   4.884   0.732  0.4061  0.5687 -0.3297
23759SOL    HW173284   8.174   4.897   0.645  1.1572 -0.8509 -0.8705
23759SOL    HW273285   8.298   4.921   0.728  0.5060  0.3443 -0.2189
23760SOL     OW73286   2.792   3.398   2.807  0.1047 -0.1847 -0.2029
23760SOL    HW173287   2.731   3.346   2.756 -0.5779 -0.1087  0.5242
23760SOL    HW273288   2.836   3.335   2.864 -1.0564  0.0703  1.0117
23761SOL     OW73289   9.278   9.125   1.094 -0.0994 -0.1949 -0.2506
23761SOL    HW173290   9.199   9.171   1.064  0.4682 -0.0977 -1.6611
23761SOL    HW273291   9.267   9.119   1.189 -1.2800  0.7954 -0.2953
23762SOL     OW73292   2.637   1.176   4.525 -0.2367 -0.4542  0.2357
23762SOL    HW173293   2.663   1.268   4.522 -0.7771 -0.3191 -0.9187
23762SOL    HW273294   2.586   1.168   4.606 -2.2109  0.8559 -0.7928
23763SOL     OW73295   1.185   1.626   5.599 -0.0563 -0.3374  0.8046
23763SOL    HW173296   1.240   1.608   5.522  1.0426 -1.4005  1.8127
23763SOL    HW273297   1.196   1.721   5.613 -0.4086 -0.0956 -0.4396
23764SOL     OW73298   6.569   2.690   9.482  0.3042  0.2904  0.1783
23764SOL    HW173299   6.491   2.680   9.427  0.4792  0.3949 -0.0958
23764SOL    HW273300   6.642   2.684   9.420  0.5019  0.5124  0.3900
23765SOL     OW73301   9.100   7.871   6.752 -0.2591  0.5805  0.0166
23765SOL    HW173302   9.063   7.782   6.753 -0.1910  0.5534  0.9726
23765SOL    HW273303   9.102   7.894   6.659  1.0767 -0.9854 -0.3963
23766SOL     OW73304   7.801   7.152   7.959  0.3576  0.1433  0.1067
23766SOL    HW173305   7.844   7.236   7.977  0.1550  0.2542  0.0685
23766SOL    HW273306   7.819   7.099   8.037  2.0495 -0.4161 -0.6115
23767SOL     OW73307   7.435   0.889   7.233  0.4423 -0.0047  0.0293
23767SOL    HW173308   7.510   0.942   7.206  1.5951 -2.4167 -1.9580
23767SOL    HW273309   7.456   0.861   7.322  1.3808  0.2206 -0.1155
23768SOL     OW73310   7.285  10.026   5.832 -0.2675 -0.0872 -0.1576
23768SOL    HW173311   7.230  10.063   5.763  1.9304  2.9540 -0.4806
23768SOL    HW273312   7.230  10.030   5.911 -1.1721  1.0694 -0.8090
23769SOL     OW73313   9.453   7.929   4.478  0.3397  0.3086 -0.6622
23769SOL    HW173314   9.443   7.968   4.565  2.6690  0.9816 -0.6223
23769SOL    HW273315   9.503   7.994   4.428 -0.2145 -0.4328 -2.2556
23770SOL     OW73316   0.503   6.975   5.317  0.3441  0.2361  0.3182
23770SOL    HW173317   0.596   6.975   5.293  0.7502 -0.1485  1.8182
23770SOL    HW273318   0.483   7.067   5.333  0.2371  0.4189 -0.7625
23771SOL     OW73319  10.649   7.698   3.298  0.4771 -0.4438  0.7290
23771SOL    HW173320  10.709   7.653   3.239 -2.6532 -2.2877 -1.3910
23771SOL    HW273321  10.604   7.762   3.242 -1.6253 -1.2628  1.3896
23772SOL     OW73322   8.457   9.876   7.394  0.0202  0.2277  0.3249
23772SOL    HW173323   8.417   9.808   7.448 -1.0855  0.1497 -0.5631
23772SOL    HW273324   8.387   9.940   7.380  0.6173  0.8058 -0.0913
23773SOL     OW73325   1.656   6.065   5.456  0.3644  0.2972  0.1661
23773SOL    HW173326   1.642   6.080   5.549  0.8679 -0.0377  0.2972
23773SOL    HW273327   1.726   6.126   5.432  0.0375  0.5917 -0.0631
23774SOL     OW73328   0.350   4.251   5.340 -0.0976 -0.4352 -0.3682
23774SOL    HW173329   0.356   4.343   5.365  1.9161 -0.2799 -1.1909
23774SOL    HW273330   0.258   4.228   5.355 -0.6167  1.6432  0.0265
23775SOL     OW73331   8.767  10.476   7.038  0.0228 -0.4435  0.0476
23775SOL    HW173332   8.817  10.529   6.976 -0.4375  1.9889  1.6039
23775SOL    HW273333   8.833  10.435   7.094  0.3566 -0.8288 -0.6162
23776SOL     OW73334   5.919   5.613   4.743 -0.0343 -0.5077 -0.1800
23776SOL    HW173335   5.845   5.578   4.693 -1.8019  1.8089  0.6266
23776SOL    HW273336   5.924   5.556   4.820  0.9356 -2.4070 -1.5520
23777SOL     OW73337   3.782   3.232   2.784 -0.4179  0.6431  0.2523
23777SOL    HW173338   3.873   3.225   2.755 -0.1680 -1.0287  1.2810
23777SOL    HW273339   3.730   3.225   2.703  0.2907 -2.5001 -0.0666
23778SOL     OW73340   7.374   3.455   2.729  0.3783 -0.5523  0.1314
23778SOL    HW173341   7.292   3.440   2.681  0.1279  0.5977  0.1775
23778SOL    HW273342   7.423   3.515   2.673  0.6372 -0.2211  0.7089
23779SOL     OW73343   9.328   1.963   4.919 -0.3541 -0.3326 -0.0474
23779SOL    HW173344   9.253   2.001   4.964 -1.0131 -0.3764 -1.0681
23779SOL    HW273345   9.371   1.908   4.985 -1.7073 -0.9691  0.3359
23780SOL     OW73346   5.971   1.880   7.875  0.0608 -0.2245  0.5569
23780SOL    HW173347   5.969   1.936   7.798 -0.4480 -0.4101  0.4331
23780SOL    HW273348   5.922   1.801   7.849 -0.7302  0.0083  1.2951
23781SOL     OW73349   0.904   9.674  10.721 -0.4000 -0.0582 -0.5137
23781SOL    HW173350   0.903   9.579  10.710 -2.0671 -0.1308 -0.1020
23781SOL    HW273351   0.857   9.688  10.803  1.3125  1.0521  0.3251
23782SOL     OW73352   2.089   6.896   2.810  0.3075  0.3690 -0.2068
23782SOL    HW173353   2.093   6.986   2.775  1.3577  0.3061 -0.2906
23782SOL    HW273354   2.178   6.879   2.841  0.0533 -0.5644  0.0333
23783SOL     OW73355   5.919   2.421   3.724  0.6220 -0.2397 -0.1411
23783SOL    HW173356   6.010   2.434   3.697  0.7117 -1.7932 -0.6724
23783SOL    HW273357   5.876   2.387   3.646 -0.6387  1.2577 -0.1416
23784SOL     OW73358   5.446   6.170   2.734  0.2646 -0.6620 -0.2360
23784SOL    HW173359   5.410   6.097   2.785 -0.3856  0.0982  0.4254
23784SOL    HW273360   5.539   6.150   2.726  0.3052 -0.9979  0.9153
23785SOL     OW73361   9.333   8.096   3.375 -0.1356 -0.2570 -0.1565
23785SOL    HW173362   9.313   8.048   3.455 -0.6730  1.1391  0.5771
23785SOL    HW273363   9.429   8.097   3.371 -0.1084 -0.5170  0.3481
23786SOL     OW73364   9.021   7.307  10.066  0.5948  0.0918 -0.2915
23786SOL    HW173365   9.061   7.239  10.011 -0.9867  0.0698 -1.4682
23786SOL    HW273366   8.976   7.258  10.135 -0.1438 -0.0674 -0.8690
23787SOL     OW73367   6.798   1.189   3.451 -0.2558  0.0679  0.1888
23787SOL    HW173368   6.807   1.269   3.502  0.4591 -0.9143  1.6899
23787SOL    HW273369   6.862   1.129   3.489 -1.7588 -1.7096  0.0830
23788SOL     OW73370   5.569   1.799   2.457 -0.0470  0.4405  0.8535
23788SOL    HW173371   5.585   1.894   2.461 -2.1031  0.8071  2.0509
23788SOL    HW273372   5.614   1.764   2.534 -0.6674  0.7043  1.3437
23789SOL     OW73373   5.823   1.060   9.497  0.1622  0.4553 -0.4588
23789SOL    HW173374   5.839   0.977   9.541  0.6047  1.1966  0.8431
23789SOL    HW273375   5.876   1.056   9.417 -1.6375 -1.4277 -1.6563
23790SOL     OW73376   9.339   6.662   8.580 -0.4330 -0.1073  0.6913
23790SOL    HW173377   9.347   6.651   8.675  1.9880  0.0485  0.5612
23790SOL    HW273378   9.354   6.755   8.565  1.2230 -0.4485  0.0306
23791SOL     OW73379   9.338  10.617   6.527 -0.1294 -0.0445  0.2566
23791SOL    HW173380   9.432  10.634   6.526 -0.5136  2.5824  0.4790
23791SOL    HW273381   9.298  10.704   6.540 -2.6121 -0.9464 -0.6964
23792SOL     OW73382   9.092   1.506   9.204 -0.1629 -0.6894  0.1079
23792SOL    HW173383   9.035   1.431   9.187 -2.1325  0.4565  1.3950
23792SOL    HW273384   9.065   1.572   9.140 -1.7792  0.5812  1.9859
23793SOL     OW73385   0.780   7.560   6.954  0.2023 -0.5297 -0.0310
23793SOL    HW173386   0.740   7.632   6.904  0.2014 -1.1901 -1.0043
23793SOL    HW273387   0.719   7.545   7.026 -0.3048 -0.2041 -0.3770
23794SOL     OW73388   6.022   2.110   5.579 -0.1609  0.4565 -0.1122
23794SOL    HW173389   5.969   2.043   5.623  1.0581  0.0453  0.8072
23794SOL    HW273390   5.994   2.108   5.488 -2.8253  1.3779  0.6129
23795SOL     OW73391   2.807   0.039   2.870 -0.2474  0.1324  0.4531
23795SOL    HW173392   2.773   0.075   2.788  0.0484  0.7747  0.6064
23795SOL    HW273393   2.747   0.070   2.937  0.6272  1.2913  0.7283
23796SOL     OW73394   4.383   0.827   1.453 -0.2961  0.0431 -0.1614
23796SOL    HW173395   4.306   0.799   1.405 -0.7990  0.7398  0.2209
23796SOL    HW273396   4.349   0.871   1.531  0.4762  0.6182 -0.1307
23797SOL     OW73397   2.911  10.844   1.551  0.1195  0.1384 -0.3754
23797SOL    HW173398   2.982  10.890   1.595 -0.3486  1.3158 -0.8127
23797SOL    HW273399   2.848  10.912   1.529 -0.9403 -0.8103 -0.4121
23798SOL     OW73400  10.166   3.118   8.908 -0.4249  0.3150 -0.4431
23798SOL    HW173401  10.172   3.175   8.985 -1.1245  0.2388 -0.3269
23798SOL    HW273402  10.181   3.030   8.943  1.9166  0.5002 -0.8078
23799SOL     OW73403   7.778   4.989   8.576  0.4918  0.0464 -0.1297
23799SOL    HW173404   7.740   4.960   8.659 -0.2401 -0.1991 -0.5469
23799SOL    HW273405   7.858   5.035   8.601 -0.7124  1.6879  0.8611
23800SOL     OW73406   7.126   5.862   0.701  0.5527  0.1585  0.0247
23800SOL    HW173407   7.090   5.801   0.636  1.0243 -0.8222  0.6477
23800SOL    HW273408   7.170   5.929   0.650 -1.2834  0.8412 -0.7312
23801SOL     OW73409   3.260   1.885   1.817  0.2253 -0.0524 -0.3049
23801SOL    HW173410   3.340   1.933   1.840  1.6337 -1.2851 -2.2810
23801SOL    HW273411   3.279   1.847   1.731 -2.1256 -1.2397 -0.3733
23802SOL     OW73412   1.126  10.976   5.229  0.3551  0.3667 -0.0676
23802SOL    HW173413   1.171  11.032   5.292  0.3079  3.5141 -2.5535
23802SOL    HW273414   1.050  10.942   5.276  1.6700  0.4302  2.2544
23803SOL     OW73415   2.634   0.824   9.147  0.2782 -0.7634 -0.3725
23803SOL    HW173416   2.612   0.748   9.202  0.5934 -0.7503 -0.2229
23803SOL    HW273417   2.550   0.866   9.129  0.1040 -1.1422 -0.4448
23804SOL     OW73418   3.889   9.420   8.025 -0.0517 -0.2148  0.4776
23804SOL    HW173419   3.857   9.443   8.113  0.4509  0.4714  0.4866
23804SOL    HW273420   3.944   9.494   7.999 -0.9518  0.0214 -0.8156
23805SOL     OW73421   4.828   7.501   9.732  0.0230 -0.1324 -0.4294
23805SOL    HW173422   4.803   7.426   9.679 -2.0511  1.3817 -1.7850
23805SOL    HW273423   4.890   7.549   9.677 -0.5999  0.4019 -0.6911
23806SOL     OW73424   4.785   5.149   3.590 -0.3472 -0.4384  0.0779
23806SOL    HW173425   4.869   5.150   3.635  0.8751  0.8415 -2.0371
23806SOL    HW273426   4.736   5.222   3.628 -0.5948 -1.2916  1.4341
23807SOL     OW73427   2.402   5.812  10.634  0.6190 -0.3111 -0.0173
23807SOL    HW173428   2.474   5.806  10.697 -0.2516  0.0370  1.0385
23807SOL    HW273429   2.438   5.864  10.562  1.2002  0.5148  0.8394
23808SOL     OW73430   3.512   3.922   0.392 -0.1540 -0.4341 -0.1527
23808SOL    HW173431   3.483   3.988   0.456 -0.5393 -1.0943  0.3644
23808SOL    HW273432   3.572   3.970   0.335 -1.3945  0.7023 -0.5642
23809SOL     OW73433   4.324   3.349   6.372 -0.1530  0.1094  0.1081
23809SOL    HW173434   4.360   3.425   6.327  0.1047 -0.7420 -1.1827
23809SOL    HW273435   4.254   3.317   6.314 -0.9367 -0.0422  1.1179
23810SOL     OW73436  11.017   4.080   8.428 -0.0381  0.3657  0.8939
23810SOL    HW173437  11.040   4.103   8.518 -0.0298 -0.6960  1.1789
23810SOL    HW273438  11.099   4.089   8.379  0.3303 -0.5516  1.3161
23811SOL     OW73439   8.148   3.377   9.490 -0.2508  0.1030 -0.0304
23811SOL    HW173440   8.188   3.349   9.573 -1.3175  0.3689  0.5893
23811SOL    HW273441   8.151   3.473   9.493 -1.3815  0.1388  0.2586
23812SOL     OW73442   3.970   0.153   3.616 -0.0038 -0.3136 -0.1573
23812SOL    HW173443   4.010   0.093   3.553 -0.0563  1.5735 -2.0950
23812SOL    HW273444   4.027   0.230   3.615 -0.2060 -0.0936  1.9010
23813SOL     OW73445  10.763   6.354   7.999  0.2220  0.0640  0.2617
23813SOL    HW173446  10.825   6.322   8.065  0.1889  0.0631  0.2918
23813SOL    HW273447  10.813   6.419   7.949 -0.1078  0.9100  1.0187
23814SOL     OW73448   9.611   8.180   3.640 -0.7010  0.2011 -0.5498
23814SOL    HW173449   9.697   8.153   3.605 -0.3183 -0.8296  1.0876
23814SOL    HW273450   9.555   8.104   3.625 -0.7206  0.0201  0.3761
23815SOL     OW73451   1.162   2.146   1.763 -0.0513  0.2317  0.2523
23815SOL    HW173452   1.089   2.203   1.741 -0.6590 -0.2775  0.8911
23815SOL    HW273453   1.162   2.079   1.694 -0.1728  0.2468  0.2372
23816SOL     OW73454  10.862   1.795   6.791  0.0327  0.3674  0.0698
23816SOL    HW173455  10.908   1.849   6.726  0.9725  0.1283  0.5136
23816SOL    HW273456  10.769   1.812   6.775  0.2665  0.7704 -0.9375
23817SOL     OW73457   8.138   2.087   9.366  0.2373  0.0484  0.5451
23817SOL    HW173458   8.119   2.045   9.282 -0.7041 -1.1099  1.2846
23817SOL    HW273459   8.193   2.023   9.412 -1.2229 -0.4459  1.6969
23818SOL     OW73460   6.616  10.540   1.367 -0.4933 -0.2038 -0.2440
23818SOL    HW173461   6.649  10.512   1.281 -0.3898 -0.0823 -0.2448
23818SOL    HW273462   6.598  10.459   1.413 -0.9272 -0.2696 -0.5266
23819SOL     OW73463   7.106   5.474   9.207 -0.0276  0.2129 -0.2946
23819SOL    HW173464   7.141   5.397   9.251 -3.1913 -1.4792 -0.4060
23819SOL    HW273465   7.117   5.455   9.113 -2.0075 -0.8704 -0.3705
23820SOL     OW73466   2.020   2.344   4.291  0.3642 -0.6131  0.3303
23820SOL    HW173467   1.979   2.425   4.320  1.4470 -0.1408  0.5620
23820SOL    HW273468   1.955   2.305   4.232 -0.6495 -0.1682  1.1191
23821SOL     OW73469   8.066   3.691   7.710  0.6191  0.0295 -0.0463
23821SOL    HW173470   8.032   3.653   7.629  0.5312 -1.2201  0.5600
23821SOL    HW273471   8.160   3.702   7.694  0.6818 -0.6527 -0.1475
23822SOL     OW73472   9.674   3.194   0.730 -0.3662 -0.5681 -0.1065
23822SOL    HW173473   9.582   3.220   0.725  0.2666  2.1170  0.9886
23822SOL    HW273474   9.683   3.153   0.816 -0.6227 -1.4142 -0.4650
23823SOL     OW73475   1.359   4.307   7.710 -0.2682  0.3010  0.1313
23823SOL    HW173476   1.398   4.240   7.654  1.2092  0.0863  1.3402
23823SOL    HW273477   1.264   4.290   7.705 -0.1207 -0.1355 -1.7058
23824SOL     OW73478   2.356   1.596   4.249  0.6345  0.3897 -0.3633
23824SOL    HW173479   2.410   1.654   4.303  1.0014  0.5760 -0.9194
23824SOL    HW273480   2.418   1.533   4.212  0.3360  0.0597 -0.2964
23825SOL     OW73481   7.859   3.101   5.483  0.1567  0.5042  0.6604
23825SOL    HW173482   7.882   3.031   5.422  2.1569  0.0324  1.8441
23825SOL    HW273483   7.796   3.155   5.436 -0.6511 -1.4995 -0.6741
23826SOL     OW73484   6.942   3.553  10.950 -0.2977  0.0987 -0.3768
23826SOL    HW173485   6.999   3.567  10.875 -0.3962  0.7950 -0.3309
23826SOL    HW273486   6.918   3.460  10.945  0.5950 -0.1322 -0.5577
23827SOL     OW73487   3.299   2.941   6.219  0.3914 -0.2558 -0.0142
23827SOL    HW173488   3.276   3.029   6.249  0.6735 -0.5727  1.2169
23827SOL    HW273489   3.323   2.894   6.300  3.1519 -0.5861 -0.9284
23828SOL     OW73490   3.145   6.881  10.772  0.2479 -0.6453  0.6581
23828SOL    HW173491   3.207   6.923  10.832  0.2296 -1.1603  1.0383
23828SOL    HW273492   3.090   6.953  10.741  0.0438 -0.4265  1.5186
23829SOL     OW73493   6.691   6.153   8.310 -0.2452  0.5287 -0.2714
23829SOL    HW173494   6.624   6.085   8.297 -1.1060  1.0109  1.3934
23829SOL    HW273495   6.755   6.112   8.368  1.4486 -0.2335 -2.5329
23830SOL     OW73496  10.220   8.721   9.487  0.4881  0.1739  0.7408
23830SOL    HW173497  10.144   8.701   9.433  0.4656 -0.5466  1.0401
23830SOL    HW273498  10.281   8.765   9.427 -0.2347  0.9345  0.5465
23831SOL     OW73499   3.371   9.488   7.888  0.0123 -0.1303 -0.5907
23831SOL    HW173500   3.431   9.433   7.838 -0.2897  0.6315 -1.8187
23831SOL    HW273501   3.353   9.437   7.968 -0.9964 -2.2580 -2.0920
23832SOL     OW73502   9.163   5.300   8.880 -0.5148 -0.4453  0.1111
23832SOL    HW173503   9.075   5.316   8.915 -0.2700 -0.6783  0.8631
23832SOL    HW273504   9.183   5.210   8.907  0.4607  0.0290  1.0857
23833SOL     OW73505   3.999   6.388   9.168 -0.0285 -0.3628  0.2294
23833SOL    HW173506   4.086   6.360   9.140  1.3468  2.8168  0.9387
23833SOL    HW273507   4.015   6.449   9.240 -3.0288 -1.7878  2.3102
23834SOL     OW73508   2.552   1.778   6.817  0.4564 -0.0903  0.4483
23834SOL    HW173509   2.504   1.860   6.808 -0.3286 -0.1739  3.0987
23834SOL    HW273510   2.501   1.715   6.766  0.7155  0.8563 -1.0727
23835SOL     OW73511   1.649   5.615   6.139  0.5152  0.4813 -1.4077
23835SOL    HW173512   1.676   5.617   6.047  1.2347  0.0112 -1.2218
23835SOL    HW273513   1.729   5.637   6.187  0.6496 -1.1575 -0.8246
23836SOL     OW73514   3.193   7.428   2.395 -0.4469  1.0813  0.0475
23836SOL    HW173515   3.169   7.387   2.478 -1.1271  2.0468  0.3378
23836SOL    HW273516   3.140   7.383   2.330  0.0437  0.3613  0.1398
23837SOL     OW73517   2.224   4.995   6.763  0.1107  0.0363 -0.3546
23837SOL    HW173518   2.269   5.066   6.809  0.3353 -0.6642  0.5257
23837SOL    HW273519   2.292   4.954   6.710  0.1865 -0.1225 -0.1322
23838SOL     OW73520   8.916   9.183   6.225  0.4321  0.8217 -0.0406
23838SOL    HW173521   8.990   9.243   6.234  0.3170  1.1071 -0.8541
23838SOL    HW273522   8.850   9.234   6.179 -0.0637  0.3990  0.2006
23839SOL     OW73523   6.232   2.028   7.355  0.0373  0.5001 -0.0508
23839SOL    HW173524   6.290   2.094   7.317 -0.1013  0.1877 -0.8105
23839SOL    HW273525   6.192   2.072   7.431  1.9099  0.4445  1.0247
23840SOL     OW73526   5.729   0.253   5.538  0.0996  0.4286  0.4324
23840SOL    HW173527   5.786   0.316   5.583  1.1322  0.6481 -1.0910
23840SOL    HW273528   5.789   0.202   5.483 -1.0219 -0.2670 -0.1795
23841SOL     OW73529   1.628   8.282   0.437 -0.0244 -0.0705  0.1295
23841SOL    HW173530   1.654   8.365   0.475  0.2486 -1.2830  2.8441
23841SOL    HW273531   1.614   8.224   0.512  1.0633 -2.8576 -1.6342
23842SOL     OW73532   6.847   9.736   8.570 -0.1331 -0.0598 -0.4697
23842SOL    HW173533   6.822   9.644   8.562  2.9436 -0.9635 -1.0268
23842SOL    HW273534   6.810   9.764   8.654 -0.9585 -1.8582 -0.1939
23843SOL     OW73535   4.837   2.466   3.881 -0.4986  0.3861 -0.1678
23843SOL    HW173536   4.894   2.430   3.949  0.2231 -0.9944 -1.4607
23843SOL    HW273537   4.810   2.391   3.829 -0.2397  1.4857 -2.0044
23844SOL     OW73538   4.006   3.038   8.287  0.6030  0.7492 -0.2092
23844SOL    HW173539   4.085   3.025   8.340 -1.7971 -1.5232  3.1284
23844SOL    HW273540   3.984   2.951   8.255 -0.6220  1.3502 -1.0641
23845SOL     OW73541   3.812   9.131   8.620 -0.6417  0.2605 -0.1448
23845SOL    HW173542   3.752   9.153   8.549 -2.0757  0.8561  1.1802
23845SOL    HW273543   3.835   9.039   8.604 -2.2865 -0.1314 -0.4783
23846SOL     OW73544   7.426   4.736   6.981 -0.6559 -0.2907  0.0063
23846SOL    HW173545   7.342   4.782   6.988 -0.9715 -0.4795 -1.9969
23846SOL    HW273546   7.478   4.790   6.922  1.5466  1.0028  2.8733
23847SOL     OW73547   2.256  10.922   4.889  0.6495 -0.3926 -0.0340
23847SOL    HW173548   2.238  10.900   4.798 -0.8282 -1.2965  0.4392
23847SOL    HW273549   2.186  10.879   4.938  2.6384 -1.7916  1.7365
23848SOL     OW73550   6.996   2.082   4.643  0.4358  0.3622  0.2026
23848SOL    HW173551   7.014   2.099   4.551 -1.1295 -0.3239 -0.2605
23848SOL    HW273552   6.988   2.168   4.683 -0.4783  0.6872 -0.6473
23849SOL     OW73553   8.368   5.473   3.147 -0.3177  0.1116 -0.1938
23849SOL    HW173554   8.310   5.548   3.153 -0.9932 -0.3688 -0.5788
23849SOL    HW273555   8.360   5.443   3.056  1.6782  0.9344 -0.6907
23850SOL     OW73556   1.084   8.738   9.228 -0.1656  0.0281  0.2868
23850SOL    HW173557   1.160   8.762   9.174  0.7166  1.5564  2.0937
23850SOL    HW273558   1.030   8.817   9.231 -1.7832 -0.9710 -0.7738
23851SOL     OW73559   6.005   1.400   3.675 -0.1227  0.2800 -0.0524
23851SOL    HW173560   5.987   1.327   3.733  2.7028 -1.7731 -1.4851
23851SOL    HW273561   6.074   1.450   3.719 -0.3930  0.7291 -0.1267
23852SOL     OW73562  10.737  10.738   6.555  0.6075 -0.3207 -0.6824
23852SOL    HW173563  10.650  10.762   6.588  1.3625  1.0866  0.3654
23852SOL    HW273564  10.724  10.725   6.460 -0.8147 -0.6114 -0.4704
23853SOL     OW73565   3.915   3.199   1.108 -0.3911  0.1947  0.1723
23853SOL    HW173566   3.831   3.158   1.131 -0.6289  0.1160 -0.7995
23853SOL    HW273567   3.891   3.286   1.076 -0.1045  0.1632 -0.1287
23854SOL     OW73568   6.534   1.682   0.227  0.0231  0.8478  0.2438
23854SOL    HW173569   6.553   1.650   0.139  1.0015 -3.0350  1.6882
23854SOL    HW273570   6.453   1.637   0.252  0.9793  0.0735  2.0987
23855SOL     OW73571   2.608   3.290   2.652 -0.4290 -0.5963  0.1561
23855SOL    HW173572   2.590   3.339   2.572 -0.8133 -2.2730 -0.8403
23855SOL    HW273573   2.567   3.204   2.637 -0.8294 -0.8274  2.3058
23856SOL     OW73574   8.231   9.501   2.876  0.0984  0.3950  0.2068
23856SOL    HW173575   8.285   9.492   2.798  0.7473  0.7525  0.6016
23856SOL    HW273576   8.223   9.596   2.889 -0.3712  0.3438  0.3341
23857SOL     OW73577   4.395   0.150   5.441 -0.3426  0.0390  0.4118
23857SOL    HW173578   4.478   0.196   5.442 -0.8891  1.0617  1.0590
23857SOL    HW273579   4.407   0.078   5.380  1.3338 -0.4356  1.2505
23858SOL     OW73580  10.509   7.271   8.302 -0.2991  0.1012 -0.1239
23858SOL    HW173581  10.458   7.205   8.255 -0.8164  0.1740  0.3311
23858SOL    HW273582  10.550   7.324   8.233  0.4309 -0.9230 -0.4919
23859SOL     OW73583   5.578  10.266   1.774 -0.2104  0.4338 -0.2848
23859SOL    HW173584   5.524  10.333   1.733  0.3495  1.0245 -0.0778
23859SOL    HW273585   5.550  10.265   1.866  1.4212  2.1505  0.3146
23860SOL     OW73586   4.573   2.649   3.180 -0.2440 -0.0695  0.7599
23860SOL    HW173587   4.599   2.699   3.103 -0.4549 -1.5095 -0.2838
23860SOL    HW273588   4.494   2.693   3.212  0.2602  0.9714  0.6115
23861SOL     OW73589   5.053   6.625  10.289  0.3270 -0.7832  0.1978
23861SOL    HW173590   5.061   6.576  10.371  1.5295 -0.3116  0.3710
23861SOL    HW273591   5.134   6.674  10.281 -0.3378  0.2499 -0.5923
23862SOL     OW73592   6.043   4.958   8.759  0.4646  0.5720  0.3530
23862SOL    HW173593   5.979   5.020   8.725  0.6444  0.6898  0.2264
23862SOL    HW273594   5.995   4.907   8.824  0.3920  1.0442  0.6738
23863SOL     OW73595   0.503   7.254   2.371  1.2306  0.0560  0.4725
23863SOL    HW173596   0.547   7.254   2.456 -0.1466  0.1222  1.2163
23863SOL    HW273597   0.440   7.182   2.377  2.3991 -1.2096 -1.2240
23864SOL     OW73598   4.354   9.400   5.908  0.2787 -0.3099  0.0875
23864SOL    HW173599   4.302   9.470   5.869  1.1614  0.5884  0.4573
23864SOL    HW273600   4.444   9.422   5.884  0.7121 -0.4695  1.5019
23865SOL     OW73601   0.708   0.564   8.333  0.4268 -0.3587 -0.0655
23865SOL    HW173602   0.746   0.652   8.329  0.0989 -0.2541 -1.6870
23865SOL    HW273603   0.622   0.574   8.292  0.3618 -1.4246 -0.2002
23866SOL     OW73604   1.582   1.245  10.600  0.1893  0.2219  0.3396
23866SOL    HW173605   1.611   1.292  10.522  1.3531  2.5547  2.0654
23866SOL    HW273606   1.611   1.155  10.586  0.1281  0.5175 -2.0029
23867SOL     OW73607   9.485   4.524   5.232  0.4386 -0.0922 -0.0711
23867SOL    HW173608   9.476   4.589   5.163  1.4911  0.1608  0.0141
23867SOL    HW273609   9.573   4.488   5.220  0.4339 -0.4277  0.8046
23868SOL     OW73610   5.888   4.849   9.930  0.3849  0.3628 -0.2877
23868SOL    HW173611   5.842   4.793   9.867  0.4276  1.0782 -0.9619
23868SOL    HW273612   5.907   4.790  10.004 -1.5527  0.0274  0.0012
23869SOL     OW73613   7.732   9.040   6.317 -0.2237 -0.1609  0.3942
23869SOL    HW173614   7.686   8.998   6.389  0.9791  0.0574  1.2978
23869SOL    HW273615   7.780   8.970   6.274  0.1305 -0.0647  0.6313
23870SOL     OW73616   2.998   3.114   7.473 -0.4434  0.3965  0.5361
23870SOL    HW173617   2.972   3.096   7.382  1.7934  1.1817 -0.3375
23870SOL    HW273618   2.988   3.031   7.518 -3.0023  0.3299 -0.0270
23871SOL     OW73619   7.683   3.013  10.075 -0.1917 -0.0143 -0.1019
23871SOL    HW173620   7.626   3.087  10.096  2.0601  1.5132  1.0128
23871SOL    HW273621   7.675   3.003   9.980 -1.4910  0.7994 -0.1095
23872SOL     OW73622   6.356  10.406   2.469  0.1961 -0.7580 -0.1960
23872SOL    HW173623   6.302  10.485   2.466  0.0896 -0.7965  0.5457
23872SOL    HW273624   6.338  10.368   2.555  0.9195 -1.1191 -0.1984
23873SOL     OW73625   2.711   1.853   1.768  0.4326 -0.0981  0.0938
23873SOL    HW173626   2.633   1.800   1.786  1.9504 -2.4963  0.0905
23873SOL    HW273627   2.699   1.884   1.679 -0.3804 -0.7417 -0.0355
23874SOL     OW73628   3.745   2.524   8.831 -0.2242 -0.1287 -0.0025
23874SOL    HW173629   3.730   2.431   8.848  0.7453 -0.1579  0.8108
23874SOL    HW273630   3.840   2.533   8.832 -0.3156  0.9692  0.5272
23875SOL     OW73631   6.367   4.637   8.710  0.1470 -0.3305 -0.0444
23875SOL    HW173632   6.443   4.629   8.653 -0.0309 -0.4224 -0.2708
23875SOL    HW273633   6.353   4.731   8.720  0.5239 -0.3120  0.3104
23876SOL     OW73634   9.114  10.938   2.822  0.3664  0.2243 -0.1673
23876SOL    HW173635   9.209  10.947   2.821  0.3670  0.2440 -0.0125
23876SOL    HW273636   9.098  10.845   2.806  0.4073  0.2504 -0.3536
23877SOL     OW73637   7.799   8.369   1.155 -0.2014 -0.0370 -0.6381
23877SOL    HW173638   7.852   8.307   1.204 -1.1988 -0.8971 -0.6172
23877SOL    HW273639   7.765   8.319   1.081  0.5596  1.0082 -1.7247
23878SOL     OW73640   1.376   6.487   6.269  0.2653 -0.5237 -0.4786
23878SOL    HW173641   1.302   6.544   6.288  1.3306  0.9672 -0.6480
23878SOL    HW273642   1.427   6.486   6.350  0.4064 -1.0177 -0.5690
23879SOL     OW73643   5.227   3.147   5.004  0.6964  0.1453  0.1520
23879SOL    HW173644   5.201   3.063   4.964  0.1668  0.7810 -0.8881
23879SOL    HW273645   5.165   3.159   5.076  0.1182  0.1339 -0.3398
23880SOL     OW73646   9.605   3.841   1.108  0.8224 -0.4961 -0.0292
23880SOL    HW173647   9.639   3.756   1.082  1.0490 -1.1976  2.3280
23880SOL    HW273648   9.555   3.872   1.032  1.4366 -2.3206 -1.2305
23881SOL     OW73649   4.139   5.677   6.909 -0.4238 -0.0049  0.0715
23881SOL    HW173650   4.063   5.673   6.851  0.1211  1.6931 -0.8346
23881SOL    HW273651   4.119   5.749   6.969  0.1286 -0.0843  0.3578
23882SOL     OW73652   6.975   8.981   0.315  0.1722 -0.5263 -0.2092
23882SOL    HW173653   6.995   9.074   0.301 -1.2558 -0.3522 -1.4204
23882SOL    HW273654   7.058   8.942   0.342  1.1496  0.8504 -1.0805
23883SOL     OW73655   5.368   2.386   1.514  0.0734  0.0467  0.0495
23883SOL    HW173656   5.351   2.330   1.590  1.5666  1.0081  1.1615
23883SOL    HW273657   5.367   2.475   1.550 -3.3371  0.9170 -1.8631
23884SOL     OW73658   8.093   8.977   6.282  0.2318 -0.3174  0.5608
23884SOL    HW173659   8.070   8.943   6.196  0.7790 -1.0286  0.6872
23884SOL    HW273660   8.187   8.965   6.288  0.2280 -0.0745  1.1773
23885SOL     OW73661   0.011   2.225   8.549  0.0399  0.0056  0.4027
23885SOL    HW173662   0.075   2.186   8.609  0.1951  1.2085  1.0596
23885SOL    HW273663  -0.070   2.178   8.567  0.0246  0.4991  1.7620
23886SOL     OW73664  10.588   3.232  10.183 -0.3985  0.3541 -0.2108
23886SOL    HW173665  10.663   3.290  10.176  0.2834 -0.6959 -2.7037
23886SOL    HW273666  10.561   3.238  10.275  2.4990  1.0108  0.6932
23887SOL     OW73667   6.898  10.910   7.985  0.0570  0.2144 -0.1126
23887SOL    HW173668   6.815  10.869   8.011 -0.0319  1.1261  1.1256
23887SOL    HW273669   6.882  11.004   7.994  0.5200  0.5078 -2.1084
23888SOL     OW73670   1.227   0.674  10.382  0.4570 -0.7883  0.4741
23888SOL    HW173671   1.294   0.727  10.340 -0.1784 -0.1907  0.2136
23888SOL    HW273672   1.265   0.653  10.468  1.3320 -1.1792  0.0144
23889SOL     OW73673   3.674   2.035   1.548  0.1014 -0.6563 -0.0790
23889SOL    HW173674   3.741   2.073   1.606  1.1465 -0.1261 -1.5849
23889SOL    HW273675   3.664   1.945   1.578  0.6914 -0.4223  0.8542
23890SOL     OW73676   1.463   3.434   8.217 -0.2663 -0.1028  0.0268
23890SOL    HW173677   1.473   3.522   8.182  2.8678  0.0013  0.8551
23890SOL    HW273678   1.410   3.445   8.296 -2.1284  0.5555 -1.2412
23891SOL     OW73679   8.708   7.640   0.619 -0.0818 -0.3746  0.3574
23891SOL    HW173680   8.724   7.674   0.531  0.5403  2.1752  1.3806
23891SOL    HW273681   8.679   7.716   0.669 -1.2922 -1.9492  2.1652
23892SOL     OW73682   6.192   9.513   7.074  0.2571  0.1048  0.1538
23892SOL    HW173683   6.232   9.427   7.063  1.6384  0.5439  1.2869
23892SOL    HW273684   6.258   9.574   7.041  0.3034  0.8270  1.4843
23893SOL     OW73685   8.460   4.550   6.146 -0.1404 -0.1445  0.3239
23893SOL    HW173686   8.491   4.641   6.154  0.5417 -0.2889 -0.4944
23893SOL    HW273687   8.385   4.555   6.087  0.2269 -0.1732 -0.1505
23894SOL     OW73688   6.248   0.581  10.220 -0.1477  0.3052  0.1077
23894SOL    HW173689   6.295   0.499  10.203 -0.2859  0.2593 -0.0554
23894SOL    HW273690   6.206   0.602  10.137  0.1532  0.7117  0.0560
23895SOL     OW73691   8.980   2.562   4.816  0.1834 -0.7442  0.4732
23895SOL    HW173692   8.955   2.609   4.895 -2.0999 -0.1770 -0.4959
23895SOL    HW273693   9.053   2.613   4.780 -0.2220  0.2765  1.0555
23896SOL     OW73694   1.483   7.022   3.060 -0.2719 -0.2165 -0.4360
23896SOL    HW173695   1.529   6.940   3.041 -1.0463 -0.5405 -0.9160
23896SOL    HW273696   1.396   6.996   3.088 -0.3250  0.4272  0.0434
23897SOL     OW73697   5.542   3.900   4.180 -0.1846  0.3983 -0.3044
23897SOL    HW173698   5.575   3.987   4.157 -2.9259  1.2052 -1.5373
23897SOL    HW273699   5.454   3.916   4.215 -0.0876 -1.7704  1.0904
23898SOL     OW73700   3.535  10.672   3.803 -0.4821  0.3073 -0.2169
23898SOL    HW173701   3.617  10.705   3.766 -0.2396 -0.9554 -0.8786
23898SOL    HW273702   3.467  10.724   3.761 -0.0693  0.7471 -0.3551
23899SOL     OW73703   7.706   4.765   8.413 -0.0789 -0.2098 -0.3952
23899SOL    HW173704   7.652   4.799   8.342  0.6487  0.0990 -0.8166
23899SOL    HW273705   7.722   4.840   8.470 -0.5711 -0.4325  0.0469
23900SOL     OW73706   8.985   1.846   1.998  0.1054 -0.5563 -0.1309
23900SOL    HW173707   9.021   1.933   2.015 -1.2700  0.3614 -1.6166
23900SOL    HW273708   8.892   1.854   2.020  0.1834 -2.0141  0.8407
23901SOL     OW73709   3.913   1.439   8.451 -0.1019 -0.0673  0.4318
23901SOL    HW173710   3.831   1.489   8.459 -0.0633 -0.2279  2.4866
23901SOL    HW273711   3.953   1.446   8.538  0.8749 -2.0488  0.1873
23902SOL     OW73712   5.422   2.626   1.686  0.3433 -0.5272  0.0413
23902SOL    HW173713   5.335   2.662   1.702  0.3489 -0.0671 -0.8867
23902SOL    HW273714   5.467   2.634   1.770 -0.7567 -1.5281  0.7583
23903SOL     OW73715   2.369   7.022   1.780 -0.0821  0.0161  0.7080
23903SOL    HW173716   2.350   7.082   1.708 -1.1159 -1.3346 -0.1948
23903SOL    HW273717   2.289   6.969   1.789  0.1229 -0.0457  2.6691
23904SOL     OW73718   7.951   1.132   1.281 -0.0562 -0.4403  0.5309
23904SOL    HW173719   8.029   1.135   1.336 -0.6540  1.7589  1.3992
23904SOL    HW273720   7.983   1.150   1.192  0.7411 -2.6306  0.3118
23905SOL     OW73721   8.337   4.813   3.698  0.1215 -0.3727  0.0170
23905SOL    HW173722   8.271   4.815   3.628  0.1141 -0.0865  0.0285
23905SOL    HW273723   8.360   4.905   3.711  0.5846 -0.4768 -0.0434
23906SOL     OW73724   8.003   7.648   2.273  0.1525  0.4340 -0.3091
23906SOL    HW173725   8.056   7.639   2.194 -1.9395 -0.4737 -1.6946
23906SOL    HW273726   8.066   7.648   2.345  2.0690  0.5803 -1.9258
23907SOL     OW73727  10.755   3.082   6.725  0.0041 -0.3394  0.2061
23907SOL    HW173728  10.769   3.080   6.630  0.0410  0.0333  0.2016
23907SOL    HW273729  10.667   3.119   6.735 -0.2488 -0.9552  0.2985
23908SOL     OW73730   5.184   3.486   8.747 -0.5339 -0.1237 -0.8158
23908SOL    HW173731   5.171   3.479   8.653  2.8223 -0.7427 -1.3557
23908SOL    HW273732   5.131   3.562   8.773  0.4537  1.6870 -3.6834
23909SOL     OW73733   9.866   7.921   8.287  0.5131 -0.2155  0.1343
23909SOL    HW173734   9.918   7.859   8.236  0.6580 -1.3161  1.5268
23909SOL    HW273735   9.908   8.006   8.272  0.7710 -0.5616 -1.2345
23910SOL     OW73736   2.348  10.457   2.523  0.1217  0.3437  0.6974
23910SOL    HW173737   2.404  10.416   2.457 -0.0384  1.2278 -0.0101
23910SOL    HW273738   2.396  10.536   2.550 -1.5750  2.1826 -1.3420
23911SOL     OW73739   0.799   8.175   3.638  0.0193 -0.0829  0.1821
23911SOL    HW173740   0.816   8.219   3.555  0.1701 -0.6250 -0.0777
23911SOL    HW273741   0.793   8.083   3.616 -0.7943 -0.1569  0.6472
23912SOL     OW73742   6.882   3.545  10.275 -0.1586  0.0368  0.4784
23912SOL    HW173743   6.939   3.469  10.267  0.2109  0.3102  0.4417
23912SOL    HW273744   6.841   3.536  10.361 -0.9649 -0.7702  0.0240
23913SOL     OW73745   3.303   4.120   6.198 -0.3974  0.0060 -0.2466
23913SOL    HW173746   3.270   4.044   6.149 -0.7943  0.2697 -0.3961
23913SOL    HW273747   3.326   4.085   6.284 -1.3351 -0.1448 -0.0389
23914SOL     OW73748   4.699   3.214   8.613 -0.0455 -0.3585  0.7768
23914SOL    HW173749   4.782   3.256   8.636 -0.8752  1.9210 -0.1649
23914SOL    HW273750   4.713   3.179   8.524  0.5775 -2.0286  1.4822
23915SOL     OW73751   2.966   0.969   6.465  0.2640  0.0234  0.0856
23915SOL    HW173752   2.971   1.063   6.486  0.3384  0.2983 -1.1108
23915SOL    HW273753   3.028   0.928   6.525 -0.8143  0.5420  1.6301
23916SOL     OW73754   3.965  10.468   1.413  0.0681 -0.4283 -0.0232
23916SOL    HW173755   3.999  10.421   1.489  0.8397 -0.4196 -0.3517
23916SOL    HW273756   4.003  10.422   1.337  0.8569  0.7077 -0.3486
23917SOL     OW73757   6.653   2.933   1.766 -0.4387  0.1520  0.5531
23917SOL    HW173758   6.680   2.861   1.823  1.2278 -0.9930 -1.5193
23917SOL    HW273759   6.572   2.902   1.726 -0.3578 -0.0620  0.5524
23918SOL     OW73760   0.809  10.612   4.122  0.3765 -0.6134  0.0621
23918SOL    HW173761   0.850  10.599   4.036 -0.3999  0.7594 -0.5575
23918SOL    HW273762   0.827  10.531   4.169  0.8776 -1.3855 -1.3683
23919SOL     OW73763   7.365   0.206  10.844  0.7250  0.2530  0.1483
23919SOL    HW173764   7.302   0.154  10.894  1.6193 -0.0952  0.9483
23919SOL    HW273765   7.381   0.283  10.899 -0.2632  1.2069 -0.8320
23920SOL     OW73766   3.388   1.484   6.383 -0.5025 -0.7410  0.2107
23920SOL    HW173767   3.325   1.412   6.391  0.8391 -1.8672  1.0715
23920SOL    HW273768   3.341   1.551   6.334 -2.2407 -1.6864  0.4864
23921SOL     OW73769   8.073   7.473  10.151 -0.7525  0.1576 -0.5461
23921SOL    HW173770   8.153   7.454  10.102  0.4787 -1.5233  1.9339
23921SOL    HW273771   8.091   7.557  10.194 -1.1492  0.7536 -1.4975
23922SOL     OW73772   5.663   6.731   1.511  0.2189 -0.1730 -0.1494
23922SOL    HW173773   5.569   6.728   1.496  0.5283 -1.7923 -2.2961
23922SOL    HW273774   5.693   6.806   1.460  0.3979 -1.5882 -2.3024
23923SOL     OW73775   2.398   7.314   5.010 -0.0613 -0.0457  0.0152
23923SOL    HW173776   2.462   7.316   5.081  1.5971  0.2066 -1.4026
23923SOL    HW273777   2.384   7.221   4.993  0.6945 -0.1116 -0.2954
23924SOL     OW73778   0.145   6.153   8.180 -0.4943  0.5216 -0.1414
23924SOL    HW173779   0.075   6.215   8.199 -1.6214 -1.1514  1.5505
23924SOL    HW273780   0.152   6.152   8.085 -1.8954  1.6583 -0.2895
23925SOL     OW73781   0.112   1.140   7.450  0.2509 -0.8727  0.2714
23925SOL    HW173782   0.173   1.103   7.513 -0.9378 -2.3264  0.6542
23925SOL    HW273783   0.067   1.210   7.498  2.2921  0.9628 -0.3518
23926SOL     OW73784   9.138   7.342   7.333  0.3259  0.4480  0.3542
23926SOL    HW173785   9.162   7.430   7.363 -1.2190  1.0686 -0.1260
23926SOL    HW273786   9.165   7.340   7.241 -0.4961  0.7701  0.1023
23927SOL     OW73787   1.769   0.773   9.510  0.4678 -0.3030  0.1513
23927SOL    HW173788   1.758   0.704   9.444 -0.9254 -0.5561  0.6243
23927SOL    HW273789   1.862   0.771   9.531  0.7891 -0.7725 -1.1959
23928SOL     OW73790   7.921   0.026   8.289 -0.5581  0.7911  0.0093
23928SOL    HW173791   7.849   0.054   8.345  1.1956  1.4831  2.0574
23928SOL    HW273792   7.917  -0.069   8.289 -1.2955  0.8213  0.3475
23929SOL     OW73793  10.784   0.220   9.733 -0.4423  0.1319  0.4564
23929SOL    HW173794  10.745   0.196   9.649 -0.2334 -0.1513  0.4382
23929SOL    HW273795  10.775   0.315   9.738 -0.2856  0.1713  0.0300
23930SOL     OW73796   6.641   4.440   2.659 -0.1276 -0.9288 -0.0548
23930SOL    HW173797   6.574   4.506   2.642  0.4295 -0.5475 -0.8584
23930SOL    HW273798   6.630   4.417   2.751  0.4494  1.1758  0.6028
23931SOL     OW73799   1.725   2.829  10.516  0.0673 -0.8456  0.2044
23931SOL    HW173800   1.716   2.779  10.597  0.7117 -0.2562  0.6519
23931SOL    HW273801   1.647   2.806  10.465 -0.7701 -0.6055  1.3310
23932SOL     OW73802   8.668   0.598   5.810  0.5040 -0.2492  0.2254
23932SOL    HW173803   8.681   0.681   5.856  1.7781 -0.8346  0.9768
23932SOL    HW273804   8.747   0.587   5.757  0.0439 -0.6673 -0.3995
23933SOL     OW73805   0.042   9.436  10.767 -0.2555 -0.0830 -0.8396
23933SOL    HW173806   0.136   9.416  10.764 -0.1830  0.3514 -2.2439
23933SOL    HW273807   0.007   9.376  10.833  1.0906  0.1311  0.1110
23934SOL     OW73808   9.148   5.643   7.654  0.0923  0.2839  0.2420
23934SOL    HW173809   9.064   5.604   7.629 -1.0188  2.9480 -0.5155
23934SOL    HW273810   9.125   5.709   7.719  1.3314  2.2147 -1.1789
23935SOL     OW73811   8.489  10.579  10.207 -0.3500  0.3585  0.2824
23935SOL    HW173812   8.398  10.601  10.225 -0.7870  1.2973 -2.5706
23935SOL    HW273813   8.485  10.490  10.170 -0.1786  0.5359 -0.1710
23936SOL     OW73814   6.221   2.203   6.563 -0.0306  0.0591 -0.3242
23936SOL    HW173815   6.152   2.261   6.532 -0.1143  0.1172 -0.0410
23936SOL    HW273816   6.224   2.219   6.658  1.0814  0.8406 -0.4600
23937SOL     OW73817  10.260   8.229  10.017  0.4906 -0.0908  0.4161
23937SOL    HW173818  10.345   8.196   9.990  0.3573 -1.1124  1.2120
23937SOL    HW273819  10.250   8.311   9.968  2.0858  0.2463  0.6051
23938SOL     OW73820   1.548   2.126   8.417 -0.3889 -0.2633 -0.3710
23938SOL    HW173821   1.622   2.153   8.472 -0.1894  1.1886 -1.3024
23938SOL    HW273822   1.589   2.086   8.340 -0.4101  2.2606 -1.8058
23939SOL     OW73823   0.392   7.908   6.596  0.1425 -0.3460  0.4810
23939SOL    HW173824   0.317   7.934   6.650 -1.3599 -1.0831 -1.1603
23939SOL    HW273825   0.400   7.979   6.531 -1.1081 -1.6679 -1.2078
23940SOL     OW73826   8.366   1.051   3.037  0.9471  0.0963  0.1741
23940SOL    HW173827   8.281   1.059   2.995  1.7483  1.2059 -1.3289
23940SOL    HW273828   8.346   1.039   3.130 -0.8492  2.1774  0.1328
23941SOL     OW73829   4.008   1.900   0.869  0.4124 -0.1938 -0.2320
23941SOL    HW173830   4.034   1.972   0.812 -2.2932 -0.4360 -1.9484
23941SOL    HW273831   4.024   1.932   0.958  0.1218  2.1752 -0.9846
23942SOL     OW73832   9.078   1.448   2.509  0.3544  0.5359  0.2338
23942SOL    HW173833   9.031   1.470   2.428 -0.0733  0.5210  0.4776
23942SOL    HW273834   9.132   1.372   2.485  0.1294  0.4501 -0.0021
23943SOL     OW73835   6.065   3.682   3.242  0.1050 -0.2208 -0.0069
23943SOL    HW173836   6.008   3.622   3.289 -1.5676  1.3259  0.0107
23943SOL    HW273837   6.154   3.650   3.261 -0.6773 -2.1888  0.6188
23944SOL     OW73838   2.373   2.691   4.303 -0.5622  0.1404 -0.5988
23944SOL    HW173839   2.374   2.656   4.214 -0.8644 -0.0557 -0.5286
23944SOL    HW273840   2.285   2.729   4.313 -0.7082 -0.2828 -0.2223
23945SOL     OW73841   4.638   9.765   0.398 -0.0518  0.0225 -0.2581
23945SOL    HW173842   4.731   9.750   0.418 -0.1705  0.2724  0.5202
23945SOL    HW273843   4.608   9.683   0.359  0.3596 -0.2551  0.0039
23946SOL     OW73844   3.655   8.392   9.426 -0.1055  0.4096  0.7946
23946SOL    HW173845   3.647   8.410   9.520 -0.3874  0.1618  0.8187
23946SOL    HW273846   3.749   8.386   9.410 -0.0942 -1.1475  1.3618
23947SOL     OW73847   9.893   9.549   1.484 -0.0920  0.0310 -0.6512
23947SOL    HW173848   9.951   9.487   1.529 -0.1325  0.0462 -0.5797
23947SOL    HW273849   9.844   9.495   1.422 -1.0925 -0.2225  0.3396
23948SOL     OW73850   2.401   3.395   8.330 -0.2116  0.3378  0.1273
23948SOL    HW173851   2.314   3.434   8.336 -0.7439 -0.5524 -1.3302
23948SOL    HW273852   2.385   3.300   8.332  0.9146  0.1419  1.9035
23949SOL     OW73853   3.710   2.231   8.897  0.1975  0.2853 -0.0670
23949SOL    HW173854   3.617   2.223   8.880 -0.3541  1.7746  1.8199
23949SOL    HW273855   3.724   2.183   8.979  1.0369  0.2362 -0.2284
23950SOL     OW73856   6.382   8.871  10.595  0.2318 -0.0841 -0.2453
23950SOL    HW173857   6.428   8.827  10.524 -1.0237 -1.2703 -0.3753
23950SOL    HW273858   6.306   8.911  10.553 -0.6295 -0.9566  0.4056
23951SOL     OW73859   0.976   4.899   6.717  0.1398  0.1501 -0.5371
23951SOL    HW173860   0.966   4.990   6.690 -1.3495  0.2726  0.2731
23951SOL    HW273861   0.912   4.852   6.664 -1.2267  0.0618  1.0989
23952SOL     OW73862   9.584   1.629   5.032  0.0947 -0.1499 -0.0544
23952SOL    HW173863   9.573   1.623   4.937  1.2662  1.2332 -0.3268
23952SOL    HW273864   9.504   1.592   5.068  0.3711 -2.3820 -1.5203
23953SOL     OW73865   6.725   7.027   6.945 -0.9379  0.2225  0.3263
23953SOL    HW173866   6.783   7.016   7.021 -0.7978  0.4599  0.2545
23953SOL    HW273867   6.785   7.036   6.871 -0.9986  2.3452  0.4764
23954SOL     OW73868   5.194   2.681   9.131 -0.0951 -0.3508 -0.7330
23954SOL    HW173869   5.229   2.720   9.050  1.2477 -1.3044 -0.6451
23954SOL    HW273870   5.102   2.662   9.110  0.2328 -0.6202 -2.0772
23955SOL     OW73871   5.974   0.837   0.505  0.5311  0.4484 -0.0882
23955SOL    HW173872   5.900   0.877   0.552  1.0477 -0.0407  1.1723
23955SOL    HW273873   5.934   0.794   0.429 -0.4648  0.2707  0.5257
23956SOL     OW73874   6.273   4.234   0.040  0.1445 -0.6418  0.7061
23956SOL    HW173875   6.262   4.178   0.117  0.0685 -0.1650  1.0415
23956SOL    HW273876   6.245   4.320   0.069  0.0451 -0.4769  0.1194
23957SOL     OW73877   6.839   9.995   6.919  0.6354  0.2515  0.3382
23957SOL    HW173878   6.891   9.917   6.898  1.6943  0.7953  0.8704
23957SOL    HW273879   6.901  10.056   6.958 -0.5246  0.7193  1.5335
23958SOL     OW73880   4.068   1.681   4.465 -0.9630 -0.3853  0.1967
23958SOL    HW173881   4.012   1.719   4.533 -1.7892  0.2345 -0.8033
23958SOL    HW273882   4.098   1.756   4.414  0.2607 -0.7826  0.3231
23959SOL     OW73883   6.295  10.674   7.430 -0.0035  0.1414  0.1437
23959SOL    HW173884   6.338  10.622   7.362 -2.1832 -0.2405 -1.0480
23959SOL    HW273885   6.230  10.614   7.467 -1.0695  1.3510  0.2692
23960SOL     OW73886   2.444   4.111  10.897 -0.1726  0.3811  0.0512
23960SOL    HW173887   2.406   4.165  10.829 -2.2112 -1.1343 -0.1252
23960SOL    HW273888   2.420   4.154  10.979 -0.8772  0.3185 -0.1157
23961SOL     OW73889   6.594   0.891   4.324  0.1416  0.0764 -0.0150
23961SOL    HW173890   6.660   0.911   4.390 -0.3327  2.0373 -0.0546
23961SOL    HW273891   6.557   0.977   4.301 -2.7916 -0.9866  0.3937
23962SOL     OW73892   6.879   2.477   4.431 -0.3750  0.3293  0.2521
23962SOL    HW173893   6.928   2.553   4.462 -0.1431 -0.1426  1.0918
23962SOL    HW273894   6.917   2.403   4.480 -1.0596 -0.2269 -0.0403
23963SOL     OW73895   7.536   4.886   0.626  0.1382 -0.5748  0.4896
23963SOL    HW173896   7.617   4.874   0.576  0.4380 -1.3604  1.1321
23963SOL    HW273897   7.475   4.822   0.589 -0.2703  0.1736 -0.1454
23964SOL     OW73898   5.173   1.229   6.895  1.0452  0.0045  0.0134
23964SOL    HW173899   5.266   1.253   6.903  1.4594 -1.7001  0.9054
23964SOL    HW273900   5.173   1.154   6.836  0.1155  0.5220 -0.6627
23965SOL     OW73901   2.606   5.342   8.979  0.0541  0.5065  0.2837
23965SOL    HW173902   2.582   5.264   8.929  1.7519  0.0332  0.1447
23965SOL    HW273903   2.659   5.394   8.919 -1.5844  2.1531  0.1446
23966SOL     OW73904   6.205   2.302   8.554  0.5324  0.2314  0.3821
23966SOL    HW173905   6.129   2.349   8.519  0.9697  0.3467 -0.4289
23966SOL    HW273906   6.272   2.311   8.487  0.7571 -1.2148  0.3719
23967SOL     OW73907   2.325   1.373   8.856 -0.2045 -0.0024  0.0970
23967SOL    HW173908   2.298   1.454   8.814  0.9482 -0.5730 -1.9028
23967SOL    HW273909   2.391   1.400   8.920 -1.5912  0.8308  1.2382
23968SOL     OW73910   3.042  10.054   5.136  0.1025 -0.3567 -0.0351
23968SOL    HW173911   2.949  10.043   5.159 -0.4167  1.9427 -0.7488
23968SOL    HW273912   3.054   9.997   5.060 -0.6506 -0.8853  0.2217
23969SOL     OW73913   2.252   3.541   3.751 -0.1878 -0.2134 -0.1868
23969SOL    HW173914   2.341   3.575   3.763 -0.5466  0.0612  2.1320
23969SOL    HW273915   2.263   3.462   3.699  1.4734 -0.3983  0.3968
23970SOL     OW73916   8.137   8.627   6.048  0.0347 -0.0122 -0.8499
23970SOL    HW173917   8.188   8.573   5.988  0.8366 -0.0151 -0.1841
23970SOL    HW273918   8.048   8.591   6.043  0.2970 -0.6180 -1.3095
23971SOL     OW73919  10.349  10.312   3.081  0.1806 -0.4642  0.2254
23971SOL    HW173920  10.404  10.390   3.076  0.4474 -0.6435  0.3475
23971SOL    HW273921  10.295  10.326   3.159 -1.5866  0.7723 -1.1105
23972SOL     OW73922   6.870   4.029   7.877  0.2223 -0.3400 -0.0406
23972SOL    HW173923   6.779   4.038   7.904  0.2661  2.4482 -0.5188
23972SOL    HW273924   6.920   4.036   7.959  0.0728 -1.4984  0.1747
23973SOL     OW73925   7.120   1.361   4.081 -0.4402  0.0102 -0.4506
23973SOL    HW173926   7.088   1.300   4.147  0.2375  0.2645  0.1244
23973SOL    HW273927   7.090   1.447   4.110 -0.7054  0.0477 -0.8285
23974SOL     OW73928   7.191   8.870   8.851  0.7192  0.0883  0.0394
23974SOL    HW173929   7.222   8.861   8.761 -0.1972  0.2318 -0.2967
23974SOL    HW273930   7.110   8.820   8.855  0.9568 -0.2505  0.8973
23975SOL     OW73931   8.300   3.515   7.866  0.8164 -0.1987  0.2687
23975SOL    HW173932   8.340   3.430   7.846  1.8316  0.4907 -0.7514
23975SOL    HW273933   8.292   3.559   7.782  1.0799  1.0442  0.8662
23976SOL     OW73934  10.173   0.406   2.964 -0.3767  0.3348 -0.2345
23976SOL    HW173935  10.152   0.330   3.020  0.0449  0.4184  0.0399
23976SOL    HW273936  10.130   0.387   2.881 -1.2307  0.3249  0.1993
23977SOL     OW73937   7.519   6.668   8.600 -0.0398  0.0156  0.1240
23977SOL    HW173938   7.602   6.714   8.614  0.2769 -0.5844  0.2664
23977SOL    HW273939   7.502   6.677   8.506 -1.3152  2.6287  0.5174
23978SOL     OW73940   8.266   6.090   8.043 -0.0541  0.7801 -0.6684
23978SOL    HW173941   8.215   6.013   8.069  0.2540  0.3754 -1.2382
23978SOL    HW273942   8.330   6.102   8.113 -0.8740  1.2558  0.0248
23979SOL     OW73943   6.362   3.453   0.563  0.1181  0.0825  0.3747
23979SOL    HW173944   6.305   3.441   0.487 -0.9145  1.4980  0.8854
23979SOL    HW273945   6.376   3.364   0.596  1.5143 -0.7035 -2.0737
23980SOL     OW73946   8.232   0.662   8.830 -0.0600  0.4533 -0.2823
23980SOL    HW173947   8.203   0.572   8.846 -0.6769  1.1154  2.9411
23980SOL    HW273948   8.325   0.661   8.849 -0.1812  0.6112  0.3195
23981SOL     OW73949   5.081   6.437   4.859 -0.8999  0.6986 -0.0274
23981SOL    HW173950   5.148   6.483   4.910  1.4516 -1.9477 -0.5141
23981SOL    HW273951   5.060   6.360   4.912 -0.9123 -0.3400 -1.4906
23982SOL     OW73952   8.318  10.798   9.003  0.1716  0.8236 -0.9539
23982SOL    HW173953   8.321  10.705   8.981 -0.0035  1.1908 -2.6634
23982SOL    HW273954   8.280  10.801   9.091  0.6394 -0.7329 -0.6735
23983SOL     OW73955   0.208   2.869  10.896  0.1182  0.2447 -0.4044
23983SOL    HW173956   0.209   2.811  10.820 -3.0294  0.4821 -0.7610
23983SOL    HW273957   0.293   2.912  10.895  1.0567 -1.4959 -2.3807
23984SOL     OW73958   7.719   4.027   5.704  0.3814  0.1938 -0.3365
23984SOL    HW173959   7.728   4.041   5.798 -0.7080 -1.2821  0.0175
23984SOL    HW273960   7.630   4.057   5.684  0.9843  1.5640 -1.1449
23985SOL     OW73961   7.357   3.636   5.077 -0.4341  0.0672  0.5159
23985SOL    HW173962   7.384   3.713   5.125  1.1340  0.0085 -0.2144
23985SOL    HW273963   7.304   3.670   5.005 -0.2792  0.4027  0.5590
23986SOL     OW73964   8.209   9.444   9.079 -0.4230  0.1625  0.8261
23986SOL    HW173965   8.170   9.518   9.032 -0.9833  0.2345  1.3894
23986SOL    HW273966   8.155   9.369   9.054  0.7804 -0.2918 -0.5819
23987SOL     OW73967   6.136   6.950   7.690  0.0049  0.0165 -0.7424
23987SOL    HW173968   6.167   7.006   7.761 -2.1741  1.1894 -0.6066
23987SOL    HW273969   6.067   7.002   7.647 -0.9478 -1.9088 -1.6811
23988SOL     OW73970   9.562   0.654   7.458  0.4616 -0.3897 -0.2807
23988SOL    HW173971   9.597   0.723   7.515 -0.5682 -0.5733  0.5980
23988SOL    HW273972   9.640   0.607   7.427  1.2033  1.3320 -1.1522
23989SOL     OW73973  10.028   1.709   8.196  0.2004  0.4275  0.5814
23989SOL    HW173974  10.005   1.735   8.286 -0.7556  1.6096  0.0349
23989SOL    HW273975   9.943   1.699   8.152  0.6704  1.1222 -0.5119
23990SOL     OW73976   3.951   6.876   0.297  0.0945 -0.4934  0.3737
23990SOL    HW173977   3.864   6.884   0.337  1.1305  1.4637  2.5213
23990SOL    HW273978   3.956   6.949   0.236  0.1874 -0.6508  0.1943
23991SOL     OW73979   5.720   5.105   4.914  0.0057 -0.5687 -0.1178
23991SOL    HW173980   5.699   5.150   4.996  2.3635 -1.1044  0.8488
23991SOL    HW273981   5.740   5.015   4.939 -0.6801 -1.1493 -1.5048
23992SOL     OW73982   6.256   0.623   1.979 -0.6064 -0.4254  0.2482
23992SOL    HW173983   6.259   0.647   2.071 -1.5294 -0.5764  0.3245
23992SOL    HW273984   6.164   0.603   1.962 -0.5443  0.1388 -0.8398
23993SOL     OW73985   5.543   1.685   6.039 -0.2644  0.4570  0.4945
23993SOL    HW173986   5.541   1.759   5.978  2.2107  0.0847 -0.1168
23993SOL    HW273987   5.589   1.719   6.116  2.7398 -0.8846 -0.5710
23994SOL     OW73988   7.165   0.969   6.422 -0.1855  0.2114  0.1714
23994SOL    HW173989   7.185   1.027   6.495 -2.0797 -0.2660  1.1275
23994SOL    HW273990   7.097   1.015   6.373 -2.0202 -1.2948  1.1741
23995SOL     OW73991   1.419   5.292   1.030 -1.2171  0.5789 -0.1185
23995SOL    HW173992   1.479   5.366   1.020 -1.8018  1.0054 -0.5197
23995SOL    HW273993   1.354   5.322   1.093 -0.9216  0.0519  0.4515
23996SOL     OW73994   7.480   1.579   8.875 -0.3102  0.2897 -0.1978
23996SOL    HW173995   7.523   1.555   8.793 -1.6904 -0.9162 -0.6088
23996SOL    HW273996   7.472   1.674   8.871 -2.7433  0.1038 -2.7451
23997SOL     OW73997   3.975   0.889   5.699  0.1347 -0.1628  0.0784
23997SOL    HW173998   3.986   0.836   5.779  0.4452  0.3979  0.4155
23997SOL    HW273999   4.056   0.874   5.650 -0.0063 -0.4144 -0.0829
23998SOL     OW74000   2.470   0.095   4.171  0.1536 -0.4099 -0.2991
23998SOL    HW174001   2.385   0.125   4.140 -0.0769  0.1259  0.8042
23998SOL    HW274002   2.532   0.160   4.135  0.1650 -1.0276 -1.4377
23999SOL     OW74003   3.572   2.318   7.859  0.1858 -0.3169  0.1876
23999SOL    HW174004   3.562   2.351   7.769 -0.5101 -1.2321 -0.0846
23999SOL    HW274005   3.524   2.381   7.913 -0.7602 -0.6235 -0.2748
24000SOL     OW74006   5.981   6.275   8.465 -0.1941  0.2024  0.1652
24000SOL    HW174007   6.048   6.222   8.422  0.3547 -0.1934  1.4533
24000SOL    HW274008   5.909   6.279   8.402  1.0891  0.7725 -1.3107
24001SOL     OW74009  10.490   2.713   8.005 -0.2755  0.0118 -0.0369
24001SOL    HW174010  10.465   2.802   8.031  1.9822  0.4644  0.7971
24001SOL    HW274011  10.432   2.656   8.055 -0.1416  0.9869  1.2668
24002SOL     OW74012   5.464   6.770  10.581  0.2474 -0.3895  0.4391
24002SOL    HW174013   5.386   6.826  10.592  0.0398 -0.6686  0.3963
24002SOL    HW274014   5.435   6.701  10.522  0.2940 -0.9530  1.0690
24003SOL     OW74015   8.805   2.495   8.442  0.1912 -0.3133  0.1290
24003SOL    HW174016   8.717   2.459   8.431  0.5475 -0.8306 -1.3405
24003SOL    HW274017   8.795   2.565   8.506 -1.0895 -1.0599  0.7827
24004SOL     OW74018   3.772   4.183   3.848 -0.4133  0.2466  0.3966
24004SOL    HW174019   3.740   4.099   3.880 -1.0799  0.9687  1.7355
24004SOL    HW274020   3.703   4.245   3.872  1.7748  1.8295  3.0964
24005SOL     OW74021  10.607   5.759   7.750 -0.1531 -0.5791 -0.4969
24005SOL    HW174022  10.677   5.709   7.708 -0.5719 -0.5621 -1.2312
24005SOL    HW274023  10.652   5.814   7.814  1.0448  2.0758 -3.3465
24006SOL     OW74024   2.569   2.688   0.530 -0.1568  0.1772 -0.3275
24006SOL    HW174025   2.630   2.675   0.458  0.3816 -0.8553  0.2866
24006SOL    HW274026   2.591   2.774   0.565  1.1013 -0.2627  0.0124
24007SOL     OW74027   0.012   6.813  10.700 -0.2455  0.7429  0.0100
24007SOL    HW174028   0.074   6.884  10.685  0.9096  0.2877  2.2990
24007SOL    HW274029   0.040   6.744  10.640 -0.9535  1.8776 -1.7305
24008SOL     OW74030   8.412   1.535   3.574 -0.3668  0.0765  0.0895
24008SOL    HW174031   8.469   1.607   3.548  1.5672 -0.8779  1.4091
24008SOL    HW274032   8.387   1.493   3.492 -0.8381  1.7207 -0.6318
24009SOL     OW74033   8.006   5.315   8.106  0.4240 -0.1149  0.1254
24009SOL    HW174034   8.043   5.372   8.039  1.1432  1.3251  1.6615
24009SOL    HW274035   7.915   5.301   8.079  1.0020 -0.5337 -1.7073
24010SOL     OW74036   4.542   3.076  10.928  0.2177  0.5593  0.5202
24010SOL    HW174037   4.459   3.041  10.898  1.1057  0.7099 -2.5188
24010SOL    HW274038   4.527   3.101  11.019 -2.9496  0.3752  0.1485
24011SOL     OW74039   5.338   1.342   8.815  0.2548  0.4221  0.4025
24011SOL    HW174040   5.381   1.394   8.883 -0.6815  0.1351  1.2483
24011SOL    HW274041   5.279   1.403   8.772 -0.5329  0.1765  1.1135
24012SOL     OW74042   8.829   1.428   8.487 -0.0602 -0.5032 -0.3254
24012SOL    HW174043   8.754   1.384   8.447  0.8609 -2.3306 -0.1496
24012SOL    HW274044   8.906   1.390   8.445  0.8205  0.3386  0.4517
24013SOL     OW74045   3.057   8.544   7.270 -0.2333 -0.9129 -0.3559
24013SOL    HW174046   3.060   8.450   7.286 -1.7839 -0.9885 -0.3587
24013SOL    HW274047   3.121   8.558   7.200 -0.6660 -2.1134 -1.0232
24014SOL     OW74048   7.215   6.286   9.688  0.0922 -0.3219  0.1201
24014SOL    HW174049   7.166   6.348   9.634 -0.3919 -0.8214 -0.0280
24014SOL    HW274050   7.294   6.334   9.714 -0.9361  0.8354  1.1969
24015SOL     OW74051   4.541   9.881   0.707  0.3821  0.2834 -0.0570
24015SOL    HW174052   4.561   9.921   0.792 -0.0682  1.3918 -0.4507
24015SOL    HW274053   4.518   9.955   0.650 -0.2063 -0.5170 -0.8997
24016SOL     OW74054   1.592   2.364   6.785 -0.3617 -0.0476 -0.4197
24016SOL    HW174055   1.681   2.341   6.810 -0.4584  2.1505  2.4816
24016SOL    HW274056   1.537   2.305   6.837 -0.5587  1.0860  0.7018
24017SOL     OW74057   4.791   6.588   9.709  0.1452  0.2094 -0.0538
24017SOL    HW174058   4.856   6.555   9.771  0.9207  0.4731 -0.7179
24017SOL    HW274059   4.769   6.676   9.741 -1.6223 -0.7076  1.4862
24018SOL     OW74060   8.002   6.097   5.082  0.2872 -0.1490  0.4701
24018SOL    HW174061   7.910   6.112   5.062  0.0090  2.6204  3.0875
24018SOL    HW274062   8.047   6.109   4.999 -1.4570  1.9437 -0.2673
24019SOL     OW74063   8.134   7.246   8.692 -0.1866 -0.0062 -0.0486
24019SOL    HW174064   8.044   7.218   8.704 -0.0925 -0.0047  0.7251
24019SOL    HW274065   8.140   7.329   8.739  0.8589 -1.2439  2.2131
24020SOL     OW74066   4.775   4.378   0.176 -0.3212 -0.0763 -0.4801
24020SOL    HW174067   4.692   4.421   0.194  0.1151  1.6590 -2.2899
24020SOL    HW274068   4.790   4.322   0.253 -2.2128  0.9943  0.7514
24021SOL     OW74069   5.928  10.775  10.751 -0.0614 -0.1474  0.0183
24021SOL    HW174070   5.980  10.826  10.689 -0.9664  2.3196  1.1327
24021SOL    HW274071   5.856  10.740  10.698  0.7518 -0.5617 -0.8450
24022SOL     OW74072   2.653   0.178   3.799 -0.4468  0.2457  0.1155
24022SOL    HW174073   2.584   0.125   3.758 -0.7040 -1.3945  2.4583
24022SOL    HW274074   2.726   0.117   3.810 -0.0317  0.9129  1.1471
24023SOL     OW74075   8.404   1.625   0.093 -0.3602  0.2027 -0.0642
24023SOL    HW174076   8.407   1.531   0.112  0.7787 -0.1885 -1.9072
24023SOL    HW274077   8.311   1.647   0.094 -0.9259 -1.6342 -2.4398
24024SOL     OW74078   3.487   2.648  10.737  0.6456  0.1560 -0.4798
24024SOL    HW174079   3.438   2.659  10.818  0.3347  1.8887 -0.8634
24024SOL    HW274080   3.555   2.584  10.758  0.6264  0.6406  1.1629
24025SOL     OW74081   6.703   4.776  10.564 -0.4149  0.2038 -0.3922
24025SOL    HW174082   6.768   4.843  10.585 -0.5130  0.7719 -1.7781
24025SOL    HW274083   6.755   4.700  10.538 -0.3008  0.2370 -0.2640
24026SOL     OW74084   3.284   4.130   4.771  0.2877  0.2108  0.2305
24026SOL    HW174085   3.293   4.156   4.680 -0.6326  1.2165  0.4036
24026SOL    HW274086   3.229   4.052   4.769 -2.4508  2.0061  0.0672
24027SOL     OW74087   9.503   0.855   2.780  0.2805  0.0969  0.1634
24027SOL    HW174088   9.543   0.929   2.733  1.2963 -0.9638 -0.6982
24027SOL    HW274089   9.458   0.896   2.854 -0.6393  1.7501 -1.2242
24028SOL     OW74090  10.673   0.117   0.359 -0.5119 -0.4604  0.0032
24028SOL    HW174091  10.630   0.109   0.444 -1.7129 -3.7814 -0.7623
24028SOL    HW274092  10.602   0.110   0.296  0.3127  2.2749 -1.3562
24029SOL     OW74093   7.368   9.724   0.451  0.3811  0.6873 -0.4698
24029SOL    HW174094   7.282   9.759   0.470 -0.8269 -1.7643 -0.9826
24029SOL    HW274095   7.375   9.645   0.506  1.6230 -0.0383 -1.5861
24030SOL     OW74096   6.628   3.480   0.816 -0.5569  0.2294 -0.1192
24030SOL    HW174097   6.555   3.430   0.780  0.4545 -0.3364 -1.4712
24030SOL    HW274098   6.676   3.511   0.739 -0.0655  1.6461  0.7233
24031SOL     OW74099   8.820   0.862   8.032  0.4729  0.1067 -0.1478
24031SOL    HW174100   8.725   0.857   8.016  0.4616 -0.1951  0.0111
24031SOL    HW274101   8.859   0.863   7.945  0.3781 -0.9230 -0.2167
24032SOL     OW74102   7.673   4.078   0.755  0.0443 -0.2241 -0.1064
24032SOL    HW174103   7.669   4.059   0.848 -0.4043  0.2500 -0.0219
24032SOL    HW274104   7.759   4.047   0.727 -0.6317 -2.2982  0.0146
24033SOL     OW74105   8.824   9.786   0.466  0.8692  0.1030  0.5084
24033SOL    HW174106   8.822   9.696   0.498 -0.3715  0.3627  1.1896
24033SOL    HW274107   8.733   9.815   0.468  1.4815  2.1582  2.5258
24034SOL     OW74108   2.110   0.495   0.112  0.0202 -1.0791  0.1447
24034SOL    HW174109   2.092   0.535   0.028 -0.7913  0.0330  0.8266
24034SOL    HW274110   2.176   0.552   0.153 -0.8598 -0.6247  0.9619
24035SOL     OW74111   6.365   2.911   5.236  0.0102 -0.3167 -1.3191
24035SOL    HW174112   6.332   2.851   5.303  1.2443 -2.4367 -2.5058
24035SOL    HW274113   6.290   2.925   5.178 -0.3542 -0.5086 -0.9036
24036SOL     OW74114  10.861   7.626   2.404 -0.5049  0.7006  0.2765
24036SOL    HW174115  10.931   7.691   2.404 -1.9226  2.3280 -0.9204
24036SOL    HW274116  10.821   7.633   2.318 -0.9790 -1.5195  0.2568
24037SOL     OW74117   4.384   5.499   7.468 -0.4116 -0.0848  0.4145
24037SOL    HW174118   4.398   5.586   7.430  1.6663 -1.0953 -1.3755
24037SOL    HW274119   4.472   5.467   7.488 -1.0054 -2.2096 -0.1093
24038SOL     OW74120   0.600   7.957   9.034 -0.0791  1.0909  0.7568
24038SOL    HW174121   0.671   7.893   9.035 -0.7266  0.3403  0.2306
24038SOL    HW274122   0.605   8.001   9.119  0.5177  0.4976  1.0352
24039SOL     OW74123   5.637   0.686   9.058  0.6456 -0.0487 -0.1874
24039SOL    HW174124   5.728   0.694   9.087  0.5645 -1.5460  0.5796
24039SOL    HW274125   5.588   0.740   9.120  1.0921  1.7417 -1.3185
24040SOL     OW74126   2.684   7.072   2.395 -0.0829  0.2990  0.7406
24040SOL    HW174127   2.725   7.032   2.318  1.3205  1.6710  0.7192
24040SOL    HW274128   2.620   7.134   2.359  0.5213  0.8875  0.6604
24041SOL     OW74129   3.079   2.322   6.140 -0.2642  0.4349 -0.2420
24041SOL    HW174130   3.001   2.269   6.128 -0.9099  1.4844 -0.8390
24041SOL    HW274131   3.046   2.412   6.145  0.7636  0.7688  1.0357
24042SOL     OW74132  10.681   1.194   0.542 -0.0169  0.5403 -0.2315
24042SOL    HW174133  10.708   1.222   0.629  0.7582 -0.4007 -0.1439
24042SOL    HW274134  10.587   1.208   0.539 -0.1471 -0.0107  0.9880
24043SOL     OW74135   0.263   0.552   0.871  0.6478 -0.4268 -0.3561
24043SOL    HW174136   0.224   0.474   0.911  1.0940  0.2255  1.4446
24043SOL    HW274137   0.355   0.549   0.896  1.4327 -0.9903 -3.0460
24044SOL     OW74138   1.990  10.197   4.636  0.1437 -0.1722  0.4430
24044SOL    HW174139   2.073  10.185   4.590 -0.4312 -3.8047  0.0899
24044SOL    HW274140   1.928  10.221   4.568  0.4673  0.5818  0.3977
24045SOL     OW74141   8.720   2.176  10.282  0.2009 -0.0277  0.0429
24045SOL    HW174142   8.771   2.221  10.215 -1.3668  1.1066 -0.4314
24045SOL    HW274143   8.750   2.214  10.365  2.0688 -1.3603  0.0442
24046SOL     OW74144   3.988   3.906   9.546  0.2379  0.2019  0.4582
24046SOL    HW174145   3.926   3.852   9.595 -1.4060  1.6068  0.0241
24046SOL    HW274146   4.026   3.964   9.613  1.4037 -0.8964  0.7861
24047SOL     OW74147   4.517   4.632   1.359  0.4055 -0.1624  0.0476
24047SOL    HW174148   4.520   4.706   1.298  1.8079  0.0569  0.3533
24047SOL    HW274149   4.525   4.555   1.303  1.3737  0.0264 -0.0877
24048SOL     OW74150   6.943   3.746   3.207  0.0662 -0.0575 -0.4470
24048SOL    HW174151   6.917   3.818   3.150  0.1709 -0.4955 -1.0447
24048SOL    HW274152   6.891   3.671   3.178 -0.3413 -0.1303  0.4377
24049SOL     OW74153   2.898   5.560   4.693 -0.0830  0.2196  0.0543
24049SOL    HW174154   2.882   5.642   4.740  0.8342  1.1031 -1.1420
24049SOL    HW274155   2.810   5.526   4.675 -0.4657  0.6826  0.9793
24050SOL     OW74156   7.025   1.015   5.727 -0.0258  0.4468 -0.4495
24050SOL    HW174157   7.078   1.085   5.689  0.3182 -0.6710 -2.1285
24050SOL    HW274158   7.066   0.999   5.813  1.4379  0.6292 -1.0778
24051SOL     OW74159   8.738   6.346   4.867  0.3179  0.0933 -0.2858
24051SOL    HW174160   8.676   6.319   4.935  0.1917 -0.8330 -0.7523
24051SOL    HW274161   8.796   6.409   4.910 -1.0679  1.1486  0.1140
24052SOL     OW74162   8.620   3.148   9.810  0.2800 -0.4847  0.0548
24052SOL    HW174163   8.697   3.129   9.757  0.4858 -0.0671  0.2064
24052SOL    HW274164   8.651   3.142   9.901  0.2886  0.3348  0.1076
24053SOL     OW74165  10.510   4.894   1.275  0.5279  0.0731 -0.1061
24053SOL    HW174166  10.578   4.835   1.242 -0.2589 -1.0715  0.2775
24053SOL    HW274167  10.495   4.865   1.365 -1.6761 -0.8288 -0.7070
24054SOL     OW74168   0.504   1.804   8.830  0.1914  0.3062  0.3482
24054SOL    HW174169   0.458   1.877   8.873 -1.1425  0.0679 -0.6128
24054SOL    HW274170   0.504   1.827   8.737 -0.4430 -1.0193  0.0009
24055SOL     OW74171   6.137   3.008  11.080  0.3832  0.1891  1.0353
24055SOL    HW174172   6.127   2.925  11.032  0.8086  0.4464  0.4828
24055SOL    HW274173   6.149   2.983  11.171 -0.8681 -0.3001  1.0746
24056SOL     OW74174   5.731   5.626   8.970  0.3451  0.5460 -0.1009
24056SOL    HW174175   5.670   5.648   9.041  1.1317  0.2908  0.6660
24056SOL    HW274176   5.814   5.664   8.998  1.4081 -2.0458  0.5484
24057SOL     OW74177   2.929   4.044   2.393  0.0989  0.1102  0.0791
24057SOL    HW174178   3.008   4.036   2.446  0.7482  0.7470 -0.7603
24057SOL    HW274179   2.912   4.138   2.390 -1.3453 -0.0886  1.1595
24058SOL     OW74180   6.531   5.658   8.271  0.3599  0.0083 -0.0472
24058SOL    HW174181   6.526   5.578   8.323 -1.1178  0.6338  0.8199
24058SOL    HW274182   6.577   5.631   8.191  1.3492 -1.3093  0.9230
24059SOL     OW74183   6.508   2.614   6.702  0.4191 -0.2801  0.1888
24059SOL    HW174184   6.446   2.686   6.717  1.3753  0.2481  1.8523
24059SOL    HW274185   6.465   2.538   6.742  0.0973 -0.2905 -0.1730
24060SOL     OW74186   7.938   3.161   6.059 -0.0237  1.1021 -0.3079
24060SOL    HW174187   8.004   3.173   5.990  0.7453  0.1842  0.2524
24060SOL    HW274188   7.988   3.168   6.140 -0.5624  0.0904  0.1204
24061SOL     OW74189   1.281   5.311   7.622 -0.2129  0.0933  0.9294
24061SOL    HW174190   1.276   5.296   7.528  0.1794 -1.2658  1.1076
24061SOL    HW274191   1.286   5.407   7.631 -2.2232  0.3773 -0.3156
24062SOL     OW74192   3.177   5.119  10.645  0.4498 -0.5137  0.6040
24062SOL    HW174193   3.130   5.088  10.568  0.2570 -1.6962  1.1706
24062SOL    HW274194   3.267   5.131  10.615 -0.0563  1.2956 -0.3681
24063SOL     OW74195   0.989   2.557   8.946  0.3084  0.1900 -0.2214
24063SOL    HW174196   1.024   2.513   9.023 -0.2365  2.2293  1.2734
24063SOL    HW274197   0.916   2.503   8.918 -0.0582 -0.1145  1.2798
24064SOL     OW74198   7.864   4.551   0.556 -0.2286  0.3320 -0.0673
24064SOL    HW174199   7.814   4.471   0.539  0.7899 -0.1730 -0.8149
24064SOL    HW274200   7.954   4.528   0.534  0.2565  1.3713  0.7616
24065SOL     OW74201   3.395   7.538   7.696 -0.3543 -0.9055 -0.3103
24065SOL    HW174202   3.456   7.538   7.622  0.8065  1.2551  0.5542
24065SOL    HW274203   3.451   7.529   7.773 -1.4467 -2.0067  0.3913
24066SOL     OW74204   6.322   1.032   9.303 -0.3658  0.3047 -0.4139
24066SOL    HW174205   6.372   1.053   9.381  0.2221 -1.5986 -0.2225
24066SOL    HW274206   6.385   0.990   9.244 -1.6555 -2.4244 -0.0452
24067SOL     OW74207   4.264   6.443   9.659 -0.6279  0.0447 -0.3838
24067SOL    HW174208   4.350   6.484   9.646 -0.1334 -0.6399  0.6056
24067SOL    HW274209   4.259   6.377   9.589 -0.6428  0.5379 -0.8551
24068SOL     OW74210   8.059   2.796   7.185  0.4909  0.1057 -0.3291
24068SOL    HW174211   8.102   2.712   7.166 -1.2176 -1.2134  1.2696
24068SOL    HW274212   7.978   2.793   7.135  0.0080  0.3939  0.4242
24069SOL     OW74213   4.844   1.559  10.161  0.2809  0.2551  0.0373
24069SOL    HW174214   4.936   1.536  10.165  0.2350 -0.3001 -1.4024
24069SOL    HW274215   4.831   1.591  10.072 -1.2216 -1.1679 -0.3044
24070SOL     OW74216   6.175   0.503   5.480  0.2328 -0.2225  0.6421
24070SOL    HW174217   6.202   0.594   5.495  0.4125 -0.5292  2.4325
24070SOL    HW274218   6.080   0.509   5.469  0.2631  0.2113  0.5755
24071SOL     OW74219   6.515   2.198   8.809  0.8168 -0.0560 -0.2381
24071SOL    HW174220   6.421   2.198   8.824  0.5792 -0.0262 -1.6013
24071SOL    HW274221   6.539   2.291   8.810  0.3720  0.1228 -2.3798
24072SOL     OW74222   5.862   7.294   3.075 -0.1629  0.5830  0.0839
24072SOL    HW174223   5.828   7.353   3.142  0.0555  0.4117  0.3488
24072SOL    HW274224   5.953   7.278   3.101 -0.2196  0.1307  0.0164
24073SOL     OW74225   7.528   2.188   3.103 -0.3798  0.4667  0.0137
24073SOL    HW174226   7.535   2.161   3.012 -1.4074  0.3762 -0.0519
24073SOL    HW274227   7.485   2.114   3.146 -0.0490  0.5775  0.5399
24074SOL     OW74228   8.509   1.289   5.909 -0.0506 -0.3163 -0.1918
24074SOL    HW174229   8.598   1.323   5.899 -0.1384 -0.3361 -1.1298
24074SOL    HW274230   8.466   1.310   5.826 -1.0645  0.0989  0.4210
24075SOL     OW74231   7.270   3.742   0.919 -0.1437  0.6497 -0.3207
24075SOL    HW174232   7.357   3.706   0.901  0.3590  2.0022 -0.6721
24075SOL    HW274233   7.287   3.828   0.957 -1.3295  0.7745 -0.0452
24076SOL     OW74234   0.657   1.073   3.654  0.1919  0.5843  0.2989
24076SOL    HW174235   0.713   1.000   3.680 -0.5530  0.8249  2.8874
24076SOL    HW274236   0.600   1.037   3.586  0.1091 -1.1324  1.2306
24077SOL     OW74237   4.099   6.096   9.236 -0.1120 -0.3446 -0.1621
24077SOL    HW174238   4.008   6.104   9.207 -0.1174  0.9466  0.1503
24077SOL    HW274239   4.150   6.143   9.170  0.1752  0.1013  0.3677
24078SOL     OW74240   1.330   7.899   9.874 -1.1340 -0.4298 -0.3307
24078SOL    HW174241   1.399   7.902   9.807 -0.1590  0.9814  0.7046
24078SOL    HW274242   1.251   7.879   9.824 -0.6984  2.0029 -2.1710
24079SOL     OW74243   0.716   0.590   6.206  0.6039  0.5521  0.4953
24079SOL    HW174244   0.667   0.624   6.131  2.5160 -0.8335 -1.5111
24079SOL    HW274245   0.655   0.531   6.251 -0.1023  0.1510 -0.9362
24080SOL     OW74246   1.437  11.010   5.788 -0.1922  0.3301 -0.2790
24080SOL    HW174247   1.485  10.976   5.863 -1.1486 -0.0914  0.1565
24080SOL    HW274248   1.462  11.102   5.782  2.3836 -0.3472 -1.4115
24081SOL     OW74249   0.820   1.937   2.149  0.0016  0.3714 -0.0092
24081SOL    HW174250   0.864   1.876   2.208  0.0242 -0.1346 -0.5328
24081SOL    HW274251   0.740   1.890   2.122 -0.3819  0.8986  0.2005
24082SOL     OW74252   5.718   2.650   5.618 -0.7597 -0.3489  0.0891
24082SOL    HW174253   5.639   2.616   5.662 -0.4146 -1.2751  0.0099
24082SOL    HW274254   5.734   2.734   5.661 -1.2103 -0.6133  0.8067
24083SOL     OW74255   4.640  10.606   3.026 -0.0020 -1.0407 -0.4023
24083SOL    HW174256   4.604  10.683   3.069  1.2855 -0.0709 -0.9837
24083SOL    HW274257   4.667  10.549   3.097  1.6233  0.3081  0.1166
24084SOL     OW74258   6.559   4.365  10.897 -0.1619 -0.2677 -0.5590
24084SOL    HW174259   6.590   4.441  10.848  0.4956 -0.7870 -0.9740
24084SOL    HW274260   6.600   4.290  10.852 -0.2990 -0.8154  0.2181
24085SOL     OW74261   6.535   2.221   2.624 -0.4120  0.4220 -0.2069
24085SOL    HW174262   6.495   2.298   2.583 -0.4288  0.1932 -0.6248
24085SOL    HW274263   6.601   2.192   2.561 -0.1808  0.2850  0.0946
24086SOL     OW74264   4.574   6.526   0.832 -0.1603 -0.3536 -0.4180
24086SOL    HW174265   4.551   6.565   0.748  0.1453 -0.2869 -0.4707
24086SOL    HW274266   4.538   6.437   0.827 -0.9104 -0.0615 -0.2695
24087SOL     OW74267   8.721   6.322   9.612 -0.0796  0.0114  0.2280
24087SOL    HW174268   8.814   6.341   9.621 -0.0667 -0.2321  0.6141
24087SOL    HW274269   8.706   6.317   9.517  0.3197 -0.0670  0.1696
24088SOL     OW74270   9.238   6.461   5.908 -0.4977  0.0205 -0.1056
24088SOL    HW174271   9.169   6.422   5.962  0.2904 -2.8752 -1.0188
24088SOL    HW274272   9.194   6.534   5.862 -2.1916  0.0063  1.3664
24089SOL     OW74273   6.062   3.387   3.300 -0.5223  0.0217 -0.7300
24089SOL    HW174274   6.054   3.372   3.206  0.8037  0.3652 -0.9196
24089SOL    HW274275   6.130   3.325   3.328 -1.2076 -0.3806  0.0896
24090SOL     OW74276   9.148   6.654   0.458  0.0339 -0.5389  0.0344
24090SOL    HW174277   9.227   6.641   0.406 -0.0653 -1.5244  0.1048
24090SOL    HW274278   9.087   6.588   0.425 -0.0460 -1.1604  1.3565
24091SOL     OW74279   4.022   1.811   7.813  0.4010  0.1435 -1.0920
24091SOL    HW174280   4.115   1.795   7.828  0.4315  0.7154 -0.6126
24091SOL    HW274281   4.016   1.830   7.720  0.8581  0.6724 -1.0196
24092SOL     OW74282   8.106   9.096   2.374  0.0060 -0.4975 -0.6030
24092SOL    HW174283   8.163   9.049   2.314 -0.0430 -0.8702 -0.3582
24092SOL    HW274284   8.118   9.189   2.351  0.6987 -0.5731 -0.5639
24093SOL     OW74285   4.455   5.222   1.807  0.6188 -0.6208  0.2814
24093SOL    HW174286   4.507   5.283   1.860  1.6044 -1.2660  0.1018
24093SOL    HW274287   4.469   5.137   1.849 -0.3696 -0.8002  0.2652
24094SOL     OW74288   3.398   5.802   0.545 -0.4261 -0.6586 -0.6399
24094SOL    HW174289   3.395   5.881   0.599  0.7233 -0.2296 -1.1642
24094SOL    HW274290   3.437   5.832   0.463  0.1700 -1.8074 -0.7857
24095SOL     OW74291   4.862   2.353   6.682 -0.3008  0.0480  0.4499
24095SOL    HW174292   4.840   2.385   6.594 -1.5478 -0.6788  0.4811
24095SOL    HW274293   4.936   2.408   6.709  0.9988 -0.5847 -1.5779
24096SOL     OW74294   3.854   2.149   8.167 -0.4851 -0.3091 -0.3669
24096SOL    HW174295   3.919   2.183   8.228  0.2324  1.4354 -2.0219
24096SOL    HW274296   3.903   2.088   8.112 -0.8084 -0.8179 -0.0931
24097SOL     OW74297   4.626   4.156   7.798 -0.5917  0.4933  0.3340
24097SOL    HW174298   4.705   4.132   7.847 -0.5120  2.0255  0.9950
24097SOL    HW274299   4.660   4.201   7.720 -0.7774  3.1978  1.7061
24098SOL     OW74300   4.858   8.840   7.886 -0.1658 -0.3109 -0.0029
24098SOL    HW174301   4.786   8.778   7.889  0.5100 -1.1559 -0.7646
24098SOL    HW274302   4.897   8.835   7.974 -1.5858  0.8797  0.7490
24099SOL     OW74303   4.671   8.681   5.526  0.2180  0.0212 -0.7731
24099SOL    HW174304   4.640   8.645   5.609  1.6166  2.1128  0.7658
24099SOL    HW274305   4.751   8.632   5.507  0.7711  0.6011  0.0010
24100SOL     OW74306   3.893   5.359   9.919  0.0131  0.2093  0.4077
24100SOL    HW174307   3.880   5.453   9.909  0.4524  0.1890 -0.5252
24100SOL    HW274308   3.983   5.350   9.950 -0.0085  0.0954  0.4382
24101SOL     OW74309   6.092   1.135   9.845  0.6856  0.0824  0.4450
24101SOL    HW174310   6.140   1.190   9.783  0.2429  0.2876  0.2827
24101SOL    HW274311   6.023   1.192   9.879  0.0944 -0.4361  0.1253
24102SOL     OW74312   8.596   4.562  11.087  0.0734 -0.1636 -0.4589
24102SOL    HW174313   8.532   4.545  11.156  0.4302  0.3744  0.0134
24102SOL    HW274314   8.667   4.500  11.104  0.5816  0.5740  0.2272
24103SOL     OW74315   5.840   1.569   5.727  0.7220 -0.2460  0.3401
24103SOL    HW174316   5.843   1.552   5.633 -0.6182  1.3414 -0.0493
24103SOL    HW274317   5.765   1.518   5.758 -0.6084  1.4055 -0.0258
24104SOL     OW74318   6.289   1.673   9.690 -0.2988  0.3145  0.1636
24104SOL    HW174319   6.248   1.757   9.712  2.0807  1.3721  0.8669
24104SOL    HW274320   6.251   1.650   9.605 -1.0449  2.1073 -0.0428
24105SOL     OW74321   1.901   3.146   1.157 -0.5243 -0.1667  0.8316
24105SOL    HW174322   1.899   3.140   1.252 -0.2229  1.3304  0.9503
24105SOL    HW274323   1.809   3.137   1.131 -0.5439 -1.2273  1.1885
24106SOL     OW74324   9.733   8.618   0.823 -0.2977  0.2633  0.1392
24106SOL    HW174325   9.712   8.702   0.865 -1.7048  0.1670 -0.3285
24106SOL    HW274326   9.828   8.610   0.833 -0.0769  2.0805 -0.1233
24107SOL     OW74327   3.009   4.717  10.180  0.0174  0.4830 -0.4636
24107SOL    HW174328   3.070   4.763  10.123 -0.0696 -0.4870 -1.3673
24107SOL    HW274329   2.923   4.739  10.145  0.0076 -1.5994 -1.9626
24108SOL     OW74330   9.926   8.291   4.559 -0.1668 -0.2845  0.3134
24108SOL    HW174331   9.846   8.343   4.553 -0.8073 -1.3173 -0.4449
24108SOL    HW274332   9.991   8.341   4.509 -0.7716 -0.1874 -0.4018
24109SOL     OW74333   5.445   0.412   3.044 -0.5956 -0.5598 -0.3679
24109SOL    HW174334   5.389   0.384   3.117 -1.6603  0.2627 -0.8621
24109SOL    HW274335   5.385   0.438   2.975  0.3339  1.9697 -0.3184
24110SOL     OW74336   3.138   2.844   4.349  0.9940 -0.4099  0.2060
24110SOL    HW174337   3.052   2.804   4.342  1.1167 -0.5760 -0.4462
24110SOL    HW274338   3.198   2.770   4.353  1.2120 -0.3065 -0.8456
24111SOL     OW74339   5.487   3.208   8.641  0.3205  0.1986  0.1645
24111SOL    HW174340   5.530   3.231   8.723 -0.6595  0.0422  0.7373
24111SOL    HW274341   5.471   3.292   8.598 -0.0014  0.3506  0.5728
24112SOL     OW74342   6.734   3.900   3.307  0.3651  0.1668 -0.1523
24112SOL    HW174343   6.811   3.929   3.354  1.8824  1.2328 -3.0333
24112SOL    HW274344   6.736   3.804   3.313  0.2439  0.2634  2.1414
24113SOL     OW74345   4.586   5.657  10.739  0.3364 -0.3224 -0.0003
24113SOL    HW174346   4.567   5.706  10.659 -0.4936 -0.4332  0.1234
24113SOL    HW274347   4.646   5.713  10.788 -2.2305  1.6254  1.1294
24114SOL     OW74348   4.333   2.970  10.538  0.6559 -0.1363 -0.2963
24114SOL    HW174349   4.278   2.892  10.544  0.1760  0.2842  1.3774
24114SOL    HW274350   4.336   3.004  10.627  1.6194  1.2494 -0.8177
24115SOL     OW74351   3.594   2.321   6.595 -0.4878 -0.5169  0.0720
24115SOL    HW174352   3.684   2.346   6.574 -1.2294  1.8696 -0.5866
24115SOL    HW274353   3.552   2.403   6.621 -2.9035 -1.2591 -1.2054
24116SOL     OW74354  10.008   0.945   1.089 -0.5912 -0.3470  0.6893
24116SOL    HW174355  10.006   0.892   1.009  1.6280  1.1407 -0.4786
24116SOL    HW274356  10.018   1.035   1.058 -0.0968  0.3317  2.6466
24117SOL     OW74357   8.536   5.021  10.996  0.2405 -0.4428  0.0058
24117SOL    HW174358   8.573   5.086  11.055 -1.1221  0.7206 -0.3770
24117SOL    HW274359   8.595   4.946  11.004  1.1333  0.3542  1.4255
24118SOL     OW74360   6.566   6.414   8.326  0.4791 -0.0456  0.0829
24118SOL    HW174361   6.569   6.398   8.420  0.2983 -1.0766 -0.0800
24118SOL    HW274362   6.628   6.351   8.289  2.5529  2.0541 -0.2965
24119SOL     OW74363   4.855   5.952   0.712  0.0671  0.3040  0.3265
24119SOL    HW174364   4.789   5.883   0.701 -0.7013  1.0927 -0.1422
24119SOL    HW274365   4.931   5.907   0.749  0.2294 -1.1460 -1.6116
24120SOL     OW74366   3.738   4.264   6.211 -0.3997 -0.5829 -0.1415
24120SOL    HW174367   3.731   4.310   6.127 -1.8523  1.0248  0.7987
24120SOL    HW274368   3.663   4.205   6.212  0.0780 -1.1976 -0.3051
24121SOL     OW74369   6.275   1.907   6.608 -1.0238  0.4137  0.0613
24121SOL    HW174370   6.223   1.903   6.528  0.3423 -1.2012 -0.8305
24121SOL    HW274371   6.324   1.989   6.601 -2.2624  1.1807  0.1650
24122SOL     OW74372   3.262  10.224   5.839 -0.0216  0.2657  0.7570
24122SOL    HW174373   3.175  10.201   5.872  0.6439 -1.3130  1.4932
24122SOL    HW274374   3.257  10.205   5.745 -0.4342  0.0563  0.8158
24123SOL     OW74375   8.148   7.457   7.564  0.0486 -0.4035 -0.5531
24123SOL    HW174376   8.147   7.419   7.652 -1.3277  0.4435 -0.1612
24123SOL    HW274377   8.230   7.506   7.559 -0.1536  0.0746  0.5174
24124SOL     OW74378   5.501  10.195   5.450 -0.3479  0.2301  0.1420
24124SOL    HW174379   5.495  10.195   5.546  2.6920 -0.3680  0.4190
24124SOL    HW274380   5.562  10.267   5.430  0.0194 -0.4370 -1.2432
24125SOL     OW74381   9.876   0.900   9.149  0.0322 -0.1402  0.4602
24125SOL    HW174382   9.815   0.936   9.214  0.9040  0.2252  1.1088
24125SOL    HW274383   9.892   0.810   9.178  1.5881  0.4790  1.6766
24126SOL     OW74384   9.086   7.155   1.775 -0.2106 -0.1014  0.6284
24126SOL    HW174385   9.007   7.181   1.823  0.1467  0.1351  1.0972
24126SOL    HW274386   9.121   7.082   1.827  0.1881  0.1670  0.7416
24127SOL     OW74387   7.589   2.862   7.682  0.1306  0.7001  0.3842
24127SOL    HW174388   7.641   2.867   7.602 -0.1850  0.3200  0.1516
24127SOL    HW274389   7.501   2.890   7.655  0.2375  1.4602  0.8021
24128SOL     OW74390   4.553   5.627   4.584  0.0098 -0.4366 -0.2134
24128SOL    HW174391   4.634   5.651   4.538 -0.6675  0.6584 -0.8742
24128SOL    HW274392   4.488   5.690   4.553 -1.8079 -2.9157 -1.7289
24129SOL     OW74393   3.400  10.694   4.048  0.0562 -0.5998 -0.0003
24129SOL    HW174394   3.311  10.686   4.015 -0.9634 -1.4307  2.6859
24129SOL    HW274395   3.455  10.702   3.969 -2.3578  0.1199 -1.7217
24130SOL     OW74396   7.873   7.603   8.773 -0.2299 -0.4618  0.2533
24130SOL    HW174397   7.813   7.543   8.729 -0.4766 -0.2341  0.2778
24130SOL    HW274398   7.831   7.623   8.856 -1.3977  1.7021 -0.7515
24131SOL     OW74399  10.030   8.414  10.117 -0.4210  0.3017 -0.2902
24131SOL    HW174400  10.085   8.460  10.181  0.3578 -3.2211  1.8401
24131SOL    HW274401   9.958   8.378  10.169  0.4707 -3.0664 -1.0990
24132SOL     OW74402   1.374   9.365   1.198 -0.1063  0.1620  0.2212
24132SOL    HW174403   1.348   9.404   1.114 -1.0586  0.0381  0.4366
24132SOL    HW274404   1.353   9.272   1.189 -0.2143  0.1479  0.5930
24133SOL     OW74405   9.315   1.454   5.623  0.1215  0.2966 -0.4866
24133SOL    HW174406   9.280   1.365   5.632 -1.1132  0.6791 -1.3477
24133SOL    HW274407   9.253   1.509   5.670  1.3717  0.6484  0.8522
24134SOL     OW74408   8.609   8.169   5.650 -0.5383  0.0817  0.3912
24134SOL    HW174409   8.540   8.111   5.683  0.2139 -0.8160  0.4391
24134SOL    HW274410   8.623   8.141   5.560 -1.5615  1.5507 -0.2497
24135SOL     OW74411   7.920   5.361   0.070  0.0232 -0.3582 -0.2272
24135SOL    HW174412   8.009   5.349   0.035  0.4117  0.4430  0.4632
24135SOL    HW274413   7.890   5.271   0.088  0.0004 -0.7551 -2.1076
24136SOL     OW74414   7.201   5.056   8.018  0.4030 -0.5296  0.1056
24136SOL    HW174415   7.278   5.110   8.031 -0.1776  0.4172 -0.2724
24136SOL    HW274416   7.157   5.055   8.103  0.7055 -0.8761  0.2593
24137SOL     OW74417  10.559   0.118   1.881  0.3931  0.1843  0.0388
24137SOL    HW174418  10.574   0.208   1.912 -0.6099 -0.0960  1.4131
24137SOL    HW274419  10.647   0.079   1.878  0.7309  0.8834  0.4427
24138SOL     OW74420   0.415   7.839   6.983 -0.3767  0.5251 -0.2455
24138SOL    HW174421   0.394   7.922   7.025 -1.4889  0.3816 -0.4825
24138SOL    HW274422   0.350   7.777   7.018  0.6902 -0.3643  0.2592
24139SOL     OW74423   9.418   9.034   0.544  0.1679  0.2885  0.4122
24139SOL    HW174424   9.443   9.068   0.630  1.0325  1.5595 -0.2889
24139SOL    HW274425   9.463   9.092   0.482 -0.6646 -0.4102 -0.8995
24140SOL     OW74426   8.066   2.716   9.618 -0.2550 -0.6191  0.1781
24140SOL    HW174427   8.028   2.635   9.651  1.8356 -1.5606  0.4298
24140SOL    HW274428   8.091   2.695   9.528 -1.2016  0.2962 -0.3137
24141SOL     OW74429  10.408   1.544   6.405  0.1582  0.2056  0.6779
24141SOL    HW174430  10.346   1.474   6.427 -1.1499  0.7661 -0.9819
24141SOL    HW274431  10.354   1.610   6.360  2.1301  0.1818 -1.9289
24142SOL     OW74432   0.237   6.745   6.597  0.1112  0.0789  0.0155
24142SOL    HW174433   0.265   6.709   6.513  0.7226  1.1275 -0.2530
24142SOL    HW274434   0.225   6.668   6.653 -0.1372 -0.6235 -0.9714
24143SOL     OW74435   4.974  10.337   0.524 -0.3358 -0.0213  0.4154
24143SOL    HW174436   4.948  10.306   0.611  0.4566 -1.2290  0.2388
24143SOL    HW274437   5.050  10.392   0.540 -2.3506  2.8848  0.8483
24144SOL     OW74438   3.008   5.950  10.452 -0.4141 -0.0981 -0.2107
24144SOL    HW174439   2.968   5.873  10.412  2.7875 -0.7957 -2.5282
24144SOL    HW274440   2.999   6.019  10.386  1.4375 -0.1075 -0.5418
24145SOL     OW74441   7.332   6.283   3.021 -0.2048  0.3072  0.6818
24145SOL    HW174442   7.245   6.244   3.016 -0.3488  0.3639  2.3454
24145SOL    HW274443   7.347   6.297   3.114  1.3083  0.9439  0.3703
24146SOL     OW74444   3.705   3.726   0.408 -0.1981 -0.1750 -0.0064
24146SOL    HW174445   3.651   3.805   0.417  0.5182  0.3783 -0.3943
24146SOL    HW274446   3.675   3.668   0.478  0.6680  1.2863  1.6845
24147SOL     OW74447   7.103   0.811   9.886  0.3308 -0.1981 -0.3808
24147SOL    HW174448   7.055   0.728   9.883 -0.2348  0.1575 -1.6364
24147SOL    HW274449   7.158   0.803   9.964 -1.8236 -0.5833  1.2024
24148SOL     OW74450   4.633   7.503   1.449  0.7980 -0.3306  0.3924
24148SOL    HW174451   4.654   7.445   1.377 -0.1315 -0.0163 -0.1545
24148SOL    HW274452   4.630   7.446   1.526  1.3982 -0.7340  0.1234
24149SOL     OW74453   3.196   2.076   8.845  0.1382 -0.4736 -0.5884
24149SOL    HW174454   3.169   2.135   8.915 -1.1435  0.1996 -1.5884
24149SOL    HW274455   3.154   2.112   8.767  3.5669  0.3541 -2.2476
24150SOL     OW74456   2.725   3.630   9.108 -0.0374 -0.0925  0.6663
24150SOL    HW174457   2.694   3.592   9.026  0.1279 -2.8780  1.7734
24150SOL    HW274458   2.819   3.612   9.108 -0.2170 -1.1237  1.9225
24151SOL     OW74459   8.617   5.127  10.748 -0.0430  0.3221  0.0313
24151SOL    HW174460   8.641   5.125  10.841  2.7310 -1.0001 -0.6175
24151SOL    HW274461   8.547   5.193  10.743 -0.1486  0.5762  2.9971
24152SOL     OW74462   2.641   7.442   9.694  0.3183  0.0355 -0.0899
24152SOL    HW174463   2.649   7.538   9.691 -1.5773  0.3636  2.1664
24152SOL    HW274464   2.731   7.410   9.688  1.2731  2.1157  1.7616
24153SOL     OW74465   0.791   3.699   0.424 -0.1460 -0.1900 -0.2540
24153SOL    HW174466   0.737   3.706   0.345 -0.6047 -2.2796 -0.1631
24153SOL    HW274467   0.730   3.670   0.492  0.7873 -1.0943  0.2193
24154SOL     OW74468   8.216   2.016   8.342 -0.3303 -0.0943 -0.3798
24154SOL    HW174469   8.209   1.946   8.407  0.8545  0.0086 -0.1195
24154SOL    HW274470   8.273   1.980   8.274 -1.4647 -0.1583 -1.3239
24155SOL     OW74471   8.347   7.401   3.661  0.5810 -0.4964  0.2519
24155SOL    HW174472   8.432   7.417   3.703  0.6781  1.9024 -0.6697
24155SOL    HW274473   8.359   7.433   3.572 -1.2347 -0.2900  0.0591
24156SOL     OW74474   1.690   6.630   4.733 -0.0858 -0.0890  0.5135
24156SOL    HW174475   1.626   6.560   4.734  0.3790 -0.5172  0.4371
24156SOL    HW274476   1.753   6.605   4.666 -0.5830  1.0101 -0.4086
24157SOL     OW74477   7.209   6.879  10.549 -0.2460  0.8639  0.3392
24157SOL    HW174478   7.272   6.949  10.534  1.3581 -0.8877 -1.8533
24157SOL    HW274479   7.245   6.803  10.502 -2.7955 -0.9266  1.0240
24158SOL     OW74480   2.593   3.279   5.603 -0.0793  0.4636 -0.2691
24158SOL    HW174481   2.576   3.209   5.666  0.1048  0.0156 -0.7101
24158SOL    HW274482   2.507   3.301   5.567  0.0665 -0.8032 -1.4515
24159SOL     OW74483   8.038   8.677   3.234  0.8121 -0.7450  0.3098
24159SOL    HW174484   8.123   8.670   3.278  0.6786 -0.1579  0.6701
24159SOL    HW274485   8.016   8.770   3.238 -0.2028 -0.9870  0.9155
24160SOL     OW74486   3.197   0.180   1.275  0.8054  0.1632  0.0260
24160SOL    HW174487   3.277   0.129   1.261  0.3802 -0.6839  0.6286
24160SOL    HW274488   3.163   0.149   1.359  0.7682  1.7672  0.6248
24161SOL     OW74489   8.189   2.391   5.777 -0.1126 -0.2234 -0.1228
24161SOL    HW174490   8.097   2.372   5.758 -0.1236 -0.5609  0.2713
24161SOL    HW274491   8.237   2.313   5.747  0.0375 -0.0907 -0.2337
24162SOL     OW74492   9.511   4.287   7.677  0.0988 -0.2263  0.3607
24162SOL    HW174493   9.439   4.234   7.710  0.5553 -0.2374  1.3709
24162SOL    HW274494   9.484   4.377   7.694 -1.1460 -0.0180 -2.3020
24163SOL     OW74495   9.947  10.246   4.235  0.8000  0.9822  0.2112
24163SOL    HW174496   9.966  10.167   4.185  0.8827  1.8991 -1.2553
24163SOL    HW274497   9.892  10.216   4.308  0.8531 -0.4180 -0.3078
24164SOL     OW74498   0.150   9.072   7.615  0.0090 -0.6270 -0.0577
24164SOL    HW174499   0.176   9.109   7.700 -1.9876  1.9305 -0.4299
24164SOL    HW274500   0.232   9.060   7.568  1.0316 -0.4196  1.5924
24165SOL     OW74501   2.583   1.405   8.407  0.5230 -0.1941  0.0780
24165SOL    HW174502   2.525   1.338   8.444 -0.7927 -0.4905 -2.3172
24165SOL    HW274503   2.599   1.465   8.479 -4.1806  0.8298  0.5739
24166SOL     OW74504   6.161   7.112   8.695 -0.3967 -0.4218  0.0771
24166SOL    HW174505   6.172   7.018   8.713 -1.0536 -1.1143 -2.5730
24166SOL    HW274506   6.196   7.123   8.607  0.5787  2.0736  0.7073
24167SOL     OW74507   8.495   2.230   1.622 -0.3926  0.5722  0.7769
24167SOL    HW174508   8.441   2.296   1.580 -1.4081 -1.0036 -0.5110
24167SOL    HW274509   8.562   2.209   1.557 -0.4334 -0.0773  0.9386
24168SOL     OW74510   6.217  10.022   3.626  0.0161 -0.6991 -0.4589
24168SOL    HW174511   6.239  10.115   3.624  2.9710 -1.1570 -5.0082
24168SOL    HW274512   6.263   9.988   3.702 -1.9399  1.5550  1.8990
24169SOL     OW74513   6.247   3.371   2.703  0.2280 -0.7244 -0.5456
24169SOL    HW174514   6.308   3.407   2.638  0.7180 -1.6317 -0.6083
24169SOL    HW274515   6.291   3.383   2.787  0.3488 -1.0737 -0.5568
24170SOL     OW74516   3.605   3.565   5.777  0.0792 -0.1125 -0.4890
24170SOL    HW174517   3.684   3.602   5.816 -0.8800  0.7931  0.6756
24170SOL    HW274518   3.569   3.509   5.846 -0.7329  0.1423 -0.6919
24171SOL     OW74519   5.484   2.795   7.619  0.3468  0.3686 -0.0749
24171SOL    HW174520   5.411   2.821   7.675  0.3046  1.0754 -0.4450
24171SOL    HW274521   5.443   2.739   7.552  0.2380  0.2858  0.0610
24172SOL     OW74522   7.513   8.081   0.239 -0.1212  0.3251 -0.1257
24172SOL    HW174523   7.558   8.119   0.315  0.8403 -0.6027 -0.2039
24172SOL    HW274524   7.584   8.053   0.181 -0.5933 -3.3407  0.7894
24173SOL     OW74525   5.844   5.752   0.573 -0.3381 -0.2430 -0.3315
24173SOL    HW174526   5.904   5.726   0.643  0.8539  3.4719  0.2162
24173SOL    HW274527   5.764   5.778   0.619 -0.9639 -1.3910 -0.7353
24174SOL     OW74528   3.291   2.629   7.288  0.3398 -0.4273 -0.1295
24174SOL    HW174529   3.244   2.649   7.369 -2.4357 -1.7661 -1.2538
24174SOL    HW274530   3.327   2.713   7.260 -2.4547  1.0468  0.2801
24175SOL     OW74531   2.755   2.105   0.203 -0.0602  0.0209  0.1559
24175SOL    HW174532   2.816   2.040   0.237  0.1721  1.1567  2.0658
24175SOL    HW274533   2.671   2.082   0.243 -0.8879 -1.3324 -2.1921
24176SOL     OW74534   8.578   9.950   7.695  0.0012 -0.1702 -0.6617
24176SOL    HW174535   8.650   9.888   7.688  1.3195  1.3504 -1.0612
24176SOL    HW274536   8.613  10.033   7.662 -2.0257  0.5593 -1.1994
24177SOL     OW74537   3.632   7.613  10.217  0.1253 -0.2028 -0.0995
24177SOL    HW174538   3.544   7.638  10.245 -0.4404 -1.0060 -1.0631
24177SOL    HW274539   3.672   7.695  10.188 -0.2307  0.1970  0.5126
24178SOL     OW74540   5.245   5.574   9.461  0.0538 -0.0945 -0.3845
24178SOL    HW174541   5.167   5.619   9.430  1.3015  1.9388 -0.8146
24178SOL    HW274542   5.224   5.547   9.550 -1.3886 -0.3146 -0.7689
24179SOL     OW74543   8.244   9.965   4.855 -0.5464 -0.2682 -0.2921
24179SOL    HW174544   8.295   9.941   4.778  0.4856 -0.7819  0.5301
24179SOL    HW274545   8.309   9.980   4.924 -1.4264  0.5351  0.3972
24180SOL     OW74546   5.341   4.567   4.460  0.0117  0.0282 -0.6934
24180SOL    HW174547   5.404   4.564   4.531  1.5005  0.5627 -1.9330
24180SOL    HW274548   5.339   4.479   4.424 -0.4040 -0.1316 -0.2871
24181SOL     OW74549   8.661   1.737  10.581  0.1016  0.2567  0.6374
24181SOL    HW174550   8.668   1.784  10.497  0.0212 -2.5023 -1.0573
24181SOL    HW274551   8.571   1.752  10.610 -0.4912 -0.2936 -0.8225
24182SOL     OW74552   3.129   2.295   8.983 -0.7874 -0.4023 -0.1401
24182SOL    HW174553   3.097   2.386   8.980  1.0506  0.2951  0.3344
24182SOL    HW274554   3.079   2.255   9.054 -1.9330  0.0964 -0.6320
24183SOL     OW74555   4.108   3.559   9.264  0.8223 -0.4611  0.2577
24183SOL    HW174556   4.141   3.616   9.334  0.8172 -0.4251  0.2310
24183SOL    HW274557   4.186   3.537   9.212  1.0813 -1.6607  1.1027
24184SOL     OW74558   2.953   3.067   2.476 -0.2374  0.1245 -0.3277
24184SOL    HW174559   2.984   3.144   2.524  0.1122  1.1163 -2.0321
24184SOL    HW274560   3.033   3.021   2.450 -0.4398 -0.7076  0.4920
24185SOL     OW74561   9.270   3.740   8.670 -0.4964  0.6774 -0.2408
24185SOL    HW174562   9.216   3.702   8.601  1.5388 -0.4557 -1.3005
24185SOL    HW274563   9.242   3.697   8.750  0.2710 -1.5355 -1.0984
24186SOL     OW74564   1.362   6.186  10.983 -0.2788  0.2868  0.2474
24186SOL    HW174565   1.433   6.240  11.017 -0.4419  2.5174 -2.6512
24186SOL    HW274566   1.285   6.213  11.033  0.2893  0.0808  1.2697
24187SOL     OW74567   9.436   7.082   1.771  0.0504 -0.0684  0.1513
24187SOL    HW174568   9.364   7.115   1.824  0.6839 -0.1708  1.0969
24187SOL    HW274569   9.419   6.989   1.761 -1.2038  0.2967 -1.6717
24188SOL     OW74570   1.845   2.322   6.872  0.4084 -0.2110 -0.1000
24188SOL    HW174571   1.824   2.311   6.965  0.7145 -3.4358 -0.3080
24188SOL    HW274572   1.933   2.358   6.872  0.2697  0.1778  0.8436
24189SOL     OW74573   3.801   8.342   0.716 -0.3466 -0.2276 -0.0153
24189SOL    HW174574   3.889   8.307   0.707  0.9366  2.7797 -0.2800
24189SOL    HW274575   3.789   8.356   0.810 -1.0928 -1.7449  0.1552
24190SOL     OW74576   4.515   6.463   6.685 -0.2434 -0.1974 -0.5964
24190SOL    HW174577   4.432   6.428   6.651 -0.8886  1.1659 -0.5244
24190SOL    HW274578   4.552   6.510   6.610  1.8768 -3.0258 -1.4779
24191SOL     OW74579   2.321   2.054   0.087 -0.1703  0.0508 -0.1068
24191SOL    HW174580   2.246   2.107   0.060  0.1990  0.4053 -0.4385
24191SOL    HW274581   2.333   1.992   0.015  1.0920  1.2822 -0.9993
24192SOL     OW74582   4.000  10.013   8.013 -0.2290  0.5083 -0.0691
24192SOL    HW174583   4.070   9.951   8.034 -2.0823 -1.2069  1.4345
24192SOL    HW274584   4.043  10.099   8.015  1.9054 -0.4887  0.3383
24193SOL     OW74585   8.644   6.249  10.529  0.0555  0.2631  0.3526
24193SOL    HW174586   8.715   6.189  10.549  1.0228 -0.0895 -3.3199
24193SOL    HW274587   8.685   6.336  10.525 -0.4033  0.5316  1.3078
24194SOL     OW74588   8.760   4.082  10.079  0.4348  0.4721 -0.1829
24194SOL    HW174589   8.678   4.078  10.129 -0.2276 -0.7587 -1.3182
24194SOL    HW274590   8.744   4.148  10.012  0.8643  1.1740  0.3814
24195SOL     OW74591   0.612   7.186   8.380 -0.2730  0.4744 -0.0721
24195SOL    HW174592   0.705   7.204   8.373 -0.1178 -0.6135 -1.0186
24195SOL    HW274593   0.594   7.185   8.474  0.4699  1.5943  0.0992
24196SOL     OW74594   3.642   3.276   7.237 -0.1806  0.3538  0.1314
24196SOL    HW174595   3.656   3.181   7.233 -1.0673  0.2214  0.0836
24196SOL    HW274596   3.671   3.300   7.325 -0.1576  0.0027  0.2229
24197SOL     OW74597  10.065   0.609   1.366  0.3334 -0.2177 -0.3410
24197SOL    HW174598  10.127   0.663   1.415  0.8829 -0.2344 -1.0073
24197SOL    HW274599  10.073   0.639   1.275 -0.7995 -0.0711 -0.4102
24198SOL     OW74600   3.300   2.033   7.639  1.0043  0.2950 -0.2374
24198SOL    HW174601   3.304   2.016   7.733  0.2595  1.4110  0.0100
24198SOL    HW274602   3.261   2.120   7.631 -1.7894 -0.9737 -1.6771
24199SOL     OW74603   6.514   4.004   6.874  0.2037 -0.1726  0.3759
24199SOL    HW174604   6.486   4.071   6.936  1.5754  0.7125  0.0749
24199SOL    HW274605   6.518   3.924   6.927 -0.4034  0.1869  0.9932
24200SOL     OW74606   2.175  10.254   0.474  0.3390  0.3072 -0.0167
24200SOL    HW174607   2.104  10.282   0.416  0.6215  2.2225  0.5015
24200SOL    HW274608   2.192  10.163   0.449 -3.6051 -0.9345  1.1792
24201SOL     OW74609   4.200   4.169   5.319  0.1114  0.1478 -0.1279
24201SOL    HW174610   4.203   4.075   5.306 -0.1033 -0.1087  1.4216
24201SOL    HW274611   4.240   4.206   5.241 -0.0058 -1.2143 -0.8551
24202SOL     OW74612   8.601   2.270   7.885 -0.7791 -0.1061  0.5115
24202SOL    HW174613   8.520   2.296   7.842 -0.8628  1.4177  1.5092
24202SOL    HW274614   8.634   2.351   7.925 -0.8903 -1.4516  3.5886
24203SOL     OW74615   3.841   0.361   6.860  0.2448 -0.0989  0.1526
24203SOL    HW174616   3.876   0.335   6.946  0.1631  2.4456  1.0328
24203SOL    HW274617   3.751   0.327   6.860  0.8987 -1.9317  0.1576
24204SOL     OW74618   0.688   4.763   4.226 -0.0496 -0.6233 -0.5270
24204SOL    HW174619   0.597   4.790   4.213 -0.2083 -0.1077  1.3193
24204SOL    HW274620   0.703   4.696   4.159 -1.1157  0.7344 -2.1954
24205SOL     OW74621   3.141   1.717   0.529 -0.0606 -0.2401 -0.1835
24205SOL    HW174622   3.074   1.655   0.499 -1.1886  0.1580  1.3870
24205SOL    HW274623   3.135   1.715   0.624  1.1613  0.9141 -0.0556
24206SOL     OW74624   6.209   8.207   9.442  0.1969 -0.1218 -0.0491
24206SOL    HW174625   6.165   8.182   9.523  0.9296  1.4790  0.8876
24206SOL    HW274626   6.293   8.163   9.446  0.0732 -0.3662 -0.1369
24207SOL     OW74627   7.029   3.917  10.444 -0.0865 -0.2449 -0.1372
24207SOL    HW174628   7.054   3.832  10.408  2.1953 -0.0433  0.8060
24207SOL    HW274629   7.112   3.962  10.459 -1.0709  0.9893  2.1569
24208SOL     OW74630   4.352   4.260   1.864 -0.8062 -0.4992  0.5847
24208SOL    HW174631   4.402   4.183   1.836 -1.3898 -1.2316  1.5043
24208SOL    HW274632   4.394   4.287   1.945  0.8789  1.6171 -0.8873
24209SOL     OW74633   9.852   9.397   2.432 -0.1646 -0.0923 -0.2767
24209SOL    HW174634   9.867   9.309   2.466 -0.1215 -0.3381 -0.9319
24209SOL    HW274635   9.915   9.407   2.361 -1.1942 -0.0988 -1.2096
24210SOL     OW74636   4.800   4.940   0.250  0.1719 -0.3979  0.2970
24210SOL    HW174637   4.750   4.931   0.169 -0.5693 -0.9600  0.8097
24210SOL    HW274638   4.764   4.874   0.308  0.6821  0.0193  1.1029
24211SOL     OW74639   3.468   8.190  10.559  0.0949  0.2155 -0.1165
24211SOL    HW174640   3.468   8.257  10.627  0.3388  1.4088 -1.2434
24211SOL    HW274641   3.400   8.216  10.498 -0.7854 -1.3657  0.1267
24212SOL     OW74642   1.587   4.888   9.994 -0.5555 -0.1363  0.2300
24212SOL    HW174643   1.533   4.945   9.939  0.6163  1.2836  0.4951
24212SOL    HW274644   1.607   4.941  10.071 -0.0206 -1.1742  0.8317
24213SOL     OW74645   4.124   6.150  11.044 -0.4517  0.3843 -0.3167
24213SOL    HW174646   4.042   6.125  11.000 -0.9828 -1.5780  1.6007
24213SOL    HW274647   4.131   6.244  11.030 -2.8676  0.5503 -0.8673
24214SOL     OW74648   7.248   2.167   2.961 -0.1870  0.0034  0.1991
24214SOL    HW174649   7.256   2.120   2.877  2.1271 -0.1252  0.4318
24214SOL    HW274650   7.258   2.259   2.937 -0.5872  0.0492  0.2117
24215SOL     OW74651   4.834   5.318   2.143  0.6549 -0.4424 -0.8498
24215SOL    HW174652   4.875   5.242   2.100 -1.4801 -1.5127 -1.1307
24215SOL    HW274653   4.757   5.282   2.187  0.8055  1.2301  0.9368
24216SOL     OW74654   6.696   5.686   4.030  0.0298 -0.1764 -0.5724
24216SOL    HW174655   6.659   5.775   4.028  0.5519  0.0390 -0.9819
24216SOL    HW274656   6.647   5.642   4.099 -0.9641  0.1080 -1.0644
24217SOL     OW74657   7.695  10.116   1.977  0.2826 -0.3339  0.7896
24217SOL    HW174658   7.779  10.127   2.023  0.8174  2.6657 -0.6696
24217SOL    HW274659   7.718  10.122   1.884 -1.3646 -1.2463  0.2884
24218SOL     OW74660   6.154   6.625   3.708 -0.4001  0.3328  0.0873
24218SOL    HW174661   6.094   6.700   3.710 -0.2755  0.4336  1.5985
24218SOL    HW274662   6.226   6.654   3.653 -1.0506  0.7581 -0.5598
24219SOL     OW74663   7.520   3.167   9.718 -0.3336  0.1199 -0.2089
24219SOL    HW174664   7.478   3.137   9.637  0.5380  0.7875 -0.9206
24219SOL    HW274665   7.567   3.247   9.693 -0.0363  0.3263  0.9537
24220SOL     OW74666   5.647   0.295   0.802 -0.0920  0.2339 -0.0829
24220SOL    HW174667   5.562   0.332   0.779 -1.5117 -2.1707  0.9443
24220SOL    HW274668   5.676   0.347   0.877  0.5188  2.5185 -1.7666
24221SOL     OW74669   0.344   3.430   3.191 -0.6408  0.0877  0.5860
24221SOL    HW174670   0.297   3.366   3.137 -0.1612  0.3078 -0.1087
24221SOL    HW274671   0.356   3.505   3.133  1.3212 -0.2885  0.4375
24222SOL     OW74672   4.631   8.156   4.891  0.1329  0.4556 -0.2512
24222SOL    HW174673   4.646   8.245   4.860 -0.1799  0.1321 -1.3663
24222SOL    HW274674   4.540   8.138   4.868  0.4815 -0.4954 -0.9357
24223SOL     OW74675   5.782   8.940   8.777  0.4716  0.7207  0.0429
24223SOL    HW174676   5.749   8.963   8.690 -1.0190 -0.7550  0.1729
24223SOL    HW274677   5.839   8.864   8.762  1.1305  1.1712  0.2283
24224SOL     OW74678   5.843   8.018  10.720 -0.7574  0.0792  0.1682
24224SOL    HW174679   5.798   7.959  10.780  0.4296 -0.7095  0.3224
24224SOL    HW274680   5.936   7.995  10.728 -0.0918  2.6585  0.9954
24225SOL     OW74681   4.449   4.229   1.133 -0.3417 -0.4263  0.4818
24225SOL    HW174682   4.436   4.224   1.228 -1.1181  0.0932  0.4050
24225SOL    HW274683   4.430   4.320   1.110 -1.0704 -0.7624 -0.3029
24226SOL     OW74684  10.487  10.958   2.824 -0.2581 -0.5543 -1.0527
24226SOL    HW174685  10.525  10.947   2.737  0.0990 -0.9189 -0.8524
24226SOL    HW274686  10.499  10.873   2.866 -0.1998 -0.3029 -0.5604
24227SOL     OW74687   3.509   2.086  10.153  0.4817 -0.6601 -0.3192
24227SOL    HW174688   3.494   2.040  10.236 -0.0801 -0.7594 -0.4677
24227SOL    HW274689   3.442   2.050  10.094 -0.2757  0.6685 -0.3105
24228SOL     OW74690   8.428   8.412   4.315  0.0164  0.0157 -0.2527
24228SOL    HW174691   8.384   8.382   4.235 -0.0271 -2.2501  0.5495
24228SOL    HW274692   8.374   8.378   4.386  2.3784 -1.9188  0.7539
24229SOL     OW74693  10.424   9.327   1.358  0.5265 -0.1599 -0.0338
24229SOL    HW174694  10.514   9.324   1.326  0.5718 -1.0386  0.1387
24229SOL    HW274695  10.377   9.379   1.293  1.0999  0.0730 -0.2727
24230SOL     OW74696   5.645   2.725   7.828  0.1155  0.4955  0.3346
24230SOL    HW174697   5.597   2.747   7.748  0.9488  0.7720 -0.1099
24230SOL    HW274698   5.581   2.680   7.883 -0.3683 -0.0898 -0.6650
24231SOL     OW74699   3.557   2.636   2.183 -0.8943 -0.3904  0.4157
24231SOL    HW174700   3.589   2.610   2.269  1.6720 -0.2142 -0.4104
24231SOL    HW274701   3.523   2.555   2.144 -1.4239 -0.6023  1.2889
24232SOL     OW74702   0.761   7.299   6.517 -0.0377  0.0020  0.3178
24232SOL    HW174703   0.751   7.373   6.578  0.4991 -1.2769  2.0533
24232SOL    HW274704   0.694   7.236   6.545  0.1653 -0.5902 -0.4917
24233SOL     OW74705   9.961   6.908   2.615 -0.0624 -0.3622 -0.2866
24233SOL    HW174706   9.943   6.814   2.623 -0.7085 -0.5790 -3.0348
24233SOL    HW274707   9.882   6.950   2.647  0.9851 -0.5426  2.9403
24234SOL     OW74708   7.905   2.849   0.153  0.4796 -0.2502  0.6697
24234SOL    HW174709   7.914   2.885   0.064  0.3509  1.1856  1.2197
24234SOL    HW274710   7.845   2.775   0.142  2.5520 -1.8336 -0.8676
24235SOL     OW74711   1.021   3.027   4.891 -0.5323  0.3661  0.2821
24235SOL    HW174712   1.090   2.986   4.943  0.5847  0.0466 -1.3792
24235SOL    HW274713   0.956   2.958   4.879  0.0519 -0.1066 -0.2171
24236SOL     OW74714   7.439   9.949   1.395 -0.0321 -0.6414 -0.1162
24236SOL    HW174715   7.357   9.993   1.372 -0.0846 -1.1241 -0.8943
24236SOL    HW274716   7.496  10.020   1.425 -0.0427  0.0047 -1.5415
24237SOL     OW74717   1.862   2.358   4.801 -0.3070 -0.2532 -0.0602
24237SOL    HW174718   1.925   2.331   4.867 -0.2354  0.1066  0.0244
24237SOL    HW274719   1.891   2.316   4.720 -0.6030 -0.9851  0.2065
24238SOL     OW74720   1.677   9.654  11.067 -0.2334 -0.0696  0.3620
24238SOL    HW174721   1.751   9.627  11.013 -0.1704 -1.5552  1.1350
24238SOL    HW274722   1.712   9.659  11.156 -1.1028 -1.1162  0.7879
24239SOL     OW74723   9.116   9.812   3.158 -0.1922 -0.1141 -0.5922
24239SOL    HW174724   9.052   9.827   3.089 -0.7490 -0.1245 -0.0814
24239SOL    HW274725   9.102   9.721   3.185 -1.3421  0.4667  0.8979
24240SOL     OW74726   5.480   2.944  10.015 -0.7299  0.1924  0.2083
24240SOL    HW174727   5.458   2.975   9.927 -0.1229  0.0751  0.0145
24240SOL    HW274728   5.424   2.867  10.028 -1.5494  0.7915  0.3210
24241SOL     OW74729   0.224   4.919   9.805  0.0951  0.2642 -0.0513
24241SOL    HW174730   0.158   4.987   9.818 -0.6523 -0.4531 -0.0084
24241SOL    HW274731   0.200   4.851   9.868  1.7115  0.5881  0.9659
24242SOL     OW74732   1.487   1.157   6.421 -0.0245 -0.5618 -0.5292
24242SOL    HW174733   1.451   1.069   6.417 -2.7355  0.5009 -1.3827
24242SOL    HW274734   1.438   1.206   6.356 -0.2859  2.1634  1.5474
24243SOL     OW74735   7.528   1.034   6.149  0.3099 -0.3640 -0.0684
24243SOL    HW174736   7.467   1.104   6.173 -0.2658 -1.2101  0.9979
24243SOL    HW274737   7.603   1.048   6.207 -0.4248 -1.4754  1.2058
24244SOL     OW74738   6.989   1.257   8.626 -0.0673  0.0217  0.1375
24244SOL    HW174739   6.899   1.277   8.601  0.2093 -0.3779 -1.2625
24244SOL    HW274740   6.993   1.276   8.719 -1.5798  0.1180  0.2009
24245SOL     OW74741   6.527   2.265  10.780 -0.6484 -0.0367  0.1239
24245SOL    HW174742   6.597   2.247  10.842 -0.6477 -1.6111 -0.2920
24245SOL    HW274743   6.566   2.247  10.694 -1.1741  0.3634 -0.2067
24246SOL     OW74744   2.130   4.356  11.058 -0.6259 -0.3771  0.3185
24246SOL    HW174745   2.045   4.396  11.077 -1.8627 -1.7441 -2.0027
24246SOL    HW274746   2.174   4.419  11.001 -0.6209 -0.2707  0.4381
24247SOL     OW74747   4.947   9.577   3.764  0.4581  0.1494 -0.3307
24247SOL    HW174748   4.852   9.587   3.771  0.1523 -1.9584 -0.8596
24247SOL    HW274749   4.962   9.484   3.776  2.4146  0.3535 -0.9190
24248SOL     OW74750   7.014   1.478   1.400  0.2573  0.1360  0.0213
24248SOL    HW174751   6.972   1.415   1.341  0.5700  0.8867 -1.0389
24248SOL    HW274752   7.075   1.425   1.452 -0.4567 -0.6302  0.1062
24249SOL     OW74753   0.037   2.050   1.918  0.1517  0.2358  0.1664
24249SOL    HW174754  -0.012   2.130   1.902  1.4642  1.1192  0.3831
24249SOL    HW274755   0.103   2.048   1.849 -0.2929 -1.0405 -0.2544
24250SOL     OW74756   6.072   4.045   3.581  0.3289 -0.4482  0.4264
24250SOL    HW174757   6.025   3.973   3.623  0.5213 -1.4685 -1.0289
24250SOL    HW274758   6.163   4.034   3.609  0.0969  0.2334  1.5077
24251SOL     OW74759   5.034  10.225   7.204 -0.3055  0.3432  0.1797
24251SOL    HW174760   5.011  10.136   7.231  2.1495 -0.1113  1.0183
24251SOL    HW274761   5.027  10.277   7.283  3.9619 -0.3922  1.2813
24252SOL     OW74762   7.773   7.552   9.759 -1.1796 -0.1119  0.2166
24252SOL    HW174763   7.731   7.556   9.673 -0.7471  0.5101  0.0282
24252SOL    HW274764   7.866   7.542   9.740 -1.2259 -1.6004  0.6316
24253SOL     OW74765   0.844   2.804  10.581  0.4582  0.2012 -0.2330
24253SOL    HW174766   0.846   2.739  10.652 -0.0720  2.1048  1.6114
24253SOL    HW274767   0.934   2.838  10.578  0.2057  0.9489  0.3655
24254SOL     OW74768   6.070   8.133   9.680  0.1854 -0.1319 -0.1908
24254SOL    HW174769   6.091   8.189   9.755  0.0132 -0.3385  0.0117
24254SOL    HW274770   5.980   8.104   9.696 -0.3546  0.9440 -1.1830
24255SOL     OW74771   4.132   4.722   1.899 -0.4087  0.7945 -0.4730
24255SOL    HW174772   4.179   4.673   1.832  0.3651  0.7372  0.1006
24255SOL    HW274773   4.113   4.658   1.967 -0.7960  0.9534 -0.4271
24256SOL     OW74774   4.795   1.008   9.287 -0.4920  0.0598  0.3426
24256SOL    HW174775   4.875   0.956   9.296 -0.7423 -0.1575  1.4355
24256SOL    HW274776   4.725   0.943   9.282 -0.6879  0.2654  0.3905
24257SOL     OW74777  10.011   9.309   0.812 -0.1724 -0.0425 -0.5594
24257SOL    HW174778   9.942   9.338   0.752  0.0942  1.3267 -0.2501
24257SOL    HW274779  10.091   9.312   0.759  0.0111  0.8265 -0.2454
24258SOL     OW74780   4.529   0.395   9.020  0.1720 -0.1214 -0.0846
24258SOL    HW174781   4.615   0.432   8.998 -0.3068  1.3898  0.4889
24258SOL    HW274782   4.542   0.353   9.105  0.5024 -0.5454 -0.3357
24259SOL     OW74783   1.503   1.487   4.947 -0.2900 -0.7348  0.1871
24259SOL    HW174784   1.426   1.455   4.900  1.2159 -2.6789 -1.1131
24259SOL    HW274785   1.577   1.457   4.894  1.4016 -0.2314  2.1640
24260SOL     OW74786   4.872   1.785   8.764 -0.4686 -0.2976 -0.5826
24260SOL    HW174787   4.965   1.805   8.763 -0.4055 -0.5854 -1.0951
24260SOL    HW274788   4.859   1.734   8.844 -0.0095 -1.0172 -0.9544
24261SOL     OW74789  11.071   1.724   2.642 -0.3813  0.3934 -0.2488
24261SOL    HW174790  11.007   1.795   2.642 -0.8809  0.0185  1.9948
24261SOL    HW274791  11.075   1.696   2.733  1.3675 -1.0689 -0.7271
24262SOL     OW74792   6.939   7.076   8.373  0.6077  0.1981 -0.2473
24262SOL    HW174793   6.926   7.167   8.346 -2.1486  0.0721  0.3919
24262SOL    HW274794   6.944   7.080   8.468 -0.4965 -0.3963 -0.1569
24263SOL     OW74795   1.948   1.446   4.515  0.5424  0.6703  0.3944
24263SOL    HW174796   2.006   1.505   4.467 -1.4871  0.9589 -1.9448
24263SOL    HW274797   1.878   1.502   4.548 -0.8306 -0.1823 -0.9162
24264SOL     OW74798   2.109  10.790   3.581 -0.5200 -0.6528 -0.0395
24264SOL    HW174799   2.171  10.861   3.566 -1.6764  0.7102  1.3260
24264SOL    HW274800   2.146  10.716   3.533  0.4159  0.9900 -2.0177
24265SOL     OW74801   8.955   8.643  11.099 -0.2982  0.6227 -0.1212
24265SOL    HW174802   8.955   8.722  11.153 -0.4285  0.9967 -0.6555
24265SOL    HW274803   8.987   8.673  11.013 -0.8517  0.2041 -0.4767
24266SOL     OW74804   7.143   6.581   6.767 -0.3853 -0.2248 -0.0284
24266SOL    HW174805   7.127   6.614   6.856 -1.7131  0.0772 -0.3477
24266SOL    HW274806   7.208   6.512   6.778  0.8084  0.9871  0.9509
24267SOL     OW74807   5.274   3.144   6.875  0.6611  0.0882  0.0965
24267SOL    HW174808   5.179   3.148   6.880  0.7541  1.3162  1.9113
24267SOL    HW274809   5.302   3.233   6.898  2.2952 -0.9557  2.4568
24268SOL     OW74810   1.513   8.957  10.469 -0.2995  0.0990  0.2904
24268SOL    HW174811   1.432   8.979  10.515 -0.4188  3.1079 -1.1188
24268SOL    HW274812   1.484   8.923  10.384 -0.1144  0.3233  0.1349
24269SOL     OW74813   2.125   9.756   9.943 -0.6890 -0.4483  0.1821
24269SOL    HW174814   2.153   9.845   9.964 -2.6097  0.4120 -0.6060
24269SOL    HW274815   2.135   9.708  10.024  4.7074 -0.8458 -0.3961
24270SOL     OW74816   8.655   3.606   5.152  0.3319  0.2000 -0.0345
24270SOL    HW174817   8.628   3.517   5.130  2.5503 -0.1991 -1.3924
24270SOL    HW274818   8.704   3.598   5.233 -0.7576  0.4597  0.6801
24271SOL     OW74819   2.450   3.011  10.929  0.1542 -0.3912  0.2548
24271SOL    HW174820   2.406   3.094  10.946  1.7159  0.4160  0.6207
24271SOL    HW274821   2.512   3.030  10.858 -0.1960 -1.5212 -0.3809
24272SOL     OW74822   2.992   7.263   9.833 -0.1972 -0.0914  0.0979
24272SOL    HW174823   3.084   7.284   9.822 -0.2242 -0.2611 -0.5206
24272SOL    HW274824   2.971   7.289   9.923  0.9129 -1.7513  0.8780
24273SOL     OW74825   3.326   4.583   9.023  0.0846  0.5817 -0.0567
24273SOL    HW174826   3.314   4.512   9.086 -0.0290 -0.2693 -0.9955
24273SOL    HW274827   3.421   4.596   9.019 -0.0041  2.1252  1.8401
24274SOL     OW74828   4.321   8.087   2.326  0.5774  0.0396  0.3848
24274SOL    HW174829   4.358   8.166   2.367  1.0694 -0.5524  1.1122
24274SOL    HW274830   4.391   8.056   2.267 -0.1266  0.8905 -0.9595
24275SOL     OW74831   4.930   6.279  11.070  0.0808  0.3724  0.1703
24275SOL    HW174832   5.008   6.256  11.020  0.9185  0.4332  1.4263
24275SOL    HW274833   4.952   6.259  11.161 -0.5397  2.5217  0.8373
24276SOL     OW74834   8.598  10.452   8.250  0.1883  0.0043  0.2572
24276SOL    HW174835   8.692  10.462   8.259  0.2575  0.1459 -0.4893
24276SOL    HW274836   8.569  10.412   8.332  1.0826 -1.2468 -0.0125
24277SOL     OW74837   4.921   0.865   6.908  0.4553 -0.0589 -0.3833
24277SOL    HW174838   4.937   0.917   6.987 -0.2010  0.6323 -0.6913
24277SOL    HW274839   4.829   0.840   6.914 -0.0088  1.2164 -1.6033
24278SOL     OW74840   4.556   7.077  10.117  0.2036  0.6076  0.0478
24278SOL    HW174841   4.651   7.067  10.119  0.2596  1.1028  0.0159
24278SOL    HW274842   4.537   7.142  10.184 -0.0532  0.9476 -0.3513
24279SOL     OW74843   3.797   6.355   7.786  0.0442 -0.0626  0.0745
24279SOL    HW174844   3.887   6.342   7.755 -0.2249  1.5112 -1.5421
24279SOL    HW274845   3.787   6.293   7.858  1.8808 -1.4451 -0.7818
24280SOL     OW74846   2.425   1.406   2.019  0.3952  0.1586  0.0427
24280SOL    HW174847   2.354   1.447   1.971  0.4544  0.4258  0.1846
24280SOL    HW274848   2.505   1.439   1.979  0.4430  0.1566  0.1351
24281SOL     OW74849   6.355   3.684   9.139  0.7256 -0.2761  0.2195
24281SOL    HW174850   6.412   3.669   9.063  0.6689 -0.2048  0.1630
24281SOL    HW274851   6.329   3.596   9.166  1.2005 -0.3335  0.5034
24282SOL     OW74852   4.873   3.918   2.995  0.1819  0.0373  0.2683
24282SOL    HW174853   4.803   3.950   2.938  0.5337  1.1134  0.4212
24282SOL    HW274854   4.946   3.979   2.981  0.6827 -0.3754  0.9867
24283SOL     OW74855   7.274   1.758   2.298 -0.3010  0.1519 -0.1249
24283SOL    HW174856   7.191   1.712   2.302  0.3210 -0.9331  1.4410
24283SOL    HW274857   7.299   1.757   2.206 -1.6705 -0.1311 -0.5002
24284SOL     OW74858   0.675   8.022   4.591 -0.2871  0.5181  0.0940
24284SOL    HW174859   0.593   8.059   4.560  0.1949  2.0706  0.5614
24284SOL    HW274860   0.662   7.927   4.588 -2.5824  0.7249  1.4897
24285SOL     OW74861   2.698   1.044   7.043 -0.1409 -0.2446  0.0882
24285SOL    HW174862   2.756   0.989   6.991  0.4181 -1.0326  1.5063
24285SOL    HW274863   2.611   1.029   7.007  0.2915 -0.3938 -0.9194
24286SOL     OW74864   8.105   2.968   0.834  0.0561 -0.2493  0.0477
24286SOL    HW174865   8.075   2.961   0.924 -1.2566 -3.6786 -0.5251
24286SOL    HW274866   8.191   2.926   0.833  2.1020  3.4399  0.3221
24287SOL     OW74867   5.986  10.063   0.427 -0.2442 -0.1282 -0.1024
24287SOL    HW174868   6.057  10.005   0.455 -1.0070 -0.9957  0.0718
24287SOL    HW274869   5.949  10.020   0.350 -1.7593 -0.6636  0.8802
24288SOL     OW74870   4.517   6.688   0.631  0.0791  0.2780  0.7328
24288SOL    HW174871   4.552   6.718   0.547 -1.2843  1.3972  0.5129
24288SOL    HW274872   4.563   6.740   0.696  0.7017 -0.1561  0.6471
24289SOL     OW74873   7.311   0.829  10.085 -0.3149 -0.0709 -0.3156
24289SOL    HW174874   7.303   0.896  10.152  0.2758 -0.7841  0.4865
24289SOL    HW274875   7.395   0.846  10.043 -1.5667  1.6488 -2.3436
24290SOL     OW74876   7.756   2.635   2.153 -0.9896  0.1134  0.8325
24290SOL    HW174877   7.833   2.661   2.103 -2.4523  1.7111 -0.7523
24290SOL    HW274878   7.768   2.674   2.239 -0.9967  2.2875 -0.0912
24291SOL     OW74879   1.677   3.510   9.993 -0.0780 -0.4552  0.3266
24291SOL    HW174880   1.707   3.490   9.905  2.2466 -0.1341  0.9678
24291SOL    HW274881   1.708   3.437  10.047  0.8367  0.5536  1.2465
24292SOL     OW74882   6.841   0.255   1.417 -0.2194 -0.3223 -0.1484
24292SOL    HW174883   6.930   0.271   1.450  0.4801 -1.7777 -1.2493
24292SOL    HW274884   6.814   0.340   1.382  0.7922  0.1136  0.0803
24293SOL     OW74885   5.668   4.766   0.326  0.0671 -0.1976 -0.4036
24293SOL    HW174886   5.600   4.748   0.262  1.6822  1.2289 -2.6458
24293SOL    HW274887   5.737   4.810   0.277  1.5339  0.7304  2.2787
24294SOL     OW74888  10.177   2.081   6.059  0.3091 -0.0549  0.1959
24294SOL    HW174889  10.090   2.101   6.026  0.0866  0.9001  1.3295
24294SOL    HW274890  10.168   1.994   6.099 -0.4535  0.5576  1.4176
24295SOL     OW74891   5.107   6.571   7.593 -0.0931 -0.1483 -0.0158
24295SOL    HW174892   5.101   6.664   7.570  1.7686 -0.4232 -1.8353
24295SOL    HW274893   5.077   6.568   7.684 -2.9120  1.7800 -0.7171
24296SOL     OW74894   1.773   2.079   3.608 -0.6469  0.3616 -0.4750
24296SOL    HW174895   1.743   2.031   3.531 -1.3023 -0.6308  0.3802
24296SOL    HW274896   1.741   2.029   3.682  0.1929  1.1637  0.4635
24297SOL     OW74897   4.286   2.881   1.074  0.2220 -0.0661 -0.1826
24297SOL    HW174898   4.260   2.967   1.108 -0.0766  0.1789 -0.9958
24297SOL    HW274899   4.349   2.901   1.005  0.2392 -0.5078 -0.2956
24298SOL     OW74900   6.146   4.004   4.343  1.3206 -0.8221 -0.2163
24298SOL    HW174901   6.062   4.011   4.297  0.9684 -0.4904  0.4576
24298SOL    HW274902   6.211   4.030   4.278  0.7757  0.3659 -0.3234
24299SOL     OW74903  10.291   9.312   2.916 -0.3817 -0.0663  0.3202
24299SOL    HW174904  10.240   9.250   2.865 -0.5150  0.3164 -0.0132
24299SOL    HW274905  10.227   9.377   2.946  0.0703  1.0804 -1.0867
24300SOL     OW74906   5.746   0.396   3.920  0.6346 -0.2074 -0.5397
24300SOL    HW174907   5.699   0.312   3.920 -1.0808  0.6546  1.5319
24300SOL    HW274908   5.708   0.444   3.847 -0.0610 -0.3982 -0.3161
24301SOL     OW74909   2.724   8.607   7.847 -0.3557  0.0222  0.1791
24301SOL    HW174910   2.631   8.622   7.867 -0.1613  0.8869  0.5217
24301SOL    HW274911   2.760   8.572   7.928 -0.3344 -0.0541  0.1358
24302SOL     OW74912   5.726   9.842   6.756  0.0058 -0.4984 -0.6566
24302SOL    HW174913   5.714   9.786   6.833 -1.3760 -1.6756 -1.6722
24302SOL    HW274914   5.752   9.927   6.792 -0.5870 -1.0185  1.0973
24303SOL     OW74915   3.150   2.113  10.086 -0.2517  0.0947 -0.2848
24303SOL    HW174916   3.161   2.183  10.150 -2.1881  0.1183  0.0801
24303SOL    HW274917   3.131   2.035  10.139  1.6461 -0.7097 -0.6942
24304SOL     OW74918   4.584   8.971   1.000 -0.2360  0.2431  0.8674
24304SOL    HW174919   4.511   9.018   1.042 -1.7474 -0.8926 -0.3694
24304SOL    HW274920   4.578   8.882   1.033 -0.0710 -0.1170 -0.0297
24305SOL     OW74921   3.398   4.463   6.820  0.1028 -0.3143 -0.1810
24305SOL    HW174922   3.407   4.405   6.745 -0.2276  0.5583 -0.9154
24305SOL    HW274923   3.476   4.446   6.873 -0.2543 -1.8006 -0.0961
24306SOL     OW74924   0.392  11.013   0.726 -0.3051  0.0420 -0.1227
24306SOL    HW174925   0.394  10.918   0.743 -0.7056 -0.2913 -1.7189
24306SOL    HW274926   0.409  11.020   0.632  1.5308  1.6966  0.2828
24307SOL     OW74927   3.987   2.325   3.677 -0.0744  0.0676 -0.0017
24307SOL    HW174928   3.920   2.287   3.734  0.7332  2.9212  3.2083
24307SOL    HW274929   3.938   2.379   3.615 -0.8981  0.6602  1.1123
24308SOL     OW74930   6.092   6.923   6.161 -0.0223 -0.0659 -0.2412
24308SOL    HW174931   6.184   6.935   6.184  0.1632 -2.1030  0.2410
24308SOL    HW274932   6.079   6.828   6.160 -1.9872  0.1583 -0.8568
24309SOL     OW74933   6.629   9.194   6.780  0.3886 -0.2461 -0.3804
24309SOL    HW174934   6.632   9.273   6.834  0.8674 -0.1395 -0.5650
24309SOL    HW274935   6.539   9.162   6.790  0.6617 -0.6345  1.0702
24310SOL     OW74936   3.572  10.972   3.789 -0.2510 -0.1714 -0.3186
24310SOL    HW174937   3.613  11.058   3.799 -1.7345  0.7595 -1.8161
24310SOL    HW274938   3.643  10.916   3.758  0.4257  0.8732 -0.7345
24311SOL     OW74939   4.242   7.306   9.649 -0.1954  0.1045 -0.0324
24311SOL    HW174940   4.192   7.375   9.692 -0.1018  1.1177 -1.4677
24311SOL    HW274941   4.270   7.248   9.720 -4.0680 -1.0378  0.7986
24312SOL     OW74942   7.803   4.621   0.823  0.5290  0.0456  0.6068
24312SOL    HW174943   7.893   4.647   0.841  0.1714  1.3977  0.5308
24312SOL    HW274944   7.798   4.612   0.728  0.1010  1.9262  0.4255
24313SOL     OW74945  10.482   9.899   9.762 -0.7372  0.3164  0.1599
24313SOL    HW174946  10.505   9.991   9.777 -0.6403  0.5646 -1.4107
24313SOL    HW274947  10.394   9.901   9.725 -0.2299 -0.1136 -1.1290
24314SOL     OW74948   5.035   8.297   0.458  0.5289 -0.1829 -0.1759
24314SOL    HW174949   5.024   8.391   0.441  0.7103 -0.4202 -1.8193
24314SOL    HW274950   5.050   8.259   0.371  1.4770 -1.6058  0.5820
24315SOL     OW74951   2.924   6.976   7.291  0.0361  0.2145  0.7590
24315SOL    HW174952   2.957   7.020   7.369 -0.4995  0.7954  0.6745
24315SOL    HW274953   2.922   6.884   7.314  2.4578  0.0449  0.4772
24316SOL     OW74954   3.024   2.788   2.145  0.1306 -0.0932  0.0592
24316SOL    HW174955   3.070   2.852   2.199 -0.3679 -0.6222  1.1595
24316SOL    HW274956   3.093   2.736   2.104  0.5366 -0.5414  1.2663
24317SOL     OW74957   5.026   4.935   3.370 -0.0969  0.3172 -0.4055
24317SOL    HW174958   5.030   4.948   3.465 -1.9378 -2.1744  0.1228
24317SOL    HW274959   4.947   4.981   3.342 -1.1859 -1.2923 -0.1560
24318SOL     OW74960   6.897   5.708   0.528  0.1400  0.4160 -0.3843
24318SOL    HW174961   6.954   5.670   0.461  0.9949  1.4638 -0.2742
24318SOL    HW274962   6.843   5.635   0.558  0.1007 -0.1773 -1.8484
24319SOL     OW74963  10.698   3.680   2.177  0.4360  0.0532  0.2696
24319SOL    HW174964  10.766   3.614   2.164  1.3338  1.0065 -0.0509
24319SOL    HW274965  10.742   3.763   2.157 -1.0370  0.6263 -0.7034
24320SOL     OW74966   4.301  10.523   0.779  0.0215  0.1156 -0.2669
24320SOL    HW174967   4.376  10.507   0.835 -0.8187 -1.6937  0.4110
24320SOL    HW274968   4.293  10.444   0.725 -1.3557  0.2837 -0.3592
24321SOL     OW74969   8.301   7.015  10.933  0.0919 -0.1221  0.7042
24321SOL    HW174970   8.250   7.065  10.997  1.6596 -0.0566  1.9390
24321SOL    HW274971   8.297   7.069  10.853  1.2986  1.7836  1.8475
24322SOL     OW74972   2.088   2.140  11.087  0.5363 -0.5010 -0.1804
24322SOL    HW174973   2.054   2.051  11.094  0.5971 -0.4305  1.7016
24322SOL    HW274974   2.056   2.172  11.003 -0.4937 -1.8827 -0.3514
24323SOL     OW74975   5.553   5.270   8.265  0.2320 -0.4710 -0.3301
24323SOL    HW174976   5.539   5.350   8.215 -0.7797  0.6699  1.6157
24323SOL    HW274977   5.617   5.295   8.332  1.1865 -1.7874 -0.7276
24324SOL     OW74978   8.030   9.338   2.086 -0.4428 -0.1031 -0.5610
24324SOL    HW174979   8.081   9.346   2.166 -2.5705  0.8707  0.7957
24324SOL    HW274980   8.087   9.372   2.017  0.8508  0.5870  0.8100
24325SOL     OW74981   2.737   0.401   7.173 -0.6741  0.1718  0.4192
24325SOL    HW174982   2.669   0.412   7.239 -0.9174  1.3541 -0.0062
24325SOL    HW274983   2.690   0.378   7.093 -0.4669 -0.2467  0.4140
24326SOL     OW74984   9.614   3.260   9.213 -0.4053 -0.1392  0.4021
24326SOL    HW174985   9.556   3.335   9.227 -1.2751  0.2060 -3.6729
24326SOL    HW274986   9.672   3.288   9.142  1.4779 -2.2394  0.9841
24327SOL     OW74987   5.792   7.439   3.294 -0.6213  0.3687 -0.0621
24327SOL    HW174988   5.767   7.400   3.378 -0.4077  0.6263  0.1226
24327SOL    HW274989   5.826   7.525   3.317  0.6769 -0.0738 -0.2761
24328SOL     OW74990   6.932   9.825   8.930  0.0457  0.1582 -0.2541
24328SOL    HW174991   6.967   9.911   8.905 -1.1182  0.5965 -0.4143
24328SOL    HW274992   6.888   9.841   9.013  0.5403 -0.4781  0.1383
24329SOL     OW74993   8.401   6.239   5.848 -0.2255 -0.2210 -0.1717
24329SOL    HW174994   8.462   6.264   5.778 -0.3301  0.1696 -0.1277
24329SOL    HW274995   8.412   6.145   5.857  2.5936  0.1932  1.8906
24330SOL     OW74996   2.337   8.901  10.213 -0.3254 -0.0535 -0.4936
24330SOL    HW174997   2.266   8.842  10.187  0.9311 -0.9070 -2.2195
24330SOL    HW274998   2.412   8.843  10.228  0.0991  0.8470  1.0509
24331SOL     OW74999   2.832   4.953   6.520 -0.6589 -0.1714  0.4883
24331SOL    HW175000   2.847   4.890   6.450 -1.9456 -0.5806  0.5519
24331SOL    HW275001   2.844   5.039   6.479 -0.3245 -0.4295  0.0393
24332SOL     OW75002   6.507   6.626   9.674 -0.2003 -0.3283 -0.0417
24332SOL    HW175003   6.525   6.633   9.581 -1.8548 -0.3628 -0.3906
24332SOL    HW275004   6.453   6.547   9.682  0.5887 -0.7838  1.0570
24333SOL     OW75005   2.528  10.956   8.972 -0.4732 -0.1935 -0.0282
24333SOL    HW175006   2.603  10.897   8.981 -0.5886 -0.5652 -1.3121
24333SOL    HW275007   2.565  11.044   8.986 -0.4638 -0.5519  2.7985
24334SOL     OW75008   8.518   5.683   2.843  0.0438  0.4670 -0.3861
24334SOL    HW175009   8.451   5.689   2.775 -1.3454 -0.7335  0.8057
24334SOL    HW275010   8.583   5.622   2.807  0.1131  1.0218 -1.2318
24335SOL     OW75011   0.590   3.991   3.538 -0.0419  0.6610  0.0571
24335SOL    HW175012   0.569   3.906   3.576  2.7066  0.0049  0.2912
24335SOL    HW275013   0.586   3.977   3.444 -1.6655  0.8980  0.0539
24336SOL     OW75014   4.071   9.368   3.347 -0.3429 -0.4717 -0.1598
24336SOL    HW175015   3.977   9.358   3.364 -0.2685  0.3512  0.8776
24336SOL    HW275016   4.108   9.394   3.432  0.5028  1.1591 -0.9822
24337SOL     OW75017   4.638   0.536  10.545 -0.2623 -0.4364  0.3849
24337SOL    HW175018   4.651   0.471  10.614  1.7116 -0.1728  0.3184
24337SOL    HW275019   4.634   0.619  10.591  1.4149 -0.2211  0.2293
24338SOL     OW75020   4.918   6.885   9.915 -0.1269 -0.8270  0.3556
24338SOL    HW175021   4.872   6.895   9.831  0.7657  1.2978  0.0530
24338SOL    HW275022   4.989   6.823   9.895 -0.8604 -1.5703 -0.0220
24339SOL     OW75023   4.655  10.659   8.573  0.3095 -0.2886  0.4635
24339SOL    HW175024   4.722  10.727   8.586 -1.3513  1.4419  0.4096
24339SOL    HW275025   4.573  10.702   8.596 -0.8588 -2.2168  0.0960
24340SOL     OW75026   2.082   3.064   1.820  0.1188  0.2191 -0.1633
24340SOL    HW175027   2.038   3.073   1.735 -0.2212 -0.2847 -0.0462
24340SOL    HW275028   2.013   3.037   1.880  0.3016  0.8429  0.3406
24341SOL     OW75029   2.350   5.876   7.037  0.6064  0.1130  0.5177
24341SOL    HW175030   2.269   5.837   7.005  1.1716 -2.0195  1.5110
24341SOL    HW275031   2.339   5.970   7.021 -1.9693 -0.1159  0.4606
24342SOL     OW75032   3.228   7.707   2.387 -0.0906 -0.2128 -0.1442
24342SOL    HW175033   3.150   7.731   2.336 -0.5474 -0.1604  0.5675
24342SOL    HW275034   3.219   7.613   2.401 -0.5540 -0.0312  0.8087
24343SOL     OW75035   5.021   0.509   7.035  0.7972 -0.1270 -0.6736
24343SOL    HW175036   5.083   0.449   7.078  0.3105 -0.5645 -0.5752
24343SOL    HW275037   5.063   0.595   7.040  0.5401 -0.0761  1.1221
24344SOL     OW75038   4.710   3.477   3.327 -0.5214  0.5820  0.9357
24344SOL    HW175039   4.630   3.426   3.324  0.0509 -0.3393  0.8452
24344SOL    HW275040   4.687   3.561   3.287 -0.3934 -1.1673 -3.3211
24345SOL     OW75041   2.194   5.738   0.179 -0.3254 -0.4561  0.1970
24345SOL    HW175042   2.277   5.787   0.179 -1.2282  1.1605  0.9317
24345SOL    HW275043   2.186   5.704   0.268 -1.0485  0.5040  0.5141
24346SOL     OW75044   7.746   8.954   2.911  0.1899  0.2972  0.3441
24346SOL    HW175045   7.710   9.042   2.901 -1.3384 -0.0883  1.9322
24346SOL    HW275046   7.761   8.923   2.822  0.3341  1.9854 -0.2462
24347SOL     OW75047   0.994   7.145   0.581  0.1051  0.1923 -0.2874
24347SOL    HW175048   0.920   7.085   0.589 -0.2618  0.8169  1.4366
24347SOL    HW275049   1.065   7.090   0.547 -0.1060 -1.3379  1.5884
24348SOL     OW75050  11.075   9.112   2.650 -0.5352  0.1404 -0.7626
24348SOL    HW175051  11.126   9.162   2.714  2.4308 -0.6644 -2.2879
24348SOL    HW275052  10.998   9.166   2.633 -0.5763  1.1541  2.1639
24349SOL     OW75053   7.879   9.855   7.153  0.1175 -0.5143  0.3472
24349SOL    HW175054   7.803   9.878   7.206 -1.5307 -1.4391 -1.5072
24349SOL    HW275055   7.878   9.918   7.081  0.6584 -1.0055 -0.1015
24350SOL     OW75056   7.050   9.307   3.252 -0.3645 -0.0726  0.3426
24350SOL    HW175057   7.057   9.294   3.158 -1.8882 -2.1727  0.4380
24350SOL    HW275058   7.118   9.251   3.290 -0.0444  0.4244  0.5079
24351SOL     OW75059   4.738   8.481   4.787  0.2121 -0.0162  0.0893
24351SOL    HW175060   4.812   8.439   4.743 -0.6124 -0.6582 -0.7272
24351SOL    HW275061   4.754   8.466   4.880  0.6275 -1.0140 -0.1279
24352SOL     OW75062   3.748   5.954   3.428  0.6957 -0.1457 -0.2514
24352SOL    HW175063   3.706   5.976   3.344 -0.5637  1.2158  0.6806
24352SOL    HW275064   3.796   6.034   3.451  1.6355 -0.7719 -0.0154
24353SOL     OW75065   4.661   4.627   7.823  0.6659  0.2609  0.2729
24353SOL    HW175066   4.584   4.679   7.802 -0.6503 -1.6821  0.0370
24353SOL    HW275067   4.697   4.602   7.738  1.5716  1.1468  0.3821
24354SOL     OW75068   2.287   6.205   6.334 -0.0689  0.3408 -0.2522
24354SOL    HW175069   2.354   6.160   6.283 -0.4273 -0.1627 -0.2937
24354SOL    HW275070   2.324   6.290   6.354  0.7718 -0.1051  0.1215
24355SOL     OW75071   4.065   2.396   1.827 -0.1214  0.3391 -0.3231
24355SOL    HW175072   4.030   2.445   1.901 -0.0697  0.7703 -0.5834
24355SOL    HW275073   4.023   2.311   1.833 -0.5684  0.5712 -0.1449
24356SOL     OW75074   3.277  10.294   4.589 -0.5870 -0.3541  0.3537
24356SOL    HW175075   3.231  10.347   4.654 -2.7696 -2.0106  0.2576
24356SOL    HW275076   3.345  10.249   4.639  2.1624  3.2164  0.2485
24357SOL     OW75077   6.212   7.556   0.346  0.1488  0.0846  0.2539
24357SOL    HW175078   6.172   7.532   0.429 -1.2499 -0.7027 -0.6009
24357SOL    HW275079   6.246   7.644   0.359 -1.7791  0.7463  1.0807
24358SOL     OW75080   2.095   4.767   3.775  0.0066  0.0136 -0.2469
24358SOL    HW175081   2.128   4.856   3.762  1.7671 -0.4564  0.7379
24358SOL    HW275082   2.153   4.711   3.723  0.6360 -0.8116  1.2935
24359SOL     OW75083   2.328   6.785   9.629 -0.5804  0.0132 -0.0948
24359SOL    HW175084   2.391   6.756   9.695 -1.3975 -1.5930  0.0219
24359SOL    HW275085   2.339   6.724   9.557 -1.5198  0.1507 -0.3660
24360SOL     OW75086   7.256   9.935   9.263 -0.0455  0.2935 -0.2314
24360SOL    HW175087   7.239   9.864   9.200 -0.2228  0.5701 -0.4986
24360SOL    HW275088   7.168   9.965   9.288  0.0322  0.8191 -0.5764
24361SOL     OW75089   3.404   3.121   2.978  0.4508  0.5623  0.4832
24361SOL    HW175090   3.381   3.093   2.890  0.5507 -0.0355  0.6382
24361SOL    HW275091   3.339   3.079   3.034 -1.0250  2.7442  0.5361
24362SOL     OW75092   6.080   9.614   2.072 -0.0826  0.1685  0.1397
24362SOL    HW175093   6.145   9.668   2.028  0.1532  0.5866  0.9835
24362SOL    HW275094   6.037   9.566   2.001  0.3876  0.7092 -0.5259
24363SOL     OW75095   7.878   4.825   1.270 -0.7018  0.2124 -0.1724
24363SOL    HW175096   7.867   4.779   1.354  0.6468  1.5035  0.7754
24363SOL    HW275097   7.796   4.873   1.259 -0.8433  0.1411  0.4954
24364SOL     OW75098   3.285   8.936   6.857  0.1827 -0.3968 -0.2584
24364SOL    HW175099   3.250   8.885   6.930  0.4653 -0.4161 -0.1332
24364SOL    HW275100   3.208   8.970   6.812  0.0022  1.0273  1.0398
24365SOL     OW75101   3.576   6.702  10.045  0.4351  0.1839 -0.2353
24365SOL    HW175102   3.592   6.776   9.986  1.5745  0.0030 -0.1915
24365SOL    HW275103   3.662   6.659  10.052 -0.1331 -0.9442 -0.0012
24366SOL     OW75104   7.427   0.379   8.272 -0.1224 -0.1332 -0.3738
24366SOL    HW175105   7.408   0.310   8.208  0.7007 -1.1118  0.3946
24366SOL    HW275106   7.366   0.362   8.344 -0.8749  0.8119 -0.7683
24367SOL     OW75107   5.868   5.479   4.987  0.4802 -0.5754  0.1830
24367SOL    HW175108   5.936   5.414   5.002  1.2731  0.4048  0.9880
24367SOL    HW275109   5.794   5.450   5.040  0.6280 -1.0884  0.1172
24368SOL     OW75110   9.308   9.668   9.081  0.1579  0.2799  0.3737
24368SOL    HW175111   9.302   9.754   9.123  0.0377 -0.2272  1.4366
24368SOL    HW275112   9.304   9.605   9.154  1.9819 -0.5852 -0.2210
24369SOL     OW75113   4.560   5.514   0.036  0.2319  0.5772  0.0738
24369SOL    HW175114   4.628   5.581   0.043 -0.3542  1.1989 -0.1624
24369SOL    HW275115   4.600   5.436   0.076  1.3625  0.7113 -0.7434
24370SOL     OW75116   5.656   0.303   2.945 -0.1825 -0.5747  0.5249
24370SOL    HW175117   5.724   0.317   3.010 -0.5956 -0.6763  0.9856
24370SOL    HW275118   5.576   0.337   2.986  0.1218  2.7252 -1.2997
24371SOL     OW75119   4.201   6.581   5.226 -0.1598  0.2120 -0.2524
24371SOL    HW175120   4.122   6.529   5.244  0.4679 -0.6870 -0.0434
24371SOL    HW275121   4.190   6.660   5.278 -0.7804 -0.0529  0.0276
24372SOL     OW75122   7.057   3.166   5.308 -0.4083 -0.0810 -0.3196
24372SOL    HW175123   7.107   3.117   5.243  0.9835 -1.0658  1.4188
24372SOL    HW275124   6.966   3.142   5.290 -0.1961  0.6271 -2.6295
24373SOL     OW75125   6.677   2.109   7.179  0.1222 -0.4806  0.2007
24373SOL    HW175126   6.713   2.079   7.096 -1.0385  0.5495 -0.7148
24373SOL    HW275127   6.678   2.205   7.173 -0.0965 -0.3905  1.3162
24374SOL     OW75128   5.261   3.595   4.312 -0.4816 -0.2450 -0.4596
24374SOL    HW175129   5.199   3.545   4.366 -0.5865 -1.2021 -1.4298
24374SOL    HW275130   5.213   3.614   4.232 -0.2769  1.0325 -0.2918
24375SOL     OW75131   6.684   2.591   4.812  0.3605  0.0761  0.6868
24375SOL    HW175132   6.614   2.594   4.747  1.1197  0.0470 -0.1541
24375SOL    HW275133   6.639   2.595   4.896 -0.6866 -0.4853  0.1789
24376SOL     OW75134   9.232   5.077   9.538  0.2095 -0.0711  0.2494
24376SOL    HW175135   9.171   5.007   9.518 -0.0090  0.0421  0.5178
24376SOL    HW275136   9.233   5.082   9.633 -0.1744  0.6333  0.2278
24377SOL     OW75137   1.193   0.436   8.965  0.2359  0.1667 -0.0905
24377SOL    HW175138   1.179   0.528   8.941  2.5307  0.1743 -1.6777
24377SOL    HW275139   1.201   0.390   8.882  3.0993 -0.7413  0.5579
24378SOL     OW75140   4.674   2.905   0.397 -0.0079  0.1610  0.3311
24378SOL    HW175141   4.736   2.842   0.433 -0.1399 -1.1267 -1.5506
24378SOL    HW275142   4.601   2.852   0.365 -0.2625  1.2775 -1.0215
24379SOL     OW75143   2.768   4.790   3.266  0.2821 -0.2124  0.2486
24379SOL    HW175144   2.844   4.829   3.309  1.3425 -2.6519  0.7914
24379SOL    HW275145   2.805   4.729   3.202 -1.1868 -1.3773  0.4356
24380SOL     OW75146   5.921   4.674  10.142 -0.0678  0.0391 -0.0780
24380SOL    HW175147   6.003   4.724  10.143 -0.1874  0.2354  0.4014
24380SOL    HW275148   5.937   4.600  10.199  0.1144 -0.4931 -0.8060
24381SOL     OW75149   1.903   9.229   6.306  0.6471 -0.0852  0.1179
24381SOL    HW175150   1.911   9.214   6.212 -2.2969 -0.4523 -0.1598
24381SOL    HW275151   1.880   9.144   6.343  1.2077  0.1715  1.1263
24382SOL     OW75152   8.348   7.967   3.821 -0.6998  0.4821 -0.4667
24382SOL    HW175153   8.361   7.889   3.767 -0.6127  0.5795 -0.5857
24382SOL    HW275154   8.267   8.006   3.787  0.7120  1.9816 -2.2739
24383SOL     OW75155   1.939   5.441   7.922 -0.2900 -0.3492 -0.2647
24383SOL    HW175156   1.919   5.527   7.886  0.2938  0.5410  1.4436
24383SOL    HW275157   1.976   5.392   7.848  1.6292  1.6573 -0.7165
24384SOL     OW75158  10.190   6.219   8.095  0.5565  0.0523  0.4419
24384SOL    HW175159  10.137   6.280   8.044  0.2813 -0.2788  0.3221
24384SOL    HW275160  10.167   6.133   8.060  1.8316 -0.0410 -0.2134
24385SOL     OW75161   0.635   0.381   0.656 -0.3044  0.0995 -0.3774
24385SOL    HW175162   0.709   0.343   0.703 -1.0619 -0.8715  0.0578
24385SOL    HW275163   0.631   0.334   0.573 -0.6106 -0.0605 -0.2754
24386SOL     OW75164   9.659   0.403  10.911 -0.1178  0.2770  0.2103
24386SOL    HW175165   9.717   0.328  10.908  0.8247  0.8642  2.2096
24386SOL    HW275166   9.571   0.366  10.904  0.3910 -0.6717 -2.1365
24387SOL     OW75167   9.713   6.927  10.851  0.8217 -0.2720 -0.5385
24387SOL    HW175168   9.713   7.011  10.896 -0.4917 -1.0911  1.1081
24387SOL    HW275169   9.710   6.950  10.758 -0.6352  1.5243 -0.1153
24388SOL     OW75170   4.049   1.338   2.526 -0.5524 -0.3247  0.2830
24388SOL    HW175171   4.143   1.356   2.516 -0.3805 -1.3587 -0.0993
24388SOL    HW275172   4.043   1.243   2.525 -1.6110 -0.2692  0.3817
24389SOL     OW75173   0.393   5.754  10.463  0.0628  0.1114  0.0420
24389SOL    HW175174   0.397   5.753  10.559 -0.7515 -1.2215  0.0861
24389SOL    HW275175   0.381   5.662  10.438 -2.1907  0.6836 -1.2190
24390SOL     OW75176   0.814   3.590  10.892 -0.2118 -0.1928 -0.1787
24390SOL    HW175177   0.887   3.611  10.834  0.1885  1.0926  0.7742
24390SOL    HW275178   0.789   3.501  10.867  0.6602 -0.0720 -1.5715
24391SOL     OW75179   4.170   9.841  10.212 -0.2101 -0.4452  0.4219
24391SOL    HW175180   4.164   9.874  10.123 -0.9981 -1.5394  0.0532
24391SOL    HW275181   4.084   9.857  10.250 -0.2243 -0.9658  0.6211
24392SOL     OW75182   1.499   0.591   7.713 -0.3936 -0.2245 -0.3601
24392SOL    HW175183   1.425   0.535   7.739 -0.2576 -1.0996 -1.7509
24392SOL    HW275184   1.460   0.656   7.655 -0.4819  0.9452  0.9483
24393SOL     OW75185   4.871   8.364  10.257 -0.4547 -0.5972 -0.0125
24393SOL    HW175186   4.821   8.414  10.322  0.8813  0.8219 -0.0228
24393SOL    HW275187   4.885   8.426  10.185 -1.0362 -1.8366 -1.2166
24394SOL     OW75188   8.374   2.930   1.128 -0.3898 -0.7299  0.5693
24394SOL    HW175189   8.451   2.976   1.162 -1.1911 -0.0422  1.5312
24394SOL    HW275190   8.343   2.879   1.203 -0.2224 -1.9047 -0.1433
24395SOL     OW75191   6.821   4.320   6.306 -0.4535 -0.4321  0.4953
24395SOL    HW175192   6.819   4.415   6.319 -0.9061 -0.4006  0.2111
24395SOL    HW275193   6.906   4.293   6.341  1.3554  0.5695 -2.7271
24396SOL     OW75194  10.864  10.209   5.656 -0.1913 -0.0605 -0.2053
24396SOL    HW175195  10.793  10.169   5.705 -0.6335  1.2559  0.2584
24396SOL    HW275196  10.874  10.296   5.694  0.8003  0.2541 -1.1317
24397SOL     OW75197   3.922   9.798   1.864  0.4269  0.3936  0.6087
24397SOL    HW175198   3.933   9.868   1.800 -1.9267  0.6437  0.4262
24397SOL    HW275199   3.927   9.717   1.814 -0.6687  0.5659  0.2138
24398SOL     OW75200   3.878   2.280   0.530  0.2117 -0.2601 -0.1406
24398SOL    HW175201   3.966   2.309   0.506  0.3554 -0.4114  0.1971
24398SOL    HW275202   3.822   2.354   0.508  0.6467  0.5154  1.2132
24399SOL     OW75203   6.403   7.956  10.895 -0.3198  0.4064 -0.0153
24399SOL    HW175204   6.399   7.881  10.954 -0.3039  0.0330 -0.4787
24399SOL    HW275205   6.385   7.918  10.808 -1.4533  1.1067 -0.1112
24400SOL     OW75206   9.718   7.867   1.668 -0.1851 -0.8571  0.4219
24400SOL    HW175207   9.670   7.871   1.585  0.3335 -0.3332  0.1328
24400SOL    HW275208   9.699   7.780   1.703 -2.0538 -0.3525  0.7717
24401SOL     OW75209   7.468   6.963   8.110 -0.0303 -0.1627 -0.4060
24401SOL    HW175210   7.441   6.871   8.106 -0.1062 -0.1032 -1.5725
24401SOL    HW275211   7.394   7.008   8.152 -0.1040 -0.5923 -0.0725
24402SOL     OW75212  10.508   2.194   0.321  0.2657  0.0062 -0.3240
24402SOL    HW175213  10.581   2.238   0.365 -0.8922  2.7182 -0.9388
24402SOL    HW275214  10.445   2.175   0.391  0.6865 -0.5695 -0.0877
24403SOL     OW75215  10.300  11.059   8.158 -0.3327 -0.0866 -0.1554
24403SOL    HW175216  10.218  11.013   8.174  1.1755 -2.4739  1.2917
24403SOL    HW275217  10.327  11.029   8.071 -0.2428 -0.5297  0.0224
24404SOL     OW75218   0.099   6.032   1.163 -0.0548 -0.7517  0.3866
24404SOL    HW175219   0.037   6.012   1.234 -1.0349 -0.8151 -0.4635
24404SOL    HW275220   0.063   5.986   1.087  0.7319 -0.3085 -0.2619
24405SOL     OW75221   9.086  10.801   2.313 -0.2353  0.0068  0.2340
24405SOL    HW175222   9.130  10.826   2.394  0.2835  2.2430 -0.6484
24405SOL    HW275223   9.043  10.718   2.333  0.3165  0.2249  2.6160
24406SOL     OW75224   7.701   2.496   2.457 -0.7696 -0.0435 -0.9468
24406SOL    HW175225   7.653   2.439   2.518 -0.7738  0.2719 -0.6514
24406SOL    HW275226   7.681   2.460   2.371 -0.9685 -0.3441 -0.7796
24407SOL     OW75227   0.526   5.893   5.086 -0.0090  0.4916 -0.0962
24407SOL    HW175228   0.488   5.973   5.122 -0.2383 -0.2822  1.4969
24407SOL    HW275229   0.617   5.894   5.117 -0.4970 -0.7174  1.5800
24408SOL     OW75230   0.703   7.870   1.124  0.4192 -0.0655 -0.8320
24408SOL    HW175231   0.726   7.801   1.061  1.9481 -1.9361  1.5829
24408SOL    HW275232   0.623   7.838   1.165 -0.0167  0.6486 -1.1162
24409SOL     OW75233  10.645   1.850  10.747 -0.2932 -0.2572  0.4815
24409SOL    HW175234  10.707   1.790  10.788  0.2442 -0.8925 -1.1887
24409SOL    HW275235  10.577   1.794  10.710 -0.2168  0.2032 -0.3944
24410SOL     OW75236   8.396   3.364   1.198 -0.0354  0.0111  0.3994
24410SOL    HW175237   8.362   3.453   1.208 -0.9400 -0.4958  2.1032
24410SOL    HW275238   8.333   3.320   1.140  0.4312  0.4597 -0.4724
24411SOL     OW75239   1.869   6.944  10.596 -0.1712  0.5893 -0.1144
24411SOL    HW175240   1.858   7.013  10.531  0.2921  0.3380 -0.4648
24411SOL    HW275241   1.861   6.862  10.546 -1.8321  0.3590  0.4648
24412SOL     OW75242   3.417   8.063   3.930  0.1978 -0.2396 -0.5405
24412SOL    HW175243   3.475   7.994   3.963 -0.5108  0.5003  2.6093
24412SOL    HW275244   3.454   8.144   3.965 -1.6260  0.4370 -0.0512
24413SOL     OW75245   2.632   1.966   1.526 -0.5331 -0.4245 -0.3702
24413SOL    HW175246   2.588   1.950   1.442  0.0337 -0.6062 -0.6449
24413SOL    HW275247   2.604   2.053   1.552 -1.1899 -0.6092 -0.4456
24414SOL     OW75248   7.469   9.026   9.631  0.3640  0.0273 -0.5462
24414SOL    HW175249   7.459   9.040   9.726  2.1884 -1.9840  0.0196
24414SOL    HW275250   7.564   9.026   9.617  0.1362  1.5550 -2.6486
24415SOL     OW75251   9.610   8.532   4.068 -0.6011  0.1342  0.4431
24415SOL    HW175252   9.526   8.536   4.022  0.2953  0.2225 -1.2432
24415SOL    HW275253   9.669   8.584   4.015  1.3914 -2.7156 -0.3669
24416SOL     OW75254   5.032   4.199   2.806  0.2054  0.3586 -0.4076
24416SOL    HW175255   5.085   4.276   2.828  3.4343 -0.5373 -3.9848
24416SOL    HW275256   4.960   4.235   2.753  0.0879  1.1338  0.2583
24417SOL     OW75257   1.520   6.148   1.434 -0.3933 -0.3245  0.2379
24417SOL    HW175258   1.597   6.202   1.418  0.7025 -0.3863  4.2070
24417SOL    HW275259   1.533   6.070   1.380  2.0483 -0.0674  0.3677
24418SOL     OW75260   0.955   8.583  10.943 -0.1957 -0.3375  0.9287
24418SOL    HW175261   1.010   8.555  10.870 -2.5262 -0.6002 -0.8364
24418SOL    HW275262   1.015   8.632  11.001  1.8620 -0.6696 -0.7995
24419SOL     OW75263   6.390   3.474   2.497 -0.4430  0.8342 -0.8260
24419SOL    HW175264   6.379   3.402   2.435 -0.7060  0.2882 -0.1629
24419SOL    HW275265   6.405   3.551   2.443  2.3559 -0.0951 -1.5249
24420SOL     OW75266   8.477   6.704   0.108  0.4341 -0.0725 -0.0838
24420SOL    HW175267   8.525   6.777   0.070  0.7984 -0.5874 -0.6155
24420SOL    HW275268   8.475   6.724   0.202 -0.8250  1.4042 -0.3835
24421SOL     OW75269   1.292   2.511   9.420  0.6169 -0.5230 -0.6056
24421SOL    HW175270   1.269   2.499   9.512 -1.5036  2.8229 -0.5199
24421SOL    HW275271   1.295   2.423   9.384  1.8695 -1.9805  2.6765
24422SOL     OW75272   1.012   3.901   8.592 -0.3096 -0.5306 -0.2732
24422SOL    HW175273   1.005   3.845   8.670  0.5149 -1.1083 -0.5970
24422SOL    HW275274   0.991   3.989   8.623  0.8044 -0.6170  0.7859
24423SOL     OW75275   4.863   2.275   9.838 -0.7900  0.0311 -0.2323
24423SOL    HW175276   4.911   2.344   9.883 -0.9407  0.7116 -1.0825
24423SOL    HW275277   4.918   2.251   9.764 -0.1917 -1.6099  0.6922
24424SOL     OW75278   1.462   1.430   7.447 -0.3204 -0.5571 -0.6975
24424SOL    HW175279   1.550   1.468   7.448 -0.6971  0.3325 -0.1225
24424SOL    HW275280   1.403   1.505   7.455 -1.0786 -1.2642  0.8376
24425SOL     OW75281   8.395  10.209  10.796  0.0590 -0.7354  0.1604
24425SOL    HW175282   8.355  10.261  10.866 -1.7590  0.2717 -1.5396
24425SOL    HW275283   8.489  10.229  10.802 -0.3917  1.4657  0.5910
24426SOL     OW75284   5.274   3.584   0.860  0.7573  0.2828  0.5523
24426SOL    HW175285   5.242   3.512   0.806  1.9955 -0.0483  0.2290
24426SOL    HW275286   5.354   3.550   0.900  1.2947  1.4224  0.4922
24427SOL     OW75287   6.569   6.714   5.649 -0.0628 -0.0950  0.4498
24427SOL    HW175288   6.532   6.765   5.577  1.9002 -0.5208 -0.9116
24427SOL    HW275289   6.664   6.719   5.636  0.2458 -2.6439  1.2889
24428SOL     OW75290  10.085   6.239   7.784  0.1932 -0.4496  0.1370
24428SOL    HW175291   9.996   6.242   7.749 -0.8017 -1.1111  2.3830
24428SOL    HW275292  10.115   6.330   7.781 -1.7290  0.3409  1.9596
24429SOL     OW75293  10.336   7.489  11.005 -0.2122 -0.4313  0.0047
24429SOL    HW175294  10.249   7.485  11.044 -0.4769  0.9784 -0.3831
24429SOL    HW275295  10.396   7.474  11.078 -0.7267  1.0693  0.7612
24430SOL     OW75296   1.735   7.150   1.143  0.1151  0.2684  0.0067
24430SOL    HW175297   1.825   7.140   1.113  0.8242  2.3980  1.2054
24430SOL    HW275298   1.682   7.145   1.063  1.4401  0.5101 -0.9140
24431SOL     OW75299   8.751   3.915   4.310  0.0519  0.3490  0.4070
24431SOL    HW175300   8.750   4.003   4.347  1.7097  0.0801  1.2024
24431SOL    HW275301   8.789   3.926   4.223  0.8533  0.3544  0.7506
24432SOL     OW75302   4.132  10.445   3.427  0.4565  0.9065  0.3418
24432SOL    HW175303   4.082  10.453   3.345  0.5444  0.3500  0.2256
24432SOL    HW275304   4.115  10.526   3.473 -1.8306  0.1397  1.0068
24433SOL     OW75305   9.843   9.970  10.688  0.2671 -0.1524  0.7543
24433SOL    HW175306   9.891   9.920  10.622 -0.6644  0.2918 -0.2917
24433SOL    HW275307   9.811  10.046  10.641 -0.2353  0.2915  1.7903
24434SOL     OW75308   8.490   0.204   3.001 -0.2157  0.0103  0.4220
24434SOL    HW175309   8.458   0.143   2.934 -1.9647  0.6054  0.6814
24434SOL    HW275310   8.522   0.279   2.952 -1.2982  0.3559  0.2300
24435SOL     OW75311   0.368   2.673   6.663  0.0362 -0.3138  0.0152
24435SOL    HW175312   0.371   2.678   6.568 -0.3480  0.2918  0.0280
24435SOL    HW275313   0.284   2.631   6.682 -0.1115  0.0142  0.0955
24436SOL     OW75314   9.588   8.235   4.703 -0.2621  0.0533 -0.0096
24436SOL    HW175315   9.509   8.183   4.711  0.1740 -0.2971  4.0667
24436SOL    HW275316   9.659   8.172   4.704  0.2326  0.4230 -2.7756
24437SOL     OW75317   0.067   9.773   4.334 -0.1392 -0.0345  0.1214
24437SOL    HW175318   0.131   9.843   4.350  0.5581 -0.8443  1.0149
24437SOL    HW275319  -0.018   9.815   4.343  0.2695  0.7837  0.2376
24438SOL     OW75320   5.421   5.867   7.389 -0.3785  0.1291  0.7305
24438SOL    HW175321   5.512   5.852   7.365 -0.9493 -0.7126 -1.0627
24438SOL    HW275322   5.375   5.789   7.359 -2.1689  1.8356 -1.3033
24439SOL     OW75323   5.229   7.418   3.625 -0.3086 -0.3462  0.1170
24439SOL    HW175324   5.224   7.444   3.718 -1.4140  1.5501 -0.4207
24439SOL    HW275325   5.169   7.344   3.618  0.3529 -1.0101  1.0353
24440SOL     OW75326   7.608   4.197  10.841  0.6830 -0.0406  0.5164
24440SOL    HW175327   7.582   4.125  10.898  1.6430 -1.9678 -1.3168
24440SOL    HW275328   7.537   4.261  10.848 -0.4713 -1.3992  1.7949
24441SOL     OW75329   6.942   7.019   2.728  0.2180  0.6977  0.6501
24441SOL    HW175330   6.995   6.944   2.699 -0.3229  0.7103 -0.4112
24441SOL    HW275331   6.902   6.990   2.810  2.4933  0.9858  1.9488
24442SOL     OW75332   1.828  10.861   1.603  0.2023  0.5250  0.2309
24442SOL    HW175333   1.918  10.841   1.627  0.2559 -1.3924 -1.3333
24442SOL    HW275334   1.811  10.947   1.643  1.3930 -0.7168  3.8708
24443SOL     OW75335   5.879   1.110   9.104 -0.3934  0.3129  0.0128
24443SOL    HW175336   5.791   1.075   9.120 -0.6550 -0.0581 -2.0458
24443SOL    HW275337   5.872   1.157   9.021  1.2298  0.7654  0.1004
24444SOL     OW75338   1.164   7.877  10.145 -0.5122 -0.2761 -0.0770
24444SOL    HW175339   1.099   7.899  10.078 -1.1514 -0.7949  0.3611
24444SOL    HW275340   1.115   7.826  10.210  0.4590 -1.1332 -0.0016
24445SOL     OW75341   6.176   4.388   9.418 -0.4527  0.6406  0.2995
24445SOL    HW175342   6.153   4.386   9.511  0.7736 -1.0210  0.6184
24445SOL    HW275343   6.214   4.302   9.401 -0.9885  0.7692 -1.8470
24446SOL     OW75344   9.547   3.426   4.588  0.9166 -0.7288 -0.0486
24446SOL    HW175345   9.463   3.388   4.614  0.5173 -0.3271 -0.7156
24446SOL    HW275346   9.574   3.374   4.512  0.0567  0.6591 -1.3700
24447SOL     OW75347   1.232   8.585   0.925  0.1725  0.0944 -0.4400
24447SOL    HW175348   1.242   8.680   0.914 -1.0539  0.6646  2.4694
24447SOL    HW275349   1.187   8.575   1.009  1.7605 -3.1434  0.1761
24448SOL     OW75350   2.533   5.540   5.641 -0.4163  0.2669 -0.3164
24448SOL    HW175351   2.589   5.475   5.685 -1.7081  0.4418  1.6979
24448SOL    HW275352   2.594   5.606   5.608  0.6094  0.8289  2.4316
24449SOL     OW75353   5.959   8.853   1.897  0.4741 -0.0454  0.2560
24449SOL    HW175354   6.040   8.866   1.847  0.0845 -0.6046 -0.5416
24449SOL    HW275355   5.960   8.759   1.919 -0.0832 -0.1092  0.0183
24450SOL     OW75356   0.847   2.953  10.078 -0.0639 -0.0667 -0.1587
24450SOL    HW175357   0.860   2.938   9.984  1.3550  0.8954 -0.1504
24450SOL    HW275358   0.752   2.953  10.089 -0.2373 -1.3876 -1.3702
24451SOL     OW75359   5.407   2.788   8.599  0.3777 -0.0940  0.7661
24451SOL    HW175360   5.406   2.864   8.541 -0.5894 -0.7806 -0.1461
24451SOL    HW275361   5.331   2.737   8.573  1.0666 -1.4343  1.2889
24452SOL     OW75362   8.199   4.114   3.555 -0.2322 -1.1052  0.0451
24452SOL    HW175363   8.104   4.119   3.546 -0.1091  0.1405 -0.8717
24452SOL    HW275364   8.227   4.204   3.568  0.9284 -1.2815 -0.9898
24453SOL     OW75365   4.270   1.947   9.055  0.6482  0.2667 -0.1087
24453SOL    HW175366   4.314   1.893   9.121 -0.2512 -1.6829 -1.0206
24453SOL    HW275367   4.192   1.981   9.099  0.5632 -0.2173  0.1196
24454SOL     OW75368   3.465   4.425   6.501  0.1899 -0.3656 -0.3863
24454SOL    HW175369   3.506   4.429   6.414 -0.6921 -1.1785 -0.8608
24454SOL    HW275370   3.400   4.495   6.499 -0.3314 -0.8450 -0.6681
24455SOL     OW75371   6.842   7.271   8.593  0.3942  0.2446  0.3564
24455SOL    HW175372   6.782   7.309   8.528  1.4637  0.2737 -0.6497
24455SOL    HW275373   6.812   7.306   8.676 -1.0155  0.2172 -0.1057
24456SOL     OW75374   2.411   2.080   9.629  0.4321 -0.2520  0.5167
24456SOL    HW175375   2.471   2.067   9.556  0.3161 -0.3064  0.4306
24456SOL    HW275376   2.379   2.169   9.618 -0.2330 -0.5445  0.0161
24457SOL     OW75377  10.598   1.874   6.869  0.4409  0.1833 -0.4165
24457SOL    HW175378  10.587   1.872   6.964  1.7549  0.5621 -0.2363
24457SOL    HW275379  10.563   1.790   6.839 -0.3841  0.2403  0.3438
24458SOL     OW75380   4.920   4.328   8.975 -0.1337 -0.1598 -0.1437
24458SOL    HW175381   4.926   4.263   9.045 -0.9291 -1.0169 -0.8444
24458SOL    HW275382   5.011   4.349   8.954  0.1128 -0.1722  0.8871
24459SOL     OW75383   1.044   4.468   3.025 -0.0252  0.6394  0.2714
24459SOL    HW175384   1.102   4.494   2.954 -0.6131  1.0754 -0.0634
24459SOL    HW275385   1.077   4.517   3.101  0.4369  0.3823  0.2405
24460SOL     OW75386   4.302   5.074   5.460 -0.1148 -0.3472  0.0427
24460SOL    HW175387   4.286   5.159   5.500 -0.5389 -1.1707  1.7079
24460SOL    HW275388   4.397   5.066   5.457 -0.0047  0.8397 -1.6968
24461SOL     OW75389   6.607  11.064   7.030 -0.1648  0.2504  0.5433
24461SOL    HW175390   6.700  11.069   7.010 -0.5707  2.6016 -1.2321
24461SOL    HW275391   6.597  11.115   7.110  0.2612 -1.5413  1.7880
24462SOL     OW75392   6.283   3.834   4.533  0.4053 -0.3404  0.2237
24462SOL    HW175393   6.240   3.844   4.618 -0.0306 -0.0955 -0.0220
24462SOL    HW275394   6.266   3.917   4.487 -1.0530 -1.1843 -0.8566
24463SOL     OW75395   1.377   7.576   5.018  0.4306 -0.2785  0.3496
24463SOL    HW175396   1.360   7.656   5.069  0.2471 -0.5173  0.6628
24463SOL    HW275397   1.443   7.603   4.953  1.5433 -0.2441  1.4525
24464SOL     OW75398   5.905   3.591   2.282  0.4763 -0.3309 -0.1640
24464SOL    HW175399   5.941   3.531   2.346  2.0069 -0.5479 -1.1742
24464SOL    HW275400   5.949   3.674   2.299  0.1179 -0.1146 -0.2707
24465SOL     OW75401   9.702   0.600   3.931  0.1890 -0.2684 -0.0612
24465SOL    HW175402   9.633   0.663   3.910  1.7179  1.9135  1.0124
24465SOL    HW275403   9.762   0.604   3.857 -0.0652 -1.0306 -0.3152
24466SOL     OW75404   0.369   4.892   5.404 -0.2691  0.1181 -0.2410
24466SOL    HW175405   0.387   4.835   5.329 -1.3517  0.5692 -0.8589
24466SOL    HW275406   0.452   4.938   5.419  0.6585 -1.6834  0.3564
24467SOL     OW75407   6.714   5.749   2.705 -0.0790  0.0415 -0.1493
24467SOL    HW175408   6.670   5.716   2.627  1.9201  1.3563 -1.9544
24467SOL    HW275409   6.746   5.670   2.750 -2.5239 -0.8215  0.2475
24468SOL     OW75410   0.323   0.908   3.232 -0.0656 -0.0386 -0.1768
24468SOL    HW175411   0.349   0.955   3.311  2.2372 -1.9868  0.3503
24468SOL    HW275412   0.235   0.876   3.250  0.2675 -0.1012  1.4313
24469SOL     OW75413   7.498   6.667   3.503 -0.2026 -1.0347  0.5650
24469SOL    HW175414   7.499   6.656   3.408 -1.4381  0.3933  0.3535
24469SOL    HW275415   7.590   6.675   3.527  0.0640  0.0910 -0.7229
24470SOL     OW75416   2.107   2.306  10.495  0.1482 -0.5712 -0.0313
24470SOL    HW175417   2.102   2.224  10.544  0.6632 -0.9956 -0.6709
24470SOL    HW275418   2.163   2.363  10.549  0.9626 -1.1407 -0.2599
24471SOL     OW75419   3.154   2.474  10.693 -0.2439  0.1964  0.0333
24471SOL    HW175420   3.214   2.412  10.736 -0.0196  0.7241  0.4938
24471SOL    HW275421   3.195   2.492  10.608  0.7712  1.2970  0.7245
24472SOL     OW75422   8.989  10.441   0.868  0.1747 -0.1303 -0.1192
24472SOL    HW175423   9.077  10.449   0.830 -0.5122 -0.3436 -1.8166
24472SOL    HW275424   9.005  10.422   0.961  1.9349 -0.9509 -0.5529
24473SOL     OW75425   5.039   0.073   3.029  0.8334 -0.0835  0.3232
24473SOL    HW175426   5.077   0.125   2.958 -0.6705 -1.4454 -1.5534
24473SOL    HW275427   5.099   0.087   3.103  3.9148 -0.6139 -1.8823
24474SOL     OW75428   2.639   8.221   2.748  0.4395 -0.3882 -0.3419
24474SOL    HW175429   2.637   8.317   2.751  0.0842 -0.3362 -1.6391
24474SOL    HW275430   2.547   8.195   2.753  0.4502 -0.6051 -1.1900
24475SOL     OW75431   6.202   8.870   8.812 -0.3293 -0.0973 -0.1994
24475SOL    HW175432   6.149   8.949   8.820  0.4537  0.4471 -0.2678
24475SOL    HW275433   6.170   8.812   8.881  0.0446  0.8332  0.7692
24476SOL     OW75434  10.721  10.790   2.440  0.2567  0.2844 -0.1446
24476SOL    HW175435  10.739  10.855   2.372  0.0032 -0.3385 -0.8169
24476SOL    HW275436  10.744  10.706   2.400 -0.8504 -0.1857  0.1751
24477SOL     OW75437  10.303   9.685   9.194 -0.2855  0.8822 -0.0123
24477SOL    HW175438  10.252   9.654   9.269 -1.7412 -1.2284 -1.7589
24477SOL    HW275439  10.365   9.748   9.232  1.5909 -2.6803  3.6251
24478SOL     OW75440   5.312   0.248   8.080  0.5708 -0.0035  0.1344
24478SOL    HW175441   5.390   0.233   8.026  0.9422  1.0668  0.3480
24478SOL    HW275442   5.241   0.260   8.017  0.4590 -1.5072 -0.0535
24479SOL     OW75443  10.463   1.126  11.074 -0.4137 -0.0930  0.0850
24479SOL    HW175444  10.370   1.135  11.052 -0.0843 -1.6975 -2.3101
24479SOL    HW275445  10.480   1.032  11.070  1.3724  0.1788  0.3105
24480SOL     OW75446   7.299  11.039   9.614 -0.6439  0.3763  0.0332
24480SOL    HW175447   7.217  10.989   9.617  0.2845 -1.1809  1.5180
24480SOL    HW275448   7.285  11.113   9.672 -1.6290  1.2186 -1.2343
24481SOL     OW75449   3.240   2.567   2.162 -0.0457 -0.0715  0.3462
24481SOL    HW175450   3.319   2.516   2.144 -1.0659 -1.4851 -0.3155
24481SOL    HW275451   3.171   2.502   2.172 -1.0122  1.0939  1.6469
24482SOL     OW75452   6.192   8.572   5.450  0.0750  0.5430  0.1159
24482SOL    HW175453   6.226   8.661   5.451 -0.1651  0.6326  0.1897
24482SOL    HW275454   6.264   8.518   5.482  1.0617  0.4305 -2.1057
24483SOL     OW75455   3.733   6.845   2.572  0.3976  0.0193 -0.4242
24483SOL    HW175456   3.722   6.893   2.654  0.1550  0.2850 -0.6120
24483SOL    HW275457   3.818   6.801   2.582 -0.0971 -0.7978  0.3926
24484SOL     OW75458   7.996   4.563   3.089  0.2952 -0.3674  0.0951
24484SOL    HW175459   8.071   4.589   3.035 -0.0276  0.9310  0.2329
24484SOL    HW275460   8.016   4.598   3.176  1.0312 -2.8357  1.0024
24485SOL     OW75461  10.255   3.407   9.705 -0.2497 -0.3856 -0.3753
24485SOL    HW175462  10.313   3.454   9.645 -0.2786 -1.3637 -1.1866
24485SOL    HW275463  10.297   3.322   9.717 -0.9564 -0.6985 -0.0956
24486SOL     OW75464   1.390   0.668  10.685 -0.3005 -0.0911 -0.0927
24486SOL    HW175465   1.470   0.643  10.639  0.1552  1.3958 -0.1758
24486SOL    HW275466   1.395   0.621  10.769 -0.7520 -2.1856 -1.1727
24487SOL     OW75467   9.871   1.236   3.391 -0.0278  0.2051  0.1724
24487SOL    HW175468   9.810   1.261   3.322  1.1579  0.1140 -0.9424
24487SOL    HW275469   9.850   1.144   3.409 -0.7759  0.4171  0.4141
24488SOL     OW75470   4.586   3.781  10.549 -0.3533  0.1655  0.3026
24488SOL    HW175471   4.674   3.754  10.574 -1.6206 -2.3208  2.5666
24488SOL    HW275472   4.578   3.755  10.457  0.7472 -1.0210  0.5173
24489SOL     OW75473   5.494   9.397   5.114 -0.2491 -0.3459 -0.0417
24489SOL    HW175474   5.421   9.339   5.092 -0.7528 -0.0165  0.7348
24489SOL    HW275475   5.457   9.461   5.175  0.5825  0.0942  0.0161
24490SOL     OW75476   7.773   1.462   2.601  0.2605 -0.1398 -0.1382
24490SOL    HW175477   7.830   1.442   2.527  0.6305 -0.1376  0.1440
24490SOL    HW275478   7.752   1.376   2.638 -0.4058 -0.1833 -0.5967
24491SOL     OW75479   0.111   7.373   1.606 -0.4688  0.1769 -0.1783
24491SOL    HW175480   0.078   7.447   1.656  1.0737  1.4236 -0.8934
24491SOL    HW275481   0.034   7.319   1.589 -1.3735  0.7768  1.7189
24492SOL     OW75482   0.517   3.912   3.269 -0.0365 -0.2727  0.1946
24492SOL    HW175483   0.488   3.883   3.182  0.0993  0.8511 -0.2460
24492SOL    HW275484   0.471   3.854   3.330  0.1135 -1.2911 -0.6333
24493SOL     OW75485   5.348   3.853   6.611 -0.5659 -0.2723  0.1256
24493SOL    HW175486   5.404   3.898   6.674 -0.9113  0.8815 -0.3668
24493SOL    HW275487   5.302   3.923   6.565 -2.4481 -1.1870  0.5244
24494SOL     OW75488   8.620   4.237   8.522 -0.6807  0.2023 -0.0520
24494SOL    HW175489   8.672   4.221   8.601  0.5541  1.2921 -0.6164
24494SOL    HW275490   8.560   4.307   8.546  1.1727  2.0830 -0.6557
24495SOL     OW75491   9.359   5.154   1.261  0.6082 -0.3188  0.1221
24495SOL    HW175492   9.439   5.196   1.230  0.1502  0.9315  0.5450
24495SOL    HW275493   9.364   5.161   1.357 -2.1840  4.3378  0.2255
24496SOL     OW75494   3.334   9.757  10.529 -0.1107 -0.5694 -0.1399
24496SOL    HW175495   3.282   9.695  10.581 -0.2620  0.9703  1.6115
24496SOL    HW275496   3.424   9.724  10.536 -0.2772 -0.9538  0.2449
24497SOL     OW75497   5.099   6.282   1.171  0.4021  0.4775 -0.3625
24497SOL    HW175498   5.060   6.257   1.254  0.6805  1.2207  0.0019
24497SOL    HW275499   5.115   6.376   1.179  1.8216  0.2938 -0.6711
24498SOL     OW75500   5.778   8.296   3.850  0.5458  0.4031 -0.0008
24498SOL    HW175501   5.850   8.285   3.912  1.1162  0.7653 -0.5976
24498SOL    HW275502   5.734   8.376   3.878  1.0769  0.8144 -0.3326
24499SOL     OW75503   5.620   3.043   6.243  0.7968 -0.2607 -0.2066
24499SOL    HW175504   5.609   3.069   6.152 -1.5446  1.0641  0.3682
24499SOL    HW275505   5.674   3.112   6.282 -0.8636  0.9764  0.0585
24500SOL     OW75506   0.869   3.629   7.256 -0.8646  0.3323 -0.6785
24500SOL    HW175507   0.820   3.566   7.203 -0.9610 -0.4189  0.2831
24500SOL    HW275508   0.836   3.715   7.229 -1.6897 -0.0973 -1.0479
24501SOL     OW75509   0.166   4.710   7.974 -0.7521  0.2761  0.1572
24501SOL    HW175510   0.131   4.742   7.891 -2.6099  1.6012  1.3816
24501SOL    HW275511   0.238   4.651   7.949 -0.2098  1.8578 -2.3207
24502SOL     OW75512   4.909   5.072   9.687  0.0656 -0.2451 -0.1273
24502SOL    HW175513   4.853   5.115   9.751  0.0891  0.1939 -0.3992
24502SOL    HW275514   4.872   5.096   9.602  0.6977  0.0930 -0.3095
24503SOL     OW75515   7.640   7.425   1.492  0.0457  0.2397 -0.5451
24503SOL    HW175516   7.629   7.367   1.566  2.3912  0.1234 -0.2088
24503SOL    HW275517   7.551   7.439   1.458 -0.7379 -2.2647  0.2866
24504SOL     OW75518   7.375   5.486  10.730 -0.5707 -0.1151  0.1271
24504SOL    HW175519   7.307   5.528  10.783 -0.5021 -2.1195  1.9357
24504SOL    HW275520   7.454   5.494  10.783  0.0383 -0.1568 -0.7542
24505SOL     OW75521  10.939   5.238  10.633  0.1284  0.2862 -0.2344
24505SOL    HW175522  10.899   5.227  10.719  1.7537 -0.5444  0.4523
24505SOL    HW275523  10.872   5.207  10.571 -0.7562  0.1622  0.7540
24506SOL     OW75524   6.486   0.346   1.941 -0.3405  0.1299  0.4219
24506SOL    HW175525   6.418   0.284   1.913  0.0012  0.0162 -0.1918
24506SOL    HW275526   6.472   0.423   1.886  1.2134 -0.6227 -1.1323
24507SOL     OW75527   5.710   1.786   3.733  0.2144 -0.4377 -0.3155
24507SOL    HW175528   5.748   1.708   3.773  1.4601  0.6864  0.7755
24507SOL    HW275529   5.705   1.765   3.640  0.7067 -1.7297 -0.0735
24508SOL     OW75530   9.196  10.501   8.873  0.2402 -0.0694  0.0548
24508SOL    HW175531   9.225  10.460   8.792  1.7376  2.1859 -0.6670
24508SOL    HW275532   9.172  10.590   8.848  0.1494  0.5043  1.9898
24509SOL     OW75533   0.435   6.481   9.813  0.2832 -0.2121  0.6073
24509SOL    HW175534   0.356   6.478   9.759  0.2558 -2.6546  0.6343
24509SOL    HW275535   0.485   6.404   9.786  2.7669  1.3230  0.5111
24510SOL     OW75536   6.517   5.950   0.342 -0.1428 -0.2259 -0.2371
24510SOL    HW175537   6.539   5.857   0.336 -1.7012 -0.5894 -0.7587
24510SOL    HW275538   6.435   5.952   0.391  0.6200  1.0100  1.0334
24511SOL     OW75539   4.917   2.181   3.937 -0.1194  0.7034  0.5507
24511SOL    HW175540   4.877   2.104   3.898  0.1676  1.2353 -0.8680
24511SOL    HW275541   4.855   2.209   4.004 -0.8894  0.0448  0.1326
24512SOL     OW75542   7.371   4.934   1.178  0.1142  0.1966 -0.1993
24512SOL    HW175543   7.324   4.941   1.261 -0.0740  0.1280 -0.3016
24512SOL    HW275544   7.361   5.021   1.138 -0.4256  0.0030 -0.4920
24513SOL     OW75545   5.246   5.530   2.177  0.0511 -0.1652  0.9007
24513SOL    HW175546   5.189   5.584   2.122  0.8961  1.0853  1.2112
24513SOL    HW275547   5.208   5.537   2.265 -0.3724 -0.8515  0.7785
24514SOL     OW75548   4.403   7.852   3.813 -0.3626 -0.2164 -0.7723
24514SOL    HW175549   4.360   7.769   3.834 -1.8458  0.5910 -0.5399
24514SOL    HW275550   4.358   7.883   3.734  0.7752 -0.0451 -1.3743
24515SOL     OW75551   1.447   2.247   6.431  0.1283  0.0979 -0.3463
24515SOL    HW175552   1.487   2.316   6.484  1.7539 -0.9163 -0.1792
24515SOL    HW275553   1.486   2.259   6.344 -1.4265  0.8551 -0.9660
24516SOL     OW75554   5.207   4.359   1.997 -1.0273 -0.1021  0.7187
24516SOL    HW175555   5.219   4.445   2.039 -0.7055 -0.0467  0.5203
24516SOL    HW275556   5.244   4.297   2.060  0.8200  0.1104 -0.0917
24517SOL     OW75557   4.460   8.279  10.891  0.1399  0.8595 -0.0829
24517SOL    HW175558   4.555   8.283  10.881  0.1654 -0.7412 -0.6563
24517SOL    HW275559   4.446   8.237  10.975 -0.0866  1.8087  0.3712
24518SOL     OW75560  10.451   8.438   0.520 -0.2314 -0.0952 -0.4378
24518SOL    HW175561  10.385   8.387   0.472 -1.3372  1.1268 -0.2505
24518SOL    HW275562  10.520   8.454   0.455 -0.9330  0.1062 -1.1460
24519SOL     OW75563   5.934   3.206   3.789  0.0087  0.5922 -0.2668
24519SOL    HW175564   5.968   3.121   3.818 -0.1894  0.2256 -1.0997
24519SOL    HW275565   5.871   3.231   3.857 -0.9014 -0.5474 -0.6622
24520SOL     OW75566   5.883   1.801  10.022  0.1993  0.2430 -0.6895
24520SOL    HW175567   5.862   1.818  10.114  0.6220 -0.7716 -0.3829
24520SOL    HW275568   5.966   1.752  10.026  0.5308  0.7084 -1.6468
24521SOL     OW75569   6.666   8.665  10.541 -0.2321 -0.2179  0.2685
24521SOL    HW175570   6.715   8.705  10.613  0.3336  0.2361 -0.3638
24521SOL    HW275571   6.706   8.579  10.529  0.0688 -0.0573  0.1055
24522SOL     OW75572   1.225   6.010  10.580 -0.3934  0.1161 -0.6059
24522SOL    HW175573   1.146   5.960  10.599  0.9185 -1.0998  2.3595
24522SOL    HW275574   1.211   6.095  10.621  0.0439 -0.3334  0.5112
24523SOL     OW75575   9.788   1.168   0.781  0.0189  0.2754  0.0389
24523SOL    HW175576   9.778   1.262   0.769 -0.2720  0.1645 -0.6451
24523SOL    HW275577   9.700   1.133   0.765 -0.1409 -0.0045  1.4399
24524SOL     OW75578   4.487   3.178   6.493 -0.2738 -0.5528 -0.2677
24524SOL    HW175579   4.545   3.246   6.528 -0.2821 -1.4027  1.4707
24524SOL    HW275580   4.407   3.224   6.469 -0.3237  0.0471  1.0002
24525SOL     OW75581   0.713   1.893   9.337 -0.2271  0.4798 -0.3355
24525SOL    HW175582   0.637   1.837   9.322  0.4248 -0.4543 -0.2441
24525SOL    HW275583   0.777   1.864   9.272  0.8558 -0.2914  1.0198
24526SOL     OW75584   7.862   6.775  10.601 -0.1276  0.4443 -0.2324
24526SOL    HW175585   7.842   6.848  10.661 -1.5186  1.1859 -1.5325
24526SOL    HW275586   7.828   6.698  10.646 -1.1953  0.9982 -0.0532
24527SOL     OW75587   8.053   1.763   7.742  0.7773  0.3514 -0.1944
24527SOL    HW175588   8.138   1.759   7.784  1.7120  0.3579 -1.9631
24527SOL    HW275589   8.060   1.701   7.669 -1.3185 -0.8981  0.5754
24528SOL     OW75590  10.834   1.490   4.590 -0.2305  0.1326 -0.2870
24528SOL    HW175591  10.892   1.561   4.562  1.4990 -1.5098 -1.0929
24528SOL    HW275592  10.890   1.413   4.595 -1.8829 -1.0754  1.2837
24529SOL     OW75593   3.400   6.182   2.203 -0.3487  0.0527 -0.4828
24529SOL    HW175594   3.399   6.101   2.153  1.1365 -0.3781  0.0996
24529SOL    HW275595   3.490   6.188   2.235 -0.5196  1.7816 -0.2612
24530SOL     OW75596   9.423   8.870  10.376  0.9342  0.0111  0.3381
24530SOL    HW175597   9.452   8.960  10.391  1.2356  0.5990 -2.9270
24530SOL    HW275598   9.341   8.879  10.328  0.1608 -1.5119  1.3229
24531SOL     OW75599   3.595   3.241   4.780 -0.7850 -0.3551  0.4629
24531SOL    HW175600   3.513   3.199   4.754  0.0748 -1.5438 -0.4540
24531SOL    HW275601   3.663   3.180   4.751  0.4594  1.0403  0.3331
24532SOL     OW75602   5.421   8.347   2.958  0.3187 -0.2730 -0.2185
24532SOL    HW175603   5.407   8.340   2.864 -1.2287  0.2177 -0.0497
24532SOL    HW275604   5.340   8.315   2.997  0.9673 -0.5527  0.9728
24533SOL     OW75605   1.893   9.171   3.824 -0.6710  0.3725 -0.0625
24533SOL    HW175606   1.819   9.210   3.871 -0.1187 -0.7142  1.8262
24533SOL    HW275607   1.962   9.238   3.829 -0.7686  0.4500  0.2618
24534SOL     OW75608   0.038   7.620   2.582  0.0247  0.1691 -0.3247
24534SOL    HW175609   0.007   7.530   2.574 -0.6089  0.3035  0.5503
24534SOL    HW275610   0.023   7.643   2.674  2.9021  0.1830  0.2368
24535SOL     OW75611   9.109  10.170   7.444  0.6690  0.9032  0.7290
24535SOL    HW175612   9.159  10.238   7.488  0.9225  0.1372  1.6385
24535SOL    HW275613   9.121  10.188   7.351 -0.2340  2.8132  0.9178
24536SOL     OW75614   0.688   7.704   9.961 -0.2862  0.6136  0.2877
24536SOL    HW175615   0.655   7.657   9.884  0.1557  1.5732 -0.4997
24536SOL    HW275616   0.623   7.772   9.977  0.1298  1.0543  0.1358
24537SOL     OW75617   1.738   4.695   6.875  0.4531  0.4255  0.0722
24537SOL    HW175618   1.681   4.730   6.807 -0.5848 -0.1285  0.6387
24537SOL    HW275619   1.792   4.770   6.901 -0.3089  1.0801 -0.1782
24538SOL     OW75620   3.637   2.219   5.009 -0.9957  0.2698  0.1293
24538SOL    HW175621   3.710   2.273   4.981 -1.6436  0.8813 -0.4158
24538SOL    HW275622   3.588   2.274   5.070 -2.4041  0.8498 -1.4434
24539SOL     OW75623   5.660   2.257   3.161 -0.5113  0.5377 -0.7998
24539SOL    HW175624   5.634   2.184   3.105 -1.3820  0.5403 -0.4277
24539SOL    HW275625   5.688   2.325   3.101 -0.4843  0.1881 -1.1866
24540SOL     OW75626   9.912   7.165   1.005  0.2338 -0.1752 -0.0356
24540SOL    HW175627   9.917   7.071   0.986  0.5392 -0.3143  0.6712
24540SOL    HW275628   9.903   7.207   0.920  2.3795 -0.7029 -0.5962
24541SOL     OW75629   2.875   6.288   4.953 -0.7096  0.6250 -0.0579
24541SOL    HW175630   2.931   6.260   5.026 -0.9002  0.7842  0.1500
24541SOL    HW275631   2.899   6.379   4.939 -0.7914  0.6419 -0.0858
24542SOL     OW75632   7.019  10.716   0.874 -0.1243  0.4036 -0.5978
24542SOL    HW175633   6.978  10.784   0.928  1.7933  0.8877  0.3634
24542SOL    HW275634   6.983  10.634   0.907  2.3212  0.5088  2.8838
24543SOL     OW75635   1.047   2.232   8.017  0.1618  0.3302 -0.2475
24543SOL    HW175636   0.970   2.287   8.000  0.8439  1.3664 -0.0979
24543SOL    HW275637   1.036   2.202   8.107  0.2984  1.1101  0.0374
24544SOL     OW75638   2.207   4.839   8.576  0.0752  0.1635  0.2797
24544SOL    HW175639   2.134   4.846   8.514 -0.8485 -1.4065  1.1057
24544SOL    HW275640   2.165   4.811   8.658  1.7069 -1.9575  0.4742
24545SOL     OW75641   2.050   1.797   6.517 -0.3095  0.4234 -0.5745
24545SOL    HW175642   2.045   1.704   6.495 -0.8660  0.5236 -0.8875
24545SOL    HW275643   2.053   1.841   6.432  1.9704  0.6062 -0.4681
24546SOL     OW75644   5.223   8.861   6.663  0.0028 -0.8473 -0.2914
24546SOL    HW175645   5.278   8.924   6.710  0.3463 -0.3316 -1.3445
24546SOL    HW275646   5.150   8.843   6.722  1.1246 -1.2857  0.9983
24547SOL     OW75647   7.152   7.420   3.922 -0.3273 -0.4469 -0.2687
24547SOL    HW175648   7.084   7.485   3.939  0.2677  0.1461 -0.1270
24547SOL    HW275649   7.219   7.438   3.988  0.4772 -0.3109 -1.1055
24548SOL     OW75650   6.477   2.154   0.605 -0.2348  0.1460 -0.1350
24548SOL    HW175651   6.524   2.084   0.650  0.3414 -1.0846 -2.4574
24548SOL    HW275652   6.540   2.191   0.543 -1.3491  0.7333 -0.9769
24549SOL     OW75653   5.307   9.211   4.567 -0.0993  0.2788 -0.0978
24549SOL    HW175654   5.260   9.281   4.611  0.2677  0.3588  0.1724
24549SOL    HW275655   5.359   9.169   4.636 -0.4625 -0.3824 -0.2189
24550SOL     OW75656   3.804   2.563   5.809  0.2152  0.0890 -0.9223
24550SOL    HW175657   3.871   2.606   5.862 -0.3226  0.4073 -0.4826
24550SOL    HW275658   3.774   2.631   5.749  1.0571 -0.3627 -1.8888
24551SOL     OW75659   3.671   5.832  11.055  0.7933 -0.2248 -0.3240
24551SOL    HW175660   3.727   5.819  11.131  1.0023 -0.3728 -0.5034
24551SOL    HW275661   3.731   5.854  10.984  0.5421  0.6295 -0.2836
24552SOL     OW75662   8.591   5.234   2.779  0.5503  0.7788  0.0494
24552SOL    HW175663   8.540   5.229   2.860 -0.4008  0.7717 -0.5496
24552SOL    HW275664   8.557   5.164   2.724  0.3777  1.5367 -0.8323
24553SOL     OW75665   9.196   2.953   0.526 -0.3397  0.2482 -0.3958
24553SOL    HW175666   9.172   2.861   0.515  0.9717 -0.0216 -1.1972
24553SOL    HW275667   9.281   2.961   0.483  1.2904  1.0533  2.7177
24554SOL     OW75668   0.335   7.535   0.553  0.2298 -0.1082 -0.2882
24554SOL    HW175669   0.242   7.513   0.549  0.2384 -0.3364  0.6283
24554SOL    HW275670   0.379   7.456   0.521  0.1242 -0.0862 -0.4928
24555SOL     OW75671   4.213   9.865   3.943 -0.1347 -0.4007 -0.1755
24555SOL    HW175672   4.149   9.853   4.013 -0.9517  0.0985 -0.8237
24555SOL    HW275673   4.219   9.779   3.902 -0.0286 -0.5679  0.1798
24556SOL     OW75674   4.610   2.402  10.258  0.6361 -0.1013 -0.2023
24556SOL    HW175675   4.681   2.380  10.198  0.4589  0.6185 -0.6924
24556SOL    HW275676   4.546   2.447  10.204  0.1348 -0.0960  0.3817
24557SOL     OW75677   0.426   5.683   8.657  0.7050  0.1927  0.1159
24557SOL    HW175678   0.507   5.636   8.634  0.3440  0.2688 -1.4591
24557SOL    HW275679   0.356   5.623   8.630  0.2479  1.0134 -0.5839
24558SOL     OW75680   8.379   4.198   0.220 -0.3437  0.2048 -0.1666
24558SOL    HW175681   8.463   4.225   0.258 -0.5472  2.4922 -1.1685
24558SOL    HW275682   8.326   4.173   0.296  0.9444 -0.4384  0.5595
24559SOL     OW75683   5.641  10.404   3.396 -0.2183 -0.2723  0.2252
24559SOL    HW175684   5.601  10.491   3.400  1.0575  0.3182  0.5708
24559SOL    HW275685   5.675  10.390   3.484  1.0474 -0.3984 -0.2663
24560SOL     OW75686   6.161   5.723   4.509  0.3237  0.4456  0.0011
24560SOL    HW175687   6.223   5.796   4.504  0.3385  0.4457  0.1667
24560SOL    HW275688   6.141   5.702   4.418  2.4564 -1.1654 -0.1711
24561SOL     OW75689   8.958  10.671   7.693 -0.1861 -0.0849  0.0824
24561SOL    HW175690   8.897  10.733   7.733 -0.5302  0.8230 -1.7110
24561SOL    HW275691   8.929  10.666   7.601  2.7755  0.8895 -1.0236
24562SOL     OW75692   6.213   1.900   4.424 -0.2396 -0.2821  0.2398
24562SOL    HW175693   6.193   1.838   4.354  1.0752 -2.7429  1.8822
24562SOL    HW275694   6.127   1.928   4.457 -0.8559 -0.7953 -0.8810
24563SOL     OW75695   3.408   1.076   1.405 -0.0536 -0.5799  0.3801
24563SOL    HW175696   3.326   1.126   1.408  0.4321  0.4111 -1.4087
24563SOL    HW275697   3.400   1.022   1.327 -0.3966 -3.1448  2.0683
24564SOL     OW75698  10.848   8.377   1.372 -0.6457 -0.1850  0.0611
24564SOL    HW175699  10.894   8.370   1.456 -1.2166  0.1322  0.4053
24564SOL    HW275700  10.792   8.454   1.382 -1.0361 -0.4013 -0.4568
24565SOL     OW75701   4.944   8.057   9.571 -0.1885  0.4833  0.0220
24565SOL    HW175702   4.933   7.991   9.502  1.2077 -0.2636  0.4787
24565SOL    HW275703   4.912   8.014   9.650  0.3842  0.4889  0.2574
24566SOL     OW75704   5.115   5.916   3.941 -0.4073 -0.0746 -0.2692
24566SOL    HW175705   5.064   5.958   4.010  0.0485 -0.3510  0.2401
24566SOL    HW275706   5.137   5.830   3.976  0.6149  0.1268 -0.3833
24567SOL     OW75707   2.550   0.606   3.123 -0.5557  0.1155  0.3772
24567SOL    HW175708   2.517   0.562   3.044  1.9544 -1.1434 -0.0943
24567SOL    HW275709   2.634   0.645   3.095  0.1517  0.0715  2.2921
24568SOL     OW75710   9.570   2.801   0.242 -0.3277  0.6694 -0.5000
24568SOL    HW175711   9.656   2.783   0.204  0.5812  2.0133  0.7930
24568SOL    HW275712   9.510   2.799   0.168  0.9037  0.3041 -1.5298
24569SOL     OW75713   9.338   9.224   8.946  0.2036 -0.0582  0.1552
24569SOL    HW175714   9.419   9.270   8.927 -0.4513  0.7826 -0.6999
24569SOL    HW275715   9.297   9.210   8.861 -1.8711  2.0650  0.6945
24570SOL     OW75716   7.717   3.348   4.041 -0.6639 -0.2810  0.6497
24570SOL    HW175717   7.659   3.417   4.073  0.1771  0.7285  0.0710
24570SOL    HW275718   7.805   3.383   4.055 -0.2074 -1.4337  0.7411
24571SOL     OW75719   1.399   5.811   2.978 -0.2246 -0.0749  0.0882
24571SOL    HW175720   1.359   5.730   3.011  0.9229 -0.9056 -0.5183
24571SOL    HW275721   1.444   5.847   3.054 -0.4290 -0.2042  0.2727
24572SOL     OW75722   5.227  10.177   5.829 -0.0081 -0.2634  0.6350
24572SOL    HW175723   5.167  10.210   5.896 -0.5650  0.1234 -0.0404
24572SOL    HW275724   5.187  10.203   5.746  1.8331  1.2807  0.1784
24573SOL     OW75725   3.982   3.250   4.386  0.2496 -0.4911 -0.1601
24573SOL    HW175726   3.906   3.210   4.343  0.0837 -0.9163  0.5216
24573SOL    HW275727   3.966   3.345   4.379  0.9630 -0.4715 -2.3653
24574SOL     OW75728   6.869   2.455   5.752 -0.0034 -0.1262  0.3871
24574SOL    HW175729   6.913   2.502   5.681 -0.6512 -0.3278 -0.1623
24574SOL    HW275730   6.776   2.462   5.731 -0.1294 -1.3744  0.4787
24575SOL     OW75731   2.472   2.599   0.171 -0.2748 -0.2829 -0.1742
24575SOL    HW175732   2.427   2.521   0.202 -1.0269 -0.3951 -1.4396
24575SOL    HW275733   2.532   2.567   0.104  0.5785  0.0547  0.4167
24576SOL     OW75734   2.168   1.614   4.450 -0.4563  0.1995 -0.0519
24576SOL    HW175735   2.209   1.630   4.535 -0.2094  1.5878 -0.4042
24576SOL    HW275736   2.242   1.603   4.389 -0.6116  0.7557 -0.3479
24577SOL     OW75737   6.216  10.159   9.924 -0.8270  0.0163  0.3786
24577SOL    HW175738   6.311  10.171   9.919 -0.5776 -2.0200 -1.1214
24577SOL    HW275739   6.192  10.193  10.010  1.1435  1.2012  0.5305
24578SOL     OW75740   0.401   4.989   6.252  0.1460  0.3251  0.4198
24578SOL    HW175741   0.379   5.031   6.169  0.3697  0.1692  0.2793
24578SOL    HW275742   0.492   5.015   6.268  0.2455 -0.0048  0.3920
24579SOL     OW75743  10.202   3.555   1.184 -0.9645 -0.0770  0.1436
24579SOL    HW175744  10.202   3.561   1.088  3.2440  1.7336  0.0635
24579SOL    HW275745  10.145   3.627   1.212 -1.8441 -0.3155 -0.9637
24580SOL     OW75746   3.724   7.568   4.131 -0.3272  0.1630 -0.3748
24580SOL    HW175747   3.766   7.618   4.201 -0.3445 -1.4827  0.8759
24580SOL    HW275748   3.707   7.482   4.170 -1.3886 -0.4400 -2.0552
24581SOL     OW75749   8.670   9.280   4.419 -0.1800  0.2669  0.3821
24581SOL    HW175750   8.692   9.207   4.362 -0.3088 -0.6379  1.4533
24581SOL    HW275751   8.627   9.343   4.362 -1.9240 -1.3695 -0.2146
24582SOL     OW75752   4.405   3.767   2.292  0.1466 -0.3852  0.0422
24582SOL    HW175753   4.390   3.846   2.344 -2.2508 -0.6543 -0.1519
24582SOL    HW275754   4.495   3.743   2.312 -0.6099 -0.5071  4.1371
24583SOL     OW75755   6.647   6.855   1.353  0.5532 -0.1318 -0.4546
24583SOL    HW175756   6.706   6.782   1.337  0.0306 -0.4528 -0.9615
24583SOL    HW275757   6.571   6.837   1.298 -0.1065  0.1679  0.3347
24584SOL     OW75758   8.814  11.026   5.548 -0.2668 -0.0680 -0.7513
24584SOL    HW175759   8.748  10.975   5.594  0.0057 -0.1341 -0.4267
24584SOL    HW275760   8.819  11.109   5.596 -0.7890  0.3179 -1.3419
24585SOL     OW75761   2.445  10.023   8.508  0.0659 -0.6009  0.2102
24585SOL    HW175762   2.445  10.002   8.414  0.2432 -0.3797  0.1599
24585SOL    HW275763   2.365   9.982   8.542 -1.3461  1.3630 -0.5056
24586SOL     OW75764   1.837   9.037   4.511 -0.0100 -0.1811 -0.8552
24586SOL    HW175765   1.887   9.118   4.502 -0.3556  0.0984 -0.3059
24586SOL    HW275766   1.888   8.972   4.462 -0.0648  0.5069 -1.8557
24587SOL     OW75767   6.921   3.074   1.810 -0.7245  0.1220  0.0028
24587SOL    HW175768   6.974   2.996   1.794  0.3846  0.8791 -0.0981
24587SOL    HW275769   6.833   3.049   1.782 -0.1462 -0.7167 -1.1491
24588SOL     OW75770   5.747   7.898   1.296 -0.0355  0.5720 -0.2699
24588SOL    HW175771   5.681   7.877   1.230  1.2408  0.0853 -1.4333
24588SOL    HW275772   5.722   7.845   1.372 -1.2484  0.7757 -0.4997
24589SOL     OW75773   2.919   1.280   3.308  0.2189 -0.1351  0.3084
24589SOL    HW175774   3.003   1.302   3.267  0.1470  0.2536  0.3668
24589SOL    HW275775   2.860   1.349   3.279 -0.0344 -0.3055  0.4212
24590SOL     OW75776   2.349   6.961   0.147  0.0479  0.0535  0.3735
24590SOL    HW175777   2.439   6.989   0.160  0.6044 -1.4793  0.0677
24590SOL    HW275778   2.348   6.923   0.060 -1.3711  1.6993 -0.3947
24591SOL     OW75779   6.612   0.890   3.397 -0.4614 -0.2921  0.1211
24591SOL    HW175780   6.704   0.893   3.421 -0.5313  1.6675  0.3368
24591SOL    HW275781   6.607   0.824   3.328  0.9599 -0.9818  0.6547
24592SOL     OW75782   6.566   3.754   6.056  0.1248 -0.2715 -0.3892
24592SOL    HW175783   6.536   3.667   6.082 -1.8563  0.7468  0.9821
24592SOL    HW275784   6.524   3.814   6.118  2.6352  1.5800 -0.3097
24593SOL     OW75785   2.411   4.938   4.607 -0.4336  0.2734  0.7398
24593SOL    HW175786   2.495   4.983   4.605 -0.5564  0.5457  1.4775
24593SOL    HW275787   2.381   4.940   4.516  0.9333 -0.9724  0.2192
24594SOL     OW75788   5.179   0.828   2.373  0.1200  0.0695 -0.2480
24594SOL    HW175789   5.116   0.783   2.316  1.1436  0.8967 -2.1619
24594SOL    HW275790   5.146   0.816   2.461 -1.3378 -1.6718 -0.9764
24595SOL     OW75791   6.287   7.855   7.737 -0.3612 -0.3339  0.1471
24595SOL    HW175792   6.369   7.904   7.743  0.2282 -1.4422  1.5534
24595SOL    HW275793   6.309   7.767   7.767 -2.2794 -0.3920  1.5638
24596SOL     OW75794   6.196   0.239   2.655  0.1618  0.3616  0.0395
24596SOL    HW175795   6.111   0.255   2.696  0.4845  0.9562  0.4947
24596SOL    HW275796   6.223   0.324   2.621  1.3713  0.5916  1.4467
24597SOL     OW75797   0.929   1.512   2.161  0.2956  0.0079  0.0732
24597SOL    HW175798   0.864   1.456   2.204 -0.9451  0.5045 -1.0721
24597SOL    HW275799   0.943   1.471   2.076 -0.2437  1.1222 -0.5775
24598SOL     OW75800   8.912   7.220   2.557  0.3735 -0.5669 -0.1922
24598SOL    HW175801   8.915   7.125   2.543 -0.5665 -0.5157 -0.8111
24598SOL    HW275802   8.973   7.255   2.493  2.5746 -0.8758  1.6148
24599SOL     OW75803   1.265   0.453   7.819 -0.0818  0.5989  0.0385
24599SOL    HW175804   1.246   0.472   7.911 -0.2864  1.4678 -0.1700
24599SOL    HW275805   1.182   0.471   7.774 -0.2316 -0.6402 -0.2189
24600SOL     OW75806   2.957   4.223   9.120 -0.2165  0.1047  0.0703
24600SOL    HW175807   2.996   4.309   9.107 -1.2071  0.5516 -0.0950
24600SOL    HW275808   3.028   4.161   9.104  0.3642  0.8702 -0.3909
24601SOL     OW75809  10.222   2.194   1.673 -0.3735 -0.3031  0.2526
24601SOL    HW175810  10.257   2.109   1.646  1.1301  0.4284 -0.2142
24601SOL    HW275811  10.299   2.251   1.679 -0.5893 -0.0546  4.9672
24602SOL     OW75812   2.476   6.478   2.116 -0.1146  0.4710 -0.0923
24602SOL    HW175813   2.471   6.475   2.020  0.4760  1.0087 -0.1431
24602SOL    HW275814   2.532   6.405   2.139  2.6943  2.3735 -0.4155
24603SOL     OW75815   5.577   8.647   4.288  0.3585  0.0608  0.2371
24603SOL    HW175816   5.484   8.634   4.308  0.0543  0.9861 -0.5277
24603SOL    HW275817   5.623   8.617   4.366 -0.5274 -1.2618  0.2877
24604SOL     OW75818   3.754   5.400  10.331  0.2652  0.1461 -0.0384
24604SOL    HW175819   3.732   5.490  10.353  1.4228  0.3005  0.5689
24604SOL    HW275820   3.847   5.402  10.309  0.6288 -1.0917  1.1850
24605SOL     OW75821   3.452   9.312   2.788  0.0535  0.0716  0.0347
24605SOL    HW175822   3.509   9.244   2.826  0.2072 -0.0168 -0.3544
24605SOL    HW275823   3.366   9.295   2.827  0.2803  0.1808  0.5967
24606SOL     OW75824   6.493   4.119   8.904  0.0887  0.5161  0.2704
24606SOL    HW175825   6.507   4.165   8.986 -0.2767  0.3740  0.4136
24606SOL    HW275826   6.419   4.164   8.863 -1.1402 -0.7170  1.0097
24607SOL     OW75827   3.536   2.380   1.807  0.7346  0.1586  0.1245
24607SOL    HW175828   3.449   2.361   1.771 -0.0498 -1.0667  2.4149
24607SOL    HW275829   3.562   2.462   1.766 -0.7919 -0.2562 -1.8226
24608SOL     OW75830   9.909   0.897   4.926 -0.4365  0.0968  0.2073
24608SOL    HW175831   9.897   0.803   4.909  2.0314 -0.1759 -0.3292
24608SOL    HW275832   9.841   0.918   4.990 -0.9285 -2.0822  0.4957
24609SOL     OW75833   9.554   8.708   3.349 -0.3663 -0.0156  0.8555
24609SOL    HW175834   9.494   8.704   3.275 -0.3955 -0.1253  0.8846
24609SOL    HW275835   9.637   8.736   3.311  0.3061 -2.4584  0.3408
24610SOL     OW75836   3.456   0.595   0.569 -0.0174  0.1002  0.6102
24610SOL    HW175837   3.507   0.574   0.648  0.2355  1.1826  0.7472
24610SOL    HW275838   3.490   0.535   0.503  1.5915  0.8936  0.6537
24611SOL     OW75839   7.222   0.633   2.105  0.5944 -0.1160 -0.0171
24611SOL    HW175840   7.240   0.715   2.150  1.3882  0.5583 -1.5031
24611SOL    HW275841   7.224   0.567   2.174  0.7227  1.0077  1.0807
24612SOL     OW75842   4.814   2.072   9.470  0.2728  0.2564  0.7359
24612SOL    HW175843   4.720   2.088   9.483  0.3407  0.8350  0.5360
24612SOL    HW275844   4.827   1.982   9.500 -0.7375 -0.5538 -1.0304
24613SOL     OW75845   6.750   0.736   4.176 -0.1345  0.3337  0.5067
24613SOL    HW175846   6.736   0.739   4.081  1.7812  0.6629  0.1802
24613SOL    HW275847   6.682   0.793   4.212 -3.4069 -2.7578 -0.2384
24614SOL     OW75848   0.981   2.101   9.537  0.2833  0.2348  0.3046
24614SOL    HW175849   0.946   2.012   9.541  0.6729  0.0620 -0.0287
24614SOL    HW275850   0.915   2.154   9.581  1.0359 -0.5157  2.4218
24615SOL     OW75851   1.332   3.520   3.790 -0.4304  0.1430 -0.3620
24615SOL    HW175852   1.394   3.482   3.852 -0.2685 -0.9218 -1.1408
24615SOL    HW275853   1.266   3.452   3.778 -1.9830  1.4065  0.7337
24616SOL     OW75854   4.912   2.197   5.914  0.6756 -0.4475  0.2141
24616SOL    HW175855   4.825   2.235   5.915  1.1088  0.6083 -0.6570
24616SOL    HW275856   4.899   2.107   5.944 -0.6305 -0.1681  0.5443
24617SOL     OW75857   0.123  11.051  10.588  0.2964  0.5734  0.3470
24617SOL    HW175858   0.184  11.117  10.554  0.5792 -0.2113 -0.7130
24617SOL    HW275859   0.179  10.981  10.620 -0.0103 -0.5330 -1.4006
24618SOL     OW75860   3.801   5.184   5.323 -0.5121 -0.5448 -0.0187
24618SOL    HW175861   3.865   5.249   5.293 -0.8824  0.9955  2.3382
24618SOL    HW275862   3.724   5.200   5.269 -0.1788  0.1053 -0.3174
24619SOL     OW75863   9.423   7.582   3.470 -0.1300  0.5253  0.3528
24619SOL    HW175864   9.449   7.621   3.386  0.0635  0.3198  0.3163
24619SOL    HW275865   9.441   7.650   3.534  1.6980 -0.0479  0.4875
24620SOL     OW75866   6.605   5.284   3.889  0.6101  0.1125  0.0937
24620SOL    HW175867   6.530   5.295   3.830  0.5126  1.0434  0.3688
24620SOL    HW275868   6.582   5.209   3.943  0.2877 -0.1765 -0.4322
24621SOL     OW75869   0.930   1.609  10.541 -0.1569  0.0387 -0.3289
24621SOL    HW175870   1.020   1.635  10.563 -0.3297  1.8258 -1.5379
24621SOL    HW275871   0.940   1.547  10.468  0.0829  0.6557 -0.8260
24622SOL     OW75872   9.945   5.836   5.978  0.1208 -0.3393  0.2022
24622SOL    HW175873  10.033   5.859   5.949  0.1062 -0.5468 -0.0146
24622SOL    HW275874   9.904   5.920   6.000  0.2849 -0.2181  0.0458
24623SOL     OW75875   1.035   9.969   9.765  0.1584 -0.3067 -0.3471
24623SOL    HW175876   1.048  10.011   9.680  1.4359 -1.2021 -0.6275
24623SOL    HW275877   0.995   9.885   9.745  1.5045 -1.0070 -0.1947
24624SOL     OW75878   0.065   0.869   2.528 -0.0897  0.1824 -0.3111
24624SOL    HW175879   0.049   0.939   2.591 -1.6504  0.6108 -1.1371
24624SOL    HW275880   0.015   0.795   2.561  0.1081  0.0079 -0.3969
24625SOL     OW75881   9.989   2.363   4.609  0.1220 -0.4675  0.3251
24625SOL    HW175882   9.958   2.445   4.646 -0.7826 -0.1960 -0.9722
24625SOL    HW275883  10.082   2.379   4.590 -0.0779  0.3153 -0.0468
24626SOL     OW75884   6.145  10.887   1.955  0.1800  0.5466 -0.0823
24626SOL    HW175885   6.224  10.923   1.915  0.6477  0.7764  1.0029
24626SOL    HW275886   6.078  10.894   1.887  0.4390  2.7267 -0.1741
24627SOL     OW75887   8.757   1.934   4.416  0.3527  0.9616  0.2121
24627SOL    HW175888   8.823   1.872   4.448 -0.1194  0.0771 -0.4695
24627SOL    HW275889   8.793   1.968   4.335 -0.0976  0.3192 -0.2707
24628SOL     OW75890   6.538   3.364   8.269 -0.2340  0.3288 -0.6632
24628SOL    HW175891   6.587   3.443   8.290  0.6141 -0.4970  0.5378
24628SOL    HW275892   6.591   3.319   8.203 -0.5775  0.5981 -1.1352
24629SOL     OW75893   8.135   5.592   5.595  0.3536  0.6745  0.0714
24629SOL    HW175894   8.210   5.533   5.586 -0.3447 -0.3493  0.7294
24629SOL    HW275895   8.124   5.602   5.689 -0.1294  1.1032 -0.0278
24630SOL     OW75896   5.038   1.121   2.558 -0.3496  0.0577  0.1434
24630SOL    HW175897   4.973   1.114   2.488 -0.8170 -0.7681  0.6335
24630SOL    HW275898   5.051   1.030   2.587  1.7822  0.0625 -0.6087
24631SOL     OW75899   6.458   8.257   2.683  0.4105  0.8537  0.0717
24631SOL    HW175900   6.435   8.256   2.590 -1.9337  0.4039  0.5828
24631SOL    HW275901   6.458   8.350   2.707  0.1246  0.9225 -0.1874
24632SOL     OW75902   5.647   2.884  10.879  0.3177 -0.1915 -0.3525
24632SOL    HW175903   5.705   2.842  10.942  1.1759  1.1200 -0.2203
24632SOL    HW275904   5.562   2.888  10.924  0.8607  0.5232  0.6479
24633SOL     OW75905   5.035   4.172  11.058  0.2575 -0.1956 -0.2081
24633SOL    HW175906   5.110   4.231  11.050 -0.6177  1.1212  0.7955
24633SOL    HW275907   4.962   4.230  11.080 -0.5072 -1.7213  1.4655
24634SOL     OW75908   4.213   2.852   2.511  0.0310  0.4754 -0.4113
24634SOL    HW175909   4.138   2.824   2.564 -0.1920 -0.4171 -1.1587
24634SOL    HW275910   4.289   2.839   2.567 -0.1021 -1.3727 -0.5936
24635SOL     OW75911   1.037   2.359   1.674  0.7377  0.2084  0.0316
24635SOL    HW175912   0.955   2.324   1.638  0.7288  1.0376 -0.7999
24635SOL    HW275913   1.088   2.382   1.597  0.8912  1.6689  0.5466
24636SOL     OW75914   9.842   3.049   0.200 -0.5370  0.5154 -0.0076
24636SOL    HW175915   9.837   2.956   0.178 -1.0471  0.5005  0.1583
24636SOL    HW275916   9.836   3.051   0.296 -0.8348  0.7371 -0.0308
24637SOL     OW75917   6.250  10.233   0.258 -0.0224  0.6079  0.3190
24637SOL    HW175918   6.190  10.199   0.192  1.7601  0.1907 -1.1704
24637SOL    HW275919   6.292  10.155   0.295 -0.1305  0.9061  1.0805
24638SOL     OW75920   6.445   0.700   3.875 -0.0886 -0.1362  0.3079
24638SOL    HW175921   6.505   0.648   3.927 -0.2295  0.3408  0.9514
24638SOL    HW275922   6.501   0.752   3.817  0.2637  1.6914  2.1610
24639SOL     OW75923   7.549   0.951   5.612  0.0150 -0.3211 -0.2851
24639SOL    HW175924   7.507   0.974   5.695 -0.0479 -0.9248 -0.1443
24639SOL    HW275925   7.604   0.876   5.634  0.1772 -0.3361 -0.7435
24640SOL     OW75926   6.812   9.569   2.637 -0.6909 -0.1536 -0.1276
24640SOL    HW175927   6.737   9.521   2.601 -0.9316  0.2127 -0.1112
24640SOL    HW275928   6.887   9.539   2.584 -1.1983  1.1578 -1.6380
24641SOL     OW75929   2.851   5.422   9.797  0.0472  0.0775  0.0563
24641SOL    HW175930   2.808   5.480   9.734 -1.2949 -0.3412  0.5602
24641SOL    HW275931   2.795   5.425   9.874 -1.0778 -3.2108 -0.4612
24642SOL     OW75932   7.304   2.121   1.761  0.5615  0.4219  0.5188
24642SOL    HW175933   7.328   2.039   1.803 -0.3613 -0.0890  0.0834
24642SOL    HW275934   7.343   2.189   1.816  3.1277 -0.3178 -0.2439
24643SOL     OW75935   1.803   1.110   1.674 -0.4606 -0.6325  0.3581
24643SOL    HW175936   1.712   1.138   1.671 -0.7988 -1.5732  1.3145
24643SOL    HW275937   1.799   1.015   1.684  0.6407 -0.8102 -0.5870
24644SOL     OW75938   7.400  10.868   5.930  0.3471 -0.1511 -0.2297
24644SOL    HW175939   7.434  10.780   5.915  0.5206 -0.1705  0.2545
24644SOL    HW275940   7.306  10.855   5.947 -0.2302  0.0281 -2.8741
24645SOL     OW75941   6.496   3.388   3.244  0.2359  0.1080 -0.4603
24645SOL    HW175942   6.509   3.295   3.224  1.6311  0.1475  0.1492
24645SOL    HW275943   6.532   3.400   3.332 -2.2120  0.7439  0.5580
24646SOL     OW75944   9.111   8.443   6.329 -0.4304 -0.0779 -0.6655
24646SOL    HW175945   9.080   8.507   6.393 -2.3043  0.3004 -1.8892
24646SOL    HW275946   9.166   8.493   6.270 -1.8264  0.4443 -1.5728
24647SOL     OW75947   7.077   5.864   1.468 -0.3315 -0.7083  0.2871
24647SOL    HW175948   7.038   5.856   1.380  2.5514  0.8289 -1.3011
24647SOL    HW275949   7.099   5.774   1.492  1.7913 -0.9856 -2.1681
24648SOL     OW75950   5.662   0.468   1.873 -0.0246 -0.1663  0.2665
24648SOL    HW175951   5.715   0.438   1.799 -2.1770 -1.5442 -0.8068
24648SOL    HW275952   5.647   0.561   1.855 -0.5354 -0.4819 -1.0879
24649SOL     OW75953   6.954   2.610   5.533  0.0150  0.1182  0.5479
24649SOL    HW175954   6.964   2.562   5.451 -1.6397  0.5982  0.0285
24649SOL    HW275955   6.890   2.679   5.512  0.2795  0.8292  1.9955
24650SOL     OW75956   0.960  10.249   7.318 -0.2679  0.1585 -0.5413
24650SOL    HW175957   0.944  10.216   7.406 -0.6397  0.8891 -0.3302
24650SOL    HW275958   0.873  10.267   7.282 -0.0960  0.3475 -0.8724
24651SOL     OW75959   9.369   4.066   5.208  0.6005  0.2064  0.2956
24651SOL    HW175960   9.294   4.009   5.194  1.0552 -0.0841 -1.1096
24651SOL    HW275961   9.417   4.025   5.281 -0.2623  0.0668  0.8000
24652SOL     OW75962   4.940   4.585   6.530 -0.0528 -0.3032  0.1676
24652SOL    HW175963   4.883   4.559   6.602 -0.3285 -1.2182 -0.3686
24652SOL    HW275964   4.881   4.606   6.458  0.1482  1.8061  0.5267
24653SOL     OW75965   7.873  10.734   4.910  0.4190 -0.3281  0.3063
24653SOL    HW175966   7.788  10.778   4.914  0.1435 -0.8814  0.6653
24653SOL    HW275967   7.937  10.803   4.931 -0.0112 -0.1286  0.9862
24654SOL     OW75968   2.448   0.301   3.019  0.6050  0.2104  0.3630
24654SOL    HW175969   2.446   0.286   3.114 -0.3784 -2.0593  0.0642
24654SOL    HW275970   2.357   0.291   2.992  1.1517 -1.3003 -1.0641
24655SOL     OW75971   8.118   6.922   9.201 -0.3145  0.5920  0.5131
24655SOL    HW175972   8.046   6.909   9.139  0.5664  0.8495 -0.5918
24655SOL    HW275973   8.079   6.905   9.286 -1.4840 -0.0727 -0.1276
24656SOL     OW75974   1.109   5.224   0.909  0.3027 -0.3854 -0.2649
24656SOL    HW175975   1.134   5.312   0.936  0.5975 -1.0474  1.8301
24656SOL    HW275976   1.018   5.232   0.880  0.4087  0.6382 -0.3482
24657SOL     OW75977   6.895   2.609  10.915  0.0013 -0.0133 -0.1872
24657SOL    HW175978   6.923   2.682  10.970  0.3381 -1.2643  1.3656
24657SOL    HW275979   6.949   2.616  10.836  0.4216  1.0865  0.1832
24658SOL     OW75980   7.127  10.732   4.843 -1.0773 -0.2895 -0.5214
24658SOL    HW175981   7.061  10.750   4.776 -3.8571 -1.3405  1.6846
24658SOL    HW275982   7.095  10.653   4.887  1.4535 -0.5716  1.0141
24659SOL     OW75983  10.576   8.042   2.038  0.2499  0.1893 -0.2264
24659SOL    HW175984  10.544   8.130   2.057  1.1687  0.7648 -1.2519
24659SOL    HW275985  10.657   8.034   2.088  0.2676 -0.0118 -0.2861
24660SOL     OW75986  10.279   4.820   4.971 -0.4522 -0.4556  0.1033
24660SOL    HW175987  10.371   4.794   4.965  0.1073  0.0918  3.8025
24660SOL    HW275988  10.233   4.738   4.989 -0.5576 -0.5967 -0.7959
24661SOL     OW75989   4.545   2.724   1.877  0.4552 -0.3635 -0.0232
24661SOL    HW175990   4.545   2.646   1.822 -1.4382 -0.4180 -0.0157
24661SOL    HW275991   4.459   2.764   1.862  0.9405  1.0857  0.8504
24662SOL     OW75992   5.146   5.027   0.365  0.0727  0.0104 -0.1044
24662SOL    HW175993   5.213   5.095   0.376  0.7974 -0.6712 -0.2097
24662SOL    HW275994   5.157   4.970   0.440  1.7785 -1.9012 -1.6903
24663SOL     OW75995   3.511   6.718   0.193 -0.2277  0.0976  0.0106
24663SOL    HW175996   3.478   6.698   0.105  0.8357 -2.0777  0.0475
24663SOL    HW275997   3.501   6.813   0.201  1.4421  0.6782 -3.2244
24664SOL     OW75998   7.735   2.658   8.697 -0.3179 -0.1551 -0.4288
24664SOL    HW175999   7.675   2.589   8.667 -0.4789 -0.3856  0.4000
24664SOL    HW276000   7.679   2.734   8.710 -0.5660 -0.5730  1.0397
24665SOL     OW76001   8.393   8.659   9.528  0.0121  0.1965  0.0715
24665SOL    HW176002   8.316   8.712   9.509 -1.4129 -2.1870 -1.3159
24665SOL    HW276003   8.420   8.624   9.443  0.7198 -1.4633  0.9320
24666SOL     OW76004   9.667   0.069   7.071 -0.2865  0.2027 -0.6863
24666SOL    HW176005   9.615   0.138   7.030 -1.9662 -0.7137 -0.1874
24666SOL    HW276006   9.622   0.051   7.154  1.4107  0.0424  0.2568
24667SOL     OW76007   7.140   9.796   4.144 -0.4023  0.1860  0.2965
24667SOL    HW176008   7.118   9.865   4.081 -0.7682  0.9130  1.1985
24667SOL    HW276009   7.104   9.716   4.105  0.4158  0.4079 -0.9745
24668SOL     OW76010   2.999   7.171   4.901 -0.0591  0.3805 -0.4220
24668SOL    HW176011   3.067   7.155   4.966 -2.5285  0.3231  2.3490
24668SOL    HW276012   2.976   7.085   4.867  2.2468  0.5191 -2.6935
24669SOL     OW76013   7.908   5.245   1.432 -0.3106 -0.4318  0.0413
24669SOL    HW176014   7.995   5.276   1.456 -0.1757 -1.6021  1.1991
24669SOL    HW276015   7.917   5.211   1.343 -0.1338  1.4556 -0.7026
24670SOL     OW76016   0.829   9.324   9.848  0.1094  0.2793  0.4576
24670SOL    HW176017   0.756   9.361   9.800  0.6069 -0.3278 -0.8364
24670SOL    HW276018   0.826   9.365   9.934 -2.2272 -0.3345  0.7344
24671SOL     OW76019   7.274   6.034   7.533  0.1737 -0.3578  0.8021
24671SOL    HW176020   7.219   6.070   7.463  1.8699 -0.6623 -0.7456
24671SOL    HW276021   7.259   5.940   7.528  0.5091 -0.4037  0.6636
24672SOL     OW76022   2.373   4.699   1.479 -0.1821 -0.4517 -0.1878
24672SOL    HW176023   2.298   4.645   1.505  0.8220 -1.8590 -0.1479
24672SOL    HW276024   2.362   4.780   1.529 -2.4285 -0.0234 -1.2125
24673SOL     OW76025   5.561   2.847   1.835 -0.0253  0.1271  0.1205
24673SOL    HW176026   5.579   2.937   1.810  1.1057  0.3602  1.6491
24673SOL    HW276027   5.647   2.809   1.854 -0.2898 -1.8019 -2.0748
24674SOL     OW76028   3.097   7.573   5.508  0.1699 -0.2959 -0.6078
24674SOL    HW176029   3.158   7.645   5.522  1.7539 -1.8016  0.7626
24674SOL    HW276030   3.069   7.583   5.417 -1.2016  3.0933  0.0230
24675SOL     OW76031   9.788  10.095   7.279  0.1807 -0.2294  0.2962
24675SOL    HW176032   9.730  10.169   7.298  0.2211  0.2291 -1.2340
24675SOL    HW276033   9.873  10.121   7.316  0.0627  0.2536  0.2316
24676SOL     OW76034   7.873   5.062   7.722  0.5909  0.0796  0.1755
24676SOL    HW176035   7.826   5.116   7.785  3.2475  0.1979  2.2236
24676SOL    HW276036   7.898   4.984   7.770  1.1004 -0.7074 -1.2980
24677SOL     OW76037   5.644   2.638   4.576 -0.1637  0.2743  0.0874
24677SOL    HW176038   5.577   2.669   4.637 -0.3925  1.3956 -0.7045
24677SOL    HW276039   5.727   2.668   4.614 -0.0258 -1.5949  1.3580
24678SOL     OW76040   4.188   0.144  10.875 -0.2244 -0.3214  0.9106
24678SOL    HW176041   4.190   0.089  10.953  3.2159 -1.6131  0.0960
24678SOL    HW276042   4.257   0.208  10.889 -0.7484  0.5651 -0.3346
24679SOL     OW76043   6.481   5.344   2.237  0.1153 -0.5611 -0.3253
24679SOL    HW176044   6.447   5.360   2.325 -0.8138 -0.0390 -0.7675
24679SOL    HW276045   6.528   5.423   2.215  0.6297 -0.8222 -0.1767
24680SOL     OW76046   7.884   2.436   2.875 -0.1545 -0.1873  0.2148
24680SOL    HW176047   7.945   2.435   2.948 -0.0092  1.2093  0.1495
24680SOL    HW276048   7.857   2.345   2.864  0.4936 -0.5436  1.4312
24681SOL     OW76049   1.249   1.945   8.811  0.6166 -0.2536 -0.0478
24681SOL    HW176050   1.305   1.923   8.736  1.8576  0.0952  0.7506
24681SOL    HW276051   1.231   2.039   8.800 -3.1438 -1.0352 -2.4364
24682SOL     OW76052   3.909   6.594   7.846  0.0721  0.1900  0.0972
24682SOL    HW176053   3.985   6.592   7.905  2.5148  1.0414 -2.7569
24682SOL    HW276054   3.874   6.505   7.848  0.5398  0.0039  2.1608
24683SOL     OW76055   8.446   9.540   3.974  0.5930  0.6730 -0.7554
24683SOL    HW176056   8.380   9.524   4.041  1.2745  1.4006  0.1103
24683SOL    HW276057   8.463   9.634   3.979  2.0207  0.4201 -0.6485
24684SOL     OW76058   4.460   8.240   2.606 -0.1518 -0.5561  0.6591
24684SOL    HW176059   4.372   8.237   2.568  0.6582 -1.2242 -1.3098
24684SOL    HW276060   4.462   8.321   2.656 -0.9399  1.1390 -1.8211
24685SOL     OW76061   6.388   9.975   7.593 -0.1707 -0.2981 -0.1536
24685SOL    HW176062   6.390   9.897   7.537  0.2417 -0.2526 -0.2075
24685SOL    HW276063   6.308  10.021   7.568  0.8333  0.5842 -1.8985
24686SOL     OW76064   6.996   4.489   5.566  0.0272 -0.0080 -0.5110
24686SOL    HW176065   6.999   4.582   5.588  2.3000 -0.4667  1.5472
24686SOL    HW276066   6.958   4.447   5.642  1.0696 -0.9488 -0.4833
24687SOL     OW76067   8.312   7.404   8.526  0.7093  0.3914  0.4225
24687SOL    HW176068   8.284   7.473   8.586  1.0150  0.6985  0.2166
24687SOL    HW276069   8.240   7.340   8.527 -0.4413  1.5958 -0.8016
24688SOL     OW76070   6.274   1.407   0.019  0.2469 -0.6518  0.4620
24688SOL    HW176071   6.339   1.387  -0.048  1.2622  1.9912  0.5293
24688SOL    HW276072   6.324   1.446   0.091 -1.3387  1.6328  0.4396
24689SOL     OW76073   6.058   4.882   3.153 -0.2732 -0.6435  0.2223
24689SOL    HW176074   6.076   4.861   3.245 -0.6589  0.0608  0.4682
24689SOL    HW276075   5.983   4.827   3.130  0.1834 -1.2517  0.1421
24690SOL     OW76076   8.574  10.687   4.084 -0.5082 -0.2575  0.2462
24690SOL    HW176077   8.590  10.668   3.992 -1.2509  1.2023 -0.2226
24690SOL    HW276078   8.631  10.762   4.102 -1.0009  0.0093  0.7227
24691SOL     OW76079   3.694  10.151   5.488  0.6892 -0.4204 -0.3228
24691SOL    HW176080   3.688  10.060   5.457 -1.9548 -0.1335 -0.8966
24691SOL    HW276081   3.649  10.202   5.421  0.1840  1.0340  1.0618
24692SOL     OW76082   3.833   2.556   9.559 -0.8024 -0.1874  0.0545
24692SOL    HW176083   3.831   2.508   9.476 -2.2313  1.0458 -0.6596
24692SOL    HW276084   3.831   2.648   9.533 -1.7257  0.2151  1.4659
24693SOL     OW76085   9.174   4.718   3.542  0.6084  0.3283 -0.0068
24693SOL    HW176086   9.112   4.683   3.478  0.1936 -0.1305  0.6309
24693SOL    HW276087   9.226   4.781   3.493  1.8324 -1.6339 -1.3746
24694SOL     OW76088   0.481   7.831  10.138 -0.3800  0.2009 -0.1773
24694SOL    HW176089   0.518   7.776  10.207 -0.1876  0.8218  0.2120
24694SOL    HW276090   0.528   7.914  10.144 -0.7608  0.4629 -0.6803
24695SOL     OW76091   1.632  10.719   2.953 -0.5558  0.4656  0.3090
24695SOL    HW176092   1.589  10.708   3.038 -2.5647  1.8818 -0.4592
24695SOL    HW276093   1.570  10.684   2.889  0.2771  0.7844 -0.7058
24696SOL     OW76094   6.360   2.941  10.091  0.0834 -0.0681 -0.2048
24696SOL    HW176095   6.293   2.984  10.145 -0.1087 -0.5746 -0.0418
24696SOL    HW276096   6.326   2.853  10.076  0.5920 -0.2408 -0.3433
24697SOL     OW76097   5.965   8.431   2.598 -0.1241  0.4504 -0.6676
24697SOL    HW176098   6.040   8.475   2.639  0.0184 -1.6541  1.5610
24697SOL    HW276099   6.004   8.363   2.543 -0.3771 -0.0572 -0.2228
24698SOL     OW76100   5.959   2.706   2.127  0.3334 -0.5019  0.6028
24698SOL    HW176101   5.976   2.643   2.197  0.3351 -2.1498 -0.8282
24698SOL    HW276102   5.865   2.724   2.134  0.3249 -0.6860  1.0057
24699SOL     OW76103   7.633   1.521   0.732 -0.2775 -0.1698 -0.4101
24699SOL    HW176104   7.711   1.466   0.723 -0.7362 -1.3974  2.1499
24699SOL    HW276105   7.574   1.469   0.787 -1.3905  2.2172  0.8034
24700SOL     OW76106   4.156   2.173   0.334 -0.3401 -0.1488 -0.6011
24700SOL    HW176107   4.073   2.126   0.321 -1.2096  1.1580 -0.0228
24700SOL    HW276108   4.144   2.255   0.286 -0.3301  1.0954  1.4348
24701SOL     OW76109   3.432   6.977   1.978  0.6894 -0.1676  1.2128
24701SOL    HW176110   3.413   6.892   2.016 -0.1631 -0.3050  0.5225
24701SOL    HW276111   3.377   7.038   2.027  0.4344 -0.1888  0.9613
24702SOL     OW76112   5.446   1.724   7.526 -0.3349  0.1126 -0.1651
24702SOL    HW176113   5.512   1.767   7.471 -1.3919  0.4660 -1.1979
24702SOL    HW276114   5.423   1.645   7.478  0.6620 -1.0157  1.1104
24703SOL     OW76115   8.184   3.662   4.044 -0.4064  0.6782 -0.3886
24703SOL    HW176116   8.194   3.635   4.136  1.3720  2.9473  0.1726
24703SOL    HW276117   8.181   3.757   4.047  0.1670  0.8324 -2.7361
24704SOL     OW76118   5.464  10.477   7.597 -0.4301  0.2790 -0.0325
24704SOL    HW176119   5.556  10.501   7.587  0.0438 -1.2641  0.2873
24704SOL    HW276120   5.416  10.559   7.586  1.0216  1.2368  0.4684
24705SOL     OW76121   4.347   9.619   7.571 -0.3559 -0.0015 -0.5018
24705SOL    HW176122   4.441   9.603   7.579 -0.6020 -1.4311 -0.2354
24705SOL    HW276123   4.312   9.539   7.532 -1.4340  0.6158 -0.8352
24706SOL     OW76124   9.594   8.440   3.649  0.3616  0.6021  0.1703
24706SOL    HW176125   9.580   8.345   3.654 -0.9690  0.8375  1.7409
24706SOL    HW276126   9.530   8.471   3.585  0.6247  0.4740 -0.1558
24707SOL     OW76127   1.630   6.909   4.753  0.3108 -0.0387  0.2814
24707SOL    HW176128   1.674   6.940   4.674 -1.6204 -0.8247 -1.1881
24707SOL    HW276129   1.666   6.822   4.767  2.0795  0.8330  1.4724
24708SOL     OW76130  10.480   4.681   9.357 -0.0874 -0.0023  0.3040
24708SOL    HW176131  10.425   4.739   9.304  0.7613  1.2685  0.7787
24708SOL    HW276132  10.530   4.631   9.293  1.9629  2.5012 -0.2195
24709SOL     OW76133   6.026   6.947   0.942  0.2003 -0.3349  0.4246
24709SOL    HW176134   5.985   6.863   0.920  2.4609 -1.2830 -0.5702
24709SOL    HW276135   5.954   7.004   0.966 -1.4193 -2.6047  1.2924
24710SOL     OW76136   7.515   3.907   6.522  0.0598 -0.4111 -0.1408
24710SOL    HW176137   7.502   3.888   6.429  2.3550 -2.3666 -0.1592
24710SOL    HW276138   7.598   3.954   6.526  0.1289 -0.5869  0.9265
24711SOL     OW76139   6.434  10.824   8.582  0.3505 -0.1222 -0.1351
24711SOL    HW176140   6.513  10.775   8.605  0.0150 -0.9574 -0.6916
24711SOL    HW276141   6.384  10.828   8.663  0.2978 -0.8822 -0.1243
24712SOL     OW76142   1.409   1.877  10.228  0.0667  0.0197  0.1163
24712SOL    HW176143   1.364   1.840  10.303 -0.3518  3.5169  1.7877
24712SOL    HW276144   1.364   1.960  10.211  0.8085 -0.1332 -3.3927
24713SOL     OW76145   5.734  10.882   6.718  0.0437 -0.3700  0.4306
24713SOL    HW176146   5.778  10.966   6.731 -0.9882  0.0214  1.6027
24713SOL    HW276147   5.713  10.881   6.625  0.8562  0.2602  0.2230
24714SOL     OW76148   1.631   1.440   0.187  0.2561  0.4752 -0.4396
24714SOL    HW176149   1.659   1.349   0.181 -2.4132 -0.3477 -1.8805
24714SOL    HW276150   1.687   1.487   0.126  0.5329 -0.5086 -0.9596
24715SOL     OW76151   2.189   8.809   9.814 -0.2113  0.3732 -0.3584
24715SOL    HW176152   2.171   8.766   9.898 -0.3644 -1.5610 -1.3260
24715SOL    HW276153   2.127   8.881   9.810 -0.5680  0.1633  0.9604
24716SOL     OW76154   8.616   0.459   3.349  0.7468  0.5017 -0.6225
24716SOL    HW176155   8.607   0.512   3.270 -1.4488 -1.9236 -2.1475
24716SOL    HW276156   8.669   0.384   3.322  0.8373  0.1304  0.5253
24717SOL     OW76157   2.917   4.868   5.781 -0.1311  0.2544 -0.3758
24717SOL    HW176158   2.874   4.889   5.698 -2.4252  0.3443  0.7511
24717SOL    HW276159   2.880   4.784   5.807  0.1250  0.4983  0.8337
24718SOL     OW76160   8.794   7.867  10.555 -0.0778  0.5992 -0.5816
24718SOL    HW176161   8.829   7.913  10.631  0.8236  0.0779 -0.6635
24718SOL    HW276162   8.856   7.795  10.540 -2.1434 -1.5493  0.3975
24719SOL     OW76163   9.062   3.788   2.761 -0.1121  0.1133 -0.8053
24719SOL    HW176164   9.131   3.727   2.737 -0.1847  0.0835 -0.9375
24719SOL    HW276165   9.100   3.875   2.748  0.8978  0.1503  1.8698
24720SOL     OW76166   7.238   2.583  10.779  0.4510  0.3080  0.2768
24720SOL    HW176167   7.236   2.558  10.871  0.6786 -0.2176  0.1389
24720SOL    HW276168   7.212   2.505  10.732  1.1485  0.3293 -0.1525
24721SOL     OW76169   4.637   5.392   1.913 -0.3281 -0.3636 -0.2911
24721SOL    HW176170   4.729   5.373   1.897  0.3205  1.0897  1.2977
24721SOL    HW276171   4.630   5.487   1.899 -1.2739 -0.2497  0.8348
24722SOL     OW76172   8.522   3.458   9.406  0.0509 -0.0914  0.7708
24722SOL    HW176173   8.460   3.531   9.406  1.8314  1.5177 -0.5255
24722SOL    HW276174   8.607   3.499   9.423  0.7750 -2.2802  3.0908
24723SOL     OW76175   3.089   6.196   0.230 -0.3466 -0.1013 -0.1312
24723SOL    HW176176   3.138   6.153   0.160 -0.5149  1.3595 -1.1969
24723SOL    HW276177   3.006   6.222   0.190 -0.5627  0.5076  0.6811
24724SOL     OW76178   2.176   1.444   3.836 -0.1096 -0.3585 -0.2309
24724SOL    HW176179   2.263   1.423   3.803  0.0636  1.6902 -1.2393
24724SOL    HW276180   2.179   1.421   3.929  1.5896 -0.0949 -0.1954
24725SOL     OW76181   2.523   6.388   6.953  0.6764  0.0540  0.1650
24725SOL    HW176182   2.612   6.406   6.922  1.0284  0.2454  1.2205
24725SOL    HW276183   2.470   6.458   6.916  1.4811  1.5634  1.7231
24726SOL     OW76184   6.283   1.947   7.019 -0.3063  0.9266  0.2803
24726SOL    HW176185   6.221   1.883   6.983  1.3136 -0.3197 -0.4404
24726SOL    HW276186   6.237   1.984   7.094 -1.8196 -0.1350 -0.0540
24727SOL     OW76187  10.946   6.007   7.165  0.2763  0.1213 -0.0388
24727SOL    HW176188  11.001   6.027   7.241 -0.5768  1.8933  0.1732
24727SOL    HW276189  10.856   6.007   7.200 -0.0629  0.1815 -0.8874
24728SOL     OW76190   5.077   8.323   3.365 -0.3780  0.5600  0.0110
24728SOL    HW176191   5.050   8.315   3.457 -0.7181  2.1984  0.0802
24728SOL    HW276192   5.171   8.341   3.370  0.5314 -3.2405 -0.1668
24729SOL     OW76193   3.121   6.848   1.920 -0.3001  0.3477  1.0752
24729SOL    HW176194   3.110   6.781   1.854  0.5184  1.4277 -0.2236
24729SOL    HW276195   3.211   6.836   1.953 -0.7826 -0.3387  2.1998
24730SOL     OW76196   4.929   5.412   2.690 -0.2969 -0.2489 -0.0769
24730SOL    HW176197   4.896   5.406   2.601 -0.6385  0.3527  0.0059
24730SOL    HW276198   4.903   5.499   2.720  0.6520 -0.0711  0.2722
24731SOL     OW76199   7.754   7.344  10.859 -0.0674 -0.1147  0.2388
24731SOL    HW176200   7.672   7.297  10.845  0.2910 -0.7582  0.2792
24731SOL    HW276201   7.815   7.277  10.889  0.1810  0.5521  1.2763
24732SOL     OW76202   2.796   8.499   0.295 -0.2176  0.1162  0.4127
24732SOL    HW176203   2.889   8.496   0.272 -0.6509 -0.4530 -1.3779
24732SOL    HW276204   2.790   8.566   0.363  1.0932  2.1359 -1.3701
24733SOL     OW76205  10.843   1.592   1.053 -0.4584 -0.8660 -0.0160
24733SOL    HW176206  10.919   1.644   1.026  0.1452 -1.1682  1.0125
24733SOL    HW276207  10.768   1.637   1.015  0.0952  0.4541  0.3834
24734SOL     OW76208   3.310   5.406   2.233 -0.3159 -0.2865  0.6538
24734SOL    HW176209   3.291   5.490   2.275 -1.8896  0.6192 -1.6290
24734SOL    HW276210   3.400   5.416   2.201 -0.0291  0.0022  1.5056
24735SOL     OW76211   3.948   6.030   5.067 -0.0794  0.1613 -0.1856
24735SOL    HW176212   3.853   6.017   5.061  0.0280 -0.2212 -1.6103
24735SOL    HW276213   3.968   6.022   5.160 -1.2851 -0.9801  0.0104
24736SOL     OW76214   9.320   0.740   5.296  0.3307  0.2309 -0.2929
24736SOL    HW176215   9.370   0.742   5.215 -0.4038 -0.4871 -0.7713
24736SOL    HW276216   9.288   0.650   5.304  1.8176 -0.1871  1.6845
24737SOL     OW76217   0.280   1.852   4.687  0.4236  0.2828  0.4964
24737SOL    HW176218   0.361   1.827   4.642  0.4516  1.2219 -0.0172
24737SOL    HW276219   0.309   1.879   4.774  0.5441 -0.2742  0.6296
24738SOL     OW76220   2.457   4.219   9.751 -0.5806 -0.2750 -0.3655
24738SOL    HW176221   2.481   4.190   9.839 -1.8232 -2.4489 -0.6717
24738SOL    HW276222   2.526   4.183   9.695 -0.5085 -0.0295 -0.4375
24739SOL     OW76223   9.242   8.841   2.430  0.7779 -0.2250  0.3564
24739SOL    HW176224   9.263   8.790   2.509  1.4718  1.6612  1.4456
24739SOL    HW276225   9.327   8.871   2.398  0.3007  1.9111  0.9346
24740SOL     OW76226   4.717   1.426   7.256  0.1057  0.4754 -0.1491
24740SOL    HW176227   4.678   1.450   7.341  0.2063 -0.3029  0.1203
24740SOL    HW276228   4.801   1.472   7.254  0.0217  0.6393  0.0972
24741SOL     OW76229   7.714   5.287   2.238  0.1722 -0.1084  0.2213
24741SOL    HW176230   7.699   5.197   2.209 -0.5688 -0.0538  0.4109
24741SOL    HW276231   7.734   5.335   2.158  0.3972 -0.4130  0.0965
24742SOL     OW76232   9.995   6.362   3.222 -0.8479 -0.5077 -0.4894
24742SOL    HW176233   9.968   6.360   3.130 -1.9375  1.8935 -0.2854
24742SOL    HW276234  10.055   6.288   3.230  0.2720 -0.0651 -3.4380
24743SOL     OW76235   4.728   8.884   3.875  0.2470 -0.7163 -0.6790
24743SOL    HW176236   4.669   8.883   3.800 -0.4966  1.1596 -0.1901
24743SOL    HW276237   4.810   8.921   3.841 -0.2401  0.5740 -0.5098
24744SOL     OW76238   4.107   6.678   4.381  0.3641 -0.8267 -0.3326
24744SOL    HW176239   4.072   6.597   4.345  0.3051  0.0140 -2.2486
24744SOL    HW276240   4.033   6.738   4.383  0.5061 -0.6563  0.6678
24745SOL     OW76241   6.978   8.316   2.159  0.1350  0.3938 -0.5234
24745SOL    HW176242   6.925   8.287   2.233  0.0999  1.5015 -0.1039
24745SOL    HW276243   6.915   8.355   2.098  0.2459  0.0712 -0.8496
24746SOL     OW76244  11.042   3.980   2.913 -0.8208  0.2189  0.6679
24746SOL    HW176245  10.986   4.057   2.919 -0.1710  0.7629 -0.0254
24746SOL    HW276246  11.066   3.961   3.004  0.4722  1.9550  0.7485
24747SOL     OW76247   9.271   0.699   0.859  0.0351 -0.1494 -0.0118
24747SOL    HW176248   9.279   0.786   0.820 -0.8953 -0.3393 -0.6485
24747SOL    HW276249   9.210   0.711   0.932 -2.7861 -0.8437 -2.0980
24748SOL     OW76250   5.178   1.558   1.074 -0.6214  0.5260  0.0849
24748SOL    HW176251   5.137   1.493   1.132 -0.0540  0.1440  0.0675
24748SOL    HW276252   5.253   1.590   1.124 -0.5155  0.6868 -0.1758
24749SOL     OW76253   2.687   4.018   5.133  0.0054  0.3257  0.4125
24749SOL    HW176254   2.593   4.030   5.121  0.0949  0.0812 -0.6383
24749SOL    HW276255   2.712   4.088   5.193 -0.8085  0.5429  0.5157
24750SOL     OW76256  10.135   2.631   2.584 -0.1175 -0.8543  0.1689
24750SOL    HW176257  10.086   2.661   2.661  0.5630  1.2884 -0.1561
24750SOL    HW276258  10.080   2.564   2.545 -1.1648 -0.9396  1.6960
24751SOL     OW76259   0.698   1.684   4.102 -0.1077  0.0337 -0.5034
24751SOL    HW176260   0.687   1.744   4.177  1.0472  0.4305 -0.6217
24751SOL    HW276261   0.781   1.711   4.063  0.1613 -1.2973 -0.8995
24752SOL     OW76262   5.113  10.056   6.891  0.0407 -0.0904 -0.1408
24752SOL    HW176263   5.196  10.020   6.922  0.1789  1.4317  1.4140
24752SOL    HW276264   5.047   9.997   6.926  0.4135 -0.8857 -0.7487
24753SOL     OW76265   2.024   8.955  10.044 -0.8239  0.1919  0.6582
24753SOL    HW176266   2.044   8.861  10.053  1.6462  0.5995  0.1013
24753SOL    HW276267   2.025   8.988  10.133  2.2190  0.3162  0.6920
24754SOL     OW76268   1.582  10.765   3.706  0.3630 -0.3770 -0.0301
24754SOL    HW176269   1.561  10.673   3.689 -0.0871 -0.2701 -0.0742
24754SOL    HW276270   1.675  10.773   3.683  0.4981 -0.8998  0.3117
24755SOL     OW76271   5.002   6.324   8.246 -0.0073 -0.6629  0.1360
24755SOL    HW176272   4.954   6.261   8.192 -0.5796  0.1099 -0.2673
24755SOL    HW276273   5.001   6.405   8.196 -0.7212  0.1318  1.3810
24756SOL     OW76274   5.917   1.921   4.397 -0.1260  0.5542 -0.3703
24756SOL    HW176275   5.880   1.836   4.375  0.4111  0.0277  0.7126
24756SOL    HW276276   5.932   1.963   4.312  2.4060 -1.6223 -1.1043
24757SOL     OW76277   1.974   2.075   2.626 -0.1309  0.0479 -0.0651
24757SOL    HW176278   2.001   2.004   2.567 -0.3925  1.1700 -1.5819
24757SOL    HW276279   1.886   2.050   2.653 -0.4314  0.0274 -1.0083
24758SOL     OW76280   9.066   5.403   4.593 -0.7356  0.6602 -0.1995
24758SOL    HW176281   9.044   5.310   4.587 -0.5427  0.5907  0.1676
24758SOL    HW276282   9.066   5.433   4.502  1.3039 -0.1854 -0.5367
24759SOL     OW76283   9.679   8.533   5.839  0.4262  0.4454  0.0408
24759SOL    HW176284   9.754   8.543   5.898  0.6512  0.0892 -0.1851
24759SOL    HW276285   9.717   8.538   5.751  0.5765 -2.3046 -0.1333
24760SOL     OW76286   9.384   7.332   9.154  0.0448  0.3993 -0.1703
24760SOL    HW176287   9.441   7.256   9.161  0.1475  0.4898 -0.0350
24760SOL    HW276288   9.340   7.338   9.239 -0.5151  0.0537 -0.4289
24761SOL     OW76289   5.149   2.497   1.979 -0.1191 -0.4904 -0.6134
24761SOL    HW176290   5.237   2.470   1.950  0.6907  0.2637  1.0117
24761SOL    HW276291   5.157   2.591   1.994 -1.5402 -0.2062 -1.4787
24762SOL     OW76292   3.432   3.016   6.846 -0.3640 -0.0757  0.4020
24762SOL    HW176293   3.485   2.960   6.789 -0.4291 -0.4763  0.7287
24762SOL    HW276294   3.409   2.959   6.920 -1.0422  0.1696  0.3812
24763SOL     OW76295  10.673   3.051   5.058 -0.6582  0.1756 -1.0538
24763SOL    HW176296  10.746   3.112   5.072 -0.7612 -0.1729  1.4107
24763SOL    HW276297  10.710   2.965   5.076 -1.6712  0.0170  0.5232
24764SOL     OW76298   3.316   1.711   4.343  0.0993 -0.5825  0.0835
24764SOL    HW176299   3.358   1.644   4.397 -0.6636  0.5375  2.1817
24764SOL    HW276300   3.315   1.789   4.398 -2.6292  0.0661 -0.7431
24765SOL     OW76301   6.268   6.787   8.822  0.1686  0.2644 -0.2761
24765SOL    HW176302   6.324   6.797   8.746 -0.2745 -0.6761 -0.7463
24765SOL    HW276303   6.179   6.782   8.787 -0.0736  0.1948  0.3241
24766SOL     OW76304   3.536   5.865   4.028 -0.0828  0.0042  0.6218
24766SOL    HW176305   3.541   5.773   4.055 -0.7730 -0.6781 -1.4057
24766SOL    HW276306   3.451   5.873   3.986  1.3641  0.5761 -2.4849
24767SOL     OW76307   5.628   2.991   7.236  0.0458 -0.1498  0.0470
24767SOL    HW176308   5.551   3.014   7.185  0.1346 -1.5791 -0.7695
24767SOL    HW276309   5.698   2.984   7.172  0.5899 -0.0632  0.6248
24768SOL     OW76310   7.177   0.655   3.752 -1.0991  0.1135 -0.0255
24768SOL    HW176311   7.255   0.685   3.799 -0.8052  1.3174 -1.2129
24768SOL    HW276312   7.104   0.690   3.802 -0.7951  1.1930 -0.3033
24769SOL     OW76313   5.748   8.070   6.500  0.3386 -0.4573  0.8738
24769SOL    HW176314   5.781   8.001   6.442  2.3072 -1.1994  2.7168
24769SOL    HW276315   5.670   8.032   6.540 -3.1627  1.2900 -3.5002
24770SOL     OW76316   2.785   3.153   1.207 -0.2624 -0.1738 -0.4539
24770SOL    HW176317   2.777   3.057   1.215  0.6882 -0.1372  1.6248
24770SOL    HW276318   2.695   3.185   1.213 -0.5375 -0.9115 -0.5030
24771SOL     OW76319   3.962   9.776  10.437 -0.6927 -0.1413 -0.3180
24771SOL    HW176320   3.920   9.853  10.400 -0.7513  0.0236  0.0883
24771SOL    HW276321   3.973   9.796  10.530  2.2729  0.7511 -0.7363
24772SOL     OW76322   3.235   9.703   3.621  0.4614 -0.1171 -0.0085
24772SOL    HW176323   3.247   9.795   3.600  0.1087  0.0659  0.5681
24772SOL    HW276324   3.242   9.658   3.536  0.4370  0.4549 -0.3199
24773SOL     OW76325   1.515   1.938   2.890  0.2082 -0.8637  0.2423
24773SOL    HW176326   1.476   2.006   2.835 -0.8203 -1.2144  0.5152
24773SOL    HW276327   1.543   1.870   2.828 -1.0285 -1.2980  0.1299
24774SOL     OW76328   4.608   5.596   4.857  1.0956 -0.0466  0.0266
24774SOL    HW176329   4.578   5.611   4.767  2.3381  0.1309 -0.3816
24774SOL    HW276330   4.655   5.513   4.853  0.7169 -0.2925  0.6273
24775SOL     OW76331   0.452   9.170   0.501 -0.2393 -0.2092  0.4115
24775SOL    HW176332   0.374   9.174   0.444  0.6466 -0.8551 -0.9116
24775SOL    HW276333   0.474   9.261   0.518 -0.1902  0.0287 -0.8074
24776SOL     OW76334   2.651   3.691   5.514 -0.5432  0.1357  0.8800
24776SOL    HW176335   2.649   3.649   5.600  0.9992 -1.0414  0.3913
24776SOL    HW276336   2.624   3.622   5.453  0.3676  0.3212  0.2352
24777SOL     OW76337   8.208   6.471   9.239 -0.2537  0.3190  0.0623
24777SOL    HW176338   8.239   6.449   9.327  1.4546  0.2170 -0.5230
24777SOL    HW276339   8.223   6.565   9.231  2.0698 -0.0651 -0.9725
24778SOL     OW76340   7.065   6.854   8.261  0.0878  0.3479 -0.1134
24778SOL    HW176341   7.042   6.933   8.310 -1.1032 -0.6651  1.0042
24778SOL    HW276342   6.991   6.841   8.201  1.3533  1.3651 -2.0228
24779SOL     OW76343  10.977   3.866   0.876 -0.1624  1.1334 -0.1667
24779SOL    HW176344  10.980   3.948   0.926  1.9820  1.2796 -0.4524
24779SOL    HW276345  10.946   3.892   0.790  0.2524  1.6038 -0.1760
24780SOL     OW76346   7.244   2.982   2.104  0.3146 -0.2406 -0.2651
24780SOL    HW176347   7.230   3.073   2.132  1.1917  0.5377 -2.1869
24780SOL    HW276348   7.338   2.975   2.092  0.7135 -2.4367  2.9633
24781SOL     OW76349   1.904   0.925   3.095  0.2165  0.0067 -0.2085
24781SOL    HW176350   1.881   0.867   3.023  2.9876  1.7305 -2.7109
24781SOL    HW276351   1.956   0.870   3.154 -1.5914 -1.2847  0.2509
24782SOL     OW76352   6.843   0.387   1.716  0.0226 -0.5147  0.8038
24782SOL    HW176353   6.904   0.378   1.643  1.0082 -2.1191  1.7731
24782SOL    HW276354   6.757   0.367   1.678  0.1138  1.2086 -0.4428
24783SOL     OW76355   7.653  10.196   8.250  0.9227 -0.2047 -0.1354
24783SOL    HW176356   7.637  10.107   8.281 -0.8181  0.0250 -0.2915
24783SOL    HW276357   7.743  10.193   8.217  1.5214 -1.4365  1.4224
24784SOL     OW76358   7.671   7.568   8.411  0.1811 -0.2263 -0.2136
24784SOL    HW176359   7.705   7.481   8.391 -0.3952 -0.3450 -0.7161
24784SOL    HW276360   7.712   7.625   8.346  2.0786  0.2420  1.3051
24785SOL     OW76361   3.859   9.044  10.991  0.3471 -0.1251  0.0999
24785SOL    HW176362   3.943   9.013  10.959  0.4483  1.0469 -0.8558
24785SOL    HW276363   3.861   9.027  11.085  1.3183 -0.8293 -0.0308
24786SOL     OW76364   6.842  10.039   4.148 -0.3556 -0.5969 -0.0283
24786SOL    HW176365   6.860  10.005   4.235  0.4475 -0.8071 -0.2660
24786SOL    HW276366   6.783   9.975   4.109  0.2603 -1.1544 -0.0697
24787SOL     OW76367   9.824   0.379   2.023  0.5539 -1.0888  0.3778
24787SOL    HW176368   9.862   0.361   1.937  0.3516 -1.0381  0.2768
24787SOL    HW276369   9.899   0.402   2.078  0.4847  1.1164 -0.3530
24788SOL     OW76370   5.591   1.626   8.421 -0.0649  0.6272 -0.2289
24788SOL    HW176371   5.673   1.627   8.372 -1.3255  0.2793 -2.4881
24788SOL    HW276372   5.525   1.654   8.358 -1.8647 -0.2968  1.1529
24789SOL     OW76373   8.222   9.063   3.751 -0.5639 -0.1368  0.0024
24789SOL    HW176374   8.272   8.998   3.702 -1.1083 -1.9706  1.7453
24789SOL    HW276375   8.288   9.124   3.785  0.1184 -0.5656 -0.5329
24790SOL     OW76376   5.512   1.008   6.432 -0.1884  0.2808 -0.6621
24790SOL    HW176377   5.456   0.947   6.383  0.3481  0.1847 -1.1722
24790SOL    HW276378   5.599   0.997   6.393  0.4839 -0.5003  0.9553
24791SOL     OW76379   5.785   3.630   5.634  0.0273 -0.3975 -0.2696
24791SOL    HW176380   5.724   3.690   5.591 -0.8521 -0.0241  1.4391
24791SOL    HW276381   5.829   3.585   5.561 -0.2477  1.3299 -1.5713
24792SOL     OW76382   2.067   8.650   3.892  0.3724  0.3865  0.3781
24792SOL    HW176383   2.053   8.744   3.885  0.1295  0.3261  0.0634
24792SOL    HW276384   2.072   8.619   3.802  0.9141  0.1645  0.4755
24793SOL     OW76385   9.278   5.649  10.445 -0.2088  0.3090  0.5011
24793SOL    HW176386   9.198   5.600  10.464 -1.1577  1.6785  0.1659
24793SOL    HW276387   9.304   5.687  10.529 -0.6730  0.9569  0.3557
24794SOL     OW76388   3.885   8.120  10.360  0.1660  0.0920 -0.3828
24794SOL    HW176389   3.818   8.054  10.344 -0.1688  0.1454  0.7594
24794SOL    HW276390   3.928   8.093  10.441  1.5100  0.0852 -1.0693
24795SOL     OW76391   7.084   8.810   7.122 -0.5922 -0.5273  0.0121
24795SOL    HW176392   7.015   8.759   7.165 -0.9226  0.4815  0.7288
24795SOL    HW276393   7.146   8.745   7.090 -1.6495 -1.4339 -0.2525
24796SOL     OW76394   5.762   0.565   0.940 -0.1599 -0.4532  0.2026
24796SOL    HW176395   5.703   0.554   1.014 -0.9019  2.1754  0.0994
24796SOL    HW276396   5.706   0.593   0.868  0.8086 -1.0671 -0.8180
24797SOL     OW76397   6.000   7.625   6.049  0.6084 -0.3197  0.7891
24797SOL    HW176398   6.063   7.558   6.021 -0.0496 -0.8308  0.5090
24797SOL    HW276399   5.992   7.684   5.973 -0.2469 -1.0125  0.3181
24798SOL     OW76400   8.256   4.240   5.852 -1.0114  0.1860 -0.4768
24798SOL    HW176401   8.261   4.273   5.762 -1.4512 -1.0627 -0.9709
24798SOL    HW276402   8.337   4.272   5.893 -0.3701  0.0090 -1.5720
24799SOL     OW76403   5.347   2.479   5.508 -0.4263 -0.7975  0.2507
24799SOL    HW176404   5.302   2.549   5.555 -0.7095 -0.9698  0.2337
24799SOL    HW276405   5.431   2.470   5.553 -0.1366 -0.0248 -0.1245
24800SOL     OW76406   8.261   3.752   9.202  0.1880 -0.0508  0.3296
24800SOL    HW176407   8.276   3.846   9.193 -1.5563  0.2028 -0.2652
24800SOL    HW276408   8.166   3.742   9.197  0.3938 -1.9572 -0.7426
24801SOL     OW76409   3.580   9.777   0.312 -0.1712  0.0692  0.1901
24801SOL    HW176410   3.587   9.869   0.338 -0.3813 -0.0830  0.8028
24801SOL    HW276411   3.669   9.750   0.294 -0.1307  0.4503 -0.1769
24802SOL     OW76412   8.829   5.551   7.959  0.5962 -0.0402  0.3651
24802SOL    HW176413   8.770   5.491   8.006 -1.5344 -1.5611 -3.7352
24802SOL    HW276414   8.892   5.494   7.915  1.3248  1.0993 -0.1266
24803SOL     OW76415   4.151   9.041   9.815 -0.0300 -0.3943 -0.4511
24803SOL    HW176416   4.153   8.991   9.897 -0.3439 -0.3428 -0.4090
24803SOL    HW276417   4.079   9.002   9.765  1.2132 -1.5327 -1.4201
24804SOL     OW76418   9.704   1.108   0.168 -0.4164 -0.5670 -0.3848
24804SOL    HW176419   9.775   1.126   0.107 -1.3037 -0.5669 -1.4643
24804SOL    HW276420   9.626   1.103   0.112 -1.4625  0.6803  0.9000
24805SOL     OW76421   0.466  10.307   1.227 -0.1532 -0.0197  0.0136
24805SOL    HW176422   0.460  10.265   1.141  1.2299  0.7701 -0.4995
24805SOL    HW276423   0.430  10.395   1.213 -1.1835 -0.3387  0.5897
24806SOL     OW76424   3.994   7.604   5.908  0.0222  0.2958 -0.0434
24806SOL    HW176425   4.000   7.526   5.963 -2.1411  1.6978  2.3875
24806SOL    HW276426   4.077   7.650   5.924  1.1031 -1.1508 -1.1221
24807SOL     OW76427   7.862   3.348   9.617  0.2157  0.3821 -0.0677
24807SOL    HW176428   7.953   3.372   9.598  0.3074  1.0453  1.1124
24807SOL    HW276429   7.812   3.386   9.544  0.7419  1.2202 -0.0107
24808SOL     OW76430   0.316   4.148   5.866  0.5421  0.3339 -0.3602
24808SOL    HW176431   0.307   4.110   5.779 -0.0999 -0.4604  0.0433
24808SOL    HW276432   0.317   4.243   5.850  0.0957  0.2107 -1.2034
24809SOL     OW76433   5.862   5.054   5.198 -0.2993 -0.5556  0.0326
24809SOL    HW176434   5.953   5.025   5.212 -0.0409  0.7727  1.3004
24809SOL    HW276435   5.824   4.986   5.141  1.3188 -1.4206 -0.0786
24810SOL     OW76436   5.735   6.258   8.854  0.1412 -0.1944  0.3047
24810SOL    HW176437   5.748   6.198   8.780  0.5530 -0.7477  0.8125
24810SOL    HW276438   5.772   6.211   8.929 -0.9159  0.0486  0.9979
24811SOL     OW76439   7.425   3.525   4.591  0.4000  0.5117  0.7442
24811SOL    HW176440   7.344   3.485   4.623  0.0525  1.2664  0.8362
24811SOL    HW276441   7.407   3.547   4.500  0.9719 -0.5208  0.3565
24812SOL     OW76442   0.828   5.003   4.082 -0.5869 -0.7522  0.5932
24812SOL    HW176443   0.919   5.032   4.070 -0.4177 -1.8956 -1.2097
24812SOL    HW276444   0.835   4.911   4.108 -1.2124 -0.4965  1.7001
24813SOL     OW76445   9.038  10.191   3.676 -0.2118  0.1356  0.0637
24813SOL    HW176446   9.023  10.137   3.599  0.0075  0.4707 -0.2180
24813SOL    HW276447   9.033  10.130   3.750 -0.1672 -0.2303 -0.2337
24814SOL     OW76448   8.774   5.078   8.584  0.1499 -0.3710  0.4722
24814SOL    HW176449   8.702   5.140   8.597 -1.1166 -1.8914  0.9665
24814SOL    HW276450   8.829   5.119   8.517 -0.8021  1.1344  0.5708
24815SOL     OW76451   8.037   8.225   3.530  0.1612 -0.0792  0.1800
24815SOL    HW176452   8.132   8.215   3.531  0.0984 -0.6924  1.2749
24815SOL    HW276453   8.011   8.205   3.440  0.8646 -2.0069  0.3631
24816SOL     OW76454   7.270   2.771   2.375  0.2779  0.2492  0.1422
24816SOL    HW176455   7.344   2.725   2.414  1.5593  2.7868  0.8784
24816SOL    HW276456   7.279   2.755   2.281  1.6964  0.4354  0.2396
24817SOL     OW76457   7.102   2.319   8.626  0.1113 -0.1616  0.2134
24817SOL    HW176458   7.157   2.364   8.690  1.0869 -1.7809  0.5693
24817SOL    HW276459   7.039   2.270   8.678 -1.2216  1.0598 -0.1830
24818SOL     OW76460   7.817   4.033   3.688 -0.2918 -0.1731  0.6141
24818SOL    HW176461   7.728   4.066   3.702 -1.6635 -3.1798 -0.2369
24818SOL    HW276462   7.851   4.086   3.615 -1.8897  0.2078  0.0995
24819SOL     OW76463   6.219   8.183   0.713 -0.0391 -0.0032 -0.1656
24819SOL    HW176464   6.251   8.237   0.785 -0.9407 -0.9713  1.0077
24819SOL    HW276465   6.129   8.212   0.699  0.1910  0.3157 -1.0622
24820SOL     OW76466   5.459   7.486   2.608 -0.2377 -0.1432  0.5440
24820SOL    HW176467   5.518   7.527   2.671  0.6995 -1.1743  0.3615
24820SOL    HW276468   5.418   7.415   2.658 -0.1534 -0.4087  0.2340
24821SOL     OW76469   1.858   1.803  10.096  0.2390  0.5060 -0.3211
24821SOL    HW176470   1.766   1.781  10.087  0.7110 -1.5940 -0.7161
24821SOL    HW276471   1.870   1.881  10.043 -1.3583  1.0090  0.0136
24822SOL     OW76472   5.966   4.926   4.442 -0.0712  0.2077 -0.2545
24822SOL    HW176473   5.936   4.901   4.529  1.3286  0.1975  0.2544
24822SOL    HW276474   5.909   4.999   4.417  1.1048  1.9154  1.7737
24823SOL     OW76475   7.310   2.543   6.690 -0.4919  0.3757 -0.3631
24823SOL    HW176476   7.234   2.576   6.737 -0.8917 -0.8145 -0.1300
24823SOL    HW276477   7.278   2.463   6.647  0.5269  0.0662 -0.5645
24824SOL     OW76478   9.861   1.881   5.600 -0.1073 -0.0280  0.6161
24824SOL    HW176479   9.811   1.860   5.678 -0.7869  0.4740  0.3342
24824SOL    HW276480   9.815   1.836   5.529  1.6220 -2.1090  0.7167
24825SOL     OW76481   7.002   6.731   7.874  0.2098 -0.1376 -0.3182
24825SOL    HW176482   7.042   6.649   7.844  1.9994 -0.2466  2.0127
24825SOL    HW276483   7.068   6.798   7.856  0.6267  0.0456  1.6345
24826SOL     OW76484   3.971   4.816   4.128 -0.0613  0.4947  0.0779
24826SOL    HW176485   3.937   4.737   4.169  1.6307 -0.7908 -0.8434
24826SOL    HW276486   4.035   4.851   4.190  2.7407 -1.6300 -1.3427
24827SOL     OW76487   4.147   5.547   1.807 -0.2777 -0.2655  0.3190
24827SOL    HW176488   4.203   5.499   1.746 -0.1850 -1.6823  1.4587
24827SOL    HW276489   4.069   5.492   1.816  0.7057 -1.3680  3.2515
24828SOL     OW76490   5.234   1.984   0.424  0.0922  0.3854 -0.2284
24828SOL    HW176491   5.325   1.954   0.426  0.0664  0.1074 -1.9728
24828SOL    HW276492   5.209   1.988   0.516  1.5580 -0.4798  0.2518
24829SOL     OW76493   4.747   9.895   5.816  0.4155 -0.1759 -0.1695
24829SOL    HW176494   4.663   9.941   5.823  0.2172 -0.3308 -1.4017
24829SOL    HW276495   4.806   9.945   5.874 -0.2574  0.5517 -0.0913
24830SOL     OW76496   1.148   4.165   4.983  0.3372 -0.2572  0.2096
24830SOL    HW176497   1.087   4.183   5.054 -0.3513  0.0913 -0.4537
24830SOL    HW276498   1.118   4.082   4.946 -1.2285  1.0210 -1.6035
24831SOL     OW76499   1.958   6.246   0.125  0.6100  0.3444  0.0544
24831SOL    HW176500   1.943   6.152   0.140  1.5072 -0.0289 -1.2258
24831SOL    HW276501   2.033   6.267   0.180 -0.8893  0.8587  2.0099
24832SOL     OW76502   8.660   3.697   2.263  0.5843 -0.3162  0.1709
24832SOL    HW176503   8.698   3.632   2.205 -1.7495 -0.6960 -1.0547
24832SOL    HW276504   8.668   3.780   2.215 -1.9995 -0.7375 -1.1798
24833SOL     OW76505   9.086   3.762   5.870  0.2292  0.0045  0.3511
24833SOL    HW176506   8.990   3.762   5.864  0.2200  2.1997 -0.5385
24833SOL    HW276507   9.114   3.825   5.804  2.2194  0.3352  1.4328
24834SOL     OW76508  10.390  10.982   2.431  0.0665 -0.6065 -0.6380
24834SOL    HW176509  10.394  10.903   2.485 -0.7082 -0.6303 -0.6011
24834SOL    HW276510  10.307  10.974   2.384  0.6424 -0.4953 -1.6905
24835SOL     OW76511   5.028   9.098   6.154 -0.0124  0.0581 -0.5640
24835SOL    HW176512   4.948   9.142   6.182 -1.2528 -1.6730 -1.2116
24835SOL    HW276513   5.076   9.081   6.235  0.2168  1.9835 -0.2532
24836SOL     OW76514   9.047   3.601  10.762  0.1965 -0.1225  0.0660
24836SOL    HW176515   9.059   3.654  10.841  3.2029 -0.3216 -0.1706
24836SOL    HW276516   9.067   3.659  10.690 -0.8435 -0.4240 -0.4908
24837SOL     OW76517   6.635   7.311   5.796 -0.0053 -0.3338 -0.2743
24837SOL    HW176518   6.653   7.241   5.733 -0.4672 -0.8264  0.1302
24837SOL    HW276519   6.721   7.343   5.822  0.1939 -0.1824 -1.0892
24838SOL     OW76520   1.055   6.299  10.274 -0.2078 -0.2842 -0.4109
24838SOL    HW176521   1.077   6.392  10.266  1.1011 -0.5135  0.2736
24838SOL    HW276522   0.984   6.297  10.338  0.4693  0.1802  0.3773
24839SOL     OW76523   6.945   4.617   5.267 -0.3021  0.1503  0.3915
24839SOL    HW176524   7.038   4.605   5.247 -0.6295 -0.8187 -0.6884
24839SOL    HW276525   6.921   4.699   5.223 -0.3000 -0.4116 -0.7061
24840SOL     OW76526  10.146   6.390   5.114 -0.3138 -0.0454  0.5030
24840SOL    HW176527  10.219   6.353   5.065 -1.3996  0.0220 -1.2472
24840SOL    HW276528  10.097   6.314   5.144  0.2997 -0.0846  1.4494
24841SOL     OW76529   6.923   4.511   6.561 -0.7604  0.4588  0.8530
24841SOL    HW176530   6.985   4.461   6.614 -1.3716 -0.6567  0.5437
24841SOL    HW276531   6.965   4.518   6.476 -1.1459 -0.5326  0.5626
24842SOL     OW76532   7.655   7.385   2.756  0.3243 -0.4919 -0.2478
24842SOL    HW176533   7.699   7.300   2.746  1.2196 -0.0837  0.0690
24842SOL    HW276534   7.618   7.403   2.670 -1.3826 -1.9958  0.1155
24843SOL     OW76535   9.103  10.750   3.450  0.3926 -0.1981 -1.1422
24843SOL    HW176536   9.136  10.745   3.540 -2.0448 -2.2657 -0.2230
24843SOL    HW276537   9.101  10.843   3.430 -1.2038  0.5498  1.8983
24844SOL     OW76538   0.150   6.672   7.771  0.2694 -0.0330 -0.2839
24844SOL    HW176539   0.168   6.595   7.717 -2.5678 -1.6346  0.8359
24844SOL    HW276540   0.134   6.742   7.708  0.1321 -1.0677 -1.4509
24845SOL     OW76541   4.920   4.127   9.143 -0.3939  0.5251 -0.2405
24845SOL    HW176542   4.933   4.046   9.193  0.4355  0.5905 -0.3336
24845SOL    HW276543   4.825   4.135   9.135 -0.5890  0.8301  1.8668
24846SOL     OW76544   2.325   9.717   0.989 -0.1848 -0.0442  0.1970
24846SOL    HW176545   2.410   9.736   0.949  0.0065  0.9716  1.0608
24846SOL    HW276546   2.311   9.624   0.971  0.6304  0.0157 -0.8306
24847SOL     OW76547   5.189   3.278   9.637  0.2953 -0.0499  0.5842
24847SOL    HW176548   5.213   3.361   9.595  0.3880 -0.5771 -0.4285
24847SOL    HW276549   5.212   3.211   9.572  0.9071 -0.9269  1.6752
24848SOL     OW76550  10.372   0.869   6.510  0.1867  0.0093 -0.1009
24848SOL    HW176551  10.398   0.782   6.480 -1.0082 -0.2354 -0.5067
24848SOL    HW276552  10.445   0.899   6.564  0.6790 -1.1835 -0.0710
24849SOL     OW76553   9.177  10.519  10.206  0.0230 -0.1513  0.2466
24849SOL    HW176554   9.131  10.450  10.160 -0.6329  1.0272 -0.9496
24849SOL    HW276555   9.240  10.474  10.262 -1.7108 -1.7458  0.9733
24850SOL     OW76556   5.690   5.980   3.512 -0.0150  0.2530  0.4258
24850SOL    HW176557   5.706   6.050   3.575  1.5065  1.2941 -1.0524
24850SOL    HW276558   5.629   6.018   3.449 -1.7149 -0.8604  1.3323
24851SOL     OW76559   7.319   4.531   0.884 -0.6156  0.8131  0.4126
24851SOL    HW176560   7.260   4.557   0.813 -0.6982  0.6727  0.4299
24851SOL    HW276561   7.304   4.437   0.894  2.0925 -0.0241 -1.9620
24852SOL     OW76562   7.348   9.028  10.251 -0.3640  0.1623  0.9476
24852SOL    HW176563   7.281   9.012  10.317 -1.7900 -0.1090 -0.5002
24852SOL    HW276564   7.422   8.973  10.277 -0.7263  0.3741  2.5139
24853SOL     OW76565   1.183   2.682  10.724 -0.6713  0.1920 -0.1017
24853SOL    HW176566   1.261   2.707  10.775  0.4242 -0.2614 -1.4792
24853SOL    HW276567   1.168   2.590  10.747 -0.9940  0.3609  0.3836
24854SOL     OW76568   3.994   4.346   6.188  0.0019 -0.3698 -0.1222
24854SOL    HW176569   3.910   4.322   6.228 -0.0136 -1.9481 -1.0340
24854SOL    HW276570   3.994   4.300   6.104  1.9560 -0.7488  0.0463
24855SOL     OW76571   9.349   3.830   3.037  0.1787 -0.4918 -0.3970
24855SOL    HW176572   9.394   3.886   2.974 -1.5814 -0.1276 -1.4002
24855SOL    HW276573   9.380   3.742   3.018  0.5076 -0.2451 -1.0131
24856SOL     OW76574  11.010   6.319   6.819 -0.0787  0.6570 -0.2664
24856SOL    HW176575  11.053   6.315   6.734  0.2645  0.6068 -0.0921
24856SOL    HW276576  10.976   6.230   6.834 -0.3650  0.7312 -0.4647
24857SOL     OW76577   2.032   6.670   3.106 -0.6923 -0.6974  0.0391
24857SOL    HW176578   2.003   6.733   3.040  0.4726 -1.5363 -1.3240
24857SOL    HW276579   1.966   6.677   3.175 -0.8474  1.6949 -0.2379
24858SOL     OW76580  10.343   2.638  10.151 -0.1430  0.3942 -0.2406
24858SOL    HW176581  10.309   2.726  10.135 -1.1480 -0.0943 -0.9475
24858SOL    HW276582  10.305   2.613  10.235 -0.9994  0.1269 -0.6896
24859SOL     OW76583   1.964   0.452   3.639 -0.1084  0.0949  0.6277
24859SOL    HW176584   1.986   0.380   3.699  0.7534  0.7818  1.1628
24859SOL    HW276585   1.967   0.412   3.552  0.2583 -0.5414  0.9257
24860SOL     OW76586   9.482   4.181   6.133 -0.3711  0.0242  0.7434
24860SOL    HW176587   9.487   4.088   6.110 -0.0295  0.5648 -1.5331
24860SOL    HW276588   9.467   4.181   6.228  1.5848 -2.3109  1.1419
24861SOL     OW76589  10.273   5.814   3.895 -0.2641  0.1130 -0.0540
24861SOL    HW176590  10.248   5.722   3.903 -0.2115  0.0838 -0.2088
24861SOL    HW276591  10.334   5.829   3.967  0.0085 -0.0708 -0.2435
24862SOL     OW76592   9.321   3.047   6.410  0.8658  0.2506  0.3873
24862SOL    HW176593   9.381   3.005   6.472  0.7322  0.8736  0.9460
24862SOL    HW276594   9.248   2.986   6.403  0.8841  0.1720  0.8408
24863SOL     OW76595   5.646   4.071   7.638  0.3286  0.0313  1.0311
24863SOL    HW176596   5.575   4.041   7.695  0.2438  0.0615  0.9432
24863SOL    HW276597   5.601   4.125   7.572 -0.1259 -2.8674 -1.2449
24864SOL     OW76598   1.497   2.238   3.023  0.3514  0.3351 -0.2293
24864SOL    HW176599   1.521   2.198   3.107  0.7359 -2.0396 -1.3798
24864SOL    HW276600   1.571   2.293   3.000  1.8264 -1.6489 -0.5374
24865SOL     OW76601   6.006   0.917   2.150 -0.2092  0.5009  0.0645
24865SOL    HW176602   5.979   0.974   2.078  0.5585 -0.2222 -0.8198
24865SOL    HW276603   6.070   0.968   2.199  1.0872  0.1447 -1.1952
24866SOL     OW76604   6.898   5.057   5.828  0.2052  0.4292  0.2295
24866SOL    HW176605   6.976   5.016   5.792  0.6103  0.6417  0.8533
24866SOL    HW276606   6.841   4.984   5.853  0.2131  0.2755 -0.2067
24867SOL     OW76607   6.491   8.924   7.344  0.7054 -0.5020  0.4826
24867SOL    HW176608   6.571   8.871   7.345 -0.0068 -1.5901  0.8979
24867SOL    HW276609   6.432   8.882   7.406 -0.2776  0.1640  0.0371
24868SOL     OW76610   2.064   9.360   7.212  0.3584  0.4062  0.4940
24868SOL    HW176611   2.111   9.350   7.129  2.1188 -1.5892  1.6202
24868SOL    HW276612   2.133   9.371   7.277 -0.8108 -0.6731  2.0009
24869SOL     OW76613   8.147   0.357  10.488  0.1577 -0.2976 -0.2722
24869SOL    HW176614   8.128   0.438  10.440  1.6638  0.0946 -0.2707
24869SOL    HW276615   8.092   0.362  10.566  2.2217  2.1724  1.1963
24870SOL     OW76616   5.446   8.830  10.213 -0.5244 -0.2113  1.1930
24870SOL    HW176617   5.360   8.870  10.202 -0.9106 -1.2185  0.3998
24870SOL    HW276618   5.503   8.902  10.240 -1.3057  0.7465  0.3367
24871SOL     OW76619   8.608   1.900   7.701 -0.2290 -0.3521 -0.4600
24871SOL    HW176620   8.594   1.958   7.626  2.3863  0.6321 -0.3166
24871SOL    HW276621   8.640   1.819   7.662  0.0202 -0.2443 -0.4858
24872SOL     OW76622   7.293   5.429   9.541  0.1582  0.2772 -0.0530
24872SOL    HW176623   7.317   5.446   9.450 -0.0857  0.6599 -0.0522
24872SOL    HW276624   7.261   5.514   9.573  0.8912  0.3236  0.5942
24873SOL     OW76625   3.641   3.127   8.166 -0.0728  0.2292 -0.0243
24873SOL    HW176626   3.571   3.083   8.215 -0.6310  0.3957 -0.6545
24873SOL    HW276627   3.680   3.187   8.229 -0.2890 -0.0935  0.4279
24874SOL     OW76628   4.838   3.781   2.604 -0.0084  0.7248  0.1026
24874SOL    HW176629   4.929   3.791   2.633 -0.4255 -0.8885  2.2655
24874SOL    HW276630   4.803   3.713   2.661 -3.2132  2.7921  0.8491
24875SOL     OW76631   3.537   3.098   5.232 -0.3703 -0.2309 -0.0182
24875SOL    HW176632   3.504   3.008   5.224 -1.4869  0.2751 -1.4851
24875SOL    HW276633   3.536   3.116   5.326 -0.7960 -1.5038  0.2452
24876SOL     OW76634   6.081   2.761  10.961 -0.0193  0.3359  0.3931
24876SOL    HW176635   6.095   2.697  11.031 -1.6695 -1.6489 -0.9642
24876SOL    HW276636   5.986   2.762  10.949  0.2446 -0.0670 -2.3602
24877SOL     OW76637   9.738   4.479   6.535  0.3573 -0.6822 -0.2952
24877SOL    HW176638   9.819   4.496   6.487  0.4176 -1.9871 -0.6859
24877SOL    HW276639   9.669   4.508   6.475  0.4266 -2.3947 -1.2704
24878SOL     OW76640   4.983   8.545   4.392  0.3059  0.3719  0.4540
24878SOL    HW176641   5.018   8.625   4.432  0.1494  0.8127 -0.2718
24878SOL    HW276642   4.889   8.551   4.405  0.3273  0.1025  0.7512
24879SOL     OW76643   3.663   9.213   0.710 -0.6118 -0.2715  0.4758
24879SOL    HW176644   3.589   9.264   0.744 -0.7417 -1.7456  2.6589
24879SOL    HW276645   3.740   9.253   0.750 -0.7156 -1.6619  2.2129
24880SOL     OW76646   7.733   1.294  11.036  0.2454 -0.6734  0.2476
24880SOL    HW176647   7.763   1.334  10.954  0.2462 -0.9587  0.1059
24880SOL    HW276648   7.679   1.220  11.007 -1.3208  0.3372  0.4771
24881SOL     OW76649   3.857   6.936   3.266 -0.6983 -0.4250  0.2660
24881SOL    HW176650   3.935   6.961   3.216 -0.7315 -0.1807  0.3328
24881SOL    HW276651   3.789   6.996   3.235 -0.5218  0.2697  1.1690
24882SOL     OW76652   5.935   6.290   7.592  0.2519 -0.7654 -0.5245
24882SOL    HW176653   5.852   6.333   7.614 -0.7823 -2.3887 -1.0724
24882SOL    HW276654   5.962   6.331   7.510  1.7267  2.0253  1.1704
24883SOL     OW76655   2.040   5.486   1.129  0.6406 -0.1947  0.1695
24883SOL    HW176656   2.105   5.523   1.189  1.7737 -1.4889 -0.2113
24883SOL    HW276657   2.014   5.404   1.170  2.1095 -1.5596 -1.4688
24884SOL     OW76658   8.720   7.091   6.179  0.1670 -0.1241 -0.5276
24884SOL    HW176659   8.670   7.021   6.221  1.8800 -1.2461 -0.2790
24884SOL    HW276660   8.702   7.082   6.086 -0.1067 -0.4904 -0.4384
24885SOL     OW76661   7.887   9.890  10.761 -0.6661  0.0347 -0.2552
24885SOL    HW176662   7.828   9.867  10.833  0.3743 -0.3397  0.5138
24885SOL    HW276663   7.898   9.984  10.769  0.3931 -0.1510  0.8756
24886SOL     OW76664   4.378  10.006   1.963  0.0902 -0.0275 -0.4611
24886SOL    HW176665   4.291   9.977   1.990  1.0139 -1.0119  1.6789
24886SOL    HW276666   4.404  10.070   2.028  1.2489 -0.2836 -0.6438
24887SOL     OW76667   7.058   1.468   6.688 -0.0039  0.4168  0.5944
24887SOL    HW176668   6.978   1.487   6.737 -0.3864 -1.7045  0.9138
24887SOL    HW276669   7.129   1.479   6.751 -0.4442 -1.7029  1.5373
24888SOL     OW76670   9.606   8.668   6.334 -0.1303 -0.5663 -0.0734
24888SOL    HW176671   9.648   8.732   6.276 -2.0977 -0.4651 -1.5078
24888SOL    HW276672   9.663   8.664   6.411  1.4676  0.8929 -1.1006
24889SOL     OW76673   7.352  10.779   9.037  0.5923 -0.0747 -0.0565
24889SOL    HW176674   7.298  10.825   9.100  1.0073 -1.1695  1.1435
24889SOL    HW276675   7.442  10.796   9.064  0.7706 -2.6191  1.3043
24890SOL     OW76676   0.119   3.562   5.660 -0.3999  0.5854 -0.4792
24890SOL    HW176677   0.202   3.559   5.613 -0.3558  1.6716 -0.4969
24890SOL    HW276678   0.124   3.489   5.721  1.5763  1.9208  1.1137
24891SOL     OW76679   5.117   5.703   7.646 -0.0563  0.1093 -0.4999
24891SOL    HW176680   5.072   5.785   7.625  1.2121  0.8423 -0.4374
24891SOL    HW276681   5.049   5.648   7.684 -0.5226  1.9044  1.4915
24892SOL     OW76682   8.178   3.270   9.049  0.3353  0.0707  0.0150
24892SOL    HW176683   8.272   3.280   9.060  0.4028 -1.1938  0.8131
24892SOL    HW276684   8.144   3.262   9.139 -0.5600  0.6521 -0.2523
24893SOL     OW76685   4.285   5.819   2.046  0.8071 -0.3344 -0.2969
24893SOL    HW176686   4.264   5.875   1.972  1.0538  0.5749  0.3029
24893SOL    HW276687   4.333   5.876   2.107  1.5350 -1.3341  0.0959
24894SOL     OW76688   3.386   9.277   2.436  0.2751  0.5176  0.2893
24894SOL    HW176689   3.464   9.323   2.469  0.5253  0.9258 -0.8276
24894SOL    HW276690   3.338   9.344   2.387 -0.3073  0.0353  0.1975
24895SOL     OW76691   5.633   3.982   4.504  0.2479  0.1844  0.1267
24895SOL    HW176692   5.656   3.926   4.430  2.2999  2.0960 -0.8254
24895SOL    HW276693   5.629   4.070   4.466 -0.6935  0.9799  1.9371
24896SOL     OW76694   2.071   5.584   5.426 -0.4386 -0.2390 -0.0240
24896SOL    HW176695   2.068   5.494   5.459  1.2817 -0.8321 -1.3485
24896SOL    HW276696   2.100   5.636   5.501  2.0575 -1.3536 -0.1141
24897SOL     OW76697   6.383   1.168   1.973  0.4543  0.3500  0.0439
24897SOL    HW176698   6.431   1.085   1.976  0.8607  0.5474 -0.6021
24897SOL    HW276699   6.435   1.228   2.026  1.5737  0.8637 -1.5385
24898SOL     OW76700   5.131   4.730   9.463 -0.7697 -0.1268 -0.2816
24898SOL    HW176701   5.101   4.671   9.532 -0.2961  1.3237  1.2230
24898SOL    HW276702   5.222   4.704   9.447 -0.0465  1.1146  1.4950
24899SOL     OW76703   5.737   5.563   5.470 -0.2359  0.1550 -0.2248
24899SOL    HW176704   5.655   5.523   5.499 -0.5567  0.3092 -0.9005
24899SOL    HW276705   5.765   5.616   5.544 -0.6369 -0.0643  0.0882
24900SOL     OW76706   5.744   6.480   1.174 -0.0044  0.4860  0.9393
24900SOL    HW176707   5.782   6.492   1.088  0.1081  1.0693  1.0698
24900SOL    HW276708   5.810   6.429   1.222  0.2686  0.8133  0.9166
24901SOL     OW76709   6.874   9.373   6.403 -0.1637  0.1120 -0.4347
24901SOL    HW176710   6.841   9.401   6.318 -0.1067 -0.1684 -0.5535
24901SOL    HW276711   6.968   9.391   6.399 -0.0337 -0.5797 -0.7186
24902SOL     OW76712   5.031   0.028   9.594  0.2829  0.1644 -0.1906
24902SOL    HW176713   5.082  -0.017   9.662  0.2530 -1.1227 -0.9859
24902SOL    HW276714   5.044  -0.025   9.516 -0.1208  1.3296 -1.0706
24903SOL     OW76715   2.624   4.335   5.508  0.1503 -0.0096 -0.0962
24903SOL    HW176716   2.648   4.282   5.431  0.3263  1.3549 -1.0143
24903SOL    HW276717   2.543   4.296   5.539  0.4468 -1.0246 -0.5393
24904SOL     OW76718   2.403   6.088  11.070 -0.1935  0.0735  0.1190
24904SOL    HW176719   2.486   6.078  11.024  0.0275 -0.5901  0.6361
24904SOL    HW276720   2.403   6.016  11.134 -1.1074  0.1428  0.2065
24905SOL     OW76721   0.618   2.580   6.680 -0.2206  0.6463  0.1660
24905SOL    HW176722   0.528   2.610   6.690  0.3640  2.1083  1.5598
24905SOL    HW276723   0.642   2.605   6.590 -1.5579 -0.9548 -0.6948
24906SOL     OW76724   8.549   1.781   2.969 -0.2435 -0.0266 -0.0171
24906SOL    HW176725   8.558   1.692   2.936 -0.7015 -0.1135  0.0788
24906SOL    HW276726   8.599   1.835   2.908 -2.2882  0.0177 -1.7847
24907SOL     OW76727   7.109   8.486   7.256 -0.1428 -0.0483  0.1532
24907SOL    HW176728   7.026   8.508   7.214 -0.9066  0.7765  1.9940
24907SOL    HW276729   7.157   8.437   7.189 -2.6651 -1.8302 -0.4954
24908SOL     OW76730   6.457   5.112   5.388  0.3011 -0.4848  0.2175
24908SOL    HW176731   6.440   5.025   5.353 -0.8672 -0.2181  0.0825
24908SOL    HW276732   6.540   5.104   5.435  0.0790 -1.7241  0.4168
24909SOL     OW76733   4.506   8.771   2.217  0.0189  0.2855  0.0193
24909SOL    HW176734   4.483   8.810   2.302 -0.6971 -0.9111  0.3962
24909SOL    HW276735   4.434   8.794   2.159  0.8776  1.7618 -0.5024
24910SOL     OW76736   5.676   5.215   5.312 -0.0092 -0.1363 -0.5085
24910SOL    HW176737   5.657   5.286   5.251 -1.9782 -0.8778 -0.8198
24910SOL    HW276738   5.737   5.158   5.264 -1.5896 -0.7536 -1.8859
24911SOL     OW76739   8.151   4.614   8.793  0.2522  0.6155 -0.1988
24911SOL    HW176740   8.228   4.582   8.839  0.3707  1.7933  0.4595
24911SOL    HW276741   8.181   4.692   8.746 -0.5876  1.2421  0.2769
24912SOL     OW76742   7.379   3.090   0.045  0.2931  0.1895  0.3362
24912SOL    HW176743   7.423   3.108   0.128 -1.6104 -2.2879  2.0244
24912SOL    HW276744   7.423   3.012   0.011 -0.7527 -0.4790  0.4853
24913SOL     OW76745   3.947   1.519   6.509  0.1698 -0.2250  0.2712
24913SOL    HW176746   3.863   1.475   6.518 -1.2837  2.2204 -0.2926
24913SOL    HW276747   3.966   1.550   6.598 -0.5217  0.8202  0.0763
24914SOL     OW76748   9.556   3.454   8.563  0.0972 -0.0035  0.2832
24914SOL    HW176749   9.561   3.413   8.476 -0.8918 -1.0415  0.6929
24914SOL    HW276750   9.550   3.548   8.544 -3.0721 -0.3319 -0.9564
24915SOL     OW76751   8.837   5.314   5.447  0.1464  0.4090  0.1400
24915SOL    HW176752   8.845   5.293   5.540  1.3246  1.6446  0.3542
24915SOL    HW276753   8.746   5.296   5.426 -0.4441  1.2468  1.8347
24916SOL     OW76754   5.847   9.973   7.871 -0.1100  0.0573  0.5240
24916SOL    HW176755   5.796   9.933   7.942 -1.2554 -2.0543 -1.3236
24916SOL    HW276756   5.805   9.941   7.791  4.5001 -2.5129 -1.2559
24917SOL     OW76757   9.808   3.841   0.620  0.1902 -1.0110 -0.2689
24917SOL    HW176758   9.772   3.790   0.547 -0.3479 -0.0163 -0.7077
24917SOL    HW276759   9.883   3.789   0.650 -0.3754 -2.0963 -0.6625
24918SOL     OW76760   5.897   6.215   9.116 -0.0831 -0.2022  0.8003
24918SOL    HW176761   5.960   6.220   9.188 -0.6978 -0.7420  1.3930
24918SOL    HW276762   5.937   6.156   9.053 -0.7180 -1.9241  1.9508
24919SOL     OW76763   7.973   5.322   7.670  0.2591  0.5140  0.4289
24919SOL    HW176764   7.888   5.363   7.658 -0.0110 -0.0434  0.3950
24919SOL    HW276765   7.956   5.228   7.659  1.1786  0.5138 -1.3113
24920SOL     OW76766   3.641   5.215   5.104  0.1588 -0.0028 -0.6970
24920SOL    HW176767   3.547   5.218   5.125  0.3364  1.9400  0.0543
24920SOL    HW276768   3.647   5.253   5.017  0.2755  0.0158 -0.6802
24921SOL     OW76769   4.555   3.263   4.796 -0.3441 -0.4354 -0.6381
24921SOL    HW176770   4.518   3.351   4.787 -0.4713 -0.5316 -1.0695
24921SOL    HW276771   4.519   3.214   4.722  0.4092 -0.6122 -0.8912
24922SOL     OW76772   5.482   7.320   9.038  0.0896  0.1872 -0.5205
24922SOL    HW176773   5.387   7.325   9.029 -0.0802 -0.9787  0.4276
24922SOL    HW276774   5.499   7.333   9.131  0.8852  0.6989 -0.7242
24923SOL     OW76775   9.956   6.806   0.541 -0.4718 -0.3894 -0.0311
24923SOL    HW176776  10.047   6.820   0.566 -0.1552 -0.1943 -1.2482
24923SOL    HW276777   9.906   6.847   0.612  0.3056 -2.3868  1.8056
24924SOL     OW76778   6.715   5.271   7.711 -0.8810 -0.1337 -0.3888
24924SOL    HW176779   6.792   5.312   7.751 -1.7642  0.9749  0.2137
24924SOL    HW276780   6.735   5.177   7.711  0.2972  0.1040  0.1292
24925SOL     OW76781   6.105   5.683   5.014 -0.3559  0.2774 -0.1580
24925SOL    HW176782   6.126   5.614   5.077 -0.9517 -0.7690 -1.0688
24925SOL    HW276783   6.010   5.690   5.016 -0.3905  0.1809 -0.9863
24926SOL     OW76784   3.442   0.293   5.361  0.7985 -0.1615  0.5400
24926SOL    HW176785   3.376   0.358   5.388  0.5936 -0.9411  2.0008
24926SOL    HW276786   3.436   0.292   5.265  0.2054  1.3412  0.5284
24927SOL     OW76787   9.274   2.766   8.570  0.1144  0.0147  0.3381
24927SOL    HW176788   9.363   2.732   8.582  0.3265  0.1985 -0.6279
24927SOL    HW276789   9.284   2.861   8.571 -0.3744  0.0924  2.2573
24928SOL     OW76790   1.928   6.675   1.586  0.3548 -0.1630  0.0411
24928SOL    HW176791   2.019   6.671   1.616  0.2636 -2.2037  0.1965
24928SOL    HW276792   1.907   6.584   1.562 -1.3953  0.4127 -0.7323
24929SOL     OW76793   6.937   7.633   7.457  0.1305  0.2102 -0.0244
24929SOL    HW176794   7.013   7.672   7.500  0.3742 -1.2701  0.9533
24929SOL    HW276795   6.957   7.539   7.453 -1.0137 -0.0096 -1.0744
24930SOL     OW76796   6.517   4.812   5.873  0.1946 -0.5014 -0.0186
24930SOL    HW176797   6.478   4.764   5.946  1.4053 -0.8745  0.3971
24930SOL    HW276798   6.443   4.831   5.815 -0.5503 -1.5245  0.5594
24931SOL     OW76799   0.833   7.545   7.275 -0.6564  0.4083 -0.0873
24931SOL    HW176800   0.919   7.512   7.249 -1.2661 -0.7607 -0.7276
24931SOL    HW276801   0.852   7.618   7.334  0.8135 -1.0226  1.3581
24932SOL     OW76802  10.878   1.013   5.904  0.2300  0.2958  0.0461
24932SOL    HW176803  10.852   0.983   5.816 -2.2977  1.9307  0.1313
24932SOL    HW276804  10.931   1.091   5.887 -0.7261  0.9386 -0.0505
24933SOL     OW76805   5.965   6.359   6.661  0.3884  0.4585  0.2285
24933SOL    HW176806   5.922   6.327   6.740 -0.1953  0.6795  0.0057
24933SOL    HW276807   5.895   6.401   6.611  1.4123  3.6836  1.2939
24934SOL     OW76808   7.750   6.820   4.086 -0.1827 -0.4149 -0.6851
24934SOL    HW176809   7.718   6.850   4.171  0.8073 -2.9614  0.7051
24934SOL    HW276810   7.697   6.743   4.067 -0.3056  0.0479 -2.3555
24935SOL     OW76811   3.282   2.333   9.486  0.0608  0.3846  0.1898
24935SOL    HW176812   3.377   2.329   9.496  0.1814 -0.0974 -0.9479
24935SOL    HW276813   3.262   2.426   9.479  0.3358  0.5395  1.3305
24936SOL     OW76814   1.018   4.248   3.381  0.5783  0.4646  0.5066
24936SOL    HW176815   0.935   4.214   3.415  1.0058  0.2846  1.4071
24936SOL    HW276816   1.012   4.235   3.286 -0.7144  1.1282  0.4721
24937SOL     OW76817   3.183  11.067   3.188  0.8585 -0.8598  0.1299
24937SOL    HW176818   3.205  11.098   3.276 -0.6022  0.1049  0.1925
24937SOL    HW276819   3.225  10.982   3.181  2.9707  0.0633  0.8813
24938SOL     OW76820   5.895   2.664   8.744 -0.3079 -0.4930  0.4936
24938SOL    HW176821   5.890   2.636   8.835 -0.0701 -1.0702  0.3311
24938SOL    HW276822   5.807   2.696   8.724 -0.9699 -2.3101  0.3070
24939SOL     OW76823   2.252   2.314   3.976  0.2520 -0.3613  0.0892
24939SOL    HW176824   2.332   2.280   3.937  0.3198 -0.7640  0.5742
24939SOL    HW276825   2.182   2.259   3.941  0.1120  0.3548 -0.7874
24940SOL     OW76826   7.193   6.660   5.728  0.6854  0.1126  0.0769
24940SOL    HW176827   7.108   6.617   5.732  1.0333 -0.5305  0.8476
24940SOL    HW276828   7.228   6.638   5.642 -0.5426  1.6023 -0.8457
24941SOL     OW76829   6.294   9.730   4.023 -0.4497  0.0464  0.2301
24941SOL    HW176830   6.368   9.686   4.064 -1.0467 -0.9878  0.2425
24941SOL    HW276831   6.218   9.704   4.076 -0.8963  0.6607 -0.0888
24942SOL     OW76832   0.041   0.757   8.413  0.0626 -0.0117  0.0379
24942SOL    HW176833  -0.047   0.787   8.393  0.0799  0.2787  0.3797
24942SOL    HW276834   0.057   0.787   8.503  0.0530 -1.1103  0.4202
24943SOL     OW76835   7.285   2.976   7.675  0.7436  0.1661  0.1818
24943SOL    HW176836   7.331   3.053   7.708  2.9653  0.3286 -2.8480
24943SOL    HW276837   7.205   3.011   7.635 -0.2214  0.3474  2.1670
24944SOL     OW76838   3.733   3.269   7.930  0.1515 -0.6366  0.3942
24944SOL    HW176839   3.825   3.292   7.945  0.0694  0.2632 -0.4134
24944SOL    HW276840   3.707   3.224   8.010  1.1600 -0.4800  0.8298
24945SOL     OW76841  10.279   2.311   4.166 -0.1062  0.3430 -0.5422
24945SOL    HW176842  10.280   2.229   4.214  0.2142  0.4130 -0.4225
24945SOL    HW276843  10.209   2.362   4.206  0.1552  0.3997 -0.1503
24946SOL     OW76844   5.944   3.652   9.020  0.2218 -0.0473  0.4326
24946SOL    HW176845   6.015   3.605   8.976  1.5717  0.7326  1.6660
24946SOL    HW276846   5.869   3.645   8.961  1.1480 -1.4184 -0.6373
24947SOL     OW76847   2.643   4.520   7.920  0.3157  0.4334 -0.1766
24947SOL    HW176848   2.680   4.454   7.979  2.3165  0.4005 -1.3685
24947SOL    HW276849   2.577   4.473   7.870  0.3158 -0.1556  0.3656
24948SOL     OW76850   6.030   7.670   6.299 -0.1149 -0.4632  0.0483
24948SOL    HW176851   6.030   7.663   6.204  1.0848  1.0434 -0.1115
24948SOL    HW276852   6.112   7.630   6.326  0.4029  0.6766  0.2541
24949SOL     OW76853   6.106   1.191   0.154 -0.4281 -0.2957 -0.1139
24949SOL    HW176854   6.157   1.249   0.210  1.1820 -0.0986 -1.7020
24949SOL    HW276855   6.093   1.241   0.073  0.1352 -1.7448 -1.1459
24950SOL     OW76856   6.902   8.051   9.962  0.2909  0.1719  0.1794
24950SOL    HW176857   6.898   7.979   9.899  1.2884 -0.5471  0.9223
24950SOL    HW276858   6.930   8.126   9.909 -1.2695  0.1913 -0.7080
24951SOL     OW76859   7.166   0.867  10.460  0.3157 -0.2324  0.0762
24951SOL    HW176860   7.211   0.806  10.518  0.3551 -1.6351 -1.3463
24951SOL    HW276861   7.234   0.896  10.399 -0.3690 -1.3781 -1.2993
24952SOL     OW76862   9.218   0.370   5.745  0.1781  0.2204  0.2560
24952SOL    HW176863   9.288   0.416   5.699 -0.2710 -0.8133 -1.5377
24952SOL    HW276864   9.231   0.278   5.722 -2.4318  0.0970 -1.0998
24953SOL     OW76865   6.852   5.992  10.266  0.0169 -0.6509  0.6798
24953SOL    HW176866   6.787   5.993  10.196  0.4549  0.2148  0.2746
24953SOL    HW276867   6.840   6.075  10.312  0.4364 -0.7469  0.9722
24954SOL     OW76868   0.159   5.235  10.824  0.4489 -0.1740  0.1531
24954SOL    HW176869   0.134   5.150  10.860  0.5233 -0.6550 -0.8956
24954SOL    HW276870   0.218   5.214  10.752 -2.3928  0.4759 -2.5928
24955SOL     OW76871   8.287   4.360   0.739  0.6173 -0.7074 -0.3275
24955SOL    HW176872   8.287   4.264   0.739 -2.6816 -0.8400  0.9922
24955SOL    HW276873   8.297   4.384   0.832 -0.1759  0.1131 -0.4303
24956SOL     OW76874   7.250   2.954   6.058 -0.5145 -0.0067 -0.0261
24956SOL    HW176875   7.249   2.964   6.153 -0.3067 -1.2409  0.1229
24956SOL    HW276876   7.341   2.929   6.038 -1.1582 -2.5111 -0.1965
24957SOL     OW76877   7.827   4.805  10.894 -0.0381  0.0608  0.3370
24957SOL    HW176878   7.776   4.756  10.829 -0.6550  0.8328  0.2137
24957SOL    HW276879   7.817   4.756  10.975 -0.0638 -0.3958  0.0596
24958SOL     OW76880  10.363   5.076   4.609 -0.2407  0.1629  0.1763
24958SOL    HW176881  10.369   5.154   4.555  1.0080 -0.1431 -0.1528
24958SOL    HW276882  10.377   5.003   4.549 -0.7405 -0.2948  0.5916
24959SOL     OW76883   8.777   4.363   9.893 -0.6921  0.4069 -0.1580
24959SOL    HW176884   8.751   4.439   9.839 -2.8586  0.3527  0.7294
24959SOL    HW276885   8.775   4.289   9.832  0.7051  0.8937 -0.8551
24960SOL     OW76886   8.230   5.923   5.571  0.1291 -0.2462  0.5805
24960SOL    HW176887   8.286   5.930   5.493  0.0122  0.7713  0.5748
24960SOL    HW276888   8.289   5.941   5.644 -0.0314  0.1207  0.6241
24961SOL     OW76889   5.130   9.073   6.405  0.0218  0.2765  0.1674
24961SOL    HW176890   5.078   9.117   6.473 -0.7058 -0.8678  0.3982
24961SOL    HW276891   5.118   8.979   6.424  0.0805 -0.0536 -1.3372
24962SOL     OW76892   8.967   0.563   8.375  0.6259  0.1530 -0.5648
24962SOL    HW176893   9.029   0.525   8.312  0.7840  1.1313 -1.0216
24962SOL    HW276894   8.886   0.574   8.326  1.0866  2.0215 -0.9911
24963SOL     OW76895   5.086   5.059   4.019  0.4452  0.0356  0.0305
24963SOL    HW176896   5.093   5.101   4.104  0.5713 -0.4940  0.2833
24963SOL    HW276897   5.084   4.965   4.038 -0.0300 -0.0705 -0.5155
24964SOL     OW76898   0.570   4.287   0.958 -0.3519  0.1702 -0.5343
24964SOL    HW176899   0.549   4.247   1.043 -1.3238  2.1586  0.2234
24964SOL    HW276900   0.490   4.277   0.906  0.0571 -0.5623 -1.0287
24965SOL     OW76901  10.689   5.276   9.345  0.1383 -0.2179  0.0787
24965SOL    HW176902  10.681   5.372   9.346  1.6564 -0.0440 -1.0479
24965SOL    HW276903  10.654   5.250   9.260 -2.6590 -0.9887  1.3391
24966SOL     OW76904   8.336   0.258   6.834 -0.1778 -0.1388 -0.1989
24966SOL    HW176905   8.282   0.297   6.903  0.9355 -0.4172  0.8525
24966SOL    HW276906   8.422   0.298   6.846 -0.1487  0.4063 -1.9421
24967SOL     OW76907   4.910   8.049  10.775  0.4064  0.2607 -0.4904
24967SOL    HW176908   4.987   8.010  10.816  1.0013 -1.2419 -2.8480
24967SOL    HW276909   4.837   8.025  10.833  1.2575 -1.3948 -0.0574
24968SOL     OW76910   7.153   9.214   8.327  0.0473  0.7328  0.1485
24968SOL    HW176911   7.236   9.172   8.301 -0.6246 -0.6940  0.1799
24968SOL    HW276912   7.090   9.183   8.261 -0.4030  2.0884 -0.0837
24969SOL     OW76913   5.272   0.844   9.841 -0.2691  0.0077  0.0115
24969SOL    HW176914   5.353   0.844   9.893  0.3772  0.7936 -0.9679
24969SOL    HW276915   5.202   0.844   9.906  0.4640  3.6599  1.0371
24970SOL     OW76916   7.255   7.619   7.666  0.2637 -0.4174  0.4238
24970SOL    HW176917   7.335   7.638   7.716 -0.2966 -0.2164  1.2641
24970SOL    HW276918   7.234   7.528   7.690  0.4678 -0.6175 -0.1311
24971SOL     OW76919   9.051   0.011   6.884  0.2813 -0.4950 -0.1560
24971SOL    HW176920   9.008  -0.031   6.958  0.9659  2.1019  1.8946
24971SOL    HW276921   8.980   0.057   6.838  0.0980 -0.7194 -0.0994
24972SOL     OW76922   5.059   0.414   0.697  0.6605  0.1584  0.4041
24972SOL    HW176923   5.064   0.326   0.659  1.8519  0.6654 -0.6843
24972SOL    HW276924   4.992   0.407   0.765  1.5793 -1.8977  1.1846
24973SOL     OW76925   1.509   6.560   2.650 -0.0019  0.0395 -0.1851
24973SOL    HW176926   1.497   6.558   2.745 -0.6904 -0.9505 -0.2760
24973SOL    HW276927   1.420   6.565   2.615  0.2658  0.9257 -0.7816
24974SOL     OW76928   7.755   5.139   7.960 -0.0963  0.3220  0.4021
24974SOL    HW176929   7.689   5.075   7.936 -0.0509  0.8452 -1.2924
24974SOL    HW276930   7.707   5.222   7.968  0.2355  0.5955 -0.2847
24975SOL     OW76931   2.625   0.703   6.158  0.6536 -0.1307 -0.0555
24975SOL    HW176932   2.617   0.610   6.180 -1.5603  0.1263  0.4453
24975SOL    HW276933   2.681   0.740   6.226 -0.2084 -0.7134  0.9919
24976SOL     OW76934   5.721   4.633   7.253 -0.1447  0.0617 -0.4721
24976SOL    HW176935   5.729   4.679   7.169  0.2437  1.6704  0.4126
24976SOL    HW276936   5.773   4.686   7.314  0.6036 -1.7541  0.5299
24977SOL     OW76937   3.690   9.820   8.820 -0.4934 -0.0593  0.4415
24977SOL    HW176938   3.599   9.843   8.836 -1.1759 -1.0307 -1.6022
24977SOL    HW276939   3.688   9.726   8.802  0.6991  0.1201 -0.8123
24978SOL     OW76940   9.535   7.182   0.391  0.9273 -0.7592  0.0672
24978SOL    HW176941   9.495   7.259   0.351 -0.3201 -0.8904  0.9975
24978SOL    HW276942   9.589   7.144   0.322 -1.6895 -1.3862 -1.7959
24979SOL     OW76943  10.986   1.142   7.243 -0.5358  0.0136 -0.2666
24979SOL    HW176944  11.070   1.097   7.246  0.3684  1.6687  1.9456
24979SOL    HW276945  10.930   1.095   7.304  0.0750  1.1655  1.2377
24980SOL     OW76946   4.961   3.862   7.019 -0.2125  0.0510  0.5832
24980SOL    HW176947   4.956   3.813   7.101 -2.3361 -2.6484 -0.9786
24980SOL    HW276948   4.873   3.898   7.007 -0.0395  0.1263 -0.6555
24981SOL     OW76949   8.909   4.537   7.784 -0.0682  0.2804 -0.4167
24981SOL    HW176950   8.887   4.625   7.752  0.2520  0.8467  0.8321
24981SOL    HW276951   9.004   4.532   7.773  0.1684  0.8018  1.1040
24982SOL     OW76952   9.080   3.977   7.148  0.5939  0.2877  0.7616
24982SOL    HW176953   9.003   3.979   7.091  0.2318 -0.6991  1.2025
24982SOL    HW276954   9.145   4.032   7.103  0.0938  0.0433 -0.2824
24983SOL     OW76955   7.982   2.057   6.824 -0.1263 -0.0634 -0.5298
24983SOL    HW176956   7.976   2.146   6.859  0.3007 -0.6290  1.0856
24983SOL    HW276957   7.900   2.043   6.777 -0.1954  1.1717 -0.8014
24984SOL     OW76958   2.712   4.594   5.376 -0.5219 -0.4269 -0.1116
24984SOL    HW176959   2.650   4.646   5.426 -0.1234  0.7246 -0.7771
24984SOL    HW276960   2.750   4.533   5.439 -1.6283 -0.4997  0.4910
24985SOL     OW76961   1.602   7.295   3.076  0.4028 -0.6701 -0.1943
24985SOL    HW176962   1.545   7.327   3.006 -1.7530  1.7170  2.4037
24985SOL    HW276963   1.560   7.214   3.105  1.9041 -2.2643 -2.2113
24986SOL     OW76964   4.903   2.241   4.874 -0.2109  0.3615  0.4519
24986SOL    HW176965   4.986   2.247   4.922 -0.5313 -0.3856  1.1083
24986SOL    HW276966   4.912   2.161   4.821 -0.8245 -0.1653  1.1345
24987SOL     OW76967   5.335   3.782   5.848 -0.3749 -0.2095  0.2221
24987SOL    HW176968   5.382   3.847   5.899 -1.9715  0.8969  0.3715
24987SOL    HW276969   5.253   3.825   5.824 -0.7183 -1.5508 -1.2129
24988SOL     OW76970   4.974   2.520   6.957  0.0064 -0.2438  0.0359
24988SOL    HW176971   4.886   2.487   6.935  1.5519 -3.1015 -2.6753
24988SOL    HW276972   4.997   2.575   6.882  0.7255  0.1236  0.5224
24989SOL     OW76973   7.266   7.533   4.789 -0.2263  0.1520  0.2155
24989SOL    HW176974   7.315   7.587   4.850 -0.2826  1.9949 -1.2628
24989SOL    HW276975   7.292   7.565   4.702 -0.6212 -1.9161 -0.7281
24990SOL     OW76976  10.148   8.490   5.234  0.7341 -0.1994  0.0223
24990SOL    HW176977  10.136   8.510   5.327  1.7533 -1.0105  0.3485
24990SOL    HW276978  10.125   8.397   5.226 -1.9827  0.4475 -1.0862
24991SOL     OW76979   8.018   7.346   2.708  0.8252  0.0602  0.3843
24991SOL    HW176980   8.095   7.383   2.666 -0.4654  3.4446  0.6890
24991SOL    HW276981   8.016   7.385   2.795 -0.9461 -0.3461  0.5701
24992SOL     OW76982   8.630   1.101   2.270 -0.1108 -0.1918  0.2510
24992SOL    HW176983   8.674   1.137   2.348 -0.5042  0.6689  0.0908
24992SOL    HW276984   8.551   1.059   2.305 -0.1380 -0.0570  0.3574
24993SOL     OW76985   9.892   3.759   9.060  0.3163  0.6829 -0.0790
24993SOL    HW176986   9.918   3.836   9.110  0.0853  1.6728 -1.4257
24993SOL    HW276987   9.922   3.777   8.971 -0.0159 -0.6487 -0.4800
24994SOL     OW76988   1.481   3.642   3.027 -0.1025 -0.0958  0.1010
24994SOL    HW176989   1.505   3.728   2.992 -1.2602  0.9114  1.6224
24994SOL    HW276990   1.545   3.626   3.096 -0.5812  0.1124  0.6034
24995SOL     OW76991   9.142   6.825   2.068 -0.1323  0.4181  0.6101
24995SOL    HW176992   9.226   6.780   2.061 -0.7777 -0.7643  0.0197
24995SOL    HW276993   9.125   6.830   2.162 -0.0628 -0.6435  0.6882
24996SOL     OW76994   5.333   6.117   7.833  0.1088  0.1838  0.3512
24996SOL    HW176995   5.395   6.063   7.783 -0.1707  0.9815 -0.8713
24996SOL    HW276996   5.297   6.178   7.770 -2.2646 -0.5144  0.9275
24997SOL     OW76997  10.278   5.392   7.530 -0.8087 -0.0431 -0.1183
24997SOL    HW176998  10.357   5.394   7.584 -0.6606  0.4220 -0.3464
24997SOL    HW276999  10.223   5.462   7.566 -1.0261 -0.2226 -0.0990
24998SOL     OW77000   9.438   4.179   8.053  0.1863  0.0718 -0.5548
24998SOL    HW177001   9.451   4.201   7.960 -1.3727  2.7361 -0.2312
24998SOL    HW277002   9.393   4.095   8.051  0.5514 -0.1345 -2.1795
24999SOL     OW77003   9.478   9.373   4.075 -0.6606 -0.5007  0.3072
24999SOL    HW177004   9.540   9.301   4.060  0.8799  1.0761 -1.6376
24999SOL    HW277005   9.534   9.451   4.079 -2.4591  0.9541 -1.0918
25000SOL     OW77006   4.789   1.780   4.965 -0.5359 -0.2500  0.5509
25000SOL    HW177007   4.836   1.758   4.885 -1.9897  1.3323 -0.8297
25000SOL    HW277008   4.783   1.698   5.014  0.3885 -1.2507 -0.9559
25001SOL     OW77009   7.362   0.609   7.774 -0.1683 -0.0664 -0.0798
25001SOL    HW177010   7.422   0.569   7.711 -2.5211 -0.2615 -2.4145
25001SOL    HW277011   7.377   0.703   7.766 -0.1976 -0.1109 -0.7008
25002SOL     OW77012  10.332   0.789   8.303 -0.2358 -0.5860 -0.2493
25002SOL    HW177013  10.250   0.743   8.285 -0.4890 -0.3178  0.2057
25002SOL    HW277014  10.376   0.736   8.369  0.1797 -0.9796 -0.8342
25003SOL     OW77015   8.314   7.391   0.474  0.0418  0.1895  0.2174
25003SOL    HW177016   8.370   7.340   0.416  0.1324  0.4015  0.1162
25003SOL    HW277017   8.365   7.399   0.555  0.1420  0.3492  0.1388
25004SOL     OW77018   7.157   3.986   6.490  0.4381 -0.0177 -0.3701
25004SOL    HW177019   7.211   3.922   6.536 -3.0582 -2.6361  0.5110
25004SOL    HW277020   7.163   3.961   6.398  1.1848  0.1188 -0.3616
25005SOL     OW77021   5.526   4.244   8.055 -0.3282  0.4689  0.4238
25005SOL    HW177022   5.460   4.206   7.997  0.0196  0.2424  0.1748
25005SOL    HW277023   5.599   4.182   8.052 -0.4103  0.3148  1.3089
25006SOL     OW77024   5.863   8.691   5.806 -0.5600 -0.2167  0.2642
25006SOL    HW177025   5.849   8.756   5.874  0.7910 -0.0059  0.3693
25006SOL    HW277026   5.957   8.676   5.806 -0.7337 -1.4626 -0.4201
25007SOL     OW77027   6.702   3.697  10.813  0.4548  0.3277  0.9365
25007SOL    HW177028   6.760   3.623  10.827  0.4081  0.2010  0.4718
25007SOL    HW277029   6.614   3.659  10.812  0.5651 -0.3381 -3.4686
25008SOL     OW77030   6.883   2.925   5.451  0.0162  0.2394  0.0842
25008SOL    HW177031   6.949   2.949   5.516  0.5113  2.1010 -1.0259
25008SOL    HW277032   6.931   2.922   5.368 -0.3848 -3.1146 -0.1508
25009SOL     OW77033   6.519   3.296   6.331  0.3504  0.3526  0.1997
25009SOL    HW177034   6.438   3.296   6.280  0.2196 -0.8096  0.3802
25009SOL    HW277035   6.519   3.380   6.375 -0.9798  0.2125  0.5179
25010SOL     OW77036  10.026   2.704   9.402  0.0012  0.0511  0.3231
25010SOL    HW177037  10.053   2.795   9.393  1.5046 -0.2716  1.0560
25010SOL    HW277038   9.998   2.696   9.493 -1.8743  0.1690 -0.2066
25011SOL     OW77039   6.579   5.482   5.088  0.1627 -0.0808  0.1120
25011SOL    HW177040   6.666   5.518   5.071  0.5286 -1.3793 -0.9708
25011SOL    HW277041   6.589   5.436   5.171  0.4248  0.0593  0.1615
25012SOL     OW77042   4.275   8.968   7.586  0.3373  0.0032  0.4858
25012SOL    HW177043   4.319   8.898   7.633 -0.4123 -1.5892 -1.0684
25012SOL    HW277044   4.328   8.982   7.508  1.9373  3.0765  1.9535
25013SOL     OW77045   0.103   5.030   3.757  0.1195  0.1642  0.2868
25013SOL    HW177046   0.045   5.103   3.777  0.9890  0.8553  0.3676
25013SOL    HW277047   0.109   4.980   3.838 -0.7471 -0.2047  0.1352
25014SOL     OW77048  10.435   3.289   3.863  0.4281  0.0956 -0.0575
25014SOL    HW177049  10.411   3.364   3.808 -0.7089 -1.5395 -1.9161
25014SOL    HW277050  10.452   3.327   3.949  1.4607  2.6755 -1.2963
25015SOL     OW77051   6.754   8.650   6.578 -0.0598 -0.3065 -0.2001
25015SOL    HW177052   6.833   8.632   6.526  0.1924  1.5643 -0.5361
25015SOL    HW277053   6.787   8.691   6.658 -0.6046 -0.9269  0.3433
25016SOL     OW77054   5.750   3.789   5.162  0.0725  0.0010 -0.3800
25016SOL    HW177055   5.819   3.843   5.201  1.1798 -0.4079 -1.6731
25016SOL    HW277056   5.691   3.853   5.121  1.6316  0.3040 -2.3189
25017SOL     OW77057   6.114   3.705   7.921 -0.0923 -0.0341  0.0120
25017SOL    HW177058   6.028   3.689   7.882  0.0387  1.7737 -1.1271
25017SOL    HW277059   6.172   3.641   7.880 -0.6293 -0.3963 -0.1940
25018SOL     OW77060   9.040   6.737   2.323 -0.4463 -0.1119  0.0598
25018SOL    HW177061   9.015   6.723   2.414 -0.0072  0.8686  0.3484
25018SOL    HW277062   8.960   6.722   2.273 -0.7173 -0.5315  0.6213
25019SOL     OW77063   7.309   6.047   8.584 -0.2126 -0.6186 -0.2576
25019SOL    HW177064   7.403   6.065   8.582  0.0458 -1.6218  1.2500
25019SOL    HW277065   7.268   6.132   8.600  0.7660 -0.6846  3.4450
25020SOL     OW77066   5.000   2.066   6.464  0.0992 -0.3031  0.4056
25020SOL    HW177067   4.919   2.022   6.490 -0.1198 -0.7750 -0.9734
25020SOL    HW277068   5.033   2.013   6.391  1.2930  0.2705  0.5171
25021SOL     OW77069   6.399   2.733   6.030  0.1786  0.9888  0.2633
25021SOL    HW177070   6.391   2.709   5.938 -0.2467 -0.2915  0.6092
25021SOL    HW277071   6.487   2.771   6.037 -0.6061  3.2562 -1.0869
25022SOL     OW77072   4.369   3.088   9.932  0.4194  0.1772 -0.3487
25022SOL    HW177073   4.455   3.046   9.932  0.5278  0.3367 -1.8145
25022SOL    HW277074   4.376   3.157   9.998  0.6647 -1.2165  1.1308
25023SOL     OW77075   2.436  10.401  10.541  0.3707  0.2212 -0.0717
25023SOL    HW177076   2.346  10.416  10.571  0.8091  0.8763  0.9935
25023SOL    HW277077   2.439  10.308  10.519 -1.2327  0.6758 -2.5522
25024SOL     OW77078   4.291   0.956   5.387  0.0900 -0.4644  0.2057
25024SOL    HW177079   4.212   1.004   5.412 -0.0474 -0.2130 -0.6876
25024SOL    HW277080   4.358   0.988   5.448 -0.0419  0.7289 -0.2531
25025SOL     OW77081   8.441   8.272   7.797  0.1595  0.2713  0.5060
25025SOL    HW177082   8.526   8.258   7.839  0.6035  0.4851 -0.2966
25025SOL    HW277083   8.402   8.345   7.845  0.6364  0.4859  0.5702
25026SOL     OW77084   4.402   5.931   7.641  0.1054  0.4792 -0.1367
25026SOL    HW177085   4.484   5.882   7.635  2.0873  3.3711  1.0387
25026SOL    HW277086   4.342   5.872   7.686  1.4555 -1.7804 -1.1253
25027SOL     OW77087   4.554   4.390   4.730  0.8039 -0.4314 -0.2245
25027SOL    HW177088   4.510   4.475   4.742  1.1351 -0.5432  2.1044
25027SOL    HW277089   4.629   4.393   4.790  1.2747 -2.0833 -0.6893
25028SOL     OW77090   6.285   9.603   0.060 -0.0842  0.1209  0.6719
25028SOL    HW177091   6.245   9.588  -0.026  2.3892 -0.6725 -0.4170
25028SOL    HW277092   6.271   9.521   0.107 -1.8033  0.6942  1.2684
25029SOL     OW77093   8.910   1.098   5.831 -0.4039 -0.4612 -0.7552
25029SOL    HW177094   8.956   1.149   5.897 -0.8720  1.0934 -1.5879
25029SOL    HW277095   8.971   1.027   5.808  0.5922  0.1836 -0.1623
25030SOL     OW77096   4.776   2.270   9.260 -0.2337  0.4100  0.3104
25030SOL    HW177097   4.771   2.205   9.190  2.5517  0.0851  0.3128
25030SOL    HW277098   4.807   2.222   9.336  1.2852  1.5835  0.4841
25031SOL     OW77099   6.541   2.599   8.743  0.2361 -0.3897  0.0487
25031SOL    HW177100   6.614   2.547   8.775 -0.2126 -0.5421  0.8334
25031SOL    HW277101   6.484   2.610   8.818  0.0484  0.7755 -0.2404
25032SOL     OW77102   6.851  10.694   8.905  0.3553  0.4912 -0.2330
25032SOL    HW177103   6.818  10.651   8.984  0.5637  0.1553 -0.3300
25032SOL    HW277104   6.935  10.653   8.888 -1.3374 -2.3546 -2.8905
25033SOL     OW77105   9.010   2.717   7.590 -0.2687  0.2992  0.2048
25033SOL    HW177106   8.920   2.686   7.578  0.2533 -1.8803  1.4733
25033SOL    HW277107   9.005   2.778   7.663 -0.5608 -0.6878  1.0209
25034SOL     OW77108   7.160   1.596   7.991 -0.4905 -0.3766 -0.0532
25034SOL    HW177109   7.147   1.613   8.085 -2.5239 -0.0418 -0.3521
25034SOL    HW277110   7.099   1.526   7.971  0.4524 -0.9530 -1.0084
25035SOL     OW77111   1.074   0.607   1.271 -0.5633 -0.8603 -0.1374
25035SOL    HW177112   1.112   0.592   1.357 -1.9615  0.2136  0.7107
25035SOL    HW277113   1.015   0.533   1.257 -1.6948 -0.1396  0.6585
25036SOL     OW77114   8.204  10.964   7.318 -0.1896 -0.0380  0.2655
25036SOL    HW177115   8.178  10.977   7.410 -0.3002  0.8969  0.1133
25036SOL    HW277116   8.136  11.009   7.268 -1.2145 -2.2079 -0.3780
25037SOL     OW77117   2.057   2.584   3.005  0.0360  0.4864  0.4627
25037SOL    HW177118   2.047   2.490   2.993  2.1978  0.1626  0.8307
25037SOL    HW277119   2.010   2.623   2.931  1.6422 -0.9763 -1.4318
25038SOL     OW77120   7.777  11.054   8.056 -0.0225  0.8711 -0.1573
25038SOL    HW177121   7.829  11.098   8.124  0.5721 -0.2277  0.1070
25038SOL    HW277122   7.828  10.978   8.031 -0.7697  0.6402 -1.0479
25039SOL     OW77123   3.893  10.852   5.120 -0.1374 -0.3752 -0.0062
25039SOL    HW177124   3.957  10.861   5.190  0.5278  0.5406 -0.7129
25039SOL    HW277125   3.858  10.764   5.131  0.2413 -0.3994  1.2208
25040SOL     OW77126  10.394   8.593   2.548  0.1371  0.1184 -0.1789
25040SOL    HW177127  10.353   8.661   2.602 -2.4636 -0.4305 -1.3359
25040SOL    HW277128  10.389   8.514   2.600 -0.0090  0.1115 -0.2035
25041SOL     OW77129   5.185   8.977   0.685 -0.0333  0.1581  0.1312
25041SOL    HW177130   5.236   8.990   0.605 -0.7417 -0.3527 -0.4236
25041SOL    HW277131   5.095   8.964   0.653  0.0107 -2.4056  0.8256
25042SOL     OW77132   4.662   1.526   3.580 -0.4581 -0.5775  0.3478
25042SOL    HW177133   4.739   1.479   3.609 -0.1989 -0.2134  0.2554
25042SOL    HW277134   4.615   1.547   3.660  0.4615  0.7798  0.5613
25043SOL     OW77135   8.804   8.611   6.090  0.4603  0.2790 -0.1804
25043SOL    HW177136   8.835   8.701   6.079  0.4297  0.3343  0.1731
25043SOL    HW277137   8.826   8.588   6.180  0.1105  0.0729 -0.1420
25044SOL     OW77138   3.273   2.447   1.782  0.6405  0.1382  0.0571
25044SOL    HW177139   3.250   2.536   1.805 -0.9323 -0.3670  0.5367
25044SOL    HW277140   3.202   2.418   1.725  2.2324 -0.1004 -1.9245
25045SOL     OW77141   2.608  10.665   4.032  0.8072  0.5269  0.3360
25045SOL    HW177142   2.626  10.744   3.981  1.3763 -0.8327 -1.6968
25045SOL    HW277143   2.514  10.668   4.048  1.0611  2.4434  1.8215
25046SOL     OW77144   6.187   5.207   5.370  0.5051 -0.4224  0.0406
25046SOL    HW177145   6.275   5.171   5.380  1.2962  1.4695  0.2994
25046SOL    HW277146   6.133   5.132   5.345  1.5335 -2.2808  2.9531
25047SOL     OW77147   4.146   0.085   1.421 -0.6835  0.2139  0.4353
25047SOL    HW177148   4.123   0.135   1.342 -0.6918 -1.5330 -0.7258
25047SOL    HW277149   4.193   0.148   1.476 -1.2120  1.6552 -0.6777
25048SOL     OW77150   7.165   8.947   8.566  0.9194  0.1452 -0.1840
25048SOL    HW177151   7.087   8.917   8.521  1.7010  0.0147 -1.4965
25048SOL    HW277152   7.143   9.034   8.598  1.0609  1.2189 -2.8108
25049SOL     OW77153   8.315   4.804   5.704  0.0421  0.3140 -0.0655
25049SOL    HW177154   8.406   4.811   5.731  0.9569 -2.2455 -1.9971
25049SOL    HW277155   8.302   4.875   5.642  0.3319  1.3770  1.0633
25050SOL     OW77156   9.692  10.167   9.354 -0.2160  0.2557  0.1529
25050SOL    HW177157   9.641  10.229   9.407 -2.4033 -1.3562  0.0944
25050SOL    HW277158   9.671  10.189   9.264  1.7860  1.5952 -0.0471
25051SOL     OW77159   7.507   7.197  10.866  0.6371  0.5253 -0.0902
25051SOL    HW177160   7.439   7.211  10.932  0.9773 -1.8540  0.8634
25051SOL    HW277161   7.489   7.109  10.832  0.2091  1.7954 -3.5487
25052SOL     OW77162   6.322   6.276   8.828  0.2485  0.2058  0.3598
25052SOL    HW177163   6.292   6.307   8.743 -1.0234 -0.2188  0.6388
25052SOL    HW277164   6.372   6.350   8.864  1.9187 -0.0608 -1.2706
25053SOL     OW77165   7.765   8.640   8.672 -0.0268 -0.1091 -0.4909
25053SOL    HW177166   7.712   8.569   8.708  0.1816  0.1315  0.2979
25053SOL    HW277167   7.853   8.602   8.665 -0.0618 -0.1490 -0.7508
25054SOL     OW77168   7.118   6.910   6.478  0.6406 -0.1006 -0.4999
25054SOL    HW177169   7.174   6.845   6.520 -1.1828 -0.3690  1.7248
25054SOL    HW277170   7.030   6.873   6.484 -0.5503  2.7113  1.2461
25055SOL     OW77171   4.213   2.211   3.569  0.5117  0.4286  0.1513
25055SOL    HW177172   4.127   2.236   3.604  1.4935  2.4712  1.3066
25055SOL    HW277173   4.245   2.291   3.527  0.6830 -1.0926 -2.9391
25056SOL     OW77174   8.404   8.252   0.014 -0.5241  0.7388 -0.0941
25056SOL    HW177175   8.346   8.209  -0.048 -0.5926  0.9720 -0.1939
25056SOL    HW277176   8.386   8.345   0.003 -0.2695  0.8018  0.0121
25057SOL     OW77177   1.498   6.818   8.870  0.0466  0.2023 -0.3965
25057SOL    HW177178   1.515   6.734   8.913 -0.8381 -0.3738 -1.1518
25057SOL    HW277179   1.424   6.802   8.813 -0.7917  1.7611  0.1896
25058SOL     OW77180   7.538   9.725   3.109  0.0560 -0.3111  0.3287
25058SOL    HW177181   7.443   9.713   3.107 -0.2283  1.5985  0.2405
25058SOL    HW277182   7.573   9.637   3.123 -1.6359 -1.3439 -1.3921
25059SOL     OW77183   9.174   0.003   6.538 -0.7460  0.3684  0.3157
25059SOL    HW177184   9.265  -0.025   6.545 -1.4501 -2.3082  0.1029
25059SOL    HW277185   9.126  -0.055   6.597 -2.3094  1.9354  0.6859
25060SOL     OW77186   1.271   4.070   0.945 -0.0283 -0.1883 -0.8324
25060SOL    HW177187   1.218   4.076   0.866 -0.5953 -1.3411 -0.5582
25060SOL    HW277188   1.209   4.044   1.013  1.1634 -3.6844 -0.8972
25061SOL     OW77189   4.666   4.967   0.001 -0.3973  0.2625 -0.0428
25061SOL    HW177190   4.615   4.901  -0.046 -0.7006  0.0871  0.5181
25061SOL    HW277191   4.600   5.016   0.051 -0.1591  0.8880 -0.3259
25062SOL     OW77192   4.473   4.386   7.219 -0.2223  0.8255  0.1638
25062SOL    HW177193   4.512   4.426   7.297 -0.1601 -0.7356  0.9681
25062SOL    HW277194   4.548   4.366   7.163 -0.2788  2.0953 -0.4035
25063SOL     OW77195   0.233   4.475   6.388  0.3185 -0.0042  0.1258
25063SOL    HW177196   0.226   4.446   6.297 -4.0354  0.0550  0.2176
25063SOL    HW277197   0.210   4.567   6.385 -4.5832 -0.9080  1.4676
25064SOL     OW77198   3.406   0.549   1.132 -0.4758  0.2092  0.5612
25064SOL    HW177199   3.322   0.504   1.141 -0.5996  0.4512  0.6132
25064SOL    HW277200   3.471   0.482   1.155 -0.5875 -0.3088 -0.5551
25065SOL     OW77201   7.365   6.582   7.672  0.1696 -0.2152  0.3725
25065SOL    HW177202   7.390   6.558   7.761 -0.1832 -0.4509  0.4094
25065SOL    HW277203   7.426   6.652   7.648 -0.5880  0.8148  1.3016
25066SOL     OW77204   3.257   7.071  10.402 -0.0371 -0.1106 -0.2290
25066SOL    HW177205   3.275   7.135  10.333 -1.2179  0.5475  0.0322
25066SOL    HW277206   3.181   7.023  10.370 -1.4880  1.1371  1.1567
25067SOL     OW77207   1.358   4.676   7.901 -0.4285 -0.1238 -0.8183
25067SOL    HW177208   1.406   4.722   7.970 -1.8730  1.1820 -0.6226
25067SOL    HW277209   1.371   4.583   7.920  0.4864  0.2132  0.2890
25068SOL     OW77210   8.851   6.348   4.074  0.1998 -0.1919  0.4795
25068SOL    HW177211   8.819   6.349   3.984 -2.5087  2.2197  1.3392
25068SOL    HW277212   8.863   6.255   4.094  1.1533 -0.7776 -2.3979
25069SOL     OW77213   5.091   6.550   2.984 -0.2305  0.4087  0.1506
25069SOL    HW177214   5.179   6.536   3.018 -0.7453 -0.1480  1.2970
25069SOL    HW277215   5.054   6.618   3.039 -1.3461 -1.0435  1.2649
25070SOL     OW77216   1.667   1.376   7.989  0.3546  0.1577  0.2019
25070SOL    HW177217   1.759   1.398   8.003  0.4416  0.0248 -0.1433
25070SOL    HW277218   1.646   1.417   7.905 -0.0199  0.5461  0.4817
25071SOL     OW77219  10.007   7.255   7.716  0.6457 -0.5819 -0.3424
25071SOL    HW177220  10.097   7.242   7.745  0.7233 -0.6829 -0.6349
25071SOL    HW277221   9.978   7.169   7.688  0.2517 -0.6787  0.3328
25072SOL     OW77222   6.767   3.577   0.579 -0.1193  0.6693 -0.2461
25072SOL    HW177223   6.698   3.569   0.513 -0.2238  0.9284 -0.1711
25072SOL    HW277224   6.840   3.528   0.543 -1.6121 -3.2095  1.4668
25073SOL     OW77225   7.885   1.104   3.213  0.5572  0.1502  0.4951
25073SOL    HW177226   7.873   1.013   3.241  1.1697  0.2180  1.0007
25073SOL    HW277227   7.815   1.152   3.256  0.2440 -0.0747  0.2437
25074SOL     OW77228   9.389   7.815   5.488  0.1674  0.4924  0.1682
25074SOL    HW177229   9.471   7.767   5.479 -0.1664 -0.5058  1.8881
25074SOL    HW277230   9.374   7.819   5.583 -3.3767 -2.2385 -0.0529
25075SOL     OW77231   8.099   4.246   8.813  0.4645  0.1323  0.6761
25075SOL    HW177232   8.095   4.314   8.880  0.0280 -0.7761  1.6006
25075SOL    HW277233   8.185   4.256   8.773  0.4698  1.1123  0.9123
25076SOL     OW77234   8.120   9.792   7.483 -0.4990 -0.2324  0.1510
25076SOL    HW177235   8.215   9.781   7.497 -0.6326 -0.0581  1.3329
25076SOL    HW277236   8.107   9.774   7.390  0.9205  1.2168 -0.3804
25077SOL     OW77237   2.970   8.516   2.134  0.0993  0.1090  0.2944
25077SOL    HW177238   3.019   8.537   2.213  0.2975  1.2821 -0.1111
25077SOL    HW277239   3.036   8.483   2.073  0.4127  1.6126 -0.2241
25078SOL     OW77240   0.301   8.206   1.627  0.6023  0.2763 -0.3067
25078SOL    HW177241   0.269   8.138   1.685 -2.1827  1.2177 -0.5867
25078SOL    HW277242   0.294   8.169   1.539  0.6094  0.3761 -0.3501
25079SOL     OW77243   0.198   6.340   0.224  0.1089 -0.2755 -0.6586
25079SOL    HW177244   0.161   6.276   0.164 -1.7229  0.5201 -0.4566
25079SOL    HW277245   0.234   6.409   0.168  1.8173 -1.2861 -0.8671
25080SOL     OW77246   3.226   9.010   2.068 -0.3645  0.1453 -0.5431
25080SOL    HW177247   3.204   9.078   2.005 -0.7459  0.3869 -0.1546
25080SOL    HW277248   3.311   9.037   2.104 -0.7290  0.6583 -0.0607
25081SOL     OW77249   9.624   2.687   6.653 -0.0750 -0.6098  0.2488
25081SOL    HW177250   9.706   2.677   6.605 -0.1025  1.8687 -0.4538
25081SOL    HW277251   9.649   2.732   6.734 -0.7367  0.2569 -0.0180
25082SOL     OW77252   7.266   0.747   5.791  0.1381  0.4442  0.4442
25082SOL    HW177253   7.320   0.804   5.846  2.5152 -0.2935 -0.9796
25082SOL    HW277254   7.281   0.659   5.826 -0.4177  0.2679  0.2388
25083SOL     OW77255   3.410  10.207   7.621  0.2462  0.5204 -0.8439
25083SOL    HW177256   3.341  10.272   7.606  0.3925  0.8136 -0.2807
25083SOL    HW277257   3.362  10.127   7.644  0.0951  0.9213  0.3067
25084SOL     OW77258   3.047   5.264   7.519  0.1516 -0.2413  0.1790
25084SOL    HW177259   2.954   5.249   7.498 -0.1145 -1.5031  1.9191
25084SOL    HW277260   3.045   5.323   7.595  0.7636 -0.2416  0.1993
25085SOL     OW77261   6.466   5.839  10.042 -0.7152  0.0379 -0.7092
25085SOL    HW177262   6.544   5.880  10.006 -1.6024  1.7913 -0.7093
25085SOL    HW277263   6.473   5.854  10.137 -0.8921 -0.0806 -0.6769
25086SOL     OW77264  10.928   6.468  10.089 -0.2905  0.1680 -0.1776
25086SOL    HW177265  10.867   6.487  10.017  0.4787 -0.1871 -0.9399
25086SOL    HW277266  11.013   6.463  10.047  0.5464  2.2812  1.1062
25087SOL     OW77267   9.283   6.262   8.550  0.1892 -0.0331  0.0327
25087SOL    HW177268   9.204   6.235   8.596 -0.3992 -0.9430 -1.4407
25087SOL    HW277269   9.255   6.274   8.459  1.7789 -0.5327 -0.5615
25088SOL     OW77270   8.263   4.946   1.921  0.1486 -0.1430  0.3030
25088SOL    HW177271   8.337   4.975   1.974 -1.3227  1.0461  1.7924
25088SOL    HW277272   8.202   4.907   1.983 -0.5189 -1.0766 -0.8885
25089SOL     OW77273   9.418   2.792   5.865 -0.3699 -0.7238  0.4432
25089SOL    HW177274   9.398   2.860   5.929  1.2497 -0.9367  1.2169
25089SOL    HW277275   9.401   2.710   5.911  0.5935 -0.8725  0.5597
25090SOL     OW77276   1.822   2.699   7.466  0.3077  0.6622  0.5597
25090SOL    HW177277   1.807   2.676   7.375 -0.3889 -0.6606  0.9840
25090SOL    HW277278   1.756   2.766   7.485 -0.4429 -0.0425  0.4626
25091SOL     OW77279   0.773   6.209   9.737  0.7144 -0.1374 -0.0414
25091SOL    HW177280   0.806   6.295   9.714  0.6823  0.8696  3.1485
25091SOL    HW277281   0.691   6.200   9.688  0.2174  2.0974  0.3088
25092SOL     OW77282   9.087   7.089   7.988 -0.0961 -0.4744  0.3851
25092SOL    HW177283   9.149   7.113   7.919 -0.7291  0.3545  0.0901
25092SOL    HW277284   9.115   7.002   8.016  0.7535 -0.4177 -0.2481
25093SOL     OW77285   7.430   7.168   7.910  0.2638  0.0024 -0.4404
25093SOL    HW177286   7.513   7.160   7.863  0.9536  1.0071  0.5607
25093SOL    HW277287   7.437   7.106   7.983  0.0145 -0.1016 -0.5015
25094SOL     OW77288   4.296   5.405   0.433  0.1951 -0.1084 -0.0689
25094SOL    HW177289   4.283   5.474   0.368 -2.7012 -1.1826 -0.7700
25094SOL    HW277290   4.263   5.326   0.391  0.7231 -1.3611  1.7595
25095SOL     OW77291   8.917   0.049   0.570  0.0249 -0.3931 -0.1205
25095SOL    HW177292   8.909   0.047   0.474 -2.5741 -0.8348  0.0362
25095SOL    HW277293   8.994  -0.006   0.589  0.3752 -0.5859 -1.9119
25096SOL     OW77294   1.466   2.243  10.024 -0.1192  0.2702  0.3024
25096SOL    HW177295   1.487   2.226  10.116 -1.3117 -1.2619  0.3358
25096SOL    HW277296   1.515   2.322  10.002 -0.3365  1.0564  2.4410
25097SOL     OW77297   7.877   4.946   2.948 -0.1323 -0.7707  0.1886
25097SOL    HW177298   7.784   4.957   2.966  0.0118 -0.5392  0.8032
25097SOL    HW277299   7.915   5.032   2.965  0.3370 -1.1078  0.8742
25098SOL     OW77300   7.847  10.515   8.939 -0.1737 -0.5280  0.2392
25098SOL    HW177301   7.940  10.502   8.925 -0.2456 -1.3460  0.4406
25098SOL    HW277302   7.812  10.426   8.949 -0.7661 -0.1883  1.4484
25099SOL     OW77303   7.411   6.158   5.883 -0.6797  0.3148  0.5436
25099SOL    HW177304   7.324   6.117   5.882 -0.3642 -0.3898 -1.1820
25099SOL    HW277305   7.394   6.252   5.882 -1.4589  0.1852 -1.0351
25100SOL     OW77306   6.662   6.887   8.354  0.6975  0.2565 -0.1957
25100SOL    HW177307   6.751   6.894   8.388  0.3753  0.3277  0.6577
25100SOL    HW277308   6.621   6.970   8.378  0.1988 -0.0508  0.0104
25101SOL     OW77309   1.096  10.916   1.034 -0.2548  0.0431  0.1395
25101SOL    HW177310   1.002  10.899   1.038 -0.4854  0.7603 -1.5599
25101SOL    HW277311   1.136  10.836   1.068 -1.4720 -0.3162  0.7658
25102SOL     OW77312   4.211   0.762   5.604 -0.2556 -0.0009 -0.2716
25102SOL    HW177313   4.220   0.681   5.654 -0.9963  0.8106  1.2552
25102SOL    HW277314   4.251   0.742   5.519  3.2585 -0.7403  1.3794
25103SOL     OW77315   4.431   0.162   6.302  0.3690  0.0944  0.7151
25103SOL    HW177316   4.386   0.197   6.379  1.4543  1.8357  0.6147
25103SOL    HW277317   4.466   0.078   6.330 -1.5279 -0.5731  1.2723
25104SOL     OW77318   6.898   1.910   7.626 -0.2112 -0.1871  0.4767
25104SOL    HW177319   6.814   1.894   7.670 -0.5319  2.9940  1.3022
25104SOL    HW277320   6.873   1.943   7.539  0.0874  1.3487  0.9393
25105SOL     OW77321   4.821   4.379   0.907 -0.3656  0.2507  0.3743
25105SOL    HW177322   4.766   4.302   0.923 -0.7114  0.1219 -1.2491
25105SOL    HW277323   4.887   4.376   0.977 -0.8135 -1.1099  0.7715
25106SOL     OW77324   8.482   5.713   6.603 -0.0748  0.2537  0.2821
25106SOL    HW177325   8.463   5.645   6.668  1.5187 -0.3223  0.1866
25106SOL    HW277326   8.408   5.708   6.541 -0.2095 -1.1062  0.5167
25107SOL     OW77327   7.832   3.868   7.142  0.0371 -0.2977 -0.5570
25107SOL    HW177328   7.827   3.901   7.232 -3.1682  0.1487 -0.8077
25107SOL    HW277329   7.861   3.777   7.151 -0.3523 -0.2907  0.9267
25108SOL     OW77330   7.086   3.708   8.047 -0.2354 -0.4919  0.3840
25108SOL    HW177331   7.058   3.734   8.134  0.2301 -0.4058  0.5147
25108SOL    HW277332   7.159   3.648   8.062  0.9506  0.8146  0.0533
25109SOL     OW77333   5.272   8.216   7.312  0.2054  0.1470  0.5661
25109SOL    HW177334   5.276   8.298   7.265 -1.8623  0.0528  0.1403
25109SOL    HW277335   5.286   8.149   7.245 -0.8157  0.0771  0.4136
25110SOL     OW77336   9.995   0.775   7.669  0.1401 -0.1057  0.0389
25110SOL    HW177337  10.082   0.762   7.707  0.4615 -0.9135 -0.9500
25110SOL    HW277338   9.975   0.693   7.625 -0.0221  0.9161 -1.9149
25111SOL     OW77339   6.409   3.099   7.993 -0.2716 -0.0450 -0.3922
25111SOL    HW177340   6.317   3.094   8.021 -0.5664 -1.8245 -1.5250
25111SOL    HW277341   6.451   3.024   8.034 -0.1261 -1.1858 -2.4735
25112SOL     OW77342  10.303   5.572   0.382  0.4610 -0.0261  0.4210
25112SOL    HW177343  10.359   5.554   0.457  1.8403 -3.2581 -1.1674
25112SOL    HW277344  10.347   5.642   0.334  1.3582 -0.2355  0.9361
25113SOL     OW77345   9.800  10.876   9.778  0.0107  0.2191 -0.1260
25113SOL    HW177346   9.781  10.790   9.741  0.0742  0.1771 -0.0615
25113SOL    HW277347   9.796  10.936   9.704  1.4836 -0.0547 -0.4605
25114SOL     OW77348  10.386  10.022   6.309  0.0676 -0.1246  0.1773
25114SOL    HW177349  10.309   9.971   6.284 -0.4653  1.1531 -0.9195
25114SOL    HW277350  10.365  10.055   6.396  0.7546 -2.3425  1.2631
25115SOL     OW77351   8.554   4.825   0.926  0.1473  0.4991  0.2654
25115SOL    HW177352   8.559   4.887   0.999  1.1022 -0.5457  1.1340
25115SOL    HW277353   8.555   4.739   0.968 -2.8408 -0.1813 -0.7888
25116SOL     OW77354   7.474   7.787  10.951 -0.6073  0.7286  0.2876
25116SOL    HW177355   7.396   7.759  10.903 -0.3674  1.1878 -0.3828
25116SOL    HW277356   7.544   7.731  10.918  0.2939  3.2436 -2.4888
25117SOL     OW77357   3.938   7.937   9.543 -0.4777  0.2530  0.6240
25117SOL    HW177358   3.900   7.991   9.473  0.9328  2.4889  1.4781
25117SOL    HW277359   4.031   7.932   9.520 -0.0833  0.6425  2.0727
25118SOL     OW77360   8.923   0.137   7.319  0.0146  0.0593  0.1486
25118SOL    HW177361   8.856   0.101   7.378 -0.8508  0.4513 -0.5679
25118SOL    HW277362   8.952   0.218   7.361  0.6602 -0.5265  0.8708
25119SOL     OW77363   5.555   9.985   4.965 -0.1242 -0.6469 -0.0133
25119SOL    HW177364   5.536  10.006   5.057  1.5114 -0.4209  0.3027
25119SOL    HW277365   5.634   9.931   4.969 -0.6543 -1.5698 -1.2385
25120SOL     OW77366   6.124   2.501   2.583 -0.0608  0.3496 -0.1785
25120SOL    HW177367   6.094   2.410   2.575  1.4782 -0.1304 -0.8492
25120SOL    HW277368   6.131   2.515   2.678  0.1777 -0.4025 -0.0745
25121SOL     OW77369   2.806   3.901   9.239  0.5150  0.1273  0.0907
25121SOL    HW177370   2.819   3.833   9.305  0.6479 -0.6874 -0.7584
25121SOL    HW277371   2.791   3.854   9.157  1.7027  1.0940 -0.7394
25122SOL     OW77372   1.388   6.936   7.251 -0.0514 -0.7147 -0.2999
25122SOL    HW177373   1.351   6.976   7.172 -0.6375 -1.5907 -0.4866
25122SOL    HW277374   1.455   6.876   7.218  0.6046 -0.1348 -0.0431
25123SOL     OW77375  10.324   5.959   9.984  0.2085  0.3870 -0.3218
25123SOL    HW177376  10.383   6.001   9.922 -1.9178  0.8489 -2.1546
25123SOL    HW277377  10.272   6.031  10.020 -0.3764 -0.1801 -0.0119
25124SOL     OW77378   5.159   2.587   9.677  0.3542 -0.7764  0.0505
25124SOL    HW177379   5.176   2.507   9.727  0.6783 -0.4757  0.4227
25124SOL    HW277380   5.108   2.557   9.602  0.0929 -1.2677  0.4183
25125SOL     OW77381  10.704   5.495   3.404  0.0321  0.3384 -0.1131
25125SOL    HW177382  10.728   5.552   3.477 -0.4625  0.6362 -0.1823
25125SOL    HW277383  10.788   5.472   3.364  0.1993  1.6068 -0.5327
25126SOL     OW77384   9.422   6.335  10.255 -0.0507 -0.0254 -0.3342
25126SOL    HW177385   9.502   6.375  10.221 -0.5766  0.7956 -0.6438
25126SOL    HW277386   9.386   6.402  10.314  1.4363 -1.8076  2.9043
25127SOL     OW77387   9.498   6.385   4.681 -0.5601 -0.0657 -0.0070
25127SOL    HW177388   9.472   6.293   4.681 -0.2392 -0.1716 -0.9614
25127SOL    HW277389   9.443   6.425   4.614 -1.5949  0.7240  1.2659
25128SOL     OW77390   5.206   4.648   8.340 -1.1323  0.2130  0.7424
25128SOL    HW177391   5.224   4.559   8.370  0.4128 -0.1657 -1.0830
25128SOL    HW277392   5.284   4.698   8.367 -2.0606  1.1106  1.9122
25129SOL     OW77393   3.887   5.839   7.931 -0.0468  0.7700  0.4258
25129SOL    HW177394   3.930   5.889   7.862 -0.7721  1.3746  0.3901
25129SOL    HW277395   3.832   5.776   7.884  0.9825 -0.1903  0.4707
25130SOL     OW77396   7.080   8.666   3.916  0.3537 -0.3615  1.0262
25130SOL    HW177397   7.114   8.710   3.838 -0.2741 -0.1731  0.8459
25130SOL    HW277398   7.156   8.651   3.971  1.2135 -2.6442 -0.6472
25131SOL     OW77399   1.356   4.860   6.339  0.4645  0.0570  0.2968
25131SOL    HW177400   1.399   4.807   6.272 -1.1385  0.9524 -1.5540
25131SOL    HW277401   1.420   4.926   6.363  1.0673 -0.2528 -0.4143
25132SOL     OW77402   5.415   2.814   6.809  0.3301  0.7677  0.8310
25132SOL    HW177403   5.342   2.834   6.750  0.7779  0.0074  0.0007
25132SOL    HW277404   5.490   2.857   6.769  0.7575 -0.2679  0.4958
25133SOL     OW77405   5.359   9.634   7.548 -0.1690  0.2492 -0.4860
25133SOL    HW177406   5.426   9.615   7.483 -0.6123 -1.4473 -0.4947
25133SOL    HW277407   5.377   9.724   7.577  0.7619  0.5890 -2.0550
25134SOL     OW77408   4.224   4.503   2.615  0.0602  0.4976  0.3956
25134SOL    HW177409   4.206   4.451   2.694 -1.2746  0.1676 -0.1030
25134SOL    HW277410   4.319   4.500   2.606  0.1616 -0.2221  1.4804
25135SOL     OW77411   4.138   1.693   5.346  0.2133  0.3565  0.3471
25135SOL    HW177412   4.202   1.625   5.326  1.1363  1.4603 -0.6776
25135SOL    HW277413   4.128   1.741   5.264 -3.3774 -0.8532 -0.0813
25136SOL     OW77414   1.056   3.932   8.146  0.0074  0.2000 -0.3443
25136SOL    HW177415   0.972   3.948   8.189  0.2709 -0.2707  0.3485
25136SOL    HW277416   1.110   3.889   8.212  0.9641  0.9302 -0.6367
25137SOL     OW77417   5.374   3.310   5.758 -0.0509  0.3211 -0.6155
25137SOL    HW177418   5.451   3.357   5.726  0.5240 -1.3313 -1.7949
25137SOL    HW277419   5.301   3.347   5.709  0.2335  0.7062 -0.7536
25138SOL     OW77420  10.369   9.182   8.592 -0.2074 -0.0216 -0.0320
25138SOL    HW177421  10.442   9.200   8.532  0.2481  1.1823  0.8582
25138SOL    HW277422  10.316   9.261   8.591 -0.6073 -0.2746  0.5764
25139SOL     OW77423   6.898   7.290   8.199  0.4264 -0.2504  0.4693
25139SOL    HW177424   6.952   7.363   8.170  1.2619 -0.5764  1.1901
25139SOL    HW277425   6.885   7.238   8.120 -0.9003  1.0976 -0.2527
25140SOL     OW77426   6.714   0.352   8.997  0.1717 -0.0658  0.0920
25140SOL    HW177427   6.660   0.431   8.986  1.1802  0.6376  0.1102
25140SOL    HW277428   6.685   0.294   8.926 -1.2903 -0.1192  0.6808
25141SOL     OW77429   4.306   5.575  10.673  0.0161  0.1455 -0.1140
25141SOL    HW177430   4.284   5.486  10.701 -0.7276  0.0292 -1.0135
25141SOL    HW277431   4.376   5.602  10.732  0.1111 -0.9619  0.3072
25142SOL     OW77432   9.827   5.825  10.009  0.5434 -0.5653  0.0415
25142SOL    HW177433   9.769   5.751   9.992  1.2347 -0.7096 -1.9170
25142SOL    HW277434   9.784   5.899   9.965  1.2199 -0.4065 -0.3585
25143SOL     OW77435   9.471   6.950   3.029 -0.4512 -0.4712  0.0346
25143SOL    HW177436   9.535   6.993   3.086 -2.3563  1.2594  1.0073
25143SOL    HW277437   9.403   7.017   3.015 -2.4031 -2.4224 -0.3718
25144SOL     OW77438   4.008   4.054   0.673 -0.3484  0.0551 -0.2533
25144SOL    HW177439   4.007   4.150   0.672 -3.6844  0.1375 -0.3723
25144SOL    HW277440   3.921   4.030   0.705  1.3201 -2.9953  2.5797
25145SOL     OW77441   9.311   4.942   4.979  0.5397 -0.2557  0.0843
25145SOL    HW177442   9.377   4.973   4.917 -0.5448  1.7940 -0.1410
25145SOL    HW277443   9.268   5.022   5.010 -2.1502 -1.5103 -0.1305
25146SOL     OW77444   2.699   2.485   8.123 -0.3685 -0.2528 -0.1325
25146SOL    HW177445   2.620   2.529   8.092 -1.1907 -0.3853  1.6802
25146SOL    HW277446   2.764   2.555   8.131 -0.1328 -0.1961 -1.9836
25147SOL     OW77447   2.995   1.593   4.942  0.2042  0.2205 -0.0157
25147SOL    HW177448   2.915   1.628   4.902 -1.5041 -1.1852  1.9876
25147SOL    HW277449   3.005   1.643   5.023  0.2751 -0.8457  0.6520
25148SOL     OW77450   3.830   3.769  11.027 -0.1205  0.6646 -0.0351
25148SOL    HW177451   3.855   3.859  11.046 -0.1426  0.6337  0.1405
25148SOL    HW277452   3.833   3.725  11.112  2.5792 -0.1639 -0.4782
25149SOL     OW77453   0.124   4.379  10.108 -0.7905  0.3677  0.6732
25149SOL    HW177454   0.160   4.328  10.180  0.4210  0.2692  0.0369
25149SOL    HW277455   0.108   4.466  10.145 -0.2777  0.2890  1.0844
25150SOL     OW77456   7.084   2.649   6.804 -0.1592 -0.4687  0.7652
25150SOL    HW177457   7.044   2.733   6.826  1.3272  0.1888  1.0861
25150SOL    HW277458   7.102   2.609   6.889  1.8037  0.2169  0.7059
25151SOL     OW77459   8.981   2.870   8.264 -0.4125 -0.3035  0.0342
25151SOL    HW177460   9.004   2.963   8.263  1.7252 -0.7917 -0.3057
25151SOL    HW277461   8.983   2.846   8.357  2.1717 -0.6677 -0.0462
25152SOL     OW77462   7.397   9.972   0.758  0.6348  0.2710 -0.2832
25152SOL    HW177463   7.464  10.018   0.807 -0.9596  0.8864  1.4112
25152SOL    HW277464   7.371   9.899   0.815 -2.2644  1.8304  0.5857
25153SOL     OW77465  11.042   9.691  10.439  0.8940 -0.2229  0.7616
25153SOL    HW177466  11.002   9.655  10.359  1.4506  1.7244 -0.4726
25153SOL    HW277467  11.003   9.778  10.448  3.7676  1.2328  0.2576
25154SOL     OW77468   5.634   7.714   5.794  0.4913 -0.2661 -0.3759
25154SOL    HW177469   5.700   7.738   5.728  0.3983  1.2670  0.0538
25154SOL    HW277470   5.680   7.654   5.853  1.3279  0.2843 -0.4483
25155SOL     OW77471   3.453   9.038   5.096  0.2534  0.0136  0.4063
25155SOL    HW177472   3.539   9.053   5.135 -0.1030  1.7921  0.5981
25155SOL    HW277473   3.454   9.090   5.016 -1.5426  2.3177  1.7576
25156SOL     OW77474  10.758   1.891   7.699 -0.5459  0.4059  0.4625
25156SOL    HW177475  10.770   1.975   7.743  0.9815 -0.1665  1.2073
25156SOL    HW277476  10.835   1.880   7.644 -1.0082 -0.2612 -0.0814
25157SOL     OW77477   8.508   4.981   9.980 -0.0820 -0.4990 -0.3019
25157SOL    HW177478   8.592   4.986   9.935  0.1773  0.8832  0.2776
25157SOL    HW277479   8.485   4.888   9.980  1.6831 -0.9606 -0.0236
25158SOL     OW77480   8.247   0.966   6.091  0.0096 -0.1652  0.7237
25158SOL    HW177481   8.159   0.952   6.056  0.2592 -0.6747  0.2918
25158SOL    HW277482   8.258   1.061   6.092 -0.2862 -0.1226  0.1227
25159SOL     OW77483   7.540   1.216   5.319  0.1052 -0.2527  0.6102
25159SOL    HW177484   7.500   1.297   5.286 -0.8065 -0.1132  1.9849
25159SOL    HW277485   7.611   1.198   5.257 -0.7061  0.6926 -0.6514
25160SOL     OW77486   2.278   6.254   2.576 -0.0779  0.0009 -0.2810
25160SOL    HW177487   2.219   6.216   2.642  0.4829  0.9055  0.7853
25160SOL    HW277488   2.247   6.219   2.493 -0.1419 -2.0516  0.5447
25161SOL     OW77489  10.760   1.300   9.135 -0.3671  0.0824  0.3546
25161SOL    HW177490  10.757   1.351   9.216  0.1585  1.4121 -0.4139
25161SOL    HW277491  10.852   1.274   9.127 -0.6433 -1.0302  0.7602
25162SOL     OW77492   5.895   0.105   1.105  0.1520 -0.3171  0.2450
25162SOL    HW177493   5.916   0.193   1.075  0.3406  0.1138  1.5713
25162SOL    HW277494   5.897   0.051   1.026  1.0764  0.6749 -0.4294
25163SOL     OW77495  11.069   4.556   8.764 -0.0823 -0.0069  0.7389
25163SOL    HW177496  11.103   4.516   8.684 -0.2793 -0.4727  0.8860
25163SOL    HW277497  11.114   4.640   8.770  0.3017 -0.1855  0.4014
25164SOL     OW77498   4.486   5.997   5.950  0.0634 -0.1300 -0.2484
25164SOL    HW177499   4.397   5.977   5.977 -0.1197  0.1881 -0.6077
25164SOL    HW277500   4.541   5.961   6.019 -0.3986  0.6395  0.5353
25165SOL     OW77501   7.126   7.503   8.204 -0.0691  0.7757  0.7838
25165SOL    HW177502   7.137   7.463   8.290 -0.5352  0.4000  0.6673
25165SOL    HW277503   7.216   7.524   8.176  0.2741 -1.0866  0.4044
25166SOL     OW77504   6.416   5.065   2.907  0.0858 -0.5328  0.4982
25166SOL    HW177505   6.326   5.053   2.938  0.7167 -3.3709  1.5214
25166SOL    HW277506   6.457   5.120   2.974 -0.3479 -1.0014  1.1613
25167SOL     OW77507  10.871   0.827   8.385 -0.6056 -0.9162 -0.9795
25167SOL    HW177508  10.799   0.849   8.444 -0.1251 -1.4443 -0.1730
25167SOL    HW277509  10.833   0.834   8.297 -0.8433  1.6967 -0.7315
25168SOL     OW77510   7.956   1.722   6.167 -0.3995  0.2066  0.1462
25168SOL    HW177511   7.938   1.772   6.246 -0.2612 -1.5794  1.3679
25168SOL    HW277512   7.892   1.651   6.168  0.0020 -0.1986 -1.0144
25169SOL     OW77513   9.187   9.948   0.472  0.0401  0.3559  0.3120
25169SOL    HW177514   9.227   9.867   0.438  1.1825  0.4094  1.4370
25169SOL    HW277515   9.164   9.998   0.394  2.3141  0.3528 -0.4346
25170SOL     OW77516   8.679   7.978   6.672 -0.3761 -0.8593  0.0946
25170SOL    HW177517   8.697   7.887   6.647  0.9774 -0.5033 -0.2992
25170SOL    HW277518   8.639   7.972   6.759 -2.4707 -1.9474 -0.8697
25171SOL     OW77519   6.005   6.832   8.754  0.0782 -0.2745  0.6131
25171SOL    HW177520   5.948   6.808   8.828  0.0058  2.5788  1.6312
25171SOL    HW277521   5.945   6.869   8.689  0.5066  0.8093  0.8115
25172SOL     OW77522   3.381   1.996   6.800 -0.1491 -0.8854 -0.2116
25172SOL    HW177523   3.324   1.920   6.811 -0.0537 -1.0801 -0.9831
25172SOL    HW277524   3.369   2.021   6.708  2.0980 -1.8040 -0.8088
25173SOL     OW77525   3.265   1.540   4.897  0.0514  0.8583  0.3885
25173SOL    HW177526   3.259   1.470   4.832 -0.4783 -0.3022  1.6419
25173SOL    HW277527   3.174   1.563   4.917  0.1499  0.2332  1.6876
25174SOL     OW77528   8.074   0.444   8.348 -0.7658  0.2541 -0.0520
25174SOL    HW177529   8.035   0.381   8.288 -0.0183 -0.8110  0.5398
25174SOL    HW277530   8.028   0.526   8.330 -2.0126 -0.5306 -0.6009
25175SOL     OW77531   3.519   4.328   0.369 -0.0696  0.1750  0.4301
25175SOL    HW177532   3.609   4.361   0.365 -0.0877  0.8322  3.2522
25175SOL    HW277533   3.467   4.405   0.391 -1.0437 -0.5245  0.6147
25176SOL     OW77534   8.558   9.450   1.960 -0.4693 -0.1698  0.2523
25176SOL    HW177535   8.503   9.402   1.898  2.1074 -0.7428 -1.7729
25176SOL    HW277536   8.644   9.411   1.951  0.5607  1.3983  2.4577
25177SOL     OW77537   7.179   5.082   2.551  0.1956  0.3332 -0.2777
25177SOL    HW177538   7.227   5.128   2.482 -1.8833  1.6482 -0.9689
25177SOL    HW277539   7.247   5.042   2.605  2.1402  3.0878 -0.4407
25178SOL     OW77540   0.652   9.790   0.568  0.2069  0.1212 -0.1632
25178SOL    HW177541   0.653   9.729   0.642 -0.6887  0.4053  0.0991
25178SOL    HW277542   0.685   9.872   0.604  0.5079  0.0556 -0.2817
25179SOL     OW77543   3.469   5.532   0.570 -0.5372  0.5167  0.1736
25179SOL    HW177544   3.546   5.548   0.624 -0.1164 -0.8367 -0.0037
25179SOL    HW277545   3.420   5.615   0.573  0.9651  1.4451  0.1922
25180SOL     OW77546   6.435   8.775   7.562  0.2099 -0.2273 -0.0421
25180SOL    HW177547   6.475   8.835   7.625 -1.1205 -0.5293  1.1379
25180SOL    HW277548   6.456   8.688   7.595 -0.9838 -0.3891  0.3530
25181SOL     OW77549   2.641  10.137   6.417  0.3944  0.2495 -0.1531
25181SOL    HW177550   2.625  10.117   6.325  1.4396  1.2323 -0.5681
25181SOL    HW277551   2.631  10.052   6.461  0.6451 -0.3893 -1.2767
25182SOL     OW77552   5.450   5.970  10.825 -0.0364  0.0980 -0.2536
25182SOL    HW177553   5.393   5.898  10.851  0.4163  0.1117  0.8352
25182SOL    HW277554   5.424   6.043  10.881 -0.0107  0.5742 -0.8534
25183SOL     OW77555   1.459   5.127   1.608 -0.0954  0.5396 -0.4291
25183SOL    HW177556   1.451   5.042   1.652 -0.4904  0.2369 -1.0531
25183SOL    HW277557   1.372   5.166   1.617  0.1151  0.9281 -0.0551
25184SOL     OW77558   7.728   2.263   7.480  0.8604 -0.0607 -0.1335
25184SOL    HW177559   7.667   2.236   7.412  1.0962 -0.9541 -0.0012
25184SOL    HW277560   7.672   2.287   7.554  0.6709 -1.0738  0.0565
25185SOL     OW77561   5.295   6.157   8.133 -0.2516  0.4586 -0.0095
25185SOL    HW177562   5.253   6.243   8.137 -0.7208  0.2414 -0.1627
25185SOL    HW277563   5.322   6.149   8.042  2.5568  1.7213  0.6193
25186SOL     OW77564   3.787   8.642  10.856  0.0037  0.8194 -0.3625
25186SOL    HW177565   3.762   8.551  10.845  0.2871  0.5529  0.9755
25186SOL    HW277566   3.710   8.692  10.828  0.1715  0.2276 -1.9789
25187SOL     OW77567   8.255   2.747   8.755 -0.0217  0.0933  0.0248
25187SOL    HW177568   8.306   2.819   8.718  0.2814  1.3057  2.5674
25187SOL    HW277569   8.318   2.677   8.768 -0.4767 -1.1184 -3.2765
25188SOL     OW77570   8.846   2.944  10.070  0.0069  0.2334 -0.2676
25188SOL    HW177571   8.895   2.914  10.147 -0.0359 -1.5386 -0.8706
25188SOL    HW277572   8.798   3.021  10.101  0.9685  0.3323  1.1133
25189SOL     OW77573  10.052   0.380   2.735  0.1568 -0.4102 -0.2296
25189SOL    HW177574   9.960   0.379   2.709  0.0666 -0.6534  0.0773
25189SOL    HW277575  10.090   0.456   2.691 -0.2098 -0.2649 -0.2947
25190SOL     OW77576   9.052   4.748  10.685 -0.6255 -0.5772 -0.6219
25190SOL    HW177577   9.110   4.751  10.609  0.0189 -0.4468 -0.1306
25190SOL    HW277578   9.015   4.837  10.689 -0.4670 -0.5111 -0.6275
25191SOL     OW77579   6.794   5.309   5.912  0.3711 -0.5898 -0.1197
25191SOL    HW177580   6.820   5.237   5.854 -0.7429  0.5239 -2.0938
25191SOL    HW277581   6.794   5.387   5.856 -3.4030  0.1155  0.6084
25192SOL     OW77582   4.487   5.994   6.325  0.5719 -0.3545 -0.5873
25192SOL    HW177583   4.582   5.992   6.336  0.6088  0.1545 -0.8020
25192SOL    HW277584   4.465   6.086   6.313  0.1511 -0.5502 -1.4025
25193SOL     OW77585   7.375   5.798   4.214 -0.1453  0.1734 -0.4970
25193SOL    HW177586   7.471   5.798   4.218 -0.1796  1.0947  1.0937
25193SOL    HW277587   7.351   5.891   4.217 -1.1229 -0.0989  1.2232
25194SOL     OW77588   2.095   4.652  11.009  0.7151 -0.0648 -1.0377
25194SOL    HW177589   2.174   4.707  11.012  0.0747  0.8453 -0.1315
25194SOL    HW277590   2.024   4.713  10.990 -0.1230 -0.4217  0.6979
25195SOL     OW77591   7.351   5.564   7.858 -0.2201 -0.0275  0.4670
25195SOL    HW177592   7.441   5.591   7.879 -0.6779  2.5314 -0.5378
25195SOL    HW277593   7.354   5.544   7.764 -0.6929  0.0150  0.4428
25196SOL     OW77594   8.932   6.450   6.317  0.7467 -0.0928  0.3990
25196SOL    HW177595   8.884   6.528   6.342  0.8990  0.1899 -0.1717
25196SOL    HW277596   8.985   6.428   6.394  0.0804 -0.1248  0.8570
25197SOL     OW77597   0.256   8.555  10.213  0.0113 -0.9164  0.3233
25197SOL    HW177598   0.279   8.520  10.299  1.9942  1.7096  1.0130
25197SOL    HW277599   0.240   8.648  10.229 -0.0554 -0.4470 -2.1015
25198SOL     OW77600   2.513  10.930   9.726  0.6170  0.1014 -0.4932
25198SOL    HW177601   2.554  10.857   9.679  0.5885 -0.5230  0.4209
25198SOL    HW277602   2.452  10.968   9.663  0.8158 -0.5052 -1.0683
25199SOL     OW77603   4.157   5.427  11.071 -0.3077  0.0484  0.1472
25199SOL    HW177604   4.123   5.406  11.158  0.8408  0.7092  0.7807
25199SOL    HW277605   4.078   5.442  11.018 -1.0348  0.6209  1.3263
25200SOL     OW77606   7.941   6.000   9.831  0.5631  0.2529 -0.0762
25200SOL    HW177607   7.946   6.094   9.815  0.2937  0.1412 -0.8830
25200SOL    HW277608   7.922   5.992   9.924  4.3128  0.9015  0.8911
25201SOL     OW77609   2.189   4.311   3.828 -0.6159  0.3421  0.0206
25201SOL    HW177610   2.164   4.220   3.808 -2.0887  0.8917 -0.8242
25201SOL    HW277611   2.128   4.337   3.897 -0.8466  0.9713 -0.4104
25202SOL     OW77612   8.253   5.207   8.732 -0.2118 -0.2268  0.2701
25202SOL    HW177613   8.164   5.182   8.707 -0.1151 -0.6625  0.3406
25202SOL    HW277614   8.267   5.163   8.816 -0.2677  0.6103  0.7295
25203SOL     OW77615   1.622   9.392   8.238  0.0464 -0.4090 -0.6105
25203SOL    HW177616   1.540   9.343   8.230 -0.8559  1.2647 -2.5808
25203SOL    HW277617   1.688   9.326   8.254 -1.6741 -1.8260  1.0882
25204SOL     OW77618  10.487   0.021   1.087 -0.1547  0.5317 -0.5329
25204SOL    HW177619  10.423   0.091   1.074  0.3988  1.3020  0.7798
25204SOL    HW277620  10.546   0.054   1.155  1.0264 -0.5896 -0.9787
25205SOL     OW77621   0.426   1.423   0.460  0.0489  0.1045 -0.0850
25205SOL    HW177622   0.518   1.414   0.434 -0.3348  0.2745 -1.6186
25205SOL    HW277623   0.428   1.480   0.537  1.2337 -0.0956  0.0568
25206SOL     OW77624   1.743   2.083   0.826 -0.0528 -0.2520  0.1221
25206SOL    HW177625   1.684   2.061   0.899 -1.1709 -0.4469 -0.8216
25206SOL    HW277626   1.687   2.083   0.749  0.5649  2.5623 -0.4340
25207SOL     OW77627   5.306   8.085   7.077  0.5447 -0.0694  0.1132
25207SOL    HW177628   5.241   8.047   7.018 -0.6697  0.4225  1.0628
25207SOL    HW277629   5.390   8.068   7.036 -0.2042 -0.5291 -1.2844
25208SOL     OW77630   8.105   8.966   6.665  0.0371 -0.0967 -0.2733
25208SOL    HW177631   8.042   8.949   6.594  0.2832  0.7022 -0.6944
25208SOL    HW277632   8.056   8.947   6.745 -0.4503 -0.3772 -0.6251
25209SOL     OW77633   7.977   5.658   6.351 -0.0950 -0.0490  0.0527
25209SOL    HW177634   8.003   5.750   6.358  0.3656 -0.2104  0.4800
25209SOL    HW277635   7.988   5.637   6.258  2.9643 -0.5957  0.4554
25210SOL     OW77636   4.851   9.217   9.181  0.0136  0.0493  0.1110
25210SOL    HW177637   4.771   9.193   9.133  0.0245 -0.3865  0.3132
25210SOL    HW277638   4.827   9.298   9.227 -0.0959  0.2971 -0.3753
25211SOL     OW77639   2.762   3.418   0.430 -0.4354 -0.1819 -0.5913
25211SOL    HW177640   2.727   3.481   0.368  3.0322  3.1045  0.4282
25211SOL    HW277641   2.851   3.401   0.400  0.7218  0.0638  2.3729
25212SOL     OW77642   6.783   8.887   9.205 -0.2181  0.0081  0.1138
25212SOL    HW177643   6.804   8.795   9.220  0.4735 -0.0755 -1.2438
25212SOL    HW277644   6.849   8.935   9.256 -1.0194 -0.2252  1.4034
25213SOL     OW77645   8.732   2.469   7.447 -0.5992 -0.0156 -0.2589
25213SOL    HW177646   8.724   2.558   7.483 -1.3067  0.0355 -0.5267
25213SOL    HW277647   8.644   2.447   7.417 -0.3746 -0.7138 -0.4289
25214SOL     OW77648   1.633  11.100   9.241  0.3608 -0.8247  0.2087
25214SOL    HW177649   1.554  11.089   9.295  1.5876 -1.0365  2.0598
25214SOL    HW277650   1.683  11.167   9.286  1.9658 -1.8266 -0.0178
25215SOL     OW77651   2.021  10.227   4.919  0.0990 -0.4388  0.0264
25215SOL    HW177652   1.999  10.205   4.828  0.6417  0.3180 -0.3041
25215SOL    HW277653   1.956  10.181   4.971  1.3212 -3.0814 -0.5613
25216SOL     OW77654   7.729   3.541   1.860 -0.0861  0.4239  0.5125
25216SOL    HW177655   7.696   3.517   1.773  2.4032 -0.5608 -0.2390
25216SOL    HW277656   7.699   3.631   1.872 -0.6525  0.5291 -1.2923
25217SOL     OW77657   4.915   2.521   9.227 -0.1035 -0.0118  0.1130
25217SOL    HW177658   4.865   2.440   9.240  1.0340 -0.9037 -0.9344
25217SOL    HW277659   4.865   2.570   9.162 -1.2600  0.5687  1.3809
25218SOL     OW77660   2.322   3.605   2.537  0.2164 -0.5301 -0.3692
25218SOL    HW177661   2.341   3.518   2.503 -2.3084 -1.3317  0.0224
25218SOL    HW277662   2.375   3.612   2.616 -0.2118 -2.1212  0.1000
25219SOL     OW77663   0.781   1.328   6.738  0.4472  0.0999  0.4754
25219SOL    HW177664   0.834   1.388   6.685 -0.3855  0.2628 -0.1852
25219SOL    HW277665   0.769   1.251   6.682  0.5120 -0.1955  0.8673
25220SOL     OW77666   6.423   6.212   6.525 -0.4120 -0.1542  0.1198
25220SOL    HW177667   6.476   6.200   6.447 -1.0295  2.6685 -0.8488
25220SOL    HW277668   6.343   6.164   6.508 -0.5177  0.3912 -0.9890
25221SOL     OW77669   4.245   2.927   8.420 -0.2758 -0.3015  0.3045
25221SOL    HW177670   4.204   2.864   8.480  0.3433  0.4794  1.5805
25221SOL    HW277671   4.317   2.965   8.470  0.3538  0.2757 -0.9957
25222SOL     OW77672  11.078   0.408   8.146 -0.4051 -0.1365  0.0985
25222SOL    HW177673  11.019   0.402   8.070  0.9583 -0.3107 -0.9835
25222SOL    HW277674  11.019   0.401   8.221 -1.7747 -0.3099 -0.9290
25223SOL     OW77675   9.555   2.124   9.043  0.0336 -0.2642  0.1644
25223SOL    HW177676   9.597   2.039   9.055 -2.1532 -1.2519  1.4992
25223SOL    HW277677   9.475   2.104   8.994 -0.8523  0.9193  1.0826
25224SOL     OW77678   4.759   5.162   9.480  0.5431  0.1894  0.0934
25224SOL    HW177679   4.681   5.168   9.425 -0.8325 -0.1725  1.9111
25224SOL    HW277680   4.829   5.196   9.426 -0.9132  0.7469 -1.5341
25225SOL     OW77681   5.054  10.272   4.974 -0.1640  0.3857  0.0535
25225SOL    HW177682   4.991  10.275   5.046  0.0169 -0.4315  0.2448
25225SOL    HW277683   5.069  10.179   4.958  1.4555  0.5560  0.4068
25226SOL     OW77684   9.536   5.323   0.086  0.1111 -0.0547 -0.9361
25226SOL    HW177685   9.541   5.228   0.095  0.3507  0.1678  2.6683
25226SOL    HW277686   9.442   5.340   0.073  0.0490 -0.7284 -1.4839
25227SOL     OW77687   5.235   7.910   8.695 -0.0785 -0.1347 -0.5663
25227SOL    HW177688   5.255   7.857   8.773 -1.3003  1.6384  1.0325
25227SOL    HW277689   5.319   7.948   8.670  0.1956 -0.0085  0.4732
25228SOL     OW77690   8.737   5.514   3.404 -0.5872  0.5708  0.0992
25228SOL    HW177691   8.779   5.460   3.471 -0.5260 -0.6701 -0.9130
25228SOL    HW277692   8.658   5.465   3.379 -0.8332  1.2235 -0.4345
25229SOL     OW77693   8.776   1.648   1.858 -0.4835 -0.2244 -0.6059
25229SOL    HW177694   8.739   1.713   1.799 -1.9720  1.0699  1.6334
25229SOL    HW277695   8.869   1.670   1.863 -0.7870  1.1296 -0.6498
25230SOL     OW77696   2.603   3.933   1.912 -0.2466 -0.5695  0.1851
25230SOL    HW177697   2.623   3.839   1.905 -0.2927 -0.6804  1.3480
25230SOL    HW277698   2.664   3.974   1.851  0.4801 -1.2830  0.3972
25231SOL     OW77699   2.489   2.827   1.348  1.2828  0.6449  0.5836
25231SOL    HW177700   2.517   2.838   1.257  2.7287 -1.0323  0.7764
25231SOL    HW277701   2.425   2.756   1.345  1.8091  0.1485  0.9454
25232SOL     OW77702   8.868   2.271   0.577  0.0889 -0.6692 -0.1433
25232SOL    HW177703   8.937   2.216   0.614  0.9725 -0.1673 -0.9907
25232SOL    HW277704   8.852   2.233   0.491  0.5773  0.2596 -0.6632
25233SOL     OW77705  10.965   6.484   8.836 -0.4147  0.4890 -0.1791
25233SOL    HW177706  11.055   6.482   8.805  0.0799 -0.8911  1.1973
25233SOL    HW277707  10.915   6.440   8.768 -0.0356  1.0671 -0.8496
25234SOL     OW77708   4.249  10.363   2.423 -0.1246  0.2426 -0.0878
25234SOL    HW177709   4.186  10.303   2.384  0.1191 -0.0541 -0.0298
25234SOL    HW277710   4.272  10.423   2.352 -0.8430  0.6689  0.0222
25235SOL     OW77711   0.850   4.317   5.469 -0.0742  0.2036  0.2809
25235SOL    HW177712   0.810   4.331   5.383 -0.1687  0.1564  0.3174
25235SOL    HW277713   0.843   4.402   5.512  2.1475  0.9562 -0.6491
25236SOL     OW77714   1.780   6.716   2.147  0.6570 -0.1141  0.4416
25236SOL    HW177715   1.700   6.768   2.135  1.2421  0.7180  0.0157
25236SOL    HW277716   1.751   6.625   2.141 -0.0902  0.1912 -0.8938
25237SOL     OW77717   0.899   5.689   4.197  0.4952 -0.0789  0.0891
25237SOL    HW177718   0.821   5.657   4.151  1.5355 -1.1802 -1.0271
25237SOL    HW277719   0.946   5.609   4.221  0.7624  0.5380  1.7260
25238SOL     OW77720   6.718   1.465   7.319 -0.3401 -0.1448  0.3243
25238SOL    HW177721   6.709   1.434   7.409 -0.1073 -0.3123  0.2912
25238SOL    HW277722   6.781   1.538   7.325  1.2437 -1.4351  0.0295
25239SOL     OW77723   2.251   5.471  10.026 -0.1727  0.1514  0.1200
25239SOL    HW177724   2.340   5.488   9.997  0.2646 -0.3191  1.1540
25239SOL    HW277725   2.255   5.387  10.071 -1.3912 -0.5087 -0.9281
25240SOL     OW77726  10.920   6.756   7.605 -0.2602  0.3503  0.2141
25240SOL    HW177727  10.913   6.850   7.615  0.9691  0.4483  0.3904
25240SOL    HW277728  10.939   6.743   7.512 -1.7145  0.1689 -0.0756
25241SOL     OW77729   3.453   9.924   7.037  0.4244  0.4223 -0.3919
25241SOL    HW177730   3.503   9.898   6.959 -0.5186 -0.6426 -0.6771
25241SOL    HW277731   3.471  10.017   7.047  3.6678 -0.1634  0.4239
25242SOL     OW77732   5.459  10.317   2.012  0.2130 -0.0107 -0.3996
25242SOL    HW177733   5.445  10.398   2.061  0.1392  0.7580 -1.6392
25242SOL    HW277734   5.546  10.288   2.038  1.5842  2.1599 -2.1635
25243SOL     OW77735   4.639   2.329   0.555  0.3991 -0.1201  0.3032
25243SOL    HW177736   4.724   2.293   0.582  0.9058  1.2059  0.5122
25243SOL    HW277737   4.587   2.331   0.635  0.8311  0.8507  0.5718
25244SOL     OW77738   5.184   5.063  10.263  0.4379  0.2709 -0.4326
25244SOL    HW177739   5.246   4.991  10.275 -0.0912  0.2865  4.6240
25244SOL    HW277740   5.234   5.141  10.286 -0.3437  0.8621 -0.7178
25245SOL     OW77741   5.630   7.742   2.254 -0.2567 -0.1051 -0.5664
25245SOL    HW177742   5.703   7.800   2.277 -1.2080  0.3860  1.4334
25245SOL    HW277743   5.672   7.667   2.211  1.2053  1.0438 -1.2480
25246SOL     OW77744   8.496   4.548   4.626  0.5809 -0.0530  0.2534
25246SOL    HW177745   8.505   4.453   4.640 -0.3500 -0.2873 -0.5750
25246SOL    HW277746   8.499   4.558   4.531 -3.1156  0.2350 -0.0043
25247SOL     OW77747   5.875  10.573   1.876  0.1683 -0.2497  0.5036
25247SOL    HW177748   5.803  10.626   1.842  0.7570  0.6100  0.5478
25247SOL    HW277749   5.883  10.600   1.968  0.2664 -0.6485  0.6125
25248SOL     OW77750   9.009   7.042   6.221 -0.0348  0.2998 -0.1140
25248SOL    HW177751   9.003   6.950   6.195  0.9457 -0.0329  0.7668
25248SOL    HW277752   8.920   7.076   6.208 -0.4991 -0.8555 -0.1276
25249SOL     OW77753  10.252   1.081   6.698  0.4591  0.3016 -0.3207
25249SOL    HW177754  10.334   1.044   6.665  0.6568  0.2592  0.2185
25249SOL    HW277755  10.272   1.173   6.713  0.1618  0.4835 -0.9989
25250SOL     OW77756  10.322   6.660   7.106  0.2325  0.1482 -0.0958
25250SOL    HW177757  10.291   6.724   7.041  0.8776  0.9715  0.3817
25250SOL    HW277758  10.396   6.704   7.148  2.4800 -1.9522 -1.6210
25251SOL     OW77759   7.118   2.383   4.568 -0.2949  1.1269  0.0391
25251SOL    HW177760   7.181   2.417   4.504  1.2007  1.2180  1.4860
25251SOL    HW277761   7.112   2.451   4.634  0.2254 -0.0305  1.3249
25252SOL     OW77762   4.107   6.047   7.969 -0.1953  0.1207  0.1344
25252SOL    HW177763   4.111   6.050   7.873 -1.6191 -0.8755  0.0191
25252SOL    HW277764   4.150   5.965   7.992 -1.9915 -0.8801  0.1404
25253SOL     OW77765  10.176   9.997   8.771 -0.6449  0.2784 -0.0648
25253SOL    HW177766  10.197   9.904   8.770 -3.5752 -0.4629  0.2306
25253SOL    HW277767  10.260  10.040   8.753  0.7082 -2.3972 -0.7021
25254SOL     OW77768   2.880   1.505  10.581  0.1441 -0.3152 -0.4551
25254SOL    HW177769   2.906   1.597  10.577 -1.6583  0.4414  2.2638
25254SOL    HW277770   2.811   1.496  10.515 -1.0873  0.8850  0.6080
25255SOL     OW77771   7.258   3.385  10.185 -0.0886  0.1845 -0.1741
25255SOL    HW177772   7.298   3.469  10.161 -0.8977  0.0792 -2.0154
25255SOL    HW277773   7.188   3.373  10.121  0.3846 -2.1746 -0.3128
25256SOL     OW77774   4.920   3.552   8.861  0.3210 -0.3753  0.0158
25256SOL    HW177775   4.909   3.641   8.894  0.8145 -0.4244  0.3180
25256SOL    HW277776   4.835   3.531   8.820  0.8504  1.0140 -1.9427
25257SOL     OW77777   1.262   8.145   1.308  0.6425  0.9011  0.0088
25257SOL    HW177778   1.247   8.059   1.348  0.4753  1.6635  1.6727
25257SOL    HW277779   1.175   8.186   1.308  1.2264  2.3299  2.3978
25258SOL     OW77780   6.489   5.531   2.917  0.0509 -0.0072 -0.5746
25258SOL    HW177781   6.529   5.475   2.983 -1.0056 -0.3383 -0.1888
25258SOL    HW277782   6.483   5.617   2.960 -0.6827 -0.2339 -0.2019
25259SOL     OW77783   7.949   5.603  10.885 -0.5959 -0.5409 -0.5112
25259SOL    HW177784   8.004   5.664  10.836  1.9615 -1.4902  1.0097
25259SOL    HW277785   7.863   5.646  10.889  0.8931  2.6538 -0.0507
25260SOL     OW77786   4.027   9.257   7.711 -0.3651 -0.3038 -0.3346
25260SOL    HW177787   4.047   9.221   7.797  0.4944 -2.0394 -1.2088
25260SOL    HW277788   3.949   9.310   7.725 -1.2848 -1.9380  1.2109
25261SOL     OW77789   1.303   3.664   6.305  0.0864  0.5798 -0.3406
25261SOL    HW177790   1.365   3.592   6.320 -0.3290  0.4589  0.8741
25261SOL    HW277791   1.233   3.625   6.252  0.1029  0.2223 -0.1009
25262SOL     OW77792   5.178   8.491   0.107  0.3220  0.3057  0.0116
25262SOL    HW177793   5.097   8.480   0.058  1.0844 -0.4137 -1.1621
25262SOL    HW277794   5.210   8.578   0.081 -0.0021  0.5274  0.3598
25263SOL     OW77795   6.404   3.685   2.708 -0.0326 -0.1225  0.0811
25263SOL    HW177796   6.368   3.756   2.654  0.4817 -1.3364 -1.9827
25263SOL    HW277797   6.414   3.612   2.647  3.3360 -0.6949  1.1036
25264SOL     OW77798   1.682   4.676   3.746 -0.0872 -0.1107  0.2347
25264SOL    HW177799   1.770   4.639   3.750 -0.3781 -1.1991 -1.8783
25264SOL    HW277800   1.626   4.602   3.720 -1.8345  0.3098  2.4491
25265SOL     OW77801   5.863   7.491   5.499  0.0106  0.2242 -0.3037
25265SOL    HW177802   5.914   7.426   5.546 -1.6275 -1.1630 -0.3432
25265SOL    HW277803   5.877   7.471   5.407 -1.1128 -0.6464 -0.3149
25266SOL     OW77804   8.321   2.801   2.222 -0.0618  0.0733  0.4477
25266SOL    HW177805   8.321   2.844   2.137 -1.3997  1.2305  0.9881
25266SOL    HW277806   8.409   2.764   2.231  0.2113  0.2512 -1.2593
25267SOL     OW77807  10.212   1.065   5.436  0.2849 -0.4395  0.4657
25267SOL    HW177808  10.245   1.155   5.436 -0.8466  0.0027 -0.3218
25267SOL    HW277809  10.175   1.054   5.349  1.9874 -2.2902 -0.0777
25268SOL     OW77810   9.229   6.357   3.147 -0.0670  0.2301 -0.3136
25268SOL    HW177811   9.185   6.325   3.226 -0.2754  1.6720  0.1889
25268SOL    HW277812   9.318   6.378   3.177 -0.7416  2.8361  0.1460
25269SOL     OW77813   2.370   8.753   8.311  0.5528  0.2843  0.2373
25269SOL    HW177814   2.349   8.790   8.396 -0.1839 -0.6957  0.5089
25269SOL    HW277815   2.361   8.658   8.323  1.3478  0.0739 -0.6876
25270SOL     OW77816   8.105   0.976   8.188 -0.0044 -0.4049  0.0316
25270SOL    HW177817   8.035   0.911   8.186  0.6323 -1.3734  3.1688
25270SOL    HW277818   8.122   0.990   8.281  0.3350  3.8750 -0.4643
25271SOL     OW77819   6.682   8.577   9.516 -0.3185  0.1195 -0.0271
25271SOL    HW177820   6.739   8.605   9.444 -1.0660  0.0399 -0.6668
25271SOL    HW277821   6.608   8.533   9.472 -1.9515  2.0799  0.6180
25272SOL     OW77822   2.463   0.557   1.270 -0.0933  0.2714 -0.1089
25272SOL    HW177823   2.402   0.571   1.198  0.2961  0.2790 -0.4450
25272SOL    HW277824   2.477   0.645   1.307 -1.2071  0.1143  0.7517
25273SOL     OW77825   5.283   9.658   2.469 -0.1600 -0.2984 -0.0892
25273SOL    HW177826   5.217   9.668   2.400 -1.0814 -1.8128  0.5226
25273SOL    HW277827   5.348   9.599   2.433 -1.1571 -1.9064  0.6292
25274SOL     OW77828   9.580   7.528  10.908 -0.5292 -0.2374  0.3337
25274SOL    HW177829   9.663   7.515  10.861 -0.8368  0.3606 -0.4034
25274SOL    HW277830   9.601   7.509  11.000  0.8375  1.4228  0.4259
25275SOL     OW77831   8.815   2.395  10.981  0.0884 -0.2213 -0.1990
25275SOL    HW177832   8.850   2.343  11.053 -1.3180 -0.4674  0.3382
25275SOL    HW277833   8.726   2.415  11.007 -0.1437  0.4804 -1.4641
25276SOL     OW77834   1.903   0.621   6.257 -0.7704  0.0421  0.4104
25276SOL    HW177835   1.845   0.697   6.259 -1.3838 -0.3653 -0.8154
25276SOL    HW277836   1.885   0.579   6.173 -0.1030 -1.2021  0.8606
25277SOL     OW77837   6.415   9.066   4.177 -0.1961 -0.1762  0.7142
25277SOL    HW177838   6.376   8.979   4.175  1.2787 -0.8862  1.2901
25277SOL    HW277839   6.347   9.123   4.212 -0.3211 -1.6048  2.9691
25278SOL     OW77840   6.554   6.647   9.409  0.2479  0.3158  0.2558
25278SOL    HW177841   6.512   6.652   9.323  0.8657  2.6997  0.0207
25278SOL    HW277842   6.637   6.694   9.398 -0.5831  2.5740  2.6218
25279SOL     OW77843   2.406   3.113   1.932  0.2770 -0.1345 -0.1715
25279SOL    HW177844   2.341   3.089   1.998 -0.4014  0.1979 -0.7002
25279SOL    HW277845   2.448   3.191   1.967 -1.5042  1.2852 -1.0047
25280SOL     OW77846   8.925   6.812  10.511 -0.6503  0.0057  0.0605
25280SOL    HW177847   8.987   6.789  10.443 -1.0346 -0.3463 -0.1816
25280SOL    HW277848   8.839   6.787  10.475 -0.7832 -0.9843  0.9913
25281SOL     OW77849   2.611   7.242   7.084 -0.1874 -0.0171 -0.2240
25281SOL    HW177850   2.632   7.326   7.042 -1.9719  0.0117 -1.1511
25281SOL    HW277851   2.619   7.177   7.014 -0.1967 -0.4149  0.1411
25282SOL     OW77852   6.407   7.034   2.222  0.7139 -0.2693 -0.2045
25282SOL    HW177853   6.441   7.084   2.147  1.4829  1.1186  1.0275
25282SOL    HW277854   6.312   7.047   2.218  0.3922 -2.4275 -2.4401
25283SOL     OW77855   5.154   4.099   8.906  0.0913  0.4962 -0.5959
25283SOL    HW177856   5.162   4.136   8.994  0.1381  0.0256 -0.3946
25283SOL    HW277857   5.062   4.075   8.898  0.0206  0.8395 -0.8003
25284SOL     OW77858   9.591   9.339   8.878  0.2429 -0.3994 -0.3264
25284SOL    HW177859   9.663   9.339   8.815  0.4236 -1.2907 -0.1230
25284SOL    HW277860   9.589   9.429   8.912  1.9273 -0.6160  0.4207
25285SOL     OW77861   9.614   8.460   5.108  0.4218  0.2345  0.3224
25285SOL    HW177862   9.603   8.554   5.100  1.6232  0.3936  0.3776
25285SOL    HW277863   9.525   8.425   5.105  0.0291  1.2144 -1.6371
25286SOL     OW77864   0.672   7.639   0.322  0.1850 -0.0360 -0.7901
25286SOL    HW177865   0.695   7.633   0.230  0.2997  1.4876 -0.8759
25286SOL    HW277866   0.620   7.719   0.330 -1.6676 -1.2444  0.1089
25287SOL     OW77867   5.096   2.299   0.513 -0.4549 -0.3239  0.3293
25287SOL    HW177868   5.176   2.256   0.544  0.5522  0.2163 -1.4241
25287SOL    HW277869   5.088   2.376   0.569 -0.4982 -1.0576  1.3687
25288SOL     OW77870   8.731   1.964   0.517 -0.1053  0.0845 -0.0641
25288SOL    HW177871   8.711   1.893   0.578  1.8359 -1.0677 -0.6995
25288SOL    HW277872   8.646   1.989   0.481 -0.9664 -1.0377  1.1013
25289SOL     OW77873   7.966   2.342   1.486  0.0035  0.2933  0.5790
25289SOL    HW177874   7.964   2.248   1.502  1.2121  0.5267  2.3757
25289SOL    HW277875   8.022   2.377   1.555  0.2416  2.2464 -0.5315
25290SOL     OW77876   0.420   8.972   3.591  0.9795 -0.0074  0.0467
25290SOL    HW177877   0.402   9.044   3.652  0.7857  0.7677 -0.9064
25290SOL    HW277878   0.431   8.896   3.648  1.0993  0.7459  1.0765
25291SOL     OW77879   7.037   8.443   8.525 -0.0098 -0.1789  0.0511
25291SOL    HW177880   7.066   8.533   8.511 -0.9567  0.0890 -0.2215
25291SOL    HW277881   7.111   8.390   8.496 -0.2439  0.4525 -1.8614
25292SOL     OW77882   7.641   1.728   8.361 -0.1587 -0.0132 -0.3016
25292SOL    HW177883   7.691   1.648   8.375 -1.8070 -1.5969 -2.7832
25292SOL    HW277884   7.704   1.788   8.320  0.7856 -0.4023  0.5333
25293SOL     OW77885   3.364   5.897   9.303 -0.1299  0.1376 -0.4574
25293SOL    HW177886   3.360   5.933   9.391 -1.7925  1.0278 -0.8621
25293SOL    HW277887   3.453   5.915   9.274  0.1464  0.6934  0.6762
25294SOL     OW77888   5.254   5.042   4.443 -0.2580  0.2797 -0.3046
25294SOL    HW177889   5.160   5.025   4.445 -0.5053  1.5664 -0.1259
25294SOL    HW277890   5.294   4.955   4.442 -1.4409 -0.2856 -0.2694
25295SOL     OW77891   6.093   1.900   6.400 -0.1633  0.5907 -0.5823
25295SOL    HW177892   6.018   1.841   6.407  0.2773  0.2216  2.1057
25295SOL    HW277893   6.057   1.987   6.419 -0.0873  0.5951 -0.4643
25296SOL     OW77894   2.565   5.695   2.159 -0.0658 -0.3377  0.3040
25296SOL    HW177895   2.587   5.695   2.252  1.3966 -0.6168 -0.0157
25296SOL    HW277896   2.499   5.764   2.149 -0.5970 -0.6305  1.6102
25297SOL     OW77897   1.340   5.191   5.504 -0.0298  0.5257  0.0141
25297SOL    HW177898   1.372   5.136   5.432  0.7783  0.3515  0.4946
25297SOL    HW277899   1.352   5.137   5.582  1.6992  1.7004  0.6257
25298SOL     OW77900   2.783   1.221   9.863  0.2152 -0.2949  0.1585
25298SOL    HW177901   2.791   1.176   9.779 -0.2093 -2.1186  1.0485
25298SOL    HW277902   2.689   1.220   9.882  0.4332 -1.2422  1.3183
25299SOL     OW77903   4.949   1.692   7.830  0.1453  0.1744 -0.2902
25299SOL    HW177904   4.984   1.740   7.755  0.6934 -2.0325 -1.5317
25299SOL    HW277905   5.021   1.688   7.892 -0.6164  2.9285  0.9652
25300SOL     OW77906   5.874   7.551   8.464  0.1130 -0.1714 -0.0186
25300SOL    HW177907   5.846   7.523   8.551 -1.3483 -0.2123 -0.4749
25300SOL    HW277908   5.826   7.633   8.448 -0.9794 -1.0373 -1.4385
25301SOL     OW77909   8.906   5.904   1.348  0.0620  0.4866  0.4392
25301SOL    HW177910   8.933   5.826   1.299  0.6078  0.4408  0.8006
25301SOL    HW277911   8.910   5.975   1.284  0.2305  0.3339  0.2786
25302SOL     OW77912   2.620   6.094  10.911 -0.9449  0.2098 -0.5154
25302SOL    HW177913   2.660   6.013  10.879  2.0425  1.2083  0.3573
25302SOL    HW277914   2.623   6.154  10.836 -0.0170  0.5322 -0.2281
25303SOL     OW77915   8.705   3.314   4.487  0.0860  0.1931  0.4659
25303SOL    HW177916   8.665   3.227   4.475 -0.9973  0.8660 -1.1083
25303SOL    HW277917   8.773   3.300   4.553 -1.0978 -1.5301  1.4094
25304SOL     OW77918   1.513   8.201   3.623 -0.1097 -0.6745 -0.0444
25304SOL    HW177919   1.440   8.182   3.682  0.2762  0.4976  0.8413
25304SOL    HW277920   1.589   8.206   3.681  0.9632 -3.1479 -1.0725
25305SOL     OW77921   7.978   7.177   9.094  0.2122  0.0652 -0.2596
25305SOL    HW177922   7.917   7.149   9.162 -0.0359  0.2762 -0.3937
25305SOL    HW277923   7.986   7.102   9.036  0.1102  0.0230 -0.2189
25306SOL     OW77924   3.584   2.815  10.525 -0.0157 -0.1610 -0.5015
25306SOL    HW177925   3.545   2.799  10.611 -0.0768  0.5708 -0.3806
25306SOL    HW277926   3.511   2.844  10.470  0.3148  1.1909 -0.2792
25307SOL     OW77927   2.454  10.434   5.373 -0.5045 -0.4511  0.0450
25307SOL    HW177928   2.441  10.525   5.345  0.1754 -0.1233  0.7431
25307SOL    HW277929   2.508  10.396   5.305  0.7040  0.1923  0.6068
25308SOL     OW77930   2.764   0.796   2.142 -0.4133  0.0203 -0.2196
25308SOL    HW177931   2.857   0.775   2.154 -0.1403  1.0219 -0.5503
25308SOL    HW277932   2.725   0.712   2.116  0.3329 -0.4868  0.2322
25309SOL     OW77933   4.150   2.718   2.293  0.0377 -0.0737  0.0461
25309SOL    HW177934   4.125   2.785   2.229 -0.3919 -0.3900 -0.1239
25309SOL    HW277935   4.186   2.767   2.367 -1.9814  0.4675  0.7123
25310SOL     OW77936   6.062   0.368   6.255  0.0892  0.1217  0.3199
25310SOL    HW177937   6.018   0.453   6.260 -2.1057 -1.0029  3.5294
25310SOL    HW277938   6.137   0.376   6.314  0.0583 -0.0664  0.3859
25311SOL     OW77939   6.041   8.491   7.378  0.1693 -0.5959  0.3318
25311SOL    HW177940   6.095   8.569   7.390 -0.3660 -0.0424 -0.7830
25311SOL    HW277941   6.024   8.460   7.467  0.6794  0.3404  0.7690
25312SOL     OW77942   4.648   4.679   9.849  0.4870 -0.1030 -0.1971
25312SOL    HW177943   4.710   4.628   9.901  0.8834  1.2585  0.6945
25312SOL    HW277944   4.698   4.703   9.770  0.4725 -0.6011 -0.3648
25313SOL     OW77945   4.504   8.298   1.928  0.3348  0.2752 -0.5214
25313SOL    HW177946   4.451   8.375   1.907 -0.0437 -0.0285 -0.7094
25313SOL    HW277947   4.584   8.309   1.878  0.4798  0.7692 -0.1918
25314SOL     OW77948  10.886   3.724  10.881 -0.1367  0.4847 -0.1397
25314SOL    HW177949  10.956   3.659  10.889  0.3100  0.7499 -1.6795
25314SOL    HW277950  10.929   3.802  10.847 -1.1371  0.7232 -0.8898
25315SOL     OW77951   8.883   1.906   2.369  0.1144 -0.1383 -0.6677
25315SOL    HW177952   8.868   1.816   2.397 -1.4998  0.4214  0.3688
25315SOL    HW277953   8.845   1.911   2.281 -1.1446 -0.1039 -0.1352
25316SOL     OW77954   6.726   1.996   0.226 -0.1024 -0.1360 -0.2875
25316SOL    HW177955   6.681   2.080   0.214  0.3320  0.0066 -0.9756
25316SOL    HW277956   6.677   1.952   0.295 -1.1913  0.0971 -0.8969
25317SOL     OW77957   9.406   5.949   7.292  0.4017 -0.0827  0.0990
25317SOL    HW177958   9.429   6.042   7.291  1.0075 -0.2116  0.9432
25317SOL    HW277959   9.369   5.935   7.379  2.4454 -1.1057  0.8792
25318SOL     OW77960   5.228   0.743   9.056 -0.3343 -0.0207  0.6849
25318SOL    HW177961   5.187   0.660   9.081 -0.2820 -0.2414  0.0680
25318SOL    HW277962   5.226   0.742   8.960 -3.0738  2.0288  0.5984
25319SOL     OW77963   8.301   8.499   7.953  0.3386  0.0623  0.6112
25319SOL    HW177964   8.318   8.579   7.904  0.6623  0.5504  1.4921
25319SOL    HW277965   8.329   8.520   8.043 -0.1458 -0.8356  0.9795
25320SOL     OW77966   2.666   3.719  10.244 -0.1849  0.0778  0.3448
25320SOL    HW177967   2.599   3.716  10.313 -0.7073 -0.3130 -0.1702
25320SOL    HW277968   2.749   3.726  10.291 -0.6601  2.0267  0.9925
25321SOL     OW77969   5.963  11.068   0.876  0.5323 -0.1062  0.5318
25321SOL    HW177970   5.920  11.108   0.801  0.4220  1.0688  1.2098
25321SOL    HW277971   6.054  11.053   0.847  0.4266  0.1038  0.0923
25322SOL     OW77972  10.164  10.128   8.504 -0.0617  0.0194 -0.1886
25322SOL    HW177973  10.095  10.189   8.532  0.4340  0.3297  0.3718
25322SOL    HW277974  10.202  10.096   8.585  0.8421  0.2958 -0.4925
25323SOL     OW77975   3.946  10.458   8.960  0.1205  0.2864  0.0536
25323SOL    HW177976   4.004  10.476   8.885  1.1534  2.0215  1.2078
25323SOL    HW277977   3.883  10.530   8.959 -0.4645 -0.2135  0.3170
25324SOL     OW77978   3.172   5.667  10.589 -0.3183 -0.0201 -0.2805
25324SOL    HW177979   3.176   5.579  10.628  2.2635  1.1330  2.3650
25324SOL    HW277980   3.215   5.657  10.504  1.6503 -1.0165  0.7572
25325SOL     OW77981   7.593   7.316   1.761  0.0266  1.3372  0.1218
25325SOL    HW177982   7.548   7.232   1.767  2.9278 -0.2471  2.6322
25325SOL    HW277983   7.542   7.374   1.818 -0.7757  0.6679  0.1122
25326SOL     OW77984   8.621   6.296   9.869  0.2825  0.1203  0.3835
25326SOL    HW177985   8.662   6.217   9.904 -0.6975 -1.1390 -1.1576
25326SOL    HW277986   8.676   6.321   9.795 -0.0613  0.1787  0.1451
25327SOL     OW77987   8.997   5.466  10.822 -0.4701 -0.2146 -0.1109
25327SOL    HW177988   8.963   5.526  10.889  0.3353  0.5425 -0.3519
25327SOL    HW277989   8.920   5.418  10.791 -1.0109  0.1346  0.6512
25328SOL     OW77990   7.429   6.682  10.890 -0.2169  0.2261 -0.8151
25328SOL    HW177991   7.470   6.657  10.973 -1.9573 -0.3151 -0.0606
25328SOL    HW277992   7.352   6.734  10.916  0.4595  2.0339 -2.1865
25329SOL     OW77993   4.570   0.077   7.209  0.3552  0.0464  0.3184
25329SOL    HW177994   4.564  -0.018   7.217 -0.7559  0.2031  1.5701
25329SOL    HW277995   4.530   0.111   7.289  0.2101  1.5830 -0.3735
25330SOL     OW77996   7.427   5.206   5.755 -0.1233 -0.1589 -0.4501
25330SOL    HW177997   7.423   5.236   5.664 -0.5676  0.8861 -0.1042
25330SOL    HW277998   7.368   5.264   5.802  1.9323  0.9363  0.9362
25331SOL     OW77999   2.811   5.801   2.040 -0.2496  0.0219  0.1519
25331SOL    HW178000   2.759   5.759   2.108 -1.6448 -1.0918 -1.5008
25331SOL    HW278001   2.835   5.730   1.981  2.9104  0.5752  0.6147
25332SOL     OW78002   3.764   8.073   9.875 -0.1802 -0.0346  0.1246
25332SOL    HW178003   3.843   8.045   9.920 -0.3735 -1.4740 -0.3981
25332SOL    HW278004   3.699   8.083   9.945  0.1406 -0.0154  0.4208
25333SOL     OW78005   8.148  10.185   0.385 -0.3650 -0.1262 -0.1198
25333SOL    HW178006   8.242  10.199   0.372 -0.2546 -1.1291 -0.5489
25333SOL    HW278007   8.119  10.261   0.435  0.6112  0.3611 -0.2602
25334SOL     OW78008   6.533   1.819   5.033 -0.0795 -0.8098  0.5549
25334SOL    HW178009   6.462   1.861   4.984  0.8401  0.9426  0.6360
25334SOL    HW278010   6.499   1.808   5.121 -0.1083  0.4978  0.7268
25335SOL     OW78011   5.788   5.291   1.792  0.2436  0.0017 -0.7508
25335SOL    HW178012   5.724   5.267   1.725 -1.1699  0.9017  0.2125
25335SOL    HW278013   5.742   5.275   1.875  1.5321  0.0169 -0.0139
25336SOL     OW78014   8.247   7.384   8.072 -0.0552  0.1970 -0.1948
25336SOL    HW178015   8.291   7.441   8.009 -0.5880  2.4250  1.3518
25336SOL    HW278016   8.310   7.375   8.144 -1.1827  1.5366  1.0107
25337SOL     OW78017   6.952   4.042   3.418 -0.2715 -0.0135  0.3877
25337SOL    HW178018   6.987   4.092   3.492  0.6705  0.2472 -0.2039
25337SOL    HW278019   6.947   4.106   3.347 -0.4403 -0.4276  0.0237
25338SOL     OW78020   8.838   3.347   9.363  0.1059  0.5096  0.3516
25338SOL    HW178021   8.823   3.274   9.423  0.6865  0.8409  0.9102
25338SOL    HW278022   8.799   3.423   9.406  1.5793  0.9965  0.9150
25339SOL     OW78023  10.710   2.977   1.712 -0.1030 -0.3846  0.2663
25339SOL    HW178024  10.666   3.027   1.643  0.1462  0.4552  0.7012
25339SOL    HW278025  10.650   2.982   1.786 -0.7056 -1.8944 -0.0916
25340SOL     OW78026   2.013  10.156   9.866  0.2362 -0.4381  0.2870
25340SOL    HW178027   1.982  10.076   9.823 -0.9692  0.1913 -0.0611
25340SOL    HW278028   2.098  10.132   9.902 -0.4547 -2.1505  0.9291
25341SOL     OW78029  10.408   2.622   8.767  0.4701 -0.0076  0.8490
25341SOL    HW178030  10.324   2.663   8.787  0.6404  0.4438  0.6551
25341SOL    HW278031  10.401   2.534   8.804  0.4035  0.4618  2.0034
25342SOL     OW78032   8.386   0.705   3.206  0.2353 -0.0811  0.2652
25342SOL    HW178033   8.432   0.729   3.126 -0.9438  0.5988 -0.2422
25342SOL    HW278034   8.429   0.757   3.274  0.7645 -0.0987 -0.0513
25343SOL     OW78035   5.325   6.642   3.347 -0.0195  0.0440 -0.6351
25343SOL    HW178036   5.251   6.696   3.376  0.8128  0.9999 -0.2476
25343SOL    HW278037   5.403   6.694   3.368  0.9599 -2.2059  1.7646
25344SOL     OW78038  10.182   6.128   2.554 -0.3132 -0.1296  0.0244
25344SOL    HW178039  10.157   6.211   2.513  0.7487  0.4490  0.5080
25344SOL    HW278040  10.209   6.152   2.642  1.0123 -0.8335 -0.1650
25345SOL     OW78041  10.012   7.181  10.882  1.0890  0.6733  0.0099
25345SOL    HW178042  10.006   7.122  10.957  1.1675 -1.5114 -1.6142
25345SOL    HW278043   9.922   7.186  10.848  1.3667  0.0538 -0.8668
25346SOL     OW78044   6.363   3.197   6.590 -0.4535  0.6894  0.5121
25346SOL    HW178045   6.327   3.207   6.501 -0.8548 -1.6650  0.3475
25346SOL    HW278046   6.287   3.175   6.644  0.2326 -1.3236  0.7465
25347SOL     OW78047   6.769  10.263   4.516  0.5348 -0.1588 -0.2073
25347SOL    HW178048   6.723  10.215   4.447  0.9645 -1.1077  0.1499
25347SOL    HW278049   6.799  10.343   4.473 -0.0839 -0.2574 -0.8476
25348SOL     OW78050   6.326   4.107  10.536 -0.2122  0.0564  0.0567
25348SOL    HW178051   6.382   4.073  10.467  1.1161 -1.4764  1.7869
25348SOL    HW278052   6.325   4.039  10.603 -1.6875  1.3331  1.4491
25349SOL     OW78053   7.064   1.577   5.502 -0.1412 -0.2078  0.0707
25349SOL    HW178054   7.047   1.621   5.585  1.1900  1.2589 -0.3839
25349SOL    HW278055   7.146   1.529   5.516  0.5515  0.7324 -0.6052
25350SOL     OW78056   5.457   3.689  10.736 -0.1262 -0.2384 -0.0315
25350SOL    HW178057   5.537   3.640  10.716  0.7236  1.5366 -1.2217
25350SOL    HW278058   5.475   3.730  10.820 -0.8086 -1.8121  0.9295
25351SOL     OW78059   9.626   5.246   1.170  0.2544 -0.3927 -0.1183
25351SOL    HW178060   9.677   5.302   1.112 -0.3059 -0.2727 -0.4998
25351SOL    HW278061   9.687   5.176   1.195  0.1129 -1.2325 -1.9622
25352SOL     OW78062  10.686   9.471   0.079  0.2500 -0.4682  0.5668
25352SOL    HW178063  10.744   9.545   0.063 -1.6843  0.5298 -2.9557
25352SOL    HW278064  10.737   9.395   0.050 -0.1417  0.4284 -2.8961
25353SOL     OW78065   8.524   8.451   5.675  0.0949 -0.1511 -0.4955
25353SOL    HW178066   8.435   8.478   5.653  0.4138  0.4216 -1.1147
25353SOL    HW278067   8.522   8.355   5.670 -0.9081 -0.2416  1.1860
25354SOL     OW78068   2.470  10.386   4.668 -0.1419 -0.0943 -0.2735
25354SOL    HW178069   2.502  10.382   4.758 -0.8184  0.2631 -0.0060
25354SOL    HW278070   2.549  10.396   4.614  0.1678  1.8339  0.4346
25355SOL     OW78071   2.463   0.862   7.330  0.1250 -0.2664  0.3107
25355SOL    HW178072   2.547   0.858   7.375  0.5808 -1.3524 -0.5757
25355SOL    HW278073   2.469   0.940   7.274  0.4511 -0.2123  0.4238
25356SOL     OW78074   9.368   5.856   8.621  0.4688 -0.1709  0.2737
25356SOL    HW178075   9.305   5.887   8.555 -0.0387  1.2550  1.3866
25356SOL    HW278076   9.330   5.775   8.654 -1.4336  1.2176  1.7231
25357SOL     OW78077   2.534   1.846   2.471 -0.1100 -0.1499  0.1854
25357SOL    HW178078   2.476   1.836   2.546  0.3682 -2.4055  0.3043
25357SOL    HW278079   2.495   1.794   2.402 -0.2538  1.4683 -1.0049
25358SOL     OW78080   4.609   1.248  10.513  0.1290 -0.6667 -0.0846
25358SOL    HW178081   4.690   1.294  10.493  0.0328 -0.8018 -0.7872
25358SOL    HW278082   4.562   1.306  10.573  0.7583 -0.6054  0.3557
25359SOL     OW78083   6.936   4.606   0.504 -0.8612 -0.8307  0.9427
25359SOL    HW178084   6.907   4.522   0.468  1.6805 -1.3270 -0.1736
25359SOL    HW278085   6.905   4.671   0.441 -0.1036 -1.2735  0.0974
25360SOL     OW78086  10.539   8.378   2.872 -0.4139 -0.1861  0.3559
25360SOL    HW178087  10.604   8.371   2.943 -0.3916 -0.6924  0.2906
25360SOL    HW278088  10.456   8.391   2.917 -0.3623 -0.2274  0.4638
25361SOL     OW78089   4.735   7.344   1.255 -0.2389  0.0930  0.1088
25361SOL    HW178090   4.661   7.308   1.206  0.8034  0.4100 -1.7699
25361SOL    HW278091   4.787   7.267   1.279 -0.9495 -0.0972  1.1287
25362SOL     OW78092   4.423   7.535   9.546 -0.5511 -0.3342 -0.9929
25362SOL    HW178093   4.507   7.563   9.510 -0.2385  1.3035  0.8319
25362SOL    HW278094   4.366   7.525   9.470  0.3194  2.0402 -2.0590
25363SOL     OW78095   1.539   7.242   6.532 -0.4318  0.0808  0.2940
25363SOL    HW178096   1.487   7.224   6.610 -1.8807  0.4479 -0.5556
25363SOL    HW278097   1.500   7.321   6.494  1.7084  1.2951  0.4281
25364SOL     OW78098   3.381  10.482  10.808  0.0036 -0.4506  0.1734
25364SOL    HW178099   3.406  10.412  10.748  0.6285  0.2949 -0.4537
25364SOL    HW278100   3.292  10.507  10.780 -0.7168 -1.7719  1.1609
25365SOL     OW78101   1.178   8.439   1.573 -0.1423 -0.4084 -0.0317
25365SOL    HW178102   1.099   8.389   1.595  0.0424 -0.3998  0.6875
25365SOL    HW278103   1.152   8.530   1.584 -0.3591 -0.3505 -0.9373
25366SOL     OW78104   8.244   8.860   0.833 -0.1527  0.0380  0.2752
25366SOL    HW178105   8.256   8.765   0.827  0.9761  0.0810  1.2800
25366SOL    HW278106   8.154   8.871   0.863 -0.0298 -0.7622  0.9791
25367SOL     OW78107   8.341   7.415   9.436  0.1101  0.3521 -0.0050
25367SOL    HW178108   8.377   7.357   9.369 -1.3002 -0.5129 -0.0508
25367SOL    HW278109   8.386   7.390   9.516  0.4421  0.0856 -0.2739
25368SOL     OW78110   9.926   7.466   9.977 -0.5895 -0.0876 -0.3656
25368SOL    HW178111  10.013   7.484  10.011 -1.5188  0.5986  1.8059
25368SOL    HW278112   9.916   7.528   9.904  0.2738  0.6822  0.1552
25369SOL     OW78113   2.758   4.286   9.559  0.0625 -0.5266 -0.3359
25369SOL    HW178114   2.817   4.354   9.525 -0.7859 -0.1713 -1.1490
25369SOL    HW278115   2.747   4.226   9.486  0.5057 -1.3487  0.2604
25370SOL     OW78116   6.680   0.941   9.402  0.0158  0.2664  0.0742
25370SOL    HW178117   6.609   0.884   9.372 -0.9740  1.1094  0.7628
25370SOL    HW278118   6.696   1.000   9.328 -0.9386  0.9538  0.4161
25371SOL     OW78119   9.956   1.590   2.650  0.9319  0.0160 -0.4335
25371SOL    HW178120   9.883   1.614   2.707  0.4892 -2.0288 -0.0606
25371SOL    HW278121  10.030   1.641   2.683  0.0073  1.0509  0.0926
25372SOL     OW78122   1.519  10.158   3.396 -0.1290  0.8084 -0.3074
25372SOL    HW178123   1.562  10.095   3.337 -0.2391 -2.9294  3.2034
25372SOL    HW278124   1.590  10.216   3.424  0.9463 -0.3478 -0.5313
25373SOL     OW78125   4.235   6.635   0.818  0.6111  0.5003  0.0300
25373SOL    HW178126   4.223   6.590   0.901  3.1797  0.8643  0.6809
25373SOL    HW278127   4.240   6.565   0.753  1.6397  0.0113  0.6262
25374SOL     OW78128   9.778   5.256   5.044 -0.7881  0.2435  0.1213
25374SOL    HW178129   9.715   5.214   4.986  0.4920 -2.0110  0.2376
25374SOL    HW278130   9.852   5.278   4.987 -0.5768  0.3973  0.4480
25375SOL     OW78131   6.884   3.798   9.196 -0.1954 -0.4205  0.3275
25375SOL    HW178132   6.838   3.856   9.135  2.6962  2.6786  0.7740
25375SOL    HW278133   6.963   3.772   9.150 -0.7260 -2.9506  0.7166
25376SOL     OW78134   5.948   3.317   1.226  0.3770 -0.2704  0.0220
25376SOL    HW178135   5.994   3.352   1.151  2.4033 -0.3758  1.1539
25376SOL    HW278136   6.010   3.257   1.267 -0.9294 -0.7750  1.3714
25377SOL     OW78137   3.195   4.717   7.930 -0.0438  0.3084 -0.3953
25377SOL    HW178138   3.115   4.750   7.889 -1.2351 -0.1879  1.3944
25377SOL    HW278139   3.172   4.628   7.959  1.6354 -0.4032 -1.0984
25378SOL     OW78140   1.247   1.732   9.008  0.5065  0.0538 -0.6794
25378SOL    HW178141   1.227   1.654   8.957  0.0774 -0.6589  0.5401
25378SOL    HW278142   1.244   1.804   8.944 -1.2108 -0.6519 -1.4479
25379SOL     OW78143   6.555   6.683   7.487 -0.3225 -0.7783 -0.4614
25379SOL    HW178144   6.536   6.726   7.570 -1.7787  1.4912 -1.8542
25379SOL    HW278145   6.496   6.607   7.485 -1.3206 -0.0452  0.0092
25380SOL     OW78146   0.064   4.739   9.344  0.1038 -0.6807 -0.3847
25380SOL    HW178147   0.128   4.763   9.410  0.3491 -2.7856  0.2273
25380SOL    HW278148   0.114   4.691   9.278 -0.2458  0.8372 -1.8363
25381SOL     OW78149   7.281   6.932   1.236 -0.4633 -0.0299  0.7350
25381SOL    HW178150   7.309   7.019   1.265  2.2583 -0.7550  0.6030
25381SOL    HW278151   7.231   6.897   1.309  0.8462  0.6025  1.9867
25382SOL     OW78152   3.125   8.486   7.707 -0.2783  0.1870 -0.5699
25382SOL    HW178153   3.112   8.414   7.769 -1.4272  1.5163  0.8202
25382SOL    HW278154   3.125   8.444   7.621  0.8672 -1.6598  0.2614
25383SOL     OW78155   5.211   7.737  11.071  0.8495  0.4785  0.3138
25383SOL    HW178156   5.158   7.774  11.000 -0.9692 -0.5949  1.0740
25383SOL    HW278157   5.156   7.671  11.111  2.6397 -0.4291  1.4065
25384SOL     OW78158   3.285   5.676   4.152 -0.8167  0.3360  0.2139
25384SOL    HW178159   3.353   5.659   4.217  0.1874  1.3867 -0.5208
25384SOL    HW278160   3.259   5.767   4.166  0.0091  0.8545 -1.3500
25385SOL     OW78161   8.914   8.946   0.133  0.0271  0.4475 -0.0665
25385SOL    HW178162   8.838   8.994   0.167  0.6409  1.4816 -0.1018
25385SOL    HW278163   8.982   8.961   0.198  0.0095 -1.1056  0.3501
25386SOL     OW78164   3.592   0.821   8.571  0.2159  0.0773 -0.2171
25386SOL    HW178165   3.510   0.777   8.548 -1.7314  3.1928  0.0845
25386SOL    HW278166   3.639   0.758   8.625 -3.2138 -1.0025  1.8406
25387SOL     OW78167   6.475   6.344   9.514 -0.5341 -0.5652  0.4116
25387SOL    HW178168   6.384   6.340   9.484 -1.3192  1.2567  2.2084
25387SOL    HW278169   6.469   6.327   9.608  0.7487  0.9637  0.8206
25388SOL     OW78170   0.179   2.705   1.299 -0.1246 -0.0157  0.3501
25388SOL    HW178171   0.249   2.756   1.260 -0.9211 -0.2912 -1.5543
25388SOL    HW278172   0.099   2.749   1.272 -0.7329  0.2606  2.4274
25389SOL     OW78173   8.824   5.118  10.208 -0.8480  0.1354  0.1399
25389SOL    HW178174   8.830   5.025  10.188  0.4850  0.2124  0.0996
25389SOL    HW278175   8.733   5.131  10.235 -0.7233 -1.4398  1.4551
25390SOL     OW78176   7.419   4.516   3.579  0.0724  0.0081 -0.1755
25390SOL    HW178177   7.459   4.594   3.619 -1.4937 -0.1658  1.8753
25390SOL    HW278178   7.366   4.550   3.508 -0.7924  0.8800  0.8530
25391SOL     OW78179   6.329   6.697   6.364 -1.0129 -0.1983 -0.3368
25391SOL    HW178180   6.376   6.623   6.402 -0.7676  0.2232  0.1825
25391SOL    HW278181   6.390   6.735   6.300 -1.7037 -1.3751 -1.7652
25392SOL     OW78182   3.306   6.544   2.702  0.0365 -0.1709  0.3589
25392SOL    HW178183   3.334   6.606   2.635  1.2170 -0.2120  0.7817
25392SOL    HW278184   3.388   6.514   2.742 -0.5868 -1.0007  1.0507
25393SOL     OW78185   5.747   8.158   9.504 -0.5777 -0.4933 -0.0176
25393SOL    HW178186   5.747   8.190   9.594  0.9482 -1.1341  0.2464
25393SOL    HW278187   5.755   8.063   9.512  0.2825 -0.5131 -0.8179
25394SOL     OW78188   0.213   3.066  10.349 -0.1564 -0.3212  0.2586
25394SOL    HW178189   0.275   3.027  10.411  0.2056  0.0649  0.1408
25394SOL    HW278190   0.249   3.153  10.330  1.1845 -1.3535 -2.5152
25395SOL     OW78191   0.225   2.719   5.969 -0.1959 -0.1503  0.3584
25395SOL    HW178192   0.300   2.746   5.917 -1.1675  0.2218 -0.9234
25395SOL    HW278193   0.188   2.644   5.922 -1.3875  0.5040  0.2018
25396SOL     OW78194   5.892  10.502   1.319 -0.5333 -0.0122 -0.7382
25396SOL    HW178195   5.927  10.449   1.248 -2.2194 -0.3211 -1.3923
25396SOL    HW278196   5.964  10.559   1.345  0.6069 -1.0346 -1.5794
25397SOL     OW78197   1.336   9.572  10.377 -0.8021 -0.0678 -0.7246
25397SOL    HW178198   1.319   9.666  10.382 -1.7997 -0.1147 -2.2738
25397SOL    HW278199   1.338   9.554  10.283 -0.1443 -1.5160 -0.4472
25398SOL     OW78200   4.353   2.408   2.683 -0.1191 -0.6773 -0.3414
25398SOL    HW178201   4.411   2.422   2.757  1.7330 -0.0768 -1.8250
25398SOL    HW278202   4.298   2.486   2.679 -0.5278 -0.9025  0.6126
25399SOL     OW78203   2.442   4.681   6.838  0.3047  0.4964  0.0640
25399SOL    HW178204   2.389   4.616   6.884 -0.9748 -0.8724 -3.0602
25399SOL    HW278205   2.508   4.708   6.903 -0.0903 -2.6929  2.0427
25400SOL     OW78206   5.500   4.513   1.735  0.0586 -0.6012 -0.8200
25400SOL    HW178207   5.568   4.573   1.764  0.1887 -1.0227 -0.2409
25400SOL    HW278208   5.548   4.445   1.687 -0.2402  0.6019 -2.9461
25401SOL     OW78209   3.084   4.003  10.298  0.1833 -0.0689  0.1685
25401SOL    HW178210   3.130   4.086  10.285 -0.4368  0.3842  0.8175
25401SOL    HW278211   3.065   4.001  10.392 -0.5663 -0.5390  0.0106
25402SOL     OW78212   3.787   6.793   8.892  0.1779  0.1947 -0.2727
25402SOL    HW178213   3.791   6.885   8.866  0.1819  0.1414 -0.4595
25402SOL    HW278214   3.718   6.791   8.959  0.2759  0.3577 -0.1656
25403SOL     OW78215   5.053   8.786   7.679  0.2322  0.4421 -0.1263
25403SOL    HW178216   5.099   8.751   7.755 -0.5181 -0.2219  0.0359
25403SOL    HW278217   4.960   8.775   7.700  0.0136  0.0787 -1.2119
25404SOL     OW78218   3.104   8.505   8.888 -0.0615 -0.0762 -0.5184
25404SOL    HW178219   3.192   8.513   8.924 -0.1009  0.5660 -0.5646
25404SOL    HW278220   3.047   8.537   8.958 -0.3409 -1.4589 -0.0852
25405SOL     OW78221   5.381  10.858  10.902  0.3744 -0.0661 -0.6488
25405SOL    HW178222   5.455  10.806  10.933  0.3864  0.2741 -0.0973
25405SOL    HW278223   5.349  10.903  10.980 -0.7175 -0.5777 -0.7802
25406SOL     OW78224   4.810   1.541   2.165  0.0811 -0.4453  0.5420
25406SOL    HW178225   4.793   1.521   2.257  0.6411  1.2938  1.0662
25406SOL    HW278226   4.748   1.610   2.143 -0.1577 -0.9535 -0.4495
25407SOL     OW78227   4.888   8.021   1.653 -0.0966  0.2523  0.6548
25407SOL    HW178228   4.877   7.927   1.669  2.1362  0.1080  1.7000
25407SOL    HW278229   4.921   8.056   1.736 -2.9012  2.4416  1.0299
25408SOL     OW78230   0.017   5.910   3.691 -0.3164 -0.4538 -0.3686
25408SOL    HW178231   0.031   5.925   3.597  1.1002  0.8937  0.0130
25408SOL    HW278232  -0.050   5.974   3.715  0.5342  0.3624 -0.1444
25409SOL     OW78233   5.163   6.690   9.657 -0.3010 -0.3169 -0.3000
25409SOL    HW178234   5.245   6.641   9.664  0.1004  0.3373 -0.2976
25409SOL    HW278235   5.097   6.632   9.695 -0.0793 -1.3979 -1.5053
25410SOL     OW78236   5.255   4.805   1.051 -0.4564 -0.6190  0.1133
25410SOL    HW178237   5.210   4.865   1.111 -0.3466  0.0623 -0.4668
25410SOL    HW278238   5.341   4.845   1.037 -0.2615 -1.0815 -0.0353
25411SOL     OW78239   0.432   2.850   1.889  0.2759 -0.0414 -0.5198
25411SOL    HW178240   0.431   2.944   1.909 -2.6262 -0.3903  1.7026
25411SOL    HW278241   0.510   2.817   1.934  0.6773  1.1292 -0.3250
25412SOL     OW78242   1.513   3.848   0.953  0.2670  0.3433  0.2751
25412SOL    HW178243   1.462   3.900   1.016  0.8699  0.0667  1.0087
25412SOL    HW278244   1.461   3.850   0.873 -0.8864  0.0813  0.9969
25413SOL     OW78245   5.105   9.420   0.954  0.1948  0.5336 -0.7334
25413SOL    HW178246   5.089   9.514   0.944  1.9261  0.9534  0.1035
25413SOL    HW278247   5.074   9.400   1.042  0.9641  0.6033 -0.4391
25414SOL     OW78248   3.079   6.017   9.449  1.0965  0.1672 -0.1760
25414SOL    HW178249   3.106   5.956   9.518  0.3927  0.1899  0.1260
25414SOL    HW278250   3.054   6.097   9.495 -0.9893 -0.3688 -0.2784
25415SOL     OW78251   3.549   7.169   2.581 -0.2691  0.3453  0.3528
25415SOL    HW178252   3.477   7.114   2.612  0.2759 -0.5228  0.1266
25415SOL    HW278253   3.542   7.164   2.485 -0.1022  0.5234  0.3319
25416SOL     OW78254   2.273  10.375   0.203  0.3124 -0.0316  0.1968
25416SOL    HW178255   2.294  10.360   0.295  2.8798 -1.2970 -0.4761
25416SOL    HW278256   2.178  10.373   0.198  0.1507 -1.7975  2.5394
25417SOL     OW78257  10.211   6.968   0.534 -0.3038 -0.6530  0.1315
25417SOL    HW178258  10.192   6.933   0.622  0.8955 -0.5429  0.4451
25417SOL    HW278259  10.306   6.966   0.527 -0.3719 -0.3909 -1.0708
25418SOL     OW78260  10.802   2.486   9.937 -0.6046  0.2282  0.5099
25418SOL    HW178261  10.742   2.517  10.005  0.4612  1.5898  0.8782
25418SOL    HW278262  10.853   2.418   9.980 -0.9615  0.0040  0.5904
25419SOL     OW78263   6.889   0.599   9.002 -0.3228 -0.2833 -0.1092
25419SOL    HW178264   6.874   0.636   8.915  0.1401 -0.6715 -0.3543
25419SOL    HW278265   6.944   0.522   8.987 -0.7852 -0.7372  0.4583
25420SOL     OW78266   4.147   8.806   9.996 -0.3163  0.0582  0.1759
25420SOL    HW178267   4.091   8.755   9.938 -0.3651 -0.7982  0.9538
25420SOL    HW278268   4.204   8.741  10.037  0.6032  0.8005  0.1244
25421SOL     OW78269  10.640   3.064  10.986  0.1382  0.2121 -0.1440
25421SOL    HW178270  10.585   3.097  11.058  2.4858  0.6280  1.5717
25421SOL    HW278271  10.611   2.973  10.975 -1.0177  0.4628  0.5523
25422SOL     OW78272   4.132   4.233   4.810 -0.1362  0.3838 -0.0276
25422SOL    HW178273   4.090   4.318   4.822 -1.4573 -0.1909 -0.4401
25422SOL    HW278274   4.062   4.174   4.784  0.7926 -0.8007  0.0274
25423SOL     OW78275   7.496   5.149   9.966 -0.1979  0.1684 -0.2439
25423SOL    HW178276   7.536   5.225   9.922 -0.2505  0.4381  0.1655
25423SOL    HW278277   7.405   5.175   9.980 -0.0297  0.3347  0.5770
25424SOL     OW78278   0.294   6.435   9.240  0.1903 -0.4996  0.0387
25424SOL    HW178279   0.385   6.405   9.249  0.2880 -0.0654  0.6043
25424SOL    HW278280   0.249   6.363   9.198  0.4171 -1.4532  1.3572
25425SOL     OW78281   9.823   0.812   7.900 -0.1279 -0.1997 -0.1484
25425SOL    HW178282   9.844   0.799   7.808  0.0669 -0.5651 -0.0502
25425SOL    HW278283   9.801   0.725   7.933 -0.4995 -0.0242  0.0744
25426SOL     OW78284   7.820   6.748   0.927  0.1636 -0.4102  0.1342
25426SOL    HW178285   7.863   6.774   1.008  2.1678  1.7564 -1.5104
25426SOL    HW278286   7.786   6.829   0.890 -1.9149 -1.5336 -0.6043
25427SOL     OW78287   4.796   8.462   8.447 -0.5768 -0.5463  0.0856
25427SOL    HW178288   4.869   8.520   8.426 -0.4846 -0.8077 -0.3404
25427SOL    HW278289   4.772   8.484   8.537 -1.5715  1.2480 -0.5747
25428SOL     OW78290   6.882   5.809   3.532 -0.2365  0.2488  0.2203
25428SOL    HW178291   6.874   5.856   3.615  1.2081  1.1105 -0.1018
25428SOL    HW278292   6.861   5.718   3.553  1.2864  0.2201  1.7890
25429SOL     OW78293   4.911   5.404   5.080 -0.0120 -0.3557 -0.0570
25429SOL    HW178294   4.832   5.418   5.132  0.2300  0.2344  0.1650
25429SOL    HW278295   4.938   5.492   5.054  0.6831 -0.5376  0.0430
25430SOL     OW78296   6.008   8.050   1.124  0.4830  0.4018 -0.9361
25430SOL    HW178297   6.084   7.993   1.131  0.7471  0.9448  1.3081
25430SOL    HW278298   5.939   8.004   1.171  0.3100  1.2911 -0.2978
25431SOL     OW78299   3.489   6.455   5.322 -0.2070 -0.1103  0.4365
25431SOL    HW178300   3.427   6.466   5.394 -0.4406 -1.0338  0.3830
25431SOL    HW278301   3.545   6.383   5.349 -0.1328 -0.2947 -0.1973
25432SOL     OW78302   7.051   6.101   2.197  0.0760 -0.0907  0.1426
25432SOL    HW178303   7.026   6.187   2.231 -1.2993  0.6707 -2.5120
25432SOL    HW278304   6.982   6.080   2.133 -0.4109 -3.8251  1.6450
25433SOL     OW78305   5.284   7.706   2.685  0.1344 -0.3289  0.7716
25433SOL    HW178306   5.256   7.740   2.600  0.6820 -0.4275  0.5487
25433SOL    HW278307   5.328   7.624   2.664  1.4935  0.3215  1.0152
25434SOL     OW78308   3.576   9.856   4.165  0.5061 -0.3608  0.4887
25434SOL    HW178309   3.579   9.952   4.170 -0.8426 -0.2143 -0.8474
25434SOL    HW278310   3.552   9.837   4.075  1.5775 -2.0136  0.5133
25435SOL     OW78311   9.078   6.362   2.796  0.2249 -0.0787  0.2795
25435SOL    HW178312   9.033   6.318   2.725 -2.1121 -0.6471  1.9787
25435SOL    HW278313   9.162   6.318   2.803 -0.1937 -1.1339 -1.0321
25436SOL     OW78314   0.559   5.689   2.489 -0.7104  0.3301 -0.5054
25436SOL    HW178315   0.624   5.620   2.503 -0.2810  1.1272  1.8485
25436SOL    HW278316   0.475   5.643   2.487 -0.3669 -0.3471  0.2978
25437SOL     OW78317   5.869   7.527   2.914 -0.2790 -0.1423  0.3419
25437SOL    HW178318   5.853   7.454   2.974 -1.4776  0.4249  0.7335
25437SOL    HW278319   5.898   7.484   2.833  1.5782 -0.9014  1.3358
25438SOL     OW78320   0.076   5.902   1.627 -0.2633 -0.0259  0.2239
25438SOL    HW178321   0.168   5.877   1.639 -0.4673 -1.0701 -0.2686
25438SOL    HW278322   0.042   5.906   1.716  0.2225  0.2257  0.4045
25439SOL     OW78323   1.199   2.792   2.732  0.3149 -0.0594 -0.5153
25439SOL    HW178324   1.263   2.721   2.741  1.7990  1.1992 -0.7412
25439SOL    HW278325   1.114   2.748   2.736  1.1812 -1.8379 -0.6000
25440SOL     OW78326   9.633  10.747   8.980 -0.3431 -0.1882  0.4145
25440SOL    HW178327   9.580  10.724   8.904 -1.4068  0.5092  0.9092
25440SOL    HW278328   9.694  10.675   8.990  0.6654  0.2656 -1.8270
25441SOL     OW78329   5.355   6.243   7.563  0.3340  0.2613  0.5111
25441SOL    HW178330   5.358   6.332   7.528  3.1233  0.4329  0.9773
25441SOL    HW278331   5.405   6.191   7.500 -2.6134 -1.4250 -0.6439
25442SOL     OW78332   6.328   3.246   2.378 -0.0067 -0.0293  0.5138
25442SOL    HW178333   6.283   3.275   2.299 -1.1009 -1.4484  0.5762
25442SOL    HW278334   6.315   3.151   2.379  1.3489 -0.2303  1.5760
25443SOL     OW78335  10.119   3.273   0.787 -0.1849  0.4291 -0.4530
25443SOL    HW178336  10.122   3.207   0.856 -0.7526  0.1727 -0.6702
25443SOL    HW278337  10.146   3.227   0.707  0.5023  0.7320 -0.4069
25444SOL     OW78338   6.438   3.108   1.517 -0.3060 -0.8250 -0.1438
25444SOL    HW178339   6.456   3.023   1.478 -1.2382 -0.9029 -0.4288
25444SOL    HW278340   6.459   3.097   1.610  1.1417 -0.8725 -0.4420
25445SOL     OW78341  10.180   3.375   3.554  0.1711  0.0302 -0.1406
25445SOL    HW178342  10.272   3.393   3.572 -0.2242  1.1155  0.8980
25445SOL    HW278343  10.180   3.289   3.512  1.5819 -0.3506  0.5956
25446SOL     OW78344   9.504   7.317   1.283  0.4366 -0.6463  0.1522
25446SOL    HW178345   9.516   7.370   1.362  1.3710 -1.7722  0.7993
25446SOL    HW278346   9.525   7.377   1.211  0.8811  0.0305  0.8247
25447SOL     OW78347   8.752   6.066   0.768  0.3603 -0.1387  0.3059
25447SOL    HW178348   8.732   6.052   0.676 -0.9845  0.1354  0.5220
25447SOL    HW278349   8.821   6.132   0.768  0.1644  0.0804 -0.5049
25448SOL     OW78350   6.638   0.716   4.894 -0.9128 -0.2452  0.0442
25448SOL    HW178351   6.720   0.721   4.846 -1.2588  0.5520 -0.4891
25448SOL    HW278352   6.642   0.632   4.941 -0.5058 -0.9678 -1.2506
25449SOL     OW78353  10.562   8.541   8.482  0.0621  0.2115 -0.3660
25449SOL    HW178354  10.482   8.555   8.432 -0.1186 -0.5524 -0.3064
25449SOL    HW278355  10.631   8.537   8.416 -0.2644 -1.5136 -0.6611
25450SOL     OW78356   2.548   8.013   8.788  0.0744  0.0818  0.3409
25450SOL    HW178357   2.458   8.036   8.811  0.1967  0.1828  0.7210
25450SOL    HW278358   2.586   7.978   8.869  0.5375  0.5255  0.3239
25451SOL     OW78359  11.040  11.011   4.638 -0.0655 -0.0420  0.3575
25451SOL    HW178360  10.993  11.081   4.683  1.2422  0.7602  0.5434
25451SOL    HW278361  11.061  10.948   4.707 -0.9931 -0.4832  0.2427
25452SOL     OW78362   4.426   4.083   0.060  0.0973  0.0625 -0.2750
25452SOL    HW178363   4.426   4.061  -0.033  2.7766  0.1410 -0.3680
25452SOL    HW278364   4.511   4.053   0.092 -1.1082 -0.8478  2.4115
25453SOL     OW78365   6.432   1.519   9.363  0.9803 -0.3988  0.0035
25453SOL    HW178366   6.388   1.445   9.322  1.4146 -1.8179  1.9778
25453SOL    HW278367   6.361   1.572   9.399  0.7264 -1.0335  0.4653
25454SOL     OW78368   7.392   9.238   5.470 -0.2637  0.0875  0.9618
25454SOL    HW178369   7.475   9.191   5.471  0.0997  0.7085  0.6273
25454SOL    HW278370   7.379   9.263   5.378 -1.8479 -1.7752  0.6106
25455SOL     OW78371   8.989   6.695   2.597  0.0605  0.9526 -0.2112
25455SOL    HW178372   8.944   6.625   2.643 -1.0878  1.7788 -0.0258
25455SOL    HW278373   9.082   6.677   2.609 -0.0792 -2.1222 -2.5333
25456SOL     OW78374   9.643  10.630  10.996 -0.2668 -0.4180  0.1773
25456SOL    HW178375   9.628  10.545  11.039 -1.4425 -0.0582  0.5009
25456SOL    HW278376   9.629  10.694  11.065 -0.1797  0.0809 -0.2674
25457SOL     OW78377   8.768   9.794  10.778  0.1241  0.3007  0.3434
25457SOL    HW178378   8.801   9.805  10.689  0.4096 -0.0137  0.4091
25457SOL    HW278379   8.691   9.738  10.769  0.3079  0.0495  0.3228
25458SOL     OW78380   2.626   6.788   5.849  1.3374 -0.2428  0.0150
25458SOL    HW178381   2.602   6.719   5.912  0.3049  0.6199  0.6010
25458SOL    HW278382   2.676   6.851   5.901 -1.5717  1.7021  0.6584
25459SOL     OW78383   2.863  10.348   1.157 -0.0200 -0.1233  0.0294
25459SOL    HW178384   2.897  10.429   1.120 -1.6562  0.9175  0.6915
25459SOL    HW278385   2.821  10.304   1.084  1.2436 -0.6121 -0.4259
25460SOL     OW78386   6.444   9.407   1.277  0.2957 -0.4212  0.0103
25460SOL    HW178387   6.404   9.356   1.206  1.5483 -1.1250 -0.2088
25460SOL    HW278388   6.432   9.353   1.355 -3.0493  1.2825  0.8913
25461SOL     OW78389   8.998   4.374   5.289  0.2711 -0.2170  0.5695
25461SOL    HW178390   9.059   4.353   5.360  0.2930  0.2154  0.6819
25461SOL    HW278391   9.053   4.382   5.211  0.3154 -0.1697  0.6052
25462SOL     OW78392   4.701   5.923   3.234  0.2972  0.2671 -0.1264
25462SOL    HW178393   4.766   5.895   3.169  0.5605  0.4102  0.0723
25462SOL    HW278394   4.752   5.971   3.299 -0.2005  1.6458 -0.7049
25463SOL     OW78395   5.484   2.398   9.586  0.1055  0.3317  0.1238
25463SOL    HW178396   5.573   2.396   9.549  1.1778  0.6371  2.5217
25463SOL    HW278397   5.446   2.478   9.551  1.7956  1.6595  1.1687
25464SOL     OW78398   0.787  10.744   6.942 -0.0770  0.2792  0.4580
25464SOL    HW178399   0.701  10.774   6.972 -0.6665  1.0765 -1.8004
25464SOL    HW278400   0.790  10.652   6.967 -1.0677  0.5321  1.6391
25465SOL     OW78401   0.716   7.552   5.289  0.3187  0.2443  0.2164
25465SOL    HW178402   0.743   7.626   5.235  0.3395  0.3132  0.3218
25465SOL    HW278403   0.648   7.587   5.346  1.0793  0.4631  1.0215
25466SOL     OW78404   3.291   4.203   8.035 -0.2368  0.2938 -0.1974
25466SOL    HW178405   3.343   4.169   8.109  1.7663  3.9733  0.3540
25466SOL    HW278406   3.222   4.254   8.076  1.0976  2.6624 -0.6874
25467SOL     OW78407   6.907   3.240   3.536 -0.0194 -0.6948  0.0263
25467SOL    HW178408   6.866   3.228   3.621 -0.0027 -2.9678 -0.2316
25467SOL    HW278409   6.999   3.218   3.550 -0.0591 -1.3105 -0.5951
25468SOL     OW78410   4.528   1.728   0.188 -0.1153  0.4930 -0.0189
25468SOL    HW178411   4.435   1.741   0.206  0.1497  1.0654  0.9930
25468SOL    HW278412   4.567   1.815   0.198  0.8054 -0.0411  1.3356
25469SOL     OW78413   2.908  10.372   8.101 -0.3754  0.5635  0.0019
25469SOL    HW178414   2.882  10.448   8.049 -0.0810  0.6223 -0.0627
25469SOL    HW278415   2.996  10.394   8.132 -0.3141  0.2749  0.0329
25470SOL     OW78416   7.826   8.406  10.982  0.1272 -0.0040  0.3680
25470SOL    HW178417   7.848   8.346  10.911 -0.1555  1.7874 -1.3070
25470SOL    HW278418   7.753   8.364  11.028  2.2359 -2.6766  1.6438
25471SOL     OW78419   8.854   4.906   2.778  0.1982  0.5355  0.3403
25471SOL    HW178420   8.949   4.902   2.793  0.0367 -1.3248  1.1700
25471SOL    HW278421   8.824   4.978   2.833  1.1663  1.4613 -0.2953
25472SOL     OW78422   7.261   7.817   0.933  0.2163  0.1649 -0.3689
25472SOL    HW178423   7.276   7.893   0.989  3.0648 -0.3789 -0.2522
25472SOL    HW278424   7.222   7.853   0.854 -1.1119  1.3298  0.7604
25473SOL     OW78425   5.250   3.013   7.333 -0.2037  0.6496  0.5108
25473SOL    HW178426   5.288   3.032   7.247 -0.5240 -0.1910  0.1802
25473SOL    HW278427   5.196   3.090   7.352 -0.4535  0.6563 -0.2175
25474SOL     OW78428   9.880   6.152   8.029  0.0553  0.1379  0.1571
25474SOL    HW178429   9.891   6.245   8.012 -0.0636  0.2695  0.7931
25474SOL    HW278430   9.955   6.111   7.986 -0.3096  0.4418 -0.8095
25475SOL     OW78431   0.479   0.042   3.853 -0.1349  0.0288 -0.1153
25475SOL    HW178432   0.559   0.077   3.893 -1.3401  1.8300  0.8716
25475SOL    HW278433   0.456  -0.033   3.908 -1.4067  2.0716  2.3885
25476SOL     OW78434   7.985   7.112   9.504 -0.3709  0.3221  0.0075
25476SOL    HW178435   7.947   7.096   9.590  1.7606  0.2608  0.9732
25476SOL    HW278436   8.070   7.070   9.506  0.2232  1.3213 -1.7247
25477SOL     OW78437   5.788   7.295   7.554 -0.6875  0.1109  0.5829
25477SOL    HW178438   5.840   7.374   7.574  0.2885 -0.5410  0.7192
25477SOL    HW278439   5.741   7.316   7.474 -0.5728  0.8961  0.7146
25478SOL     OW78440   8.667   6.136   3.297  0.3452 -0.1142  0.4966
25478SOL    HW178441   8.694   6.143   3.388  1.1904  3.8672  0.1402
25478SOL    HW278442   8.579   6.098   3.300  0.3359 -0.0099  2.9511
25479SOL     OW78443   3.529   4.955   1.982  0.3176 -0.2062 -0.0303
25479SOL    HW178444   3.446   4.946   1.936  0.6346 -0.9427 -0.4873
25479SOL    HW278445   3.563   4.865   1.987  1.9120  0.2670 -1.4511
25480SOL     OW78446   7.007   6.523   0.748  0.2556  0.2147  0.7124
25480SOL    HW178447   6.912   6.514   0.758  0.2418  0.9300  1.3477
25480SOL    HW278448   7.034   6.443   0.704 -0.5369 -0.3947  1.2931
25481SOL     OW78449   3.241   1.714   5.692  0.1722  0.0909  0.4778
25481SOL    HW178450   3.249   1.779   5.762  0.2432  1.7896 -1.0383
25481SOL    HW278451   3.327   1.714   5.649  0.3572 -1.4459  0.7903
25482SOL     OW78452   5.320   4.943   3.443  0.3369 -0.0363 -0.2802
25482SOL    HW178453   5.241   4.942   3.389  0.6845  0.1029 -0.7860
25482SOL    HW278454   5.381   4.999   3.396  1.1358 -1.0095 -0.4378
25483SOL     OW78455   3.015   8.843   5.168  0.3472 -0.4693  0.3300
25483SOL    HW178456   3.019   8.800   5.254 -0.4021 -0.0756  0.5742
25483SOL    HW278457   2.979   8.930   5.187 -0.3624 -0.5763 -0.4544
25484SOL     OW78458   8.559   0.891   0.706 -0.4480  0.3788 -0.3482
25484SOL    HW178459   8.581   0.895   0.800 -1.3556 -1.5957  0.0009
25484SOL    HW278460   8.593   0.807   0.677  1.6217  1.7813 -2.3588
25485SOL     OW78461  10.309   5.264   0.813 -0.0151 -0.1420  0.4353
25485SOL    HW178462  10.402   5.267   0.791 -0.5918 -0.1175 -2.2766
25485SOL    HW278463  10.297   5.177   0.852  0.7446 -1.1480 -1.4374
25486SOL     OW78464   1.968   8.200   8.470  0.1969  0.1132  0.8126
25486SOL    HW178465   1.895   8.142   8.492  1.9625 -2.4643  0.4175
25486SOL    HW278466   1.928   8.272   8.422 -2.0764 -1.2366  0.5252
25487SOL     OW78467   8.308   2.132   2.284  0.2539 -0.1265  0.3374
25487SOL    HW178468   8.372   2.085   2.337  0.5831  0.0671  0.1182
25487SOL    HW278469   8.312   2.222   2.314 -1.7840 -0.5533  2.1189
25488SOL     OW78470   9.411   6.992   1.110  0.3181 -0.1014 -0.0249
25488SOL    HW178471   9.330   6.981   1.060  0.0384  0.4751  0.2928
25488SOL    HW278472   9.384   7.038   1.189  1.0076  0.3591 -0.0534
25489SOL     OW78473   3.970  10.780  10.766 -0.1725 -0.0705  0.2944
25489SOL    HW178474   3.932  10.864  10.742  1.4678  0.7767  0.5251
25489SOL    HW278475   3.940  10.720  10.699  0.1875  1.1403 -0.9978
25490SOL     OW78476   8.015   0.711   4.619 -0.4301 -0.0653  0.5803
25490SOL    HW178477   8.005   0.758   4.536 -2.5759 -0.6283  0.4445
25490SOL    HW278478   8.109   0.706   4.633  0.0044  0.0407 -1.8254
25491SOL     OW78479   4.605   8.232   5.889  0.5841 -0.0015  0.4364
25491SOL    HW178480   4.619   8.268   5.977 -0.4303 -0.3840  0.7777
25491SOL    HW278481   4.512   8.209   5.888  0.3616  0.8644 -1.0713
25492SOL     OW78482   6.763   5.255   4.239 -0.0861  0.1661 -0.2304
25492SOL    HW178483   6.732   5.186   4.297  0.2139 -0.5231 -0.8661
25492SOL    HW278484   6.806   5.208   4.167  2.1202  1.0545  0.4219
25493SOL     OW78485   9.809   3.775   8.577 -0.0456  0.4605 -0.0663
25493SOL    HW178486   9.811   3.702   8.639  2.3173 -0.4213 -1.0750
25493SOL    HW278487   9.724   3.767   8.534  0.4648 -2.2861 -0.7638
25494SOL     OW78488   1.809   8.204   4.707  0.6182  0.0440  0.6166
25494SOL    HW178489   1.870   8.132   4.723  1.5988  0.2618 -1.7897
25494SOL    HW278490   1.825   8.266   4.778  3.4385  0.2117 -0.0747
25495SOL     OW78491   7.416   0.915  10.357 -0.5772  0.2899 -0.7206
25495SOL    HW178492   7.474   0.846  10.323  0.9570  1.5908 -0.8881
25495SOL    HW278493   7.456   0.942  10.439 -1.8059  0.2141 -0.0746
25496SOL     OW78494   7.262  10.205   1.655 -0.9165 -0.0477  0.1066
25496SOL    HW178495   7.328  10.185   1.722 -0.3232 -1.4506 -0.8657
25496SOL    HW278496   7.308  10.263   1.594 -0.9778 -0.0212  0.0861
25497SOL     OW78497   0.359   2.331   8.060 -0.3066 -0.4846  0.2912
25497SOL    HW178498   0.441   2.325   8.012 -0.2746  0.6240  0.1904
25497SOL    HW278499   0.323   2.242   8.057 -0.6147 -0.3513 -2.3046
25498SOL     OW78500  10.842   8.386  10.191 -0.2575  0.3712 -0.2590
25498SOL    HW178501  10.924   8.342  10.169 -1.2057 -1.0703 -1.0670
25498SOL    HW278502  10.782   8.316  10.214 -0.8570  1.5097  1.8986
25499SOL     OW78503  11.004  10.799   5.077 -0.3470 -0.0499 -0.2403
25499SOL    HW178504  11.056  10.872   5.111  0.0119  0.1048 -1.1090
25499SOL    HW278505  10.981  10.824   4.988  0.2245 -1.2226 -0.7387
25500SOL     OW78506   5.467   6.506  10.713  0.6923  0.3742  0.1875
25500SOL    HW178507   5.500   6.585  10.757  0.0436  0.7057  0.0866
25500SOL    HW278508   5.472   6.527  10.620  1.3462 -0.0429  0.1191
25501SOL     OW78509  10.827   9.083   7.455 -0.0663 -0.1126 -0.3664
25501SOL    HW178510  10.764   9.073   7.383 -1.6252  0.5758  0.8283
25501SOL    HW278511  10.855   9.174   7.449 -0.4384  0.0332  0.0708
25502SOL     OW78512   5.205   7.579   3.390  0.1369  0.3567  0.4842
25502SOL    HW178513   5.176   7.510   3.450  1.1178 -1.1451 -0.6872
25502SOL    HW278514   5.146   7.571   3.315  2.6757 -2.0430 -1.4646
25503SOL     OW78515   1.422   7.460  10.734 -0.2234 -0.1586  0.0937
25503SOL    HW178516   1.416   7.406  10.813  2.8110 -0.0482  0.5365
25503SOL    HW278517   1.332   7.485  10.715 -1.1262 -0.3308  3.4360
25504SOL     OW78518   7.860   1.829   6.969  0.5042 -0.5387  0.4698
25504SOL    HW178519   7.858   1.831   7.065 -1.5012 -1.3338  0.4906
25504SOL    HW278520   7.892   1.915   6.944 -0.9787  0.4747  1.8492
25505SOL     OW78521  10.795   1.832   4.072  0.9090 -0.0062 -0.5115
25505SOL    HW178522  10.805   1.745   4.033 -1.4579 -0.2158 -0.8088
25505SOL    HW278523  10.716   1.825   4.125  1.0962  1.7749  0.0647
25506SOL     OW78524   8.108   6.055   0.830 -0.0642  0.1540  0.2440
25506SOL    HW178525   8.158   6.077   0.908  1.3191  0.4252 -0.6800
25506SOL    HW278526   8.040   5.995   0.860 -0.9482  1.9210  2.0217
25507SOL     OW78527   6.735   8.732  10.814 -0.3800  0.3506  0.3234
25507SOL    HW178528   6.788   8.664  10.854 -1.0633 -0.2076  0.2855
25507SOL    HW278529   6.652   8.729  10.860 -0.7569  0.5019 -0.3314
25508SOL     OW78530  10.517   4.069  10.746  0.7318  0.4755 -0.1224
25508SOL    HW178531  10.452   4.051  10.679 -0.2796 -1.1163  1.2176
25508SOL    HW278532  10.488   4.150  10.788  0.7242  0.8310 -0.8058
25509SOL     OW78533   6.880   6.557   2.920 -0.3550  0.4262  0.4077
25509SOL    HW178534   6.902   6.465   2.936  1.0115  0.5651 -0.4447
25509SOL    HW278535   6.802   6.554   2.865  0.5419 -0.2908 -0.8835
25510SOL     OW78536   4.853   5.982   0.142  0.2993  0.1145 -0.6932
25510SOL    HW178537   4.907   5.938   0.076 -0.4004 -1.6709 -0.1470
25510SOL    HW278538   4.800   6.044   0.092  1.1426  0.1928 -1.5295
25511SOL     OW78539   5.426   7.007   7.671  0.1225 -0.4099  0.2711
25511SOL    HW178540   5.483   7.081   7.690  1.4515 -1.5377  0.8088
25511SOL    HW278541   5.411   7.013   7.577  2.0196 -0.6852 -0.0877
25512SOL     OW78542   0.516   5.949   2.113  0.3610 -0.0830 -0.3936
25512SOL    HW178543   0.577   5.998   2.057  0.9670  1.4720  1.5121
25512SOL    HW278544   0.572   5.891   2.164 -0.0901 -0.8026 -0.7036
25513SOL     OW78545   4.993   2.833   1.852  0.4000  0.6088 -0.4869
25513SOL    HW178546   5.072   2.801   1.809  1.1106  4.0206 -2.0359
25513SOL    HW278547   5.018   2.845   1.944  0.4610 -1.7951 -0.1319
25514SOL     OW78548   4.605   6.083   3.843  0.6437 -0.2768  0.3461
25514SOL    HW178549   4.594   6.071   3.937  0.4127 -1.4863  0.1805
25514SOL    HW278550   4.580   5.999   3.805  0.2261  0.3614 -0.8363
25515SOL     OW78551   7.481   5.901   0.789  0.1395  0.6872  0.1350
25515SOL    HW178552   7.414   5.965   0.764  0.5544  1.2238  0.3665
25515SOL    HW278553   7.564   5.947   0.778  0.3625  0.8166  2.0377
25516SOL     OW78554   1.366   8.666  10.750  0.2241  0.1825 -0.1958
25516SOL    HW178555   1.301   8.597  10.766  0.0047  0.9377  2.8871
25516SOL    HW278556   1.448   8.629  10.781  0.5593  0.5113 -0.6844
25517SOL     OW78557   9.048   4.808   2.249 -0.0690 -0.3050  0.2453
25517SOL    HW178558   8.992   4.822   2.325 -0.2265  0.1802  0.0495
25517SOL    HW278559   9.001   4.744   2.196 -0.5490  0.2514 -0.0171
25518SOL     OW78560   6.962   8.789   4.612  0.2028  0.3408 -0.6102
25518SOL    HW178561   6.892   8.724   4.600 -0.5670  1.0363 -0.0534
25518SOL    HW278562   6.993   8.808   4.524  0.3754 -0.7154 -0.7842
25519SOL     OW78563   9.044   3.466   2.922  0.3162 -0.7121  0.0285
25519SOL    HW178564   8.996   3.389   2.892 -1.2583 -0.0566  0.7138
25519SOL    HW278565   9.041   3.527   2.848  1.0372 -1.0659 -0.3008
25520SOL     OW78566   8.223   3.049   2.866 -0.2849 -0.5455  0.5042
25520SOL    HW178567   8.285   3.044   2.939  0.6152 -0.2603 -0.2262
25520SOL    HW278568   8.209   2.957   2.842 -0.6390 -0.6467  1.0660
25521SOL     OW78569   9.014   7.768   9.339 -0.0177 -0.0711  0.2740
25521SOL    HW178570   9.023   7.863   9.335 -0.6302 -0.0212  0.0207
25521SOL    HW278571   8.986   7.743   9.251 -0.3020 -0.4322  0.4666
25522SOL     OW78572   7.715   8.281   3.369 -0.3025  0.2333 -0.0453
25522SOL    HW178573   7.686   8.317   3.452  1.6209  1.9878 -0.0793
25522SOL    HW278574   7.748   8.193   3.391 -0.8173  0.2464  0.8305
25523SOL     OW78575   3.499   5.789  10.754  0.2085 -0.2045 -0.1996
25523SOL    HW178576   3.474   5.719  10.695  0.2401 -1.4290  1.1716
25523SOL    HW278577   3.556   5.846  10.702  0.2417 -1.2324 -1.3220
25524SOL     OW78578   4.780  10.316  10.530  0.3606  0.1439 -0.1607
25524SOL    HW178579   4.750  10.349  10.615 -0.0461 -0.0630 -0.2195
25524SOL    HW278580   4.873  10.337  10.528  0.7241 -1.2250  0.9932
25525SOL     OW78581   5.687   5.036  11.058 -0.1432 -0.1152  0.6533
25525SOL    HW178582   5.678   4.965  10.995 -2.1835  0.8045 -0.1941
25525SOL    HW278583   5.728   4.996  11.134  0.1994 -1.8089 -0.3849
25526SOL     OW78584   0.882   3.267   5.660 -0.1875 -0.0103  0.0491
25526SOL    HW178585   0.827   3.288   5.736 -1.1233 -2.0185 -0.0157
25526SOL    HW278586   0.971   3.283   5.691 -0.6602  1.3892  0.8092
25527SOL     OW78587   5.277   7.816   5.083  0.0011 -0.3044  0.0790
25527SOL    HW178588   5.263   7.722   5.068 -1.5535 -0.1667  0.5228
25527SOL    HW278589   5.315   7.820   5.171 -2.4847 -0.4255  1.2604
25528SOL     OW78590   5.952  10.963   9.087  0.0798  0.5785  0.4612
25528SOL    HW178591   5.959  10.988   8.995  0.1920  1.5621  0.7243
25528SOL    HW278592   6.006  11.027   9.133 -1.6480  1.4211  1.4140
25529SOL     OW78593   1.104   5.405   9.534 -0.1773  0.4605  0.6701
25529SOL    HW178594   1.098   5.484   9.481  2.3805  0.8012  0.7543
25529SOL    HW278595   1.036   5.348   9.500 -0.8653  1.9968 -0.6390
25530SOL     OW78596   7.655   7.342   5.801  0.4814 -0.0500 -0.1817
25530SOL    HW178597   7.743   7.380   5.801  0.3147  0.6262  3.0326
25530SOL    HW278598   7.659   7.271   5.865 -1.2046 -0.3224 -0.3289
25531SOL     OW78599   6.450   1.555   8.839  0.0767  0.3617  0.0481
25531SOL    HW178600   6.429   1.549   8.745  0.2812  1.5329 -0.0901
25531SOL    HW278601   6.500   1.636   8.847  0.6834 -0.0944  1.0735
25532SOL     OW78602   6.932   8.800   3.148 -0.4653  0.4655  0.0369
25532SOL    HW178603   7.003   8.753   3.104 -0.0550 -1.6219  2.6696
25532SOL    HW278604   6.859   8.739   3.150 -0.5505  0.5605  1.9187
25533SOL     OW78605   3.327   8.810   3.530 -0.0009 -0.3624  0.0300
25533SOL    HW178606   3.344   8.729   3.579  0.9777 -0.0629  0.2031
25533SOL    HW278607   3.385   8.875   3.570 -0.1637  0.2170 -0.6615
25534SOL     OW78608   8.447   1.495   9.904  0.6285  0.0409 -0.1452
25534SOL    HW178609   8.476   1.448   9.826  0.9344  0.0007 -0.0088
25534SOL    HW278610   8.512   1.472   9.971 -0.0139 -0.4903  0.3185
25535SOL     OW78611   4.930   5.079   1.640 -0.2381  0.1058  0.1022
25535SOL    HW178612   4.992   5.006   1.636 -0.8210 -0.4543  0.8991
25535SOL    HW278613   4.962   5.132   1.713  0.4066  0.8716 -0.7193
25536SOL     OW78614   6.498   8.668  10.952  0.2439  0.2854 -0.1716
25536SOL    HW178615   6.425   8.684  10.892  0.1399  0.2155 -0.0651
25536SOL    HW278616   6.526   8.579  10.931  0.9363  0.6571 -0.8870
25537SOL     OW78617   5.814  11.001   3.135 -0.4028  0.0588  0.6084
25537SOL    HW178618   5.760  11.052   3.195  0.0007  0.4807  0.6165
25537SOL    HW278619   5.891  11.056   3.119 -0.1756 -0.3544  0.2637
25538SOL     OW78620   0.957   2.185   3.336  0.1193  0.0720  0.2580
25538SOL    HW178621   0.928   2.124   3.268  0.8266  1.3952 -1.3105
25538SOL    HW278622   1.049   2.202   3.315  0.3749  0.4607  1.6096
25539SOL     OW78623   4.848   4.067   3.593  0.0251  0.1455 -0.3497
25539SOL    HW178624   4.892   3.999   3.541  0.3803  0.5794 -0.6245
25539SOL    HW278625   4.886   4.058   3.681 -1.6319 -1.5640  0.2703
25540SOL     OW78626   4.215   6.752   4.139  0.3608 -0.3100  0.3901
25540SOL    HW178627   4.190   6.713   4.222  1.2558  0.5321  1.0837
25540SOL    HW278628   4.217   6.679   4.077 -1.8772 -0.6998  0.7019
25541SOL     OW78629   2.006   1.625   7.654  0.2915  0.5538  0.4073
25541SOL    HW178630   2.021   1.640   7.561  0.0212  1.6725  0.5371
25541SOL    HW278631   2.086   1.657   7.696 -0.5244  2.2867  0.7311
25542SOL     OW78632   6.619   7.274   3.023 -0.2684  0.0768 -0.4226
25542SOL    HW178633   6.589   7.324   2.947 -0.6139 -0.3203 -0.5513
25542SOL    HW278634   6.543   7.221   3.048  0.6006 -1.6538 -1.3266
25543SOL     OW78635   7.026   5.250   4.088 -0.0927  0.2792 -0.3687
25543SOL    HW178636   7.054   5.217   4.173  0.0125  0.4991 -0.3204
25543SOL    HW278637   6.990   5.336   4.106 -2.3826 -0.6544 -0.1600
25544SOL     OW78638   9.948   0.870   0.846  1.0133 -0.1159  0.3387
25544SOL    HW178639   9.869   0.838   0.890  1.9153 -2.8849  0.1101
25544SOL    HW278640   9.916   0.937   0.785 -1.5820 -2.8168 -1.5632
25545SOL     OW78641   0.089   2.067   3.995 -0.0308  0.4625  0.7196
25545SOL    HW178642   0.049   2.143   3.954  0.1572  0.0030 -0.3411
25545SOL    HW278643   0.016   2.023   4.039 -1.1820 -1.2825 -2.5819
25546SOL     OW78644   7.209   7.186   1.659  0.0950 -0.2390  0.0859
25546SOL    HW178645   7.223   7.198   1.565  1.1230  1.7432  0.4385
25546SOL    HW278646   7.289   7.143   1.690 -0.4663 -1.3815 -0.0012
25547SOL     OW78647   1.976   8.024   7.619  0.3779  0.4228 -0.3831
25547SOL    HW178648   2.063   7.998   7.590  0.3091  1.4040 -1.5196
25547SOL    HW278649   1.926   8.035   7.539 -0.4598  1.0250  0.2071
25548SOL     OW78650  11.032   6.920   3.422 -0.1589 -0.2438 -0.1882
25548SOL    HW178651  11.110   6.915   3.366  0.1544 -0.1966  0.2406
25548SOL    HW278652  11.065   6.903   3.510  0.0726  3.7022  0.6387
25549SOL     OW78653   7.673  10.893   1.063 -0.5149  0.8596  0.7079
25549SOL    HW178654   7.622  10.828   1.111  1.1847 -0.4278  0.8770
25549SOL    HW278655   7.658  10.873   0.971  0.9563 -0.6427  0.7500
25550SOL     OW78656   4.987   5.164   2.783 -0.4662  0.4545  0.1836
25550SOL    HW178657   4.957   5.235   2.727 -0.4505  1.5146  1.4921
25550SOL    HW278658   5.006   5.205   2.867  1.8028 -0.6849  0.2951
25551SOL     OW78659   1.681   5.086   8.940 -0.1657  0.3179  0.0892
25551SOL    HW178660   1.625   5.056   9.012 -0.2631  2.0766  0.8066
25551SOL    HW278661   1.657   5.030   8.866 -1.6125 -0.1251  0.8415
25552SOL     OW78662   8.721   9.200   3.030 -0.3467  0.2665 -0.9748
25552SOL    HW178663   8.800   9.145   3.034  0.7933  1.7332 -2.1503
25552SOL    HW278664   8.685   9.184   2.943 -0.5501  0.6879 -0.9668
25553SOL     OW78665   3.895   0.741   4.847  0.3363  0.1134 -0.6688
25553SOL    HW178666   3.862   0.691   4.922  0.9260 -0.1458 -0.5688
25553SOL    HW278667   3.990   0.744   4.861  0.1817  2.9659  0.3894
25554SOL     OW78668   6.874   8.513  10.900 -0.3324  0.3137 -0.1625
25554SOL    HW178669   6.944   8.472  10.848  0.5086 -0.6867  1.6658
25554SOL    HW278670   6.798   8.457  10.886 -0.0726 -0.0298 -0.2259
25555SOL     OW78671   7.000   8.036  10.598  0.2766 -0.2565 -0.0028
25555SOL    HW178672   7.093   8.060  10.605  0.1346  0.1920  0.3989
25555SOL    HW278673   6.980   8.045  10.504  0.4299  0.4471  0.0284
25556SOL     OW78674   9.556   4.032   1.992  0.2280  0.3475 -0.2592
25556SOL    HW178675   9.633   3.980   1.965 -0.3022  0.4693 -2.1982
25556SOL    HW278676   9.580   4.068   2.077  0.9204 -2.4421  0.8237
25557SOL     OW78677   5.201   8.243   9.250  0.1887 -0.0598  0.0693
25557SOL    HW178678   5.231   8.167   9.300 -0.6294 -0.5798 -0.1996
25557SOL    HW278679   5.127   8.277   9.300 -0.9500 -0.8782 -0.9946
25558SOL     OW78680   5.999   6.035   8.925 -0.5831 -0.0597  0.3317
25558SOL    HW178681   5.996   5.998   8.837  0.9982  0.3781  0.0633
25558SOL    HW278682   6.091   6.026   8.951 -0.5688  1.8075  1.0555
25559SOL     OW78683   5.221  10.723   4.413  0.5293 -0.7881  0.7139
25559SOL    HW178684   5.228  10.814   4.442  2.3100 -1.4237  2.4959
25559SOL    HW278685   5.248  10.725   4.321  1.1542  0.3886  0.8941
25560SOL     OW78686   2.897   4.277   7.453 -0.2269  0.1615  0.0531
25560SOL    HW178687   2.970   4.221   7.477 -0.8048 -0.5778  0.1278
25560SOL    HW278688   2.937   4.358   7.422  0.6059 -0.0968  0.4458
25561SOL     OW78689   4.808  10.327   1.251 -0.2673 -0.3919 -0.2763
25561SOL    HW178690   4.885  10.384   1.254  0.2352 -0.9541 -1.5789
25561SOL    HW278691   4.734  10.385   1.269  0.3262  0.4551 -0.5145
25562SOL     OW78692   1.382   5.833  10.286  0.3281 -0.2269  0.5470
25562SOL    HW178693   1.468   5.870  10.264  0.3500 -1.0525 -0.8625
25562SOL    HW278694   1.324   5.908  10.291  0.7139  0.1608 -0.5946
25563SOL     OW78695   9.101   9.526   0.518 -0.1441  0.2131 -0.2913
25563SOL    HW178696   9.139   9.537   0.605 -1.9065  3.2117  0.2590
25563SOL    HW278697   9.118   9.435   0.496  2.9444  0.1015  1.8961
25564SOL     OW78698   3.704   5.124   1.580  0.7042  0.8023  0.6573
25564SOL    HW178699   3.649   5.198   1.605  1.0166  1.9416 -1.7586
25564SOL    HW278700   3.664   5.090   1.499  0.3681 -1.9443  1.8383
25565SOL     OW78701   4.904   4.771   1.873  0.0274  0.1510  0.1020
25565SOL    HW178702   4.884   4.679   1.853  0.6789 -0.1136  0.6252
25565SOL    HW278703   4.991   4.768   1.912 -0.3854  0.8831  1.1001
25566SOL     OW78704   6.420   9.553   2.171  0.3187 -0.2386 -0.0683
25566SOL    HW178705   6.348   9.561   2.108  0.7729  1.0904 -0.4590
25566SOL    HW278706   6.442   9.460   2.170  1.3471 -0.0686 -3.1202
25567SOL     OW78707   4.217   4.389   3.660 -0.6226 -0.4866  0.3501
25567SOL    HW178708   4.134   4.368   3.704  0.5193 -2.9655  1.4824
25567SOL    HW278709   4.271   4.428   3.729 -0.3034 -0.3631  0.0308
25568SOL     OW78710   1.655   0.646  10.282  0.0338  0.2397 -0.3452
25568SOL    HW178711   1.628   0.621  10.370  0.6845  0.6527 -0.0180
25568SOL    HW278712   1.723   0.712  10.296 -1.4422  2.0285 -1.1496
25569SOL     OW78713   9.562   1.050   0.714  0.1971  0.1798  0.3405
25569SOL    HW178714   9.548   1.085   0.626  1.0980 -0.4916 -0.0834
25569SOL    HW278715   9.590   0.960   0.700 -0.6597 -0.2648  1.3633
25570SOL     OW78716   7.953   5.158   5.759 -0.2620  0.1569 -0.0110
25570SOL    HW178717   7.995   5.187   5.840 -0.5999  2.9524 -0.7239
25570SOL    HW278718   7.925   5.239   5.716 -1.9818 -1.3344 -1.9309
25571SOL     OW78719  10.913   9.047   0.121  0.0940  0.5572  0.0349
25571SOL    HW178720  10.822   9.028   0.143 -0.0994  0.8259 -0.5194
25571SOL    HW278721  10.909   9.128   0.069  0.7042  0.9161  0.5357
25572SOL     OW78722   6.658   7.900   2.292 -0.2002  0.3496 -0.3246
25572SOL    HW178723   6.647   7.901   2.197 -0.6664 -4.3437 -0.5900
25572SOL    HW278724   6.569   7.895   2.326 -0.0012 -0.6958  0.0949
25573SOL     OW78725   9.635   9.567   6.467  0.1699 -0.2115  0.6857
25573SOL    HW178726   9.544   9.539   6.475 -0.0018  0.3621  0.8111
25573SOL    HW278727   9.687   9.491   6.495 -0.2854 -0.3478  1.1754
25574SOL     OW78728   5.439   2.728   2.363 -0.0368  0.0765 -0.0595
25574SOL    HW178729   5.466   2.716   2.454  2.9225 -2.9389 -1.1275
25574SOL    HW278730   5.345   2.710   2.365 -0.1538  0.5167  2.4401
25575SOL     OW78731   6.161   9.799   8.169  0.4891 -0.4686  0.3316
25575SOL    HW178732   6.133   9.862   8.104 -1.5372 -2.0627 -0.4633
25575SOL    HW278733   6.256   9.796   8.161  0.4695  1.0825 -0.8908
25576SOL     OW78734   0.588   9.186  10.137  0.1056  0.0284  0.1397
25576SOL    HW178735   0.667   9.239  10.137  0.3605 -0.3491  0.0465
25576SOL    HW278736   0.615   9.102  10.098  0.4350 -1.2957  2.9727
25577SOL     OW78737   7.040   2.926   6.803  0.4362 -0.2116  0.2207
25577SOL    HW178738   7.106   2.936   6.734  1.4175 -1.2396  0.9850
25577SOL    HW278739   6.973   2.990   6.781  0.8720 -0.3078 -1.5255
25578SOL     OW78740   1.292   5.110   9.380 -0.0380  0.0226  0.3428
25578SOL    HW178741   1.272   5.163   9.458 -0.0874  0.4245  0.0607
25578SOL    HW278742   1.302   5.021   9.414 -1.6431 -0.0909  0.5972
25579SOL     OW78743  10.276   1.486  10.887  0.0917 -0.1634  0.0859
25579SOL    HW178744  10.348   1.457  10.830  0.3087 -1.0548  0.7828
25579SOL    HW278745  10.211   1.416  10.881 -0.3162  0.2085  0.1605
25580SOL     OW78746   4.800  10.039   8.212 -0.0440  0.5524 -0.1395
25580SOL    HW178747   4.823  10.122   8.254  1.2901 -0.2247  0.7547
25580SOL    HW278748   4.845  10.041   8.128 -0.5786  1.0097 -0.4209
25581SOL     OW78749   8.817   5.412   1.858 -0.1183  0.7612  0.3918
25581SOL    HW178750   8.848   5.367   1.779  0.2800  2.0612 -0.2332
25581SOL    HW278751   8.738   5.365   1.883  0.9644 -1.0858  0.5515
25582SOL     OW78752   1.633   6.321   2.805  0.1143  0.6364  0.6412
25582SOL    HW178753   1.698   6.332   2.875  0.2411 -1.3080  0.8923
25582SOL    HW278754   1.564   6.269   2.845  0.4646 -1.0196 -0.8084
25583SOL     OW78755   4.738   4.402   5.205 -0.0987  0.1619 -0.2632
25583SOL    HW178756   4.672   4.386   5.272 -1.4316  1.8337 -1.0950
25583SOL    HW278757   4.797   4.466   5.243  1.1505 -1.3839  0.5065
25584SOL     OW78758   8.885   1.604   1.322 -0.5562  0.0599 -0.5617
25584SOL    HW178759   8.886   1.508   1.320 -0.2475 -0.0149  1.3564
25584SOL    HW278760   8.798   1.626   1.356 -0.4576  0.4547 -0.5624
25585SOL     OW78761   7.864   6.708   0.599  0.8212 -0.4043  0.2522
25585SOL    HW178762   7.786   6.700   0.654  0.5715 -0.2811 -0.0838
25585SOL    HW278763   7.830   6.717   0.510  1.2191 -0.3297  0.1069
25586SOL     OW78764   6.421   2.056   4.471 -0.4480 -0.1343  0.1765
25586SOL    HW178765   6.344   1.999   4.461  0.4305 -1.5164  0.9223
25586SOL    HW278766   6.433   2.063   4.565  0.7546 -0.5284  0.0671
25587SOL     OW78767   4.861  11.072   1.279  0.0232 -0.0957  0.3667
25587SOL    HW178768   4.858  11.125   1.358 -1.0120 -1.2546  1.1567
25587SOL    HW278769   4.881  10.984   1.311 -0.2190 -0.5382 -0.6744
25588SOL     OW78770   1.271   4.637  10.443  0.1154  0.3811 -0.0299
25588SOL    HW178771   1.300   4.546  10.442  3.1172  1.2209 -0.0971
25588SOL    HW278772   1.227   4.649  10.359 -0.0236 -0.9025 -0.1600
25589SOL     OW78773   2.188   6.623  10.017  0.5949 -0.3166  0.2835
25589SOL    HW178774   2.245   6.572   9.959 -0.9929 -3.0200  0.9461
25589SOL    HW278775   2.231   6.620  10.102  0.5269 -0.5285  0.3110
25590SOL     OW78776   6.006   9.623   2.853  0.0039 -0.0800  0.0022
25590SOL    HW178777   5.944   9.694   2.836  1.3730  0.8418 -1.4247
25590SOL    HW278778   6.077   9.639   2.791  1.0388 -1.8705  0.6793
25591SOL     OW78779   7.394   6.730   2.889 -0.2193  0.4270 -0.2426
25591SOL    HW178780   7.383   6.716   2.794 -0.9106 -0.0482 -0.1071
25591SOL    HW278781   7.306   6.716   2.925 -0.1990  1.6996  0.3508
25592SOL     OW78782  10.076  11.021   0.994 -0.2297  0.3795  0.1849
25592SOL    HW178783  10.123  11.034   0.911 -0.8908  0.6589 -0.1518
25592SOL    HW278784  10.120  11.080   1.055  0.7690 -0.4000  0.2513
25593SOL     OW78785   1.583   9.727  10.233 -0.6313  0.1794  0.0819
25593SOL    HW178786   1.677   9.715  10.242 -0.4894  1.2897  0.2599
25593SOL    HW278787   1.559   9.679  10.154 -0.0628 -0.8137  0.5111
25594SOL     OW78788   8.077   3.634   2.160 -0.0122 -0.0839  0.0743
25594SOL    HW178789   7.992   3.676   2.150 -0.4000 -0.7243  0.5902
25594SOL    HW278790   8.095   3.635   2.254  0.9249  0.7469 -0.0955
25595SOL     OW78791   8.252   6.642  10.110  0.1041 -0.3284  0.1516
25595SOL    HW178792   8.253   6.736  10.089  1.2893 -0.0997  1.0835
25595SOL    HW278793   8.163   6.614  10.091 -0.1072  0.8534 -0.7195
25596SOL     OW78794  10.615   5.055   5.653 -0.5673  0.1695 -0.1415
25596SOL    HW178795  10.554   4.981   5.648  0.3087 -0.5672 -0.1541
25596SOL    HW278796  10.664   5.051   5.571 -1.5277  1.6884 -0.8256
25597SOL     OW78797   4.154   5.934   8.927 -0.3535 -0.0501 -0.2605
25597SOL    HW178798   4.123   6.000   8.989 -2.1685 -1.2732  0.2267
25597SOL    HW278799   4.227   5.891   8.972 -2.0223 -1.3393  1.4170
25598SOL     OW78800   4.633   7.854   1.010 -0.4086 -0.5379 -0.4512
25598SOL    HW178801   4.545   7.840   0.974 -1.5706  0.0417  1.9181
25598SOL    HW278802   4.634   7.802   1.090  1.3901 -0.4111 -0.3658
25599SOL     OW78803   0.522   6.691   7.873 -0.0198  0.9662 -0.0297
25599SOL    HW178804   0.566   6.635   7.810  0.0738  0.8326  0.1526
25599SOL    HW278805   0.592   6.719   7.933 -0.0980  1.1309 -0.0164
25600SOL     OW78806   7.901   0.792   9.644 -0.0452 -0.4555  0.1425
25600SOL    HW178807   7.943   0.707   9.626  1.4646  0.6718 -2.2941
25600SOL    HW278808   7.951   0.854   9.591 -1.4334  1.9027  1.4399
25601SOL     OW78809  11.083  11.052   0.316  0.0110 -0.0472  0.6725
25601SOL    HW178810  11.040  10.986   0.371 -0.4199  1.1225  1.8044
25601SOL    HW278811  11.028  11.059   0.239 -0.0245 -0.8934  0.6107
25602SOL     OW78812  10.534   5.753   1.556  0.1163 -0.6238  0.5652
25602SOL    HW178813  10.476   5.714   1.621 -0.7791 -0.9123 -0.3829
25602SOL    HW278814  10.563   5.679   1.502  1.4526 -0.4979  1.0758
25603SOL     OW78815   7.306   6.437   2.759 -0.5135 -0.0590  0.2909
25603SOL    HW178816   7.295   6.487   2.840  0.2225 -0.7092  0.8000
25603SOL    HW278817   7.330   6.349   2.788  0.0646 -0.2190 -0.6338
25604SOL     OW78818  10.188   6.802   8.995 -0.3170 -0.1713  0.3256
25604SOL    HW178819  10.208   6.739   9.064 -0.5681 -0.2574  0.3208
25604SOL    HW278820  10.098   6.782   8.969 -0.9408  1.1403  1.3489
25605SOL     OW78821   6.028   3.694   1.510 -0.3757  0.6865  0.2021
25605SOL    HW178822   5.982   3.778   1.514  2.0067  2.0360  0.8702
25605SOL    HW278823   5.979   3.644   1.444 -1.8359  2.5942 -0.2690
25606SOL     OW78824   9.651   6.208   4.360 -0.3146 -0.1147  0.1399
25606SOL    HW178825   9.573   6.262   4.356 -0.2286  0.1874  1.8927
25606SOL    HW278826   9.634   6.136   4.298 -0.2720  2.0223 -2.5443
25607SOL     OW78827  10.712   7.723   9.331  0.1760 -0.2778 -0.2299
25607SOL    HW178828  10.689   7.633   9.356 -0.7071  0.4827  1.9464
25607SOL    HW278829  10.778   7.749   9.395  2.1342 -0.0432 -2.1938
25608SOL     OW78830   1.834   7.422   8.897  0.5707  0.6919  0.1625
25608SOL    HW178831   1.895   7.438   8.970 -0.3317  1.9958  0.6812
25608SOL    HW278832   1.887   7.436   8.818  0.9017  2.1236  0.6043
25609SOL     OW78833   8.850  10.354   7.774  0.0432  0.0266  0.3330
25609SOL    HW178834   8.847  10.415   7.848 -0.7523 -1.0486  1.2266
25609SOL    HW278835   8.794  10.281   7.801  1.7280 -1.5715 -0.2676
25610SOL     OW78836   4.846   6.240   7.163  0.6770 -0.0278  0.0691
25610SOL    HW178837   4.787   6.201   7.228  0.9885  0.7192  0.8235
25610SOL    HW278838   4.791   6.258   7.087  0.2879 -0.8382  0.1548
25611SOL     OW78839   1.729   1.384   1.412 -0.0846  0.1342 -0.1240
25611SOL    HW178840   1.786   1.437   1.467  1.4514  0.1687 -1.6581
25611SOL    HW278841   1.644   1.427   1.417  0.7367  1.8311 -0.0866
25612SOL     OW78842  10.911   4.476  11.014  0.4353  0.3951  0.0058
25612SOL    HW178843  10.817   4.456  11.006 -0.0404  2.1005  0.8535
25612SOL    HW278844  10.939   4.427  11.091  0.5740 -1.1354 -0.9821
25613SOL     OW78845   9.052   8.051   2.925 -0.1452 -0.0536 -0.3537
25613SOL    HW178846   9.103   8.107   2.867 -0.4760  0.9819  0.3246
25613SOL    HW278847   8.970   8.036   2.878 -0.6237  1.2063  0.0295
25614SOL     OW78848   7.564  10.954   0.038 -0.4058 -0.0069  0.3340
25614SOL    HW178849   7.492  10.897   0.014 -0.7244  0.0257  1.1841
25614SOL    HW278850   7.640  10.918  -0.008  0.1777 -3.1823  3.3717
25615SOL     OW78851   9.121   7.336   3.468 -0.5908 -0.5495  0.0049
25615SOL    HW178852   9.203   7.329   3.517 -1.2935  1.6026  1.6292
25615SOL    HW278853   9.148   7.339   3.376  1.2855  1.4038  0.5562
25616SOL     OW78854   3.946   6.611   4.002 -0.1117  0.4552 -0.7837
25616SOL    HW178855   3.900   6.681   3.956  0.7923  0.2806 -2.0348
25616SOL    HW278856   4.017   6.586   3.942 -0.2666 -1.3658 -0.2724
25617SOL     OW78857   7.594   8.735   9.109 -0.3130  0.0389  0.1299
25617SOL    HW178858   7.552   8.728   9.195 -0.2792  0.4590  0.1842
25617SOL    HW278859   7.521   8.749   9.048 -0.2324  1.3382  0.2945
25618SOL     OW78860   4.978   4.668   2.673  0.0906  0.1890  0.1448
25618SOL    HW178861   4.975   4.743   2.732  0.2054  0.0424  0.3369
25618SOL    HW278862   5.046   4.612   2.708  2.6874  1.7073 -2.0818
25619SOL     OW78863   9.880   7.784  10.412 -0.2365  0.6270 -0.8978
25619SOL    HW178864   9.941   7.843  10.367  0.2156 -0.4767 -1.7683
25619SOL    HW278865   9.873   7.820  10.501  1.1727  1.1445 -0.9785
25620SOL     OW78866   4.188   9.233   2.807 -0.6146 -0.6140  0.4600
25620SOL    HW178867   4.249   9.159   2.800 -0.9771 -0.9144  0.4158
25620SOL    HW278868   4.231   9.293   2.868  0.5921  0.0562 -0.9944
25621SOL     OW78869   1.448   5.839   0.610  0.6285  0.0743 -0.0747
25621SOL    HW178870   1.487   5.769   0.662  1.1682  1.5673  1.6626
25621SOL    HW278871   1.397   5.794   0.543  1.9013 -1.9507  0.2302
25622SOL     OW78872   2.336   2.625   1.280 -0.6136 -0.3868 -0.1194
25622SOL    HW178873   2.285   2.587   1.209 -0.1028 -0.3324 -0.5153
25622SOL    HW278874   2.402   2.560   1.300  1.8042  1.1807 -2.4067
25623SOL     OW78875   7.096   4.114   1.491 -0.1307 -0.4638 -0.0998
25623SOL    HW178876   7.089   4.196   1.443  1.5470 -0.0073  0.3735
25623SOL    HW278877   7.087   4.138   1.583  0.7360 -0.7314  0.0705
25624SOL     OW78878   9.795   5.462   1.657 -0.3519 -0.0969 -0.3459
25624SOL    HW178879   9.875   5.442   1.609 -0.9926 -1.9615 -0.7126
25624SOL    HW278880   9.813   5.437   1.747 -0.4949 -0.4481 -0.4142
25625SOL     OW78881   1.437   7.853   1.493 -0.2542 -0.2039 -0.4971
25625SOL    HW178882   1.449   7.759   1.509  1.1561 -0.3231 -1.9728
25625SOL    HW278883   1.346   7.861   1.465 -0.1322 -1.3155 -1.3180
25626SOL     OW78884  10.006   8.264   7.001 -0.2019  0.1710 -0.5740
25626SOL    HW178885   9.956   8.262   6.920 -0.8727 -0.0777 -0.1643
25626SOL    HW278886   9.940   8.276   7.069  0.4798  1.8624 -0.1681
25627SOL     OW78887  10.136   6.424   6.233 -0.0491  0.0059  0.2715
25627SOL    HW178888  10.055   6.393   6.274 -0.8785 -1.3607 -2.1585
25627SOL    HW278889  10.151   6.510   6.271 -2.6073  0.2626  0.9005
25628SOL     OW78890   4.136   5.770   7.337  0.3543 -0.1760  0.2021
25628SOL    HW178891   4.139   5.691   7.283 -1.0142 -0.6247  0.7405
25628SOL    HW278892   4.046   5.801   7.330  0.0685 -0.3610  2.3367
25629SOL     OW78893   4.055   3.063   9.946  0.0843 -0.0955 -0.1568
25629SOL    HW178894   4.022   3.094  10.030 -0.4566 -0.8835 -0.0644
25629SOL    HW278895   4.149   3.080   9.949 -0.1668  1.3866 -0.0660
25630SOL     OW78896   6.554   4.549   9.214  0.2331 -0.6295 -0.3466
25630SOL    HW178897   6.514   4.584   9.135  0.6776  0.0322 -0.2836
25630SOL    HW278898   6.606   4.475   9.184  0.4917 -0.3080 -0.6889
25631SOL     OW78899   0.674   8.638   8.647  0.1931  0.2953  0.3709
25631SOL    HW178900   0.600   8.581   8.625  0.0576  1.0832 -1.4039
25631SOL    HW278901   0.725   8.588   8.710  0.3802 -2.0738 -1.5193
25632SOL     OW78902   6.030   4.118   7.568  0.5362 -0.3138 -0.6792
25632SOL    HW178903   6.078   4.174   7.507  0.1035  1.3715  0.4559
25632SOL    HW278904   5.973   4.178   7.616  0.0518 -1.7432  0.6067
25633SOL     OW78905  10.236   9.813   1.889 -0.2502  0.1267 -0.1611
25633SOL    HW178906  10.326   9.816   1.920 -0.8391 -0.4569  1.7144
25633SOL    HW278907  10.182   9.820   1.968 -1.8454 -3.0192 -0.7801
25634SOL     OW78908   5.876   8.822   6.194  0.0756  0.2642  0.2185
25634SOL    HW178909   5.945   8.871   6.148  1.6764 -1.6738  0.3937
25634SOL    HW278910   5.885   8.849   6.285 -1.4110  2.2005 -0.1442
25635SOL     OW78911   4.123   2.247   1.454 -0.1640  0.7213 -0.5039
25635SOL    HW178912   4.191   2.180   1.458 -0.8777  0.0379  0.9920
25635SOL    HW278913   4.080   2.232   1.370  1.1360  0.7947 -1.2095
25636SOL     OW78914   4.770   7.776   4.624 -0.0382 -0.3892 -0.9683
25636SOL    HW178915   4.720   7.718   4.680  0.4594  0.5552  0.5147
25636SOL    HW278916   4.842   7.807   4.679 -0.1855  1.4906 -1.7371
25637SOL     OW78917   3.122   9.438   5.859  0.3779  0.6220 -0.0918
25637SOL    HW178918   3.199   9.384   5.840  0.3257  0.5882 -0.2094
25637SOL    HW278919   3.068   9.383   5.916  1.4339  1.4456  1.7732
25638SOL     OW78920   1.544   8.342  10.014  0.1502  0.1956  0.4904
25638SOL    HW178921   1.484   8.270   9.992  2.4722 -1.5520 -0.5405
25638SOL    HW278922   1.532   8.355  10.108 -0.4718 -1.4606  0.6807
25639SOL     OW78923   2.839   0.457   3.947  0.0568 -1.2429  0.6127
25639SOL    HW178924   2.914   0.516   3.954  1.1459 -2.5796  0.6595
25639SOL    HW278925   2.801   0.477   3.861  0.8108 -0.9200  0.3449
25640SOL     OW78926   6.611   6.703   4.727 -0.4569 -0.1041 -0.3243
25640SOL    HW178927   6.543   6.667   4.670  0.3944 -0.3473 -1.2213
25640SOL    HW278928   6.675   6.632   4.735 -2.6981 -2.0290  4.9370
25641SOL     OW78929   2.605   5.729   4.936  0.0555  0.5601 -0.7108
25641SOL    HW178930   2.586   5.635   4.947  1.5517  0.2871 -0.1525
25641SOL    HW278931   2.545   5.773   4.997 -0.6108 -0.0304 -0.9221
25642SOL     OW78932   9.551   6.705   0.470 -0.0574  0.1518 -0.1126
25642SOL    HW178933   9.467   6.744   0.493 -0.5910 -0.5675 -0.8032
25642SOL    HW278934   9.597   6.774   0.422 -0.9090  0.0233 -1.1473
25643SOL     OW78935   4.644   5.765   0.709 -0.1082 -0.0890 -0.4770
25643SOL    HW178936   4.629   5.760   0.803  0.0682  0.4118 -0.4225
25643SOL    HW278937   4.569   5.720   0.671 -0.2995 -0.0892 -0.1066
25644SOL     OW78938   1.541   9.095   6.112  0.2496  0.0747  0.0035
25644SOL    HW178939   1.497   9.060   6.034  0.7735 -2.4374  0.7632
25644SOL    HW278940   1.575   9.179   6.083 -1.2113  0.0994 -1.9127
25645SOL     OW78941   4.271   4.842   1.195 -0.7899  0.7258 -0.0246
25645SOL    HW178942   4.195   4.802   1.153 -0.4837 -0.1706  0.2687
25645SOL    HW278943   4.236   4.882   1.275 -0.7320 -1.0629  0.9588
25646SOL     OW78944   7.554   2.896   1.670 -0.0725  0.1913 -0.4027
25646SOL    HW178945   7.554   2.867   1.579  0.4422 -0.0418 -0.3296
25646SOL    HW278946   7.492   2.969   1.672 -1.4638 -0.9334 -0.5760
25647SOL     OW78947   4.290   8.426   1.382  0.2328  0.0068 -0.9018
25647SOL    HW178948   4.276   8.468   1.297 -0.7078  1.6579  0.0163
25647SOL    HW278949   4.225   8.356   1.386 -0.8712  1.0080 -0.8823
25648SOL     OW78950   1.757   8.634   4.679 -0.1057  0.1596  0.7769
25648SOL    HW178951   1.684   8.606   4.625 -0.0632 -0.0182  0.8120
25648SOL    HW278952   1.733   8.610   4.768  1.8656 -4.0547  0.4068
25649SOL     OW78953   8.660   6.688   8.953  0.6890 -0.0872 -0.3629
25649SOL    HW178954   8.733   6.670   9.013 -0.1602  0.7064  0.9644
25649SOL    HW278955   8.669   6.781   8.933 -0.0643  0.0643 -0.0262
25650SOL     OW78956   4.789   8.487   6.231  0.1174  0.0931  0.2934
25650SOL    HW178957   4.790   8.526   6.144  0.0838  0.7991  0.6039
25650SOL    HW278958   4.705   8.513   6.268 -0.6007 -1.5908 -0.0670
25651SOL     OW78959   9.371   1.864   4.217  0.0982 -0.2457  0.7037
25651SOL    HW178960   9.443   1.889   4.159  0.4506  0.8050  1.5498
25651SOL    HW278961   9.364   1.770   4.207  2.3896 -0.5634  1.4669
25652SOL     OW78962   5.758   6.747   6.580 -0.8807 -0.0212  0.2198
25652SOL    HW178963   5.793   6.697   6.506 -0.6192 -0.7833  0.8377
25652SOL    HW278964   5.695   6.807   6.541 -2.1572 -1.6905 -0.4418
25653SOL     OW78965   4.171   8.329   0.437  0.1432 -0.3690 -0.2270
25653SOL    HW178966   4.192   8.422   0.431 -2.0183  0.0730 -2.6828
25653SOL    HW278967   4.083   8.322   0.401 -1.3750 -2.8966  3.3722
25654SOL     OW78968   6.004   9.685   5.904 -0.1900  0.0361 -0.0522
25654SOL    HW178969   5.989   9.701   5.997 -0.5840 -3.4011  0.6199
25654SOL    HW278970   6.099   9.672   5.897 -0.0321  1.2831 -0.3459
25655SOL     OW78971   8.232   6.653   2.798 -0.8500 -0.1433 -0.4820
25655SOL    HW178972   8.203   6.726   2.853  0.0582  0.0032 -0.1789
25655SOL    HW278973   8.301   6.690   2.743  0.6606 -1.0773  0.6853
25656SOL     OW78974   5.739   1.549   9.737  0.6338  0.0225  0.2162
25656SOL    HW178975   5.696   1.527   9.819  0.6816 -1.2122 -0.0552
25656SOL    HW278976   5.730   1.644   9.729 -0.8461 -0.0395  0.8167
25657SOL     OW78977   8.139   5.400   1.450  0.2683 -1.0703  0.2672
25657SOL    HW178978   8.183   5.419   1.367 -0.7918 -1.3096 -0.3720
25657SOL    HW278979   8.197   5.434   1.517  0.6718  0.0426 -0.6278
25658SOL     OW78980   6.185   6.867   9.083  0.1091 -0.6372 -0.1878
25658SOL    HW178981   6.112   6.807   9.100 -0.2420 -0.1835 -0.0394
25658SOL    HW278982   6.210   6.851   8.992 -1.3450  0.4124 -0.8153
25659SOL     OW78983   2.116   2.457   0.062  0.2651  0.5323  0.3014
25659SOL    HW178984   2.157   2.432  -0.021 -0.3231  0.5793 -0.0097
25659SOL    HW278985   2.131   2.382   0.119  0.1572  0.2481 -0.0376
25660SOL     OW78986   3.436   8.271   1.169  0.3748 -0.1644  0.2589
25660SOL    HW178987   3.430   8.352   1.220 -0.0707  1.0598 -1.6332
25660SOL    HW278988   3.371   8.282   1.100  2.0205 -1.0080 -1.5149
25661SOL     OW78989   6.119   9.158   8.405 -0.0688 -0.2513 -0.4278
25661SOL    HW178990   6.209   9.155   8.437 -0.4765  1.6954  1.1160
25661SOL    HW278991   6.124   9.206   8.323  0.3683 -0.6899 -0.6587
25662SOL     OW78992   3.119   6.106   2.678  0.2434 -0.3743  0.2232
25662SOL    HW178993   3.104   6.200   2.675  0.6401 -0.3367 -1.2753
25662SOL    HW278994   3.148   6.089   2.768 -0.8024  0.7599  0.7987
25663SOL     OW78995  10.708   6.655   8.157  0.0243  0.0563 -0.0211
25663SOL    HW178996  10.772   6.589   8.130  0.1624 -0.5343  1.6273
25663SOL    HW278997  10.630   6.605   8.178  0.1631  0.3799  1.3501
25664SOL     OW78998   2.375   9.685   7.897 -0.0863  0.4342 -0.6298
25664SOL    HW178999   2.345   9.643   7.977 -1.7792  0.3058 -1.2873
25664SOL    HW279000   2.316   9.652   7.829  0.5195  1.4874 -1.7112
25665SOL     OW79001   9.635   5.844   2.873  0.4103 -0.0004 -0.1584
25665SOL    HW179002   9.692   5.914   2.904 -0.4914  0.9112 -0.5030
25665SOL    HW279003   9.684   5.802   2.803  0.4382  1.1448 -0.8509
25666SOL     OW79004   8.128   7.833   4.302  0.3231  0.6468  0.4151
25666SOL    HW179005   8.079   7.819   4.383  2.1917 -1.3148  1.3147
25666SOL    HW279006   8.201   7.889   4.327  1.1639 -0.3345  0.2413
25667SOL     OW79007   6.802   7.535   0.731 -0.5946  0.2302  0.0414
25667SOL    HW179008   6.817   7.625   0.760  2.0231  0.0566 -0.5603
25667SOL    HW279009   6.822   7.536   0.638 -2.1233 -0.6805 -0.3340
25668SOL     OW79010  11.087   7.806   8.740 -0.1353  0.4761  0.6276
25668SOL    HW179011  11.097   7.753   8.661 -1.7071 -0.0802  0.7672
25668SOL    HW279012  11.074   7.895   8.707  0.8335  0.5332  0.3422
25669SOL     OW79013   9.507   3.515   1.660 -0.2382  0.1882 -0.0723
25669SOL    HW179014   9.486   3.602   1.626  0.3794  0.8876  1.2750
25669SOL    HW279015   9.423   3.476   1.682 -0.5943  0.0353 -1.5955
25670SOL     OW79016   9.401   5.962   4.463  0.0797 -0.5849  0.1809
25670SOL    HW179017   9.437   5.873   4.469 -0.0821 -0.7996 -1.5182
25670SOL    HW279018   9.331   5.964   4.529  0.2936 -1.6081  0.4609
25671SOL     OW79019  10.831   8.802   3.497 -0.0816  0.6521 -0.1536
25671SOL    HW179020  10.908   8.779   3.444  0.7809  2.9176 -0.0288
25671SOL    HW279021  10.758   8.792   3.437  0.5353  0.2786 -0.8681
25672SOL     OW79022   7.289   7.885   3.880  0.2286  0.0663  0.3713
25672SOL    HW179023   7.345   7.960   3.903 -0.2145  0.1370  1.2561
25672SOL    HW279024   7.200   7.917   3.891  0.0342 -0.8573  1.7220
25673SOL     OW79025   4.169   7.973   7.278 -0.0984 -0.1901 -0.4795
25673SOL    HW179026   4.180   7.892   7.228  0.1926 -0.6090  0.2473
25673SOL    HW279027   4.080   8.002   7.257 -0.8287 -1.5883  0.5087
25674SOL     OW79028   1.615   0.816   1.846 -0.3696 -0.0380 -0.3124
25674SOL    HW179029   1.562   0.737   1.846 -2.9782  1.3990 -4.2000
25674SOL    HW279030   1.668   0.810   1.766  1.7288  0.8615  0.9089
25675SOL     OW79031   9.439  10.235  10.601 -0.3308 -0.0324  0.3144
25675SOL    HW179032   9.496  10.158  10.598 -1.4194 -0.8507 -0.1506
25675SOL    HW279033   9.450  10.269  10.690 -1.5981 -2.1479  1.3608
25676SOL     OW79034   4.112   5.782   1.655 -0.1523 -0.5252 -0.9038
25676SOL    HW179035   4.120   5.707   1.714 -0.0264  0.8258  0.8873
25676SOL    HW279036   4.026   5.818   1.675  0.9748  1.5942  0.6037
25677SOL     OW79037   8.797   7.638   2.194 -0.0070  0.1981  0.5221
25677SOL    HW179038   8.759   7.593   2.119  0.3225  0.6051  0.1033
25677SOL    HW279039   8.853   7.705   2.156 -1.6869  2.0167  1.1061
25678SOL     OW79040   4.025   8.674   1.140  0.1205 -0.0830 -0.2299
25678SOL    HW179041   3.967   8.678   1.216  0.3719  2.0116 -0.0947
25678SOL    HW279042   4.003   8.751   1.089  1.7976 -0.0204 -0.9137
25679SOL     OW79043   3.079   6.740   9.444  0.5018  0.2350 -0.0887
25679SOL    HW179044   3.116   6.778   9.524 -2.3165  0.3974  1.2255
25679SOL    HW279045   3.124   6.655   9.436  3.3617  1.6381 -0.4010
25680SOL     OW79046   3.851  10.190   5.203 -0.6706 -0.7662 -0.2493
25680SOL    HW179047   3.904  10.237   5.139 -0.4669 -0.0138  0.4489
25680SOL    HW279048   3.887  10.217   5.288  0.3427 -3.2083  0.1766
25681SOL     OW79049   3.951   4.571   9.919  0.5403 -0.1795  0.1458
25681SOL    HW179050   3.991   4.512   9.855 -0.8525  1.4448 -2.3623
25681SOL    HW279051   3.987   4.657   9.898 -0.7820  0.5771  0.8525
25682SOL     OW79052   9.714   4.824   8.897  0.5789 -0.1543  0.6852
25682SOL    HW179053   9.804   4.851   8.917  0.6638  0.5567 -0.5492
25682SOL    HW279054   9.721   4.777   8.814 -0.3379  0.9904 -0.0726
25683SOL     OW79055   8.695   5.993   4.134 -0.4766 -0.0896 -0.6858
25683SOL    HW179056   8.627   5.981   4.068  0.5946  1.1940 -2.0830
25683SOL    HW279057   8.675   5.928   4.201 -2.5915 -0.2864 -1.4476
25684SOL     OW79058   4.873   3.972   4.602 -0.2526 -0.1108 -0.3901
25684SOL    HW179059   4.909   3.902   4.548  0.8015 -0.1662  0.3587
25684SOL    HW279060   4.795   3.933   4.642  1.6001 -1.7556  1.9168
25685SOL     OW79061   9.261   7.996   0.933  0.5088 -0.0788  0.1858
25685SOL    HW179062   9.303   7.999   0.847  0.3919  1.4876  0.1512
25685SOL    HW279063   9.289   7.913   0.971  0.6986 -0.7180 -1.2878
25686SOL     OW79064   2.197   6.511   0.460  0.3812  0.1805 -0.2914
25686SOL    HW179065   2.147   6.560   0.525 -1.0491 -0.3107 -0.9872
25686SOL    HW279066   2.230   6.435   0.508 -0.9581 -0.3626 -0.1953
25687SOL     OW79067   5.361   7.096   3.756  0.0126  0.0009 -0.2100
25687SOL    HW179068   5.410   7.071   3.834 -0.7001 -0.6486  0.0421
25687SOL    HW279069   5.276   7.126   3.790 -0.5924 -1.0183 -0.7687
25688SOL     OW79070   5.727   6.984  10.089  0.4565  0.3430  0.2507
25688SOL    HW179071   5.780   6.914  10.127 -0.6902 -1.2357 -0.9266
25688SOL    HW279072   5.641   6.974  10.130 -0.4181 -0.5425 -1.6558
25689SOL     OW79073   6.509   4.938   1.850 -0.0928 -0.0405  0.3109
25689SOL    HW179074   6.440   4.956   1.786  0.5619 -0.1747 -0.4594
25689SOL    HW279075   6.483   4.856   1.892  0.0560 -0.6125 -0.6647
25690SOL     OW79076   7.121   9.250   9.236  0.0681  0.2974 -0.3428
25690SOL    HW179077   7.186   9.259   9.306  0.6058 -0.7606 -0.6844
25690SOL    HW279078   7.173   9.242   9.156 -0.4063 -1.7748 -0.4887
25691SOL     OW79079  10.231   8.997   5.449  0.0444  0.0799  0.0254
25691SOL    HW179080  10.196   9.067   5.393 -1.0210 -0.3290  0.1406
25691SOL    HW279081  10.242   9.038   5.535  0.5447  0.4027 -0.1907
25692SOL     OW79082   7.825  10.130   1.719 -0.0994 -0.3557 -0.1055
25692SOL    HW179083   7.831  10.225   1.725 -0.0970 -0.0022 -3.7794
25692SOL    HW279084   7.915  10.100   1.710 -0.0730 -0.8101  1.3428
25693SOL     OW79085   6.013   7.226   2.374 -0.1603  0.2873 -0.1758
25693SOL    HW179086   6.068   7.304   2.379  0.0605  0.2155 -1.2602
25693SOL    HW279087   5.925   7.259   2.357  0.1390  0.2712 -1.8915
25694SOL     OW79088   3.465   6.471   3.030  0.2290  0.1912  0.6174
25694SOL    HW179089   3.437   6.380   3.018 -0.0839  0.1196  1.8093
25694SOL    HW279090   3.420   6.501   3.109  2.1632  0.6174  1.6427
25695SOL     OW79091   1.061   7.310   3.346 -0.3743  0.1485 -0.2446
25695SOL    HW179092   1.017   7.246   3.402  1.4911 -0.6955  0.3499
25695SOL    HW279093   1.022   7.394   3.370 -1.5197 -0.5325  0.3519
25696SOL     OW79094  10.646   4.656   3.835  0.5142  0.1780 -0.4349
25696SOL    HW179095  10.627   4.573   3.791  1.7053 -0.0109 -0.6148
25696SOL    HW279096  10.599   4.721   3.783 -1.1455 -0.4485  0.2047
25697SOL     OW79097  10.008   5.828   3.514  0.5011  0.3649  0.0642
25697SOL    HW179098   9.977   5.740   3.538 -0.3055  1.0514  1.7371
25697SOL    HW279099  10.102   5.825   3.531  0.1121  0.5482  2.8585
25698SOL     OW79100   2.335  10.332   1.251 -0.6861 -0.1959 -0.1207
25698SOL    HW179101   2.273  10.404   1.240 -0.2473  0.4631  1.4662
25698SOL    HW279102   2.406  10.370   1.304  0.6080 -1.1961 -1.0689
25699SOL     OW79103   1.039   9.308   9.710 -0.4718  0.3388 -0.8788
25699SOL    HW179104   1.004   9.271   9.629 -2.4112  1.8855 -0.8350
25699SOL    HW279105   0.962   9.321   9.765  0.7343 -0.1725  1.0305
25700SOL     OW79106   6.112   7.563   4.063  0.3667 -0.1130 -0.0772
25700SOL    HW179107   6.138   7.574   3.971  3.1361  0.0329  0.6164
25700SOL    HW279108   6.156   7.482   4.090  0.4000  0.3552  1.3462
25701SOL     OW79109   7.429   3.653   8.211 -0.3058 -0.2799 -0.4095
25701SOL    HW179110   7.479   3.601   8.274 -0.4501 -1.0734 -0.9347
25701SOL    HW279111   7.345   3.669   8.254 -0.4311 -0.8808 -0.4176
25702SOL     OW79112   6.117   8.594   2.741  0.8395 -0.1040  0.2065
25702SOL    HW179113   6.121   8.522   2.804 -0.2019  1.2410  1.8965
25702SOL    HW279114   6.208   8.625   2.735  0.9813 -0.3592  0.9214
25703SOL     OW79115   0.048   2.681   9.659 -0.4440  0.9781  0.3645
25703SOL    HW179116   0.001   2.605   9.693  1.7520 -1.1317 -1.0101
25703SOL    HW279117   0.112   2.703   9.726  1.6834 -1.1048 -0.8556
25704SOL     OW79118   4.990   6.252   7.724  0.2255 -0.3686  0.4104
25704SOL    HW179119   4.899   6.281   7.734  0.7810  1.4594  0.5911
25704SOL    HW279120   4.997   6.227   7.632 -0.3272 -0.0279  0.2671
25705SOL     OW79121   2.359   6.476  10.928 -0.1500 -0.5718  0.0343
25705SOL    HW179122   2.278   6.525  10.945  0.0941  0.7898 -2.2155
25705SOL    HW279123   2.393   6.454  11.015 -0.9094  2.2802  1.1686
25706SOL     OW79124   7.431   9.952   6.187 -0.7426  0.0852 -0.3574
25706SOL    HW179125   7.404  10.014   6.254 -1.0917  0.3519 -0.7381
25706SOL    HW279126   7.482  10.005   6.125  0.2964 -0.3253  0.1287
25707SOL     OW79127  10.740   2.915   0.876  0.0114  0.5056  0.0876
25707SOL    HW179128  10.804   2.871   0.820 -0.6737 -1.9454  1.0850
25707SOL    HW279129  10.701   2.982   0.819  1.3381  0.0587 -1.4431
25708SOL     OW79130   6.994   7.076   4.993 -0.1343 -0.2803  0.4634
25708SOL    HW179131   6.906   7.110   4.980 -0.2593 -1.3403 -1.7441
25708SOL    HW279132   7.037   7.085   4.908  0.7348 -2.9495  0.5310
25709SOL     OW79133   8.625   5.238   3.145 -0.3481  0.3704 -0.2523
25709SOL    HW179134   8.687   5.198   3.205  0.5523 -1.8851 -2.5267
25709SOL    HW279135   8.673   5.310   3.104 -0.5845  1.1509  0.7939
25710SOL     OW79136   0.112   5.118   1.541  0.0775 -0.6588 -0.2307
25710SOL    HW179137   0.172   5.191   1.525 -1.1412  0.5988  0.6685
25710SOL    HW279138   0.140   5.080   1.624  0.1675 -0.6224 -0.2450
25711SOL     OW79139   4.845   7.076   1.311  0.6645  0.0906 -0.2450
25711SOL    HW179140   4.821   7.022   1.385 -1.1475  0.9451 -0.1608
25711SOL    HW279141   4.787   7.047   1.240  1.4902  0.1495 -0.9579
25712SOL     OW79142   7.541   4.542   1.773 -0.0375  0.3291  0.2811
25712SOL    HW179143   7.486   4.619   1.785 -0.2224  0.5890 -1.8187
25712SOL    HW279144   7.627   4.568   1.805  0.0018  1.5653 -0.7836
25713SOL     OW79145   1.000   6.776   2.179 -0.5053 -0.1303  0.2453
25713SOL    HW179146   0.931   6.821   2.130 -1.4571  0.1783  1.7893
25713SOL    HW279147   1.074   6.836   2.177 -1.2906  0.9145  1.0653
25714SOL     OW79148   7.418  10.015   7.587  0.3077  0.7780  0.1657
25714SOL    HW179149   7.510   9.991   7.587  0.2058  0.3295  1.3347
25714SOL    HW279150   7.417  10.107   7.613  0.4665  0.9913 -0.5751
25715SOL     OW79151   6.099  10.045   5.208 -0.1561 -0.5407 -0.2221
25715SOL    HW179152   6.159  10.119   5.222  0.9831 -1.4748  0.0090
25715SOL    HW279153   6.014  10.077   5.239  0.2222  0.7965 -0.4967
25716SOL     OW79154  10.249   5.270   6.562 -0.4969  0.0832 -0.2164
25716SOL    HW179155  10.288   5.192   6.522  0.0813 -0.3629  1.1419
25716SOL    HW279156  10.155   5.257   6.555 -0.4368 -1.4914  1.3026
25717SOL     OW79157   5.666   2.963   4.517 -0.5402  0.1369 -0.4976
25717SOL    HW179158   5.737   2.957   4.581 -0.1774 -2.1104 -1.0223
25717SOL    HW279159   5.590   2.928   4.562 -0.7135  0.2100 -0.7299
25718SOL     OW79160   0.366   1.849   7.859 -0.2944  0.2720 -0.8067
25718SOL    HW179161   0.436   1.881   7.916 -0.1644  0.2971 -0.9809
25718SOL    HW279162   0.375   1.754   7.861 -0.8061  0.2247 -0.1276
25719SOL     OW79163   1.750   9.897   5.883 -0.8584  0.1109  0.0167
25719SOL    HW179164   1.780   9.900   5.793 -0.6233  0.7212  0.1130
25719SOL    HW279165   1.814   9.948   5.932 -0.4597 -1.0081  0.6880
25720SOL     OW79166   2.390   0.437   5.928 -0.2219 -0.3161  0.0131
25720SOL    HW179167   2.383   0.532   5.931  2.5296 -0.0500  0.7078
25720SOL    HW279168   2.316   0.406   5.980 -0.7999  1.4475  0.3177
25721SOL     OW79169   3.469  10.917   6.486  0.0189  0.2300 -0.4280
25721SOL    HW179170   3.475  10.843   6.546 -0.3254  1.9493  1.8927
25721SOL    HW279171   3.397  10.896   6.428  0.1732 -1.3973 -0.0723
25722SOL     OW79172   5.152   9.597   0.071  0.9180  0.3740 -0.0943
25722SOL    HW179173   5.096   9.674   0.083 -0.5250 -0.7125  0.5260
25722SOL    HW279174   5.142   9.547   0.152  0.6837 -1.1499 -1.0156
25723SOL     OW79175  10.119   8.392  10.406  0.3241 -0.7411  0.1827
25723SOL    HW179176  10.193   8.447  10.432  0.2042 -0.7043  0.4514
25723SOL    HW279177  10.070   8.377  10.487 -0.1939 -0.4206 -0.0621
25724SOL     OW79178   2.660   8.596   1.154 -0.1188 -0.1137  0.0919
25724SOL    HW179179   2.639   8.651   1.078  2.6799  2.6733  1.0892
25724SOL    HW279180   2.711   8.524   1.118  1.7101  1.4986 -0.7517
25725SOL     OW79181   2.338   3.580   6.697  0.3937  0.2654 -0.6150
25725SOL    HW179182   2.245   3.571   6.719  0.1439  0.5003 -1.5495
25725SOL    HW279183   2.355   3.507   6.637  1.3151 -0.9798  1.0926
25726SOL     OW79184   5.442   5.117   8.856  0.0250  0.5633  0.5087
25726SOL    HW179185   5.369   5.178   8.859  0.4550  1.2671 -1.4215
25726SOL    HW279186   5.427   5.066   8.776  1.8266  1.0379 -0.1868
25727SOL     OW79187   9.796  10.796   4.304  0.6130 -0.2874  0.0936
25727SOL    HW179188   9.720  10.807   4.360 -1.5155 -1.0713 -2.4121
25727SOL    HW279189   9.790  10.868   4.241  1.7062 -0.6289 -0.4228
25728SOL     OW79190   9.849   4.336   2.607 -0.0799 -0.0710  0.5297
25728SOL    HW179191   9.925   4.288   2.640 -0.2859 -1.2206 -0.5623
25728SOL    HW279192   9.788   4.267   2.580 -1.0774  0.8315  0.4339
25729SOL     OW79193   0.349   9.368   9.957 -0.3721 -0.7199  0.4653
25729SOL    HW179194   0.301   9.441   9.994 -1.3716 -1.2987  0.3256
25729SOL    HW279195   0.440   9.382   9.986 -0.6385  0.2906  0.8501
25730SOL     OW79196   6.731   0.221   8.496 -0.0935  0.5790 -0.3227
25730SOL    HW179197   6.758   0.270   8.418  1.1874 -0.6789 -0.7044
25730SOL    HW279198   6.719   0.131   8.465 -0.7428  0.2854  0.7061
25731SOL     OW79199   1.584   9.167   3.652 -0.2195 -0.0529 -0.1988
25731SOL    HW179200   1.551   9.088   3.609  0.7608 -0.7408  0.2766
25731SOL    HW279201   1.584   9.146   3.745  1.9680 -0.2857 -0.1940
25732SOL     OW79202   1.202   8.936   2.672  0.6666 -0.3719  0.2934
25732SOL    HW179203   1.228   9.028   2.674  0.8514 -0.3569 -1.5027
25732SOL    HW279204   1.205   8.911   2.579 -0.8739 -1.7622  0.5526
25733SOL     OW79205   5.481   4.760   4.042  0.0984 -0.0051 -0.2111
25733SOL    HW179206   5.444   4.843   4.014 -2.2585 -0.3842  1.5149
25733SOL    HW279207   5.414   4.695   4.022  0.1358 -0.8742  2.1987
25734SOL     OW79208   9.337   4.925   7.402  0.0008 -0.5748  0.1178
25734SOL    HW179209   9.344   4.978   7.482 -2.5375 -0.3548  0.2588
25734SOL    HW279210   9.409   4.956   7.347 -0.4164  1.9478  0.8274
25735SOL     OW79211   4.828   5.780   4.874 -0.1085 -0.3396 -0.3929
25735SOL    HW179212   4.760   5.717   4.850 -4.3329  1.8948  3.9280
25735SOL    HW279213   4.788   5.866   4.855  1.1386  1.1118  2.8525
25736SOL     OW79214   4.556  10.709   2.585  0.6945 -0.1095  0.0216
25736SOL    HW179215   4.475  10.751   2.616 -0.1431 -1.2819 -0.4860
25736SOL    HW279216   4.626  10.760   2.625 -0.2796  1.3707 -0.0757
25737SOL     OW79217   1.507  10.019   9.324  0.1848 -0.4754  0.2653
25737SOL    HW179218   1.560  10.093   9.294 -1.1161 -0.4973 -2.4239
25737SOL    HW279219   1.463  10.051   9.402  1.4356  0.7472  0.5060
25738SOL     OW79220   5.293   1.107   8.203  0.2729 -0.1386 -0.0141
25738SOL    HW179221   5.317   1.162   8.277  1.1117  1.3940 -1.3550
25738SOL    HW279222   5.232   1.043   8.239  0.4789  0.6970  1.9300
25739SOL     OW79223   2.273   4.759   4.080 -0.3456  0.0610  0.6771
25739SOL    HW179224   2.220   4.718   4.148 -2.9417 -0.8240 -1.6908
25739SOL    HW279225   2.234   4.846   4.068  0.2297  0.2964  0.4583
25740SOL     OW79226   3.517   6.104   8.339 -0.0927  0.3237  0.4798
25740SOL    HW179227   3.545   6.109   8.247  1.0849  0.8647  0.8483
25740SOL    HW279228   3.462   6.181   8.352 -1.6080 -0.5984 -0.1761
25741SOL     OW79229   3.742   1.854   8.822  0.0185  0.3166 -0.0202
25741SOL    HW179230   3.736   1.887   8.733 -0.0514 -2.2875 -1.0705
25741SOL    HW279231   3.831   1.818   8.829 -0.7374 -1.6769  0.0679
25742SOL     OW79232   0.430   6.461   1.426 -0.6174  0.0228 -0.1336
25742SOL    HW179233   0.459   6.494   1.511 -2.6015  1.9572 -0.1401
25742SOL    HW279234   0.412   6.369   1.441  1.7105 -0.3559  0.7988
25743SOL     OW79235  10.679   6.720   0.520 -0.7614 -0.0669 -0.0621
25743SOL    HW179236  10.668   6.714   0.425 -0.6565 -2.5551  0.0136
25743SOL    HW279237  10.768   6.687   0.535 -0.9773 -0.2062  0.9467
25744SOL     OW79238   2.495   5.186  11.058 -0.1035  0.0162  0.2027
25744SOL    HW179239   2.573   5.191  11.113  0.6487  1.4064 -0.9469
25744SOL    HW279240   2.484   5.274  11.023 -1.6562 -0.3804 -0.4189
25745SOL     OW79241   7.717  10.784   2.431  0.2957  0.2058  0.0195
25745SOL    HW179242   7.728  10.762   2.523  0.4333  0.5765  0.0931
25745SOL    HW279243   7.758  10.870   2.421  2.2460 -0.7566 -0.8457
25746SOL     OW79244   8.312   7.271   7.371 -0.0191  0.0425  0.1976
25746SOL    HW179245   8.340   7.326   7.444 -1.0384  2.0967 -0.8774
25746SOL    HW279246   8.266   7.198   7.412 -0.4363  1.0640  1.6399
25747SOL     OW79247   5.427   5.055  11.097  0.6379 -0.2345 -0.4804
25747SOL    HW179248   5.383   4.971  11.082  0.2816  0.4280 -3.7043
25747SOL    HW279249   5.516   5.031  11.122  0.4687 -1.5836 -1.0885
25748SOL     OW79250   2.730   4.123   0.493  0.1636  0.2037 -0.1229
25748SOL    HW179251   2.669   4.109   0.421 -0.9150 -2.3748  1.1660
25748SOL    HW279252   2.794   4.186   0.459 -0.2653 -0.9054 -3.3250
25749SOL     OW79253   4.776   8.211   3.507  0.3226 -0.1743  0.2254
25749SOL    HW179254   4.714   8.203   3.580 -0.1920  1.4314 -0.0054
25749SOL    HW279255   4.788   8.305   3.496  1.9056 -0.4353 -0.5161
25750SOL     OW79256   5.148   8.209   1.062  0.1991 -0.6724  0.6356
25750SOL    HW179257   5.074   8.241   1.010  0.2807 -0.8634  0.4009
25750SOL    HW279258   5.225   8.245   1.018  0.2808 -1.0285  0.4854
25751SOL     OW79259   5.065   7.419   1.023  1.0372 -0.0377 -0.0525
25751SOL    HW179260   5.081   7.439   1.115  4.1974 -1.3014 -0.1931
25751SOL    HW279261   5.131   7.470   0.976  1.1033 -1.2929 -1.3875
25752SOL     OW79262   4.985  10.292   3.733 -0.1039 -0.6012 -0.2020
25752SOL    HW179263   5.078  10.270   3.726 -0.4270 -1.7710 -1.0595
25752SOL    HW279264   4.968  10.293   3.827  0.4036 -2.1130 -0.0632
25753SOL     OW79265   6.147   5.708   7.707 -0.8415 -0.4918 -0.5251
25753SOL    HW179266   6.151   5.700   7.612 -3.8935 -1.7556 -0.6614
25753SOL    HW279267   6.207   5.641   7.740 -1.4406 -1.5927 -1.5988
25754SOL     OW79268   5.802   8.538   6.067 -0.0882 -0.4340 -0.1995
25754SOL    HW179269   5.805   8.622   6.114  1.1918 -0.4554 -0.1923
25754SOL    HW279270   5.770   8.476   6.132  1.3934 -0.4067  0.6183
25755SOL     OW79271   8.897   1.713   4.501  0.2726 -0.3091  0.4463
25755SOL    HW179272   8.929   1.716   4.591 -0.4645  0.1398  0.6935
25755SOL    HW279273   8.935   1.633   4.465  1.9613  0.3742  0.6244
25756SOL     OW79274   6.630   9.874   4.877 -0.7599 -0.1728 -0.3775
25756SOL    HW179275   6.724   9.892   4.877 -0.1322 -2.9547 -0.2575
25756SOL    HW279276   6.589   9.959   4.866  1.7989  1.0401 -1.3146
25757SOL     OW79277   7.540   4.786   7.271  0.1243 -0.5474 -0.0872
25757SOL    HW179278   7.498   4.769   7.186 -1.9734 -1.8210  1.1043
25757SOL    HW279279   7.624   4.825   7.249 -0.7602  0.0767 -2.7231
25758SOL     OW79280   4.919   8.554   7.220 -0.1881  0.1269 -0.2056
25758SOL    HW179281   4.952   8.466   7.201 -0.8947 -0.3718  0.7889
25758SOL    HW279282   4.826   8.542   7.235 -0.2476  1.0126  0.2034
25759SOL     OW79283   5.300   7.454   3.915  1.0080 -1.2357  0.0518
25759SOL    HW179284   5.233   7.521   3.898  1.1661 -1.1620 -0.2711
25759SOL    HW279285   5.314   7.459   4.010  0.4808 -1.3218  0.1373
25760SOL     OW79286   6.495   8.890   6.622 -0.0921  0.4325  0.1260
25760SOL    HW179287   6.407   8.928   6.631 -0.9277 -1.4261  0.1499
25760SOL    HW279288   6.497   8.818   6.684  2.2276  1.6909  1.6326
25761SOL     OW79289   1.987   9.515   2.963  0.4715  0.3650  0.1273
25761SOL    HW179290   1.896   9.486   2.965  0.9104 -1.3105 -1.9283
25761SOL    HW279291   2.038   9.437   2.984  1.4978  0.9528 -0.1229
25762SOL     OW79292   9.899   7.473   4.097  0.0041 -0.0178  0.0060
25762SOL    HW179293   9.830   7.534   4.070 -1.5312 -1.2489  1.0483
25762SOL    HW279294   9.961   7.528   4.145 -1.0221  0.8413  0.3862
25763SOL     OW79295   7.392   6.135   1.041  0.1490 -0.2190  0.9979
25763SOL    HW179296   7.428   6.166   1.124 -2.9333  0.5016  2.1946
25763SOL    HW279297   7.374   6.042   1.057  3.4132 -1.2785 -0.4368
25764SOL     OW79298   8.201  10.647   8.539 -0.0975 -0.0154 -0.2349
25764SOL    HW179299   8.122  10.688   8.575 -0.5297 -1.6755  0.8433
25764SOL    HW279300   8.272  10.677   8.595 -0.5131 -1.2269  0.9812
25765SOL     OW79301   1.913   4.189   1.336  0.4254 -0.4118 -0.3457
25765SOL    HW179302   1.971   4.229   1.271  0.2003  0.8358  0.2013
25765SOL    HW279303   1.859   4.129   1.285  0.1031  0.7048 -1.3735
25766SOL     OW79304  10.037   4.264   0.498 -0.2072 -0.0555 -0.3687
25766SOL    HW179305  10.073   4.338   0.449  0.1523 -0.3878 -0.6079
25766SOL    HW279306  10.019   4.197   0.432  0.0037 -0.3929 -0.0908
25767SOL     OW79307   8.269   5.318   4.050  0.0230 -0.4624  0.0537
25767SOL    HW179308   8.264   5.290   4.141 -1.9004 -1.8990 -0.4064
25767SOL    HW279309   8.361   5.339   4.036  0.4123 -0.4550  2.2352
25768SOL     OW79310   4.413   2.272   8.418  0.3987 -0.5598 -0.3342
25768SOL    HW179311   4.475   2.200   8.428 -1.0414 -2.0998 -1.8158
25768SOL    HW279312   4.350   2.260   8.489  0.5595 -0.3025 -0.1445
25769SOL     OW79313   8.972   1.157   2.719  0.1818  0.0988  0.3391
25769SOL    HW179314   9.018   1.080   2.751  2.1524  0.6188 -1.0650
25769SOL    HW279315   8.910   1.122   2.655  1.0149 -0.3407 -0.2463
25770SOL     OW79316   7.896   0.268   6.566 -0.4378  0.0412 -0.7338
25770SOL    HW179317   7.865   0.347   6.610 -0.1222 -0.2711  0.0702
25770SOL    HW279318   7.919   0.208   6.638  0.6852 -0.2543 -1.3193
25771SOL     OW79319   3.578  10.359   3.442 -0.2733  0.9557  0.2687
25771SOL    HW179320   3.641  10.288   3.427 -0.8641  0.3613  0.5357
25771SOL    HW279321   3.632  10.438   3.452  0.3452  0.6981 -0.8931
25772SOL     OW79322   2.351   5.067   7.084 -0.6181 -0.1257 -0.2170
25772SOL    HW179323   2.331   5.103   7.171 -0.9677 -0.1638 -0.2823
25772SOL    HW279324   2.327   5.137   7.023 -0.0276  0.0421 -0.2635
25773SOL     OW79325   3.789   5.204  10.535 -0.4042 -0.5614  0.2983
25773SOL    HW179326   3.791   5.284  10.483 -1.5522  0.6530  2.0211
25773SOL    HW279327   3.730   5.146  10.488 -0.2078 -0.0926 -0.5476
25774SOL     OW79328   6.114   4.779   3.393 -0.3129  0.0610  0.4732
25774SOL    HW179329   6.121   4.803   3.485  0.7522 -1.2553  0.7739
25774SOL    HW279330   6.152   4.691   3.389 -1.0625 -0.2210 -1.0916
25775SOL     OW79331   0.214   7.974   2.595 -0.2142 -0.0576 -0.2250
25775SOL    HW179332   0.167   7.982   2.678 -1.6586  0.7062 -1.0830
25775SOL    HW279333   0.280   7.906   2.611  0.4826  1.0444  1.9455
25776SOL     OW79334  10.177   5.444   7.028  0.3988 -0.4867 -0.2836
25776SOL    HW179335  10.201   5.476   7.116  0.4014 -0.1480 -0.4053
25776SOL    HW279336  10.252   5.392   7.001  1.6432  1.6522 -1.2100
25777SOL     OW79337   7.042   6.343   8.290 -0.2907  0.2725  0.2013
25777SOL    HW179338   7.111   6.331   8.225 -1.0197 -1.4075 -0.3271
25777SOL    HW279339   6.966   6.371   8.239 -0.7378 -0.6046  0.3643
25778SOL     OW79340   4.437   6.257  10.453  0.1432 -0.7143 -0.0738
25778SOL    HW179341   4.370   6.252  10.521  0.5465  1.6612  0.5855
25778SOL    HW279342   4.396   6.216  10.377 -0.7488 -2.3909  1.2369
25779SOL     OW79343   5.252   5.243   5.923 -0.6443  0.0262 -0.0444
25779SOL    HW179344   5.318   5.263   5.857 -0.8988  0.9042 -0.0464
25779SOL    HW279345   5.171   5.227   5.873 -0.4905 -0.8304 -0.0299
25780SOL     OW79346   5.160  10.417   8.905  0.2766  0.0287  0.2159
25780SOL    HW179347   5.124  10.503   8.929 -1.0628 -0.2628 -0.6486
25780SOL    HW279348   5.086  10.357   8.913  0.1751 -0.3767 -2.8242
25781SOL     OW79349   5.677   0.727   6.852  0.1359 -0.7575 -0.0998
25781SOL    HW179350   5.688   0.633   6.844 -2.0419 -1.0601 -0.1780
25781SOL    HW279351   5.661   0.742   6.945  0.7731 -0.4145 -0.0392
25782SOL     OW79352   4.788   7.661   0.859 -0.5706 -0.0615 -0.0387
25782SOL    HW179353   4.753   7.731   0.914 -1.8388 -0.9728  0.3858
25782SOL    HW279354   4.780   7.693   0.770 -0.3421  0.6597  0.1947
25783SOL     OW79355   6.471  10.354   0.560 -0.4551 -1.0523  0.9577
25783SOL    HW179356   6.556  10.333   0.523 -0.0833  0.0347  1.1456
25783SOL    HW279357   6.445  10.276   0.609 -0.8535 -2.4450 -1.3397
25784SOL     OW79358   9.052   4.894   9.416  0.2031  0.1776  0.1807
25784SOL    HW179359   9.061   4.951   9.339  0.4173  0.0264  0.0907
25784SOL    HW279360   9.004   4.818   9.384  2.7021 -1.2052 -0.5380
25785SOL     OW79361   1.615   8.869   9.198  0.8080 -0.2715 -0.3315
25785SOL    HW179362   1.560   8.942   9.171  0.1387  0.1504  1.9609
25785SOL    HW279363   1.702   8.889   9.163  0.4366  1.1838 -0.4607
25786SOL     OW79364   9.291   6.698   3.797  0.2140 -0.3796  0.3229
25786SOL    HW179365   9.248   6.615   3.819 -0.2164 -0.2137  0.1232
25786SOL    HW279366   9.273   6.755   3.871  3.0530 -1.3411  1.9361
25787SOL     OW79367   2.708   5.605   6.842 -0.5817 -0.4172  0.0908
25787SOL    HW179368   2.674   5.690   6.815 -0.9726  0.0994  2.0606
25787SOL    HW279369   2.767   5.624   6.914  1.7100 -1.5856 -1.3645
25788SOL     OW79370   9.611   7.632   1.818  0.2371  0.2444  0.2405
25788SOL    HW179371   9.662   7.602   1.743  0.5249  1.3226 -0.0112
25788SOL    HW279372   9.520   7.621   1.791  0.1931 -3.2978  1.3211
25789SOL     OW79373   6.502   8.107   7.217  0.0327  0.1121  0.2814
25789SOL    HW179374   6.584   8.156   7.211 -0.4183  0.7796 -1.1115
25789SOL    HW279375   6.497   8.061   7.133 -0.7075 -0.4292  0.6203
25790SOL     OW79376   9.652   3.658   0.104  0.1129  0.5166  0.1200
25790SOL    HW179377   9.579   3.636   0.046 -0.5220 -1.0495  1.4163
25790SOL    HW279378   9.726   3.609   0.070 -0.0105  0.3679  0.0622
25791SOL     OW79379   6.062   8.037   4.547 -0.2463  0.1736  0.4289
25791SOL    HW179380   6.075   7.944   4.533 -3.3594 -0.2455 -0.4227
25791SOL    HW279381   6.091   8.078   4.465  0.2700 -0.1177  0.4611
25792SOL     OW79382   6.143   3.884   7.651  0.0972  0.2692  0.0240
25792SOL    HW179383   6.105   3.960   7.607  0.2857 -0.3066 -1.1625
25792SOL    HW279384   6.223   3.917   7.691 -0.1993  0.8535  0.1461
25793SOL     OW79385   3.136   6.355   6.138 -1.0501 -0.0899 -0.6705
25793SOL    HW179386   3.177   6.320   6.217 -2.3177  0.3345  0.2054
25793SOL    HW279387   3.209   6.392   6.088 -0.0796 -1.3671 -0.2571
25794SOL     OW79388   5.192   8.661   7.876 -0.3288  0.2208 -0.0088
25794SOL    HW179389   5.255   8.603   7.831 -3.2831 -2.3187 -1.2050
25794SOL    HW279390   5.169   8.614   7.956  2.0508  3.0066  2.5797
25795SOL     OW79391   7.161   7.953   4.784 -0.2687 -0.4509  0.1951
25795SOL    HW179392   7.242   8.003   4.786 -0.2564 -0.4841  0.7697
25795SOL    HW279393   7.151   7.921   4.874 -1.1169 -0.1328  0.2136
25796SOL     OW79394   9.053  10.025   4.261  0.1993 -0.5323 -0.0303
25796SOL    HW179395   9.084   9.959   4.324  1.1946  1.2171  1.4009
25796SOL    HW279396   9.114  10.017   4.188  1.7779  0.3047  1.1326
25797SOL     OW79397   3.758   7.074   2.752  0.2507 -0.4547  0.4302
25797SOL    HW179398   3.700   7.108   2.684 -0.5589 -1.7473  0.4503
25797SOL    HW279399   3.746   7.135   2.825  0.4739  0.4479 -0.2622
25798SOL     OW79400  10.215   1.238   4.015  0.3310 -0.2236  0.0975
25798SOL    HW179401  10.253   1.272   3.935 -1.0992  2.5629  0.4740
25798SOL    HW279402  10.151   1.173   3.985  0.2054  0.3799 -1.0042
25799SOL     OW79403   7.116   0.183   2.364  0.1691  0.2733 -0.2605
25799SOL    HW179404   7.129   0.089   2.354  0.8996  0.2598  0.6909
25799SOL    HW279405   7.064   0.208   2.287  0.0151 -0.8844 -0.5578
25800SOL     OW79406   8.283   5.592   2.097  0.1608 -0.3734 -0.1021
25800SOL    HW179407   8.364   5.584   2.048 -1.0127 -0.3993 -2.1511
25800SOL    HW279408   8.278   5.684   2.120  1.1421 -0.5199  0.7690
25801SOL     OW79409   7.579   5.774   1.094 -0.2856 -0.0178 -0.2013
25801SOL    HW179410   7.647   5.708   1.080  0.1089  0.0914  1.0855
25801SOL    HW279411   7.587   5.832   1.018  0.6500 -0.3727 -0.3912
25802SOL     OW79412   7.452   1.952   0.374  0.5105 -1.2790  0.1212
25802SOL    HW179413   7.395   1.952   0.451  3.1441  0.4897  2.2755
25802SOL    HW279414   7.496   1.868   0.377 -1.3094 -2.3526 -1.1418
25803SOL     OW79415   3.121   5.750   7.658  0.2778  0.3879 -0.0606
25803SOL    HW179416   3.211   5.783   7.658  0.4687 -0.1029  0.6228
25803SOL    HW279417   3.067   5.827   7.642  0.7863  0.7994  0.1635
25804SOL     OW79418   4.763   8.364   1.094 -0.2795 -0.2396  0.0123
25804SOL    HW179419   4.787   8.286   1.143 -0.6028 -0.6572 -0.4939
25804SOL    HW279420   4.676   8.387   1.127 -0.1249  0.0043  0.2667
25805SOL     OW79421   4.513   5.011   3.116  0.1358 -0.2002 -0.1389
25805SOL    HW179422   4.577   5.066   3.071  1.7480 -2.6146 -0.9509
25805SOL    HW279423   4.486   4.946   3.051  0.4755 -2.1380  1.5653
25806SOL     OW79424   9.258  10.093   4.019 -0.1189  0.9103 -0.5092
25806SOL    HW179425   9.298  10.127   3.939 -2.8625 -0.3890 -2.5993
25806SOL    HW279426   9.167  10.073   3.994 -0.6700 -1.0331  2.5110
25807SOL     OW79427   5.371   9.498   9.123 -0.4414 -0.1641  0.1936
25807SOL    HW179428   5.409   9.419   9.084 -1.3865  0.2393 -1.6248
25807SOL    HW279429   5.417   9.507   9.207 -0.0647 -2.4395  0.3057
25808SOL     OW79430   1.473   6.604   3.611 -0.0973  0.5983 -0.1940
25808SOL    HW179431   1.495   6.653   3.691 -1.5744 -0.3611  0.8443
25808SOL    HW279432   1.398   6.651   3.575 -0.0940  0.4020 -0.4552
25809SOL     OW79433   5.271   8.566   3.890  0.0984 -0.5271  0.5501
25809SOL    HW179434   5.320   8.611   3.821  1.2925 -0.4171  1.4430
25809SOL    HW279435   5.252   8.479   3.853 -2.1958  0.6117 -1.1653
25810SOL     OW79436   1.510   1.822   1.621  0.5633  0.2846  0.7206
25810SOL    HW179437   1.525   1.790   1.532  0.3854  1.3644  0.2890
25810SOL    HW279438   1.524   1.916   1.616 -1.1635  0.6235  1.4408
25811SOL     OW79439   9.936   3.430  10.327 -0.3074 -0.3669 -0.2204
25811SOL    HW179440   9.945   3.403  10.418 -0.8376 -0.7033 -0.2634
25811SOL    HW279441   9.963   3.522  10.326 -1.5315  0.0188  0.5164
25812SOL     OW79442   0.425   6.660   3.118 -0.2900 -0.5581 -0.0507
25812SOL    HW179443   0.506   6.632   3.077 -0.3075  1.5717 -1.7537
25812SOL    HW279444   0.362   6.591   3.097  0.3381 -0.7319 -1.4593
25813SOL     OW79445   8.636   2.432   1.924  0.7442  0.0095 -0.3804
25813SOL    HW179446   8.552   2.425   1.878  1.1789 -1.6202 -1.0179
25813SOL    HW279447   8.691   2.366   1.882  2.1381  0.5870  0.4793
25814SOL     OW79448  10.451   1.874   3.242 -0.4221 -0.0696 -0.6011
25814SOL    HW179449  10.417   1.825   3.166  0.0432 -0.4979 -0.5428
25814SOL    HW279450  10.540   1.839   3.254  0.5059  1.8360 -1.4909
25815SOL     OW79451   4.865   8.054   5.465 -0.0980  0.0633 -0.5382
25815SOL    HW179452   4.772   8.053   5.490  0.0374  2.0626  0.2334
25815SOL    HW279453   4.912   8.057   5.548  0.5249  1.9226 -0.9117
25816SOL     OW79454   2.742   3.486   5.667  0.0564 -0.2020 -0.8967
25816SOL    HW179455   2.740   3.484   5.763  0.2428  1.2894 -0.8478
25816SOL    HW279456   2.688   3.411   5.641 -0.9784  0.0622  0.3820
25817SOL     OW79457   2.615   8.216   5.312 -0.3361 -0.2643  0.1412
25817SOL    HW179458   2.662   8.134   5.298  0.3264 -0.0433  0.9818
25817SOL    HW279459   2.558   8.198   5.387  1.3430  0.6192  1.7178
25818SOL     OW79460   4.389   9.735  10.624  0.2257  0.3434 -0.6002
25818SOL    HW179461   4.334   9.709  10.698  0.7702 -0.6539 -0.5312
25818SOL    HW279462   4.440   9.809  10.656 -0.7121  0.9842 -0.5135
25819SOL     OW79463  10.757  10.202   2.311  0.4180 -0.0900  0.0553
25819SOL    HW179464  10.798  10.187   2.396 -1.1449 -0.6436  0.7530
25819SOL    HW279465  10.694  10.272   2.327 -0.8885 -1.1420 -0.2860
25820SOL     OW79466   4.543   9.844   6.665 -0.3900  0.0696  0.0453
25820SOL    HW179467   4.463   9.896   6.675 -1.1792 -1.4608  2.7795
25820SOL    HW279468   4.606   9.905   6.627 -2.5481  1.5975 -1.3396
25821SOL     OW79469   7.018  10.694   4.604 -0.0719  0.1828  0.2252
25821SOL    HW179470   7.002  10.787   4.588  0.0911  0.3070  0.7535
25821SOL    HW279471   6.931  10.654   4.601 -0.0685  0.2271 -0.7385
25822SOL     OW79472   7.634   9.317   4.722 -0.3935  0.1250  0.0681
25822SOL    HW179473   7.669   9.387   4.777 -1.3664  0.6021  0.1076
25822SOL    HW279474   7.647   9.237   4.774 -0.5882  0.4678  0.6543
25823SOL     OW79475   7.668   5.479   3.499  0.6182 -0.0201 -0.2927
25823SOL    HW179476   7.756   5.466   3.464  0.4526  1.4618 -1.3854
25823SOL    HW279477   7.678   5.472   3.593  2.5831  3.2180 -0.1163
25824SOL     OW79478   1.531   8.920   5.362  0.2531  0.4465  0.1793
25824SOL    HW179479   1.487   8.872   5.432 -1.3383  0.7879 -0.5354
25824SOL    HW279480   1.490   9.007   5.363  1.8954  1.2756  0.3553
25825SOL     OW79481   5.289   9.557   4.100 -0.7792 -0.1506 -0.1878
25825SOL    HW179482   5.380   9.582   4.085 -0.3264 -0.1404  2.0999
25825SOL    HW279483   5.294   9.468   4.136 -1.5858  0.1101  0.6285
25826SOL     OW79484   3.327   7.253   4.875  0.0468 -0.3650 -0.3804
25826SOL    HW179485   3.249   7.264   4.929 -0.5696 -0.6410 -1.2144
25826SOL    HW279486   3.399   7.249   4.939 -0.5235  0.6255  0.3604
25827SOL     OW79487  11.019   6.036   2.295  0.1402  0.0919 -0.1239
25827SOL    HW179488  11.069   5.978   2.352  0.3387 -0.4363 -0.8190
25827SOL    HW279489  11.071   6.042   2.215 -0.2694  0.5977 -0.3615
25828SOL     OW79490   1.520   3.047   3.403 -0.0875  0.2143  0.5643
25828SOL    HW179491   1.467   3.127   3.400  0.3669  0.4823 -1.2578
25828SOL    HW279492   1.459   2.980   3.435 -0.6356  1.1540  1.5489
25829SOL     OW79493   6.447   3.939   7.668 -0.4435  0.2148 -0.1632
25829SOL    HW179494   6.434   3.915   7.760  1.9185  0.1948  0.2216
25829SOL    HW279495   6.531   3.986   7.667 -0.5170  0.3831 -2.2852
25830SOL     OW79496   3.806  10.961   2.553  0.2388 -0.6438  0.2420
25830SOL    HW179497   3.746  10.978   2.625 -0.8925 -1.6171 -0.4342
25830SOL    HW279498   3.891  10.949   2.595 -0.2218 -0.2661  1.3175
25831SOL     OW79499   8.002   7.011   1.817  0.1978 -0.1904  0.0297
25831SOL    HW179500   7.907   7.009   1.827  0.3503 -1.1862  1.3891
25831SOL    HW279501   8.017   6.981   1.727 -0.7826  0.7034 -0.4624
25832SOL     OW79502   9.873   8.838   8.801 -0.0299 -0.5540  0.0589
25832SOL    HW179503   9.926   8.774   8.849 -0.2146  0.4144  1.6010
25832SOL    HW279504   9.870   8.915   8.857  0.0621  0.7930 -1.6903
25833SOL     OW79505   5.081   2.694   7.791  0.2388  0.1531 -0.6888
25833SOL    HW179506   5.137   2.622   7.820 -0.2505  0.0802  0.1215
25833SOL    HW279507   5.139   2.770   7.788  0.7701 -0.2719 -1.6032
25834SOL     OW79508   8.384   9.537   0.994  0.6224  0.4938 -0.3520
25834SOL    HW179509   8.424   9.469   0.940  1.8524  0.6549  0.3262
25834SOL    HW279510   8.401   9.618   0.946 -1.5137  0.3264 -1.5602
25835SOL     OW79511   9.479  10.282   9.475  0.1634 -0.4658  0.0789
25835SOL    HW179512   9.414  10.328   9.421 -0.5482 -0.9517  0.4973
25835SOL    HW279513   9.430  10.209   9.513  0.3515  0.4288  2.1936
25836SOL     OW79514   2.919  10.791   5.456 -0.0374 -0.6141  0.2827
25836SOL    HW179515   2.985  10.860   5.461  0.3777 -1.0441  0.8725
25836SOL    HW279516   2.961  10.714   5.494 -1.0015 -0.8054  1.0124
25837SOL     OW79517   2.768   0.746   6.960  0.7680 -0.2414 -0.1930
25837SOL    HW179518   2.826   0.695   6.903 -0.5525 -0.7146 -1.1764
25837SOL    HW279519   2.685   0.700   6.957  0.6463 -0.2790  2.1908
25838SOL     OW79520   1.172   7.801   4.127 -0.7429 -0.1098  1.4379
25838SOL    HW179521   1.237   7.730   4.133 -1.0743 -0.6230 -0.4222
25838SOL    HW279522   1.095   7.766   4.172 -1.0423 -1.1367  0.1845
25839SOL     OW79523  10.395  10.514   0.703  0.3787  0.0737 -0.3489
25839SOL    HW179524  10.458  10.543   0.637  1.4833 -1.0678  0.1679
25839SOL    HW279525  10.346  10.443   0.660  0.4133  0.0028 -0.2694
25840SOL     OW79526   0.607   3.891   7.582  0.5386 -0.1666 -0.0701
25840SOL    HW179527   0.527   3.919   7.627  0.6774 -0.4811  0.3861
25840SOL    HW279528   0.585   3.806   7.544  0.8916 -0.6312  0.7406
25841SOL     OW79529   5.248   7.324   0.263 -0.4920 -0.1059  0.1038
25841SOL    HW179530   5.261   7.401   0.319  0.2103  1.5253 -2.1361
25841SOL    HW279531   5.154   7.309   0.266 -0.5298  0.2463  1.3115
25842SOL     OW79532   8.940   6.172   3.416  0.2748 -0.5500 -0.1937
25842SOL    HW179533   8.953   6.084   3.380  0.4821 -0.9492  0.8046
25842SOL    HW279534   8.885   6.217   3.353  0.4369 -1.2954 -0.8768
25843SOL     OW79535   6.988   9.521   7.116  0.0753 -0.8796  0.2281
25843SOL    HW179536   7.029   9.532   7.031 -2.3924  0.8968 -0.8658
25843SOL    HW279537   6.923   9.452   7.103 -1.2395  0.3061  0.2120
25844SOL     OW79538   2.885   5.630   5.810  0.3347 -0.9913  0.5218
25844SOL    HW179539   2.933   5.633   5.893  1.2869  0.4804 -0.0357
25844SOL    HW279540   2.830   5.708   5.811 -0.2585 -1.3981  0.1104
25845SOL     OW79541   1.519   0.298   8.123 -0.4277  0.2819 -0.7265
25845SOL    HW179542   1.593   0.296   8.184 -0.3148 -1.6040 -0.8620
25845SOL    HW279543   1.504   0.391   8.106 -0.7902  0.9353  2.5495
25846SOL     OW79544   6.721   8.568   5.158 -0.4027  1.0811  0.1194
25846SOL    HW179545   6.704   8.490   5.106 -1.3117  0.2975  1.5514
25846SOL    HW279546   6.794   8.611   5.113  0.5116 -0.8807 -0.3538
25847SOL     OW79547   1.026   7.530   0.931 -0.1799  0.2868  0.5999
25847SOL    HW179548   0.981   7.449   0.906 -0.6316  0.0052  2.2307
25847SOL    HW279549   1.104   7.501   0.977 -0.0511  0.7836  0.6984
25848SOL     OW79550   3.772   7.653   4.558 -0.3650  0.4189  0.1304
25848SOL    HW179551   3.780   7.675   4.465 -0.8873 -0.7770 -0.2140
25848SOL    HW279552   3.841   7.704   4.601  0.4031  0.3735 -1.0196
25849SOL     OW79553  10.138   8.164   2.754 -0.0840 -0.2030 -0.4043
25849SOL    HW179554  10.110   8.162   2.845  3.1555  1.0131  0.7491
25849SOL    HW279555  10.151   8.071   2.731 -0.3032 -0.4811  0.5619
25850SOL     OW79556   3.759   7.793   1.594 -0.2488  0.1161 -0.1835
25850SOL    HW179557   3.765   7.844   1.675 -1.6201 -0.6175  0.4259
25850SOL    HW279558   3.704   7.718   1.618 -1.3948  0.3252 -2.0176
25851SOL     OW79559   3.782   6.842   8.488  0.8057 -0.7648 -0.2590
25851SOL    HW179560   3.762   6.902   8.416  0.2978 -0.2794  0.2842
25851SOL    HW279561   3.874   6.818   8.474  0.2771 -1.9500 -1.9819
25852SOL     OW79562   1.670   8.287   8.618  0.0204  0.7855  0.3189
25852SOL    HW179563   1.688   8.368   8.666 -0.9595  2.9851 -2.6733
25852SOL    HW279564   1.574   8.281   8.617  0.0656  0.0474 -0.1538
25853SOL     OW79565   9.216   8.737   9.275  0.0514  0.3857 -0.5214
25853SOL    HW179566   9.182   8.654   9.243 -1.1103 -0.1193  1.8506
25853SOL    HW279567   9.140   8.795   9.278  0.2232  0.5576  0.8247
25854SOL     OW79568   6.337   5.711   4.857 -0.6426 -0.4386  0.0043
25854SOL    HW179569   6.345   5.685   4.949  1.1505 -0.4775 -0.1391
25854SOL    HW279570   6.400   5.782   4.847 -0.2242 -0.9864 -1.4021
25855SOL     OW79571   2.351   6.705   3.988 -0.1228 -0.2048  0.8754
25855SOL    HW179572   2.405   6.667   4.057  1.5459 -0.4181 -0.4771
25855SOL    HW279573   2.407   6.772   3.948 -1.7491  1.2705  0.9538
25856SOL     OW79574   1.088  10.781   1.721  0.4083 -0.9117 -0.4353
25856SOL    HW179575   1.039  10.709   1.761 -0.1234  0.5166  1.6462
25856SOL    HW279576   1.179  10.750   1.719  0.1196 -1.8279 -0.0529
25857SOL     OW79577   7.245   1.965   0.575 -0.6772  0.4846 -0.8872
25857SOL    HW179578   7.154   1.993   0.568 -0.1922  2.3158 -0.2738
25857SOL    HW279579   7.289   2.035   0.624  0.6629 -1.2875  0.6109
25858SOL     OW79580   7.064   2.598   9.523 -0.1248 -0.7714  0.2127
25858SOL    HW179581   7.109   2.650   9.591 -0.3776 -0.8836  0.4667
25858SOL    HW279582   7.124   2.526   9.505 -0.0629 -0.7510  0.3324
25859SOL     OW79583   6.822   7.721   2.366  0.1515  0.0558 -0.0632
25859SOL    HW179584   6.783   7.634   2.352  0.4635  0.1965 -2.2356
25859SOL    HW279585   6.750   7.782   2.353  0.2772  0.1656 -0.2637
25860SOL     OW79586   1.562   0.446   4.061  0.1973 -0.2436 -0.1253
25860SOL    HW179587   1.630   0.402   4.113 -0.1250 -1.1710 -0.4689
25860SOL    HW279588   1.549   0.530   4.105 -1.0123 -1.5123  2.1662
25861SOL     OW79589   6.440  10.588   0.410  0.0137  0.3136 -0.0334
25861SOL    HW179590   6.383  10.571   0.335 -0.2590  1.3286 -0.0612
25861SOL    HW279591   6.436  10.507   0.461  1.1017 -0.8458 -1.6763
25862SOL     OW79592   0.790   3.440   4.395  0.2048 -0.1589 -0.4894
25862SOL    HW179593   0.857   3.378   4.366 -0.1229 -1.7460  1.9012
25862SOL    HW279594   0.771   3.492   4.316  2.7492 -0.9663 -1.7688
25863SOL     OW79595   9.634   8.299   6.271 -0.4508  0.3293 -0.2860
25863SOL    HW179596   9.622   8.367   6.337 -0.8649 -1.1385  1.2170
25863SOL    HW279597   9.588   8.332   6.194 -1.0138  1.5584  0.5470
25864SOL     OW79598   8.643   9.439   2.349 -0.7103 -0.4497  0.2091
25864SOL    HW179599   8.738   9.449   2.337 -0.8941 -0.3165 -1.3240
25864SOL    HW279600   8.617   9.515   2.400 -0.3071  0.7249 -1.2724
25865SOL     OW79601   5.952   3.880   3.799  0.0859  0.4759 -0.0564
25865SOL    HW179602   5.996   3.932   3.866 -0.6867  2.0268 -0.6986
25865SOL    HW279603   5.937   3.795   3.841  0.3383  1.1431  1.4556
25866SOL     OW79604   5.624   8.583   7.615 -0.0124 -0.0221  0.4106
25866SOL    HW179605   5.695   8.633   7.656 -1.9650  1.1324  2.6224
25866SOL    HW279606   5.595   8.640   7.543 -0.7268  1.0482  1.4983
25867SOL     OW79607   8.233  10.706   6.516 -0.1392  0.3316  0.4732
25867SOL    HW179608   8.207  10.784   6.565 -4.4713  0.5705 -1.7262
25867SOL    HW279609   8.191  10.634   6.562  0.2970 -0.1679  0.1063
25868SOL     OW79610   6.397  10.912   7.126  0.0761  0.0131 -0.1317
25868SOL    HW179611   6.466  10.969   7.093 -0.5188  1.7507  1.4320
25868SOL    HW279612   6.441  10.829   7.144  1.3810  0.5516 -0.7231
25869SOL     OW79613   4.793   8.233   1.509  0.3725 -0.6954 -0.0143
25869SOL    HW179614   4.810   8.153   1.558 -0.6232 -0.7622  0.2442
25869SOL    HW279615   4.698   8.245   1.515  0.2879 -0.4121 -1.4722
25870SOL     OW79616   7.884  10.205   6.226  0.3370  0.4737  0.0001
25870SOL    HW179617   7.835  10.237   6.301 -0.9934  0.2714 -0.7590
25870SOL    HW279618   7.870  10.271   6.157 -1.0678 -0.8366 -1.0463
25871SOL     OW79619  10.025   0.364   5.523  0.0826 -0.3961 -0.6697
25871SOL    HW179620   9.960   0.320   5.578  1.9912 -1.7657  0.6016
25871SOL    HW279621  10.090   0.397   5.585  1.7686 -1.0432 -2.0092
25872SOL     OW79622   5.059   5.190   6.475 -0.2711  0.1322  0.2684
25872SOL    HW179623   5.082   5.236   6.395 -0.8808 -0.8431 -0.4905
25872SOL    HW279624   4.965   5.208   6.487 -0.3080 -0.1769  0.4624
25873SOL     OW79625   2.621   3.917   5.877  0.2219  0.0188 -0.3692
25873SOL    HW179626   2.703   3.911   5.925  0.3433 -2.0907 -0.7413
25873SOL    HW279627   2.559   3.866   5.929 -0.5523  0.5765 -0.7160
25874SOL     OW79628   7.357   7.555   4.083 -0.2342 -0.2406  0.2630
25874SOL    HW179629   7.418   7.498   4.130 -0.0566 -0.3296 -0.0784
25874SOL    HW279630   7.317   7.608   4.152  1.4397  0.9987  0.3637
25875SOL     OW79631   3.730   3.114   3.993  0.4125  0.2121 -0.0904
25875SOL    HW179632   3.663   3.093   3.928  2.6329  3.1116 -3.7692
25875SOL    HW279633   3.797   3.047   3.980 -0.1635 -0.6370  1.0961
25876SOL     OW79634   6.199   2.208   3.250 -0.0117  0.3558  0.1454
25876SOL    HW179635   6.294   2.195   3.249  0.0695  0.8824  0.4370
25876SOL    HW279636   6.164   2.129   3.289  0.1543 -0.7246 -1.7786
25877SOL     OW79637   5.355   9.021   0.434  0.1755 -0.1599 -0.0039
25877SOL    HW179638   5.356   9.067   0.350 -0.8087 -1.1978 -0.6221
25877SOL    HW279639   5.382   8.932   0.412  2.5899  0.1871  1.2567
25878SOL     OW79640   9.260   5.583   3.795  0.6946  0.4361 -0.3253
25878SOL    HW179641   9.217   5.624   3.870  2.9323 -0.9868  1.9389
25878SOL    HW279642   9.297   5.656   3.745 -2.0549  1.5055 -0.9627
25879SOL     OW79643   8.024   8.576   6.981 -0.2999  0.1748  0.3550
25879SOL    HW179644   8.026   8.620   7.066  1.2209  0.7827  0.0389
25879SOL    HW279645   8.056   8.487   6.999  1.3934  0.7243  0.2303
25880SOL     OW79646   6.176   5.635   6.149  0.2285 -0.5055  0.2270
25880SOL    HW179647   6.107   5.612   6.086  0.5398 -1.6416  0.2781
25880SOL    HW279648   6.134   5.626   6.234  0.6137 -1.9140  0.2908
25881SOL     OW79649   8.614   5.883   0.543 -0.1091 -0.3501  0.6517
25881SOL    HW179650   8.539   5.839   0.504  0.2235 -0.2945 -0.0779
25881SOL    HW279651   8.674   5.813   0.567 -0.5517 -0.4172  1.5898
25882SOL     OW79652   5.126   7.802   5.432 -0.1094 -0.1316  0.2426
25882SOL    HW179653   5.128   7.723   5.378  1.0000 -0.4163  0.6695
25882SOL    HW279654   5.213   7.806   5.471 -0.7765  0.2494  1.7540
25883SOL     OW79655   2.230   8.804   2.432 -0.2929 -0.1879 -0.7353
25883SOL    HW179656   2.314   8.841   2.461  0.2283 -1.4711 -0.5234
25883SOL    HW279657   2.172   8.880   2.423  0.5832  0.6208  0.1564
25884SOL     OW79658   6.046   3.454   3.710 -0.6174 -0.0896  0.2883
25884SOL    HW179659   6.056   3.500   3.793  0.5823  0.5109 -0.1585
25884SOL    HW279660   6.014   3.367   3.733 -0.8651  0.2651  1.3167
25885SOL     OW79661  10.774   8.486   8.996 -0.0143  0.4600  0.3759
25885SOL    HW179662  10.817   8.522   8.918  1.2058  0.1176  0.8615
25885SOL    HW279663  10.687   8.526   8.996  0.4167  1.4579 -0.4649
25886SOL     OW79664  10.229   9.409   0.658  0.0262 -0.0892 -0.3653
25886SOL    HW179665  10.299   9.348   0.633  0.2020 -0.5970  1.2591
25886SOL    HW279666  10.270   9.495   0.654  0.0562 -0.1361 -1.7088
25887SOL     OW79667   8.849   5.338   3.616  0.6305  0.4254 -0.2235
25887SOL    HW179668   8.863   5.245   3.600  0.6219  0.6736 -1.8860
25887SOL    HW279669   8.934   5.379   3.599  0.7244  0.7004  0.8304
25888SOL     OW79670   2.038   4.741  10.398  0.0725 -0.4647 -0.2566
25888SOL    HW179671   2.026   4.815  10.339  0.1511 -1.5771 -1.7385
25888SOL    HW279672   2.130   4.715  10.385  0.1172 -0.6745  0.4300
25889SOL     OW79673   6.074   5.123   9.573 -0.4503 -0.1607 -0.1752
25889SOL    HW179674   6.072   5.027   9.572  2.4927 -0.3337 -2.0097
25889SOL    HW279675   6.150   5.146   9.519  0.7737  3.1409  2.5409
25890SOL     OW79676   3.916   2.687   5.467 -0.2591  0.2329 -0.4730
25890SOL    HW179677   3.903   2.782   5.464 -0.5415  0.1818 -0.9258
25890SOL    HW279678   4.011   2.676   5.465 -0.2380  0.4851 -1.3421
25891SOL     OW79679   6.737   5.694   3.032  0.0449  0.2350  0.3018
25891SOL    HW179680   6.704   5.782   3.012 -3.0854 -0.3755  2.1325
25891SOL    HW279681   6.714   5.680   3.124  2.8173 -1.5974  0.8402
25892SOL     OW79682  10.097   0.263   5.992 -0.2748  0.2925 -0.5683
25892SOL    HW179683  10.116   0.338   5.936 -0.0020  0.8120  0.1924
25892SOL    HW279684  10.096   0.299   6.081 -0.8858 -0.4711 -0.2520
25893SOL     OW79685   7.873  10.738  10.076 -0.1426 -0.0978 -0.5329
25893SOL    HW179686   7.865  10.812  10.136  2.1803 -0.6252  0.5775
25893SOL    HW279687   7.797  10.743  10.019 -0.5212  2.5761  0.1172
25894SOL     OW79688   4.017   7.271   5.815  0.5555  0.3870 -0.4054
25894SOL    HW179689   3.990   7.316   5.895  0.6269  0.9925 -0.7160
25894SOL    HW279690   4.045   7.185   5.844 -0.0778  0.3557  0.1387
25895SOL     OW79691   1.223   6.878   4.547 -0.2337 -0.1055  0.2874
25895SOL    HW179692   1.267   6.902   4.628  0.8709  0.2716 -0.3992
25895SOL    HW279693   1.243   6.785   4.536  1.2209  0.2683 -0.4868
25896SOL     OW79694   7.058   1.854   2.584  0.0414  0.2277 -0.0172
25896SOL    HW179695   7.138   1.881   2.540 -0.1748  1.4809  0.3332
25896SOL    HW279696   7.081   1.853   2.677  0.4053 -2.0951 -0.0677
25897SOL     OW79697   4.994   9.084   2.967  0.0716  0.5210  0.0768
25897SOL    HW179698   4.975   9.082   2.873 -2.4816  0.9246  0.5004
25897SOL    HW279699   5.075   9.133   2.974  0.2170  0.6382 -1.9110
25898SOL     OW79700   3.728   5.226   3.033  0.2302 -0.0964  0.1680
25898SOL    HW179701   3.816   5.224   2.997  0.3827  2.8199  0.1801
25898SOL    HW279702   3.731   5.291   3.103 -1.8407 -0.1622  0.3954
25899SOL     OW79703   1.117   1.985   4.672 -0.6196 -0.2845  0.1953
25899SOL    HW179704   1.135   2.020   4.759 -1.7710  0.3628  0.1987
25899SOL    HW279705   1.040   1.929   4.684 -0.7406 -0.2525 -0.3881
25900SOL     OW79706   1.060   6.086   6.103  0.3532  0.0799  0.1985
25900SOL    HW179707   1.048   6.000   6.062  0.8677  0.4653 -0.8010
25900SOL    HW279708   0.988   6.139   6.068  1.0170  0.5191 -0.5271
25901SOL     OW79709   6.571  10.648   9.908  0.1577 -1.0943  0.1044
25901SOL    HW179710   6.623  10.579   9.866 -0.0596 -0.0697 -1.9549
25901SOL    HW279711   6.524  10.603   9.978  0.9602 -2.7817 -0.3849
25902SOL     OW79712   5.159   0.471   1.323  0.2967  0.3751  0.3120
25902SOL    HW179713   5.165   0.438   1.412  0.8433 -0.0588  0.1252
25902SOL    HW279714   5.099   0.545   1.328 -1.2591 -0.8533  0.6987
25903SOL     OW79715   0.974   5.881   6.721  0.0109 -0.1085  0.3234
25903SOL    HW179716   0.924   5.855   6.644  0.5628 -0.0240 -0.0714
25903SOL    HW279717   0.949   5.819   6.789 -2.0458  1.0527  0.7078
25904SOL     OW79718   1.939   6.053   1.836 -0.2245 -0.1558  0.0428
25904SOL    HW179719   2.035   6.044   1.832 -0.1935 -0.7928  1.5578
25904SOL    HW279720   1.914   6.006   1.915 -1.8402 -0.1994 -0.4652
25905SOL     OW79721   9.347   7.216   1.532 -0.1596  0.5676  0.0850
25905SOL    HW179722   9.340   7.135   1.482  1.0672  1.5914 -1.8523
25905SOL    HW279723   9.386   7.189   1.615  0.2312 -0.8225 -0.5180
25906SOL     OW79724   7.143   5.843   2.236  0.1458  0.5367 -0.3846
25906SOL    HW179725   7.123   5.926   2.194  1.1551  1.5215  0.9995
25906SOL    HW279726   7.237   5.832   2.226  0.2441  0.2834  0.6741
25907SOL     OW79727   5.634   2.484   3.901  0.6630 -0.0503  0.1280
25907SOL    HW179728   5.567   2.548   3.924  0.4741 -0.2587  0.1683
25907SOL    HW279729   5.585   2.406   3.875  0.8814 -0.4772  0.9222
25908SOL     OW79730   2.848   0.797  10.949 -0.2041 -0.0578  0.0756
25908SOL    HW179731   2.764   0.759  10.975 -0.2056 -0.2407 -0.1939
25908SOL    HW279732   2.866   0.863  11.016 -0.2552 -0.4564  0.4838
25909SOL     OW79733   9.240   8.119   5.383  0.0417  0.1245 -0.0359
25909SOL    HW179734   9.312   8.057   5.396 -0.2635  0.1367  1.9852
25909SOL    HW279735   9.167   8.064   5.353  0.1025 -0.3410  0.6371
25910SOL     OW79736   6.372   3.268  10.143  0.3115 -0.0404  0.3148
25910SOL    HW179737   6.310   3.199  10.166 -0.5825  0.5955 -0.1471
25910SOL    HW279738   6.431   3.227  10.080 -0.7592 -0.1557 -0.6491
25911SOL     OW79739  10.301   8.391   2.994  0.3321 -0.4985 -0.3750
25911SOL    HW179740  10.212   8.424   3.003  0.0992 -1.4337  1.1289
25911SOL    HW279741  10.310   8.326   3.065  2.5115  0.2476  0.1078
25912SOL     OW79742   7.302   5.130   7.543  0.8053 -0.3329  0.4140
25912SOL    HW179743   7.313   5.061   7.609  2.3318  0.8685  1.4615
25912SOL    HW279744   7.391   5.153   7.518  0.2758  0.5092 -0.7483
25913SOL     OW79745   2.927   8.845   1.143  0.2872  0.1551  0.1138
25913SOL    HW179746   3.015   8.842   1.104  0.1790  1.1623 -0.2421
25913SOL    HW279747   2.869   8.825   1.070  0.1657  0.5440  0.1031
25914SOL     OW79748   9.538   4.395   8.955 -0.4356  0.2111 -0.1665
25914SOL    HW179749   9.600   4.322   8.955  0.3073  0.8271 -0.0266
25914SOL    HW279750   9.507   4.401   8.865  1.9552  1.7330 -0.9682
25915SOL     OW79751   7.502   1.837   1.592 -0.0480 -0.7803 -0.1914
25915SOL    HW179752   7.462   1.887   1.522 -0.1442  0.7245  0.8895
25915SOL    HW279753   7.510   1.748   1.557 -2.5694 -0.7073 -1.1183
25916SOL     OW79754   4.699   7.804   5.868 -0.0386 -0.2975 -0.4106
25916SOL    HW179755   4.709   7.777   5.777 -2.4156 -0.2930 -0.7403
25916SOL    HW279756   4.655   7.730   5.910 -0.0090  0.1635  0.4495
25917SOL     OW79757   5.319   6.461   5.868  0.0782 -0.9801 -0.2285
25917SOL    HW179758   5.314   6.463   5.964 -0.1593 -0.2160 -0.2481
25917SOL    HW279759   5.384   6.393   5.849  1.5593  0.1457  0.5447
25918SOL     OW79760   5.347   9.163   3.901 -0.0270  0.0477 -0.5917
25918SOL    HW179761   5.380   9.122   3.981 -0.3920  1.5447  0.3529
25918SOL    HW279762   5.404   9.129   3.832  1.0465 -0.3702  0.4567
25919SOL     OW79763   7.270   0.554  10.922  0.0562  0.3384 -0.2049
25919SOL    HW179764   7.201   0.493  10.947 -0.2438  0.5944 -0.3917
25919SOL    HW279765   7.340   0.539  10.985 -0.4960  0.6509  0.4911
25920SOL     OW79766   7.617   5.513   7.383 -0.2564  0.0428  0.0581
25920SOL    HW179767   7.677   5.546   7.316 -0.1796 -1.6838 -0.7893
25920SOL    HW279768   7.530   5.521   7.344 -0.0671 -2.8426 -1.2016
25921SOL     OW79769  10.527   7.977   4.422 -0.2900 -0.0897  0.2259
25921SOL    HW179770  10.490   7.997   4.336  0.1412 -0.2261  0.0043
25921SOL    HW279771  10.484   8.039   4.482 -2.5120 -1.6741  0.3784
25922SOL     OW79772   4.830   8.795   6.510  0.0905  0.6632  0.1701
25922SOL    HW179773   4.920   8.800   6.478  0.0889 -1.7953 -0.4328
25922SOL    HW279774   4.831   8.722   6.573 -0.9540  2.3155  2.2273
25923SOL     OW79775   6.097  10.001   1.378  0.0791  0.1492 -0.5661
25923SOL    HW179776   6.161  10.030   1.444 -1.4469  0.4420  0.8562
25923SOL    HW279777   6.022  10.058   1.391 -1.6381 -2.0736 -0.1279
25924SOL     OW79778   2.888  11.042  10.353  0.6247  0.6873 -0.6212
25924SOL    HW179779   2.949  10.968  10.362 -0.3725 -0.5845 -3.2213
25924SOL    HW279780   2.814  11.019  10.408  1.6350  1.3601  1.1032
25925SOL     OW79781   9.528   9.145   7.262  0.3061  0.3871 -0.1575
25925SOL    HW179782   9.606   9.136   7.206  1.2870  0.2726  1.1782
25925SOL    HW279783   9.455   9.127   7.203  1.1710  1.9944 -1.8194
25926SOL     OW79784  10.737   5.081   3.328 -0.0361  0.2784  0.1281
25926SOL    HW179785  10.800   5.044   3.266  0.7226 -0.3343  1.2322
25926SOL    HW279786  10.771   5.168   3.348  1.2781 -0.5409  1.7537
25927SOL     OW79787  11.022   2.927   2.214 -0.3753 -0.1319 -0.7713
25927SOL    HW179788  11.026   2.838   2.181 -1.4470 -0.5200  0.1056
25927SOL    HW279789  10.978   2.920   2.298 -0.5714  1.2407 -0.7342
25928SOL     OW79790  10.110   6.283   1.762  0.4866 -0.6256 -0.1164
25928SOL    HW179791  10.124   6.261   1.670  0.8986  0.4827 -0.3411
25928SOL    HW279792  10.017   6.309   1.766 -0.3274 -3.2770  0.3756
25929SOL     OW79793  10.076   2.463   4.229  0.2627  0.4460 -0.1941
25929SOL    HW179794  10.050   2.430   4.315 -1.4735 -0.2473 -0.9548
25929SOL    HW279795  10.021   2.539   4.214  0.0097  0.1092 -1.0166
25930SOL     OW79796  10.422   1.469   7.567  0.0992  0.4176  0.5738
25930SOL    HW179797  10.491   1.408   7.591  0.6875  0.5871 -0.6194
25930SOL    HW279798  10.382   1.432   7.489  0.8081  1.7719 -0.4852
25931SOL     OW79799  10.149   8.976   3.184 -0.6646 -0.2079  0.2903
25931SOL    HW179800  10.133   8.985   3.090 -2.2831  0.4586  0.5976
25931SOL    HW279801  10.136   8.883   3.202 -1.1021 -0.2115 -0.0284
25932SOL     OW79802  10.085   1.380   2.834  0.2463 -0.4132 -0.3815
25932SOL    HW179803  10.157   1.333   2.792 -0.6552 -1.2700 -1.0154
25932SOL    HW279804  10.056   1.443   2.768 -0.3612 -0.9048 -0.5930
25933SOL     OW79805  10.469   5.282   7.869 -0.2428 -0.3419 -0.3573
25933SOL    HW179806  10.454   5.363   7.820  0.1836  0.6773  1.1269
25933SOL    HW279807  10.526   5.230   7.813 -0.1850  0.5567 -1.1574
25934SOL     OW79808   0.632   1.128   9.644 -0.4441 -0.0074 -0.1852
25934SOL    HW179809   0.600   1.153   9.557  1.2350  0.2312 -0.7645
25934SOL    HW279810   0.679   1.046   9.629 -2.9953 -1.8481  1.1174
25935SOL     OW79811   7.802   1.891   9.278  0.3892  0.2489  0.0008
25935SOL    HW179812   7.819   1.932   9.363  1.1226 -0.6326  0.2912
25935SOL    HW279813   7.875   1.830   9.266 -0.5199 -0.7604 -0.5551
25936SOL     OW79814   1.731   2.947   4.575  0.0949  0.3544  0.6554
25936SOL    HW179815   1.722   2.855   4.598  0.3984  0.0874 -0.2406
25936SOL    HW279816   1.691   2.954   4.488  0.3822  0.9952  0.5673
25937SOL     OW79817  10.478   5.414   6.352  0.1929 -0.5540 -0.3632
25937SOL    HW179818  10.393   5.370   6.349  0.1471 -0.4323 -0.9415
25937SOL    HW279819  10.465   5.487   6.413 -1.2984  1.8437 -3.2458
25938SOL     OW79820   2.672   4.671   4.714  0.2935 -0.4152 -0.2905
25938SOL    HW179821   2.684   4.755   4.759  0.6157 -1.0618  0.8666
25938SOL    HW279822   2.672   4.606   4.784 -0.7426 -1.3201 -1.0957
25939SOL     OW79823   3.087   6.725   8.121  0.2835  0.0647  0.3304
25939SOL    HW179824   3.044   6.645   8.153  1.3445 -1.0871 -0.9667
25939SOL    HW279825   3.017   6.775   8.080 -0.8884  1.0658  3.3280
25940SOL     OW79826   6.720   8.537   2.300  0.6326  0.2264 -0.2348
25940SOL    HW179827   6.784   8.608   2.306 -0.2108  1.1353 -1.4916
25940SOL    HW279828   6.744   8.477   2.372  0.8823  2.1524  1.3794
25941SOL     OW79829   9.422   5.679   6.457 -0.2588  0.3350  0.0799
25941SOL    HW179830   9.413   5.702   6.365  0.3595 -1.3623 -0.4516
25941SOL    HW279831   9.515   5.693   6.476 -0.6752  2.2425  0.9430
25942SOL     OW79832   8.957   3.935   2.163  0.9223 -0.4288  0.2288
25942SOL    HW179833   8.891   4.003   2.175  0.4178 -0.8483 -0.1747
25942SOL    HW279834   8.927   3.884   2.089  2.3946  0.1906 -0.8468
25943SOL     OW79835   1.138   5.117   8.333 -0.4248  0.1466 -0.2789
25943SOL    HW179836   1.159   5.120   8.426  2.9735 -0.4631 -0.9051
25943SOL    HW279837   1.167   5.202   8.300 -1.3264  0.2413 -0.8555
25944SOL     OW79838   2.080   0.684   3.692  0.2888 -0.4221 -0.0222
25944SOL    HW179839   2.071   0.708   3.784 -1.2315 -0.6146 -0.0955
25944SOL    HW279840   2.035   0.600   3.684 -0.9083  0.2889 -1.2044
25945SOL     OW79841   3.790   5.458   5.527  0.2880 -0.4251  0.3290
25945SOL    HW179842   3.867   5.493   5.483 -0.1574  0.2713  0.0729
25945SOL    HW279843   3.756   5.532   5.579  0.0976 -0.8758  0.8553
25946SOL     OW79844   4.491  10.577   0.083  0.0778 -0.1516 -0.2852
25946SOL    HW179845   4.574  10.533   0.063  0.6104  0.5009  0.4343
25946SOL    HW279846   4.511  10.670   0.078 -0.7774  0.0156 -0.7331
25947SOL     OW79847   1.853   2.016   4.546 -0.5821 -0.6608 -0.3276
25947SOL    HW179848   1.928   1.964   4.519 -0.4164  0.9625 -3.5223
25947SOL    HW279849   1.891   2.096   4.583 -0.8290 -1.3374  1.4945
25948SOL     OW79850   9.570  10.325   5.264  0.2479 -0.4210  0.1900
25948SOL    HW179851   9.594  10.232   5.263 -0.4798 -0.6536  1.7155
25948SOL    HW279852   9.583  10.353   5.173  0.3212 -2.0471 -0.3512
25949SOL     OW79853   2.063   6.126   5.210  0.0674 -0.0331 -0.7515
25949SOL    HW179854   2.103   6.173   5.283  1.3346 -2.1442  0.0337
25949SOL    HW279855   1.979   6.169   5.196 -0.1373  0.5911  1.8611
25950SOL     OW79856   2.793   6.821   8.899 -0.5494  0.2639  0.4803
25950SOL    HW179857   2.728   6.849   8.963 -0.2909  2.2222 -0.0601
25950SOL    HW279858   2.777   6.875   8.822 -0.2594 -1.3970 -0.8211
25951SOL     OW79859   9.429   9.500   0.470 -0.5906 -0.0533  0.0746
25951SOL    HW179860   9.404   9.443   0.397  0.5257 -0.6961  0.1725
25951SOL    HW279861   9.457   9.440   0.539  0.8768  0.6108  0.0769
25952SOL     OW79862   2.298   2.324   5.911 -0.1842 -0.2836  0.6889
25952SOL    HW179863   2.226   2.322   5.974 -1.4331 -0.0016 -0.6496
25952SOL    HW279864   2.266   2.273   5.837  0.2126  1.3823 -0.7108
25953SOL     OW79865   7.537   9.100   2.059  0.0647  0.3928 -0.3356
25953SOL    HW179866   7.605   9.168   2.065  0.4590 -0.0646  0.5855
25953SOL    HW279867   7.564   9.047   1.983  0.0520  0.9332 -0.7271
25954SOL     OW79868   3.527   0.318   3.849  0.1364 -0.1354  0.4017
25954SOL    HW179869   3.578   0.397   3.870 -1.8594  1.6065 -0.8704
25954SOL    HW279870   3.593   0.253   3.826  1.9080  0.8844  2.2190
25955SOL     OW79871   6.387   3.717   3.547  0.1589  0.0864  0.2751
25955SOL    HW179872   6.382   3.811   3.530  0.7103  0.2078  0.7535
25955SOL    HW279873   6.344   3.706   3.632 -1.1915 -0.2994 -0.4398
25956SOL     OW79874   5.092   1.924   3.982 -0.4359  0.0703 -0.6021
25956SOL    HW179875   5.017   1.979   4.004  0.0505 -0.0174  1.5253
25956SOL    HW279876   5.094   1.858   4.052  2.1171  0.6141 -0.0803
25957SOL     OW79877   1.009   7.734  10.335  0.3792 -0.1378 -0.0136
25957SOL    HW179878   0.988   7.662  10.395  1.8923 -0.4256  0.2049
25957SOL    HW279879   0.942   7.728  10.267  1.0882 -2.4407 -0.5778
25958SOL     OW79880   5.319   5.983   2.970  0.3479 -0.5907  0.5149
25958SOL    HW179881   5.375   5.945   3.038  1.4193 -1.3571 -0.7526
25958SOL    HW279882   5.294   6.069   3.005  2.4921 -0.1216  1.0579
25959SOL     OW79883  10.905   7.583   1.340 -0.1498 -0.0608 -0.4044
25959SOL    HW179884  10.999   7.571   1.353 -0.3185 -0.3893  0.5278
25959SOL    HW279885  10.897   7.670   1.301  0.5354 -0.0113 -0.4406
25960SOL     OW79886   9.217   3.932   2.097  0.2158  0.4081 -0.2752
25960SOL    HW179887   9.245   3.841   2.110 -1.1726 -0.0530 -0.3854
25960SOL    HW279888   9.126   3.933   2.124 -0.0713  1.5535 -1.2114
25961SOL     OW79889   2.128   4.938   6.390  0.7592  0.2164  0.3226
25961SOL    HW179890   2.104   4.911   6.478 -2.3169 -1.7031 -0.9322
25961SOL    HW279891   2.191   4.872   6.360  0.3344 -0.2510  0.4482
25962SOL     OW79892   5.401   2.634   4.006  0.3640  0.5380 -0.0626
25962SOL    HW179893   5.376   2.700   4.071 -0.0521  1.9823 -1.6445
25962SOL    HW279894   5.343   2.560   4.025  1.1285  0.3922  2.0112
25963SOL     OW79895   2.385  10.698  10.198  0.3629 -0.8301 -0.1886
25963SOL    HW179896   2.424  10.740  10.122 -0.7223  0.6467  0.0256
25963SOL    HW279897   2.451  10.705  10.267  0.0418  1.0074 -0.0275
25964SOL     OW79898   7.842   9.174   6.550 -0.4266 -0.1798 -0.1551
25964SOL    HW179899   7.837   9.172   6.646  0.1071  2.9689  0.0617
25964SOL    HW279900   7.785   9.103   6.521 -2.8645  0.5114  2.4859
25965SOL     OW79901   8.498   1.040   9.653  0.0500 -0.0955  0.5403
25965SOL    HW179902   8.583   1.050   9.611  0.1583  0.2822  0.8437
25965SOL    HW279903   8.449   1.117   9.627 -0.5610 -0.7857 -0.4427
25966SOL     OW79904   9.011   7.705   5.507 -0.1520  0.1279  0.0196
25966SOL    HW179905   9.091   7.657   5.531  0.6386  0.7592 -1.2610
25966SOL    HW279906   8.969   7.649   5.442 -0.1658  0.3235 -0.1388
25967SOL     OW79907   4.179   9.635   3.347  0.2097  0.8191  0.7153
25967SOL    HW179908   4.164   9.542   3.336  2.0251  0.5810 -0.0074
25967SOL    HW279909   4.093   9.675   3.332 -0.3760 -0.6438  0.0089
25968SOL     OW79910   5.315   5.108   3.764 -0.2840  0.3524  0.5831
25968SOL    HW179911   5.371   5.073   3.694  0.7898  1.0619  1.0717
25968SOL    HW279912   5.349   5.195   3.781 -1.0955  0.5249  1.3968
25969SOL     OW79913   0.243   6.157   0.496  0.3378 -0.4569  0.6152
25969SOL    HW179914   0.273   6.208   0.422  3.0811 -1.4471  0.9317
25969SOL    HW279915   0.250   6.216   0.571 -0.8325  0.0232  0.3715
25970SOL     OW79916   6.764  10.377  10.777  0.1952 -0.1225 -0.6540
25970SOL    HW179917   6.709  10.386  10.855 -1.2881 -0.3172 -1.6174
25970SOL    HW279918   6.851  10.356  10.810 -0.2389  0.5112  0.9575
25971SOL     OW79919   7.766   7.142   3.538 -0.1007 -0.0765 -0.6652
25971SOL    HW179920   7.694   7.204   3.524 -1.4783 -1.1666  1.1317
25971SOL    HW279921   7.758   7.080   3.465 -1.1133 -0.2718 -0.4093
25972SOL     OW79922   4.538   6.360   3.413  0.7495  0.1484  0.0956
25972SOL    HW179923   4.572   6.281   3.455  0.6148  0.8335  1.5787
25972SOL    HW279924   4.498   6.330   3.332  1.6323 -1.1540  0.1202
25973SOL     OW79925   3.592   2.412   2.623 -0.3443 -0.6481 -0.4733
25973SOL    HW179926   3.678   2.386   2.589 -0.3922 -0.3545 -0.8304
25973SOL    HW279927   3.605   2.418   2.718  0.7272  1.7946 -0.6919
25974SOL     OW79928   6.153  10.340   0.684  0.0672 -0.2737  0.5467
25974SOL    HW179929   6.230  10.349   0.628  0.7561  1.8570  1.7231
25974SOL    HW279930   6.095  10.411   0.656  1.2978  2.2220  3.6697
25975SOL     OW79931   4.233   6.238   5.106 -0.0975 -0.7702 -0.5261
25975SOL    HW179932   4.202   6.328   5.104 -2.2714 -1.4683 -0.7131
25975SOL    HW279933   4.306   6.239   5.168  0.6032  1.2811 -1.2979
25976SOL     OW79934   9.718  10.840   8.303  0.2031  0.4685 -0.4398
25976SOL    HW179935   9.788  10.777   8.287 -0.7965 -0.5509 -0.9002
25976SOL    HW279936   9.732  10.908   8.236  0.5240  0.0813 -0.7733
25977SOL     OW79937   8.515   6.665   6.641  0.5326  0.1375 -0.1473
25977SOL    HW179938   8.520   6.620   6.556 -1.0132 -1.3558  0.4845
25977SOL    HW279939   8.431   6.637   6.677  0.8850  1.2465  1.6124
25978SOL     OW79940   1.813   8.583   2.880 -0.7403 -0.3596 -0.9987
25978SOL    HW179941   1.746   8.549   2.939 -1.0623  0.3804 -0.9340
25978SOL    HW279942   1.881   8.515   2.880 -1.0410 -0.6694 -0.3067
25979SOL     OW79943   2.798   5.426   1.086  0.6478  0.4163 -0.6118
25979SOL    HW179944   2.706   5.407   1.104  0.7573  0.8762  0.4918
25979SOL    HW279945   2.807   5.409   0.992 -1.1849  2.8123 -1.3166
25980SOL     OW79946   9.838   5.622   7.045  0.7485 -0.2845  0.2449
25980SOL    HW179947   9.828   5.562   7.118  0.6773  1.2759  1.5571
25980SOL    HW279948   9.927   5.606   7.013  1.2129 -0.1561  1.4375
25981SOL     OW79949   9.012   7.771   4.725 -0.3721  0.2209  0.0883
25981SOL    HW179950   8.947   7.833   4.759  1.2601  2.0042  0.1335
25981SOL    HW279951   8.971   7.731   4.649 -2.1021  0.0861  1.0497
25982SOL     OW79952   0.781   7.408   1.034 -0.7503 -0.4452 -0.1479
25982SOL    HW179953   0.826   7.383   1.115  0.2010 -2.1139 -1.1237
25982SOL    HW279954   0.794   7.502   1.027  1.6898 -0.6943  0.1810
25983SOL     OW79955   6.733   4.634   5.464 -0.2999 -0.0406 -0.0873
25983SOL    HW179956   6.719   4.727   5.444  0.0915  0.2016  0.6863
25983SOL    HW279957   6.814   4.612   5.418  0.5329  0.4790  1.0815
25984SOL     OW79958   0.367   8.050   2.110 -0.1268  0.3255 -0.2437
25984SOL    HW179959   0.421   8.129   2.113 -0.2836  0.5228 -1.8994
25984SOL    HW279960   0.301   8.064   2.177 -0.2144  1.6526 -0.5875
25985SOL     OW79961   7.671   0.725   5.668 -0.3917 -0.0984  0.6806
25985SOL    HW179962   7.616   0.648   5.682  1.5801 -1.5843  0.6455
25985SOL    HW279963   7.717   0.707   5.586 -0.6216  1.6032  0.1448
25986SOL     OW79964   0.521  10.707  10.125  0.1762  0.1623 -0.6856
25986SOL    HW179965   0.575  10.683  10.201  0.1360  3.0585  0.3479
25986SOL    HW279966   0.583  10.742  10.062 -0.1390  0.7426 -0.6802
25987SOL     OW79967   8.443   3.131   3.991 -0.1328 -0.7377 -0.3207
25987SOL    HW179968   8.484   3.064   4.045 -0.0871  0.2858  0.9777
25987SOL    HW279969   8.492   3.211   4.011 -0.5699 -0.1879 -1.3645
25988SOL     OW79970   8.397   5.045   4.590  0.0329  0.4431 -0.3533
25988SOL    HW179971   8.312   5.010   4.563  0.2858 -0.9386  0.4970
25988SOL    HW279972   8.461   4.997   4.537  0.3008  1.7002 -1.2160
25989SOL     OW79973   6.621   9.725   6.084  0.5355 -0.6825  0.2491
25989SOL    HW179974   6.574   9.709   6.166 -0.7085 -1.6624 -0.6174
25989SOL    HW279975   6.559   9.774   6.030  1.0375 -0.7699 -0.4106
25990SOL     OW79976   5.382   6.108   0.516 -0.1354  0.6228  0.3520
25990SOL    HW179977   5.431   6.190   0.510  0.4405  0.3822  1.4113
25990SOL    HW279978   5.413   6.056   0.442  2.1731  0.0135  1.6283
25991SOL     OW79979   6.249   6.652   6.800 -0.3745  0.3255 -0.0666
25991SOL    HW179980   6.282   6.595   6.730  1.0491  0.4501  0.4615
25991SOL    HW279981   6.287   6.738   6.780 -0.4164  0.4907  0.5481
25992SOL     OW79982   4.314   7.288  11.002 -0.1368 -0.3827 -0.3117
25992SOL    HW179983   4.282   7.287  10.912  0.2795  0.6526 -0.4824
25992SOL    HW279984   4.278   7.209  11.041  1.0186 -1.7514 -1.8504
25993SOL     OW79985   9.043   5.979   0.587 -0.0819  0.0831 -0.2220
25993SOL    HW179986   8.954   5.993   0.556 -0.1113  0.2589 -0.0569
25993SOL    HW279987   9.095   6.045   0.541  0.3524 -1.4586 -2.0714
25994SOL     OW79988   5.741   4.019   9.594  0.0240  0.2317  0.0377
25994SOL    HW179989   5.696   4.034   9.677  1.2035  0.2996  0.6725
25994SOL    HW279990   5.721   3.927   9.572 -2.2162  0.8428 -0.8251
25995SOL     OW79991   4.517   4.632   2.077 -0.8629  0.5637  0.1176
25995SOL    HW179992   4.521   4.660   1.985 -0.7688  0.5420  0.1156
25995SOL    HW279993   4.565   4.700   2.125 -2.2636  1.4417  0.3484
25996SOL     OW79994   5.822   4.088   8.250 -0.0155  0.2978 -0.1750
25996SOL    HW179995   5.834   4.090   8.345  2.4583 -0.8938 -0.3687
25996SOL    HW279996   5.886   4.150   8.216  1.6084 -1.7622 -1.1376
25997SOL     OW79997   2.700   0.122   7.424  0.1811  0.0051 -0.6352
25997SOL    HW179998   2.673   0.212   7.410  0.3840 -0.0213 -1.2585
25997SOL    HW279999   2.682   0.078   7.340  0.2358 -0.4912 -0.3940
25998SOL     OW80000   5.207   3.878   5.390  0.3289 -0.1417  0.2523
25998SOL    HW180001   5.211   3.876   5.294  2.3760 -1.4408  0.3275
25998SOL    HW280002   5.278   3.937   5.416 -0.3311  0.3545  1.0074
25999SOL     OW80003   7.753  11.024   6.661  0.3964 -0.2591 -0.0626
25999SOL    HW180004   7.795  11.102   6.699 -0.7374 -0.1267  0.9844
25999SOL    HW280005   7.737  11.048   6.570 -1.1763  1.3102  0.5696
26000SOL     OW80006   7.705   3.444   5.754 -0.0936  0.0485 -0.3651
26000SOL    HW180007   7.647   3.513   5.788 -0.1974 -0.9305  1.5548
26000SOL    HW280008   7.650   3.366   5.753  0.4261 -0.3219 -1.2279
26001SOL     OW80009   1.451   9.158   8.164 -0.1909 -0.3780 -0.1052
26001SOL    HW180010   1.437   9.156   8.069 -0.7107  1.6943 -0.1140
26001SOL    HW280011   1.372   9.117   8.200 -1.1758  1.0705 -0.5194
26002SOL     OW80012   5.363   5.424   4.411  0.0864  0.0167  0.6202
26002SOL    HW180013   5.443   5.464   4.377 -0.0572 -0.2196 -0.0036
26002SOL    HW280014   5.316   5.496   4.452  0.5375  0.1907  0.8404
26003SOL     OW80015   3.723   4.592   8.708 -0.1481 -0.0747  0.4700
26003SOL    HW180016   3.658   4.572   8.775 -0.9211  0.1292 -0.2077
26003SOL    HW280017   3.703   4.682   8.681  0.2481 -0.1042  0.0653
26004SOL     OW80018   9.387   5.465   5.484 -0.5950  0.0565 -0.1725
26004SOL    HW180019   9.475   5.488   5.453 -0.6392  0.6032  0.0913
26004SOL    HW280020   9.352   5.547   5.519 -0.7667 -0.4074  0.7830
26005SOL     OW80021   1.001   3.793   2.352 -0.7104 -0.1543  0.1012
26005SOL    HW180022   0.997   3.780   2.257  1.4675 -0.5855  0.0004
26005SOL    HW280023   1.086   3.835   2.366 -0.7978 -0.5057  1.8990
26006SOL     OW80024   1.121  10.171   9.934 -0.3166 -0.4092 -0.6258
26006SOL    HW180025   1.157  10.094   9.890  0.6458 -0.3220 -0.0216
26006SOL    HW280026   1.055  10.136   9.994  1.1242 -0.9466  0.7086
26007SOL     OW80027   6.640   6.419   5.834  0.1104  0.3038  0.2610
26007SOL    HW180028   6.598   6.335   5.853 -2.2741  1.1062 -1.1112
26007SOL    HW280029   6.683   6.406   5.749 -0.7349  0.5952 -0.2243
26008SOL     OW80030   9.416   6.326   3.503  0.8007  0.1840  0.0808
26008SOL    HW180031   9.463   6.247   3.475  0.1858  0.1701 -0.9935
26008SOL    HW280032   9.482   6.380   3.545  1.5833 -0.2235 -0.5804
26009SOL     OW80033   8.798   9.537   7.013 -0.0577 -0.1060  0.0452
26009SOL    HW180034   8.750   9.455   7.010 -0.9512  0.3231  1.6541
26009SOL    HW280035   8.885   9.514   7.047 -0.1768 -0.4312  0.1226
26010SOL     OW80036   4.176   4.567  10.601  0.2257  0.0131 -0.1527
26010SOL    HW180037   4.095   4.542  10.645  0.2289  1.8967  1.0078
26010SOL    HW280038   4.224   4.619  10.665  1.7365  0.1073 -1.3011
26011SOL     OW80039   6.774   6.084   6.771 -0.0675  0.1215 -0.1888
26011SOL    HW180040   6.846   6.027   6.743 -0.3120 -0.0680 -0.4402
26011SOL    HW280041   6.786   6.164   6.720  0.1025  0.1863 -0.0522
26012SOL     OW80042   7.637   0.444   2.862  0.5379  0.4099 -0.3134
26012SOL    HW180043   7.573   0.406   2.801  0.1263 -0.0349  0.3839
26012SOL    HW280044   7.662   0.371   2.919 -1.0036  1.3516  1.6882
26013SOL     OW80045   0.498  10.785   8.049 -0.2887 -0.0583 -0.3933
26013SOL    HW180046   0.442  10.837   7.991 -1.7862 -1.3540 -0.1822
26013SOL    HW280047   0.584  10.826   8.042 -0.9189  1.1200 -1.8740
26014SOL     OW80048   9.246   7.550   0.311 -0.5581 -0.4692 -0.1108
26014SOL    HW180049   9.218   7.501   0.389 -1.0456  1.9440  1.3373
26014SOL    HW280050   9.335   7.578   0.332 -0.4569 -0.3299 -0.7182
26015SOL     OW80051   1.949  10.932   7.748 -0.8165 -0.5450  0.1722
26015SOL    HW180052   1.898  10.940   7.829  0.0686 -4.0201  1.2257
26015SOL    HW280053   1.885  10.904   7.683 -1.4872  2.0481 -0.4079
26016SOL     OW80054   7.884   4.966   8.129 -0.2326 -0.1629  0.6794
26016SOL    HW180055   7.826   5.029   8.086 -0.5205 -0.6403  0.3548
26016SOL    HW280056   7.938   5.019   8.187  0.9028  0.6479 -1.0359
26017SOL     OW80057   8.660   7.302   9.373 -0.0964  0.4508 -0.1524
26017SOL    HW180058   8.703   7.234   9.321  3.2577  0.5423  2.2031
26017SOL    HW280059   8.688   7.384   9.332  0.9555  0.4804  0.5905
26018SOL     OW80060   3.453   5.224   6.531  0.1244  0.0523  0.1160
26018SOL    HW180061   3.489   5.293   6.587 -0.0854 -0.8067  1.3332
26018SOL    HW280062   3.524   5.202   6.472  0.1045  1.5042 -0.4923
26019SOL     OW80063   1.310  10.357   4.195 -0.1250  0.5772  0.5483
26019SOL    HW180064   1.236  10.342   4.137 -1.1596  0.5074  1.8385
26019SOL    HW280065   1.272  10.395   4.274  0.9587 -1.0983  1.9602
26020SOL     OW80066   9.506   7.004   3.919 -0.4736 -0.2191 -0.7079
26020SOL    HW180067   9.437   6.939   3.928  0.3641 -0.9561  1.0310
26020SOL    HW280068   9.567   6.966   3.856 -0.3157 -0.8353 -0.1926
26021SOL     OW80069  10.307   2.320   6.155 -0.1470  0.0752 -0.2662
26021SOL    HW180070  10.276   2.231   6.138  0.1104  0.4050 -2.8338
26021SOL    HW280071  10.366   2.310   6.230 -0.6079 -1.8055 -0.0906
26022SOL     OW80072   5.387  10.836   5.745  0.1890 -0.2534  0.2435
26022SOL    HW180073   5.433  10.826   5.661 -1.6545 -0.7637 -0.7447
26022SOL    HW280074   5.360  10.928   5.747  0.1058 -0.2778  0.2235
26023SOL     OW80075  10.165   4.861   5.831 -0.0434 -0.2388 -0.4798
26023SOL    HW180076  10.152   4.769   5.808  0.9599  0.2033 -3.2553
26023SOL    HW280077  10.080   4.901   5.817 -0.3948 -0.6509  0.3916
26024SOL     OW80078   6.515   3.529  10.607  0.1645 -0.4548 -0.4023
26024SOL    HW180079   6.465   3.541  10.527 -0.4362 -1.0369 -0.1287
26024SOL    HW280080   6.520   3.433  10.617  2.4379 -0.4662 -1.1029
26025SOL     OW80081   2.125   9.399  10.886  0.1635  0.0898  0.1938
26025SOL    HW180082   2.098   9.324  10.832  0.6668  0.7415 -1.0031
26025SOL    HW280083   2.219   9.386  10.901  0.1969  0.3444  0.2146
26026SOL     OW80084   7.837   6.539   0.023 -0.3487 -0.3244  0.3057
26026SOL    HW180085   7.774   6.482  -0.020 -1.2676  0.3983  0.6540
26026SOL    HW280086   7.918   6.528  -0.027 -1.3386  0.3709 -1.5175
26027SOL     OW80087   8.300   4.221   7.071 -0.0822 -0.8520 -0.1742
26027SOL    HW180088   8.209   4.192   7.067  0.1314 -1.5743 -0.0695
26027SOL    HW280089   8.311   4.253   7.161 -0.4146 -0.1112 -0.3918
26028SOL     OW80090   7.882   9.523   6.071 -0.1968 -0.1006 -0.0391
26028SOL    HW180091   7.915   9.481   6.151  0.6815  0.4628 -0.0907
26028SOL    HW280092   7.951   9.585   6.047 -0.7131  0.1419 -0.9168
26029SOL     OW80093   7.008   3.825   9.494 -0.3617 -0.1129  0.1121
26029SOL    HW180094   6.958   3.832   9.413 -0.7506  1.1608  0.4454
26029SOL    HW280095   7.086   3.878   9.479 -0.6367  0.4755  0.7050
26030SOL     OW80096   7.143   8.299   4.760 -0.3479  0.1116  0.1140
26030SOL    HW180097   7.160   8.389   4.736  1.5151 -0.5390 -1.1893
26030SOL    HW280098   7.220   8.250   4.730 -0.5252 -1.6693  2.2692
26031SOL     OW80099  11.064   6.725   4.548  0.1317  0.1320  0.3396
26031SOL    HW180100  11.030   6.724   4.459  0.7334 -0.9546  0.0999
26031SOL    HW280101  11.010   6.789   4.594  0.0353  0.9505 -0.8844
26032SOL     OW80102   4.627   8.804   9.079  0.0834  0.1792  0.0138
26032SOL    HW180103   4.699   8.743   9.098 -0.5379 -0.7910 -0.6515
26032SOL    HW280104   4.632   8.819   8.985 -0.0544  0.8098  0.1012
26033SOL     OW80105   8.961   2.016   4.218  0.2211  0.2850 -0.3128
26033SOL    HW180106   9.011   2.033   4.297  0.5146  0.6945 -0.5823
26033SOL    HW280107   8.981   2.089   4.160 -0.7718  0.5073 -0.3899
26034SOL     OW80108   7.697  10.506   0.389 -0.3714 -0.4103 -0.5753
26034SOL    HW180109   7.659  10.534   0.473  1.3710 -1.6648  0.7168
26034SOL    HW280110   7.671  10.415   0.380  0.3785 -0.6077 -0.8204
26035SOL     OW80111   8.948   2.016   8.549 -0.6528  0.1078 -0.1485
26035SOL    HW180112   8.930   2.110   8.550 -0.0943  0.2231 -0.3081
26035SOL    HW280113   8.953   1.994   8.456 -1.0418 -0.1351 -0.1143
26036SOL     OW80114   4.443   0.943   2.663 -0.9056 -0.1831 -0.6761
26036SOL    HW180115   4.474   1.001   2.595  2.0331  1.6551  1.9718
26036SOL    HW280116   4.508   0.872   2.666 -1.7662 -1.0004 -0.6288
26037SOL     OW80117  11.092   2.561   7.364  0.7420 -0.5606 -0.4511
26037SOL    HW180118  11.062   2.558   7.274 -1.2996 -1.4190  0.1912
26037SOL    HW280119  11.050   2.485   7.406  0.5591  0.5374  1.5093
26038SOL     OW80120   0.766   4.130   7.070 -0.5001 -0.5505  0.0140
26038SOL    HW180121   0.861   4.142   7.058 -0.5796  1.0027  0.7393
26038SOL    HW280122   0.728   4.165   6.989 -0.5138  0.1271  0.3082
26039SOL     OW80123   5.541   4.788   9.492 -0.0696 -0.8727  0.1200
26039SOL    HW180124   5.496   4.822   9.569 -0.8217 -0.3956 -0.5186
26039SOL    HW280125   5.586   4.863   9.454  0.5956 -1.1772  0.2703
26040SOL     OW80126   3.039   5.394   2.386  0.2516  0.0209  0.0221
26040SOL    HW180127   3.076   5.445   2.457  0.6674  2.0149 -1.5362
26040SOL    HW280128   3.111   5.338   2.356  1.7796  2.7719 -1.9838
26041SOL     OW80129   8.379   7.011  10.298  0.1830  0.2497  0.1592
26041SOL    HW180130   8.461   7.039  10.338  0.3742  0.6518 -0.5128
26041SOL    HW280131   8.380   6.915  10.305  0.2552  0.3055  1.0242
26042SOL     OW80132  10.711   5.534   4.820 -0.1614 -0.0428  0.1653
26042SOL    HW180133  10.738   5.474   4.890  1.0914  0.0137 -0.2432
26042SOL    HW280134  10.628   5.499   4.790 -0.0635 -0.8507  0.7840
26043SOL     OW80135   6.939   2.257   6.388 -0.4928 -0.0602  0.1890
26043SOL    HW180136   6.873   2.207   6.340 -1.0484  0.5905  0.2612
26043SOL    HW280137   6.984   2.191   6.441 -1.5105 -0.4283  0.6259
26044SOL     OW80138   4.971   7.016   5.532 -0.2833  0.2227  0.5485
26044SOL    HW180139   4.908   7.016   5.459  0.7967 -1.6928 -0.4830
26044SOL    HW280140   4.957   7.099   5.576  0.1561  2.3124 -2.8687
26045SOL     OW80141   7.107   7.522   6.637  0.1688 -0.1241 -0.5762
26045SOL    HW180142   7.037   7.560   6.584  0.0921  1.2591  0.4627
26045SOL    HW280143   7.096   7.562   6.723  1.3886 -0.9576 -0.0074
26046SOL     OW80144   5.688   5.347   6.269  0.6593  0.1565  0.8163
26046SOL    HW180145   5.717   5.437   6.250  1.1718 -0.1190  0.2721
26046SOL    HW280146   5.762   5.308   6.315  0.5835 -0.1051  0.7142
26047SOL     OW80147   9.735   2.694   1.580  0.1481 -0.1986  0.9489
26047SOL    HW180148   9.740   2.637   1.504 -2.5569 -0.5189  0.8974
26047SOL    HW280149   9.826   2.711   1.604  1.0493 -1.9202 -0.9587
26048SOL     OW80150   6.713   7.812   0.799 -0.5974 -0.1823  0.0861
26048SOL    HW180151   6.669   7.771   0.725  1.2996 -1.4790 -0.3952
26048SOL    HW280152   6.680   7.902   0.800 -0.1332  0.0894 -2.7884
26049SOL     OW80153   8.254   9.025   5.052 -0.0509 -0.0142 -0.2341
26049SOL    HW180154   8.285   9.007   4.964 -0.5776  0.2825 -0.4850
26049SOL    HW280155   8.207   9.109   5.045 -0.7996 -0.3876  0.1514
26050SOL     OW80156   4.536   0.601   3.301  0.0743 -0.0560  0.1662
26050SOL    HW180157   4.454   0.626   3.257  0.1559  0.3253  0.2295
26050SOL    HW280158   4.570   0.529   3.247 -0.2569 -0.1579  0.0882
26051SOL     OW80159   2.281   3.954  10.411  0.0593 -0.4260  0.0550
26051SOL    HW180160   2.346   4.023  10.398  1.1021 -1.4539 -0.3478
26051SOL    HW280161   2.307   3.911  10.492 -2.1109  1.2462  1.7781
26052SOL     OW80162   5.371   9.121   8.369 -0.3220 -0.0230  0.1623
26052SOL    HW180163   5.327   9.057   8.424  2.1158 -1.3061  0.7848
26052SOL    HW280164   5.373   9.081   8.282 -1.1073  0.4169 -0.0613
26053SOL     OW80165   2.815   2.352  10.547 -1.3848  0.2240 -0.6028
26053SOL    HW180166   2.896   2.360  10.497 -1.7279 -0.8507 -1.3427
26053SOL    HW280167   2.824   2.417  10.617 -0.1117  0.4702 -0.9757
26054SOL     OW80168   0.475   3.664   5.574  0.4481  0.1072  0.3810
26054SOL    HW180169   0.510   3.585   5.616  1.1400  0.3719  0.3197
26054SOL    HW280170   0.409   3.696   5.635  1.0995  0.2204  1.0489
26055SOL     OW80171   9.988   9.096   5.281 -0.0890  0.0370  0.2050
26055SOL    HW180172   9.898   9.119   5.259  0.2216  0.7844 -0.3249
26055SOL    HW280173  10.038   9.119   5.203  0.3864 -1.6352 -0.0247
26056SOL     OW80174   5.424   0.502   1.598 -0.2933 -0.3490 -0.1435
26056SOL    HW180175   5.457   0.483   1.511 -0.9067 -2.1011 -0.0282
26056SOL    HW280176   5.332   0.478   1.595  0.5644 -4.9980  2.1563
26057SOL     OW80177   7.341   5.194  10.808 -0.0028 -0.1307  0.5671
26057SOL    HW180178   7.370   5.162  10.723  2.2601  0.0644  1.1956
26057SOL    HW280179   7.401   5.267  10.828 -0.1442 -0.4979  2.5290
26058SOL     OW80180   7.679  10.279   8.700 -0.5236 -0.8165  0.0354
26058SOL    HW180181   7.599  10.234   8.676 -2.2356  2.5263 -1.1726
26058SOL    HW280182   7.731  10.281   8.619 -0.4697 -0.6101  0.0737
26059SOL     OW80183   7.743   3.461   9.396 -0.0904 -0.1300  0.1378
26059SOL    HW180184   7.656   3.489   9.368  0.9721  2.8812 -0.4925
26059SOL    HW280185   7.776   3.409   9.323 -1.2588 -1.2084  0.3373
26060SOL     OW80186   6.285   2.184   5.561  0.1832  0.2810 -0.2315
26060SOL    HW180187   6.290   2.263   5.615  0.7624 -0.0930  0.2723
26060SOL    HW280188   6.192   2.162   5.561  0.2300  0.0060  1.0438
26061SOL     OW80189   6.536  11.004   5.308  0.2044  0.5319 -0.6235
26061SOL    HW180190   6.468  11.039   5.250 -0.7699 -0.1956  0.0505
26061SOL    HW280191   6.574  11.082   5.350 -0.7029  0.9109 -0.4819
26062SOL     OW80192   6.470   7.408   6.005  0.0609 -0.8232 -0.3069
26062SOL    HW180193   6.520   7.489   6.017  1.9587 -2.1146  1.0733
26062SOL    HW280194   6.520   7.358   5.941 -1.4486 -0.6978 -1.6558
26063SOL     OW80195   1.895   2.674   4.395 -0.1182 -0.2105 -0.2583
26063SOL    HW180196   1.891   2.660   4.490 -2.0082  0.8570 -0.1334
26063SOL    HW280197   1.934   2.761   4.386  1.5452 -0.9466 -0.5739
26064SOL     OW80198   7.438   3.339   8.445 -0.1300 -0.0750  0.0632
26064SOL    HW180199   7.460   3.250   8.415  0.6136 -0.5945  1.9644
26064SOL    HW280200   7.497   3.396   8.395 -0.1496 -0.7062 -0.7054
26065SOL     OW80201   5.579   9.657   3.464  0.0550 -0.6273 -0.7628
26065SOL    HW180202   5.523   9.726   3.429  0.6633  0.4275  0.2603
26065SOL    HW280203   5.668   9.688   3.446  0.3511 -0.6261  0.5999
26066SOL     OW80204   7.624   7.024   6.960  0.4278 -0.3576 -0.3980
26066SOL    HW180205   7.544   7.024   7.013 -0.1224 -0.5160 -1.2068
26066SOL    HW280206   7.620   7.106   6.911  1.9918  0.8377  1.3228
26067SOL     OW80207   5.473   4.826   4.502 -0.2771 -0.2705 -0.1724
26067SOL    HW180208   5.413   4.753   4.493 -0.8775 -0.0107  1.4239
26067SOL    HW280209   5.532   4.818   4.427  0.3941 -3.0497  0.5215
26068SOL     OW80210   0.527  10.824   1.523  0.0380 -0.3293  0.4329
26068SOL    HW180211   0.507  10.734   1.499 -1.9845  0.0666  0.4528
26068SOL    HW280212   0.488  10.877   1.453 -1.2038  0.6126  1.7739
26069SOL     OW80213   7.598   5.323   6.038 -0.6416 -0.6253  0.3016
26069SOL    HW180214   7.535   5.315   6.110  0.7480 -1.7057  1.4819
26069SOL    HW280215   7.585   5.243   5.987 -0.3844 -0.7448  0.4226
26070SOL     OW80216   9.765   6.581   7.582 -0.4218 -0.7527 -0.0347
26070SOL    HW180217   9.680   6.538   7.578 -0.1140 -1.3019 -1.5016
26070SOL    HW280218   9.789   6.595   7.490  0.3882  0.7795  0.3776
26071SOL     OW80219  10.884   3.896   3.256  0.1922 -0.2716  0.1118
26071SOL    HW180220  10.836   3.864   3.179  2.6905 -1.5759 -1.0373
26071SOL    HW280221  10.881   3.823   3.318 -1.4018  0.6003  1.1336
26072SOL     OW80222   4.663  11.019   6.632  0.2555  0.0567 -0.9055
26072SOL    HW180223   4.622  11.038   6.548  0.2598  1.8088 -0.5347
26072SOL    HW280224   4.757  11.025   6.614  0.2583  0.3376 -0.7985
26073SOL     OW80225   4.014   0.062   4.643 -0.9351 -0.1388 -0.7740
26073SOL    HW180226   4.011   0.155   4.666 -1.0742 -0.2552 -0.2998
26073SOL    HW280227   3.950   0.021   4.701 -0.9477 -0.5188 -1.0500
26074SOL     OW80228   9.119   7.074   3.904 -0.0422 -0.5255 -0.1650
26074SOL    HW180229   9.081   7.116   3.982 -1.9113 -1.6789 -0.4031
26074SOL    HW280230   9.187   7.016   3.939  0.6145  0.5428  0.3923
26075SOL     OW80231   6.839   9.307   7.915 -0.8121  0.1319  0.4369
26075SOL    HW180232   6.897   9.370   7.873 -0.9927  0.6769  0.9889
26075SOL    HW280233   6.757   9.312   7.866 -0.8318  0.3438  0.4902
26076SOL     OW80234   4.257   9.755   0.701  0.2788  0.0243 -0.0078
26076SOL    HW180235   4.309   9.704   0.763  1.5824  2.1633  0.7742
26076SOL    HW280236   4.313   9.829   0.679 -1.4336  0.9996 -1.2747
26077SOL     OW80237   6.193   2.653   9.440 -0.1627  0.1169  0.1852
26077SOL    HW180238   6.215   2.605   9.520  0.7389 -1.7921 -1.1434
26077SOL    HW280239   6.131   2.720   9.469 -0.0017 -0.6348  2.4508
26078SOL     OW80240   7.770   9.380   5.364 -0.2145 -0.1182 -0.0017
26078SOL    HW180241   7.693   9.420   5.323 -0.0098  0.4053  0.1125
26078SOL    HW280242   7.820   9.455   5.397 -0.4290 -0.5211  1.2922
26079SOL     OW80243   5.411   6.100   7.244  0.6749  0.0316 -0.0089
26079SOL    HW180244   5.502   6.099   7.272 -0.0273  0.7404  2.5148
26079SOL    HW280245   5.369   6.032   7.297 -0.6269  1.0356  0.2877
26080SOL     OW80246   9.419   6.859   1.445  0.1613  0.0615 -0.9548
26080SOL    HW180247   9.484   6.875   1.376 -0.4994 -0.6402 -1.7687
26080SOL    HW280248   9.467   6.815   1.514  0.6818  0.1036 -1.2852
26081SOL     OW80249   5.146   6.898   5.707  0.4396 -0.1288 -0.1050
26081SOL    HW180250   5.233   6.932   5.686 -0.0115  1.0518 -0.1618
26081SOL    HW280251   5.089   6.936   5.641 -0.5659  1.4710  1.5634
26082SOL     OW80252   6.790   6.164   8.061  0.4898  0.4503  0.4051
26082SOL    HW180253   6.827   6.252   8.065  0.9887  0.2186  1.4225
26082SOL    HW280254   6.762   6.146   8.151 -0.1963 -0.1915  0.0798
26083SOL     OW80255   4.472   6.881   2.626  0.0414  0.2991  0.1759
26083SOL    HW180256   4.486   6.830   2.546 -0.6138  0.2246  0.1050
26083SOL    HW280257   4.558   6.882   2.668  0.2394 -0.2323 -0.1925
26084SOL     OW80258  10.831   5.979   3.246  0.5678  0.4568 -0.0390
26084SOL    HW180259  10.879   6.017   3.173 -0.5170 -2.9725 -2.8275
26084SOL    HW280260  10.739   5.996   3.225  0.2302 -0.8177  0.3304
26085SOL     OW80261   8.028   4.394   5.413  0.4800  0.2213 -0.0754
26085SOL    HW180262   8.016   4.377   5.507  3.1667 -0.4382  0.2368
26085SOL    HW280263   7.970   4.468   5.395  0.1421  0.5964  2.1935
26086SOL     OW80264   1.674   6.109   6.900  0.4709 -0.4630  0.4106
26086SOL    HW180265   1.742   6.175   6.911 -1.8968  1.8377  2.5390
26086SOL    HW280266   1.599   6.158   6.866  0.1237 -3.1503 -3.2755
26087SOL     OW80267   3.748   4.913   9.805 -0.1955  0.1871 -0.1486
26087SOL    HW180268   3.842   4.920   9.790 -0.1738 -0.1491 -0.1836
26087SOL    HW280269   3.724   4.997   9.844  0.7637 -0.9559  3.2335
26088SOL     OW80270   8.987   0.498   0.860 -0.0402 -0.1971  0.4086
26088SOL    HW180271   8.982   0.443   0.937 -0.3112 -0.3918  0.2519
26088SOL    HW280272   9.081   0.510   0.845  0.0510 -1.3348 -0.0594
26089SOL     OW80273   7.977   4.013   2.628  0.4476 -0.2442 -0.2642
26089SOL    HW180274   7.976   3.983   2.719 -0.7884 -0.5642 -0.3608
26089SOL    HW280275   7.886   4.033   2.609  0.4488 -1.6073 -1.8954
26090SOL     OW80276   3.846   4.843   4.939  0.4172  0.0609  0.4524
26090SOL    HW180277   3.818   4.871   5.026 -1.4689 -0.4767  0.0692
26090SOL    HW280278   3.772   4.792   4.905  0.9899  0.4629 -1.5541
26091SOL     OW80279   8.707   2.522  10.608  0.1803 -0.1816 -0.3471
26091SOL    HW180280   8.780   2.564  10.653  0.7819  0.1032 -1.5465
26091SOL    HW280281   8.686   2.582  10.537 -0.3040 -0.9407 -0.8557
26092SOL     OW80282   7.857   2.542   9.674  0.2003 -0.6082 -0.0039
26092SOL    HW180283   7.804   2.536   9.595 -2.6510 -0.5528  1.7992
26092SOL    HW280284   7.876   2.452   9.698 -0.5205 -0.6926  0.2538
26093SOL     OW80285   0.176   6.164   7.909 -0.0652  0.6224  0.3240
26093SOL    HW180286   0.216   6.120   7.834  2.4344  3.0055  0.0909
26093SOL    HW280287   0.114   6.225   7.870 -0.5987  0.1210  0.3808
26094SOL     OW80288   5.435   5.758   8.595  0.1109 -0.2350 -0.0963
26094SOL    HW180289   5.484   5.837   8.574 -1.3516  0.6354 -0.3611
26094SOL    HW280290   5.422   5.714   8.512  0.3745 -0.4337 -0.0349
26095SOL     OW80291   7.054   1.162   6.277  0.1936  0.5216 -0.2155
26095SOL    HW180292   7.054   1.253   6.309  0.6750  0.5842 -0.3825
26095SOL    HW280293   6.965   1.148   6.245  0.2169  1.0590 -0.5360
26096SOL     OW80294   4.380   9.400  10.091 -0.2386 -0.0920  0.1920
26096SOL    HW180295   4.306   9.372  10.145  1.0559 -0.1251  2.0842
26096SOL    HW280296   4.455   9.392  10.150  0.7587  3.6532 -0.3328
26097SOL     OW80297   6.438   8.684   9.027 -0.1710 -0.0342 -0.0125
26097SOL    HW180298   6.457   8.740   9.101 -0.2924  2.5484 -1.8080
26097SOL    HW280299   6.520   8.681   8.977 -0.3335 -1.0097 -0.2511
26098SOL     OW80300   0.131   7.146   0.676  0.0876  0.0140 -0.6325
26098SOL    HW180301   0.191   7.117   0.745  0.2224  1.7805  0.0448
26098SOL    HW280302   0.164   7.104   0.596  1.5613  0.0663 -0.0807
26099SOL     OW80303   1.980   3.041   8.343 -0.1598  0.6499  0.1878
26099SOL    HW180304   1.947   3.028   8.432  0.0828  1.0319  0.3357
26099SOL    HW280305   1.911   3.005   8.287 -0.8633  1.4619  0.4945
26100SOL     OW80306   8.747  10.414   0.744  0.5924 -0.2793  0.3589
26100SOL    HW180307   8.841  10.418   0.727  0.2986  0.5144 -1.2971
26100SOL    HW280308   8.715  10.501   0.721 -0.4958 -0.4048  1.3336
26101SOL     OW80309   2.832   2.199   1.640 -0.0652 -0.2622 -0.0581
26101SOL    HW180310   2.900   2.187   1.706 -0.3164 -0.6675  0.1341
26101SOL    HW280311   2.750   2.182   1.687 -0.4282  1.6283  0.0812
26102SOL     OW80312   3.779   6.323   6.992  0.2304  0.1351  0.4871
26102SOL    HW180313   3.739   6.410   7.000 -1.4697 -0.7791  4.4041
26102SOL    HW280314   3.870   6.336   7.017 -0.0714  0.8023  1.3035
26103SOL     OW80315   5.277   0.569   6.414  0.2041 -0.3678 -0.2825
26103SOL    HW180316   5.225   0.502   6.459 -0.8774 -0.0378 -0.9895
26103SOL    HW280317   5.357   0.524   6.388  1.3630 -0.3279  2.8013
26104SOL     OW80318   7.989   6.100   5.707  0.0639 -0.4072 -0.5021
26104SOL    HW180319   7.912   6.142   5.746  0.4919  0.5845 -0.6890
26104SOL    HW280320   8.040   6.069   5.782  0.9052  1.5314 -0.2062
26105SOL     OW80321   7.914   5.111   7.044 -0.1566  0.5801 -0.4917
26105SOL    HW180322   7.844   5.116   6.979 -0.5612  0.8475 -0.0300
26105SOL    HW280323   7.908   5.192   7.093  0.5889  0.6855 -0.5613
26106SOL     OW80324   4.539   7.625   9.023 -0.1295  0.0842 -0.0514
26106SOL    HW180325   4.464   7.567   9.033  0.1821 -0.4236 -0.5966
26106SOL    HW280326   4.595   7.606   9.098  0.2514 -0.7494 -0.5384
26107SOL     OW80327   6.758   7.231  10.536 -0.1845  0.4567 -0.3829
26107SOL    HW180328   6.723   7.248  10.448 -2.1073 -0.4769  0.1520
26107SOL    HW280329   6.825   7.165  10.522 -0.0989  0.6974 -1.1988
26108SOL     OW80330  10.227   1.331   6.839 -0.3082  0.1020  0.4294
26108SOL    HW180331  10.264   1.303   6.923 -1.0665 -1.6205  0.2474
26108SOL    HW280332  10.134   1.308   6.846 -0.6418  1.1464 -0.4011
26109SOL     OW80333   7.421  10.333   6.044 -0.7553 -0.4851 -0.1203
26109SOL    HW180334   7.424  10.252   6.095 -1.1351  0.5171  1.5312
26109SOL    HW280335   7.456  10.307   5.958 -0.5013 -2.3042  0.4805
26110SOL     OW80336   6.324   6.487   7.523 -0.7610 -0.6797 -0.5757
26110SOL    HW180337   6.343   6.412   7.580  0.8087  0.1955  0.1194
26110SOL    HW280338   6.292   6.555   7.582 -0.0362 -0.0831 -0.8461
26111SOL     OW80339   2.449   1.766   1.998 -0.7180 -0.7593  0.3747
26111SOL    HW180340   2.437   1.758   2.093 -0.8721 -0.7865  0.3540
26111SOL    HW280341   2.517   1.703   1.976  0.9629  0.8144  0.7994
26112SOL     OW80342   8.578  10.966   2.897  0.6665 -0.5477  0.0080
26112SOL    HW180343   8.529  10.899   2.850 -1.7485  1.3897 -0.4519
26112SOL    HW280344   8.632  11.008   2.830  1.7761 -1.6411  0.1945
26113SOL     OW80345  10.810   3.266   5.222 -0.0746  0.0466  0.0820
26113SOL    HW180346  10.789   3.326   5.150  0.4296  0.1741  0.0378
26113SOL    HW280347  10.726   3.251   5.266  0.0157  1.9910  1.0193
26114SOL     OW80348   6.543  10.071   5.069 -0.3698 -0.2787  0.2059
26114SOL    HW180349   6.476  10.008   5.043 -0.2478 -0.5702  0.5769
26114SOL    HW280350   6.495  10.153   5.084 -0.3424  0.1117 -1.6359
26115SOL     OW80351   3.053   5.654   6.072  0.0739  0.0303  0.1297
26115SOL    HW180352   3.032   5.656   6.166 -1.6543  1.0043 -0.2266
26115SOL    HW280353   3.148   5.651   6.069  0.1733 -0.1022  1.9188
26116SOL     OW80354   7.279   4.011  10.483  0.5142  0.2517  1.0144
26116SOL    HW180355   7.357   3.955  10.479  1.7687  1.9783 -1.7308
26116SOL    HW280356   7.314   4.100  10.480 -1.5369  1.1166  1.2744
26117SOL     OW80357   4.219   5.590   0.263 -0.6543 -0.3158  0.1324
26117SOL    HW180358   4.221   5.643   0.183 -0.9626  0.5043  0.6560
26117SOL    HW280359   4.139   5.538   0.256  0.7285 -2.3707 -1.4038
26118SOL     OW80360   6.554   4.883   9.273 -0.4010  0.4017 -0.0280
26118SOL    HW180361   6.586   4.925   9.353  0.8667 -0.2664 -0.1665
26118SOL    HW280362   6.545   4.791   9.296  0.7986  0.0484 -0.8669
26119SOL     OW80363   5.841   7.947   7.827  0.1363  0.1413 -0.0671
26119SOL    HW180364   5.845   7.851   7.830  1.5217  0.2063  2.6683
26119SOL    HW280365   5.932   7.974   7.813 -0.1760  1.0804 -0.3187
26120SOL     OW80366   4.149   3.921   8.486  0.3373 -0.4576  0.4223
26120SOL    HW180367   4.215   3.951   8.548  1.0823  0.1375 -0.6218
26120SOL    HW280368   4.109   3.845   8.528 -0.6421  1.1430  2.5337
26121SOL     OW80369   3.153   0.948  10.993  0.0714 -0.4943  0.6938
26121SOL    HW180370   3.077   0.947  11.051 -0.6008 -0.6865 -0.1679
26121SOL    HW280371   3.138   0.875  10.933  1.2392 -0.9063  0.8867
26122SOL     OW80372   0.539   3.967   7.989 -0.3901 -0.1576  0.3092
26122SOL    HW180373   0.633   3.950   7.985 -0.2116  1.0839 -2.1957
26122SOL    HW280374   0.522   3.987   8.082  1.6041 -1.2224  0.9602
26123SOL     OW80375  10.400   6.250   3.944  0.0657  0.5715 -0.2646
26123SOL    HW180376  10.329   6.191   3.919 -1.0947  0.9960  1.7575
26123SOL    HW280377  10.464   6.243   3.874 -1.8983  0.0349 -2.0941
26124SOL     OW80378   8.104   2.354   7.594  0.1664  0.0158 -0.7656
26124SOL    HW180379   8.151   2.437   7.589  1.3105 -0.6034 -0.5399
26124SOL    HW280380   8.016   2.379   7.623  0.4099  1.1689 -0.9366
26125SOL     OW80381   6.101   8.700   5.062  0.1566  0.0192  0.2618
26125SOL    HW180382   6.174   8.644   5.087 -0.1528 -0.5854 -0.1409
26125SOL    HW280383   6.081   8.751   5.140  1.1649  0.3693  0.2995
26126SOL     OW80384   7.197   4.967   9.133  0.0837  0.4169  0.2852
26126SOL    HW180385   7.131   4.899   9.119 -0.0913  0.6638 -0.0881
26126SOL    HW280386   7.240   4.941   9.214 -0.6449  0.3917  0.6770
26127SOL     OW80387   3.406   1.993   3.247  0.4431  0.4896 -0.1115
26127SOL    HW180388   3.468   1.945   3.193  0.8208  1.6355 -0.7209
26127SOL    HW280389   3.460   2.053   3.299 -0.0886  0.9950 -0.1305
26128SOL     OW80390   6.557   7.007   6.102 -0.0406 -0.7453 -0.5123
26128SOL    HW180391   6.604   7.088   6.120  1.7895 -1.8197 -0.1554
26128SOL    HW280392   6.563   6.996   6.007 -1.8627  0.3859 -0.8119
26129SOL     OW80393   8.512   7.204  10.129 -0.5231  0.0157 -0.0164
26129SOL    HW180394   8.447   7.161  10.185  0.5647 -0.3476  1.0166
26129SOL    HW280395   8.513   7.295  10.159  0.5494 -0.3290  1.0747
26130SOL     OW80396   6.816  10.982   6.408 -0.0163 -0.1144 -0.5273
26130SOL    HW180397   6.744  11.016   6.461 -0.5122 -0.2075 -1.1324
26130SOL    HW280398   6.877  11.056   6.401 -0.7588  0.4443 -1.2527
26131SOL     OW80399   8.734   9.078   6.449  0.4935  0.3804  0.4150
26131SOL    HW180400   8.774   9.120   6.373 -0.7869 -0.8933 -1.0444
26131SOL    HW280401   8.795   9.095   6.521  3.1807 -0.6424 -1.4593
26132SOL     OW80402   4.655   5.097   1.629  0.4811 -0.4080 -0.4749
26132SOL    HW180403   4.607   5.174   1.658 -0.6594 -0.8215 -1.1929
26132SOL    HW280404   4.747   5.118   1.644  0.3338  1.7613 -2.1651
26133SOL     OW80405   3.946  10.069   5.653  0.1442 -0.6541  0.4923
26133SOL    HW180406   3.892  10.033   5.584  1.8431 -1.3164 -0.5515
26133SOL    HW280407   3.902  10.151   5.678  0.3875  0.5627 -2.6456
26134SOL     OW80408   1.836   6.509   9.575 -0.2874 -0.4308  0.1050
26134SOL    HW180409   1.921   6.541   9.546  0.1631 -1.0830  0.6716
26134SOL    HW280410   1.798   6.467   9.497 -0.0187 -0.2872 -0.1020
26135SOL     OW80411   6.862   5.174   0.321  0.6011 -0.0910 -0.1014
26135SOL    HW180412   6.778   5.156   0.362  0.9158 -0.9765  0.1858
26135SOL    HW280413   6.847   5.159   0.227  0.6619 -1.1832  0.0486
26136SOL     OW80414   8.975   7.725   0.738 -0.4737 -0.0195  0.4836
26136SOL    HW180415   8.918   7.738   0.662  0.8367  1.7699 -0.2626
26136SOL    HW280416   8.984   7.630   0.746 -1.1339 -0.2469 -1.2194
26137SOL     OW80417  10.884   4.709   2.476  0.1549 -0.2376  0.1626
26137SOL    HW180418  10.897   4.750   2.562 -0.0265 -0.5526  0.3447
26137SOL    HW280419  10.917   4.619   2.488 -0.7183 -0.5624  0.1712
26138SOL     OW80420   4.073   7.194   7.534  0.2616 -0.2213  0.5957
26138SOL    HW180421   4.087   7.210   7.441  1.4005  0.2448  0.8303
26138SOL    HW280422   3.999   7.133   7.537 -1.4514  1.6963 -0.4959
26139SOL     OW80423   5.443   9.117   4.142  0.5211  0.0347  0.6056
26139SOL    HW180424   5.453   9.205   4.180  1.4154 -0.2600  1.0712
26139SOL    HW280425   5.465   9.057   4.214 -0.5456 -0.5910  0.4304
26140SOL     OW80426   6.305  10.821   9.097 -0.0230 -0.2291 -0.2845
26140SOL    HW180427   6.266  10.904   9.126 -2.2831 -1.3515  0.1107
26140SOL    HW280428   6.327  10.776   9.178 -1.0783 -0.9881 -0.3901
26141SOL     OW80429   6.121   4.443   2.951 -0.3965  0.5659 -0.3021
26141SOL    HW180430   6.199   4.497   2.939  0.7270 -0.2889  2.1841
26141SOL    HW280431   6.151   4.354   2.932 -0.4131  0.0996  1.6283
26142SOL     OW80432   7.146   4.470  10.575  0.3220 -0.1018 -0.2465
26142SOL    HW180433   7.117   4.409  10.642  1.2279  0.2833  0.5185
26142SOL    HW280434   7.240   4.479  10.589  0.6329 -0.4478 -1.9420
26143SOL     OW80435   1.544  10.630   9.861 -0.0255  0.1641 -0.0764
26143SOL    HW180436   1.632  10.634   9.899 -0.1040 -1.4316  0.3350
26143SOL    HW280437   1.520  10.721   9.847  1.5206  0.6446  0.2102
26144SOL     OW80438  10.418   3.618   0.854 -0.1231 -0.1596 -0.0261
26144SOL    HW180439  10.429   3.597   0.761  0.7069  0.6062 -0.1299
26144SOL    HW280440  10.500   3.589   0.895 -0.0330  0.4808  0.2648
26145SOL     OW80441   4.255   7.496   5.670  0.3299  0.2102  0.4567
26145SOL    HW180442   4.346   7.464   5.668  0.6407  1.0626  0.4817
26145SOL    HW280443   4.254   7.559   5.741 -0.0353  0.9342 -0.1772
26146SOL     OW80444   7.872   2.930   6.249  0.0443  0.1570 -0.1729
26146SOL    HW180445   7.956   2.964   6.219 -0.2992  1.2188  0.0143
26146SOL    HW280446   7.845   2.869   6.180  0.1361  1.1776 -1.1486
26147SOL     OW80447   8.981   3.333   6.415  0.2241 -0.0239  0.1686
26147SOL    HW180448   8.958   3.383   6.493 -1.4535 -2.0527  1.0421
26147SOL    HW280449   9.072   3.305   6.431  0.5482  1.1532  0.4881
26148SOL     OW80450   4.527   1.677   2.098 -0.0679  0.3940  0.5118
26148SOL    HW180451   4.440   1.717   2.109 -0.6676 -0.9682  0.9908
26148SOL    HW280452   4.510   1.583   2.095  1.1765  0.1652 -1.7671
26149SOL     OW80453   8.863   0.378   9.190 -1.1158  0.3018 -0.1250
26149SOL    HW180454   8.802   0.370   9.264 -1.8168  0.1939 -0.7065
26149SOL    HW280455   8.840   0.306   9.132  0.9986 -1.0669  0.6475
26150SOL     OW80456   5.219   9.098   5.187 -0.0063  0.1575 -0.5390
26150SOL    HW180457   5.143   9.132   5.234 -1.2699 -1.4918 -1.2653
26150SOL    HW280458   5.288   9.091   5.253 -0.8506  0.5735  0.4101
26151SOL     OW80459   9.953   3.390   9.962 -1.0155  0.0275 -0.2918
26151SOL    HW180460   9.931   3.350  10.046 -3.5653  0.3542 -0.7278
26151SOL    HW280461   9.971   3.316   9.904  1.1149 -0.1927  0.5502
26152SOL     OW80462   7.975  10.782   3.962 -0.1604  0.2199  0.0955
26152SOL    HW180463   7.881  10.786   3.947  0.2931 -0.0806 -3.9357
26152SOL    HW280464   7.996  10.688   3.956  0.4481  0.3356  0.3989
26153SOL     OW80465   3.318   6.743   4.868 -0.2019  0.2269 -0.1799
26153SOL    HW180466   3.346   6.834   4.879 -1.5177  0.4770  1.5681
26153SOL    HW280467   3.360   6.696   4.940  0.3125 -0.5260 -0.9554
26154SOL     OW80468   8.454   7.874  10.829 -0.1557 -0.2624 -0.5677
26154SOL    HW180469   8.532   7.837  10.872 -0.9864  0.7415  2.0352
26154SOL    HW280470   8.475   7.966  10.817 -0.9309  0.0313  0.2333
26155SOL     OW80471   8.867   8.774   1.740  0.0936 -0.1351  0.5614
26155SOL    HW180472   8.829   8.862   1.746  1.5588  0.7761 -1.8355
26155SOL    HW280473   8.962   8.789   1.742  0.3873 -1.5588 -0.7166
26156SOL     OW80474   7.455   7.073   1.826  0.0054  0.6147 -0.1449
26156SOL    HW180475   7.369   7.035   1.843  0.4195 -1.6220 -2.4778
26156SOL    HW280476   7.512   7.032   1.891 -0.0894 -0.6774 -0.8349
26157SOL     OW80477   2.090   1.649  10.166  0.2457  0.4351  0.5447
26157SOL    HW180478   2.017   1.708  10.145  0.5776  0.4563 -0.6174
26157SOL    HW280479   2.053   1.561  10.161  0.2849  0.4459 -0.0467
26158SOL     OW80480   2.057   5.211   4.709 -0.0825 -0.0704 -0.3630
26158SOL    HW180481   2.059   5.306   4.694  0.8110  0.1709  1.0917
26158SOL    HW280482   2.092   5.173   4.628 -0.0580  0.8549 -0.8010
26159SOL     OW80483   6.732   8.408   6.843  0.2342 -0.0437 -0.1297
26159SOL    HW180484   6.686   8.385   6.924  0.5879  0.1100  0.1185
26159SOL    HW280485   6.764   8.497   6.859  1.8302 -0.6469  0.2637
26160SOL     OW80486   5.746   9.634   7.262  0.2880 -0.1792 -0.0397
26160SOL    HW180487   5.766   9.696   7.332  0.2918 -0.7055  0.4315
26160SOL    HW280488   5.831   9.613   7.223  0.3260 -0.1714  0.0390
26161SOL     OW80489   6.202   4.583   6.442  0.0545  0.1881  0.5941
26161SOL    HW180490   6.280   4.563   6.494  0.8280 -0.6734 -0.8486
26161SOL    HW280491   6.141   4.513   6.463 -0.2019  0.6350  1.4050
26162SOL     OW80492   6.703   6.306   8.836  0.0725 -0.4636  0.6666
26162SOL    HW180493   6.732   6.299   8.928 -0.7888 -0.8714  0.9104
26162SOL    HW280494   6.772   6.359   8.794  0.3094  0.0156  1.6202
26163SOL     OW80495   6.219   5.858   8.859  0.1787 -0.2459 -0.2289
26163SOL    HW180496   6.282   5.809   8.805  1.0861 -0.1170  0.6844
26163SOL    HW280497   6.272   5.898   8.927 -0.8594  0.1815  0.3498
26164SOL     OW80498   3.924   1.300   8.168  0.5957  0.3323 -0.8139
26164SOL    HW180499   3.952   1.323   8.257  2.1950  0.3370 -1.2924
26164SOL    HW280500   3.967   1.217   8.150 -1.5050 -0.8415 -0.8023
26165SOL     OW80501  10.483   1.155   0.959  0.1598  0.2701 -0.3061
26165SOL    HW180502  10.418   1.207   0.911  0.3584 -0.1652 -1.0547
26165SOL    HW280503  10.566   1.176   0.918  0.3879  0.1819  0.1034
26166SOL     OW80504   9.263   3.115   5.772 -0.5502 -0.1580  0.0231
26166SOL    HW180505   9.261   3.211   5.769 -0.8058 -0.1772 -1.1941
26166SOL    HW280506   9.264   3.089   5.679 -1.2793 -1.3389  0.3285
26167SOL     OW80507   2.292   8.348   2.416  0.0754 -0.0675  0.1746
26167SOL    HW180508   2.362   8.283   2.405 -1.1969 -2.1901  3.2257
26167SOL    HW280509   2.214   8.305   2.381 -0.2793  1.1162 -0.5504
26168SOL     OW80510   5.478   0.927   5.234 -0.1048  0.5771  0.2697
26168SOL    HW180511   5.482   0.914   5.139 -0.4260 -0.8910  0.4245
26168SOL    HW280512   5.408   0.992   5.247  1.8663  3.0213 -0.6167
26169SOL     OW80513   4.588   9.262   0.261 -0.4361 -0.1318  0.1456
26169SOL    HW180514   4.500   9.233   0.286 -0.0102 -0.4496  1.3335
26169SOL    HW280515   4.634   9.182   0.237  0.0777 -0.2192  1.3301
26170SOL     OW80516   3.343   5.072   1.356  0.1621 -0.0874 -0.2878
26170SOL    HW180517   3.331   5.155   1.310 -1.3138  0.7091  1.3803
26170SOL    HW280518   3.268   5.019   1.330  0.6017 -0.5508 -0.6275
26171SOL     OW80519   9.295   6.021   8.839 -0.5966  0.2366 -0.0267
26171SOL    HW180520   9.341   5.986   8.763  0.2737  2.2686 -0.5057
26171SOL    HW280521   9.209   6.046   8.805 -0.6007  0.1269 -0.0964
26172SOL     OW80522   6.658  10.579   3.830 -0.3160 -0.1589  0.0010
26172SOL    HW180523   6.730  10.631   3.795  1.0272 -0.7385  1.7431
26172SOL    HW280524   6.627  10.527   3.756  1.7438 -0.6372 -0.5746
26173SOL     OW80525   4.523   7.561   7.512 -0.5972 -0.2793 -0.5932
26173SOL    HW180526   4.616   7.569   7.530 -0.9923  0.0217  1.5384
26173SOL    HW280527   4.499   7.475   7.545 -1.2997  0.1598  0.0773
26174SOL     OW80528   4.710   6.282   9.001 -0.1624  0.1623 -0.0334
26174SOL    HW180529   4.776   6.346   9.028 -0.6380  0.4211  0.5353
26174SOL    HW280530   4.729   6.204   9.054 -0.5531  0.3701  0.4136
26175SOL     OW80531   6.320   6.905   7.074 -0.2728  0.3652 -0.1362
26175SOL    HW180532   6.385   6.889   7.006  1.0024  0.9811  0.9086
26175SOL    HW280533   6.259   6.967   7.034  0.0653  0.1929 -0.9459
26176SOL     OW80534  10.743   9.157   2.079 -0.9499  0.0903  0.0786
26176SOL    HW180535  10.672   9.105   2.040 -0.5613 -1.4782  1.3214
26176SOL    HW280536  10.802   9.176   2.006 -1.8331  0.0243 -0.6739
26177SOL     OW80537   7.180   3.287   9.342 -0.3025  0.8943 -0.0834
26177SOL    HW180538   7.241   3.231   9.295 -0.4881  0.5510  0.0781
26177SOL    HW280539   7.235   3.339   9.401 -0.1757  0.4847  0.1660
26178SOL     OW80540   5.965   5.545   5.989 -0.6136  0.3204 -0.8670
26178SOL    HW180541   5.901   5.615   6.002 -1.7727 -0.6400 -1.2270
26178SOL    HW280542   5.913   5.464   5.992  0.7052 -0.5443 -0.3490
26179SOL     OW80543   3.177  10.342   7.559 -0.2876 -0.6897  0.4748
26179SOL    HW180544   3.201  10.338   7.467 -2.3627 -2.8553 -0.0777
26179SOL    HW280545   3.114  10.414   7.565 -0.1218 -0.5222  0.2330
26180SOL     OW80546   0.398   6.061   4.033 -0.2136  0.1799 -0.1476
26180SOL    HW180547   0.444   6.067   4.117 -1.2547  0.9199  0.3796
26180SOL    HW280548   0.446   5.993   3.985  0.2819 -0.3980  1.1127
26181SOL     OW80549   2.005   8.001   6.156  0.4246 -0.1438 -0.8949
26181SOL    HW180550   2.077   7.997   6.092 -1.0125 -1.4140 -2.5287
26181SOL    HW280551   1.972   7.911   6.160 -0.7154  0.3038  0.2519
26182SOL     OW80552   9.258   6.347   9.062  0.6239 -0.1505 -0.0793
26182SOL    HW180553   9.351   6.343   9.041  0.4767  0.6032 -0.8853
26182SOL    HW280554   9.236   6.440   9.062 -0.3091 -0.3503 -0.6984
26183SOL     OW80555   7.405  10.951  10.729  0.4693 -0.0513  0.3816
26183SOL    HW180556   7.421  11.026  10.671  1.9217 -0.2173  0.5294
26183SOL    HW280557   7.432  10.875  10.678  2.4901 -0.1397  1.4775
26184SOL     OW80558   4.464   6.284   0.858  0.3880 -0.1135 -0.0851
26184SOL    HW180559   4.518   6.209   0.880  0.3606 -0.5082 -1.2704
26184SOL    HW280560   4.448   6.328   0.941  1.1904 -0.8879  0.4954
26185SOL     OW80561  10.016   1.380   5.493  0.5981 -0.0456  0.2521
26185SOL    HW180562  10.089   1.378   5.432 -0.5150  0.0827 -1.1373
26185SOL    HW280563   9.967   1.299   5.476  0.4702 -0.2024  1.2540
26186SOL     OW80564  10.718   2.443   2.848 -0.1521 -0.0088 -0.1349
26186SOL    HW180565  10.667   2.433   2.768 -1.5719  1.6462  0.5079
26186SOL    HW280566  10.693   2.367   2.901  0.1508 -0.6559 -0.8885
26187SOL     OW80567   5.741   2.721   2.904 -0.0908 -0.0223 -0.5775
26187SOL    HW180568   5.777   2.794   2.855  3.5464 -0.6127  0.9351
26187SOL    HW280569   5.716   2.758   2.988  0.7593 -0.2864 -0.1978
26188SOL     OW80570   0.026   3.584   6.142 -0.2053 -0.0650 -0.9724
26188SOL    HW180571   0.042   3.666   6.095 -0.1564 -0.1383 -1.0818
26188SOL    HW280572   0.101   3.575   6.200 -1.0586  0.8895  0.3422
26189SOL     OW80573   5.524   2.098   6.935  0.0197  0.2049 -0.2782
26189SOL    HW180574   5.440   2.144   6.939  0.3079  0.6731  1.6955
26189SOL    HW280575   5.586   2.163   6.904  0.3286  1.1056  2.0079
26190SOL     OW80576   6.854   6.555   1.061 -0.2358 -0.3424 -0.1939
26190SOL    HW180577   6.938   6.510   1.051  0.2851  0.6753 -0.5896
26190SOL    HW280578   6.820   6.562   0.972  0.5257  1.5286 -0.4005
26191SOL     OW80579   5.006   1.480   4.003  0.1656  0.4615  0.2532
26191SOL    HW180580   5.089   1.434   3.992  0.1086  0.6288 -0.9226
26191SOL    HW280581   4.941   1.410   4.012  0.4033  0.3299  1.0172
26192SOL     OW80582  10.147   2.961   9.376  0.1043  0.2819  0.1013
26192SOL    HW180583  10.154   2.982   9.469 -2.8254  1.1055  0.2557
26192SOL    HW280584  10.145   3.046   9.332  0.1761 -0.0629 -0.5818
26193SOL     OW80585   4.308   8.907   8.798  0.5635 -0.4600  0.2242
26193SOL    HW180586   4.372   8.933   8.732  0.1984  0.1372  0.1067
26193SOL    HW280587   4.271   8.989   8.830  0.6945 -0.7438  1.1331
26194SOL     OW80588   3.733   5.310   7.679  0.0836  0.0061 -0.5709
26194SOL    HW180589   3.662   5.350   7.629 -1.1107 -1.8585 -0.4749
26194SOL    HW280590   3.798   5.285   7.614  0.4348  1.2602 -0.7184
26195SOL     OW80591   5.279   7.990   3.117  0.1151  0.3549  0.2650
26195SOL    HW180592   5.298   7.965   3.208 -1.3777  0.8401  0.7316
26195SOL    HW280593   5.284   7.907   3.068  0.6462  0.0452  0.8350
26196SOL     OW80594   1.785   2.322  10.247  0.2207 -0.3792 -0.3034
26196SOL    HW180595   1.819   2.245  10.201 -0.3991 -0.4538 -0.6503
26196SOL    HW280596   1.717   2.288  10.304  0.5542 -0.1998  0.2055
26197SOL     OW80597   4.055  10.457   9.516 -0.5637  0.2623 -0.0820
26197SOL    HW180598   4.049  10.453   9.421 -0.6818  1.8554 -0.1704
26197SOL    HW280599   3.981  10.512   9.543 -0.2107  0.2878  0.8784
26198SOL     OW80600   7.984   9.533   8.205  0.6656 -0.0924  0.1910
26198SOL    HW180601   7.950   9.622   8.197  0.7579 -0.1234 -0.6309
26198SOL    HW280602   7.973   9.495   8.118  0.2197 -1.0383  0.6416
26199SOL     OW80603   6.884  11.006   7.179 -0.2685  0.2232 -0.4111
26199SOL    HW180604   6.950  11.072   7.201  1.9080 -2.8058  3.4790
26199SOL    HW280605   6.898  10.988   7.086  1.8130  2.3201 -0.5982
26200SOL     OW80606   7.448   8.141   7.725  0.1467  0.0032  0.4703
26200SOL    HW180607   7.468   8.054   7.690  2.1632  0.6878 -0.2434
26200SOL    HW280608   7.531   8.172   7.761 -0.6328  1.4781  1.1040
26201SOL     OW80609   5.646   6.567   9.600  0.7892 -0.1248 -0.1297
26201SOL    HW180610   5.618   6.598   9.514  1.0530  1.3095  0.2711
26201SOL    HW280611   5.742   6.572   9.598  0.9543 -2.3567 -0.5357
26202SOL     OW80612   5.512   6.713   9.385 -0.1836  0.5803  0.1911
26202SOL    HW180613   5.542   6.719   9.294 -0.4294 -0.5130  0.0233
26202SOL    HW280614   5.432   6.660   9.380  0.2541 -0.1856  1.1317
26203SOL     OW80615   0.353   7.754   7.972  0.0298 -0.2223 -0.6008
26203SOL    HW180616   0.319   7.712   8.050  2.1596 -1.3499 -0.1918
26203SOL    HW280617   0.345   7.848   7.989 -2.0092 -0.4198 -0.2341
26204SOL     OW80618   0.109   3.535  10.204  0.2997 -0.2191 -0.0191
26204SOL    HW180619   0.123   3.588  10.283 -0.8546 -1.4657  1.0777
26204SOL    HW280620   0.029   3.571  10.165 -1.2031 -1.8203  1.4036
26205SOL     OW80621   1.243   1.775  10.429  0.2607 -0.2747  0.1033
26205SOL    HW180622   1.227   1.758  10.522 -0.4608  0.4415  0.1215
26205SOL    HW280623   1.168   1.734  10.385  0.2784 -0.0798 -0.1087
26206SOL     OW80624   6.829  10.727   8.487 -0.3147  0.5316  0.2666
26206SOL    HW180625   6.842  10.712   8.393 -0.9936 -0.9344  0.3770
26206SOL    HW280626   6.907  10.689   8.528  0.3343  1.8260  0.2748
26207SOL     OW80627  10.726   7.103   9.934  0.2287  0.3356  0.2110
26207SOL    HW180628  10.760   7.065  10.014 -1.3243  1.0337  1.2588
26207SOL    HW280629  10.660   7.167   9.963  0.2824  1.2980 -1.5809
26208SOL     OW80630   3.039   6.241   9.609 -0.2464  0.5336 -0.4388
26208SOL    HW180631   3.104   6.222   9.676 -3.0766 -3.6511  1.5593
26208SOL    HW280632   2.965   6.279   9.657 -1.2644  0.2076 -1.6773
26209SOL     OW80633   7.425   3.505   3.662  0.3646  0.5703 -0.3315
26209SOL    HW180634   7.460   3.536   3.746  1.3797 -1.0082 -0.1356
26209SOL    HW280635   7.490   3.442   3.631 -0.9780 -0.3652 -1.3245
26210SOL     OW80636   7.694   9.529   2.033  0.8270 -0.3176  0.8184
26210SOL    HW180637   7.712   9.443   1.995  1.6927  0.8536 -1.6708
26210SOL    HW280638   7.761   9.541   2.099  0.2274 -1.8266  1.7511
26211SOL     OW80639   5.246   0.469   4.087  0.0527  0.5219 -0.2869
26211SOL    HW180640   5.151   0.471   4.085 -0.0207  0.9872  1.5323
26211SOL    HW280641   5.268   0.376   4.080 -0.6707  0.1815  1.4054
26212SOL     OW80642  10.519   3.156   6.163 -0.3887  0.0288  0.1767
26212SOL    HW180643  10.593   3.208   6.195  1.2376 -1.8408 -0.2875
26212SOL    HW280644  10.469   3.135   6.242 -0.8345  1.8727  0.4154
26213SOL     OW80645   3.100   2.809   1.595  0.2997  0.4572  0.6729
26213SOL    HW180646   3.153   2.823   1.673 -0.2543  2.1486  0.7889
26213SOL    HW280647   3.026   2.869   1.605 -1.8628 -2.0225  0.6803
26214SOL     OW80648   9.508   7.773   3.946  0.2267  0.2412 -0.5195
26214SOL    HW180649   9.572   7.704   3.931  0.5251  0.4137 -0.0749
26214SOL    HW280650   9.559   7.854   3.947  0.1536  0.3027  0.7166
26215SOL     OW80651   2.283   4.520   7.722  0.3677  0.1647  0.4515
26215SOL    HW180652   2.265   4.531   7.816  1.7736  0.6330  0.6794
26215SOL    HW280653   2.284   4.609   7.688  1.7755  0.1327  0.3726
26216SOL     OW80654   2.868  10.520   6.433 -0.0186 -0.2850 -0.2723
26216SOL    HW180655   2.778  10.524   6.466  0.5277  0.7229  1.1835
26216SOL    HW280656   2.892  10.428   6.444  0.0799 -0.0512  2.1645
26217SOL     OW80657   6.265   7.970   9.886 -0.0092  0.0483  0.6300
26217SOL    HW180658   6.204   7.918   9.833 -1.4880  2.4383 -0.1663
26217SOL    HW280659   6.214   7.995   9.963  0.6837  0.3016  1.0154
26218SOL     OW80660   2.269   1.852   0.475  0.0367 -0.2595 -0.0116
26218SOL    HW180661   2.211   1.840   0.399  0.0293  1.0566 -0.2344
26218SOL    HW280662   2.263   1.769   0.523  0.2336 -1.2064 -1.5738
26219SOL     OW80663   2.816   5.876   0.582 -0.3468 -0.0290 -0.1198
26219SOL    HW180664   2.777   5.962   0.566  0.4111  0.3229 -0.1116
26219SOL    HW280665   2.834   5.842   0.495  1.6516  0.9032 -0.1236
26220SOL     OW80666   6.588   0.778  10.789  0.0575  0.1262  0.1818
26220SOL    HW180667   6.636   0.725  10.725  1.1581 -0.8589  1.7242
26220SOL    HW280668   6.531   0.834  10.737 -1.9163 -3.2100 -1.6104
26221SOL     OW80669   6.687   1.853   6.548 -0.1037  0.1629  0.2499
26221SOL    HW180670   6.728   1.774   6.513 -1.1072  0.2498 -1.2001
26221SOL    HW280671   6.626   1.881   6.480 -1.3743  0.9635  1.6485
26222SOL     OW80672   5.419   6.938   0.074 -0.1703  0.5046  0.1861
26222SOL    HW180673   5.436   7.010   0.012 -0.0384  0.4994  0.2146
26222SOL    HW280674   5.475   6.957   0.149  2.0326 -1.0772 -0.9200
26223SOL     OW80675   7.171   2.013   3.440 -0.1523  0.0894 -0.0676
26223SOL    HW180676   7.258   2.052   3.439 -0.2433  0.2830 -0.5301
26223SOL    HW280677   7.142   2.022   3.531  0.2550  0.1385  0.0613
26224SOL     OW80678   5.939   5.825   7.841 -0.4600  0.0496 -0.2800
26224SOL    HW180679   5.868   5.763   7.822 -1.1209  0.6778  0.0563
26224SOL    HW280680   6.017   5.786   7.802 -0.7918 -1.1535  0.2053
26225SOL     OW80681   3.352   7.490   8.410  0.0977 -0.0293  0.3764
26225SOL    HW180682   3.344   7.428   8.482  0.5880  0.2939  0.7115
26225SOL    HW280683   3.277   7.471   8.353  0.2224 -0.9033  0.4941
26226SOL     OW80684   7.210   6.873   5.915  0.3782  0.0760  0.2520
26226SOL    HW180685   7.302   6.891   5.895  0.4496 -1.5130 -0.9632
26226SOL    HW280686   7.174   6.839   5.834 -1.3611  0.8373  0.6690
26227SOL     OW80687   9.652   3.672   7.943  0.4548  0.0512 -0.0885
26227SOL    HW180688   9.669   3.581   7.921  0.3307 -0.1675  0.6904
26227SOL    HW280689   9.633   3.714   7.859 -1.3197 -1.0449 -0.2865
26228SOL     OW80690   6.094   4.760   0.539 -0.0182  0.3564 -0.2940
26228SOL    HW180691   6.138   4.692   0.489  2.3286  0.7629  1.0474
26228SOL    HW280692   6.158   4.787   0.605 -0.9033  3.6860 -0.5834
26229SOL     OW80693   6.138   7.000   3.230 -0.4932  0.2031  0.0346
26229SOL    HW180694   6.075   6.944   3.276 -2.0051  2.7676  1.3347
26229SOL    HW280695   6.214   7.002   3.289 -0.6406 -0.0563  0.2395
26230SOL     OW80696   8.249   5.081   7.791  0.2059 -0.3153 -0.2139
26230SOL    HW180697   8.251   5.154   7.730 -1.9066 -0.8853 -1.0315
26230SOL    HW280698   8.226   5.120   7.875  0.1673  0.0982 -0.4151
26231SOL     OW80699   7.367   6.647  10.403 -0.1019 -0.0660 -0.4914
26231SOL    HW180700   7.367   6.552  10.416  0.1639  0.1778  1.7176
26231SOL    HW280701   7.442   6.678  10.454  0.4102  1.2648 -1.9799
26232SOL     OW80702  10.349   3.242   8.216 -0.6860 -0.5870 -0.1529
26232SOL    HW180703  10.414   3.192   8.264 -0.6584 -0.1769  0.2454
26232SOL    HW280704  10.284   3.267   8.282  0.7246  2.3253  0.3137
26233SOL     OW80705   8.252   6.366   9.509 -0.4372  0.1550  0.2417
26233SOL    HW180706   8.268   6.357   9.603 -0.4432  1.6424  0.4091
26233SOL    HW280707   8.202   6.288   9.485  0.4739 -0.7621  1.2463
26234SOL     OW80708   1.445   6.025   1.926 -0.1281 -0.1548 -0.2375
26234SOL    HW180709   1.512   6.014   1.859 -1.3303 -0.5781 -1.4261
26234SOL    HW280710   1.435   5.938   1.965 -0.9402 -0.4329 -1.0329
26235SOL     OW80711   5.956   7.486   8.828 -0.4845 -0.6007  0.0192
26235SOL    HW180712   5.871   7.463   8.791  0.6474 -0.2870 -3.0609
26235SOL    HW280713   5.988   7.405   8.868 -1.7415 -0.9962  0.2615
26236SOL     OW80714   7.015  10.120   9.652  0.6619  0.0986 -0.2778
26236SOL    HW180715   7.094  10.147   9.699 -0.5936  2.3012  0.7311
26236SOL    HW280716   6.993  10.195   9.596 -1.1072 -0.1292  0.0440
26237SOL     OW80717   7.337   1.174   7.099  0.0922  0.1727  0.3257
26237SOL    HW180718   7.410   1.163   7.039 -0.6051  0.1006 -0.5272
26237SOL    HW280719   7.331   1.091   7.147  1.5129  0.7146  1.5027
26238SOL     OW80720  10.596   9.339   6.118 -0.4050 -0.0802 -0.5931
26238SOL    HW180721  10.629   9.323   6.206 -1.2848 -2.0886 -0.5625
26238SOL    HW280722  10.507   9.373   6.131  0.0596  1.2425 -0.7207
26239SOL     OW80723   8.502   8.649   6.245 -0.3980  0.2875  0.0042
26239SOL    HW180724   8.457   8.660   6.161  0.9883  0.5909 -0.7359
26239SOL    HW280725   8.543   8.734   6.262  2.0685 -0.6610 -0.7024
26240SOL     OW80726   6.277   9.976   8.603 -0.6282  0.3904 -0.3209
26240SOL    HW180727   6.323  10.040   8.657 -1.1088 -1.6912  2.8495
26240SOL    HW280728   6.345   9.919   8.569 -0.3357  1.6090 -1.8636
26241SOL     OW80729   8.826   0.306   5.264 -0.0726 -0.1020  0.0657
26241SOL    HW180730   8.879   0.330   5.340 -0.1285 -1.3808  0.5308
26241SOL    HW280731   8.763   0.242   5.298  0.1611 -1.0037 -1.1389
26242SOL     OW80732   3.734   4.416   2.111  0.2490  0.2910  0.5215
26242SOL    HW180733   3.769   4.448   2.028  1.0272  2.5497  1.6297
26242SOL    HW280734   3.756   4.323   2.112 -1.4734 -0.2902 -2.5868
26243SOL     OW80735   9.582   3.907   2.486 -0.3152 -0.2269 -0.4181
26243SOL    HW180736   9.658   3.856   2.457  0.3061 -0.0017  0.7463
26243SOL    HW280737   9.560   3.870   2.571 -0.9014  0.3594 -0.3114
26244SOL     OW80738   5.379   6.741   6.773 -0.7812 -0.3373 -0.2221
26244SOL    HW180739   5.395   6.821   6.722 -1.7044  1.1243  1.6360
26244SOL    HW280740   5.336   6.682   6.711  0.6240  0.2586 -1.8755
26245SOL     OW80741   4.563   2.713   6.474  0.1260 -0.0325  0.1764
26245SOL    HW180742   4.489   2.769   6.452  0.1763 -0.0623 -0.0670
26245SOL    HW280743   4.541   2.628   6.436 -0.4386 -0.4680  1.4334
26246SOL     OW80744   9.052   3.064   0.263 -0.1878  0.3598 -0.1856
26246SOL    HW180745   9.144   3.077   0.286 -0.1921 -0.1702  0.1379
26246SOL    HW280746   9.004   3.084   0.343 -0.0977 -3.2153  0.9473
26247SOL     OW80747   6.407   8.882  10.253 -0.0886 -0.1962  0.0908
26247SOL    HW180748   6.334   8.879  10.191  0.5035  1.9237 -0.8034
26247SOL    HW280749   6.455   8.961  10.229  2.6488 -1.6045  0.5097
26248SOL     OW80750   6.388   1.125   5.020  0.3400 -0.2691  0.4236
26248SOL    HW180751   6.457   1.186   5.047  0.9721 -1.1398  0.8060
26248SOL    HW280752   6.422   1.039   5.041 -0.4397 -0.7853 -0.3476
26249SOL     OW80753   1.080   4.736   8.463  0.4070 -0.0970  0.0176
26249SOL    HW180754   1.134   4.775   8.394  0.3201  1.1209  0.6241
26249SOL    HW280755   1.099   4.787   8.541 -0.6531 -0.4756  0.5418
26250SOL     OW80756   5.371   4.883   8.340 -0.2614 -0.1735  0.5462
26250SOL    HW180757   5.426   4.908   8.266 -0.2850  0.6864  0.8036
26250SOL    HW280758   5.282   4.896   8.309 -0.3283 -1.4402  0.1730
26251SOL     OW80759   0.210   1.215   5.448 -0.1875 -0.7390 -0.0124
26251SOL    HW180760   0.128   1.201   5.495 -0.2903 -0.7663 -0.1985
26251SOL    HW280761   0.207   1.152   5.376 -1.2864  1.1010 -1.6928
26252SOL     OW80762   7.773  10.782   5.266 -0.5142  0.3030 -0.5856
26252SOL    HW180763   7.697  10.805   5.319 -0.0087 -2.3410  1.5332
26252SOL    HW280764   7.747  10.703   5.219  0.6192 -0.1150 -0.5433
26253SOL     OW80765   0.707   3.449   7.135 -0.1694  0.6904 -0.3219
26253SOL    HW180766   0.693   3.368   7.184 -0.0908 -0.6297 -2.3217
26253SOL    HW280767   0.619   3.487   7.126 -0.6053 -0.4411 -1.3035
26254SOL     OW80768   8.335   6.009   7.118 -0.7250 -0.0284 -0.2233
26254SOL    HW180769   8.331   5.939   7.053 -1.0350  1.0841 -1.4587
26254SOL    HW280770   8.327   5.965   7.202 -2.2501 -1.3764 -1.0156
26255SOL     OW80771   7.852   7.019   6.758  0.3480  0.0864  0.2557
26255SOL    HW180772   7.812   6.943   6.716  1.8724 -0.5008 -0.2044
26255SOL    HW280773   7.778   7.072   6.787 -0.7479 -1.2246 -0.0358
26256SOL     OW80774  10.700   4.710   1.171  0.1918  0.3621 -0.1457
26256SOL    HW180775  10.770   4.761   1.130  0.6020 -0.0969 -0.0329
26256SOL    HW280776  10.746   4.637   1.213 -0.3807 -0.0889 -0.2966
26257SOL     OW80777   6.498   5.026   9.949  1.1555  0.1699 -0.1985
26257SOL    HW180778   6.425   5.029  10.012 -0.1573 -1.4870 -1.5383
26257SOL    HW280779   6.575   5.046  10.002 -0.1191  0.7750  1.5413
26258SOL     OW80780   2.396   1.994   8.114 -0.6487  0.0237  0.2140
26258SOL    HW180781   2.429   2.083   8.103  0.7676 -0.3871  0.8825
26258SOL    HW280782   2.331   2.001   8.184 -3.5193  1.1696 -2.3470
26259SOL     OW80783   3.901  10.661   4.014  0.0173 -0.0368 -0.3510
26259SOL    HW180784   3.973  10.677   3.953  0.4718 -0.2022  0.1405
26259SOL    HW280785   3.856  10.745   4.021  0.9789  0.4162  0.3970
26260SOL     OW80786  11.097   2.166   7.854 -0.0486 -0.4287 -0.1356
26260SOL    HW180787  11.077   2.082   7.894 -2.1409 -0.1633 -0.5364
26260SOL    HW280788  11.112   2.225   7.928  3.2847 -1.4275  0.1903
26261SOL     OW80789   0.407   1.175   8.833 -0.8090  0.0037 -0.2458
26261SOL    HW180790   0.407   1.084   8.805  1.0240 -0.8664  2.2542
26261SOL    HW280791   0.353   1.177   8.912  0.4007  0.7438  0.5909
26262SOL     OW80792  10.219   7.109  10.277  0.0612  0.2487 -0.1731
26262SOL    HW180793  10.309   7.089  10.306  0.7368 -0.0672 -2.3213
26262SOL    HW280794  10.228   7.189  10.226 -1.1358  0.9202  0.6155
26263SOL     OW80795  10.867   6.976   6.760  0.5146 -0.1838 -0.6262
26263SOL    HW180796  10.775   6.983   6.784  0.6243  1.4693 -0.6053
26263SOL    HW280797  10.874   7.024   6.677  1.1341 -1.3643 -1.2908
26264SOL     OW80798  10.301   9.288   8.991 -0.0407 -0.0273 -0.3420
26264SOL    HW180799  10.267   9.373   8.961  0.1397 -0.1251 -0.8342
26264SOL    HW280800  10.310   9.236   8.911 -1.6137 -1.0594  0.0919
26265SOL     OW80801   6.380   7.480   6.555  0.0808  0.0683 -0.0596
26265SOL    HW180802   6.451   7.511   6.610  0.3299  0.5788 -0.6503
26265SOL    HW280803   6.349   7.558   6.509 -1.4127  0.0166  0.7797
26266SOL     OW80804   1.960  10.905   4.851  0.2008  0.3256  0.3732
26266SOL    HW180805   1.902  10.907   4.775 -0.4067  0.7472  0.8392
26266SOL    HW280806   1.948  10.817   4.889 -0.7588  0.6840  0.9336
26267SOL     OW80807   8.492   2.829   7.402  0.4453 -0.4269  0.4929
26267SOL    HW180808   8.430   2.849   7.472 -0.2893 -0.2078 -0.2109
26267SOL    HW280809   8.471   2.891   7.332  0.9007 -0.9116 -0.0897
26268SOL     OW80810   9.859   6.616   7.298  0.0499  0.2130 -0.7212
26268SOL    HW180811   9.828   6.526   7.313 -1.5073  0.9267  0.7340
26268SOL    HW280812   9.953   6.607   7.283 -0.2939 -1.7900 -2.0543
26269SOL     OW80813   2.489   9.143   9.301  0.0474  0.6362 -0.3343
26269SOL    HW180814   2.400   9.108   9.300 -0.6143  2.0433 -3.2161
26269SOL    HW280815   2.482   9.225   9.350  0.0733  0.0944  0.5867
26270SOL     OW80816   5.969   1.131   8.617 -0.9275  0.4918  0.4968
26270SOL    HW180817   6.033   1.181   8.565  0.5427 -0.9644  0.8388
26270SOL    HW280818   5.908   1.096   8.552 -0.3158  0.3904 -0.0339
26271SOL     OW80819   6.502   5.278   9.380 -0.1858 -0.0832  0.4983
26271SOL    HW180820   6.427   5.224   9.353 -0.6518  0.3548  0.8915
26271SOL    HW280821   6.468   5.330   9.453  0.3278  0.5648  0.2798
26272SOL     OW80822   9.865   0.423   9.140  0.4701 -0.5222 -0.1867
26272SOL    HW180823   9.942   0.478   9.130 -0.5332  0.9957  0.1123
26272SOL    HW280824   9.795   0.484   9.163 -0.3998 -2.0963  1.5341
26273SOL     OW80825   7.332   6.170  10.765 -0.4113  0.2466 -0.3230
26273SOL    HW180826   7.305   6.254  10.726  0.2210  0.9006  0.6018
26273SOL    HW280827   7.412   6.147  10.718  0.4758  1.1485  0.6892
26274SOL     OW80828   9.925   5.764  10.705  0.1912 -0.6975  0.0346
26274SOL    HW180829   9.853   5.821  10.733 -0.2223 -1.6311  0.9219
26274SOL    HW280830   9.893   5.675  10.719  0.8907 -1.1726 -1.1733
26275SOL     OW80831  10.959   9.636   9.878 -0.2652  0.2414  0.2420
26275SOL    HW180832  10.961   9.549   9.916  0.7696 -0.4881 -1.3612
26275SOL    HW280833  10.867   9.660   9.877 -0.4289 -0.1745  2.0591
26276SOL     OW80834   8.444   6.832   7.227 -0.0349  0.0082  0.7857
26276SOL    HW180835   8.442   6.924   7.255 -0.5575 -0.2291  1.5795
26276SOL    HW280836   8.511   6.792   7.283  0.3768 -0.0544  0.2631
26277SOL     OW80837   9.940   8.579   8.656 -0.0926 -0.4324 -0.2145
26277SOL    HW180838   9.995   8.635   8.601 -0.2166  0.1956  0.2992
26277SOL    HW280839   9.969   8.596   8.745 -1.0649 -0.1464  0.0576
26278SOL     OW80840   6.943   4.316   8.234 -0.0184 -0.3344 -0.5647
26278SOL    HW180841   6.919   4.264   8.311 -0.5469  1.1738  0.3246
26278SOL    HW280842   6.879   4.291   8.167 -1.7890  0.8941  0.6050
26279SOL     OW80843  10.620  11.043   8.776 -0.4752  0.0996  0.3444
26279SOL    HW180844  10.568  11.066   8.699  0.7665 -1.0892 -0.8809
26279SOL    HW280845  10.661  11.125   8.802  0.1628  0.2541 -1.0926
26280SOL     OW80846   8.791   4.925   6.912  0.0926  0.5518 -0.1607
26280SOL    HW180847   8.837   4.929   6.828  0.9943 -1.6618  0.1724
26280SOL    HW280848   8.854   4.957   6.976  0.8480 -1.4008  0.1393
26281SOL     OW80849   1.226   9.172   6.198  0.7637  0.0015  0.5490
26281SOL    HW180850   1.134   9.147   6.210  0.1994  1.8573  0.3599
26281SOL    HW280851   1.254   9.124   6.120 -0.8347  1.3085 -0.8988
26282SOL     OW80852   1.268   7.698   0.172 -0.7085  0.0990 -0.5988
26282SOL    HW180853   1.201   7.766   0.165  0.3610  1.3678  0.7648
26282SOL    HW280854   1.340   7.741   0.219  0.4422 -1.6689 -0.6768
26283SOL     OW80855   7.816   4.130   3.210 -0.2862 -0.1622  0.1275
26283SOL    HW180856   7.864   4.107   3.130 -0.2020  2.3064 -0.6130
26283SOL    HW280857   7.781   4.217   3.192  0.9603  1.1368  3.3043
26284SOL     OW80858   2.911   7.463   7.698 -0.3112 -0.4268 -0.0177
26284SOL    HW180859   2.958   7.508   7.769 -1.1302 -0.5293  0.6085
26284SOL    HW280860   2.980   7.421   7.647  0.4443  1.1672 -0.3688
26285SOL     OW80861   0.549   7.088   0.746 -0.5490  0.5908 -0.1229
26285SOL    HW180862   0.585   7.028   0.811 -1.4480  2.1321  1.9015
26285SOL    HW280863   0.576   7.051   0.662  0.6270 -1.5105  1.0921
26286SOL     OW80864   5.593   9.376   6.771 -0.4747  0.2350 -0.4098
26286SOL    HW180865   5.610   9.282   6.763 -1.0877 -0.0242  0.9842
26286SOL    HW280866   5.513   9.390   6.719 -1.1479 -0.2954  0.4449
26287SOL     OW80867   6.400   7.642   2.330  0.0138  0.0634  0.4561
26287SOL    HW180868   6.391   7.632   2.425 -0.6897  2.1639  0.6571
26287SOL    HW280869   6.374   7.733   2.313 -0.0766 -0.3337 -1.7765
26288SOL     OW80870   7.619   9.625  10.688 -0.8248 -0.2101  0.0531
26288SOL    HW180871   7.688   9.591  10.631 -0.3466  1.5493 -0.4488
26288SOL    HW280872   7.541   9.628  10.632 -0.4551  1.1213 -0.4102
26289SOL     OW80873   6.688   4.075   7.651  0.1748  0.5798  0.6485
26289SOL    HW180874   6.731   4.081   7.566 -0.8897 -2.5122 -0.2451
26289SOL    HW280875   6.749   4.027   7.707 -0.3229 -0.0273  0.6865
26290SOL     OW80876  10.856   7.151   4.207  0.7735  0.6719  0.0313
26290SOL    HW180877  10.831   7.241   4.188  2.0912  1.1609  0.4508
26290SOL    HW280878  10.811   7.131   4.289  0.6712  1.0386  0.0695
26291SOL     OW80879   5.714  10.851  10.902  0.4120 -0.0429  0.0794
26291SOL    HW180880   5.796  10.838  10.855  1.7251  3.6654  1.0486
26291SOL    HW280881   5.680  10.934  10.869 -1.8587 -0.4085  1.3000
26292SOL     OW80882   4.423   6.243   2.719  0.3769 -0.6964  0.1707
26292SOL    HW180883   4.497   6.201   2.764 -1.9939 -2.9997  2.2666
26292SOL    HW280884   4.379   6.172   2.673 -1.2671  0.3548  0.0422
26293SOL     OW80885   6.649   6.208   7.135  0.0474 -0.4494 -0.3974
26293SOL    HW180886   6.568   6.213   7.083 -1.2226 -0.9320  1.4177
26293SOL    HW280887   6.623   6.240   7.222  1.9227 -0.2715  0.1255
26294SOL     OW80888   5.747   8.145   3.649 -0.0478 -0.1252  0.1158
26294SOL    HW180889   5.836   8.161   3.617 -0.0808  0.1351  0.1561
26294SOL    HW280890   5.742   8.192   3.731 -0.3939  0.2907 -0.1435
26295SOL     OW80891   1.612   4.180   1.078 -0.0209  0.4563 -0.1322
26295SOL    HW180892   1.544   4.170   1.145  0.1675 -0.4489 -0.0641
26295SOL    HW280893   1.575   4.244   1.017 -1.7172 -1.2594 -1.0183
26296SOL     OW80894   9.501   6.103   5.962  0.7953  0.1279 -0.3731
26296SOL    HW180895   9.479   6.089   6.054  2.1764  0.0877 -0.0172
26296SOL    HW280896   9.522   6.196   5.956  2.5191 -0.2142 -0.1982
26297SOL     OW80897   7.727   6.870   9.528 -0.7903 -0.4422 -0.8725
26297SOL    HW180898   7.771   6.854   9.444 -1.0729  0.0304 -1.1162
26297SOL    HW280899   7.671   6.946   9.511  0.1055  0.4618  0.1033
26298SOL     OW80900   8.422  11.074   8.031  0.3544  0.2604 -0.3171
26298SOL    HW180901   8.416  11.041   8.121  0.0339  0.8454 -0.1202
26298SOL    HW280902   8.500  11.130   8.031  0.3443  0.2739 -0.3996
26299SOL     OW80903   9.118   2.114   5.788  0.3587  0.3331  0.1004
26299SOL    HW180904   9.161   2.145   5.708 -0.6744  1.8054  0.0631
26299SOL    HW280905   9.105   2.194   5.840  1.4836 -0.6629  1.9887
26300SOL     OW80906   8.109  10.281   7.849 -0.5001 -0.3256 -0.6961
26300SOL    HW180907   8.063  10.331   7.782 -1.6467  0.2244  0.4831
26300SOL    HW280908   8.188  10.333   7.868 -0.1214 -0.5300 -1.6568
26301SOL     OW80909   1.910   7.744   8.841 -0.4519 -0.0218  0.3799
26301SOL    HW180910   1.967   7.733   8.765 -2.1333 -0.0196 -0.9495
26301SOL    HW280911   1.966   7.726   8.916  1.4885  0.7838 -0.8003
26302SOL     OW80912   0.124  10.254   8.707 -0.1882 -0.5723  0.2940
26302SOL    HW180913   0.134  10.177   8.762  0.9896 -1.0869 -0.5945
26302SOL    HW280914   0.077  10.317   8.761  1.4110 -0.8602  2.0975
26303SOL     OW80915   7.042   8.928   7.414  0.2760  0.1279  0.0768
26303SOL    HW180916   6.968   8.920   7.354  0.9067  0.3673 -0.7554
26303SOL    HW280917   7.108   8.869   7.379  0.1906 -0.7091  1.2797
26304SOL     OW80918   0.326  10.543  10.489  0.2699  0.0126 -0.0712
26304SOL    HW180919   0.330  10.620  10.432  0.8685 -1.4990 -2.2394
26304SOL    HW280920   0.234  10.519  10.491  0.1936  0.2973 -0.0628
26305SOL     OW80921   9.884   1.479   9.093  0.0747  0.2056  0.0418
26305SOL    HW180922   9.847   1.407   9.042 -1.6787  0.4045  0.9453
26305SOL    HW280923   9.810   1.513   9.143  0.9774  2.2541  0.0993
26306SOL     OW80924   8.118   8.654   8.493  0.0439  0.5499  0.3960
26306SOL    HW180925   8.078   8.606   8.420  0.5415  0.6130  0.0771
26306SOL    HW280926   8.100   8.600   8.570  1.8108 -0.9135 -0.1510
26307SOL     OW80927   8.256   9.172   1.031 -0.0748 -0.2680  0.2350
26307SOL    HW180928   8.246   9.181   0.936 -0.9007 -0.1677  0.3267
26307SOL    HW280929   8.339   9.124   1.042 -0.5038 -1.2222 -0.5638
26308SOL     OW80930   7.644  10.705   6.395  0.1587 -0.2165 -0.1319
26308SOL    HW180931   7.604  10.716   6.481  2.1017  0.8236  0.7093
26308SOL    HW280932   7.737  10.690   6.413  1.0903  2.4065 -2.0314
26309SOL     OW80933   9.476   4.211   0.253  0.9720  0.0462  0.0056
26309SOL    HW180934   9.506   4.163   0.176 -1.6355 -0.3545 -0.8649
26309SOL    HW280935   9.409   4.271   0.220  0.3214  0.3929  1.8267
26310SOL     OW80936   4.724   4.940   5.823  0.0705  0.2934 -0.1728
26310SOL    HW180937   4.784   4.985   5.883 -2.0581  0.8484  1.6699
26310SOL    HW280938   4.681   5.011   5.775  0.6331 -0.0859 -1.2665
26311SOL     OW80939   9.574   9.578   3.730 -0.6047  0.1787  0.4549
26311SOL    HW180940   9.500   9.588   3.670 -1.3048 -1.3277  0.9944
26311SOL    HW280941   9.559   9.642   3.798 -0.8323  0.6108  0.0028
26312SOL     OW80942   5.167   2.753   5.877 -0.1722 -0.0468  0.1513
26312SOL    HW180943   5.199   2.785   5.961  1.4649 -2.6083  0.6043
26312SOL    HW280944   5.078   2.722   5.895  0.3735 -1.1206  1.1362
26313SOL     OW80945   2.646   0.558   7.579  0.0774  0.3545  0.0810
26313SOL    HW180946   2.620   0.575   7.670 -0.4309  4.1166 -0.5639
26313SOL    HW280947   2.740   0.577   7.577 -0.2384  2.1031 -0.4094
26314SOL     OW80948   7.118   3.416   6.921 -0.3019  0.2328 -0.9008
26314SOL    HW180949   7.042   3.473   6.927  0.2682  0.8857  0.6153
26314SOL    HW280950   7.140   3.414   6.827 -1.1674  1.3635 -1.1393
26315SOL     OW80951   5.879   8.954  10.010  0.6531 -0.3098  0.2547
26315SOL    HW180952   5.938   9.011   9.960 -1.4067  0.8477 -0.9682
26315SOL    HW280953   5.827   9.014  10.063 -2.3635 -0.8035 -1.8937
26316SOL     OW80954   9.187   0.153   4.859  0.3441  0.4065 -0.3964
26316SOL    HW180955   9.269   0.183   4.820 -0.2597  1.4429 -0.9180
26316SOL    HW280956   9.180   0.203   4.941  0.4281  0.0232 -0.1548
26317SOL     OW80957   6.604   8.139   6.460 -0.0663 -0.4941  0.2672
26317SOL    HW180958   6.667   8.210   6.470  0.6430 -0.7441 -1.8429
26317SOL    HW280959   6.519   8.180   6.478  0.4615  0.4826  0.6228
26318SOL     OW80960   4.181   6.808   8.554  0.3225 -0.1168  0.0457
26318SOL    HW180961   4.130   6.772   8.481  1.7242 -0.5113 -0.7724
26318SOL    HW280962   4.262   6.757   8.554  1.3314  1.4168  0.4009
26319SOL     OW80963   2.890   2.002   4.290 -0.3085 -0.4749  0.0900
26319SOL    HW180964   2.857   1.947   4.362 -0.1219 -0.3332  0.2863
26319SOL    HW280965   2.967   1.955   4.259  1.1799  0.7480  1.7148
26320SOL     OW80966   3.783   7.951   7.403 -0.8199 -0.1853 -0.5040
26320SOL    HW180967   3.739   8.036   7.413 -0.2917  0.1643 -1.0715
26320SOL    HW280968   3.826   7.957   7.317 -0.0430 -0.6854 -0.1572
26321SOL     OW80969   4.702   6.895   1.475  0.3955  0.0421 -0.1144
26321SOL    HW180970   4.720   6.801   1.477  0.6584  0.0646 -1.2234
26321SOL    HW280971   4.607   6.902   1.485  0.4627 -0.2793  0.9689
26322SOL     OW80972   9.894   3.660   7.677  0.1326  0.3072  0.2226
26322SOL    HW180973   9.844   3.714   7.738  1.1027  0.3266  1.0352
26322SOL    HW280974   9.978   3.704   7.669  1.6174 -1.9060  2.2771
26323SOL     OW80975   6.011   2.390   3.984 -0.3360  0.4897 -0.5634
26323SOL    HW180976   6.007   2.295   3.976  1.5642  0.3363 -0.1762
26323SOL    HW280977   6.074   2.417   3.918  0.9561  1.1985  0.8978
26324SOL     OW80978  10.820   4.323   0.128  0.0244  0.3329  0.0450
26324SOL    HW180979  10.833   4.237   0.168  0.2082  0.6737  0.7447
26324SOL    HW280980  10.776   4.375   0.196 -0.1103  0.7854 -0.3761
26325SOL     OW80981   1.947   1.861   0.393 -0.1418 -0.3559 -0.0615
26325SOL    HW180982   1.992   1.792   0.345  1.4403  0.8627 -0.4174
26325SOL    HW280983   1.938   1.933   0.330 -0.6521  0.2132  0.6382
26326SOL     OW80984   9.776   0.836   1.228  0.6265 -0.0542  0.5621
26326SOL    HW180985   9.810   0.846   1.317  1.9596 -0.5343  0.1212
26326SOL    HW280986   9.833   0.890   1.174  0.5097 -0.6435 -0.1600
26327SOL     OW80987   2.989   9.360   9.839  0.0969 -0.0982  0.5272
26327SOL    HW180988   2.901   9.366   9.876 -0.3194 -1.9310 -0.0644
26327SOL    HW280989   2.981   9.299   9.766  1.5584  0.9332 -0.5690
26328SOL     OW80990  10.024   4.894   8.194  0.1806 -0.4368  0.4601
26328SOL    HW180991  10.052   4.802   8.198  1.7555 -0.1588 -1.9399
26328SOL    HW280992   9.929   4.889   8.184  0.0560 -1.7081  1.8715
26329SOL     OW80993   6.284   7.358   2.607  0.3644 -0.0117  0.2824
26329SOL    HW180994   6.250   7.284   2.656 -0.7596 -0.6639 -1.3726
26329SOL    HW280995   6.343   7.319   2.542  2.6643  0.9168  1.7154
26330SOL     OW80996   0.430   8.860   4.944 -0.1840  0.0048  0.0937
26330SOL    HW180997   0.376   8.937   4.927 -0.2456 -0.3975 -1.7252
26330SOL    HW280998   0.507   8.894   4.990 -1.3240  0.7677  1.5311
26331SOL     OW80999   2.153   2.282   9.089 -0.2726  0.3383 -0.2628
26331SOL    HW181000   2.142   2.377   9.089  0.0911  0.4070 -1.5863
26331SOL    HW281001   2.194   2.263   9.004 -1.5208 -1.1327 -0.5703
26332SOL     OW81002   8.133   6.510  11.014  0.0053 -0.0796 -0.0612
26332SOL    HW181003   8.136   6.605  11.024 -0.7918 -0.1976  1.6463
26332SOL    HW281004   8.214   6.488  10.967 -0.1162  1.4847 -1.0497
26333SOL     OW81005   6.807   7.818   3.838  0.5230 -0.6448  0.1798
26333SOL    HW181006   6.750   7.800   3.913  0.7725 -0.2522  0.4670
26333SOL    HW281007   6.808   7.736   3.789 -0.7261 -0.5100 -0.1262
26334SOL     OW81008   2.480   6.984   2.108  0.0971  0.2480  0.2482
26334SOL    HW181009   2.474   7.038   2.187  1.2080 -0.9561  1.1941
26334SOL    HW281010   2.494   6.895   2.140  0.3037 -0.3132 -1.3035
26335SOL     OW81011   2.119   6.762   5.468 -0.2512  0.5687  0.5150
26335SOL    HW181012   2.093   6.784   5.558  0.3659 -1.1307  1.1508
26335SOL    HW281013   2.213   6.779   5.466 -0.0471 -0.4973  0.5639
26336SOL     OW81014   4.046   0.173   9.077  0.3424 -0.3836 -0.1299
26336SOL    HW181015   3.950   0.172   9.078  0.2725  1.4480 -0.3564
26336SOL    HW281016   4.070   0.100   9.020 -0.9784 -0.1377 -1.0664
26337SOL     OW81017   8.536   8.487   2.730  0.0511  0.2290  0.4256
26337SOL    HW181018   8.462   8.518   2.679 -0.3902  0.5367  1.2331
26337SOL    HW281019   8.579   8.422   2.675 -1.1136 -0.3229  0.1622
26338SOL     OW81020   8.577   0.113   4.254 -1.1463  0.2360 -0.4812
26338SOL    HW181021   8.653   0.070   4.213 -1.1855 -2.9543  2.3796
26338SOL    HW281022   8.502   0.083   4.202 -0.7126  1.8994 -2.1740
26339SOL     OW81023   8.605   1.810   5.595  0.3959 -0.1027  0.1740
26339SOL    HW181024   8.642   1.741   5.650 -0.9264 -2.3950 -1.6386
26339SOL    HW281025   8.671   1.823   5.526 -0.0907 -0.8600 -0.4552
26340SOL     OW81026   4.693   9.261  10.791  0.9164  0.3890 -0.4791
26340SOL    HW181027   4.679   9.249  10.885 -1.6798  0.5409 -0.7547
26340SOL    HW281028   4.651   9.345  10.772  3.3292  1.4519 -1.4671
26341SOL     OW81029  10.671  10.277   6.839  0.2064 -0.1326  0.0023
26341SOL    HW181030  10.637  10.249   6.923 -0.5935  2.5666  0.6551
26341SOL    HW281031  10.598  10.319   6.795  0.3408 -2.2115 -2.5204
26342SOL     OW81032  10.338   1.006   1.381 -0.0203  0.7148 -0.7194
26342SOL    HW181033  10.348   0.997   1.286  1.4552 -3.2091 -0.3842
26342SOL    HW281034  10.427   0.998   1.415 -0.7588 -0.6195  1.0600
26343SOL     OW81035  10.639   3.230   9.869 -0.5406 -0.3389  0.2013
26343SOL    HW181036  10.644   3.276   9.952  1.8946  1.0544 -0.6136
26343SOL    HW281037  10.669   3.142   9.888  0.6680  0.1656  0.7087
26344SOL     OW81038   8.894   5.855   6.333  0.7090  0.4186  0.4819
26344SOL    HW181039   8.817   5.855   6.391 -0.7266  0.3423 -1.3368
26344SOL    HW281040   8.967   5.831   6.390 -0.8960 -1.3966  1.9207
26345SOL     OW81041   8.485   0.978   4.109 -0.3614 -0.0918  0.2723
26345SOL    HW181042   8.548   0.944   4.044 -0.6811  1.4310 -0.8860
26345SOL    HW281043   8.512   1.069   4.122 -1.1952  0.0271  1.2084
26346SOL     OW81044   7.046  10.859   0.403 -0.1407  0.1123  0.2554
26346SOL    HW181045   7.074  10.820   0.486 -2.7553 -0.7842  0.7838
26346SOL    HW281046   7.073  10.796   0.337  1.4057  0.5406  0.4370
26347SOL     OW81047   7.165   5.700   9.360  0.1597  0.1494 -0.0132
26347SOL    HW181048   7.125   5.636   9.301  0.0727  0.2819 -0.0998
26347SOL    HW281049   7.144   5.668   9.448 -0.2442  0.2812 -0.0569
26348SOL     OW81050   3.885   2.624   7.527 -0.6823 -0.2861 -0.3567
26348SOL    HW181051   3.855   2.546   7.480  0.1068 -0.9677  0.2467
26348SOL    HW281052   3.956   2.659   7.472 -0.8394 -0.1496 -0.4765
26349SOL     OW81053   4.353   5.422   4.610 -0.3228  0.0698  0.1928
26349SOL    HW181054   4.359   5.380   4.696 -0.7082  0.7876  0.5728
26349SOL    HW281055   4.413   5.497   4.615 -0.4545  0.1977 -0.1157
26350SOL     OW81056   7.034   2.628   0.093 -0.0085  0.5908 -0.0082
26350SOL    HW181057   6.980   2.567   0.042  0.2811  1.1600 -1.0401
26350SOL    HW281058   7.105   2.575   0.128 -0.0788  0.2186 -0.4139
26351SOL     OW81059   6.845   2.473   9.342 -0.0953 -0.7059 -0.6415
26351SOL    HW181060   6.888   2.483   9.427  0.0430  2.2857 -0.9625
26351SOL    HW281061   6.773   2.412   9.359  0.3276 -0.6994  1.4658
26352SOL     OW81062   8.370   7.687   9.371  0.4050 -0.3780 -0.3174
26352SOL    HW181063   8.357   7.593   9.384  0.7427 -0.4386 -0.4025
26352SOL    HW281064   8.447   7.707   9.424 -0.6379  0.1786  1.0582
26353SOL     OW81065   5.823   5.510   7.878  0.3880  0.3868  0.7410
26353SOL    HW181066   5.758   5.580   7.873  0.8548  0.8005  0.3843
26353SOL    HW281067   5.856   5.513   7.968 -0.0546  0.1969  0.9136
26354SOL     OW81068   2.147   8.312   1.300 -0.1068  0.4305  0.4827
26354SOL    HW181069   2.221   8.292   1.244  0.9962  0.7749  1.7730
26354SOL    HW281070   2.136   8.234   1.354 -1.6869 -0.2283 -0.7024
26355SOL     OW81071   9.602   5.230   0.771  0.5684  0.0726 -0.4498
26355SOL    HW181072   9.680   5.280   0.749  0.2026  0.2758 -1.3659
26355SOL    HW281073   9.530   5.283   0.735  0.0103 -0.0837  0.4245
26356SOL     OW81074   8.113   5.192   0.545 -0.4104  0.2368 -0.0136
26356SOL    HW181075   8.110   5.102   0.513 -1.6907 -0.1557  1.1104
26356SOL    HW281076   8.088   5.245   0.469  2.6070 -0.0819 -1.3709
26357SOL     OW81077   2.091   3.798   6.990  0.3263  0.2668  0.1185
26357SOL    HW181078   2.026   3.832   7.051 -1.6953  0.5639 -2.0723
26357SOL    HW281079   2.123   3.874   6.942  1.0300 -0.0883  0.0025
26358SOL     OW81080   3.367   7.108   7.593  0.4236  0.4987 -0.4432
26358SOL    HW181081   3.339   7.141   7.679 -1.1992  0.4262 -0.9077
26358SOL    HW281082   3.455   7.074   7.608 -0.4361 -1.0785  1.6038
26359SOL     OW81083   4.196   9.125  10.884  0.1372  0.1448  0.6511
26359SOL    HW181084   4.171   9.037  10.909 -0.5910  0.2721  0.4048
26359SOL    HW281085   4.165   9.134  10.794  0.7243  0.4547  0.4735
26360SOL     OW81086   5.416   9.684   6.153  0.5139 -0.2487  0.4006
26360SOL    HW181087   5.497   9.717   6.192  0.5255  0.9541 -0.5646
26360SOL    HW281088   5.433   9.591   6.139  1.4626 -0.1644  0.8697
26361SOL     OW81089   3.636   1.780   7.641 -0.2742 -0.0699 -0.3748
26361SOL    HW181090   3.677   1.696   7.659  0.7717  0.7669  1.5815
26361SOL    HW281091   3.698   1.826   7.585  0.4507  0.3463  0.7293
26362SOL     OW81092   8.469   2.143   1.162  0.0347 -0.0519  0.1303
26362SOL    HW181093   8.435   2.172   1.078  1.1742  0.7119 -0.0854
26362SOL    HW281094   8.391   2.120   1.213 -0.6721 -0.3632 -1.0605
26363SOL     OW81095   2.825   8.294   7.993 -0.1252 -0.2883 -0.0866
26363SOL    HW181096   2.820   8.275   7.899 -0.9541 -0.0964 -0.0929
26363SOL    HW281097   2.918   8.306   8.010 -0.0096  0.2202 -0.9968
26364SOL     OW81098   0.570   9.353   3.278 -0.1405  0.6299  0.2856
26364SOL    HW181099   0.585   9.321   3.189 -0.6544  1.2597 -0.0371
26364SOL    HW281100   0.476   9.343   3.292 -0.0693  0.5846  0.7414
26365SOL     OW81101   8.693   6.351   7.698 -0.2209 -0.1093  0.3872
26365SOL    HW181102   8.631   6.341   7.626  0.7542 -1.0518 -0.3377
26365SOL    HW281103   8.779   6.340   7.659  0.4470  1.2591  1.3701
26366SOL     OW81104   6.677  10.802   5.264 -0.1388  0.0044 -0.1633
26366SOL    HW181105   6.696  10.763   5.350 -1.0674  0.7520  0.3960
26366SOL    HW281106   6.611  10.869   5.282  1.2146  1.6932 -1.1297
26367SOL     OW81107   7.258   7.201   6.089 -0.1691  0.1595 -0.2484
26367SOL    HW181108   7.263   7.109   6.115 -0.0207  0.2699  0.1139
26367SOL    HW281109   7.256   7.199   5.993  0.9134 -0.1712 -0.2726
26368SOL     OW81110   1.186   8.866   8.712 -0.1894  0.4692 -0.2082
26368SOL    HW181111   1.190   8.955   8.677  1.1985  0.8910  0.9367
26368SOL    HW281112   1.129   8.819   8.651  0.2804  1.7402 -1.6969
26369SOL     OW81113   7.526   4.071   9.739 -0.2755 -0.3538  0.1902
26369SOL    HW181114   7.558   3.987   9.771 -0.5285 -0.3934  0.3356
26369SOL    HW281115   7.495   4.117   9.817 -0.9225 -0.4644  0.0020
26370SOL     OW81116   5.803   8.775   3.710  0.1020  0.4528  0.3561
26370SOL    HW181117   5.875   8.714   3.697 -0.3080  0.3227 -1.7666
26370SOL    HW281118   5.845   8.856   3.737  1.4343  1.0901 -3.0553
26371SOL     OW81119   9.828  10.617   7.262 -0.1991  0.2188 -0.0302
26371SOL    HW181120   9.818  10.557   7.336 -1.1493  0.9493  0.4593
26371SOL    HW281121   9.805  10.703   7.298 -0.2272  0.6597 -1.0664
26372SOL     OW81122   0.463   5.578   1.122 -0.8802  0.0308 -0.1581
26372SOL    HW181123   0.451   5.526   1.043  3.1331 -1.1664 -0.1655
26372SOL    HW281124   0.468   5.514   1.193  0.2420  0.6942  0.3818
26373SOL     OW81125   6.438   8.411   6.688  0.0342 -0.1873 -0.0930
26373SOL    HW181126   6.527   8.412   6.653  0.2587 -0.1804  0.4722
26373SOL    HW281127   6.391   8.350   6.631  0.3418 -0.0188 -0.5305
26374SOL     OW81128   5.139  10.043   8.751  0.3134  0.0830  0.4131
26374SOL    HW181129   5.232  10.050   8.772  0.5380 -1.3765  0.0002
26374SOL    HW281130   5.127   9.952   8.725 -1.0707  0.4496 -0.3330
26375SOL     OW81131   0.907   2.753   7.682  0.1488 -0.0728  0.0381
26375SOL    HW181132   0.923   2.839   7.720  0.7432 -0.2151  0.1276
26375SOL    HW281133   0.853   2.770   7.605  1.3911  0.5451 -0.7392
26376SOL     OW81134   0.217   5.488   0.073 -0.6194  0.5275 -0.3932
26376SOL    HW181135   0.180   5.562   0.025  0.4680  0.5944 -1.1493
26376SOL    HW281136   0.196   5.506   0.165 -0.2952  1.8196 -0.5601
26377SOL     OW81137   6.029   5.295   5.144  0.0939 -0.0068 -0.1768
26377SOL    HW181138   6.116   5.258   5.132 -0.1704 -0.7505  0.1594
26377SOL    HW281139   5.969   5.223   5.125 -0.4131  0.0878  0.9661
26378SOL     OW81140   6.535   8.378   7.075  0.1286  0.3185  0.2678
26378SOL    HW181141   6.592   8.348   7.145 -0.9681  1.0380  1.5048
26378SOL    HW281142   6.496   8.459   7.108 -0.3478  0.7240 -1.2114
26379SOL     OW81143   7.799   5.766   9.356 -0.3147 -0.3518  0.2844
26379SOL    HW181144   7.879   5.794   9.312 -0.7794 -1.9309 -1.6775
26379SOL    HW281145   7.829   5.730   9.439  0.7505  1.0787  0.5678
26380SOL     OW81146   5.753   8.466   4.513  0.0775 -0.0522 -0.9645
26380SOL    HW181147   5.807   8.491   4.589 -2.0039 -0.0543  0.6050
26380SOL    HW281148   5.731   8.374   4.529 -3.1695  0.8350  0.3142
26381SOL     OW81149   8.324   9.178   9.920  0.4309  0.0254  0.2178
26381SOL    HW181150   8.366   9.137   9.844  1.2243  1.3387 -0.0689
26381SOL    HW281151   8.328   9.272   9.902 -3.4521  0.2745 -0.2972
26382SOL     OW81152   9.775   9.812   7.652  0.2001  0.1606 -0.5305
26382SOL    HW181153   9.837   9.762   7.599  0.0532  0.3196 -0.8543
26382SOL    HW281154   9.820   9.893   7.672  0.8352 -0.5018  0.8541
26383SOL     OW81155   1.515   6.346   0.531  0.4121  0.8031 -0.1373
26383SOL    HW181156   1.605   6.319   0.515 -0.1359 -0.6218 -0.9974
26383SOL    HW281157   1.472   6.268   0.566 -0.9673  0.8191 -1.6430
26384SOL     OW81158   9.021   4.675   5.213  0.5799  0.1595  0.4405
26384SOL    HW181159   8.977   4.653   5.131  0.8373  1.3388 -0.0316
26384SOL    HW281160   8.966   4.635   5.281  0.9129 -1.7087 -0.3303
26385SOL     OW81161   4.885   8.897  10.471 -0.1079  0.0698  0.5168
26385SOL    HW181162   4.867   8.819  10.524  0.9148  0.0243  0.8151
26385SOL    HW281163   4.944   8.950  10.525  2.5370 -0.8603 -1.2710
26386SOL     OW81164  10.440   5.071   3.348 -0.5738 -0.2922 -0.8962
26386SOL    HW181165  10.531   5.098   3.330 -1.0068  1.5207 -0.5697
26386SOL    HW281166  10.416   5.119   3.426 -1.6471 -1.2214 -0.6301
26387SOL     OW81167   5.178  11.038   1.406 -0.2971 -0.1142  0.2922
26387SOL    HW181168   5.176  11.039   1.310 -0.1143  0.0444  0.2894
26387SOL    HW281169   5.208  11.125   1.430 -0.1284 -0.2257  0.4882
26388SOL     OW81170   7.544   9.737   1.710 -0.1732  0.0235 -0.1707
26388SOL    HW181171   7.498   9.796   1.770 -0.3861  0.0908 -0.3998
26388SOL    HW281172   7.636   9.748   1.733 -0.0835  1.4041 -1.0432
26389SOL     OW81173  10.026   2.380   6.613  0.3622  0.7180  0.4359
26389SOL    HW181174   9.979   2.336   6.684 -0.3139 -0.6310 -0.7870
26389SOL    HW281175  10.098   2.322   6.591  0.3882  0.9658 -0.1686
26390SOL     OW81176   4.865   2.172   2.035 -0.1689 -0.8527 -0.0010
26390SOL    HW181177   4.803   2.245   2.038 -0.7060 -1.2440 -1.1266
26390SOL    HW281178   4.819   2.099   2.075 -0.1181 -0.9206 -0.0657
26391SOL     OW81179  11.043   3.388   6.984 -0.1681  0.1718 -0.1008
26391SOL    HW181180  11.118   3.428   7.029  1.0674  0.0108 -1.9123
26391SOL    HW281181  10.999   3.337   7.052  2.0617 -0.6867  0.7937
26392SOL     OW81182   6.155  10.247   0.937 -0.3525 -0.4034 -0.0320
26392SOL    HW181183   6.131  10.154   0.931 -0.1636 -0.4034 -1.0703
26392SOL    HW281184   6.142  10.280   0.848  1.9158 -0.0164 -0.2792
26393SOL     OW81185   5.733  10.850   9.214 -0.3497 -0.0233  0.1778
26393SOL    HW181186   5.683  10.823   9.137 -2.0411  2.1644  0.3982
26393SOL    HW281187   5.816  10.883   9.180  0.1449 -1.7925 -0.3971
26394SOL     OW81188   5.358   1.901  11.060  0.0914 -0.1748 -0.1716
26394SOL    HW181189   5.264   1.911  11.046  0.2784  0.5397 -1.0796
26394SOL    HW281190   5.375   1.809  11.040 -0.2496 -0.0428 -1.1421
26395SOL     OW81191   3.894  10.206   9.098  0.1936 -0.2694  0.9112
26395SOL    HW181192   3.900  10.298   9.070  1.3019 -0.8961 -1.0362
26395SOL    HW281193   3.976  10.166   9.068 -1.0412 -2.3183  0.0885
26396SOL     OW81194   2.843   9.080   7.128  0.8333  0.2238 -0.3066
26396SOL    HW181195   2.774   9.124   7.177 -0.6204 -2.6405  0.4376
26396SOL    HW281196   2.915   9.069   7.191  0.2357 -0.5674  0.2615
26397SOL     OW81197   8.632  10.075   8.189  0.7109  0.1774 -0.8477
26397SOL    HW181198   8.685  10.076   8.269  0.5067  0.9861 -0.7126
26397SOL    HW281199   8.582   9.994   8.194 -3.3570  2.4830  2.5640
26398SOL     OW81200   5.942   1.407   6.951 -0.1542 -0.7236 -0.0831
26398SOL    HW181201   5.990   1.489   6.938  0.3182 -1.2464 -1.8240
26398SOL    HW281202   5.985   1.367   7.027  2.7389 -1.4876 -1.9307
26399SOL     OW81203   5.155   3.283   7.896 -0.0348 -0.2350 -0.0780
26399SOL    HW181204   5.113   3.360   7.859 -0.5446 -0.4537  0.0326
26399SOL    HW281205   5.209   3.316   7.968 -0.4622 -0.0121  0.1383
26400SOL     OW81206   6.926   5.900   1.171  0.1994  0.0286 -0.4265
26400SOL    HW181207   6.911   5.805   1.176 -1.3378  0.2825  0.5708
26400SOL    HW281208   6.964   5.914   1.084 -0.0471 -1.4443 -0.7968
26401SOL     OW81209   2.955   5.810   1.102  0.1807  0.0147  0.0603
26401SOL    HW181210   2.944   5.727   1.057  0.1104  0.3245 -0.5021
26401SOL    HW281211   2.867   5.844   1.114  0.1653 -0.2928  0.8762
26402SOL     OW81212  11.081   3.297  10.352 -0.0830  0.2202 -0.0298
26402SOL    HW181213  11.139   3.332  10.284  1.1854 -0.4671  0.6569
26402SOL    HW281214  11.052   3.213  10.318  0.0838  0.1436  0.0128
26403SOL     OW81215   2.169   9.317   1.513  0.1100 -0.1154 -0.0863
26403SOL    HW181216   2.237   9.273   1.565  2.7546  2.0567 -1.5045
26403SOL    HW281217   2.148   9.395   1.564 -0.2294 -0.0082 -0.3942
26404SOL     OW81218   4.090   8.703   8.663 -0.0233 -0.3626  0.1365
26404SOL    HW181219   4.167   8.739   8.706  0.2318 -2.0359  1.2013
26404SOL    HW281220   4.125   8.644   8.596 -0.3294 -1.2165  0.6986
26405SOL     OW81221   5.704   0.989  10.446 -0.6102 -0.1537  0.0838
26405SOL    HW181222   5.678   1.063  10.501 -1.2425 -0.3716  0.0789
26405SOL    HW281223   5.763   1.027  10.381 -1.0466  0.3685 -0.0060
26406SOL     OW81224   3.869   9.927   7.290 -0.2056  0.5517 -0.2127
26406SOL    HW181225   3.850   9.870   7.363  3.2014  0.4001  0.7414
26406SOL    HW281226   3.860  10.016   7.325 -1.3333  0.5527 -0.4710
26407SOL     OW81227   6.048  10.132  10.437  0.0858 -0.1076 -0.0156
26407SOL    HW181228   5.995  10.127  10.517  0.2840 -0.2759  0.1070
26407SOL    HW281229   6.129  10.085  10.459 -0.0024 -0.4591 -0.4329
26408SOL     OW81230   4.605   1.609   7.973 -0.0372  0.2419 -0.1510
26408SOL    HW181231   4.583   1.557   7.896 -1.4588  2.1544 -1.1121
26408SOL    HW281232   4.631   1.694   7.938 -0.5964  1.1195  1.4678
26409SOL     OW81233   0.470   2.261   4.010 -0.0115  0.0884 -0.2151
26409SOL    HW181234   0.513   2.189   3.965 -0.3874  0.0415 -0.4921
26409SOL    HW281235   0.532   2.286   4.079  0.0816 -0.5513 -0.0637
26410SOL     OW81236   8.869   4.728   5.479  0.7899 -0.5413  0.1548
26410SOL    HW181237   8.961   4.713   5.499  1.4183  0.8558 -1.4316
26410SOL    HW281238   8.843   4.800   5.537  1.3059  0.4431 -0.8090
26411SOL     OW81239  10.597   1.419   8.057 -0.3005 -0.3546  0.3809
26411SOL    HW181240  10.544   1.400   7.979 -0.1988 -0.2951  0.2968
26411SOL    HW281241  10.548   1.489   8.101 -1.8814 -2.2979  1.8849
26412SOL     OW81242   6.170  10.572   9.198 -0.4574  0.0819  0.6038
26412SOL    HW181243   6.258  10.589   9.231 -0.2584 -1.7856  1.1616
26412SOL    HW281244   6.183  10.530   9.113 -0.8657  0.9869  0.0803
26413SOL     OW81245   9.861   4.885   3.891  0.0098 -0.7210  0.0799
26413SOL    HW181246   9.873   4.944   3.966  0.7469 -1.0241  0.2055
26413SOL    HW281247   9.935   4.824   3.896 -0.8585 -1.8003  0.0834
26414SOL     OW81248   4.834   4.873   8.441 -0.1082  0.2828  0.2921
26414SOL    HW181249   4.855   4.840   8.354  0.7351 -1.0555  0.9687
26414SOL    HW281250   4.920   4.892   8.480 -0.5003  1.4487  0.6381
26415SOL     OW81251   8.413   5.818   8.330  0.0972  0.1675  0.2645
26415SOL    HW181252   8.324   5.853   8.338  0.1049  0.0487  0.8943
26415SOL    HW281253   8.422   5.797   8.237 -0.5269  0.1990  0.1936
26416SOL     OW81254  11.016   8.527   1.109 -0.0721 -0.5326  0.4257
26416SOL    HW181255  11.048   8.506   1.021  0.5847 -1.8197  0.9305
26416SOL    HW281256  10.926   8.556   1.096  0.1698 -0.2351 -0.7102
26417SOL     OW81257   5.129   4.067   7.894 -0.1145  0.2884  0.1509
26417SOL    HW181258   5.178   4.149   7.904  0.5702  0.0747 -1.2215
26417SOL    HW281259   5.150   4.037   7.806  0.4552 -1.9006  0.9601
26418SOL     OW81260   6.554   0.291   9.979  0.5244 -0.6128  0.0712
26418SOL    HW181261   6.535   0.201  10.005  0.9957  0.0987  3.2932
26418SOL    HW281262   6.609   0.326  10.049  1.3078  1.8657 -1.6339
26419SOL     OW81263   7.037   8.079  10.317 -0.6589  0.0029  0.2863
26419SOL    HW181264   6.961   8.041  10.273  0.5789  0.2353 -2.2120
26419SOL    HW281265   7.111   8.029  10.283  0.7160  2.5111 -0.6717
26420SOL     OW81266   8.598   6.976   0.731 -0.4465  0.2219  0.3933
26420SOL    HW181267   8.539   6.939   0.665 -0.5904  2.0907 -0.6024
26420SOL    HW281268   8.634   6.900   0.776 -2.7650 -1.0168  0.3016
26421SOL     OW81269   7.802  10.800   1.384 -0.0129 -0.4704  0.1525
26421SOL    HW181270   7.832  10.727   1.438 -0.7979 -0.4818  0.5981
26421SOL    HW281271   7.730  10.764   1.333  0.4997 -0.3668 -0.6601
26422SOL     OW81272   7.663   1.211   2.683 -0.0463  0.2993 -0.0274
26422SOL    HW181273   7.727   1.157   2.730 -0.1431 -0.3313 -0.6069
26422SOL    HW281274   7.590   1.219   2.744  0.1281  0.0927  0.2113
26423SOL     OW81275   5.218   0.869   8.339  0.1228  0.4939 -0.8769
26423SOL    HW181276   5.223   0.851   8.433 -1.3928  0.0097 -0.8535
26423SOL    HW281277   5.225   0.783   8.297  0.9601  0.7248 -1.2344
26424SOL     OW81278   6.798   9.938   8.353  0.8286  0.1871 -0.5315
26424SOL    HW181279   6.817   9.873   8.421 -2.0745 -0.3648 -0.1272
26424SOL    HW281280   6.846   9.907   8.276 -1.6948 -3.5350 -0.8801
26425SOL     OW81281   3.079   8.788  10.013  0.1906 -0.2129 -0.4669
26425SOL    HW181282   3.140   8.771   9.941  0.4994  1.2715 -0.6016
26425SOL    HW281283   3.114   8.738  10.086  1.3807  0.3094 -0.6510
26426SOL     OW81284   1.436   7.639   0.534  0.7414 -0.4754 -0.0140
26426SOL    HW181285   1.473   7.713   0.486  0.2709  0.0576  0.4244
26426SOL    HW281286   1.350   7.670   0.562  0.6086 -1.1339  0.3266
26427SOL     OW81287   6.554   9.749   2.636  0.6349 -0.2939  0.4341
26427SOL    HW181288   6.521   9.682   2.577 -0.1164 -1.3848  2.0269
26427SOL    HW281289   6.531   9.832   2.594 -2.1135 -1.0223  0.3267
26428SOL     OW81290   9.220   0.518   6.908 -0.0531  0.4397 -0.5169
26428SOL    HW181291   9.178   0.440   6.943 -0.3295  0.8439  0.0682
26428SOL    HW281292   9.200   0.516   6.814  1.4310 -1.1163 -0.8640
26429SOL     OW81293   4.723   2.995   9.188 -0.0246 -0.1876  0.0477
26429SOL    HW181294   4.717   3.025   9.098 -1.2970  0.6107  0.3707
26429SOL    HW281295   4.714   3.075   9.241  1.4643 -0.5409  0.8864
26430SOL     OW81296   6.854   2.277   1.023  0.1706 -0.3600 -0.0229
26430SOL    HW181297   6.855   2.362   1.068  0.7696 -1.1066  1.4336
26430SOL    HW281298   6.854   2.299   0.930  0.3728  1.2344  0.3265
26431SOL     OW81299   5.998   3.696  10.092 -0.1179  0.3020 -0.4251
26431SOL    HW181300   5.943   3.768  10.124  0.8193  1.8046 -2.0540
26431SOL    HW281301   5.993   3.701   9.997  0.9436 -1.0397 -0.5958
26432SOL     OW81302  10.389  10.229   9.036  0.1573  0.1559 -0.0988
26432SOL    HW181303  10.456  10.281   8.991  0.6710 -0.5261 -0.1339
26432SOL    HW281304  10.409  10.239   9.129  1.1613 -1.1418 -0.1494
26433SOL     OW81305   8.971   1.116   1.411 -0.0812  0.0910 -0.6746
26433SOL    HW181306   8.944   1.041   1.464  0.3754 -0.1145 -0.7340
26433SOL    HW281307   8.992   1.078   1.326  0.0529  0.2983 -0.7327
26434SOL     OW81308   1.689  10.044   8.369  0.1005  0.0282  0.0055
26434SOL    HW181309   1.714  10.086   8.451  2.5966  0.0361 -0.6833
26434SOL    HW281310   1.727   9.956   8.375 -1.2576 -0.6185 -0.4125
26435SOL     OW81311   3.371   4.045   0.984  0.0973 -0.5365 -0.1326
26435SOL    HW181312   3.461   4.016   0.998  0.0527 -0.8250 -0.4421
26435SOL    HW281313   3.321   3.965   0.972 -0.2278 -0.3848  0.1641
26436SOL     OW81314   9.556   9.846   2.881 -0.3816 -0.3429  0.1687
26436SOL    HW181315   9.599   9.912   2.827 -1.7495  1.2415  0.9684
26436SOL    HW281316   9.520   9.893   2.955 -2.6197 -1.7173  0.0785
26437SOL     OW81317   0.815   5.653   6.066 -0.5599  0.2715  0.5505
26437SOL    HW181318   0.899   5.607   6.072 -0.5789  0.2823  0.8920
26437SOL    HW281319   0.752   5.584   6.041 -0.1557  0.5805 -1.5478
26438SOL     OW81320   0.407   4.331   4.173  0.6643 -0.0155 -0.4434
26438SOL    HW181321   0.388   4.251   4.223  0.9000  0.2917  0.1553
26438SOL    HW281322   0.331   4.387   4.190 -0.4519 -0.8232 -2.4364
26439SOL     OW81323  10.572   4.835   9.768  0.0893  0.4092 -0.1006
26439SOL    HW181324  10.560   4.750   9.725  0.0102  0.8690 -1.0074
26439SOL    HW281325  10.512   4.894   9.722  0.8062  1.1679 -0.0812
26440SOL     OW81326   7.788  10.169   0.674  0.3736  0.4817 -0.5394
26440SOL    HW181327   7.808  10.076   0.675 -0.4541  0.2195  2.5446
26440SOL    HW281328   7.695  10.173   0.652 -0.3093  0.2555  1.9676
26441SOL     OW81329   0.415  10.214  10.782  0.4367  0.0499  0.3093
26441SOL    HW181330   0.339  10.229  10.838 -0.3961 -0.7823 -0.5483
26441SOL    HW281331   0.377  10.188  10.698  1.6844 -0.4783 -0.1099
26442SOL     OW81332   1.051   4.386   9.447  0.1972 -0.2253 -0.3531
26442SOL    HW181333   0.978   4.398   9.386  0.3994  0.3450 -0.4858
26442SOL    HW281334   1.019   4.320   9.510 -0.1953 -0.4413 -0.7753
26443SOL     OW81335   2.948  10.661   7.267 -0.2402 -0.8001  0.0610
26443SOL    HW181336   2.906  10.747   7.256 -1.2261 -1.2658  0.0692
26443SOL    HW281337   2.968  10.655   7.360 -2.8910 -1.7667  0.6428
26444SOL     OW81338   6.034   3.656   9.269  0.3287 -0.1836  0.3112
26444SOL    HW181339   6.073   3.570   9.283 -0.7463 -1.1206 -1.8503
26444SOL    HW281340   6.010   3.656   9.176  1.6958  3.0564 -0.1874
26445SOL     OW81341  11.019   7.351   7.813 -0.7243 -0.4223 -0.3535
26445SOL    HW181342  11.049   7.427   7.862 -1.1891  0.8188 -1.8935
26445SOL    HW281343  11.092   7.290   7.816 -0.0571  0.3909  0.3167
26446SOL     OW81344   4.649   9.844   3.136  0.3515 -0.0597  0.4373
26446SOL    HW181345   4.571   9.864   3.085  0.3772  0.0109  0.4253
26446SOL    HW281346   4.721   9.885   3.087  0.5568 -1.1076 -0.1843
26447SOL     OW81347   9.803   4.846  10.730 -0.3873  0.2445 -0.1469
26447SOL    HW181348   9.746   4.905  10.779 -0.1139  0.1308  0.3156
26447SOL    HW281349   9.830   4.780  10.794 -1.7007 -1.1345 -0.9605
26448SOL     OW81350   4.013   5.429   0.228 -0.6271 -0.1948 -0.8136
26448SOL    HW181351   4.020   5.336   0.252 -0.2966 -0.1249 -0.6353
26448SOL    HW281352   3.920   5.441   0.208 -0.9309 -0.2459  0.4940
26449SOL     OW81353   5.650  10.820   6.470  0.1342  0.2936 -0.0112
26449SOL    HW181354   5.605  10.771   6.402  0.4246  0.5849 -0.4210
26449SOL    HW281355   5.727  10.857   6.426  0.2696  0.5682  0.4488
26450SOL     OW81356   1.264   1.839   2.225  0.2201  0.2760  0.4401
26450SOL    HW181357   1.333   1.897   2.258  1.6362 -1.7559  1.2887
26450SOL    HW281358   1.272   1.760   2.279 -1.0491 -1.0442 -1.2107
26451SOL     OW81359   0.255   4.424   0.717 -0.4606  0.1996  0.2218
26451SOL    HW181360   0.182   4.434   0.655 -0.2494 -0.0016 -0.0598
26451SOL    HW281361   0.290   4.337   0.698 -0.6554 -0.0266  0.9035
26452SOL     OW81362   0.736   3.142   6.167 -0.1528  0.2051  0.3318
26452SOL    HW181363   0.766   3.223   6.126 -0.3861 -0.7206 -1.8158
26452SOL    HW281364   0.673   3.170   6.233  1.5765  1.8679  1.3493
26453SOL     OW81365   0.008   2.015   8.288 -0.3630 -0.0590 -0.2200
26453SOL    HW181366   0.057   2.096   8.300 -2.0665  0.9159  0.5463
26453SOL    HW281367   0.022   1.967   8.370  1.2165 -0.9030 -0.9481
26454SOL     OW81368   3.026   5.337   8.670  0.5696 -0.6855  0.0518
26454SOL    HW181369   2.938   5.303   8.655 -0.2098  0.7171  1.1880
26454SOL    HW281370   3.076   5.262   8.702 -0.9930 -0.9293  2.1491
26455SOL     OW81371   8.360   4.537   3.411 -0.5603  0.5493  0.3060
26455SOL    HW181372   8.415   4.585   3.473 -1.2086  1.4669  0.1894
26455SOL    HW281373   8.422   4.488   3.357  0.1462  1.5918  0.1469
26456SOL     OW81374   7.143   4.656   2.184  0.6841  0.0784 -0.4181
26456SOL    HW181375   7.092   4.586   2.224 -0.3984  0.7297 -0.6188
26456SOL    HW281376   7.169   4.712   2.257  0.1785  0.3277 -0.4213
26457SOL     OW81377   6.164   7.511   6.890 -0.2584 -0.2941  0.1772
26457SOL    HW181378   6.129   7.538   6.805 -0.0010  0.7028  0.3780
26457SOL    HW281379   6.194   7.421   6.876 -0.5700 -0.2688 -0.6828
26458SOL     OW81380   6.906   0.024   1.241  0.3573  0.5419  0.4418
26458SOL    HW181381   6.907   0.102   1.297  2.9066  1.0473 -0.1700
26458SOL    HW281382   6.828   0.035   1.186 -1.0391  1.0668  2.4334
26459SOL     OW81383   0.795   5.133   5.772  0.0544  0.3566 -0.1049
26459SOL    HW181384   0.715   5.109   5.819 -0.2141 -2.4072 -1.7821
26459SOL    HW281385   0.865   5.115   5.834 -0.3802 -1.6422 -0.1470
26460SOL     OW81386   7.132   9.713   9.093  0.8961 -0.0602 -0.5671
26460SOL    HW181387   7.080   9.669   9.161  1.7167  0.3551  0.3563
26460SOL    HW281388   7.070   9.728   9.022 -0.2286  0.3059  0.4539
26461SOL     OW81389   4.667   3.226   2.731 -0.7864  0.2559 -0.4529
26461SOL    HW181390   4.589   3.282   2.734 -0.5642  0.5316  0.9243
26461SOL    HW281391   4.703   3.230   2.820  0.0280 -0.9686 -0.6982
26462SOL     OW81392   6.780  10.928   0.442 -0.3042 -0.1728  0.1236
26462SOL    HW181393   6.875  10.920   0.432 -0.4760  0.4448 -2.4237
26462SOL    HW281394   6.760  10.870   0.516  1.8864 -1.3417 -0.1008
26463SOL     OW81395   3.407   6.662   7.886 -0.5755 -0.0828  0.0149
26463SOL    HW181396   3.463   6.626   7.817 -0.5463  0.0933 -0.0529
26463SOL    HW281397   3.319   6.633   7.864 -0.2178 -2.8345  1.6423
26464SOL     OW81398   2.279   3.560   9.079  0.4350  0.2306 -0.2410
26464SOL    HW181399   2.344   3.491   9.062  1.4229  0.6445  1.6014
26464SOL    HW281400   2.267   3.603   8.994  1.2994 -0.9128 -0.9810
26465SOL     OW81401  10.521   0.750   9.516  0.0224  0.8955 -0.8805
26465SOL    HW181402  10.540   0.765   9.608  0.6034  0.2629 -0.8912
26465SOL    HW281403  10.519   0.838   9.477  2.9853  1.0771 -0.8705
26466SOL     OW81404   2.393   7.772  10.784 -0.6945 -0.1869 -0.1409
26466SOL    HW181405   2.359   7.756  10.872  0.8768  2.2446  1.0210
26466SOL    HW281406   2.371   7.864  10.766  0.9255  0.0097 -1.3253
26467SOL     OW81407   9.226   4.748   8.986  0.1315 -0.2111  0.0226
26467SOL    HW181408   9.237   4.666   9.035 -1.2705 -2.2997 -2.8673
26467SOL    HW281409   9.299   4.750   8.925 -0.2579  0.3216 -0.4338
26468SOL     OW81410   4.872   8.717  10.689  0.6692  0.3965  0.0741
26468SOL    HW181411   4.875   8.780  10.761  1.2737 -0.2256  0.6115
26468SOL    HW281412   4.794   8.665  10.706 -0.4327  1.6214 -0.9435
26469SOL     OW81413  10.071   2.983   2.160  0.2445  0.2296 -0.1253
26469SOL    HW181414  10.034   2.956   2.244 -0.4499 -0.1677 -0.5415
26469SOL    HW281415  10.146   3.038   2.183 -0.3133  0.6508  0.7505
26470SOL     OW81416   0.913   4.542   5.916  0.0997 -0.3659 -0.4034
26470SOL    HW181417   0.889   4.611   5.854 -0.7278  0.4312  0.7354
26470SOL    HW281418   1.009   4.540   5.914  0.1632  1.0116 -0.3086
26471SOL     OW81419   3.698   2.481  10.852  0.2552  0.4865  0.4756
26471SOL    HW181420   3.652   2.430  10.919 -2.9022  1.6184 -0.6442
26471SOL    HW281421   3.770   2.424  10.824 -0.9116 -1.7967  1.7977
26472SOL     OW81422   4.745   5.566   3.096  0.0986 -0.2323 -0.5032
26472SOL    HW181423   4.739   5.618   3.016 -0.9243 -1.3157 -1.1564
26472SOL    HW281424   4.677   5.603   3.153  0.4459  0.1715 -0.3463
26473SOL     OW81425   9.206   0.908   7.931  0.2080 -0.3747  0.1097
26473SOL    HW181426   9.243   0.867   7.854 -2.4445 -0.7893 -1.0524
26473SOL    HW281427   9.140   0.846   7.963  0.7554  0.0869  2.3405
26474SOL     OW81428   7.149   1.569   7.321 -0.4314  0.1835  0.1646
26474SOL    HW181429   7.160   1.486   7.367  0.0683  0.2073  0.0901
26474SOL    HW281430   7.098   1.546   7.243 -0.3667 -0.0413  0.1868
26475SOL     OW81431   7.895   9.785   4.213  0.7848  0.1405  0.0188
26475SOL    HW181432   7.842   9.714   4.249 -0.8335  1.9764  1.5110
26475SOL    HW281433   7.874   9.786   4.119 -0.5207 -0.2745  0.2867
26476SOL     OW81434   2.405   1.721   5.897  0.4375  0.1316  0.0310
26476SOL    HW181435   2.395   1.732   5.802  0.3099 -4.1820 -0.6582
26476SOL    HW281436   2.499   1.725   5.912  0.4570  0.8451 -0.2620
26477SOL     OW81437   9.250   3.172   5.485  0.2590  0.3069  0.3208
26477SOL    HW181438   9.278   3.262   5.470 -0.8075  0.8123  1.2943
26477SOL    HW281439   9.236   3.137   5.396  2.4661  0.4751 -0.1492
26478SOL     OW81440   2.101   7.928   7.287  0.6966 -0.1789  0.1777
26478SOL    HW181441   2.063   7.916   7.200  0.1793 -0.9942  0.5005
26478SOL    HW281442   2.031   7.967   7.339 -0.3919 -3.2743  1.2378
26479SOL     OW81443   4.864   7.244   9.250  0.0822  0.7312  0.0232
26479SOL    HW181444   4.955   7.273   9.249  1.1048 -2.1317  0.6560
26479SOL    HW281445   4.829   7.279   9.332  0.3281  2.4892 -0.5774
26480SOL     OW81446   1.629   3.531   1.920 -0.1923  0.1020  0.1674
26480SOL    HW181447   1.637   3.491   2.007 -1.4770  2.6413  1.6004
26480SOL    HW281448   1.700   3.596   1.917 -0.0604 -0.0753 -0.7671
26481SOL     OW81449   9.209   8.201  10.366  0.5405 -0.8298  0.2735
26481SOL    HW181450   9.140   8.138  10.345  0.3698 -0.5422 -0.0599
26481SOL    HW281451   9.170   8.286  10.342  1.3807 -0.7542 -0.8683
26482SOL     OW81452   7.970   5.001   9.165 -0.1900  0.0176 -0.1102
26482SOL    HW181453   7.896   4.952   9.202  0.0726  0.1422  0.5923
26482SOL    HW281454   8.046   4.946   9.184 -0.0257  0.1867 -0.2774
26483SOL     OW81455   7.825   2.444   4.755 -0.4629  0.5458  0.1160
26483SOL    HW181456   7.793   2.475   4.840 -1.2005 -0.9399  0.4018
26483SOL    HW281457   7.752   2.395   4.719  1.5287 -3.4558  1.0253
26484SOL     OW81458   3.877   7.027   7.534 -0.3068  0.3778  0.3199
26484SOL    HW181459   3.846   6.944   7.570  2.1705 -1.1255 -0.7952
26484SOL    HW281460   3.843   7.029   7.445 -0.8712  0.8823  0.5393
26485SOL     OW81461   3.372   9.604   8.693  0.6250 -0.0940  0.3480
26485SOL    HW181462   3.315   9.535   8.659 -0.0406  0.3455  0.5601
26485SOL    HW281463   3.439   9.614   8.626 -0.2236  0.2131 -0.4784
26486SOL     OW81464   8.207   5.364   0.043  0.0341  0.4275 -0.0958
26486SOL    HW181465   8.187   5.438  -0.015  0.3390  0.4497 -0.1769
26486SOL    HW281466   8.246   5.299  -0.015 -3.0550 -1.1078 -0.6621
26487SOL     OW81467   1.699   7.704   1.179  0.1638 -0.5136 -0.5544
26487SOL    HW181468   1.706   7.782   1.234  0.5644 -0.9592  0.0428
26487SOL    HW281469   1.735   7.730   1.095 -0.1276  0.0768 -0.4976
26488SOL     OW81470  10.488  10.787   7.750  0.4254 -0.0807  0.0724
26488SOL    HW181471  10.434  10.839   7.691 -1.7943 -2.1347  0.1375
26488SOL    HW281472  10.437  10.781   7.830  0.4015 -2.6081 -0.0655
26489SOL     OW81473   7.080   5.214   0.035  0.4308  0.1882 -0.5904
26489SOL    HW181474   7.063   5.283  -0.029 -1.4356  0.2644 -0.0661
26489SOL    HW281475   7.100   5.261   0.116  0.6900  0.1017 -0.6039
26490SOL     OW81476   4.045   8.099   9.049  0.0877  0.2613 -0.1456
26490SOL    HW181477   4.049   8.078   8.955 -2.1220  4.1498 -1.3221
26490SOL    HW281478   3.967   8.052   9.080 -0.1797  0.3034 -0.7241
26491SOL     OW81479   2.914   6.938   9.312 -0.2618 -1.0610  0.1429
26491SOL    HW181480   2.966   6.876   9.364  0.5313  1.2525  2.3378
26491SOL    HW281481   2.910   6.899   9.225  0.1021 -4.1844  1.3987
26492SOL     OW81482   1.918   6.758   0.183 -0.2954  0.2030 -0.3957
26492SOL    HW181483   1.831   6.720   0.175 -0.6841  0.8426  0.6760
26492SOL    HW281484   1.936   6.759   0.277  1.2583 -0.7599 -0.6330
26493SOL     OW81485   9.770   0.035   1.836 -0.0226  0.3610  0.3360
26493SOL    HW181486   9.844   0.096   1.837  1.5315 -1.3748 -1.0252
26493SOL    HW281487   9.770   0.001   1.746 -1.5433 -0.7926  0.7506
26494SOL     OW81488   1.746   2.509   1.349 -0.1673 -0.3158 -0.4869
26494SOL    HW181489   1.735   2.566   1.425 -0.1095  2.2227 -2.2583
26494SOL    HW281490   1.660   2.507   1.308 -0.9176 -3.8344  0.9299
26495SOL     OW81491   5.537   5.722   9.147 -0.0222 -0.2159  0.0485
26495SOL    HW181492   5.525   5.695   9.238  1.9215  1.3351  0.8507
26495SOL    HW281493   5.455   5.765   9.123 -1.6016 -3.0292  0.0791
26496SOL     OW81494   6.527   5.377   8.385  0.2547 -0.2601 -0.2162
26496SOL    HW181495   6.437   5.367   8.355  0.1642 -0.6675  0.1761
26496SOL    HW281496   6.543   5.299   8.438  0.9147 -0.3030 -0.4718
26497SOL     OW81497   8.824   8.019   7.992 -0.0478  0.1412  0.3608
26497SOL    HW181498   8.836   8.003   8.086  2.0948  0.1102  0.1297
26497SOL    HW281499   8.821   7.931   7.953  1.1724  0.1339  0.2205
26498SOL     OW81500   7.673   4.689   3.438 -0.1003  0.1728 -0.0190
26498SOL    HW181501   7.654   4.662   3.528  0.8732 -0.2499  0.0707
26498SOL    HW281502   7.603   4.648   3.386 -0.1072 -0.3995  0.4297
26499SOL     OW81503   7.090   7.929   3.325 -0.1865 -0.2971 -0.4872
26499SOL    HW181504   7.104   7.873   3.248 -1.8929 -0.1936 -0.9142
26499SOL    HW281505   7.024   7.883   3.376 -0.6484  0.6875 -0.1780
26500SOL     OW81506   7.867   3.361  10.351  0.0093  0.2415 -0.7846
26500SOL    HW181507   7.959   3.344  10.374 -0.5281 -0.6658  0.8315
26500SOL    HW281508   7.817   3.330  10.426 -1.5414  2.2231 -0.9007
26501SOL     OW81509   6.967   2.455   8.430  0.0949 -0.7169 -0.6088
26501SOL    HW181510   7.045   2.479   8.380  0.8194 -0.7088  0.4992
26501SOL    HW281511   7.001   2.413   8.509 -1.0120 -0.1816  0.1704
26502SOL     OW81512   7.828   6.529   4.378 -0.4571  0.0323 -0.1259
26502SOL    HW181513   7.740   6.560   4.360 -1.2910 -1.4245  1.2223
26502SOL    HW281514   7.832   6.441   4.338  0.0304 -0.3244  0.6784
26503SOL     OW81515   9.322   7.305   8.890 -0.8732 -0.1470 -0.1555
26503SOL    HW181516   9.354   7.394   8.874 -2.8592  0.5644 -0.4435
26503SOL    HW281517   9.333   7.292   8.985  0.5011 -0.0721 -0.2835
26504SOL     OW81518   7.691   2.814   3.249  0.1045  0.2944  0.6631
26504SOL    HW181519   7.625   2.774   3.193 -0.9450  3.0040 -0.1499
26504SOL    HW281520   7.700   2.753   3.323 -2.7452 -0.5241  0.4289
26505SOL     OW81521   9.173   0.572   7.680 -0.5970 -0.2232 -0.6467
26505SOL    HW181522   9.199   0.535   7.596  0.6117  1.5184 -1.0737
26505SOL    HW281523   9.220   0.654   7.687 -2.4544  0.8206  0.6962
26506SOL     OW81524   0.768   5.609   5.689 -0.0863  0.0584 -0.1098
26506SOL    HW181525   0.775   5.699   5.656 -2.2829  0.5981  0.6798
26506SOL    HW281526   0.687   5.576   5.649 -0.2247 -0.9436  0.9640
26507SOL     OW81527   6.003   5.469   4.111  0.2530  0.1177  0.0383
26507SOL    HW181528   6.045   5.432   4.189  1.3930  2.4308  0.5884
26507SOL    HW281529   5.910   5.469   4.132  0.1952 -2.2112  0.0536
26508SOL     OW81530   2.409  10.672   1.162  0.0974  0.3049  0.0475
26508SOL    HW181531   2.337  10.655   1.223  1.1932 -0.8283  1.0924
26508SOL    HW281532   2.390  10.618   1.086  0.0277 -0.3077  0.4862
26509SOL     OW81533   1.141  10.414   0.232  0.0305  0.5785 -0.4725
26509SOL    HW181534   1.068  10.382   0.285  0.0527  1.5026  0.1228
26509SOL    HW281535   1.214  10.355   0.254 -0.3684  0.0205 -0.6262
26510SOL     OW81536  10.260   6.918   7.411  0.1140 -0.0801  0.3435
26510SOL    HW181537  10.337   6.868   7.438 -0.3778 -1.2166 -0.2514
26510SOL    HW281538  10.281   7.009   7.431  2.4399 -0.0969 -1.6568
26511SOL     OW81539   7.369   5.977   3.146 -0.2129 -0.0035  0.0165
26511SOL    HW181540   7.309   5.964   3.072  0.6126 -0.3176 -0.6183
26511SOL    HW281541   7.412   6.060   3.127 -0.3863  0.1814  0.4267
26512SOL     OW81542   6.422   0.261   1.066  0.0622  0.4717 -0.1522
26512SOL    HW181543   6.449   0.296   1.151 -2.3029 -0.4186  1.0752
26512SOL    HW281544   6.381   0.177   1.088 -0.5205  0.1762 -2.2050
26513SOL     OW81545   6.505   1.234   7.471  0.5706 -0.5287 -0.2563
26513SOL    HW181546   6.582   1.197   7.514 -0.6489 -1.5429  1.1121
26513SOL    HW281547   6.432   1.216   7.530 -0.7323  0.4854 -1.4716
26514SOL     OW81548   3.214   2.537   3.010  0.0698 -0.3730  0.0120
26514SOL    HW181549   3.297   2.576   3.038  0.9901 -1.1462 -1.5108
26514SOL    HW281550   3.163   2.611   2.976  0.3802  0.0113  0.3778
26515SOL     OW81551   5.563   3.616   7.433 -0.7752  0.4415  0.2124
26515SOL    HW181552   5.626   3.676   7.394  0.9060 -1.1054  0.4061
26515SOL    HW281553   5.511   3.670   7.492  2.1854  1.3984  2.1663
26516SOL     OW81554   2.873   4.690   2.059 -0.3640 -0.0100 -0.7119
26516SOL    HW181555   2.831   4.679   1.974  0.6674 -0.2132 -1.2056
26516SOL    HW281556   2.944   4.753   2.043  0.1094 -0.3779 -0.1019
26517SOL     OW81557   3.981   8.913   8.517  0.4551  0.5597 -0.3117
26517SOL    HW181558   3.908   8.856   8.496 -0.1448  1.0796  0.2831
26517SOL    HW281559   4.025   8.870   8.591 -0.9363  1.5891  1.1956
26518SOL     OW81560   3.723   0.306   8.222  0.5402 -0.2370 -0.5799
26518SOL    HW181561   3.739   0.364   8.148  0.0142 -0.6649 -1.0403
26518SOL    HW281562   3.642   0.260   8.199  1.2588 -1.5908 -0.5329
26519SOL     OW81563   2.215   0.151   5.370 -0.0196  0.6559 -0.9698
26519SOL    HW181564   2.144   0.087   5.375  1.2857 -0.8611 -0.8623
26519SOL    HW281565   2.286   0.104   5.326  1.0618  1.9790 -0.6974
26520SOL     OW81566   1.514   6.885   8.025 -0.0891 -0.2032 -0.1714
26520SOL    HW181567   1.501   6.792   8.043  1.1315 -0.3671 -0.0353
26520SOL    HW281568   1.490   6.929   8.107  3.4599 -0.7900  1.3963
26521SOL     OW81569   3.139   1.196   1.866  0.1584 -0.2684  0.3422
26521SOL    HW181570   3.171   1.225   1.781  1.1062  0.9259  1.0649
26521SOL    HW281571   3.114   1.277   1.911  0.8809 -0.7533  1.6622
26522SOL     OW81572   9.110   6.777   5.586  0.4269  0.0283 -0.1280
26522SOL    HW181573   9.136   6.686   5.573  1.0398  0.0662  0.7102
26522SOL    HW281574   9.192   6.822   5.607  0.2303  0.9030 -1.1744
26523SOL     OW81575   3.336   8.309   7.953  0.3032 -0.0690 -0.2861
26523SOL    HW181576   3.401   8.343   7.892 -0.7907 -0.2395 -1.5793
26523SOL    HW281577   3.388   8.275   8.027  1.5676  1.3608 -0.4761
26524SOL     OW81578  10.423   4.055   7.476 -0.0585 -0.3327 -0.2764
26524SOL    HW181579  10.411   3.983   7.414 -0.3313 -1.4677  1.0617
26524SOL    HW281580  10.372   4.127   7.438  0.1404 -0.8437 -1.5867
26525SOL     OW81581   0.598   5.816   9.921 -0.3077 -0.4617 -0.0639
26525SOL    HW181582   0.684   5.838   9.958  0.0242 -0.0345 -1.0613
26525SOL    HW281583   0.582   5.885   9.856 -0.7357 -1.3698 -0.9370
26526SOL     OW81584   7.580  10.308   4.429  0.0405  0.2362 -0.7433
26526SOL    HW181585   7.630  10.298   4.348 -0.3355  0.7365 -1.0484
26526SOL    HW281586   7.519  10.380   4.411 -1.4660 -0.9796 -0.7236
26527SOL     OW81587   6.772   1.198   8.260  0.3794 -0.4610 -0.3244
26527SOL    HW181588   6.720   1.186   8.339  1.6073 -0.6122  0.4802
26527SOL    HW281589   6.722   1.262   8.208 -0.0387  0.2819  0.9408
26528SOL     OW81590   2.420   8.729   0.061  0.0820 -0.2281 -0.3566
26528SOL    HW181591   2.474   8.659   0.097 -1.0029 -1.0489 -0.2726
26528SOL    HW281592   2.464   8.754  -0.021  2.4097  1.4671  1.2929
26529SOL     OW81593   8.960   4.366  10.095 -0.4912  0.5593  0.1639
26529SOL    HW181594   8.888   4.351  10.033  0.6416 -0.9750 -0.8797
26529SOL    HW281595   9.002   4.281  10.102  1.0388  1.3545  0.9791
26530SOL     OW81596   5.599   0.362  10.693 -0.0252  0.2667 -0.5725
26530SOL    HW181597   5.588   0.430  10.626  2.8179 -0.2887 -1.7338
26530SOL    HW281598   5.690   0.335  10.685  0.2148 -0.4428  3.0252
26531SOL     OW81599   8.254   3.300  10.451 -0.1792 -0.0765  0.3799
26531SOL    HW181600   8.209   3.284  10.534 -0.2139  1.0198  0.5789
26531SOL    HW281601   8.303   3.381  10.464 -0.5543  0.3741 -0.8166
26532SOL     OW81602   8.415   7.083   3.640 -0.0305 -0.1742 -0.5629
26532SOL    HW181603   8.385   7.168   3.607  0.9756 -0.3865 -2.1130
26532SOL    HW281604   8.414   7.092   3.736  0.8172  1.8352 -0.7174
26533SOL     OW81605   4.153   5.543   7.171  0.3604  0.0251  0.0128
26533SOL    HW181606   4.184   5.453   7.164  0.6674  0.1635 -0.4884
26533SOL    HW281607   4.154   5.575   7.081  0.9127  0.7476  0.2645
26534SOL     OW81608   1.880   7.994   8.161  0.3422 -0.3953 -0.3713
26534SOL    HW181609   1.915   8.079   8.134 -1.0779  0.3309 -0.0448
26534SOL    HW281610   1.818   7.971   8.092 -0.8768 -0.0913  0.5639
26535SOL     OW81611   5.718   2.355   9.039  0.4426 -0.2848  0.2701
26535SOL    HW181612   5.677   2.442   9.040  0.3383 -0.3312  1.8731
26535SOL    HW281613   5.679   2.311   8.963  0.1920  0.9183 -0.3151
26536SOL     OW81614   5.022   1.535   9.645 -0.1872 -0.2307 -0.4832
26536SOL    HW181615   4.957   1.494   9.588 -0.8563 -2.5439  1.7832
26536SOL    HW281616   5.100   1.480   9.635  0.7417  1.1601 -1.3930
26537SOL     OW81617   1.202   1.212   2.158 -0.1063  0.3912 -0.5240
26537SOL    HW181618   1.169   1.179   2.075 -0.0170 -1.9160  0.3027
26537SOL    HW281619   1.284   1.165   2.172 -0.8817 -0.4455  1.5688
26538SOL     OW81620   3.552   7.466   2.235  0.3878 -0.1020 -0.1233
26538SOL    HW181621   3.520   7.378   2.251  1.1926 -0.1881  1.1056
26538SOL    HW281622   3.502   7.496   2.159  0.4676 -1.7981 -0.8937
26539SOL     OW81623  10.840   2.763   0.431  0.1304  0.6091  0.2389
26539SOL    HW181624  10.785   2.841   0.433 -0.9797 -0.1561  0.7492
26539SOL    HW281625  10.859   2.744   0.523  1.0529  0.7223  0.0783
26540SOL     OW81626   9.860   6.858  10.320 -0.5424 -0.5980  0.2169
26540SOL    HW181627   9.836   6.936  10.269 -0.0182 -0.6698 -0.1534
26540SOL    HW281628   9.955   6.856  10.316 -0.4979 -0.5898  1.2478
26541SOL     OW81629   2.618   2.251   6.904  0.0756  0.1337  0.1337
26541SOL    HW181630   2.597   2.307   6.829 -1.6035  0.2561  0.6649
26541SOL    HW281631   2.690   2.296   6.948 -1.7294  2.3520  0.9885
26542SOL     OW81632  10.682   4.160  11.033 -0.2530  0.2039 -0.4254
26542SOL    HW181633  10.742   4.192  11.100 -1.4404  1.8420 -0.0926
26542SOL    HW281634  10.684   4.064  11.043  1.5576  0.2610  0.1772
26543SOL     OW81635  10.176   9.063   5.922 -0.1839 -0.1978  0.2239
26543SOL    HW181636  10.121   9.076   5.999  2.3747  0.0404  2.1461
26543SOL    HW281637  10.247   9.126   5.933  2.1355 -2.5564 -0.4736
26544SOL     OW81638   1.342   6.107   7.808  0.2240  0.6414 -0.3769
26544SOL    HW181639   1.403   6.036   7.830  0.1812  0.2018 -1.6063
26544SOL    HW281640   1.275   6.066   7.754 -1.0789  1.1701  0.7778
26545SOL     OW81641   7.215   3.899   9.703  0.9485 -0.8244  0.0539
26545SOL    HW181642   7.287   3.920   9.643  1.5025  0.4993  1.1158
26545SOL    HW281643   7.143   3.955   9.673  1.8385  1.3650  1.7393
26546SOL     OW81644   3.343   7.385   0.354 -0.3259  0.2237  0.3009
26546SOL    HW181645   3.434   7.359   0.338 -0.1775 -0.0117  1.4515
26546SOL    HW281646   3.348   7.444   0.429 -1.0175  1.0700 -0.3091
26547SOL     OW81647   4.697   5.872   9.712 -0.4591  0.3105  0.5649
26547SOL    HW181648   4.629   5.818   9.754  1.0607 -1.5070  0.8347
26547SOL    HW281649   4.697   5.844   9.621  1.0205 -0.9482  0.9197
26548SOL     OW81650  10.228   7.621   8.513  0.0204 -0.0142 -0.6221
26548SOL    HW181651  10.268   7.632   8.427  1.1255 -0.6511 -0.2059
26548SOL    HW281652  10.142   7.663   8.505 -0.1155 -0.5508 -2.1932
26549SOL     OW81653   9.838   6.329   3.561 -0.1952 -0.0790  0.3967
26549SOL    HW181654   9.766   6.266   3.559 -0.0229 -0.3373  1.6931
26549SOL    HW281655   9.813   6.395   3.497 -1.2712 -0.5064  0.3465
26550SOL     OW81656   1.425   8.961  10.221  1.1488 -0.3398  0.3732
26550SOL    HW181657   1.370   9.038  10.223  3.2732  1.2772  2.1098
26550SOL    HW281658   1.398   8.913  10.143 -1.8659  0.8823  0.5664
26551SOL     OW81659   6.243   0.145   1.966  0.5089  0.4616  0.2955
26551SOL    HW181660   6.153   0.140   2.000  0.9018  2.1863  1.6905
26551SOL    HW281661   6.253   0.064   1.916 -1.9575  0.3935 -0.2528
26552SOL     OW81662   8.713   6.076   1.522 -0.6435  0.1047  0.2052
26552SOL    HW181663   8.750   6.008   1.465  0.4705  0.8122  0.0597
26552SOL    HW281664   8.630   6.100   1.480 -1.0601 -1.1613  0.2683
26553SOL     OW81665   0.331  10.808   8.496 -0.1174 -0.2736 -0.1432
26553SOL    HW181666   0.413  10.842   8.460 -0.1783 -0.5887 -0.5921
26553SOL    HW281667   0.274  10.885   8.501  0.5177  0.1482  1.1191
26554SOL     OW81668   6.164   5.435   4.752 -0.5490 -0.7859  0.3647
26554SOL    HW181669   6.249   5.418   4.791 -0.1326 -1.0100 -0.6042
26554SOL    HW281670   6.122   5.350   4.747 -0.2345 -0.9010 -0.4808
26555SOL     OW81671   0.495   7.234   7.054  0.3188  0.1628  0.5854
26555SOL    HW181672   0.489   7.204   7.145 -0.4514 -0.1575  0.4346
26555SOL    HW281673   0.568   7.183   7.018 -0.3785 -0.8739  0.5970
26556SOL     OW81674   9.797   8.355   3.368 -0.1504  0.0733 -0.7898
26556SOL    HW181675   9.782   8.328   3.459  0.4188 -1.7242 -1.1973
26556SOL    HW281676   9.889   8.382   3.366  0.3837 -1.6664 -1.2037
26557SOL     OW81677   0.254   9.103   4.164 -0.9523 -0.0732 -0.5796
26557SOL    HW181678   0.318   9.098   4.235  0.1203 -0.6521 -1.5418
26557SOL    HW281679   0.274   9.186   4.120 -2.4852  0.9482  0.5473
26558SOL     OW81680   1.532   5.076  10.513 -0.1856 -0.6198  0.8642
26558SOL    HW181681   1.515   4.985  10.487  0.4820 -1.0602  1.9322
26558SOL    HW281682   1.445   5.112  10.532 -0.6814 -0.3801 -1.5371
26559SOL     OW81683   0.875   5.434   3.473 -0.2640 -0.3544 -0.2054
26559SOL    HW181684   0.932   5.509   3.490 -2.9288  1.7613  0.0874
26559SOL    HW281685   0.889   5.414   3.381  1.6066 -0.5595  0.0748
26560SOL     OW81686   9.973   1.328   1.455  0.2315 -0.0450  0.2105
26560SOL    HW181687  10.064   1.304   1.439 -0.0844 -1.2137  0.0780
26560SOL    HW281688   9.945   1.269   1.525 -1.3517 -1.9963 -1.9294
26561SOL     OW81689   8.352  10.047   9.460  0.6095  0.6217 -0.2967
26561SOL    HW181690   8.353  10.135   9.498  0.3973  1.1613 -1.5069
26561SOL    HW281691   8.429  10.044   9.404  0.5288  0.1011 -0.3860
26562SOL     OW81692   0.508   2.899   0.738 -0.0649  0.8717 -0.1762
26562SOL    HW181693   0.580   2.887   0.676  2.1977  0.2625  2.3816
26562SOL    HW281694   0.481   2.810   0.761 -0.3320  1.0799  0.3219
26563SOL     OW81695   6.395   7.396   9.528 -0.3052 -0.3439 -0.1325
26563SOL    HW181696   6.402   7.489   9.550  1.9505 -0.4630 -0.0981
26563SOL    HW281697   6.321   7.392   9.467  0.4090  1.7285 -1.2740
26564SOL     OW81698   4.082   0.799   9.888  0.2502 -0.4031 -0.1819
26564SOL    HW181699   3.987   0.802   9.873  0.1086  1.6520  0.7599
26564SOL    HW281700   4.094   0.845   9.971  2.1376 -0.1774 -0.5425
26565SOL     OW81701   5.140   3.864   9.743 -0.0160  1.0376 -0.7746
26565SOL    HW181702   5.114   3.949   9.708  0.5786  0.0332 -3.9192
26565SOL    HW281703   5.235   3.869   9.750  0.0567  0.5308 -1.3341
26566SOL     OW81704   5.269   7.536   6.437 -0.0811 -0.1256 -0.1555
26566SOL    HW181705   5.188   7.586   6.436  0.1401  0.3190  1.1920
26566SOL    HW281706   5.306   7.546   6.349 -1.3999 -0.2180 -0.7357
26567SOL     OW81707   0.822   0.626   2.517 -0.1864 -0.6363  0.4519
26567SOL    HW181708   0.831   0.677   2.437  0.2512 -0.7131  0.4504
26567SOL    HW281709   0.826   0.691   2.588 -2.0092 -0.3928  0.3782
26568SOL     OW81710   6.550   2.824   0.982  0.0792 -0.3201  0.3286
26568SOL    HW181711   6.462   2.848   0.955  0.2457 -0.7097 -0.5880
26568SOL    HW281712   6.604   2.901   0.960  0.2133 -0.6346 -0.4547
26569SOL     OW81713   6.177   8.432   0.343  0.2377  0.4282 -0.2692
26569SOL    HW181714   6.176   8.456   0.436 -0.5309  0.5945 -0.3139
26569SOL    HW281715   6.115   8.359   0.337  2.1468 -1.2908 -0.2213
26570SOL     OW81716   5.997   4.293   8.141 -0.8391  0.2021  0.1702
26570SOL    HW181717   5.954   4.355   8.083 -0.2467 -0.0765 -0.5903
26570SOL    HW281718   6.080   4.335   8.164 -0.2765 -0.4355 -0.6310
26571SOL     OW81719   7.478  10.411   9.794 -0.2332 -0.6092 -0.0346
26571SOL    HW181720   7.513  10.497   9.815  1.8207 -0.9935 -1.5163
26571SOL    HW281721   7.529  10.382   9.718  0.0866 -3.6555  1.1583
26572SOL     OW81722   4.893   5.210  10.373  0.8020  0.2936  0.2966
26572SOL    HW181723   4.923   5.119  10.370  2.8180  0.9418 -1.5438
26572SOL    HW281724   4.955   5.253  10.431 -0.3361  0.4773  1.4127
26573SOL     OW81725   1.296   6.496   8.999 -0.1294 -0.3519 -0.4742
26573SOL    HW181726   1.325   6.426   8.940 -0.4463 -0.5837 -0.3609
26573SOL    HW281727   1.374   6.549   9.014 -0.5333  1.0784 -2.9475
26574SOL     OW81728  10.216   4.011   4.316  0.3450  0.0216  0.1791
26574SOL    HW181729  10.268   3.932   4.330  0.1884 -0.4815 -1.7858
26574SOL    HW281730  10.158   3.989   4.243 -0.6514  1.5112  0.4800
26575SOL     OW81731   8.084   9.842   5.970  0.4217  0.2607  0.1380
26575SOL    HW181732   8.100   9.857   6.063  1.3337  0.6179 -0.0681
26575SOL    HW281733   8.168   9.861   5.928 -0.2333  1.0529 -0.8621
26576SOL     OW81734  10.202   9.057   9.745  0.1135  0.1076 -0.1202
26576SOL    HW181735  10.161   9.064   9.831  2.6014 -2.5199  1.4898
26576SOL    HW281736  10.188   8.966   9.719 -0.4472  0.8042 -2.5082
26577SOL     OW81737   7.429   0.260   9.522  0.4201 -0.0251  0.4640
26577SOL    HW181738   7.458   0.345   9.487 -0.0119 -0.5886 -1.3690
26577SOL    HW281739   7.334   0.267   9.525  0.2904 -0.9194 -1.0526
26578SOL     OW81740   4.150  10.752   0.331  1.0440 -0.3385  0.0212
26578SOL    HW181741   4.226  10.810   0.340  0.6934  0.4151 -1.6246
26578SOL    HW281742   4.175  10.691   0.261  0.1743 -0.1371 -0.4695
26579SOL     OW81743   6.835   6.271   2.733 -0.4600 -0.4518 -0.2928
26579SOL    HW181744   6.767   6.205   2.732 -2.0738  1.0614  1.5137
26579SOL    HW281745   6.859   6.281   2.826  2.6976 -1.3258 -0.8846
26580SOL     OW81746  10.263   9.083   1.897 -0.5756  0.0824  0.0946
26580SOL    HW181747  10.215   9.108   1.818 -0.8903 -0.4314  0.1223
26580SOL    HW281748  10.234   9.146   1.963 -2.4788 -1.1966  0.5587
26581SOL     OW81749  10.873   6.190   0.969  0.2852 -0.3138  0.0762
26581SOL    HW181750  10.799   6.134   0.946  1.2867 -1.0569 -1.4560
26581SOL    HW281751  10.929   6.135   1.024  1.3209 -0.9123 -1.5133
26582SOL     OW81752   6.062   3.177   8.820 -0.3900  0.0681 -0.0194
26582SOL    HW181753   6.022   3.201   8.736 -0.4561  0.1128  0.0253
26582SOL    HW281754   5.997   3.201   8.886 -0.9657 -1.3135 -0.0445
26583SOL     OW81755   9.312   6.056  10.561 -0.4796  0.1607 -0.4176
26583SOL    HW181756   9.318   5.965  10.593  0.1896 -0.2538 -1.6574
26583SOL    HW281757   9.274   6.104  10.634 -0.7004 -1.0915  0.3288
26584SOL     OW81758   6.106   3.037   7.517  0.1909  0.6240 -0.3796
26584SOL    HW181759   6.179   3.049   7.457 -0.0849  1.7777 -0.5184
26584SOL    HW281760   6.074   2.949   7.499  0.6232  0.6498 -1.3427
26585SOL     OW81761   3.724   8.382  10.846  0.2907 -0.8055  0.3935
26585SOL    HW181762   3.713   8.354  10.755  0.5183 -0.4162  0.2437
26585SOL    HW281763   3.782   8.316  10.884  1.1705 -0.3296 -0.0745
26586SOL     OW81764   3.451   0.819   1.245  0.1174  0.7403 -0.0849
26586SOL    HW181765   3.437   0.726   1.226  3.0395  0.1903 -0.0552
26586SOL    HW281766   3.426   0.864   1.164 -0.2577 -0.1776 -0.4949
26587SOL     OW81767   6.661   8.393   4.526 -0.3047 -0.1117  0.0574
26587SOL    HW181768   6.644   8.458   4.595  0.0789 -0.2222  0.2561
26587SOL    HW281769   6.630   8.310   4.562  0.0627 -0.2019  0.1737
26588SOL     OW81770   8.700   5.922   7.004 -0.2362  0.3525 -0.0025
26588SOL    HW181771   8.705   5.916   6.909 -1.2138  1.7337 -0.1766
26588SOL    HW281772   8.739   5.840   7.035  2.2341  0.8396 -1.5041
26589SOL     OW81773   2.768   0.081  10.811 -0.4536  0.5423  0.0651
26589SOL    HW181774   2.845   0.091  10.755 -1.3739 -0.1797 -1.4241
26589SOL    HW281775   2.802   0.077  10.900  1.1247  1.2617 -0.4790
26590SOL     OW81776   5.616   7.594   3.717  0.4608  0.0970 -0.1441
26590SOL    HW181777   5.711   7.578   3.723  0.2180 -0.8916  1.8527
26590SOL    HW281778   5.586   7.529   3.653  0.9847 -0.3185  0.0183
26591SOL     OW81779   2.699   9.414   6.271  0.4137 -0.1313  0.0672
26591SOL    HW181780   2.752   9.485   6.234 -0.0163 -0.5390 -1.3950
26591SOL    HW281781   2.759   9.340   6.279 -0.0497 -0.9220 -2.5675
26592SOL     OW81782   7.455   6.115   3.643 -0.0336  0.2757  0.0536
26592SOL    HW181783   7.379   6.078   3.688 -0.1883  0.0342 -0.4111
26592SOL    HW281784   7.529   6.095   3.701 -0.1270 -0.6556 -0.1329
26593SOL     OW81785   0.170   6.059  10.497  0.3461  0.6010 -0.0453
26593SOL    HW181786   0.113   5.983  10.492 -1.9157  2.1604  0.3310
26593SOL    HW281787   0.123   6.120  10.555  1.7013  2.5531 -0.8989
26594SOL     OW81788   7.970   1.351   6.341  0.4587 -0.2668  0.1927
26594SOL    HW181789   7.910   1.350   6.266  1.1567 -0.0974 -0.3843
26594SOL    HW281790   8.005   1.262   6.345 -1.6496 -1.1292  2.0810
26595SOL     OW81791   0.492   5.408   4.267 -0.3264 -0.1120 -0.5561
26595SOL    HW181792   0.531   5.472   4.208  0.0203  0.9330  0.7588
26595SOL    HW281793   0.557   5.339   4.274  0.0225  0.2036 -0.6714
26596SOL     OW81794   7.559   3.714   7.132 -0.8259 -0.1408  0.1704
26596SOL    HW181795   7.526   3.758   7.054 -0.8701  0.9565  0.7904
26596SOL    HW281796   7.641   3.760   7.152 -0.1812 -1.2229  0.0652
26597SOL     OW81797   8.515   5.237   7.742 -0.2503  0.0570 -0.6632
26597SOL    HW181798   8.435   5.245   7.689 -0.2143  0.1092 -0.7090
26597SOL    HW281799   8.551   5.151   7.717 -1.1569 -0.7117  0.5420
26598SOL     OW81800  10.092   8.090   4.029 -0.4998 -0.7433  0.2485
26598SOL    HW181801  10.104   8.179   4.063  2.4971 -1.0803  0.3726
26598SOL    HW281802  10.072   8.103   3.936  1.0168  0.1159  0.0025
26599SOL     OW81803   6.083   0.699  11.020 -0.3473  0.6074  0.8484
26599SOL    HW181804   6.025   0.754  11.072 -1.4572 -0.3686  0.6780
26599SOL    HW281805   6.149   0.668  11.083 -0.3186  1.2853  1.1574
26600SOL     OW81806  10.898   1.179  11.035  0.5696  0.2827  1.2177
26600SOL    HW181807  10.907   1.097  11.083  0.3522 -0.1271  0.5674
26600SOL    HW281808  10.986   1.218  11.037  1.5803 -1.5668 -1.2977
26601SOL     OW81809   6.777   7.590   1.535 -0.1495  0.3541 -0.1245
26601SOL    HW181810   6.735   7.654   1.593 -1.8082  0.0533 -0.9267
26601SOL    HW281811   6.738   7.606   1.449  1.5672  0.1676 -0.9942
26602SOL     OW81812   9.902   1.149   8.047  0.1459  0.0274 -0.4975
26602SOL    HW181813   9.929   1.077   8.104  1.3494  0.2804 -0.7104
26602SOL    HW281814   9.984   1.193   8.024 -0.4929  0.9991 -0.9943
26603SOL     OW81815   5.163   6.905   3.621  0.4153  0.2360 -0.0125
26603SOL    HW181816   5.247   6.874   3.655  1.5301  0.4081 -2.3950
26603SOL    HW281817   5.116   6.935   3.699  2.8736  0.8960  1.3519
26604SOL     OW81818   7.357   6.863   5.325 -0.2363 -0.0844 -0.4921
26604SOL    HW181819   7.305   6.884   5.403  0.0649  1.9038 -0.7616
26604SOL    HW281820   7.401   6.945   5.304  1.5435 -1.2153 -1.3891
26605SOL     OW81821   5.524   1.662   4.006  0.1979  0.1926  0.1288
26605SOL    HW181822   5.547   1.715   3.930 -0.6391 -0.6195 -0.7183
26605SOL    HW281823   5.596   1.600   4.014  0.9389  1.1087  0.8257
26606SOL     OW81824   8.318   9.343   1.551 -0.0449 -0.2356 -0.4364
26606SOL    HW181825   8.374   9.394   1.493  1.7983  1.1332  2.2940
26606SOL    HW281826   8.231   9.351   1.514  1.0077  0.4233 -3.0064
26607SOL     OW81827   9.574   9.022   3.242 -0.1354 -0.0636 -0.2535
26607SOL    HW181828   9.480   9.032   3.227 -0.1145  0.3185 -0.1379
26607SOL    HW281829   9.610   9.110   3.226 -0.0796  0.3305  1.7666
26608SOL     OW81830   3.818  11.072   8.112  0.2764 -0.3468  0.6726
26608SOL    HW181831   3.889  11.063   8.048  0.2053  0.5055  0.4638
26608SOL    HW281832   3.739  11.047   8.064  0.3535 -0.6967  0.7262
26609SOL     OW81833   9.866   2.093   6.554  0.5089  0.8697 -0.3068
26609SOL    HW181834   9.843   2.001   6.567 -0.8936  0.9171 -2.0711
26609SOL    HW281835   9.902   2.121   6.638 -1.6226 -0.5350  1.1804
26610SOL     OW81836   5.501   3.954   8.674  0.0440 -0.5189  0.4496
26610SOL    HW181837   5.594   3.939   8.653 -0.0319 -0.4172  0.0396
26610SOL    HW281838   5.464   3.866   8.681 -0.7788 -0.6954 -3.6090
26611SOL     OW81839   9.140   8.754   4.399  0.0557 -0.1010  0.5974
26611SOL    HW181840   9.226   8.716   4.386 -0.3407 -1.4287  1.5941
26611SOL    HW281841   9.081   8.679   4.403 -1.2372  0.8009 -0.5380
26612SOL     OW81842   5.956   8.410   5.178  0.3653 -0.1483  0.0239
26612SOL    HW181843   6.015   8.406   5.102 -1.1191 -0.7163 -1.1507
26612SOL    HW281844   5.961   8.501   5.208  1.0808  0.0455 -0.6547
26613SOL     OW81845   9.783   1.894   3.440  0.2601 -0.2409  0.4204
26613SOL    HW181846   9.776   1.819   3.381  1.5236  0.6589 -0.9516
26613SOL    HW281847   9.780   1.970   3.382 -0.1977  0.7571  1.7041
26614SOL     OW81848   4.614   2.369   9.841 -0.2850  0.0771  0.2637
26614SOL    HW181849   4.600   2.423   9.763  2.2929 -1.3346 -1.3304
26614SOL    HW281850   4.705   2.339   9.833  0.1581  0.0058  3.9514
26615SOL     OW81851   0.277   8.348   9.023 -0.1295  0.2735 -0.4479
26615SOL    HW181852   0.251   8.371   8.934  1.3069  1.7295 -0.5372
26615SOL    HW281853   0.197   8.312   9.063 -1.7019  2.5519 -1.3290
26616SOL     OW81854   9.864   5.360   1.883  0.0072 -0.5009  0.1865
26616SOL    HW181855   9.941   5.331   1.933 -1.2022 -2.4898  1.0052
26616SOL    HW281856   9.800   5.290   1.895 -0.8853 -0.3780 -2.9751
26617SOL     OW81857   8.996  10.465   4.516 -0.4347 -0.1123 -0.3202
26617SOL    HW181858   8.992  10.402   4.445  0.9581 -1.1272  0.4511
26617SOL    HW281859   9.052  10.536   4.482  0.9099 -0.9806  0.0090
26618SOL     OW81860   6.963   8.849   4.093 -0.2892  0.2357 -0.2894
26618SOL    HW181861   6.890   8.895   4.051 -0.6058 -1.7849 -2.1263
26618SOL    HW281862   6.983   8.776   4.034  1.8525 -0.5074  1.2148
26619SOL     OW81863   4.619   8.722   1.731  0.2966  0.4087 -0.0145
26619SOL    HW181864   4.566   8.742   1.654  0.6340  0.3462 -0.2659
26619SOL    HW281865   4.659   8.637   1.712  1.5766  1.0783 -0.4334
26620SOL     OW81866   4.884   6.424   0.505 -0.6300  0.0962  0.1780
26620SOL    HW181867   4.967   6.402   0.461 -0.3423 -0.3431  0.9163
26620SOL    HW281868   4.879   6.361   0.577 -1.6893  0.0240  0.0468
26621SOL     OW81869   8.324   9.676  10.159 -0.5656 -0.1706  0.3921
26621SOL    HW181870   8.231   9.659  10.176 -0.5236 -1.2217 -0.2970
26621SOL    HW281871   8.332   9.669  10.064  0.2963 -0.5415  0.4805
26622SOL     OW81872   2.649  10.473   5.143  0.4196 -0.5655  0.4261
26622SOL    HW181873   2.670  10.550   5.195 -0.5015 -1.3020  1.9460
26622SOL    HW281874   2.732  10.424   5.139  0.2436 -1.0916  2.2747
26623SOL     OW81875   5.490   4.403   2.391 -0.1196 -0.0483  0.4988
26623SOL    HW181876   5.516   4.363   2.307 -0.3231  1.3194 -0.2523
26623SOL    HW281877   5.532   4.349   2.457 -0.0572 -1.2442 -0.4840
26624SOL     OW81878   3.671   4.093   7.434  0.1094 -0.8000  0.1326
26624SOL    HW181879   3.629   4.125   7.354  1.5511 -0.2618 -0.4496
26624SOL    HW281880   3.642   4.002   7.442 -1.0953 -0.4662 -0.2593
26625SOL     OW81881  10.164   0.774   4.665 -0.0580  0.4340  0.9599
26625SOL    HW181882  10.162   0.780   4.570  0.0589  0.5335  0.9629
26625SOL    HW281883  10.131   0.686   4.685  2.3427 -0.5884  0.7082
26626SOL     OW81884   7.897   6.665   6.067  0.0314 -0.0450 -0.0977
26626SOL    HW181885   7.897   6.572   6.046 -0.1474 -0.5951  2.0881
26626SOL    HW281886   7.978   6.678   6.117 -0.3001  0.8277  0.2216
26627SOL     OW81887   1.663   8.490   6.967  0.3413 -0.0078 -0.7080
26627SOL    HW181888   1.743   8.436   6.963  0.9988  0.4929  2.7290
26627SOL    HW281889   1.694   8.575   6.997 -1.3973  0.3626  0.1346
26628SOL     OW81890   0.511   7.883   8.322  0.5359  0.6396  0.1830
26628SOL    HW181891   0.481   7.877   8.413 -0.1423 -0.9202 -0.1018
26628SOL    HW281892   0.605   7.896   8.328  0.5302  0.3136  1.1135
26629SOL     OW81893   5.621   7.649   8.780  0.4842 -0.0981 -0.1150
26629SOL    HW181894   5.657   7.567   8.746 -1.9795 -1.1679 -0.4023
26629SOL    HW281895   5.669   7.665   8.861 -0.6709 -3.3351  1.3840
26630SOL     OW81896   4.194   6.436   1.276 -0.2551 -0.2493 -0.0628
26630SOL    HW181897   4.258   6.375   1.242 -2.1387 -3.1760  1.2616
26630SOL    HW281898   4.224   6.457   1.364 -0.1807 -0.1226 -0.1175
26631SOL     OW81899   2.176   7.014   2.106  0.1907 -0.5578 -0.0947
26631SOL    HW181900   2.147   7.051   2.189 -0.7047  0.8036 -0.9788
26631SOL    HW281901   2.202   7.090   2.054  2.0643 -1.4737 -0.6065
26632SOL     OW81902   5.089   4.705   3.675  0.9348 -0.0004  0.0695
26632SOL    HW181903   5.102   4.652   3.596  0.9066  2.0112 -1.3415
26632SOL    HW281904   5.177   4.712   3.713  0.7824 -1.8814  0.8901
26633SOL     OW81905   1.725   9.531   1.932  0.5663  0.3376  0.1620
26633SOL    HW181906   1.740   9.625   1.931  2.3044  0.0911 -1.2329
26633SOL    HW281907   1.647   9.518   1.878 -0.0680  1.0108  0.8956
26634SOL     OW81908   6.751   7.719  10.489  0.3087  0.5428  0.4249
26634SOL    HW181909   6.752   7.784  10.559  3.3827 -0.4590  1.4530
26634SOL    HW281910   6.724   7.637  10.532  0.0629  0.3603 -0.0665
26635SOL     OW81911   4.176   3.790   1.429  0.1699 -0.3323 -0.0067
26635SOL    HW181912   4.086   3.812   1.409 -0.5544 -1.5999  1.5524
26635SOL    HW281913   4.225   3.812   1.350 -1.3851  0.9788 -0.6535
26636SOL     OW81914   9.116   8.776   4.699  0.1042  0.2033  0.7943
26636SOL    HW181915   9.093   8.799   4.609  1.2446  1.8675  0.8885
26636SOL    HW281916   9.104   8.681   4.703  3.0459 -0.5002 -2.1006
26637SOL     OW81917  10.939  10.545   6.766 -0.0722 -0.1093  0.6120
26637SOL    HW181918  10.898  10.519   6.848  0.3270  2.0625  1.5575
26637SOL    HW281919  10.867  10.547   6.703 -0.8959  0.8131  1.5547
26638SOL     OW81920   9.619   7.476   8.657  0.6890 -0.1124  0.1481
26638SOL    HW181921   9.594   7.480   8.749 -1.1369 -1.6253 -0.2183
26638SOL    HW281922   9.677   7.551   8.644 -0.9451  1.5682  1.9596
26639SOL     OW81923   4.252   9.171   0.192 -0.2834 -0.3002 -0.1184
26639SOL    HW181924   4.307   9.236   0.147 -0.6301 -0.7868 -1.2783
26639SOL    HW281925   4.162   9.201   0.178 -0.4014 -0.5071  0.1753
26640SOL     OW81926   7.758   7.808   6.326  0.1775  0.0779  0.4657
26640SOL    HW181927   7.702   7.732   6.340  2.9579 -2.2363 -0.1075
26640SOL    HW281928   7.707   7.882   6.361 -3.7069 -1.5431 -1.2289
26641SOL     OW81929   6.623   3.171   4.335 -0.2349 -0.9748 -0.2971
26641SOL    HW181930   6.682   3.244   4.318  1.8924 -2.9830 -2.4744
26641SOL    HW281931   6.545   3.191   4.283 -1.5245  1.5334  2.3171
26642SOL     OW81932   6.585   7.731   9.053  0.1318  0.1932  0.2811
26642SOL    HW181933   6.596   7.826   9.049 -3.2836  0.6705 -0.6990
26642SOL    HW281934   6.565   7.713   9.144  0.7408  0.3936  0.4602
26643SOL     OW81935   5.008   7.255   6.096 -0.2082 -0.9780 -0.0587
26643SOL    HW181936   5.018   7.349   6.111 -1.4855 -0.5356 -1.7764
26643SOL    HW281937   5.087   7.230   6.049 -0.2452 -0.5996 -0.3252
26644SOL     OW81938   5.751   9.139   2.421  0.5730 -0.7319  0.5592
26644SOL    HW181939   5.724   9.216   2.471 -1.8293 -0.9126 -0.3289
26644SOL    HW281940   5.794   9.174   2.344 -0.5123 -0.2402  0.1584
26645SOL     OW81941   6.464  11.026   0.768  0.4002  0.5487  0.1670
26645SOL    HW181942   6.545  10.976   0.770  0.4068  0.5081 -0.6492
26645SOL    HW281943   6.493  11.118   0.770  0.4748  0.5354 -0.2102
26646SOL     OW81944   8.802   9.103   7.300  0.5995  0.1870  0.5751
26646SOL    HW181945   8.800   9.049   7.221  1.6610 -1.8039  1.8279
26646SOL    HW281946   8.791   9.041   7.372  0.9924  1.7665  2.0551
26647SOL     OW81947   8.420  10.439  11.008 -0.0793 -0.1805 -0.0875
26647SOL    HW181948   8.375  10.459  11.090  0.7878  0.6340  0.2037
26647SOL    HW281949   8.488  10.376  11.032  1.0039  1.0231  0.0718
26648SOL     OW81950   5.466   7.652   3.367  0.3795  0.1652  0.4962
26648SOL    HW181951   5.503   7.573   3.405  0.1941 -0.5938 -0.8483
26648SOL    HW281952   5.372   7.644   3.381  0.3363  0.0193  0.1131
26649SOL     OW81953   3.349  10.420   7.001 -0.5027 -0.0443  0.4133
26649SOL    HW181954   3.280  10.449   7.061 -0.0449 -1.4551  1.6919
26649SOL    HW281955   3.305  10.360   6.941 -0.6599  0.1627  0.3195
26650SOL     OW81956   2.783   5.560   0.170  0.0808  0.0496 -0.0322
26650SOL    HW181957   2.739   5.508   0.238 -0.4344  1.1355  0.4818
26650SOL    HW281958   2.854   5.504   0.139 -0.9490 -1.2965 -0.0704
26651SOL     OW81959   7.303   4.474   0.542 -0.4272 -0.2467  0.1230
26651SOL    HW181960   7.238   4.455   0.610 -0.8499 -2.2555 -0.7784
26651SOL    HW281961   7.369   4.406   0.552  0.7007  0.7854 -0.0608
26652SOL     OW81962   0.179  10.323   9.236  0.4147 -0.4738  0.7748
26652SOL    HW181963   0.240  10.372   9.181 -1.5425  2.0445  0.6717
26652SOL    HW281964   0.132  10.390   9.286 -1.0297 -2.4008  2.1652
26653SOL     OW81965   2.254   9.555   8.466  0.2254  0.2521  0.4327
26653SOL    HW181966   2.227   9.475   8.420 -2.0686  1.9049 -1.3244
26653SOL    HW281967   2.300   9.523   8.544  0.7552 -2.7350 -0.9406
26654SOL     OW81968   2.243   8.425   9.478  0.2410  0.4416  0.3940
26654SOL    HW181969   2.232   8.486   9.551 -2.2856  0.4061  0.1179
26654SOL    HW281970   2.244   8.339   9.519 -1.8044  0.3815  0.4101
26655SOL     OW81971   4.635   5.231   2.293 -0.6212  0.5728  0.1070
26655SOL    HW181972   4.574   5.282   2.346  1.2558  0.4481  2.5667
26655SOL    HW281973   4.585   5.153   2.268 -2.3167  1.7741 -0.3983
26656SOL     OW81974   9.854   2.253   7.760 -0.6769 -0.3565 -0.2462
26656SOL    HW181975   9.795   2.310   7.809  0.0279 -1.1701  1.6690
26656SOL    HW281976   9.895   2.198   7.827  1.3957 -0.5949 -1.6126
26657SOL     OW81977   6.315   1.516   0.271  0.2067 -0.2243 -0.2334
26657SOL    HW181978   6.223   1.544   0.270  0.6888  1.7005  1.7258
26657SOL    HW281979   6.317   1.444   0.335 -0.1805 -1.5116 -1.6037
26658SOL     OW81980   6.977   4.058   0.681 -0.2085  0.0474  0.5135
26658SOL    HW181981   6.882   4.061   0.692 -0.0148  0.1242  2.4297
26658SOL    HW281982   6.998   3.964   0.679 -0.3274  0.0263 -0.1887
26659SOL     OW81983   7.441   6.859   9.772  0.3426 -0.4246  0.3137
26659SOL    HW181984   7.403   6.782   9.815  0.2866 -0.4149  0.2808
26659SOL    HW281985   7.394   6.933   9.811 -3.0986 -0.5555 -3.0206
26660SOL     OW81986   2.937  10.235   6.451 -0.3417 -0.1263 -0.1522
26660SOL    HW181987   2.975  10.221   6.364 -1.9723  0.6659 -1.0325
26660SOL    HW281988   2.845  10.212   6.441 -0.6514  0.4291  1.2468
26661SOL     OW81989   6.644   0.542   3.459 -0.0691 -0.3249  0.0947
26661SOL    HW181990   6.569   0.598   3.484 -1.1037 -1.3570 -0.6027
26661SOL    HW281991   6.622   0.511   3.371  0.0509 -2.5233  0.8010
26662SOL     OW81992   5.905   1.279   0.355  0.2560  0.2121  0.2337
26662SOL    HW181993   5.976   1.274   0.419  0.4402 -2.3966 -0.0694
26662SOL    HW281994   5.928   1.215   0.288 -1.2313  1.0070 -1.1022
26663SOL     OW81995   6.825   2.547   9.737  0.2526 -0.2007 -0.3150
26663SOL    HW181996   6.886   2.547   9.811  1.1370 -2.2885 -0.9731
26663SOL    HW281997   6.878   2.572   9.662 -0.7694  2.5088 -0.2679
26664SOL     OW81998   5.236   8.315   2.714 -0.3777 -0.5906 -0.7203
26664SOL    HW181999   5.186   8.362   2.780  1.5141  2.3250 -1.1497
26664SOL    HW282000   5.191   8.335   2.632  0.4108  0.6022 -0.8992
26665SOL     OW82001   5.749   2.732   4.045  0.1227  0.0061 -0.2737
26665SOL    HW182002   5.732   2.684   4.126 -0.1438  0.7846  0.1443
26665SOL    HW282003   5.753   2.824   4.072 -1.5823  0.4558 -1.3573
26666SOL     OW82004   6.532   6.273   7.380 -0.3081 -0.3619 -0.0004
26666SOL    HW182005   6.556   6.329   7.454  0.5660 -0.2751 -0.3453
26666SOL    HW282006   6.442   6.245   7.400 -1.2128  2.0452 -0.3546
26667SOL     OW82007   8.744   5.849   5.405 -0.1888  0.3028  0.3230
26667SOL    HW182008   8.676   5.782   5.410 -0.2230  0.2477 -0.6628
26667SOL    HW282009   8.776   5.858   5.495 -1.7996  0.6501  0.9076
26668SOL     OW82010   7.512   0.809   1.118  0.5376  0.4521  0.0243
26668SOL    HW182011   7.578   0.799   1.187  1.7044  1.1034 -0.9608
26668SOL    HW282012   7.559   0.790   1.037 -0.1936  1.9729 -0.7993
26669SOL     OW82013   5.470   9.343   2.936  0.7866 -0.3035  0.0946
26669SOL    HW182014   5.448   9.422   2.888 -2.0113  0.8919  2.9505
26669SOL    HW282015   5.544   9.367   2.991 -0.4642  0.6667  1.4359
26670SOL     OW82016   4.612  10.414   9.531 -0.1774  0.1806  0.1553
26670SOL    HW182017   4.542  10.350   9.521 -0.0128  0.1572 -0.9618
26670SOL    HW282018   4.689  10.362   9.553  0.4056 -0.2766 -2.6464
26671SOL     OW82019   6.385   8.227   0.490  0.1822 -0.0464  0.3413
26671SOL    HW182020   6.334   8.221   0.571 -2.1839  0.7324 -0.9766
26671SOL    HW282021   6.360   8.312   0.453  0.7003 -0.6548 -1.5031
26672SOL     OW82022   4.897   7.294   4.830 -0.1692  0.1512 -0.0256
26672SOL    HW182023   4.948   7.289   4.912 -0.9196 -1.4063  0.3704
26672SOL    HW282024   4.920   7.214   4.783 -1.7128 -0.2379 -0.1437
26673SOL     OW82025  10.288   7.815   0.066 -0.4213 -0.3402  0.2175
26673SOL    HW182026  10.352   7.747   0.090 -0.0693 -0.3669 -0.7690
26673SOL    HW282027  10.341   7.890   0.040 -0.7576 -0.4992 -1.0139
26674SOL     OW82028   8.638   9.788   5.838  0.3986  0.2994 -0.4618
26674SOL    HW182029   8.723   9.768   5.877  1.9397  1.7591 -2.7393
26674SOL    HW282030   8.585   9.710   5.852  2.0236 -0.5732  1.2306
26675SOL     OW82031   8.572   7.398   1.188  0.0628 -0.0210 -0.1483
26675SOL    HW182032   8.596   7.330   1.124 -1.6175  0.0100 -0.8467
26675SOL    HW282033   8.511   7.355   1.247 -0.9932  0.8373 -0.5749
26676SOL     OW82034   5.984   6.512   0.496 -0.2948  0.3273 -0.0079
26676SOL    HW182035   5.928   6.522   0.419  0.5866 -1.5621 -0.9678
26676SOL    HW282036   6.072   6.535   0.465 -0.3204  2.2869  1.2156
26677SOL     OW82037  10.555   8.688   2.887 -0.2707 -0.2336  0.7059
26677SOL    HW182038  10.590   8.600   2.878  2.0437  0.7968 -1.3305
26677SOL    HW282039  10.461   8.678   2.869 -0.0077 -2.2012  0.2232
26678SOL     OW82040   6.704  10.277   8.941 -0.1628 -0.0961 -0.4322
26678SOL    HW182041   6.681  10.358   8.896  0.8870  0.1950 -0.4765
26678SOL    HW282042   6.786  10.250   8.900 -1.4173 -2.2218 -1.7609
26679SOL     OW82043   2.758   9.368  10.010  0.2757 -0.4958 -0.3101
26679SOL    HW182044   2.766   9.443  10.069 -0.1421 -0.8472  0.2071
26679SOL    HW282045   2.672   9.331  10.031 -1.2296  1.0650 -3.1276
26680SOL     OW82046   4.386   5.129   6.195  0.5230 -0.3460 -0.4355
26680SOL    HW182047   4.418   5.108   6.108 -0.5207  0.2295 -0.9662
26680SOL    HW282048   4.383   5.224   6.197 -3.6448 -0.2971 -1.3883
26681SOL     OW82049   5.649   8.157   7.832  0.1148  0.5691 -0.0422
26681SOL    HW182050   5.656   8.219   7.759  0.5850  1.0277  0.3820
26681SOL    HW282051   5.732   8.110   7.831 -1.4451 -2.4760 -2.4513
26682SOL     OW82052   5.918   5.808  10.578 -0.1630 -0.0757  0.5310
26682SOL    HW182053   6.000   5.845  10.610  0.0126  1.2259 -1.2772
26682SOL    HW282054   5.855   5.826  10.647  0.3490  1.9854  0.5172
26683SOL     OW82055   4.301   1.575   2.490 -0.3042 -0.0557  0.0869
26683SOL    HW182056   4.240   1.616   2.429  0.5445  2.4907  0.8181
26683SOL    HW282057   4.378   1.554   2.437  0.1193  1.4220  0.0630
26684SOL     OW82058   0.977   6.762   5.034 -0.1945  0.0907  0.0529
26684SOL    HW182059   0.922   6.696   5.077  0.8121  0.3528  1.8297
26684SOL    HW282060   1.053   6.713   5.003 -0.4969  0.0606 -0.6735
26685SOL     OW82061   5.726   7.645  10.318 -0.1664 -0.1609 -0.0071
26685SOL    HW182062   5.735   7.729  10.273  1.3118  1.3428  2.8538
26685SOL    HW282063   5.815   7.618  10.340 -0.5739 -2.6515 -0.9698
26686SOL     OW82064   4.068   6.092   2.576  0.2272  0.3276 -0.1080
26686SOL    HW182065   4.057   6.097   2.481  0.4416  0.4197 -0.1280
26686SOL    HW282066   4.060   6.182   2.606 -0.3890  0.2328  0.0235
26687SOL     OW82067   7.437   9.261  10.570 -0.2559 -0.2514 -0.0751
26687SOL    HW182068   7.477   9.174  10.581  0.1876 -0.0218  0.1551
26687SOL    HW282069   7.474   9.294  10.489 -1.5717 -0.8855 -0.9753
26688SOL     OW82070   5.325   9.932   5.881 -0.2166  0.8915  0.5840
26688SOL    HW182071   5.289  10.020   5.875 -0.5943  0.6622 -1.6119
26688SOL    HW282072   5.251   9.877   5.907 -0.4299  1.0034  0.2249
26689SOL     OW82073   9.495   0.946   3.671  0.7693  0.3799 -0.1904
26689SOL    HW182074   9.583   0.912   3.654  0.7964 -0.0314  0.7476
26689SOL    HW282075   9.447   0.931   3.589  1.9899  2.0400 -1.2977
26690SOL     OW82076   7.395   1.141   3.179 -0.2620  0.6108 -0.6160
26690SOL    HW182077   7.460   1.151   3.249 -1.4847  0.9764  0.5175
26690SOL    HW282078   7.360   1.230   3.167 -0.3064  0.4840 -1.4664
26691SOL     OW82079   4.233   0.628   7.125  0.0607  0.0083  0.1085
26691SOL    HW182080   4.140   0.606   7.126 -0.0769  0.3905 -1.2929
26691SOL    HW282081   4.253   0.641   7.032  1.5065 -0.0391  0.3896
26692SOL     OW82082  11.095   2.663   9.265 -0.1627 -0.3949  0.2623
26692SOL    HW182083  11.071   2.708   9.184 -1.8888  1.7729  1.8681
26692SOL    HW282084  11.166   2.715   9.301 -0.7962 -0.0917  1.1206
26693SOL     OW82085   4.462   9.865   7.652 -0.1238 -0.0907 -0.2769
26693SOL    HW182086   4.407   9.895   7.580 -2.7088 -1.0598  1.1631
26693SOL    HW282087   4.500   9.783   7.621 -0.5201 -0.0663 -0.8428
26694SOL     OW82088   8.506   5.016   2.623 -0.1043  0.4044  0.6570
26694SOL    HW182089   8.430   5.038   2.571 -1.4178 -0.0959  2.2541
26694SOL    HW282090   8.570   4.982   2.560 -1.1810  0.8651 -0.7271
26695SOL     OW82091   2.833   8.838   1.392  0.4741  0.0343  0.1024
26695SOL    HW182092   2.750   8.791   1.389 -0.0353  0.8970  0.3165
26695SOL    HW282093   2.871   8.823   1.305 -1.2719  1.9913 -1.1100
26696SOL     OW82094   4.343   4.074   4.554  0.9191 -0.1281  0.0103
26696SOL    HW182095   4.287   4.151   4.544  0.7796 -0.1141  0.8465
26696SOL    HW282096   4.302   4.006   4.501  0.2234 -0.0626  0.4670
26697SOL     OW82097   9.950   1.453  10.239  0.4858  0.2084 -0.4256
26697SOL    HW182098   9.954   1.546  10.218  1.7533 -0.0273 -1.2731
26697SOL    HW282099  10.003   1.410  10.172 -2.0818 -1.4074 -1.5779
26698SOL     OW82100   9.525   6.011   0.472  0.4885 -0.4427 -0.4013
26698SOL    HW182101   9.509   5.917   0.472  1.2527 -0.5753 -0.6863
26698SOL    HW282102   9.603   6.023   0.527 -0.0686  0.1099  0.2975
26699SOL     OW82103   9.756   5.455   2.512 -0.1131 -0.3337 -0.1396
26699SOL    HW182104   9.696   5.521   2.477  1.4227  2.0770  1.4631
26699SOL    HW282105   9.731   5.446   2.604  1.0554 -0.3755  0.1934
26700SOL     OW82106   3.571   8.471  10.209 -0.2334 -0.7278 -0.5511
26700SOL    HW182107   3.615   8.422  10.139  0.6482  0.0666 -0.5739
26700SOL    HW282108   3.540   8.404  10.269  0.2646 -1.3546 -0.9794
26701SOL     OW82109   2.366   9.909   8.255 -0.0997 -0.7576 -0.0858
26701SOL    HW182110   2.411   9.918   8.171 -0.1871 -0.0286 -0.0596
26701SOL    HW282111   2.273   9.909   8.233 -0.1137 -0.9578 -0.0251
26702SOL     OW82112   8.861   1.412   0.970 -0.2478  0.1970  0.2039
26702SOL    HW182113   8.779   1.459   0.980 -0.1871  0.3328  0.0834
26702SOL    HW282114   8.928   1.481   0.975 -0.1748  0.1695 -0.2961
26703SOL     OW82115   4.714   6.833   3.647 -0.2672  0.0041 -0.1588
26703SOL    HW182116   4.763   6.870   3.722 -0.8815  1.4303 -0.4234
26703SOL    HW282117   4.625   6.824   3.679  0.1209 -2.6683  0.3432
26704SOL     OW82118   7.392   8.957   5.153  0.0254 -0.0772 -0.1209
26704SOL    HW182119   7.460   8.969   5.086 -0.5800  1.5298 -0.4953
26704SOL    HW282120   7.433   8.902   5.219  0.7475 -1.4849 -1.6506
26705SOL     OW82121   3.037   9.649   1.744 -0.3598 -0.1230 -0.1258
26705SOL    HW182122   3.038   9.742   1.721  1.2930  0.2860  1.3560
26705SOL    HW282123   3.109   9.611   1.694 -0.1363 -0.3016  0.3231
26706SOL     OW82124   3.959   9.594   6.882 -0.5823  0.1966 -0.1706
26706SOL    HW182125   3.955   9.518   6.824 -0.6507  0.7825 -0.9523
26706SOL    HW282126   4.027   9.649   6.845 -0.5928  0.5658  0.3430
26707SOL     OW82127   8.634   4.842   8.483  0.1484 -0.2046 -0.4833
26707SOL    HW182128   8.677   4.858   8.398  0.4395  2.3630  0.0596
26707SOL    HW282129   8.667   4.912   8.539 -0.2144 -1.7246  1.7190
26708SOL     OW82130  10.166  10.285  11.004 -0.8799  0.7688 -0.8152
26708SOL    HW182131  10.250  10.330  11.003 -0.4686  0.2949  2.3706
26708SOL    HW282132  10.186  10.195  10.977 -0.5728  0.9244 -1.1068
26709SOL     OW82133   9.254   8.966  10.940  0.1194 -0.2373 -0.0941
26709SOL    HW182134   9.255   9.023  11.016 -2.0069 -0.3442  0.0761
26709SOL    HW282135   9.293   9.018  10.870 -3.8228  2.5278 -0.5712
26710SOL     OW82136   7.567   6.566   1.630  0.0609  0.2442  0.0523
26710SOL    HW182137   7.524   6.538   1.549 -1.1737  1.7457  0.1451
26710SOL    HW282138   7.550   6.494   1.691 -1.2526  0.2175 -0.3036
26711SOL     OW82139   6.594   8.263   1.931  0.0700 -0.1122 -0.2282
26711SOL    HW182140   6.540   8.326   1.979 -0.1802 -1.7156  1.7392
26711SOL    HW282141   6.632   8.314   1.859 -0.6283  2.1006  0.8652
26712SOL     OW82142   5.463   4.405   3.008  0.1355  0.6581 -0.1109
26712SOL    HW182143   5.370   4.390   3.023  0.3327 -0.0008  0.4916
26712SOL    HW282144   5.470   4.499   2.989 -0.5954  0.7808  0.2312
26713SOL     OW82145   1.137  10.004  10.921 -0.0359 -0.6018 -0.3146
26713SOL    HW182146   1.155  10.068  10.990  0.3741 -1.3854  0.3208
26713SOL    HW282147   1.054  10.033  10.882  0.8161  1.0976 -0.9781
26714SOL     OW82148   7.187   8.162   7.818  0.0742 -0.5571  0.4973
26714SOL    HW182149   7.275   8.153   7.781 -0.4808 -0.1971 -0.9697
26714SOL    HW282150   7.142   8.081   7.791 -0.5875  0.0800 -0.3961
26715SOL     OW82151   9.543   4.872   0.941 -0.1949 -0.2459 -0.1110
26715SOL    HW182152   9.573   4.924   1.015 -0.8969 -1.2771  0.9131
26715SOL    HW282153   9.606   4.893   0.871 -0.9123  2.5793 -0.0264
26716SOL     OW82154   3.503   3.367   8.715  0.1769 -0.2675  0.4140
26716SOL    HW182155   3.447   3.413   8.777  1.2409  0.9469  0.5080
26716SOL    HW282156   3.463   3.280   8.707 -2.3251  0.8686 -0.3433
26717SOL     OW82157  10.619  10.694  10.264 -0.6341 -0.4063  0.3596
26717SOL    HW182158  10.540  10.713  10.213 -0.0262  1.9621  0.1680
26717SOL    HW282159  10.691  10.707  10.202  0.0807  1.8025  1.5276
26718SOL     OW82160   5.285   8.196  10.124 -0.2170 -0.3413 -0.2720
26718SOL    HW182161   5.197   8.170  10.099 -0.6664  0.5568  0.3447
26718SOL    HW282162   5.277   8.287  10.151  0.8503 -0.3244  0.0473
26719SOL     OW82163   8.748   2.726   8.202 -0.1939 -0.5039  0.4635
26719SOL    HW182164   8.777   2.809   8.239 -0.4328 -0.8193  1.3966
26719SOL    HW282165   8.773   2.661   8.268  1.9301 -1.4633 -1.1816
26720SOL     OW82166   5.617   6.708  10.274 -0.2442  0.3883  0.2194
26720SOL    HW182167   5.687   6.743  10.329  1.1668 -1.6305 -0.1815
26720SOL    HW282168   5.626   6.613  10.280 -2.2860  0.0694 -0.7325
26721SOL     OW82169   5.373   5.620   7.620 -0.2670 -0.1631  0.5040
26721SOL    HW182170   5.280   5.643   7.619  0.1373  1.6112  0.1567
26721SOL    HW282171   5.387   5.573   7.537 -0.6769  0.3362  0.1457
26722SOL     OW82172   7.759   1.287   4.327  0.1843  0.0578  0.8611
26722SOL    HW182173   7.712   1.300   4.410  0.0748  0.5072  0.7347
26722SOL    HW282174   7.849   1.313   4.346 -0.1906  1.7925  0.4156
26723SOL     OW82175   7.542   7.225   7.545  0.2616 -0.2186  0.2791
26723SOL    HW182176   7.569   7.213   7.636  0.5422 -2.6766 -0.0708
26723SOL    HW282177   7.615   7.274   7.505  0.3946  0.3732  1.2255
26724SOL     OW82178   0.213   0.654   3.423  0.4240  0.1315 -0.1650
26724SOL    HW182179   0.164   0.572   3.416  0.6222  0.0290 -0.3733
26724SOL    HW282180   0.154   0.720   3.387  0.4816 -0.0086 -0.5201
26725SOL     OW82181  11.027   9.950   9.873  0.5596  0.0147  0.0225
26725SOL    HW182182  10.958   9.884   9.858 -0.4737  1.4586 -2.1161
26725SOL    HW282183  11.103   9.899   9.900 -0.1653 -2.1162 -1.6221
26726SOL     OW82184   2.760   9.326   7.441  0.1402 -0.1674 -0.1751
26726SOL    HW182185   2.822   9.384   7.395 -0.5130  1.0202  0.4178
26726SOL    HW282186   2.730   9.266   7.373  0.9210  0.1041 -0.7830
26727SOL     OW82187   8.321   7.606   7.921  0.1480 -0.4381 -0.2798
26727SOL    HW182188   8.394   7.669   7.920 -0.2580  0.0667  0.8833
26727SOL    HW282189   8.248   7.654   7.882  0.1246 -0.5712 -0.4033
26728SOL     OW82190   8.230  10.124   4.541 -0.1474  0.1320 -0.7829
26728SOL    HW182191   8.325  10.111   4.543 -0.1616  0.1526  0.0691
26728SOL    HW282192   8.217  10.210   4.579 -0.7300 -1.2306  2.4147
26729SOL     OW82193   9.570  10.408   3.360  0.7951  0.5744 -0.1096
26729SOL    HW182194   9.547  10.501   3.360 -0.3688  0.3145 -0.4081
26729SOL    HW282195   9.580  10.386   3.267 -2.7035 -0.3919 -0.4144
26730SOL     OW82196   9.091  10.570   7.128  0.0319 -0.1137  0.1921
26730SOL    HW182197   9.010  10.588   7.081  0.3261  1.5808  0.2480
26730SOL    HW282198   9.136  10.505   7.074 -1.4862 -1.3269  0.3395
26731SOL     OW82199   6.081   9.118   3.508 -0.1865 -0.5875  0.3763
26731SOL    HW182200   6.126   9.052   3.455  0.4698 -0.1271  0.3417
26731SOL    HW282201   6.147   9.187   3.520 -1.6890  1.4815 -2.0713
26732SOL     OW82202   8.817   3.767   5.832 -0.8142 -0.2810 -0.1744
26732SOL    HW182203   8.802   3.830   5.762 -0.5701 -0.9073 -0.8106
26732SOL    HW282204   8.742   3.776   5.891 -0.9150  0.3980 -0.4061
26733SOL     OW82205   8.684   8.637   8.348 -0.3683  0.3383 -0.3419
26733SOL    HW182206   8.620   8.708   8.357  0.8264  1.7777 -2.3762
26733SOL    HW282207   8.641   8.573   8.291 -0.2071  1.0433 -1.2640
26734SOL     OW82208   6.838   5.437   2.365 -0.1392 -0.3249  0.4944
26734SOL    HW182209   6.926   5.439   2.402  0.1497 -3.5019  0.2479
26734SOL    HW282210   6.831   5.351   2.323 -2.6051  0.6906 -1.4787
26735SOL     OW82211  11.049  10.751   4.771  0.2845 -0.4110 -0.0690
26735SOL    HW182212  11.115  10.734   4.704  0.8901  0.1822  0.3560
26735SOL    HW282213  11.080  10.702   4.848 -0.9821 -2.0000 -0.5136
26736SOL     OW82214   6.348   1.875   0.046 -0.6761  0.6639  0.0168
26736SOL    HW182215   6.408   1.948   0.034 -1.1993  1.2910  1.0865
26736SOL    HW282216   6.404   1.802   0.073 -0.3172  1.0838  0.4288
26737SOL     OW82217   2.919  11.074   1.080  0.0457  0.2524  0.0808
26737SOL    HW182218   2.917  11.169   1.092 -1.5408  0.2687 -0.0551
26737SOL    HW282219   2.973  11.042   1.152  2.0686  1.3503 -0.8536
26738SOL     OW82220   7.441   0.316   2.725 -0.6692  0.1514 -0.1820
26738SOL    HW182221   7.367   0.302   2.785  0.7507  0.0460  1.6388
26738SOL    HW282222   7.413   0.274   2.643 -1.9492 -1.4236  0.9743
26739SOL     OW82223  10.840   5.849   2.613  0.3955  0.0761 -0.0666
26739SOL    HW182224  10.792   5.872   2.534 -0.2322  0.4687  0.4102
26739SOL    HW282225  10.787   5.885   2.684  0.9439 -0.2687  0.5319
26740SOL     OW82226   2.322  10.901  11.064  0.4523  0.5520 -0.2162
26740SOL    HW182227   2.417  10.913  11.063  0.5333 -0.0157  0.2694
26740SOL    HW282228   2.289  10.973  11.119  0.6989  0.1196  0.5061
26741SOL     OW82229   6.331   4.165   6.550 -0.4596 -0.2848  0.3421
26741SOL    HW182230   6.329   4.164   6.455  4.0961 -1.2524  0.0521
26741SOL    HW282231   6.295   4.251   6.574 -3.0460 -0.5686 -2.0442
26742SOL     OW82232   3.344   0.426   9.164  0.3295 -0.1514  0.0378
26742SOL    HW182233   3.382   0.445   9.079  1.7143 -0.4689  0.5704
26742SOL    HW282234   3.393   0.481   9.226 -1.4103  0.9453  0.5224
26743SOL     OW82235   4.366   4.295   5.135  0.1683  0.1388  0.3847
26743SOL    HW182236   4.358   4.233   5.062 -0.6639 -1.8385  2.0293
26743SOL    HW282237   4.323   4.374   5.105  1.1753 -0.0814 -1.7843
26744SOL     OW82238   8.957   0.825   9.405  0.5090  0.0488  0.5075
26744SOL    HW182239   8.971   0.916   9.378 -0.3878  0.0929  0.1388
26744SOL    HW282240   9.027   0.776   9.363  1.3396  0.6437  1.1756
26745SOL     OW82241   9.864   2.607   6.572  0.0265  0.0245  0.6061
26745SOL    HW182242   9.916   2.527   6.579 -0.1861  0.0092  2.2746
26745SOL    HW282243   9.878   2.636   6.482  1.6982 -0.8102  0.5531
26746SOL     OW82244   6.680   8.699   3.126  0.2217 -0.2123 -0.4498
26746SOL    HW182245   6.597   8.739   3.154  1.6682  2.0550  0.9207
26746SOL    HW282246   6.656   8.644   3.051 -2.3233  1.4074 -0.9465
26747SOL     OW82247   8.710   9.961   3.838  0.5858 -0.3682 -0.2393
26747SOL    HW182248   8.692  10.048   3.876 -1.8737 -1.3615  1.1064
26747SOL    HW282249   8.658   9.959   3.757  1.6923 -0.1366 -0.9682
26748SOL     OW82250   6.276   1.858   0.461 -0.8757 -0.2476  0.0179
26748SOL    HW182251   6.245   1.945   0.488 -1.8098 -0.2051 -1.1100
26748SOL    HW282252   6.205   1.799   0.484 -1.3577 -0.3222 -1.5133
26749SOL     OW82253   1.885   9.464   4.229  0.2027 -0.2708 -0.2664
26749SOL    HW182254   1.879   9.559   4.238  0.8667 -0.3497  1.4414
26749SOL    HW282255   1.948   9.451   4.159 -0.8824  0.5193 -1.4390
26750SOL     OW82256   9.957   7.924   8.909  0.5745 -0.1854 -0.4090
26750SOL    HW182257   9.993   8.009   8.932 -0.0975  0.3229 -1.1618
26750SOL    HW282258  10.033   7.865   8.906  0.9758  0.2690  0.5775
26751SOL     OW82259   3.558   9.992   7.824  0.2571  0.1240 -0.1805
26751SOL    HW182260   3.497  10.055   7.863 -0.2074 -0.5488  0.1946
26751SOL    HW282261   3.512   9.908   7.828  0.0608  0.0591 -2.4283
26752SOL     OW82262   4.235   3.922   3.033  0.2862  0.4214  0.1412
26752SOL    HW182263   4.278   3.844   3.069  0.7462  0.4034 -0.4241
26752SOL    HW282264   4.296   3.953   2.966  0.0289  1.1785  0.2568
26753SOL     OW82265   7.667   0.078   9.106  0.4290  0.5029  0.1237
26753SOL    HW182266   7.593   0.078   9.046 -0.4326 -1.0105  1.1330
26753SOL    HW282267   7.737   0.033   9.058  0.0188  0.0529 -0.0607
26754SOL     OW82268   2.976   0.432   5.984 -0.1422  0.0243  0.5343
26754SOL    HW182269   3.041   0.448   6.052 -1.1962  2.3765  1.0919
26754SOL    HW282270   2.892   0.436   6.029 -0.7880 -1.1083 -0.4800
26755SOL     OW82271  10.042   7.464   2.979  0.3393 -0.3376 -0.2411
26755SOL    HW182272  10.029   7.445   2.886 -0.7997  0.7545 -0.3272
26755SOL    HW282273  10.020   7.556   2.988  5.2698  1.0719  0.2222
26756SOL     OW82274   6.535   5.316   8.851  0.1698  0.3512  0.0597
26756SOL    HW182275   6.555   5.359   8.935  0.6330  1.0257 -0.3879
26756SOL    HW282276   6.560   5.380   8.785 -0.1864 -0.1847 -0.5997
26757SOL     OW82277   6.102   7.791   8.240  0.1714  0.3991 -0.7386
26757SOL    HW182278   6.016   7.757   8.214  0.0495  0.1041  0.0269
26757SOL    HW282279   6.088   7.885   8.254  0.0890  0.4393 -1.0795
26758SOL     OW82280   2.282   6.188   1.000  0.5600  0.0593  0.3251
26758SOL    HW182281   2.314   6.239   1.074  0.8918 -1.0742  0.9955
26758SOL    HW282282   2.359   6.179   0.943  0.5282  0.2139  0.2570
26759SOL     OW82283   2.590   4.875   0.606 -0.4046 -0.8049  0.4767
26759SOL    HW182284   2.502   4.864   0.569  0.3100 -0.5653 -1.4172
26759SOL    HW282285   2.583   4.953   0.661 -0.8925  0.5775 -1.4288
26760SOL     OW82286  10.486  10.401   1.603 -0.6393  0.0575  0.0734
26760SOL    HW182287  10.461  10.421   1.694 -1.0438 -1.7250  0.3807
26760SOL    HW282288  10.509  10.309   1.604 -0.2446  0.1105 -1.5747
26761SOL     OW82289   4.857   9.729   4.176  0.1055  0.0264 -0.6128
26761SOL    HW182290   4.831   9.637   4.170  0.3284 -0.2600  1.7368
26761SOL    HW282291   4.854   9.748   4.270 -1.4045  2.8689 -1.1349
26762SOL     OW82292   9.260   0.649   0.091 -0.1189 -0.3227 -0.2379
26762SOL    HW182293   9.256   0.645  -0.005  1.3520  0.7686 -0.3836
26762SOL    HW282294   9.173   0.621   0.120 -1.4474  1.6661 -1.9918
26763SOL     OW82295  10.548  10.180   1.307  0.0771  0.0225 -0.4024
26763SOL    HW182296  10.504  10.250   1.354  0.2654 -0.2767  0.2323
26763SOL    HW282297  10.503  10.175   1.223 -0.5738  0.2491 -0.0718
26764SOL     OW82298   5.576  11.062   2.435  0.4801  0.0743 -0.0653
26764SOL    HW182299   5.655  11.022   2.398  0.4493 -0.2848  0.2470
26764SOL    HW282300   5.504  11.024   2.385  0.3180 -1.6238  1.3490
26765SOL     OW82301   4.604   6.216   2.277  0.2631 -0.0763 -0.4770
26765SOL    HW182302   4.539   6.182   2.216 -1.6983  1.4145  0.6573
26765SOL    HW282303   4.616   6.308   2.251 -0.7111  0.6305  1.3643
26766SOL     OW82304   9.250   8.144   5.817 -0.0152 -0.2068  0.1641
26766SOL    HW182305   9.335   8.101   5.828 -0.2373 -0.5993  0.3633
26766SOL    HW282306   9.203   8.125   5.898  0.5402  1.9606  1.0984
26767SOL     OW82307   4.704   5.155   2.978 -0.9251  0.0670  0.1644
26767SOL    HW182308   4.663   5.241   2.971  0.7632  0.8766 -0.1163
26767SOL    HW282309   4.718   5.127   2.887  0.8441  0.6798  0.2044
26768SOL     OW82310   9.571   3.408   3.366 -0.1641  0.2593 -0.2843
26768SOL    HW182311   9.485   3.370   3.352  0.3407 -0.6941 -0.9369
26768SOL    HW282312   9.621   3.341   3.411  1.1370 -0.4731 -2.6093
26769SOL     OW82313  10.350   7.960   1.078  0.5533  0.7289 -0.5109
26769SOL    HW182314  10.258   7.938   1.070  0.4985 -0.2493  1.8785
26769SOL    HW282315  10.393   7.913   1.006 -0.4744 -1.2914  0.1177
26770SOL     OW82316   6.387   3.293   1.958  0.1934  0.4666  0.4338
26770SOL    HW182317   6.313   3.321   2.011  0.2085 -0.1916  0.8076
26770SOL    HW282318   6.348   3.260   1.877 -0.1216 -2.0330  1.5295
26771SOL     OW82319   2.523  10.885   5.005 -0.3205  0.6731 -0.1815
26771SOL    HW182320   2.542  10.810   4.949 -0.5468  1.1504 -0.9090
26771SOL    HW282321   2.446  10.926   4.965 -0.6780  0.8452  0.6544
26772SOL     OW82322   9.845   0.065   1.173  0.5051 -0.3959 -0.1869
26772SOL    HW182323   9.766   0.056   1.227 -0.6235  1.6228 -1.3627
26772SOL    HW282324   9.831   0.146   1.124  3.3507  0.0348 -0.4443
26773SOL     OW82325   3.044   5.429   2.087  0.0023  0.2733 -0.2182
26773SOL    HW182326   3.122   5.483   2.078  0.2669  0.1922  1.3233
26773SOL    HW282327   3.055   5.384   2.171 -2.3613  1.3558  0.7658
26774SOL     OW82328   9.147   5.465   8.455  0.3618  0.3228 -0.0290
26774SOL    HW182329   9.125   5.541   8.401  0.5723  0.4121  0.0085
26774SOL    HW282330   9.225   5.429   8.414 -0.2592 -0.4202 -0.5875
26775SOL     OW82331   9.959   6.911   8.779 -0.3640  0.3015  0.2861
26775SOL    HW182332   9.949   7.003   8.753  0.5006 -0.0897 -1.6456
26775SOL    HW282333   9.933   6.861   8.701  0.0896 -1.0647  0.9754
26776SOL     OW82334   8.924   4.275   2.160  0.0698  0.7104  0.3045
26776SOL    HW182335   8.975   4.341   2.207  1.2928 -0.3379  0.4970
26776SOL    HW282336   8.961   4.274   2.072  0.4912 -0.1698  0.4867
26777SOL     OW82337   5.931  10.995   2.185  0.3692  0.7024 -0.3929
26777SOL    HW182338   5.861  10.938   2.217  2.2004 -0.7426  1.1824
26777SOL    HW282339   5.952  10.960   2.098  0.1883  0.2029 -0.2371
26778SOL     OW82340   9.296   9.288   9.701  0.3050 -0.9910  0.3055
26778SOL    HW182341   9.244   9.316   9.775 -0.2650 -0.0849 -0.4193
26778SOL    HW282342   9.233   9.256   9.637  0.6755 -0.4665 -0.3361
26779SOL     OW82343   6.833   6.597   1.643 -0.6319  0.3927  0.4510
26779SOL    HW182344   6.910   6.548   1.672 -0.0167  1.6645  1.0380
26779SOL    HW282345   6.759   6.550   1.681 -0.2759 -1.5884 -1.1717
26780SOL     OW82346   9.436   7.654   9.273  0.1055  0.1589 -0.0747
26780SOL    HW182347   9.342   7.669   9.265  0.3729  2.1256 -0.1326
26780SOL    HW282348   9.461   7.613   9.190 -0.5822  0.2925 -0.3558
26781SOL     OW82349   7.474   8.308   6.494 -0.6907 -0.2112 -0.2853
26781SOL    HW182350   7.472   8.287   6.401 -1.1687 -1.5323  0.0069
26781SOL    HW282351   7.550   8.261   6.528 -1.0706 -0.5202  0.1582
26782SOL     OW82352   4.330   8.270   7.267  0.0583  0.9616 -0.6151
26782SOL    HW182353   4.410   8.248   7.219 -0.2491  0.3647 -0.8717
26782SOL    HW282354   4.349   8.247   7.358 -0.7639 -1.9904 -1.0756
26783SOL     OW82355   5.479   0.122  10.090 -0.1499  0.3703  0.2604
26783SOL    HW182356   5.443   0.109  10.002 -2.4202 -1.6871  1.3934
26783SOL    HW282357   5.547   0.055  10.099  0.1720  0.6644  0.0551
26784SOL     OW82358   5.253   8.016   4.481  0.0518  0.3506 -0.6622
26784SOL    HW182359   5.220   8.029   4.570  0.1800 -1.9859 -0.2102
26784SOL    HW282360   5.175   8.010   4.426 -0.1323 -0.5437 -0.3170
26785SOL     OW82361   7.207   8.210   8.401  0.0162  0.5758 -0.0362
26785SOL    HW182362   7.194   8.218   8.307  0.0492  0.6597 -0.0338
26785SOL    HW282363   7.123   8.176   8.434 -0.7330  2.4972  0.1547
26786SOL     OW82364   3.450   3.570   6.221 -0.1584  0.1984  0.0315
26786SOL    HW182365   3.519   3.529   6.273  1.4356  0.6070 -1.6306
26786SOL    HW282366   3.383   3.502   6.212  0.0364 -0.2372  1.6250
26787SOL     OW82367   6.884  10.529   1.063  0.5009 -0.2173  0.0737
26787SOL    HW182368   6.942  10.459   1.033  0.8897  0.0367  0.2231
26787SOL    HW282369   6.819  10.485   1.118  0.9097 -0.4237  0.3929
26788SOL     OW82370   3.215   3.740   9.401  0.0555 -0.6134 -0.0691
26788SOL    HW182371   3.231   3.829   9.432  0.0269 -0.4519 -0.5124
26788SOL    HW282372   3.285   3.688   9.440  0.1996 -0.3593  0.0099
26789SOL     OW82373   9.662   9.642  10.068 -0.4619 -0.6129  0.2226
26789SOL    HW182374   9.695   9.732  10.070 -1.7729 -0.1099  1.5738
26789SOL    HW282375   9.666   9.613  10.159  1.0277 -2.3814 -0.3559
26790SOL     OW82376   6.328   9.062   6.176  0.4057 -0.0576  0.1918
26790SOL    HW182377   6.242   9.098   6.197  1.0326  0.7630  1.4794
26790SOL    HW282378   6.347   9.000   6.246  1.3416  0.6493  0.5975
26791SOL     OW82379   8.440   1.110   1.104 -0.4673  0.0780  0.0554
26791SOL    HW182380   8.430   1.065   1.021  1.6739  0.0888 -0.2546
26791SOL    HW282381   8.534   1.127   1.112 -0.9472  2.8561  1.0192
26792SOL     OW82382   9.268   9.326   8.303  0.0327  0.0594  0.4302
26792SOL    HW182383   9.203   9.376   8.254  0.1939  1.4465  1.5647
26792SOL    HW282384   9.218   9.254   8.342 -0.5402  0.2617  0.0837
26793SOL     OW82385   8.604   6.984   7.952 -0.2137  0.0298 -0.4242
26793SOL    HW182386   8.614   6.928   8.029  1.3695  0.9379  0.0664
26793SOL    HW282387   8.520   7.029   7.967 -0.7157 -1.0024 -0.0431
26794SOL     OW82388   5.309   6.392   1.541  0.4025 -0.6765 -0.8984
26794SOL    HW182389   5.341   6.340   1.467  0.8560 -0.4489 -0.8641
26794SOL    HW282390   5.359   6.361   1.616  0.2148 -0.6384 -0.7569
26795SOL     OW82391   6.274   1.074  10.829  0.0609  0.1583  0.0326
26795SOL    HW182392   6.311   0.997  10.786 -0.8316  0.0039 -0.4647
26795SOL    HW282393   6.208   1.039  10.888  0.0561  0.5034  0.2338
26796SOL     OW82394   0.444   0.349   1.524 -0.1753  0.0694  0.8159
26796SOL    HW182395   0.410   0.400   1.450 -1.8435 -0.0697  1.4300
26796SOL    HW282396   0.530   0.386   1.542 -0.9133  2.0145  0.6022
26797SOL     OW82397   7.324   5.910   2.716 -0.1269  0.5115  0.0405
26797SOL    HW182398   7.272   5.867   2.783 -1.3668  0.7829 -0.7047
26797SOL    HW282399   7.262   5.967   2.671  1.3635  2.7509  0.6927
26798SOL     OW82400   2.559   7.960   0.266 -0.3855  0.4882  0.2802
26798SOL    HW182401   2.542   8.052   0.245 -1.1804  0.7427  1.8890
26798SOL    HW282402   2.636   7.937   0.215 -1.3829  1.4315 -1.7466
26799SOL     OW82403  10.850   3.407   2.113 -0.0656  0.5374 -0.3234
26799SOL    HW182404  10.794   3.337   2.149  2.3146 -1.6819 -0.6395
26799SOL    HW282405  10.933   3.396   2.159  1.2719  1.2887 -2.4561
26800SOL     OW82406   1.035   6.676   9.408 -0.1442  0.2820  0.0630
26800SOL    HW182407   1.075   6.623   9.477 -2.7084 -0.5346  1.0114
26800SOL    HW282408   1.108   6.729   9.374  1.5377 -0.4543  2.2582
26801SOL     OW82409   7.366  10.775   3.142  0.1884 -0.1643 -0.1847
26801SOL    HW182410   7.404  10.718   3.209  0.7345  1.1857  0.7013
26801SOL    HW282411   7.438  10.793   3.081  0.3905  0.6295  0.2762
26802SOL     OW82412   8.317  10.148   1.666  0.1953 -0.1564  0.1638
26802SOL    HW182413   8.337  10.228   1.617  2.8222 -0.9971 -0.2927
26802SOL    HW282414   8.388  10.141   1.729 -1.2799 -0.9310  1.8260
26803SOL     OW82415   4.028  10.785   7.643  0.0073  0.2452 -0.0649
26803SOL    HW182416   4.073  10.815   7.722 -0.7090 -0.3706  0.5974
26803SOL    HW282417   4.033  10.689   7.648 -1.7722  0.1340  0.2995
26804SOL     OW82418  11.087  10.577   3.421 -0.0590  0.4564  0.3157
26804SOL    HW182419  11.119  10.539   3.340 -0.1273 -0.6657  0.7833
26804SOL    HW282420  11.004  10.531   3.438 -0.4497  1.2411  0.6100
26805SOL     OW82421   5.473   1.499   9.003 -0.0826  0.5952 -0.0788
26805SOL    HW182422   5.475   1.560   9.077  0.6186 -1.1310  1.4121
26805SOL    HW282423   5.549   1.522   8.950  0.1659  1.0189  0.4556
26806SOL     OW82424   5.827   0.281  10.335 -0.1779 -0.2938  0.1162
26806SOL    HW182425   5.839   0.236  10.251  0.9391  1.5192 -0.7672
26806SOL    HW282426   5.896   0.348  10.337 -0.0892 -0.3472  2.5535
26807SOL     OW82427   5.366   7.235   8.040  0.0731  0.0204  0.0395
26807SOL    HW182428   5.313   7.295   8.093  1.0931 -0.4254  1.6451
26807SOL    HW282429   5.341   7.255   7.949 -2.4768  0.1438  0.6704
26808SOL     OW82430  10.879   6.542   6.958  0.3626 -0.6038  0.0672
26808SOL    HW182431  10.933   6.504   6.888 -0.3249 -0.0451 -0.7885
26808SOL    HW282432  10.876   6.635   6.938  0.0316 -0.4561  0.7664
26809SOL     OW82433   3.041   8.628   2.379 -0.0651  0.8114  0.3795
26809SOL    HW182434   3.048   8.556   2.442  1.0904  0.0772 -0.5354
26809SOL    HW282435   2.949   8.652   2.380 -0.4714 -0.6404  0.7649
26810SOL     OW82436   7.116   3.604  10.685  0.5685 -0.2565  0.1624
26810SOL    HW182437   7.203   3.637  10.666  1.0927 -0.0196  2.6192
26810SOL    HW282438   7.107   3.525  10.631  1.4600  0.8267 -1.6359
26811SOL     OW82439   6.541   5.172   7.033 -0.6028  0.3265  0.1471
26811SOL    HW182440   6.491   5.090   7.032 -1.4491  0.8033  1.2410
26811SOL    HW282441   6.475   5.240   7.025  0.1111  0.9145 -0.9535
26812SOL     OW82442   0.006  10.139   2.209  0.1363 -0.6364  0.2701
26812SOL    HW182443  -0.065  10.184   2.163 -0.7210  0.7587  2.7257
26812SOL    HW282444  -0.027  10.051   2.224  0.1725 -0.9104 -1.1393
26813SOL     OW82445   6.194   6.364   2.520  0.9146  0.1576  0.3033
26813SOL    HW182446   6.224   6.282   2.559  0.0038 -0.0029  0.6786
26813SOL    HW282447   6.180   6.422   2.594 -1.8307 -0.4691  0.3854
26814SOL     OW82448   5.293  10.857  10.356  0.0611  0.4482 -0.0245
26814SOL    HW182449   5.368  10.844  10.414 -0.2187  0.6400  0.3862
26814SOL    HW282450   5.218  10.822  10.405  0.1628 -1.6659 -1.2519
26815SOL     OW82451   0.865   7.876   9.841  0.1173 -0.0790 -0.1490
26815SOL    HW182452   0.812   7.822   9.899  0.1454  0.0301 -0.0193
26815SOL    HW282453   0.826   7.964   9.848 -0.2278 -0.1826 -0.7280
26816SOL     OW82454   8.930   7.239   6.651 -0.5504  0.2615 -0.3129
26816SOL    HW182455   8.925   7.216   6.744  1.0322  0.4616 -0.1480
26816SOL    HW282456   8.915   7.157   6.605 -0.6802  0.0298  0.1360
26817SOL     OW82457   0.942   2.303   9.929 -0.4656 -0.4927 -0.1045
26817SOL    HW182458   0.954   2.309  10.024 -0.7359 -0.8521 -0.0459
26817SOL    HW282459   1.023   2.264   9.897 -0.4009 -0.4324 -0.0177
26818SOL     OW82460   3.821   7.413   7.385 -0.0304 -0.1997 -0.3988
26818SOL    HW182461   3.783   7.468   7.317 -1.5709  0.8452  1.2187
26818SOL    HW282462   3.770   7.332   7.383  1.0080 -0.8526 -1.5354
26819SOL     OW82463   4.574  10.690   6.070  0.3956 -0.1438 -0.0377
26819SOL    HW182464   4.540  10.603   6.050  1.5821 -0.4715 -0.7252
26819SOL    HW282465   4.634  10.677   6.143 -0.5997  0.3611  0.8944
26820SOL     OW82466   3.369   8.580   3.099 -0.2407 -0.0313 -0.6591
26820SOL    HW182467   3.313   8.651   3.130  1.2316  0.2327  1.6830
26820SOL    HW282468   3.453   8.594   3.144  0.6923 -2.2000 -1.5695
26821SOL     OW82469   3.509   7.208   3.418 -0.6753 -0.0945 -0.3270
26821SOL    HW182470   3.471   7.292   3.444 -1.5187  0.1322 -2.0911
26821SOL    HW282471   3.446   7.172   3.355  0.9441 -0.7949 -1.6248
26822SOL     OW82472   4.056   0.922   7.580  1.1302  0.1541  0.3340
26822SOL    HW182473   4.078   0.838   7.619 -0.0406 -1.3438 -2.0188
26822SOL    HW282474   3.966   0.912   7.548  0.9872  2.2748 -0.1297
26823SOL     OW82475   1.366   9.256  10.842  0.8309 -0.3152 -0.0387
26823SOL    HW182476   1.273   9.274  10.835  0.4671 -1.4543  1.3951
26823SOL    HW282477   1.407   9.341  10.858  0.0343  0.1633 -0.5110
26824SOL     OW82478   0.252  10.773   3.143 -0.2297 -0.2721 -0.5258
26824SOL    HW182479   0.256  10.793   3.236 -0.3461 -1.6987 -0.1901
26824SOL    HW282480   0.312  10.836   3.102 -0.7933  0.8965  0.3991
26825SOL     OW82481   9.789   3.690   8.179 -0.4283 -0.2382  0.4688
26825SOL    HW182482   9.739   3.688   8.097 -1.2153  2.2100  0.8045
26825SOL    HW282483   9.878   3.714   8.151 -0.2527 -1.1502  0.2000
26826SOL     OW82484   8.998   9.364  10.407  0.0351  0.3791 -0.3753
26826SOL    HW182485   8.944   9.342  10.331 -1.3921  0.2962  0.6253
26826SOL    HW282486   8.948   9.333  10.483  0.3367  2.4472  0.7717
26827SOL     OW82487   7.014  10.994   1.518 -0.4152  0.1383  0.4339
26827SOL    HW182488   6.977  10.983   1.431 -0.2560 -0.5802  0.4469
26827SOL    HW282489   7.001  10.909   1.560  1.5353 -0.2678  0.3251
26828SOL     OW82490   0.588   4.953   1.870  0.0984 -0.1459 -0.1004
26828SOL    HW182491   0.657   4.916   1.815 -0.5095 -0.3706 -0.7249
26828SOL    HW282492   0.598   5.048   1.862 -0.0140 -0.1791 -0.6323
26829SOL     OW82493   5.877   5.311   4.494 -0.3894  0.3033  0.6959
26829SOL    HW182494   5.824   5.248   4.446  0.3015 -1.2581  1.8752
26829SOL    HW282495   5.819   5.385   4.509 -2.0754 -1.0835  1.4157
26830SOL     OW82496   5.773   5.225   8.878 -0.2725  0.2132  0.0491
26830SOL    HW182497   5.698   5.191   8.829 -0.8007  1.0569  0.2530
26830SOL    HW282498   5.798   5.305   8.831  0.8010 -0.2989 -0.2863
26831SOL     OW82499   9.199   7.986   2.667  0.4737  0.1271 -0.0524
26831SOL    HW182500   9.286   7.966   2.634  1.8380  1.7154  2.3133
26831SOL    HW282501   9.192   8.082   2.661 -0.6730  0.1157  0.7821
26832SOL     OW82502   1.069   0.846   6.238 -0.1352  0.2974 -0.1512
26832SOL    HW182503   1.064   0.839   6.333 -1.5519 -1.1631 -0.2711
26832SOL    HW282504   1.112   0.765   6.211 -0.5528  0.2734 -0.7748
26833SOL     OW82505   3.829   5.207   4.321 -0.0567 -0.0945 -0.7759
26833SOL    HW182506   3.917   5.172   4.308  0.5156  1.4363 -1.2695
26833SOL    HW282507   3.796   5.223   4.232 -1.3729 -1.8468 -0.6495
26834SOL     OW82508   8.993   3.399   1.582  0.0611 -0.3123  0.1729
26834SOL    HW182509   9.058   3.457   1.622  0.8255 -0.9101 -0.1807
26834SOL    HW282510   8.973   3.335   1.651 -0.4162  0.0822  0.3997
26835SOL     OW82511   7.804   9.275   5.989 -0.4212  0.5289  0.3032
26835SOL    HW182512   7.835   9.364   6.007  0.4986  0.4174 -0.6505
26835SOL    HW282513   7.875   9.218   6.021 -0.8264  0.1526  0.5406
26836SOL     OW82514  10.415   3.542   8.240  0.1056 -0.2214 -0.4856
26836SOL    HW182515  10.357   3.473   8.211  2.0749 -2.4159  0.4744
26836SOL    HW282516  10.434   3.521   8.332  2.1105  0.5722 -0.6574
26837SOL     OW82517   8.329   8.057   5.974 -0.2092 -0.7605 -0.4911
26837SOL    HW182518   8.383   8.135   5.984  0.1414 -1.0757  0.2106
26837SOL    HW282519   8.266   8.079   5.907  0.0322  0.0456 -0.4605
26838SOL     OW82520   6.635   1.932   2.669 -0.0355  0.3025  0.6480
26838SOL    HW182521   6.545   1.929   2.700 -1.0868 -0.9721 -2.1909
26838SOL    HW282522   6.663   1.840   2.669 -0.1109  0.1986 -1.9005
26839SOL     OW82523   4.531   0.539   5.590  0.9472 -0.2147  0.1614
26839SOL    HW182524   4.504   0.588   5.512  2.7685  2.1121  0.8696
26839SOL    HW282525   4.451   0.528   5.641  0.1847  0.5048 -0.8448
26840SOL     OW82526   8.550   5.204   1.077 -0.5436  0.8137  0.4541
26840SOL    HW182527   8.482   5.141   1.100 -0.1827 -0.2911 -1.3320
26840SOL    HW282528   8.559   5.197   0.982  1.1357  1.8886  0.4809
26841SOL     OW82529   3.384   9.470   3.030  0.5251 -0.3123 -0.1580
26841SOL    HW182530   3.469   9.457   3.073  1.1143  0.3901 -1.0871
26841SOL    HW282531   3.321   9.473   3.103  1.2367 -1.1950  0.5182
26842SOL     OW82532   1.609   7.363   3.873 -0.4418 -0.1724  0.3607
26842SOL    HW182533   1.605   7.358   3.968 -0.3232  2.1555  0.5476
26842SOL    HW282534   1.536   7.419   3.848 -0.3368 -0.5586 -0.9034
26843SOL     OW82535   4.511   2.505   9.624  0.0053 -0.6389 -0.1726
26843SOL    HW182536   4.556   2.531   9.543 -0.0249  0.9103  0.2913
26843SOL    HW282537   4.450   2.576   9.642  0.3536 -0.7174  1.4739
26844SOL     OW82538   5.835   8.056   5.155 -0.2130 -0.6672 -0.0387
26844SOL    HW182539   5.806   8.104   5.078 -0.2421 -0.8974 -0.1710
26844SOL    HW282540   5.876   7.976   5.120 -1.2492 -1.3343  0.2217
26845SOL     OW82541   5.823   8.167   4.872  0.4561 -0.3450 -0.1545
26845SOL    HW182542   5.815   8.075   4.846  0.0506 -0.1790 -0.6210
26845SOL    HW282543   5.906   8.195   4.834  1.0625 -0.7812  0.8055
26846SOL     OW82544   8.150   1.451   5.013  0.3942  0.6177  0.2958
26846SOL    HW182545   8.190   1.434   4.927 -1.6515  0.4462 -0.6616
26846SOL    HW282546   8.188   1.383   5.070  1.5397  0.5383 -0.5192
26847SOL     OW82547   6.373   4.735   7.852 -0.3113 -0.6989 -0.0425
26847SOL    HW182548   6.406   4.647   7.870 -0.9820 -1.0644 -0.5137
26847SOL    HW282549   6.343   4.767   7.936  2.3496  0.1615  0.6730
26848SOL     OW82550   7.745   7.145   2.703  0.3556 -0.4039  0.3111
26848SOL    HW182551   7.778   7.168   2.616 -1.1764 -2.5827 -0.9484
26848SOL    HW282552   7.797   7.070   2.730  0.3323 -0.1942  0.9471
26849SOL     OW82553   7.795   7.883   0.250  0.0646 -0.4412 -0.2587
26849SOL    HW182554   7.830   7.966   0.218 -0.2836 -0.4147 -0.5797
26849SOL    HW282555   7.801   7.889   0.345 -0.4618  0.1735 -0.2609
26850SOL     OW82556   7.813   9.168   8.887  0.1593 -0.3407 -0.0402
26850SOL    HW182557   7.864   9.191   8.965 -0.0977  0.6439 -0.1437
26850SOL    HW282558   7.846   9.082   8.861  2.2335  0.5031 -0.4561
26851SOL     OW82559   8.572   7.675   3.827  0.1049  0.2301  0.0236
26851SOL    HW182560   8.601   7.733   3.897  1.3340  2.3358 -2.0748
26851SOL    HW282561   8.477   7.687   3.823  0.1239  0.6970  0.8238
26852SOL     OW82562   8.344   1.131   9.933 -0.3034  0.1059  0.5961
26852SOL    HW182563   8.276   1.184   9.891  2.0032  2.8335 -0.0202
26852SOL    HW282564   8.397   1.099   9.860  0.6752  0.4157  1.1554
26853SOL     OW82565   4.077   3.835   3.760  0.0387  0.2178 -0.3739
26853SOL    HW182566   4.032   3.875   3.686 -1.1018 -0.7117 -0.2038
26853SOL    HW282567   4.023   3.760   3.783  0.5496  0.3021  1.1953
26854SOL     OW82568   0.230   4.018   2.440 -0.1421  0.4228  0.0666
26854SOL    HW182569   0.148   4.039   2.395  0.1201 -1.3323 -1.3573
26854SOL    HW282570   0.201   3.979   2.523 -0.9865 -2.8502 -1.5876
26855SOL     OW82571   1.075   9.251   1.711 -0.0105  0.2118  0.6312
26855SOL    HW182572   1.126   9.237   1.631  1.1784  1.3810  1.1457
26855SOL    HW282573   0.998   9.300   1.684 -0.7147 -1.2295 -0.0976
26856SOL     OW82574   9.286   7.244   0.718 -0.3221 -0.3878  0.1920
26856SOL    HW182575   9.261   7.236   0.810  0.0793 -0.3291  0.3101
26856SOL    HW282576   9.323   7.158   0.697 -0.2698 -0.3505  0.1325
26857SOL     OW82577   7.249   3.023   4.263  0.1249 -0.4592  0.2235
26857SOL    HW182578   7.167   2.974   4.259  0.6868 -1.3627 -1.0027
26857SOL    HW282579   7.241   3.077   4.341 -2.0102  0.1388 -0.3291
26858SOL     OW82580   2.242  10.161   1.485 -0.3837 -0.1654 -0.4877
26858SOL    HW182581   2.265  10.213   1.407  0.2730 -0.4030 -0.4609
26858SOL    HW282582   2.326  10.126   1.515 -0.6685 -0.2687  0.1905
26859SOL     OW82583   0.133   5.437   0.648 -0.2416 -0.4515  0.1376
26859SOL    HW182584   0.210   5.389   0.679  0.1421 -0.7232 -1.1971
26859SOL    HW282585   0.147   5.527   0.676  0.9931 -0.3235 -0.8494
26860SOL     OW82586   5.764   4.941   8.133 -0.2736  0.4055  0.3047
26860SOL    HW182587   5.673   4.960   8.152 -0.3066 -0.2060  0.7928
26860SOL    HW282588   5.761   4.871   8.067 -0.1691 -0.4136  1.1512
26861SOL     OW82589   7.772   4.654   7.971 -0.4944 -0.3838 -0.1224
26861SOL    HW182590   7.806   4.594   8.038 -2.0801 -2.1308 -0.8017
26861SOL    HW282591   7.683   4.676   8.001 -0.0185  1.5921  0.0348
26862SOL     OW82592   8.937   9.853   0.224  0.1762  0.5918  0.3957
26862SOL    HW182593   9.029   9.826   0.222  0.1154  0.3676  0.5454
26862SOL    HW282594   8.902   9.812   0.303 -0.3367 -0.2342 -0.2509
26863SOL     OW82595   7.278  10.221   1.122 -0.2149 -0.9747  0.0798
26863SOL    HW182596   7.249  10.142   1.167 -0.8782 -1.0746 -0.5122
26863SOL    HW282597   7.290  10.195   1.031  1.1943 -0.7870  0.1885
26864SOL     OW82598   9.689  10.732   6.176  0.1647  0.6683 -0.0447
26864SOL    HW182599   9.709  10.713   6.084 -1.0609  2.1875 -0.6816
26864SOL    HW282600   9.603  10.693   6.190 -0.0535  1.2265  0.1820
26865SOL     OW82601   0.299   7.025   2.349 -0.9342 -0.0634 -0.0160
26865SOL    HW182602   0.253   7.044   2.267  0.5304  0.8317 -0.6685
26865SOL    HW282603   0.372   6.969   2.323  0.3809  1.3764  0.4114
26866SOL     OW82604   9.713   0.762   2.562 -0.0186 -0.4508 -0.5067
26866SOL    HW182605   9.716   0.717   2.646  0.0444  1.4703  0.5713
26866SOL    HW282606   9.740   0.696   2.498 -0.1335 -1.9675  0.9588
26867SOL     OW82607   6.921   8.525   0.074 -0.1134  0.1843 -0.5425
26867SOL    HW182608   6.849   8.574   0.115 -0.8368 -1.5040  0.2731
26867SOL    HW282609   6.905   8.535  -0.020 -0.8899  0.6022 -0.3790
26868SOL     OW82610   9.743   5.280   6.679  0.3670  0.0989  0.0157
26868SOL    HW182611   9.740   5.315   6.590  1.6242  1.0344  0.3147
26868SOL    HW282612   9.808   5.334   6.724  0.3761 -0.9064  1.2707
26869SOL     OW82613   1.116   5.328   4.070  0.9187  0.2549  0.6250
26869SOL    HW182614   1.102   5.237   4.098  0.1088  0.1252 -0.1716
26869SOL    HW282615   1.130   5.376   4.152  0.5915 -0.4618  1.1144
26870SOL     OW82616   6.478   8.548   2.712  0.0179  0.6160 -0.4240
26870SOL    HW182617   6.543   8.589   2.769 -0.2974  0.4537  0.0588
26870SOL    HW282618   6.502   8.577   2.624  1.4821 -0.3845 -0.4046
26871SOL     OW82619   8.256  10.234   8.959  0.3802  1.0910 -0.0055
26871SOL    HW182620   8.257  10.222   8.864  0.9490  2.0622 -0.1379
26871SOL    HW282621   8.163  10.242   8.981  0.1406 -0.8014 -0.2350
26872SOL     OW82622   9.895   7.726   7.508 -0.3489 -0.3728  0.0698
26872SOL    HW182623   9.921   7.688   7.424  1.0591 -1.4197  0.9281
26872SOL    HW282624   9.836   7.661   7.547  0.1575 -0.5843  0.5017
26873SOL     OW82625   4.770   9.626   6.962  0.0879  0.0219  0.3467
26873SOL    HW182626   4.849   9.612   6.911 -0.5566  1.3544 -1.0852
26873SOL    HW282627   4.713   9.552   6.939 -0.3730  0.8486 -1.2562
26874SOL     OW82628   4.283   4.760   3.950  0.2466  0.2920  0.0849
26874SOL    HW182629   4.191   4.743   3.932  0.2058  0.3592  0.2220
26874SOL    HW282630   4.287   4.768   4.045  0.1986  1.3789  0.0117
26875SOL     OW82631   5.647   4.349   2.193  0.6184 -0.1936 -0.5354
26875SOL    HW182632   5.737   4.324   2.210  1.2108  0.5776 -2.3312
26875SOL    HW282633   5.653   4.435   2.150 -0.9722  0.0002 -0.4300
26876SOL     OW82634   7.303   8.005   8.845  0.8145  0.0008 -0.2007
26876SOL    HW182635   7.349   7.946   8.785  1.4308  1.0414 -0.7794
26876SOL    HW282636   7.299   8.088   8.798 -0.0690  0.4208  0.5867
26877SOL     OW82637   9.215   6.868   0.983 -0.6164 -0.1410 -0.6263
26877SOL    HW182638   9.122   6.878   0.963 -0.9995 -1.9127  0.0965
26877SOL    HW282639   9.219   6.797   1.047  1.2810 -0.4813 -1.0471
26878SOL     OW82640   4.593   8.709   0.147 -0.4437  0.4008  0.0992
26878SOL    HW182641   4.536   8.759   0.090  0.0029  0.7691 -0.0321
26878SOL    HW282642   4.662   8.674   0.089 -2.1904 -2.6919 -0.3442
26879SOL     OW82643   2.047   5.223   7.767 -0.1427 -0.2106 -0.3015
26879SOL    HW182644   2.136   5.199   7.794  0.5501  2.1611 -0.2759
26879SOL    HW282645   2.052   5.230   7.672  0.3889  2.1950 -0.1567
26880SOL     OW82646   7.399   8.906   4.372 -0.1507  0.2647 -0.5853
26880SOL    HW182647   7.389   8.980   4.312  1.9015  0.4653 -0.7610
26880SOL    HW282648   7.492   8.882   4.365  0.1136  0.1023  2.2696
26881SOL     OW82649   7.707   6.543   5.038 -0.1998 -0.2680  0.1033
26881SOL    HW182650   7.630   6.581   5.080 -0.2552  0.7358 -0.8622
26881SOL    HW282651   7.753   6.498   5.109 -1.1368 -0.0100  0.8963
26882SOL     OW82652   6.646   7.477  10.609 -0.1344 -0.0604 -0.3808
26882SOL    HW182653   6.558   7.439  10.615 -0.2485 -0.0837 -1.9069
26882SOL    HW282654   6.705   7.402  10.610 -0.0381 -0.0006  1.7034
26883SOL     OW82655   2.031   9.991  10.201  0.0101 -0.2507 -0.1693
26883SOL    HW182656   1.943   9.997  10.163  0.2309 -0.6075 -0.7326
26883SOL    HW282657   2.037   9.901  10.234  0.6599 -0.6542 -1.3538
26884SOL     OW82658   9.545   8.990   8.374 -0.3418  0.3687 -0.6516
26884SOL    HW182659   9.601   8.975   8.451  0.5515 -0.3678 -1.4220
26884SOL    HW282660   9.545   9.085   8.363  0.2302  0.4205 -0.2505
26885SOL     OW82661   3.002  10.585  10.945 -0.1177 -0.1246 -0.3182
26885SOL    HW182662   3.070  10.586  11.012 -1.0111 -1.8082  0.6763
26885SOL    HW282663   3.051  10.580  10.862  1.0019  2.2328  0.1275
26886SOL     OW82664   0.258   6.961   4.769 -0.0757  0.6070 -0.3959
26886SOL    HW182665   0.353   6.955   4.785 -0.1955 -1.1806 -0.1556
26886SOL    HW282666   0.247   6.930   4.679 -0.4863  0.3489 -0.2558
26887SOL     OW82667   8.301   4.652   6.766  0.6595  0.5312  0.1694
26887SOL    HW182668   8.301   4.570   6.717  0.3758  2.0377 -2.5321
26887SOL    HW282669   8.355   4.635   6.843  1.6355 -1.7918 -0.9680
26888SOL     OW82670   5.827   3.653   5.894  0.8139  0.3263 -0.1558
26888SOL    HW182671   5.817   3.640   5.799 -3.2656  2.2942 -0.1961
26888SOL    HW282672   5.837   3.748   5.903 -0.1468  0.2988  1.4112
26889SOL     OW82673   6.546   7.121   1.499  0.1310  0.2206  0.2567
26889SOL    HW182674   6.566   7.039   1.455 -0.1874  0.2968 -0.0348
26889SOL    HW282675   6.619   7.135   1.559  0.3268 -0.1290  0.1002
26890SOL     OW82676  10.578   0.562   9.173 -0.9182  0.0400  0.3984
26890SOL    HW182677  10.608   0.498   9.109 -1.8621  2.0610 -2.2527
26890SOL    HW282678  10.652   0.621   9.185 -0.4665 -0.7745  1.8873
26891SOL     OW82679   4.681   0.018   3.533 -0.2456 -0.3596  0.2693
26891SOL    HW182680   4.733   0.006   3.454  1.0916 -2.3213  1.3363
26891SOL    HW282681   4.744   0.048   3.598 -0.8695 -0.7446  1.0768
26892SOL     OW82682   4.075   9.986   8.926 -0.1901  0.2795  0.1990
26892SOL    HW182683   4.146  10.040   8.960  0.1325  0.2944 -0.4736
26892SOL    HW282684   4.094   9.898   8.958  0.5111  0.1570 -0.5197
26893SOL     OW82685   4.889  10.327   4.201 -0.4921  0.2014 -0.0221
26893SOL    HW182686   4.886  10.321   4.297 -1.6530 -1.7783 -0.1235
26893SOL    HW282687   4.942  10.251   4.174 -0.9158  0.2221 -0.9658
26894SOL     OW82688  10.377   8.472   9.593  0.2986 -0.6788  0.0254
26894SOL    HW182689  10.309   8.426   9.545 -0.8743 -0.5741  1.4853
26894SOL    HW282690  10.416   8.532   9.529 -1.2407 -0.4790 -0.7681
26895SOL     OW82691   6.657   9.013   1.184  0.3842 -0.3186 -0.1687
26895SOL    HW182692   6.637   9.012   1.277 -0.4343  0.6165 -0.3166
26895SOL    HW282693   6.573   8.996   1.141  0.7922 -0.9552 -0.7399
26896SOL     OW82694   4.436  10.657   8.073  0.1718  0.1015  0.8635
26896SOL    HW182695   4.389  10.625   7.996  1.2027 -2.1636  1.0721
26896SOL    HW282696   4.528  10.658   8.047  0.2703  2.5372  1.0836
26897SOL     OW82697   8.414   0.406   8.401 -0.6038  0.3325  0.6559
26897SOL    HW182698   8.356   0.335   8.429  2.2519 -2.3750  0.2703
26897SOL    HW282699   8.431   0.456   8.480  0.0348 -1.5842  1.7916
26898SOL     OW82700   5.321   6.798   3.857  0.5096 -0.2310 -0.5624
26898SOL    HW182701   5.282   6.816   3.942 -0.3776  2.6428 -1.4759
26898SOL    HW282702   5.414   6.816   3.868  1.3798 -4.4404  0.8903
26899SOL     OW82703   7.713   6.234   0.953 -0.0136 -0.3089 -0.0902
26899SOL    HW182704   7.717   6.200   1.043  0.0094 -2.3454 -0.8128
26899SOL    HW282705   7.661   6.314   0.960 -0.2226 -0.5628  1.6945
26900SOL     OW82706   3.371   2.479   1.104 -0.1018  0.0281  0.3497
26900SOL    HW182707   3.460   2.514   1.094 -0.0476  0.0353  0.8478
26900SOL    HW282708   3.383   2.391   1.139 -0.3187  0.3594  1.2734
26901SOL     OW82709   6.522   0.513   8.235  0.3345 -0.6564 -0.2724
26901SOL    HW182710   6.545   0.576   8.167 -1.9495  0.2012 -0.3411
26901SOL    HW282711   6.555   0.552   8.316  0.7923 -0.4079 -0.5783
26902SOL     OW82712   8.711   9.661   1.609  0.3768 -0.2324  0.3656
26902SOL    HW182713   8.661   9.680   1.688  1.8498  0.5439  1.1558
26902SOL    HW282714   8.729   9.567   1.614 -3.3884 -1.2853 -1.4503
26903SOL     OW82715   9.343   4.612   2.550  0.2110  0.1674 -0.1613
26903SOL    HW182716   9.323   4.619   2.456  1.9100  1.5623 -0.4989
26903SOL    HW282717   9.367   4.702   2.575  0.1611 -0.2621  1.5234
26904SOL     OW82718   5.380   7.552   5.577 -0.4036 -0.3261 -0.2994
26904SOL    HW182719   5.464   7.509   5.598 -0.4473 -0.5753 -0.6224
26904SOL    HW282720   5.314   7.486   5.598 -0.6111  0.2953  1.1334
26905SOL     OW82721   8.631   8.406   9.303  0.4498 -0.2261 -0.2836
26905SOL    HW182722   8.548   8.445   9.276  0.0605 -1.4219 -0.8925
26905SOL    HW282723   8.671   8.376   9.221  0.1816 -2.1138  0.2335
26906SOL     OW82724   3.710   1.582   6.718 -0.2692  0.4171  0.4589
26906SOL    HW182725   3.678   1.586   6.628  0.8347 -2.3012 -0.1412
26906SOL    HW282726   3.641   1.622   6.771 -0.6830  2.6256 -1.5885
26907SOL     OW82727   7.801   2.417  10.301 -0.3551  0.4165 -0.8191
26907SOL    HW182728   7.753   2.417  10.383 -0.0222  1.6772 -0.6023
26907SOL    HW282729   7.889   2.387  10.324 -0.2700  0.7425 -0.7199
26908SOL     OW82730   6.207   9.627   3.738 -0.3329 -0.3089 -0.1700
26908SOL    HW182731   6.225   9.605   3.829 -0.4736  0.8259  0.1551
26908SOL    HW282732   6.177   9.718   3.742 -0.9965 -0.4742 -1.2783
26909SOL     OW82733   4.617   9.200   6.122  0.1574  0.5316 -0.2646
26909SOL    HW182734   4.606   9.276   6.064 -0.1182 -0.6492 -1.8228
26909SOL    HW282735   4.681   9.229   6.187 -1.1730  2.6595  0.2109
26910SOL     OW82736   6.285  10.271   2.711  0.5718  0.3125  0.3679
26910SOL    HW182737   6.290  10.310   2.799 -2.3940  2.7726 -0.3604
26910SOL    HW282738   6.217  10.204   2.718  1.3743 -0.5243  0.2521
26911SOL     OW82739   1.870   9.199   3.516  0.3014 -0.3825  0.3651
26911SOL    HW182740   1.914   9.152   3.587  1.1907  0.8849  0.6839
26911SOL    HW282741   1.777   9.197   3.540  0.3606 -1.5901  0.5773
26912SOL     OW82742   7.978   9.771   0.886  0.3283 -0.0971 -0.3485
26912SOL    HW182743   7.940   9.856   0.910 -1.0242 -0.6745 -0.4008
26912SOL    HW282744   7.912   9.729   0.832  1.0928 -1.1022 -0.5349
26913SOL     OW82745   2.808   0.871   8.541  0.0913 -0.0225  0.4854
26913SOL    HW182746   2.842   0.961   8.549 -2.1310  1.3375 -2.8987
26913SOL    HW282747   2.862   0.832   8.473  0.3471 -0.9265  1.1937
26914SOL     OW82748   2.992   8.265   7.390  0.1192 -0.1076  0.3061
26914SOL    HW182749   3.087   8.259   7.385  0.0430 -0.6991 -1.2927
26914SOL    HW282750   2.965   8.186   7.438  0.3855 -0.6483 -0.4093
26915SOL     OW82751   8.390   6.415   2.332 -0.0955 -0.6587 -0.2242
26915SOL    HW182752   8.456   6.397   2.398  0.3806  0.7668 -0.2752
26915SOL    HW282753   8.327   6.473   2.376  0.2326  0.3117 -0.9964
26916SOL     OW82754  11.086   3.478   6.531  0.2054 -0.3249 -0.1372
26916SOL    HW182755  11.114   3.398   6.488  1.9577 -0.4108  1.0506
26916SOL    HW282756  11.033   3.448   6.605  1.2586 -0.4431  0.5895
26917SOL     OW82757   8.460   3.374   9.006  0.3179  0.4081 -0.1947
26917SOL    HW182758   8.506   3.385   9.090  0.8648  0.2404 -0.4723
26917SOL    HW282759   8.440   3.464   8.978  1.8011  0.5802 -0.8023
26918SOL     OW82760   8.807   5.877   5.669  0.2533 -0.4615  0.3233
26918SOL    HW182761   8.860   5.954   5.690 -0.1424 -0.3428  0.9286
26918SOL    HW282762   8.772   5.849   5.754 -0.5898 -0.5771 -0.0505
26919SOL     OW82763   1.941   7.184   3.849 -0.4407 -0.9945  0.0999
26919SOL    HW182764   1.868   7.138   3.891  0.1512 -1.1611  0.9879
26919SOL    HW282765   1.999   7.115   3.818  0.6480 -0.9109  1.7884
26920SOL     OW82766   0.948   7.194   5.418  0.1858  0.2380 -0.1934
26920SOL    HW182767   0.896   7.241   5.352 -1.6026  1.8263  2.1698
26920SOL    HW282768   0.889   7.187   5.493  2.3555 -0.8464  1.5072
26921SOL     OW82769   7.975   5.169   3.101 -0.0990 -0.1721 -0.3949
26921SOL    HW182770   7.967   5.250   3.050  2.5922 -1.5895 -3.4487
26921SOL    HW282771   8.038   5.191   3.171 -2.1643  1.2171  1.1428
26922SOL     OW82772   6.957   5.394   2.056 -0.3944 -0.7526  0.5488
26922SOL    HW182773   6.884   5.344   2.091 -1.9942  0.5326 -0.7914
26922SOL    HW282774   6.982   5.454   2.127 -1.3122 -0.5262  0.6935
26923SOL     OW82775   5.622   6.026   2.160 -0.8867  0.3116  0.2477
26923SOL    HW182776   5.590   6.094   2.101  1.6545  0.8725 -0.6016
26923SOL    HW282777   5.668   5.965   2.103 -0.0061 -0.1723  1.4458
26924SOL     OW82778   1.927   6.424   2.360 -0.4350 -0.2631 -0.0844
26924SOL    HW182779   1.981   6.503   2.356 -1.0846  0.1640 -0.5738
26924SOL    HW282780   1.861   6.444   2.426 -0.6710 -0.3415 -0.2941
26925SOL     OW82781   3.362   1.737   1.564 -0.0140 -0.2197 -0.2811
26925SOL    HW182782   3.450   1.700   1.564  0.2256  0.3391  0.5562
26925SOL    HW282783   3.321   1.701   1.485  1.2000  0.0790 -1.0676
26926SOL     OW82784   6.542   8.553   1.273  0.1138  0.1546 -0.1367
26926SOL    HW182785   6.521   8.634   1.320  1.7827  0.2913  0.4366
26926SOL    HW282786   6.519   8.572   1.182 -3.0909 -0.0838  0.4993
26927SOL     OW82787   8.936   5.218   4.963  0.1632 -0.1958 -0.2077
26927SOL    HW182788   8.969   5.306   4.980  0.4158  0.2952 -2.7532
26927SOL    HW282789   8.892   5.192   5.044  0.9093  1.8749  0.9268
26928SOL     OW82790   8.556   4.300   1.233  0.7261 -0.1027 -0.2372
26928SOL    HW182791   8.565   4.295   1.138 -0.0938  0.4628 -0.3550
26928SOL    HW282792   8.509   4.382   1.248 -0.3559 -0.8395  0.5657
26929SOL     OW82793   7.054   2.042   8.509 -0.1456 -0.5197  0.4385
26929SOL    HW182794   7.045   2.046   8.604 -0.9156  0.3741  0.3438
26929SOL    HW282795   7.056   2.134   8.481 -1.3596 -0.7531 -0.5185
26930SOL     OW82796   2.749  11.048   1.531  0.2141 -0.3767  0.2785
26930SOL    HW182797   2.662  11.045   1.491  0.3710  2.1638 -0.4057
26930SOL    HW282798   2.744  11.122   1.592  1.6142 -0.8308  0.9680
26931SOL     OW82799   6.016   5.471   2.188  0.4212 -0.3737 -0.3271
26931SOL    HW182800   6.041   5.533   2.257 -1.1331 -1.8532  1.6848
26931SOL    HW282801   5.972   5.525   2.123  1.0191  0.9488  0.3280
26932SOL     OW82802   6.291   9.202   4.391 -0.1188 -0.1392  0.3242
26932SOL    HW182803   6.369   9.204   4.445  0.7758  1.4432 -0.9256
26932SOL    HW282804   6.244   9.123   4.418  2.8096 -2.1684 -0.1490
26933SOL     OW82805   6.599   6.092   6.332  0.1636 -0.0827  0.1433
26933SOL    HW182806   6.690   6.094   6.359  0.5069 -1.1512 -0.8619
26933SOL    HW282807   6.594   6.020   6.269 -1.0909  0.7892 -0.8084
26934SOL     OW82808   9.927   9.491   8.761  0.4251 -0.1696 -0.3181
26934SOL    HW182809   9.905   9.564   8.702 -0.8803  0.2820  0.6788
26934SOL    HW282810   9.872   9.419   8.730  0.6088 -0.2904 -0.3674
26935SOL     OW82811   9.270   5.569   2.566  0.1750 -0.1782 -0.4959
26935SOL    HW182812   9.202   5.541   2.626 -1.3327  0.5656 -1.7803
26935SOL    HW282813   9.288   5.660   2.589  0.1137 -0.1129 -0.6970
26936SOL     OW82814   4.495   8.208   8.871  0.2808  0.2936  0.4283
26936SOL    HW182815   4.540   8.135   8.829 -0.3746 -0.4054  0.9124
26936SOL    HW282816   4.415   8.220   8.820  0.0461  0.2048  0.7685
26937SOL     OW82817   6.172   8.827   3.568 -0.1875 -0.4284  0.3385
26937SOL    HW182818   6.168   8.889   3.640  1.6405 -0.4194  0.4819
26937SOL    HW282819   6.174   8.741   3.611 -1.9270 -0.5961  0.1652
26938SOL     OW82820   7.515   8.094   1.253  0.6808  0.3454  0.1976
26938SOL    HW182821   7.569   8.016   1.267 -0.3594 -0.5868 -0.7617
26938SOL    HW282822   7.545   8.156   1.320  0.5927 -1.3717  1.9431
26939SOL     OW82823   4.105   6.356   1.988 -0.2080 -0.3469  0.8103
26939SOL    HW182824   4.198   6.373   1.972 -0.3425 -1.2753 -1.3413
26939SOL    HW282825   4.089   6.389   2.077  2.0843  0.1186  1.1103
26940SOL     OW82826   7.947   5.497  10.606 -1.0183  0.4923 -0.3128
26940SOL    HW182827   7.884   5.440  10.561  0.6084 -0.8028 -1.0540
26940SOL    HW282828   7.940   5.471  10.698  1.2096 -2.6503 -0.8542
26941SOL     OW82829  10.287   6.879   1.392 -0.2417 -0.3913 -0.1071
26941SOL    HW182830  10.271   6.789   1.421 -1.5908  0.0329  0.5337
26941SOL    HW282831  10.355   6.912   1.451  2.1885 -1.7566 -1.9483
26942SOL     OW82832   6.417   8.578   4.649  0.2843  0.5166  0.1210
26942SOL    HW182833   6.510   8.566   4.666  0.3575 -0.4279 -0.8264
26942SOL    HW282834   6.385   8.629   4.723  1.8716  2.2859 -0.3182
26943SOL     OW82835   7.813   6.799   0.093  0.1435  0.4033 -0.3355
26943SOL    HW182836   7.811   6.711   0.055 -0.1520  0.0930  0.3669
26943SOL    HW282837   7.786   6.786   0.184  2.2826  0.8874  0.4328
26944SOL     OW82838   3.169   7.325   3.989  0.2973 -0.3256  0.0944
26944SOL    HW182839   3.230   7.314   4.062  0.4775 -1.4554 -0.2016
26944SOL    HW282840   3.152   7.236   3.959 -0.9962  0.0182 -0.2483
26945SOL     OW82841   6.424  10.685   3.901  0.1213 -0.0220  0.2528
26945SOL    HW182842   6.441  10.768   3.857 -0.9131 -0.7703 -1.6866
26945SOL    HW282843   6.506  10.636   3.894  0.2434  0.2236 -0.0511
26946SOL     OW82844   1.011   6.503   7.825 -0.3020  0.3661 -0.7437
26946SOL    HW182845   0.999   6.483   7.918 -1.4096  0.4230 -0.8588
26946SOL    HW282846   1.003   6.599   7.820  2.2611  0.6599 -0.5752
26947SOL     OW82847   9.491  10.629   9.289  0.1989  0.4111  0.7461
26947SOL    HW182848   9.586  10.635   9.281  0.0863 -0.0355 -1.3832
26947SOL    HW282849   9.474  10.536   9.303 -0.0110  0.1070 -1.2427
26948SOL     OW82850   8.378   7.804   6.041 -0.4882  0.2477  0.5486
26948SOL    HW182851   8.433   7.820   5.964 -2.7004  0.5862 -1.0597
26948SOL    HW282852   8.335   7.888   6.058 -1.3696 -0.2843  1.0277
26949SOL     OW82853   0.311   7.817   3.364 -0.2919  0.2732 -0.1117
26949SOL    HW182854   0.392   7.774   3.391  0.2696  1.4208  0.1099
26949SOL    HW282855   0.241   7.762   3.398  0.3768 -1.1145 -0.8926
26950SOL     OW82856   0.057  10.821   5.753  0.2284  0.1433 -0.2309
26950SOL    HW182857   0.087  10.830   5.663  0.0863 -0.4822 -0.3470
26950SOL    HW282858   0.134  10.839   5.806  0.2042  0.9520 -0.4611
26951SOL     OW82859   2.742   7.490   3.430 -0.4043  0.1457  0.0437
26951SOL    HW182860   2.674   7.422   3.433 -0.2451 -0.0219 -0.1146
26951SOL    HW282861   2.714   7.555   3.495  0.3615 -0.9389  1.5286
26952SOL     OW82862   6.637   9.189   4.346  0.4235  0.1264  0.4774
26952SOL    HW182863   6.702   9.123   4.372 -0.2860  0.2317  2.7460
26952SOL    HW282864   6.560   9.138   4.320  0.1891  0.0256  1.3420
26953SOL     OW82865   5.726   9.074  10.760  0.0416 -0.0974 -0.2261
26953SOL    HW182866   5.685   9.157  10.735  2.0728  0.8450 -0.6632
26953SOL    HW282867   5.811   9.075  10.715  0.6864 -1.7993  0.8618
26954SOL     OW82868   6.061   1.979   4.775  0.3550  0.1034  0.0510
26954SOL    HW182869   5.994   2.025   4.825  0.2390  0.5222 -0.4691
26954SOL    HW282870   6.025   1.974   4.686  1.4213  1.2446 -0.4793
26955SOL     OW82871   0.313   4.653   6.819 -0.3575  0.3586 -0.0989
26955SOL    HW182872   0.296   4.559   6.819 -0.4430  0.3093  2.3562
26955SOL    HW282873   0.381   4.665   6.753 -0.4451 -1.3899 -0.5575
26956SOL     OW82874   6.712   5.746   3.302  0.2906 -0.0474 -0.2008
26956SOL    HW182875   6.669   5.669   3.340 -0.2089  0.7897  1.0115
26956SOL    HW282876   6.745   5.795   3.378  1.4424  0.4627 -0.9992
26957SOL     OW82877   2.206   0.458   3.253  0.3457  0.1483  0.1601
26957SOL    HW182878   2.276   0.412   3.300 -0.3058  1.6894  2.8185
26957SOL    HW282879   2.206   0.546   3.290 -2.0532  0.6341 -0.8128
26958SOL     OW82880   8.382   8.256   8.395 -0.4081  0.1623  0.4434
26958SOL    HW182881   8.379   8.351   8.394 -0.4444  0.1900 -1.7004
26958SOL    HW282882   8.409   8.232   8.306  0.9507 -1.8001  1.3130
26959SOL     OW82883   5.760   7.977   4.150 -0.6438 -1.3606  0.2221
26959SOL    HW182884   5.729   7.949   4.064 -2.2986 -1.1296  0.7189
26959SOL    HW282885   5.855   7.967   4.145 -0.5339  0.0144 -2.1289
26960SOL     OW82886   9.535   5.734   1.058  0.1206  0.4711  0.0558
26960SOL    HW182887   9.452   5.780   1.045 -0.2394 -0.5880 -1.9697
26960SOL    HW282888   9.537   5.670   0.986  1.4056 -1.4339  1.7037
26961SOL     OW82889   0.376   8.505   1.520 -0.1724 -0.2449  0.3787
26961SOL    HW182890   0.377   8.453   1.440 -1.0025 -1.6018  1.2224
26961SOL    HW282891   0.406   8.446   1.588  0.1236  0.7728  1.1497
26962SOL     OW82892   8.309   2.005   4.287  0.6330 -0.9139  0.1221
26962SOL    HW182893   8.269   1.921   4.311 -0.5167 -0.6437 -0.7918
26962SOL    HW282894   8.383   2.014   4.348  0.1064 -2.0564  0.9694
26963SOL     OW82895   4.090   7.031   1.454 -0.1935 -0.4105 -0.6015
26963SOL    HW182896   4.118   6.969   1.387  1.4833 -1.2712  0.7877
26963SOL    HW282897   4.138   7.111   1.434 -0.3457 -0.3947 -0.9061
26964SOL     OW82898  10.556   3.981   0.832  0.4053 -0.1178  0.5284
26964SOL    HW182899  10.576   3.895   0.869  0.2943  0.3278  1.6567
26964SOL    HW282900  10.624   4.039   0.866 -0.3715  0.5426  0.9865
26965SOL     OW82901   9.280   3.099   6.792  0.0530 -0.2798 -0.4346
26965SOL    HW182902   9.308   3.083   6.882 -0.3851 -0.5714 -0.3495
26965SOL    HW282903   9.313   3.024   6.743 -1.8381 -1.3969 -0.0685
26966SOL     OW82904   9.574   7.673   4.489 -0.2245  0.1923 -0.4447
26966SOL    HW182905   9.649   7.733   4.496  0.3565 -0.5261 -0.3415
26966SOL    HW282906   9.497   7.730   4.493  0.2821  0.8200  1.1188
26967SOL     OW82907   8.123   7.334   3.793 -0.2201  0.5498 -0.0411
26967SOL    HW182908   8.204   7.374   3.760 -0.0040 -0.8490 -1.3237
26967SOL    HW282909   8.060   7.344   3.721 -0.9148  0.7623  0.5801
26968SOL     OW82910   2.797   5.200   2.566  0.3521  0.0433 -0.0217
26968SOL    HW182911   2.755   5.183   2.650 -1.1445 -1.0600 -0.9618
26968SOL    HW282912   2.889   5.179   2.580 -0.2775 -2.5116  0.7156
26969SOL     OW82913   8.367  10.778   8.714 -0.0718 -0.0743 -0.3004
26969SOL    HW182914   8.453  10.819   8.709  0.9222 -2.1319 -1.1883
26969SOL    HW282915   8.341  10.788   8.806  1.0369  0.7110 -0.0478
26970SOL     OW82916   1.687   9.121  10.330 -0.4098 -0.3316  0.6184
26970SOL    HW182917   1.634   9.076  10.396 -0.5697 -0.2040  0.5731
26970SOL    HW282918   1.644   9.103  10.247 -1.5429  1.4582  0.7741
26971SOL     OW82919   9.029   2.229   0.969 -0.0336 -0.6007 -0.5431
26971SOL    HW182920   9.093   2.248   1.038  0.8378 -1.5367 -1.0641
26971SOL    HW282921   9.001   2.139   0.987 -1.9964  0.1165  0.2716
26972SOL     OW82922  10.371   3.530   0.131 -0.3369  0.0823  0.9398
26972SOL    HW182923  10.320   3.527   0.050  0.9585 -2.3273  0.1327
26972SOL    HW282924  10.306   3.519   0.201 -1.1457 -0.9139  0.0533
26973SOL     OW82925   2.939   6.222   8.732 -0.0902 -0.0581 -0.3660
26973SOL    HW182926   2.896   6.137   8.721  1.3245 -0.9555  0.6151
26973SOL    HW282927   2.996   6.211   8.808  0.7533  1.5110 -0.7119
26974SOL     OW82928   7.286   6.656   9.919  0.4828 -0.3883 -0.4309
26974SOL    HW182929   7.191   6.671   9.928  0.0939 -1.2794 -2.5219
26974SOL    HW282930   7.321   6.675  10.006 -1.6026  0.0256  0.3860
26975SOL     OW82931   4.192   6.754   1.659  0.6313 -0.5096 -0.4681
26975SOL    HW182932   4.188   6.740   1.754  0.6513 -1.0259 -0.5395
26975SOL    HW282933   4.119   6.813   1.640  1.0345  0.1401 -0.0387
26976SOL     OW82934   8.222   8.799   0.344 -0.2423 -0.0195 -0.1896
26976SOL    HW182935   8.154   8.739   0.371 -0.4701  0.2248 -0.2171
26976SOL    HW282936   8.191   8.886   0.371 -0.4026  0.2098 -1.0763
26977SOL     OW82937   8.608   4.778   0.519 -0.2883  0.3819  0.1371
26977SOL    HW182938   8.678   4.843   0.512 -0.5270  0.4963 -2.2700
26977SOL    HW282939   8.628   4.715   0.449 -0.4528 -1.7852  1.9438
26978SOL     OW82940   6.113  10.041   2.648 -0.0536  0.0497  0.0864
26978SOL    HW182941   6.073   9.960   2.618 -0.3821  0.2571 -0.0347
26978SOL    HW282942   6.152  10.079   2.569 -0.9759  0.6288 -0.0981
26979SOL     OW82943  10.110   8.637   1.141  0.2648  0.5797 -0.0230
26979SOL    HW182944  10.148   8.587   1.213 -1.1711  0.0386  0.4011
26979SOL    HW282945  10.067   8.711   1.183  0.7066  1.1065 -0.4773
26980SOL     OW82946  10.312   0.395   1.498  0.2127  0.1345  0.2162
26980SOL    HW182947  10.318   0.390   1.593 -1.8773 -0.4986  0.3605
26980SOL    HW282948  10.291   0.305   1.471  2.3962 -0.0785 -1.0360
26981SOL     OW82949   4.996   4.743   5.851 -0.3478  0.1163  0.3332
26981SOL    HW182950   5.037   4.664   5.884  1.0992  0.5435 -0.3087
26981SOL    HW282951   4.912   4.749   5.897 -0.1809 -1.4009  0.8858
26982SOL     OW82952   9.517   8.043   8.248 -0.0267  0.5678  0.2982
26982SOL    HW182953   9.550   8.026   8.336  1.6580 -2.0213 -0.7179
26982SOL    HW282954   9.581   8.104   8.210  0.3675  0.0989  0.2094
26983SOL     OW82955   1.196   8.727   2.125 -0.1683 -0.0126 -0.1004
26983SOL    HW182956   1.220   8.700   2.036  0.1621  2.0416 -0.6972
26983SOL    HW282957   1.192   8.645   2.175  2.4910 -1.0219 -1.3207
26984SOL     OW82958   2.836   5.911   9.844  0.4823  0.2857  0.3663
26984SOL    HW182959   2.790   5.976   9.791  0.1723 -0.7070 -0.5995
26984SOL    HW282960   2.911   5.886   9.790  0.2454 -0.6291  0.4585
26985SOL     OW82961   4.402   0.178   6.913  0.0962  0.2524  0.6658
26985SOL    HW182962   4.382   0.213   7.000 -1.2054 -1.5970  1.1743
26985SOL    HW282963   4.484   0.220   6.889 -0.9620  3.0358  1.5016
26986SOL     OW82964   0.741   1.557   1.549 -0.2982 -0.1004 -0.3809
26986SOL    HW182965   0.798   1.516   1.484  0.4379 -0.1939  0.3102
26986SOL    HW282966   0.800   1.608   1.604 -0.7056 -1.0481  1.0024
26987SOL     OW82967   5.988   6.289   5.537 -0.4957  0.4059  0.3223
26987SOL    HW182968   6.044   6.293   5.460 -1.1974  1.2271 -0.1749
26987SOL    HW282969   5.901   6.315   5.505 -1.5108 -2.1834  0.7655
26988SOL     OW82970   9.247   9.048   5.843 -0.0231 -0.7958 -0.0377
26988SOL    HW182971   9.281   9.120   5.897 -0.0270 -0.3045 -0.6805
26988SOL    HW282972   9.152   9.058   5.847 -0.0991 -1.7984  1.2543
26989SOL     OW82973   7.757   6.259   5.837  0.1777  0.6506  0.2947
26989SOL    HW182974   7.756   6.190   5.904  1.0368  1.1110  0.8139
26989SOL    HW282975   7.687   6.319   5.864 -0.6996 -0.0993 -0.2667
26990SOL     OW82976   2.647   9.038   6.899  0.5637  0.3683 -0.2630
26990SOL    HW182977   2.712   9.083   6.954  1.5461 -1.7063  0.3757
26990SOL    HW282978   2.682   8.950   6.888 -1.9417 -0.7077 -0.2627
26991SOL     OW82979   9.249   1.355   8.079  0.7968 -0.2859  0.8077
26991SOL    HW182980   9.188   1.429   8.083  0.6375 -0.3099 -0.7961
26991SOL    HW282981   9.198   1.284   8.041  1.0508 -1.1397  2.0189
26992SOL     OW82982   5.126  10.004   0.442 -0.0904  0.0918 -0.2221
26992SOL    HW182983   5.132  10.036   0.532  0.4774 -0.8874  0.1035
26992SOL    HW282984   5.033   9.985   0.430 -0.0331 -0.6995  0.5033
26993SOL     OW82985   8.001   5.737   0.842 -0.0578 -0.1272 -0.1209
26993SOL    HW182986   7.946   5.762   0.768  0.7347  0.4361 -0.5312
26993SOL    HW282987   8.000   5.641   0.842  0.6259 -0.1564 -1.4014
26994SOL     OW82988   1.026   6.587   1.129 -0.1215 -0.2142 -0.2850
26994SOL    HW182989   0.966   6.600   1.202 -1.2386  0.3947 -1.2916
26994SOL    HW282990   1.111   6.573   1.171 -0.9000 -0.8334  1.1515
26995SOL     OW82991   9.484   6.137   2.198 -0.1986 -0.4617  0.1361
26995SOL    HW182992   9.488   6.170   2.287 -1.6900 -0.1308  0.1064
26995SOL    HW282993   9.445   6.050   2.206 -0.0737 -0.5480 -0.1659
26996SOL     OW82994   0.442   4.823   1.102 -0.2214  0.3777 -0.0172
26996SOL    HW182995   0.360   4.828   1.152  0.2629  0.0525  0.8173
26996SOL    HW282996   0.477   4.912   1.105 -0.3667  0.4371 -0.0736
26997SOL     OW82997   7.093   7.463   2.610  0.7623 -0.0128  0.1617
26997SOL    HW182998   7.089   7.558   2.602  0.7371  0.2733  2.7128
26997SOL    HW282999   7.021   7.431   2.555  0.9533  1.4014 -0.9576
26998SOL     OW83000   2.289   9.520   1.992 -0.0622 -0.4630  0.1027
26998SOL    HW183001   2.367   9.487   2.037 -0.3193  0.3378  1.1703
26998SOL    HW283002   2.227   9.447   1.997 -0.3929 -0.1116  1.8594
26999SOL     OW83003   6.175   9.752   7.227 -0.2012  0.1219  0.4168
26999SOL    HW183004   6.184   9.808   7.150 -2.6093  1.0240  0.7098
26999SOL    HW283005   6.209   9.667   7.199  0.9271  0.9746 -0.9324
27000SOL     OW83006  10.571   1.264   7.677 -0.3563 -0.2831  0.1021
27000SOL    HW183007  10.569   1.203   7.602  1.3823 -0.2577 -0.0120
27000SOL    HW283008  10.542   1.211   7.751 -1.3769 -0.5181 -0.4483
27001SOL     OW83009  10.041   9.751   0.720 -0.0426  0.3592  0.4091
27001SOL    HW183010  10.112   9.689   0.728  0.8419  0.6224 -3.3011
27001SOL    HW283011  10.079   9.836   0.744 -0.0813  0.0665  1.5386
27002SOL     OW83012   4.675   6.049   1.921 -0.4152 -0.2222  0.2284
27002SOL    HW183013   4.622   6.001   1.984  0.2469 -1.7523 -0.3170
27002SOL    HW283014   4.718   5.980   1.869  0.7158  0.9709 -0.4799
27003SOL     OW83015   8.425   1.483   7.295  0.2466  0.1903  0.4934
27003SOL    HW183016   8.387   1.464   7.209  0.9625 -1.0166  0.4225
27003SOL    HW283017   8.441   1.578   7.293 -1.9414  0.6100  0.2286
27004SOL     OW83018   9.265   1.850  10.206  0.0784 -0.2828  0.4364
27004SOL    HW183019   9.339   1.795  10.181  0.7203  1.3667 -1.5628
27004SOL    HW283020   9.191   1.789  10.211  0.7584 -1.4010 -1.6360
27005SOL     OW83021   5.382   7.418   5.167 -0.4153  0.5228  0.0435
27005SOL    HW183022   5.323   7.343   5.169 -0.6902  0.5669 -2.4283
27005SOL    HW283023   5.467   7.383   5.194 -0.8967 -0.2972  0.5154
27006SOL     OW83024   3.351   3.948  10.697  0.4970 -0.4394  0.1893
27006SOL    HW183025   3.375   3.898  10.774  2.3212  2.4502  1.6780
27006SOL    HW283026   3.431   3.951  10.644  0.1664  0.1955 -0.2933
27007SOL     OW83027   9.766   0.272   2.664 -0.2748  0.0609  0.1952
27007SOL    HW183028   9.714   0.340   2.622 -0.8621  0.2171  1.1653
27007SOL    HW283029   9.800   0.220   2.591 -1.3799  0.2552 -0.4787
27008SOL     OW83030   6.039   5.304   7.825  0.1916  0.1208 -0.1693
27008SOL    HW183031   5.994   5.246   7.763  0.4764  1.6944 -1.9263
27008SOL    HW283032   5.969   5.355   7.865 -0.0820 -1.4643  1.5313
27009SOL     OW83033   4.068   9.103   5.526 -0.1551 -0.1515 -0.3737
27009SOL    HW183034   4.059   9.075   5.618 -2.3346 -0.8358 -0.7373
27009SOL    HW283035   4.127   9.038   5.488 -0.1384 -0.5342  0.2802
27010SOL     OW83036   1.013   4.126   2.760  0.2964 -0.3230  0.0038
27010SOL    HW183037   1.097   4.155   2.794  0.3965 -0.1387 -0.3988
27010SOL    HW283038   1.012   4.031   2.776  1.9377 -0.9228 -2.7760
27011SOL     OW83039   3.949   8.374   0.293 -0.2894  0.6637  0.2650
27011SOL    HW183040   3.861   8.336   0.297  0.7131 -1.6851  2.4953
27011SOL    HW283041   3.971   8.373   0.200 -1.2678 -2.1509 -0.0308
27012SOL     OW83042   6.179   9.313   3.973  0.1627  0.5114 -0.1120
27012SOL    HW183043   6.103   9.364   3.944  1.2317  2.5626  0.5259
27012SOL    HW283044   6.182   9.327   4.068  0.8024 -0.3208 -0.0014
27013SOL     OW83045   6.778   6.457   3.842  0.0343  0.2577  0.1887
27013SOL    HW183046   6.735   6.377   3.814  0.1349  0.3103 -0.1286
27013SOL    HW283047   6.872   6.438   3.834  0.0547  0.5261 -0.2407
27014SOL     OW83048   9.643   3.765   0.395 -0.1073 -0.8283  0.3915
27014SOL    HW183049   9.628   3.722   0.311 -2.3390  0.9495 -0.2106
27014SOL    HW283050   9.577   3.729   0.453 -0.0229 -0.4240  0.7450
27015SOL     OW83051   6.389   9.378  10.328 -0.0634 -0.0714 -0.0850
27015SOL    HW183052   6.336   9.311  10.285  0.1515 -0.7040  0.6255
27015SOL    HW283053   6.477   9.365  10.293 -0.5059  1.6172 -2.0274
27016SOL     OW83054   8.494   8.141  10.797 -0.2750 -0.1673 -0.5008
27016SOL    HW183055   8.569   8.160  10.853 -1.2518  1.1423  0.4152
27016SOL    HW283056   8.521   8.168  10.709  1.3946 -2.5495 -0.8237
27017SOL     OW83057   4.849   2.415  10.682 -0.3585  0.4830  0.0560
27017SOL    HW183058   4.781   2.467  10.641 -2.7106 -1.9558  0.5925
27017SOL    HW283059   4.895   2.372  10.610 -0.6308  0.6978 -0.2419
27018SOL     OW83060   1.458   8.049   1.119 -0.3643  0.3088 -0.1510
27018SOL    HW183061   1.489   8.116   1.057  1.1195 -0.4840 -0.3129
27018SOL    HW283062   1.405   8.098   1.182 -1.7709  1.1671 -1.9142
27019SOL     OW83063   7.164   4.954   7.371  0.0979 -0.1912 -0.0942
27019SOL    HW183064   7.072   4.980   7.362  0.6012  1.8634  0.2267
27019SOL    HW283065   7.209   5.035   7.394  2.0510 -1.1091 -0.5544
27020SOL     OW83066   7.890   1.028   9.168 -0.6784  0.5735  0.6498
27020SOL    HW183067   7.891   0.933   9.181 -2.6087  0.2733 -0.9522
27020SOL    HW283068   7.977   1.048   9.134 -0.0404 -0.4899  1.5551
27021SOL     OW83069   5.882   9.225   4.701 -0.1498 -0.6821 -0.6631
27021SOL    HW183070   5.826   9.149   4.717 -0.3877 -0.3179  0.2696
27021SOL    HW283071   5.971   9.193   4.717 -0.3109 -0.5728  0.4998
27022SOL     OW83072   0.595   2.671   6.085 -0.3233 -0.1294  0.0448
27022SOL    HW183073   0.537   2.624   6.025  0.0224 -0.8714  0.2847
27022SOL    HW283074   0.538   2.735   6.127 -0.9079 -0.6579  0.0720
27023SOL     OW83075   6.128   5.561  10.836 -0.6614 -0.0343 -0.2010
27023SOL    HW183076   6.216   5.528  10.817 -0.8821  0.4011 -2.2074
27023SOL    HW283077   6.144   5.647  10.877 -0.1405  0.1169 -0.7020
27024SOL     OW83078   8.934   3.938   2.449  0.0881  0.0891  0.5275
27024SOL    HW183079   8.979   4.022   2.441 -1.8919  1.0805 -1.0600
27024SOL    HW283080   8.951   3.893   2.366 -1.4531  0.3223  0.0569
27025SOL     OW83081   6.374   7.167   7.417 -0.1172  0.2036  0.1867
27025SOL    HW183082   6.392   7.230   7.347  0.4330  0.1270  0.2512
27025SOL    HW283083   6.290   7.127   7.394  0.5844 -0.6112 -1.0109
27026SOL     OW83084   5.477  10.105   2.833 -0.3789 -0.5481  0.5769
27026SOL    HW183085   5.426  10.128   2.755  0.8350 -2.0283 -0.7385
27026SOL    HW283086   5.567  10.127   2.810 -0.1730  0.4451  2.1957
27027SOL     OW83087   4.300   9.987   3.237 -0.0058  0.0806 -0.2211
27027SOL    HW183088   4.254  10.057   3.190 -0.5219  0.5273  0.9054
27027SOL    HW283089   4.244   9.968   3.312  0.7556 -0.6580  0.1776
27028SOL     OW83090   5.338   8.580   7.683 -0.5299  0.1812  0.5908
27028SOL    HW183091   5.291   8.653   7.644  1.1276  1.5079  0.9407
27028SOL    HW283092   5.430   8.605   7.677  0.1971 -2.4028 -0.2753
27029SOL     OW83093   7.341   8.939   9.954  0.0412 -0.3252  0.2891
27029SOL    HW183094   7.305   8.973  10.036  0.3527 -0.2779  0.4070
27029SOL    HW283095   7.433   8.967   9.955 -0.5107  1.7654 -1.1754
27030SOL     OW83096   7.714   2.198   4.289 -0.7142  0.2494 -0.0634
27030SOL    HW183097   7.759   2.172   4.208 -0.9809 -0.9974  0.1564
27030SOL    HW283098   7.785   2.221   4.349 -0.2179 -2.3701  0.5126
27031SOL     OW83099   7.880   8.873   6.127 -0.3858 -0.0817  0.6537
27031SOL    HW183100   7.898   8.787   6.092 -1.6608  0.0635 -0.4456
27031SOL    HW283101   7.827   8.916   6.060  0.7010  1.7790  0.9067
27032SOL     OW83102   9.518   5.387  10.421 -0.0285 -0.4353 -0.0748
27032SOL    HW183103   9.543   5.457  10.361  1.2328  0.4760  1.4152
27032SOL    HW283104   9.573   5.312  10.396  0.9695  0.1459  0.3251
27033SOL     OW83105   9.791   0.113   6.196  0.0229 -0.1260 -0.5158
27033SOL    HW183106   9.790   0.124   6.100 -1.5175  0.9523 -0.4142
27033SOL    HW283107   9.750   0.193   6.229 -0.6451 -1.0686  0.9891
27034SOL     OW83108   6.529   3.638   7.219 -0.0568  0.2309  0.0486
27034SOL    HW183109   6.582   3.714   7.196  2.1234 -1.1016  0.3253
27034SOL    HW283110   6.550   3.573   7.152 -2.3963  0.0459 -0.5703
27035SOL     OW83111   8.712   7.040   1.841 -0.6744 -0.6270  0.1085
27035SOL    HW183112   8.634   7.083   1.805  0.5913 -0.2081 -2.3182
27035SOL    HW283113   8.759   7.006   1.765  2.4744  0.7991  1.2086
27036SOL     OW83114   1.437   8.666  10.060 -0.1733  0.1376 -0.4539
27036SOL    HW183115   1.402   8.592  10.010  0.7510 -0.0747 -0.7919
27036SOL    HW283116   1.376   8.676  10.134 -0.6317 -0.5774 -0.7313
27037SOL     OW83117   2.461   5.175   0.677 -0.2947 -0.3692 -0.1354
27037SOL    HW183118   2.394   5.239   0.653 -1.7114 -1.0075  1.8647
27037SOL    HW283119   2.453   5.167   0.772  3.2155  0.1190  0.3060
27038SOL     OW83120   2.955   7.478   6.553  0.1365 -0.3046 -0.0061
27038SOL    HW183121   2.909   7.471   6.637  1.4497 -1.3235  0.6676
27038SOL    HW283122   2.987   7.389   6.536 -0.5522 -0.2285 -1.8640
27039SOL     OW83123   1.097   7.507   7.237 -0.1921 -0.9382 -0.0768
27039SOL    HW183124   1.156   7.553   7.178 -0.4295 -1.4706 -0.7336
27039SOL    HW283125   1.152   7.486   7.313 -0.0263  0.2350  0.1569
27040SOL     OW83126   3.964   1.635   8.943 -0.4812 -0.0662 -0.8698
27040SOL    HW183127   4.059   1.648   8.938 -0.7798  1.9456 -2.5739
27040SOL    HW283128   3.938   1.680   9.023 -0.0258 -0.5259 -0.4578
27041SOL     OW83129   4.050   5.976   0.497 -0.6535  0.5245  0.5683
27041SOL    HW183130   3.993   5.944   0.426  0.0102 -0.3576  0.4179
27041SOL    HW283131   4.069   5.898   0.549  1.5206  0.5010 -0.1592
27042SOL     OW83132   4.603   1.596  10.279  0.0004  0.3137  0.2426
27042SOL    HW183133   4.681   1.579  10.227 -1.1147  1.0798 -1.7521
27042SOL    HW283134   4.533   1.548  10.235 -1.6092  3.4301 -0.9111
27043SOL     OW83135   7.344   4.459   7.894 -0.3158  0.3660  0.0933
27043SOL    HW183136   7.280   4.390   7.910  0.0614  0.2264  1.0274
27043SOL    HW283137   7.429   4.415   7.899 -0.0182  1.0732  1.7379
27044SOL     OW83138   1.245   6.848   6.959  0.2271  0.2403  0.0877
27044SOL    HW183139   1.295   6.784   6.907  0.9168 -0.0770  1.1154
27044SOL    HW283140   1.197   6.795   7.022 -1.9182  0.4889 -1.2192
27045SOL     OW83141   6.304  11.041   8.354  0.8523 -0.0296  0.5326
27045SOL    HW183142   6.397  11.028   8.336  0.4080 -2.6512 -0.4472
27045SOL    HW283143   6.263  11.036   8.267 -0.1963  1.2031  0.9435
27046SOL     OW83144   5.747   5.103   4.371  0.9916 -0.0527 -0.7714
27046SOL    HW183145   5.702   5.067   4.294  1.6840 -0.2732 -1.0868
27046SOL    HW283146   5.698   5.069   4.446 -0.2419  0.9005 -1.1206
27047SOL     OW83147  11.026   0.299   0.251  0.5471 -0.3441 -0.3465
27047SOL    HW183148  10.971   0.307   0.329  2.3781  0.2100  0.9771
27047SOL    HW283149  10.966   0.277   0.180 -1.2198 -0.6347  1.1779
27048SOL     OW83150   9.710   3.480   2.514 -0.0432 -0.1274  0.0153
27048SOL    HW183151   9.712   3.393   2.553 -0.2169 -0.0155  0.2725
27048SOL    HW283152   9.777   3.529   2.562  0.9694 -0.4829 -0.9905
27049SOL     OW83153   1.778   8.631   7.532 -0.2649 -0.1247  0.3686
27049SOL    HW183154   1.808   8.552   7.576  0.0474 -0.5300 -0.5539
27049SOL    HW283155   1.847   8.651   7.468  0.0443  1.3356  1.0925
27050SOL     OW83156   6.399   9.431   6.372  0.7255  0.3249  0.2501
27050SOL    HW183157   6.365   9.407   6.286 -2.1974  0.3514  1.3006
27050SOL    HW283158   6.428   9.348   6.411 -1.9555 -0.4402  0.8131
27051SOL     OW83159   3.055   7.144   0.974  0.2378  0.4649  0.3887
27051SOL    HW183160   2.980   7.112   0.924 -0.6217 -0.8588  2.3733
27051SOL    HW283161   3.131   7.112   0.926 -0.5537 -0.7613 -0.1153
27052SOL     OW83162   5.709   1.776   3.459  0.2208 -0.1055  0.1765
27052SOL    HW183163   5.678   1.707   3.401  0.4476  0.0419 -0.1249
27052SOL    HW283164   5.717   1.853   3.403 -2.2342  0.8117  0.9475
27053SOL     OW83165   3.546   6.175   5.979  0.8167  0.2202 -0.6363
27053SOL    HW183166   3.549   6.156   6.073 -2.2008  1.8914 -0.1040
27053SOL    HW283167   3.577   6.266   5.972 -1.4371  1.0169 -0.8565
27054SOL     OW83168   2.941   7.008   9.762 -0.8350 -0.2055 -1.2510
27054SOL    HW183169   2.962   7.100   9.779 -0.1790 -0.3432 -1.2728
27054SOL    HW283170   2.911   6.975   9.847 -1.5772  0.1520 -1.3650
27055SOL     OW83171   3.778   0.692   3.587 -0.5181  0.2019  0.0300
27055SOL    HW183172   3.724   0.755   3.635  0.4908  0.4644  0.8608
27055SOL    HW283173   3.866   0.704   3.623 -0.4286 -2.2098  0.7983
27056SOL     OW83174   6.603   5.684   5.299 -0.1625  0.4562 -0.1836
27056SOL    HW183175   6.602   5.590   5.316 -0.4711  0.7008  1.2383
27056SOL    HW283176   6.543   5.721   5.364 -1.7669  1.4290 -2.1167
27057SOL     OW83177   7.947  10.858   2.866  0.3610 -0.2655 -0.2920
27057SOL    HW183178   7.942  10.769   2.833  0.7322 -0.6488  0.6464
27057SOL    HW283179   7.865  10.872   2.912 -0.3589  0.4324 -1.7042
27058SOL     OW83180   5.506  10.708   5.545  0.2948  0.1123 -0.3939
27058SOL    HW183181   5.580  10.720   5.485  0.7564 -2.7303 -0.5014
27058SOL    HW283182   5.525  10.627   5.591 -2.7505 -0.7080 -0.3662
27059SOL     OW83183   5.233   9.164   8.745  0.2728 -0.1667 -0.0781
27059SOL    HW183184   5.325   9.152   8.766  0.3657  0.0078 -0.3761
27059SOL    HW283185   5.187   9.147   8.827  0.4383 -1.9889 -0.3236
27060SOL     OW83186   5.787   3.754  10.397 -0.2754 -0.2898 -0.4027
27060SOL    HW183187   5.772   3.698  10.321 -0.9697  0.2566 -0.6842
27060SOL    HW283188   5.813   3.694  10.467  2.9324 -0.5958 -1.6787
27061SOL     OW83189   9.972   2.219   5.917  0.5742 -0.3305 -0.1527
27061SOL    HW183190  10.049   2.275   5.907 -1.1485  2.0572 -0.9906
27061SOL    HW283191   9.898   2.280   5.915 -1.4826 -2.7037 -1.8161
27062SOL     OW83192   4.012   5.784   7.586 -0.3052 -0.1486 -0.1365
27062SOL    HW183193   4.046   5.788   7.496 -1.2219 -1.7235 -0.5820
27062SOL    HW283194   4.041   5.699   7.619 -1.7297 -0.4893  0.3061
27063SOL     OW83195   3.955   5.252   7.149  0.2845 -0.4845 -0.3688
27063SOL    HW183196   3.954   5.335   7.196  3.0965 -0.4783 -0.1436
27063SOL    HW283197   3.869   5.212   7.168 -0.5658  1.6932  0.6745
27064SOL     OW83198   6.238   7.983   3.298 -0.1440 -0.2411 -0.5384
27064SOL    HW183199   6.210   7.892   3.305  1.1319 -0.6389 -0.4829
27064SOL    HW283200   6.277   7.990   3.211  3.4454 -0.8516  0.8563
27065SOL     OW83201   5.698   3.260   3.177  0.1260  0.1394  0.2509
27065SOL    HW183202   5.729   3.340   3.135  0.2142  0.3579  0.7227
27065SOL    HW283203   5.661   3.290   3.260 -2.2305  0.0280 -0.6784
27066SOL     OW83204   2.072   5.057   0.237  0.9485 -0.1289  0.5392
27066SOL    HW183205   1.983   5.066   0.203 -0.0358  0.2681  3.0298
27066SOL    HW283206   2.125   5.112   0.180 -0.7975  1.4433  0.3555
27067SOL     OW83207   5.920   2.933   4.366  0.4327 -0.3064  0.0592
27067SOL    HW183208   5.831   2.897   4.373 -0.1574  0.9623 -0.5824
27067SOL    HW283209   5.947   2.946   4.457 -0.1659 -0.4138  0.2583
27068SOL     OW83210   4.126   2.734   7.878  0.1983 -0.3012 -0.2070
27068SOL    HW183211   4.053   2.792   7.899  0.2592  0.0758 -1.0010
27068SOL    HW283212   4.204   2.788   7.892  0.2999 -0.5035  0.0129
27069SOL     OW83213   5.193   7.400  11.050  0.0864  0.2180 -0.5753
27069SOL    HW183214   5.131   7.382  11.121 -1.1547  0.4550 -1.5752
27069SOL    HW283215   5.257   7.460  11.089 -0.8929  0.7981  0.1928
27070SOL     OW83216   4.355   4.188   5.909  0.0493 -0.1779 -0.1216
27070SOL    HW183217   4.388   4.252   5.846 -0.9718  1.1186  0.6212
27070SOL    HW283218   4.293   4.135   5.859  0.1263  0.0700 -0.4877
27071SOL     OW83219   6.350   7.595   4.888 -0.0620  0.1191 -0.4239
27071SOL    HW183220   6.421   7.585   4.824  0.9577  1.2029  0.5024
27071SOL    HW283221   6.364   7.524   4.951 -0.0130  0.1181 -0.4362
27072SOL     OW83222   7.526   5.929   0.159 -0.0751 -0.4209  0.1070
27072SOL    HW183223   7.520   6.023   0.142  0.2423 -0.3566  0.3305
27072SOL    HW283224   7.611   5.918   0.203  0.3464 -0.9524 -0.8087
27073SOL     OW83225   7.151   3.790   1.563 -0.1430  0.3616 -0.2170
27073SOL    HW183226   7.220   3.756   1.619 -1.4031 -1.1239  0.5077
27073SOL    HW283227   7.113   3.863   1.613 -0.8093 -0.5146  0.5919
27074SOL     OW83228   6.975   9.293   4.460 -0.0421 -0.2525  0.4707
27074SOL    HW183229   6.905   9.296   4.394 -0.1278 -2.4055  0.3810
27074SOL    HW283230   7.033   9.365   4.437 -0.6134 -0.3161 -1.3397
27075SOL     OW83231   5.840   0.293   9.613 -0.0425 -0.1936 -0.1183
27075SOL    HW183232   5.770   0.286   9.678  0.4572 -0.1773  0.4312
27075SOL    HW283233   5.825   0.220   9.553 -0.2423 -0.4795  0.2774
27076SOL     OW83234  10.738   7.741   7.334  0.0726 -0.4151  0.2999
27076SOL    HW183235  10.681   7.704   7.401  0.2189 -0.5122  0.3712
27076SOL    HW283236  10.726   7.836   7.342 -0.3293 -0.4466  0.0916
27077SOL     OW83237   5.991   8.388   4.044 -0.1737 -0.0946 -0.2318
27077SOL    HW183238   5.936   8.425   4.113 -1.2930 -1.1001 -0.5460
27077SOL    HW283239   6.013   8.300   4.075  0.4213 -0.0768 -0.5781
27078SOL     OW83240   2.315   7.403  11.025 -0.0252  0.6973  0.5079
27078SOL    HW183241   2.236   7.363  10.987  0.6032 -0.0343 -0.0589
27078SOL    HW283242   2.385   7.378  10.965  0.8320  0.3684  1.6211
27079SOL     OW83243   2.590   4.044  10.125  0.3287 -0.1349 -0.3219
27079SOL    HW183244   2.657   4.006  10.068  0.2544  0.3186 -0.7214
27079SOL    HW283245   2.507   4.013  10.089  0.3129 -2.5338  1.4604
27080SOL     OW83246   8.148   4.790   1.146  0.1217 -0.5743  0.4604
27080SOL    HW183247   8.058   4.798   1.176  0.6763 -0.9361  2.3548
27080SOL    HW283248   8.200   4.796   1.226  1.6983 -1.8525 -0.4191
27081SOL     OW83249  10.438   7.072   9.641 -0.2302 -0.3062 -0.0218
27081SOL    HW183250  10.454   7.118   9.558 -1.4704  0.4363  0.1354
27081SOL    HW283251  10.408   6.985   9.615 -0.8900  0.0188 -0.3589
27082SOL     OW83252   9.384   7.389   3.274 -0.1414  0.0276 -0.6466
27082SOL    HW183253   9.478   7.399   3.256 -0.4859  1.1328 -2.0267
27082SOL    HW283254   9.372   7.422   3.363  0.3476  2.7843 -1.5152
27083SOL     OW83255   2.862   7.790   8.523 -0.1400  0.0708 -0.0393
27083SOL    HW183256   2.825   7.725   8.463  0.4782 -0.0269 -0.3198
27083SOL    HW283257   2.944   7.817   8.482  0.0357  0.3872  0.5077
27084SOL     OW83258   9.323   3.933   3.604  0.1638  0.3720  0.4350
27084SOL    HW183259   9.368   3.960   3.524  1.3017 -1.5582  0.3785
27084SOL    HW283260   9.385   3.876   3.649 -0.6359  1.0244  2.4868
27085SOL     OW83261   5.515   5.053  10.111 -0.0701 -0.1154 -0.4993
27085SOL    HW183262   5.474   4.991  10.172 -2.1724  1.3950 -0.2604
27085SOL    HW283263   5.459   5.130  10.114  3.2763  2.5404  0.4747
27086SOL     OW83264   8.264   6.366   9.783  0.1520 -0.0096  0.0126
27086SOL    HW183265   8.230   6.455   9.778 -0.4923 -0.2573 -0.2013
27086SOL    HW283266   8.331   6.369   9.851 -0.5024  0.4452  0.6602
27087SOL     OW83267   1.832   8.307   1.280  0.3278  0.1595  0.2593
27087SOL    HW183268   1.778   8.290   1.357 -0.1000  0.4976  0.0360
27087SOL    HW283269   1.922   8.303   1.313  0.1377  2.2052  1.2087
27088SOL     OW83270  10.064   6.246   1.508 -0.3895 -0.2636  0.4624
27088SOL    HW183271  10.028   6.168   1.467 -1.6345  0.8125 -0.5934
27088SOL    HW283272  10.103   6.296   1.436 -0.2114  0.4008  1.0018
27089SOL     OW83273   3.341   7.669   5.238  0.1807 -0.1502 -0.0526
27089SOL    HW183274   3.268   7.608   5.224 -0.1388  0.6790 -2.5829
27089SOL    HW283275   3.317   7.719   5.316  0.4939 -3.2051  2.1622
27090SOL     OW83276   1.636   4.886   3.181 -0.5392 -0.6204  0.0596
27090SOL    HW183277   1.556   4.924   3.217 -0.2393 -0.6812  0.8003
27090SOL    HW283278   1.663   4.947   3.112  0.0477  0.6612  1.3687
27091SOL     OW83279   0.722   5.982   7.139 -0.1357  0.4099 -0.0998
27091SOL    HW183280   0.736   6.004   7.047 -1.5482 -1.9514 -0.9844
27091SOL    HW283281   0.804   5.941   7.166 -0.6838 -1.6802 -1.3322
27092SOL     OW83282   4.875   4.861  10.594  0.0069  0.4533  0.8196
27092SOL    HW183283   4.877   4.875  10.499  1.2181 -2.2810  0.3493
27092SOL    HW283284   4.967   4.857  10.619 -0.3026  0.5883  2.0458
27093SOL     OW83285  10.913   8.881   0.734  0.2536  0.2114 -0.3230
27093SOL    HW183286  10.866   8.803   0.763 -0.5671  1.1840  1.1166
27093SOL    HW283287  10.945   8.921   0.815  3.0426 -0.0403 -1.2124
27094SOL     OW83288   5.360   9.835   9.503 -0.4563  0.3272  0.2397
27094SOL    HW183289   5.314   9.791   9.432  0.7496 -0.4863 -0.0823
27094SOL    HW283290   5.399   9.764   9.554  1.5378  0.9760 -0.2853
27095SOL     OW83291   5.255   4.425   8.501  0.2858  0.0393 -1.3767
27095SOL    HW183292   5.246   4.369   8.577  0.9902 -1.9604 -2.6775
27095SOL    HW283293   5.344   4.462   8.508  0.6510 -0.7749 -1.6021
27096SOL     OW83294   7.410   0.893   1.778  0.3544  0.2516 -1.0834
27096SOL    HW183295   7.433   0.985   1.794  1.5089 -0.1956 -0.0195
27096SOL    HW283296   7.318   0.896   1.749 -0.1459  1.6106  0.4869
27097SOL     OW83297   8.494   2.751   8.112 -0.3823  0.3901  0.1627
27097SOL    HW183298   8.584   2.731   8.138 -1.1127 -1.5837  1.4097
27097SOL    HW283299   8.475   2.835   8.154  0.4532  0.1734  1.0041
27098SOL     OW83300   5.700   3.170   2.689 -0.3336  0.3796 -0.0319
27098SOL    HW183301   5.794   3.181   2.672 -0.1479  1.1331  1.3107
27098SOL    HW283302   5.681   3.081   2.661  0.9336 -0.0140  0.2720
27099SOL     OW83303   2.505   4.818   3.252  0.1527  0.1567  0.7293
27099SOL    HW183304   2.499   4.804   3.346 -1.4534  0.3012  0.6724
27099SOL    HW283305   2.598   4.807   3.232  0.4014 -0.6358  2.1996
27100SOL     OW83306   9.210   7.115   5.736 -0.3759  0.3598  0.2141
27100SOL    HW183307   9.260   7.049   5.687  0.0734  0.5318  0.4410
27100SOL    HW283308   9.169   7.168   5.668 -0.1148  0.3222  0.0244
27101SOL     OW83309   6.513   8.370   3.621 -0.8018 -0.7668 -0.2150
27101SOL    HW183310   6.603   8.338   3.633 -1.0637 -2.4220 -2.0935
27101SOL    HW283311   6.484   8.392   3.709  1.3922 -0.3035  0.4623
27102SOL     OW83312   3.645   9.010   5.534 -0.4245  0.1525  0.4303
27102SOL    HW183313   3.682   9.098   5.520  0.6465 -0.2063  0.8730
27102SOL    HW283314   3.609   9.014   5.623  1.6853 -0.4991  1.3812
27103SOL     OW83315  10.569  10.329   3.446 -0.3555 -0.1003 -0.2658
27103SOL    HW183316  10.555  10.357   3.536 -1.4135  0.9441 -0.7209
27103SOL    HW283317  10.501  10.263   3.431  0.1169 -0.6168 -0.1677
27104SOL     OW83318  10.581   7.440   9.994 -0.2109  0.1346 -0.2412
27104SOL    HW183319  10.533   7.357   9.997 -1.3765  0.6549 -2.2739
27104SOL    HW283320  10.624   7.439   9.908 -1.0226  2.0354 -0.7009
27105SOL     OW83321   7.007  10.940   8.915  0.1726  0.0589  0.7568
27105SOL    HW183322   6.952  10.861   8.907 -1.4714  1.1929  0.2681
27105SOL    HW283323   7.061  10.939   8.836 -0.4437 -0.1747  0.3207
27106SOL     OW83324   2.965   4.344   6.286 -0.0858  0.2677  0.6951
27106SOL    HW183325   2.871   4.333   6.268 -0.3023 -1.1837  2.3868
27106SOL    HW283326   2.967   4.388   6.371  0.8159  1.4228  0.1108
27107SOL     OW83327  10.296   8.730   7.304  0.6843 -0.3923  0.2096
27107SOL    HW183328  10.329   8.735   7.214  2.6449 -0.2327  0.9036
27107SOL    HW283329  10.326   8.645   7.336  0.0828 -0.4043  0.7689
27108SOL     OW83330   6.708   8.685   6.943  0.1600  0.0464  0.2528
27108SOL    HW183331   6.737   8.768   6.905  0.3125  0.2922  0.8813
27108SOL    HW283332   6.616   8.679   6.920  0.2674  0.1459 -0.2227
27109SOL     OW83333   0.613   7.119   9.504  0.2133 -0.3866  0.2972
27109SOL    HW183334   0.578   7.043   9.551 -0.2733  0.2530  0.9937
27109SOL    HW283335   0.536   7.158   9.462  0.5116 -0.4532 -0.3224
27110SOL     OW83336   4.603   2.137   0.017  0.6099  0.0872  0.5810
27110SOL    HW183337   4.635   2.097  -0.063  2.0337  1.9372  0.1377
27110SOL    HW283338   4.524   2.184  -0.009  1.0293  0.6246  0.2441
27111SOL     OW83339   1.067   8.187   9.963 -0.2512 -0.3292  0.4375
27111SOL    HW183340   1.035   8.150   9.880 -0.2003 -1.3217  0.8462
27111SOL    HW283341   1.016   8.142  10.030  0.7884 -0.6805  1.0172
27112SOL     OW83342   3.122   7.237   3.604  0.4735 -0.0622 -0.0362
27112SOL    HW183343   3.053   7.225   3.669  0.4483 -0.9568 -0.2132
27112SOL    HW283344   3.201   7.202   3.646  1.4285  3.0793  1.1146
27113SOL     OW83345   8.389   6.938   3.251  0.1281  0.0484  0.1727
27113SOL    HW183346   8.357   6.939   3.341  1.3623  2.3099  0.6618
27113SOL    HW283347   8.367   7.024   3.217  1.1901 -0.1619 -1.1175
27114SOL     OW83348   5.731   7.418   8.681 -0.4267  0.0727 -0.0877
27114SOL    HW183349   5.723   7.361   8.758 -1.2616 -0.3887 -0.5026
27114SOL    HW283350   5.707   7.362   8.607 -0.0105  0.6199 -0.6477
27115SOL     OW83351   3.515   9.644   9.464 -0.1168 -0.2341  0.3140
27115SOL    HW183352   3.537   9.575   9.401  0.5792  0.5135 -0.2945
27115SOL    HW283353   3.582   9.637   9.532 -0.3370 -0.4659  0.5091
27116SOL     OW83354   3.337   9.422   3.420  0.2974  0.2494 -0.1650
27116SOL    HW183355   3.425   9.435   3.385  0.5001  0.4661  0.4164
27116SOL    HW283356   3.350   9.397   3.511 -0.1891 -1.2385 -0.4805
27117SOL     OW83357   8.926   0.555  10.887 -0.2743  0.4200  0.0634
27117SOL    HW183358   9.016   0.526  10.904 -0.5843 -0.5015  0.2077
27117SOL    HW283359   8.933   0.650  10.876  0.6666  0.4036  0.4033
27118SOL     OW83360   1.965   1.433   2.859  0.2138 -0.4196  0.3610
27118SOL    HW183361   1.970   1.343   2.891 -1.6550 -0.6500  0.0934
27118SOL    HW283362   1.957   1.486   2.939  0.5990 -0.5428  0.4838
27119SOL     OW83363   2.280   7.540   4.912  0.8982 -0.6585  1.0346
27119SOL    HW183364   2.317   7.468   4.962  2.9953  0.7874  1.6744
27119SOL    HW283365   2.303   7.618   4.961  0.1019  0.5854 -0.4885
27120SOL     OW83366   2.109  10.672   7.845  0.2232  0.6172  0.7048
27120SOL    HW183367   2.076  10.743   7.791 -0.6407  0.2141  0.6816
27120SOL    HW283368   2.034  10.645   7.898  0.7641  0.2817  1.3214
27121SOL     OW83369   4.957   7.706   9.564 -0.1831  0.0262  0.3098
27121SOL    HW183370   5.039   7.710   9.614 -0.4221  2.8613  0.6436
27121SOL    HW283371   4.982   7.729   9.475 -0.5760  0.7575  0.3832
27122SOL     OW83372   4.912   6.708   3.445 -0.1471 -0.0438  0.1184
27122SOL    HW183373   4.864   6.759   3.511 -1.8444 -0.6058 -0.6503
27122SOL    HW283374   4.953   6.637   3.495  0.0028  0.5061  0.7990
27123SOL     OW83375   7.220   6.055   9.511  0.0452 -0.0629 -0.1999
27123SOL    HW183376   7.225   6.131   9.568  0.0331 -0.2704  0.0772
27123SOL    HW283377   7.218   5.980   9.570  0.3761 -0.2953 -0.4777
27124SOL     OW83378   1.016   7.169   8.848 -0.2603 -0.0256 -0.2314
27124SOL    HW183379   0.956   7.132   8.913 -0.4799  1.3674  0.4014
27124SOL    HW283380   1.090   7.110   8.846 -1.5820 -1.7511 -0.9608
27125SOL     OW83381  10.144   9.650   1.145 -0.0091 -0.2229  0.4118
27125SOL    HW183382  10.199   9.722   1.173 -0.3985 -0.5193  2.0250
27125SOL    HW283383  10.069   9.692   1.102  0.3535  0.2708  0.2640
27126SOL     OW83384   7.737   7.474   3.187  0.5817 -0.5335  0.4718
27126SOL    HW183385   7.741   7.424   3.269 -1.4913  0.3236  1.1809
27126SOL    HW283386   7.650   7.516   3.189  0.6667 -0.0934 -1.9478
27127SOL     OW83387   3.832   9.739   4.152  0.3068  0.3784 -0.3303
27127SOL    HW183388   3.753   9.792   4.168  0.2172  0.4078 -0.8358
27127SOL    HW283389   3.812   9.691   4.072  0.8091  0.3977 -0.4697
27128SOL     OW83390  11.028   4.999  11.091 -0.3188  0.5051 -0.1553
27128SOL    HW183391  11.008   4.931  11.154 -1.1703  0.6072 -0.3057
27128SOL    HW283392  10.971   4.981  11.016  0.9784  0.1271 -1.0907
27129SOL     OW83393   6.648  10.380   8.428  0.0835 -0.2550  0.6121
27129SOL    HW183394   6.742  10.397   8.435  0.5982 -2.9915  1.6051
27129SOL    HW283395   6.618  10.379   8.519 -0.4975 -1.2493  0.4217
27130SOL     OW83396   4.978  10.814   1.348 -0.2899 -0.1599 -0.2583
27130SOL    HW183397   4.950  10.770   1.428 -0.9889  2.8654  1.3287
27130SOL    HW283398   5.072  10.830   1.360 -0.1138 -0.8183 -0.6722
27131SOL     OW83399   9.164   2.203  10.974  0.1514 -0.2325 -0.3283
27131SOL    HW183400   9.072   2.187  10.955 -0.6873  2.4253  0.9768
27131SOL    HW283401   9.167   2.216  11.069  2.0554 -1.1038 -0.2124
27132SOL     OW83402   9.286   2.565  10.066 -0.3966 -0.3737 -0.4000
27132SOL    HW183403   9.324   2.599  10.147 -1.3217  0.2769 -0.2286
27132SOL    HW283404   9.254   2.478  10.089 -0.9412 -0.0641  0.0166
27133SOL     OW83405   1.869   9.966   4.760 -0.7322  0.5807  0.1318
27133SOL    HW183406   1.873  10.046   4.707  0.0130  0.2619 -0.2991
27133SOL    HW283407   1.827   9.901   4.703 -1.8308  0.7908  0.6658
27134SOL     OW83408   0.887   9.706   0.705 -0.2559  0.1921 -0.4346
27134SOL    HW183409   0.919   9.652   0.632  1.7470 -0.2083  0.6467
27134SOL    HW283410   0.847   9.644   0.765 -0.2189  0.2488 -0.3505
27135SOL     OW83411   3.682   8.950   0.358 -0.2819 -0.2097 -0.1817
27135SOL    HW183412   3.620   8.978   0.425  0.2293  1.8650 -0.5227
27135SOL    HW283413   3.715   8.866   0.390 -0.9954  0.1149  1.5198
27136SOL     OW83414   5.117  10.443   8.495  0.0197  0.0264  0.2058
27136SOL    HW183415   5.029  10.447   8.534  0.3070  1.4635  0.7901
27136SOL    HW283416   5.105  10.480   8.407  0.0148  0.1163  0.2431
27137SOL     OW83417   0.652   7.832   7.180  0.4791  0.1185 -0.0419
27137SOL    HW183418   0.598   7.885   7.238 -1.1761 -0.9916 -0.5033
27137SOL    HW283419   0.590   7.791   7.119  1.4573 -3.3493  1.0529
27138SOL     OW83420   7.256   8.436   2.971 -0.3591  0.1766 -0.0615
27138SOL    HW183421   7.188   8.418   3.037  0.4813 -0.6884  0.6038
27138SOL    HW283422   7.252   8.360   2.913  0.7891 -0.4458  0.6461
27139SOL     OW83423   3.332  10.489   4.989 -0.3074  0.0247  0.1069
27139SOL    HW183424   3.257  10.477   4.929 -2.0754  1.8716  1.8008
27139SOL    HW283425   3.332  10.409   5.042 -0.7679 -0.2271 -0.2573
27140SOL     OW83426   4.228   2.706  10.624  0.2851 -0.6178 -0.2308
27140SOL    HW183427   4.222   2.612  10.605 -2.8919 -0.4962 -0.4844
27140SOL    HW283428   4.221   2.712  10.719 -1.4332 -0.6438 -0.3185
27141SOL     OW83429   4.042   0.189   4.400 -0.8149  0.2461  0.0710
27141SOL    HW183430   3.963   0.242   4.412 -0.3315  1.1923 -0.7786
27141SOL    HW283431   4.022   0.106   4.443 -2.2944  0.4408 -0.1901
27142SOL     OW83432   4.984   8.719   9.623 -0.1061 -0.5580 -0.1863
27142SOL    HW183433   5.056   8.760   9.576 -0.0802 -0.0716  0.2694
27142SOL    HW283434   4.916   8.786   9.626 -0.1563 -0.6325  0.3478
27143SOL     OW83435   9.446   9.341   7.444  0.0027  0.7180 -0.0007
27143SOL    HW183436   9.473   9.263   7.396 -0.2390  1.6254 -1.7119
27143SOL    HW283437   9.508   9.348   7.516  0.7148 -0.4353 -0.4741
27144SOL     OW83438   3.036   3.926   5.487 -0.2814  0.4697  0.4086
27144SOL    HW183439   3.021   3.863   5.557 -0.0339 -0.7920 -0.6269
27144SOL    HW283440   3.014   4.011   5.525 -3.3388 -0.4933  1.0399
27145SOL     OW83441   4.379   1.245  11.046 -0.2934 -0.1490  0.0802
27145SOL    HW183442   4.419   1.197  11.118  1.0981  2.1305  0.9557
27145SOL    HW283443   4.447   1.249  10.979 -1.7367 -2.6651 -1.6881
27146SOL     OW83444   4.896   9.026   9.977  0.0242 -0.0948 -0.2584
27146SOL    HW183445   4.887   9.013  10.072  0.2864 -1.6338 -0.4166
27146SOL    HW283446   4.807   9.012   9.943 -0.3818  1.9347 -0.1156
27147SOL     OW83447   3.566   6.276   3.790 -0.3830 -0.2304 -0.2882
27147SOL    HW183448   3.529   6.320   3.714  0.4515 -0.1664 -0.6681
27147SOL    HW283449   3.629   6.339   3.826  0.4385 -0.9007 -0.5292
27148SOL     OW83450   8.329   0.645  10.396 -0.4717 -0.2406 -0.0349
27148SOL    HW183451   8.399   0.709  10.384 -0.1555 -0.3393  1.1259
27148SOL    HW283452   8.252   0.685  10.356  0.0459  0.2604 -0.5336
27149SOL     OW83453   5.539   7.098   8.174 -0.1793 -0.1944  0.0148
27149SOL    HW183454   5.529   7.021   8.118 -0.6881 -0.4093  0.3930
27149SOL    HW283455   5.486   7.165   8.131  0.9203  0.2035 -0.7621
27150SOL     OW83456   9.703   5.108   9.897 -0.4010  0.0027 -0.1588
27150SOL    HW183457   9.706   5.204   9.900 -0.6750  0.0152 -0.1669
27150SOL    HW283458   9.631   5.089   9.836  0.5503 -0.2146 -1.2336
27151SOL     OW83459   8.008   9.837   3.210 -0.1301 -0.1358  0.4343
27151SOL    HW183460   7.929   9.886   3.236  0.1359  0.2307  0.5632
27151SOL    HW283461   7.984   9.795   3.127  0.0593  1.3164 -0.3988
27152SOL     OW83462   8.853   5.873   3.025 -0.1925  0.3148  0.5140
27152SOL    HW183463   8.779   5.904   2.973 -0.5655 -1.0635  0.2024
27152SOL    HW283464   8.928   5.921   2.990 -0.2993 -1.0900 -1.8106
27153SOL     OW83465   1.481   9.677   9.702  0.4045 -0.5624 -0.1417
27153SOL    HW183466   1.386   9.662   9.712  0.4391 -1.1844 -0.6249
27153SOL    HW283467   1.517   9.665   9.789 -0.0690  0.5810  0.2292
27154SOL     OW83468   8.326   6.372   8.625 -0.3318  0.3940  0.2389
27154SOL    HW183469   8.266   6.333   8.688 -0.6120  0.9562  0.3259
27154SOL    HW283470   8.392   6.416   8.678 -0.9360  1.4269  0.1487
27155SOL     OW83471   1.804  10.549   7.574  0.6983  0.6694  0.7120
27155SOL    HW183472   1.818  10.463   7.614  0.2538  0.0753 -0.3781
27155SOL    HW283473   1.825  10.537   7.482  0.9557  1.8219  0.6000
27156SOL     OW83474   2.802   9.951   6.773 -0.3721  0.2903  0.3422
27156SOL    HW183475   2.729   9.942   6.712 -0.7321 -0.2526  0.8516
27156SOL    HW283476   2.877   9.971   6.717 -0.4916 -1.1709 -0.3966
27157SOL     OW83477   4.589   6.135   9.374  0.2264  0.0260 -0.2031
27157SOL    HW183478   4.658   6.139   9.441 -1.3480 -1.5501  1.6647
27157SOL    HW283479   4.509   6.158   9.421 -0.8924 -0.7206 -1.6557
27158SOL     OW83480   7.992   9.442   9.532 -0.3769  0.1030  0.4023
27158SOL    HW183481   8.007   9.527   9.491  1.6178  0.8547  2.4670
27158SOL    HW283482   7.986   9.381   9.458  2.1161  1.4900 -1.0977
27159SOL     OW83483   3.499   7.620   5.840 -0.1632  0.0341 -0.0295
27159SOL    HW183484   3.513   7.673   5.761  2.8367 -0.9876 -0.3322
27159SOL    HW283485   3.522   7.531   5.813 -0.1766 -0.5248  1.6953
27160SOL     OW83486   6.698  10.408   6.168  0.1711  0.4555 -0.0043
27160SOL    HW183487   6.651  10.350   6.108  0.5269  0.9364 -0.7634
27160SOL    HW283488   6.688  10.495   6.129  0.1933  0.8172  0.7750
27161SOL     OW83489   8.887   9.528   7.537  0.0922  0.3656 -0.5771
27161SOL    HW183490   8.975   9.565   7.547  0.1892  0.1757 -0.7251
27161SOL    HW283491   8.857   9.511   7.626  1.1655 -1.8368 -0.5707
27162SOL     OW83492   6.976   9.945  10.259  0.7385  0.1954  0.1898
27162SOL    HW183493   6.938  10.029  10.232  1.9610  0.9745  0.7974
27162SOL    HW283494   7.063   9.968  10.293  0.8686 -1.2535  0.9065
27163SOL     OW83495   9.348   5.190   3.331  0.1778 -0.6914 -0.1987
27163SOL    HW183496   9.279   5.196   3.397 -0.0933  0.5272 -0.5563
27163SOL    HW283497   9.424   5.230   3.372 -0.3933  1.4693 -1.0695
27164SOL     OW83498   4.373   4.423   3.274 -0.0533 -0.8567  0.2617
27164SOL    HW183499   4.392   4.513   3.247  1.9260 -0.8061  1.5582
27164SOL    HW283500   4.350   4.378   3.193  0.6093  0.4417 -0.6949
27165SOL     OW83501   5.878   4.806   0.955 -0.5281  0.3731  0.0100
27165SOL    HW183502   5.905   4.719   0.924 -2.7682 -0.3427 -0.1652
27165SOL    HW283503   5.879   4.799   1.050 -3.6519 -0.9852  0.0642
27166SOL     OW83504   9.038  10.270   0.577 -0.3476  0.1605  0.0238
27166SOL    HW183505   9.126  10.297   0.600 -0.4821  0.6944 -0.0665
27166SOL    HW283506   9.030  10.181   0.611  0.2361  0.0926 -0.0069
27167SOL     OW83507   8.776   4.174   1.818 -0.3955 -0.3654 -0.6650
27167SOL    HW183508   8.697   4.134   1.856 -1.5170  0.4807 -1.9897
27167SOL    HW283509   8.760   4.268   1.822 -0.2738 -0.2269 -2.5650
27168SOL     OW83510  10.928   7.111  10.592  0.3689  0.2218 -0.2944
27168SOL    HW183511  11.009   7.162  10.583 -0.1610  1.0091 -0.7760
27168SOL    HW283512  10.911   7.077  10.505  0.9900 -1.2588  0.1267
27169SOL     OW83513   1.335   9.819   4.958  0.0659  0.1411  0.4068
27169SOL    HW183514   1.312   9.902   5.001  1.1250  0.8360 -0.3163
27169SOL    HW283515   1.352   9.843   4.867 -0.5159 -1.0413 -0.0334
27170SOL     OW83516  10.066   8.546   5.481 -0.2064 -0.3993  0.3633
27170SOL    HW183517  10.060   8.642   5.478  1.7441 -0.2180  0.8338
27170SOL    HW283518   9.983   8.518   5.520 -0.4942  1.1659  0.9459
27171SOL     OW83519   1.603  10.431   6.458 -0.1678  0.0340 -0.6666
27171SOL    HW183520   1.688  10.389   6.446 -0.4529 -0.3208 -1.5863
27171SOL    HW283521   1.551  10.401   6.382 -1.2840 -0.1919  0.1565
27172SOL     OW83522   7.710   0.155   8.526  0.1008  0.2982 -0.6095
27172SOL    HW183523   7.687   0.243   8.496  0.6822  0.6848  0.0488
27172SOL    HW283524   7.794   0.166   8.569  0.4292 -0.6825 -0.9817
27173SOL     OW83525   3.184   1.014   9.884 -0.1036  0.1699 -0.3064
27173SOL    HW183526   3.183   1.091   9.828  0.2592  0.7576  0.4606
27173SOL    HW283527   3.235   1.041   9.961  1.5976 -1.3891 -0.8014
27174SOL     OW83528   8.061   9.095   1.840 -0.0320 -0.4832 -0.2234
27174SOL    HW183529   8.139   9.150   1.840  0.2380 -0.8468  1.0598
27174SOL    HW283530   7.992   9.151   1.804  0.7708 -0.1243 -1.2636
27175SOL     OW83531   4.381   7.065   1.145  0.2155  0.2750 -0.0945
27175SOL    HW183532   4.371   6.990   1.085  0.5337  1.5972 -1.8726
27175SOL    HW283533   4.302   7.062   1.199  0.3852 -1.5308  0.1329
27176SOL     OW83534  10.842   7.900   1.480 -0.3395  0.1429  0.1775
27176SOL    HW183535  10.845   7.814   1.439 -0.0234  0.5817 -0.7414
27176SOL    HW283536  10.748   7.921   1.486 -0.4072 -0.1652  0.2064
27177SOL     OW83537  10.374   7.235   4.679 -0.3875  0.5326  0.2602
27177SOL    HW183538  10.430   7.254   4.754  1.1496  2.0040 -1.1555
27177SOL    HW283539  10.288   7.267   4.704 -0.2000 -0.1296  1.8386
27178SOL     OW83540   6.384   8.100   5.279  0.8947  0.4695  0.1968
27178SOL    HW183541   6.363   8.008   5.265  1.0596  0.5380 -0.5152
27178SOL    HW283542   6.301   8.146   5.266  1.3369  0.7097 -2.3185
27179SOL     OW83543   8.273   0.215   3.153  0.9404  0.2620  0.1720
27179SOL    HW183544   8.345   0.188   3.098  0.3004 -1.1552 -0.0091
27179SOL    HW283545   8.294   0.180   3.240  0.4636 -0.1940  0.1090
27180SOL     OW83546   4.798  10.466   5.871  0.1228 -0.2360 -0.4703
27180SOL    HW183547   4.894  10.473   5.877  0.0414  0.0182  0.6890
27180SOL    HW283548   4.770  10.549   5.834  0.2750  0.1042  0.1625
27181SOL     OW83549  10.611   3.848  10.139  0.0745 -0.2801  0.1009
27181SOL    HW183550  10.619   3.757  10.165  0.3289 -0.4789 -0.6332
27181SOL    HW283551  10.522   3.873  10.163 -0.3707 -1.0534 -0.6712
27182SOL     OW83552   7.748   8.047   8.493 -0.5620  0.4188  0.3256
27182SOL    HW183553   7.659   8.013   8.480 -0.3006  0.0562 -0.6538
27182SOL    HW283554   7.798   7.972   8.526 -0.8111  0.8667  1.7927
27183SOL     OW83555   9.569   9.170   2.006 -0.3234  0.5542 -0.3443
27183SOL    HW183556   9.514   9.163   2.084  0.3505  0.3294  0.1094
27183SOL    HW283557   9.565   9.263   1.983 -0.3225  0.6685  0.1026
27184SOL     OW83558   4.777   8.670   3.301 -0.2095 -0.0997  0.6792
27184SOL    HW183559   4.782   8.752   3.350  1.7588 -0.8103  1.7915
27184SOL    HW283560   4.867   8.637   3.301 -0.7091 -1.5854 -0.9247
27185SOL     OW83561   7.743   9.189   0.854 -0.3111  0.0102  0.4124
27185SOL    HW183562   7.734   9.283   0.865 -1.0110  0.0336 -0.2986
27185SOL    HW283563   7.742   9.154   0.943 -0.3003  0.6458  0.6683
27186SOL     OW83564   7.339   6.678   2.608  0.2533  0.9298  0.4571
27186SOL    HW183565   7.420   6.685   2.558 -1.3011  1.7787 -2.1654
27186SOL    HW283566   7.339   6.589   2.643  1.2587  0.1182 -1.4785
27187SOL     OW83567  11.086   8.919   5.980  0.4310  0.5812  0.0231
27187SOL    HW183568  11.018   8.970   5.934 -0.1289 -0.1391  0.0458
27187SOL    HW283569  11.143   8.887   5.910 -1.4886 -2.1266 -0.4612
27188SOL     OW83570  10.805   5.873   7.401 -0.1778  0.4092  0.0411
27188SOL    HW183571  10.893   5.836   7.389 -0.2320 -0.0403  0.9191
27188SOL    HW283572  10.815   5.932   7.476 -0.2678  1.5876 -0.8596
27189SOL     OW83573   1.621   6.825   5.231 -1.1344  0.0569  0.5312
27189SOL    HW183574   1.653   6.773   5.158 -0.3828  0.5268  0.5178
27189SOL    HW283575   1.587   6.760   5.293 -0.0548 -0.4795  0.5918
27190SOL     OW83576  10.231   6.583   8.643 -0.3838  0.8750  0.8286
27190SOL    HW183577  10.310   6.531   8.627 -0.9556 -0.0657  0.9957
27190SOL    HW283578  10.204   6.613   8.557  0.4625  1.6909  0.8213
27191SOL     OW83579   8.538  10.313   5.023  0.6898  0.2633  0.3931
27191SOL    HW183580   8.458  10.276   4.987  1.9201 -0.2252 -2.0152
27191SOL    HW283581   8.544  10.276   5.111 -0.5193 -1.5677 -0.2446
27192SOL     OW83582   3.935   3.459   1.706 -0.5687  0.2327 -0.2793
27192SOL    HW183583   3.978   3.402   1.642 -0.8234  0.5942 -0.7751
27192SOL    HW283584   3.849   3.476   1.669 -1.1736 -0.5145  0.7221
27193SOL     OW83585   5.859   5.307   0.242  0.0231  0.3335 -0.3697
27193SOL    HW183586   5.826   5.390   0.276 -0.2800 -0.1773  0.6178
27193SOL    HW283587   5.825   5.303   0.152 -1.3137  0.5446  0.0988
27194SOL     OW83588   8.273   3.992   2.994  0.1164  0.0086 -0.1811
27194SOL    HW183589   8.249   3.976   3.085 -0.1169  1.8653  0.1182
27194SOL    HW283590   8.339   4.061   2.998 -2.3419  2.6464 -1.4998
27195SOL     OW83591   1.166   7.832   3.848 -0.4809  0.1863  0.0194
27195SOL    HW183592   1.187   7.809   3.938 -0.6369  0.8705  0.2353
27195SOL    HW283593   1.248   7.817   3.800 -0.3245  0.0624  0.3223
27196SOL     OW83594   5.916   8.939   1.425  0.2206  0.6593 -0.3968
27196SOL    HW183595   5.945   9.009   1.484  2.8456  0.0632 -0.8594
27196SOL    HW283596   5.845   8.895   1.472 -0.0915  2.3174  0.7773
27197SOL     OW83597   4.434   3.496   4.677 -0.0904 -0.2964 -0.0506
27197SOL    HW183598   4.415   3.429   4.611  0.8471 -1.1048  0.4803
27197SOL    HW283599   4.353   3.504   4.727 -1.0341  0.7805 -1.6520
27198SOL     OW83600   9.990   4.404   3.142 -0.4582  0.2776  0.0731
27198SOL    HW183601  10.058   4.460   3.180 -0.5850  1.4163 -1.2662
27198SOL    HW283602   9.908   4.449   3.161 -0.5784  0.4883 -0.8654
27199SOL     OW83603   6.673   7.681   7.652  0.1033 -0.1335  0.0273
27199SOL    HW183604   6.590   7.712   7.689 -0.3554 -0.9434 -0.2973
27199SOL    HW283605   6.732   7.676   7.727 -0.2162  0.2099  0.3055
27200SOL     OW83606  10.552   8.714   6.529  0.0214 -0.2889  0.2482
27200SOL    HW183607  10.577   8.680   6.615 -0.1528 -0.9564  0.0435
27200SOL    HW283608  10.634   8.722   6.481  0.1055 -0.0267  0.4341
27201SOL     OW83609   8.949   0.103   6.363 -0.2442  0.9559 -0.4009
27201SOL    HW183610   8.947   0.180   6.419  0.9570  0.3562  0.5282
27201SOL    HW283611   9.020   0.049   6.400  0.5200  0.4943 -2.4396
27202SOL     OW83612   6.250   0.022   5.402 -0.1241  0.0536  0.0428
27202SOL    HW183613   6.189   0.061   5.464 -0.2522  1.2664 -0.8016
27202SOL    HW283614   6.207   0.032   5.317  1.6615  2.0032 -0.7477
27203SOL     OW83615   6.791   8.854   6.075 -0.4499  0.2197 -0.5132
27203SOL    HW183616   6.779   8.922   6.142 -0.1678 -0.5649  0.3555
27203SOL    HW283617   6.808   8.903   5.995  1.7430  1.2168  0.4481
27204SOL     OW83618   7.319   7.760   5.678 -0.3186 -0.2989  0.2983
27204SOL    HW183619   7.272   7.684   5.644  1.1402 -1.1535  0.1479
27204SOL    HW283620   7.296   7.763   5.771 -0.7388 -0.6336  0.2085
27205SOL     OW83621   9.468   9.907   4.442  0.3259 -0.1226 -0.1830
27205SOL    HW183622   9.461   9.929   4.350  1.0544 -0.2244 -0.2684
27205SOL    HW283623   9.388   9.941   4.481 -0.5498 -1.1218 -1.0520
27206SOL     OW83624   1.164   1.727   8.424  0.5614  0.0732 -0.3383
27206SOL    HW183625   1.220   1.800   8.449 -0.5647  0.2648  1.9018
27206SOL    HW283626   1.088   1.735   8.481 -0.6488 -1.5299 -1.6488
27207SOL     OW83627   1.947   8.831   4.405 -0.1169  0.0631  0.0530
27207SOL    HW183628   1.890   8.756   4.386  0.1641  0.3851 -2.3702
27207SOL    HW283629   2.036   8.795   4.398  0.0443  0.7530 -2.0999
27208SOL     OW83630   4.968   5.880   3.177 -0.7853 -0.1511 -0.2388
27208SOL    HW183631   4.978   5.790   3.145 -1.8253 -0.5523  0.4956
27208SOL    HW283632   4.985   5.935   3.101  0.4762 -0.9386 -0.5539
27209SOL     OW83633   3.346  10.750   1.575  0.4520 -0.3558 -0.5483
27209SOL    HW183634   3.274  10.696   1.608  0.4067  0.5567  0.8953
27209SOL    HW283635   3.370  10.709   1.492 -1.3765 -0.9834 -0.8019
27210SOL     OW83636   7.222  10.672   2.908 -0.5077  0.1851 -0.1255
27210SOL    HW183637   7.273  10.592   2.891 -3.0339 -1.5232 -0.1772
27210SOL    HW283638   7.235  10.689   3.001 -0.5368 -0.7701  0.0695
27211SOL     OW83639   5.239   7.801   2.432  0.6430 -0.4140 -0.1152
27211SOL    HW183640   5.242   7.894   2.410  0.9996 -0.3235  0.3068
27211SOL    HW283641   5.288   7.758   2.362 -0.3447 -0.3940 -0.8447
27212SOL     OW83642   3.521   6.844   8.559  0.2142  0.4329  1.1300
27212SOL    HW183643   3.472   6.763   8.571 -1.5548  0.6636 -2.9497
27212SOL    HW283644   3.601   6.818   8.513 -0.0266  0.8956  0.4299
27213SOL     OW83645   8.234   4.935   5.210 -0.5059 -0.0488 -0.1712
27213SOL    HW183646   8.257   4.843   5.223 -0.1739 -0.0507 -0.7742
27213SOL    HW283647   8.195   4.939   5.123 -2.7099 -0.0224  0.7485
27214SOL     OW83648   9.314   9.913   3.674  0.2173 -0.4798 -0.5032
27214SOL    HW183649   9.277   9.963   3.601 -0.8921  1.0270  1.0007
27214SOL    HW283650   9.250   9.845   3.692 -0.2431  0.0611 -0.0347
27215SOL     OW83651   8.371  10.271   6.040  0.3140  0.1974  0.3168
27215SOL    HW183652   8.316  10.323   5.982  0.6651 -0.3191 -0.4939
27215SOL    HW283653   8.459  10.309   6.030  0.7929 -1.1512 -1.0837
27216SOL     OW83654   2.878   1.391   3.987  0.2967  0.1695  0.2839
27216SOL    HW183655   2.845   1.445   4.059 -0.7769 -0.7279  0.4960
27216SOL    HW283656   2.854   1.438   3.908 -0.7242 -0.0379  0.4647
27217SOL     OW83657   7.015   8.264   7.418  0.0686  0.4878  0.1568
27217SOL    HW183658   7.059   8.337   7.375  2.2659 -1.9386 -2.0940
27217SOL    HW283659   7.084   8.199   7.432 -2.2990 -2.6632 -1.4669
27218SOL     OW83660   6.642   7.508   2.323  0.1178 -0.3032  0.0051
27218SOL    HW183661   6.661   7.435   2.265 -0.5334 -0.5026  0.0366
27218SOL    HW283662   6.548   7.521   2.315 -0.2174 -1.1568  1.9496
27219SOL     OW83663   8.706   1.655   0.356 -0.1807 -0.2197  0.4061
27219SOL    HW183664   8.718   1.578   0.300  0.5643  0.0765  0.1339
27219SOL    HW283665   8.791   1.665   0.401 -0.2791  0.4150  0.4635
27220SOL     OW83666   5.335   5.528   8.702  0.4556 -0.0689  0.4195
27220SOL    HW183667   5.342   5.622   8.687  2.1029 -0.2464 -0.1044
27220SOL    HW283668   5.408   5.490   8.654 -1.3355 -1.8447 -1.0917
27221SOL     OW83669   7.830   9.362   4.009 -0.2349  0.1352 -0.0305
27221SOL    HW183670   7.803   9.332   4.096 -0.8014  1.0235  0.1051
27221SOL    HW283671   7.890   9.434   4.027  2.2233 -1.6927 -0.3229
27222SOL     OW83672   5.067   3.657   3.854 -0.0063 -0.0505  0.2470
27222SOL    HW183673   5.061   3.561   3.851  1.3747 -0.1508  0.2627
27222SOL    HW283674   5.111   3.676   3.936 -0.3498  0.6099  0.2807
27223SOL     OW83675   7.174   6.129   7.048 -0.5665 -0.0217  0.2764
27223SOL    HW183676   7.203   6.166   7.132  0.2491 -0.9866  0.4375
27223SOL    HW283677   7.088   6.169   7.033  0.3305  2.0964  0.3371
27224SOL     OW83678   0.340  10.542   2.681 -0.1224  0.2931  0.3080
27224SOL    HW183679   0.373  10.463   2.638  0.3476  1.0578 -0.7602
27224SOL    HW283680   0.416  10.580   2.723 -0.1528  0.6958 -0.0014
27225SOL     OW83681   2.575   5.114   1.586  0.3767  0.0126  0.0615
27225SOL    HW183682   2.523   5.125   1.506  1.3787 -2.0049 -0.9627
27225SOL    HW283683   2.580   5.201   1.625  1.8815  1.6615 -3.3943
27226SOL     OW83684   3.190   0.725   3.221 -0.8083 -0.0495  0.1813
27226SOL    HW183685   3.227   0.708   3.307 -0.2126  1.2951  0.2160
27226SOL    HW283686   3.149   0.642   3.195  0.5060 -0.9869  0.9946
27227SOL     OW83687   5.629   7.461   6.359 -0.6549 -0.2256  0.0823
27227SOL    HW183688   5.537   7.487   6.345 -0.9785  0.1492  2.4268
27227SOL    HW283689   5.680   7.528   6.314 -1.5323  0.3752 -0.0413
27228SOL     OW83690   3.082  10.396   2.861  0.0088 -0.1894  0.3038
27228SOL    HW183691   3.021  10.349   2.804  0.3105 -1.6003  1.0907
27228SOL    HW283692   3.026  10.450   2.916 -0.4855 -0.7582  0.3775
27229SOL     OW83693   2.159   3.854   3.309 -0.0118  0.3191  0.3459
27229SOL    HW183694   2.091   3.789   3.327  0.4851 -0.1701  0.4828
27229SOL    HW283695   2.192   3.879   3.396 -0.9049  1.5317  0.3603
27230SOL     OW83696   2.086   0.418   8.536 -0.6223 -0.3016 -0.3201
27230SOL    HW183697   2.133   0.388   8.459  0.5857  0.6194  0.0278
27230SOL    HW283698   2.113   0.509   8.547 -0.9284 -0.3505  1.0527
27231SOL     OW83699   9.940   0.628   4.962 -0.0020  0.1184  0.2682
27231SOL    HW183700   9.914   0.620   5.054  0.2667  0.2002  0.3507
27231SOL    HW283701   9.874   0.577   4.914 -0.5327  0.6342  0.4388
27232SOL     OW83702   9.376   1.336   6.213  0.1657  0.4149 -0.4046
27232SOL    HW183703   9.359   1.350   6.306 -1.8705 -0.9000 -0.5154
27232SOL    HW283704   9.405   1.245   6.207  3.7127  1.4118 -0.7518
27233SOL     OW83705   3.050   5.377   1.185  0.0494  0.5576 -0.2358
27233SOL    HW183706   2.964   5.397   1.148 -1.3652 -0.3708  2.2758
27233SOL    HW283707   3.071   5.452   1.240  0.4017  0.3940 -0.1462
27234SOL     OW83708   7.642   5.373   8.003  0.4720 -0.5023 -0.9171
27234SOL    HW183709   7.639   5.453   8.055 -2.4633 -0.7935 -0.5167
27234SOL    HW283710   7.623   5.402   7.914 -0.9718 -0.7596 -0.7099
27235SOL     OW83711   8.331   1.873   8.114  0.3918  0.0074  0.2214
27235SOL    HW183712   8.420   1.845   8.138  0.8986  1.8149  0.5891
27235SOL    HW283713   8.344   1.943   8.050 -0.8212 -0.4196 -0.5252
27236SOL     OW83714   1.258   0.441   1.388  0.3269 -0.1208 -0.2451
27236SOL    HW183715   1.314   0.442   1.465 -0.3848 -0.3997  0.2891
27236SOL    HW283716   1.267   0.352   1.353 -0.5536 -0.4826  0.4275
27237SOL     OW83717   1.489   8.753   5.558 -0.2577 -0.4319 -0.2911
27237SOL    HW183718   1.462   8.667   5.525 -0.4731 -0.3561 -0.3134
27237SOL    HW283719   1.584   8.750   5.555 -0.2701 -0.2263 -1.4433
27238SOL     OW83720   8.484   1.738   7.197  0.0139 -0.5826 -0.3386
27238SOL    HW183721   8.492   1.830   7.171  0.6997 -0.8845 -1.2578
27238SOL    HW283722   8.570   1.701   7.180 -0.2319 -1.3757  0.1135
27239SOL     OW83723   8.331   7.498   5.300  0.1210 -0.3948 -0.0694
27239SOL    HW183724   8.365   7.583   5.272 -0.6589  0.8227  2.3723
27239SOL    HW283725   8.409   7.445   5.315  0.5985 -0.5819 -2.6698
27240SOL     OW83726   4.754   5.742   8.389 -0.4632  0.3416 -0.0340
27240SOL    HW183727   4.733   5.723   8.298 -0.8144  0.0378  0.1073
27240SOL    HW283728   4.811   5.818   8.385  0.9835 -0.7280 -0.6083
27241SOL     OW83729   8.104   7.328   1.922 -0.6172  0.5318  0.3318
27241SOL    HW183730   8.025   7.273   1.915  1.1581 -2.0427 -1.3278
27241SOL    HW283731   8.103   7.380   1.842 -0.8239  0.7838  0.4976
27242SOL     OW83732  10.943   1.676   7.772  0.0545  0.1689 -0.1600
27242SOL    HW183733  10.868   1.630   7.734 -0.6312 -0.2260  1.5887
27242SOL    HW283734  10.947   1.759   7.724  0.2994 -0.9766 -2.2364
27243SOL     OW83735   8.611   0.689  10.644 -0.0859  0.8073  0.4100
27243SOL    HW183736   8.632   0.781  10.661 -1.8110  1.0824  1.2636
27243SOL    HW283737   8.519   0.680  10.669  0.3290 -1.4151  1.3697
27244SOL     OW83738   5.804   2.659   7.544  0.0290 -0.5734 -0.6395
27244SOL    HW183739   5.787   2.744   7.504  2.9642  0.0763 -0.7158
27244SOL    HW283740   5.737   2.651   7.613 -1.0440  1.2131 -1.3985
27245SOL     OW83741   0.142   7.639   8.520  0.2289  0.5084  0.3627
27245SOL    HW183742   0.191   7.721   8.518  0.7041  0.2882  1.8828
27245SOL    HW283743   0.169   7.592   8.441  0.0075  1.7683 -0.4868
27246SOL     OW83744   7.755   7.958   3.634  0.5057  0.3077  0.0486
27246SOL    HW183745   7.728   8.005   3.555 -0.2679 -0.4915 -0.1752
27246SOL    HW283746   7.779   7.870   3.602 -1.4082 -0.5670  0.8950
27247SOL     OW83747   7.767  10.065   3.099 -0.0695  0.6380 -0.2989
27247SOL    HW183748   7.703  10.018   3.046  1.4047 -0.2886 -1.3481
27247SOL    HW283749   7.791  10.003   3.168  0.6521  0.4649 -0.6966
27248SOL     OW83750   4.662   1.961   0.227 -0.1539 -0.1523  0.5469
27248SOL    HW183751   4.750   1.949   0.192  0.5685  1.1715  1.8270
27248SOL    HW283752   4.625   2.033   0.177 -0.6263 -0.8588 -0.1491
27249SOL     OW83753   2.893   9.810   2.666 -0.1413 -0.2073  0.2735
27249SOL    HW183754   2.867   9.790   2.576 -2.4228 -0.1977  0.8550
27249SOL    HW283755   2.817   9.785   2.719  1.1238 -0.1935  2.2187
27250SOL     OW83756   5.217  10.184   1.628  0.5459  0.3492 -0.2705
27250SOL    HW183757   5.128  10.184   1.663  0.3915 -0.1316 -0.6444
27250SOL    HW283758   5.256  10.265   1.659  0.4087 -0.0557  1.0125
27251SOL     OW83759  10.737  10.762   7.706 -0.4231 -0.2134  0.4405
27251SOL    HW183760  10.649  10.794   7.726 -0.3524  0.6526 -0.5623
27251SOL    HW283761  10.762  10.712   7.783 -1.7346 -0.3434  0.8032
27252SOL     OW83762   5.004   9.217   7.948  0.4098  0.4949  0.0980
27252SOL    HW183763   5.085   9.205   7.998  1.7874 -1.2161 -2.3354
27252SOL    HW283764   4.936   9.183   8.006  1.3012  2.1923  2.3058
27253SOL     OW83765   5.822  10.361   4.442 -0.2287 -0.0012 -0.5825
27253SOL    HW183766   5.910  10.331   4.418  0.4532  1.7856 -0.4111
27253SOL    HW283767   5.792  10.295   4.506  1.2356 -0.3066 -0.1582
27254SOL     OW83768   9.076  10.860   8.213 -0.6308 -0.4504  0.0266
27254SOL    HW183769   9.047  10.804   8.141 -0.0055 -0.8121  0.0536
27254SOL    HW283770   9.053  10.949   8.184  0.1801 -0.5248 -0.9156
27255SOL     OW83771   2.963  11.008   7.558  0.8795 -0.0725 -0.1979
27255SOL    HW183772   2.922  10.940   7.505  1.4217 -1.1282  0.6929
27255SOL    HW283773   2.890  11.048   7.607  0.7936 -1.6209  1.0293
27256SOL     OW83774   2.362   0.101   5.706 -0.9029  0.2465 -0.5522
27256SOL    HW183775   2.362   0.196   5.710  1.9648  0.3481 -0.5601
27256SOL    HW283776   2.438   0.075   5.758 -0.4049 -1.9171 -2.1932
27257SOL     OW83777   6.010  10.628   0.237  0.1500  0.2683  0.3964
27257SOL    HW183778   6.005  10.633   0.333  0.3956  0.0737  0.4206
27257SOL    HW283779   6.053  10.709   0.211  1.1289 -0.1870  0.5391
27258SOL     OW83780   4.494   7.800   2.797 -0.6799  0.4027  0.3956
27258SOL    HW183781   4.536   7.723   2.759  0.3183  1.0355  0.1840
27258SOL    HW283782   4.407   7.769   2.824 -0.7034 -0.5196 -0.6756
27259SOL     OW83783   6.487  10.140   9.062  0.1056 -0.3117  0.2876
27259SOL    HW183784   6.560  10.167   9.007  0.6289 -1.5885  0.3148
27259SOL    HW283785   6.500  10.185   9.145  1.2344 -0.9922  0.5076
27260SOL     OW83786   7.661   7.888   5.206 -0.3373  0.0333  0.5326
27260SOL    HW183787   7.618   7.909   5.289 -0.5422  0.2791  0.3661
27260SOL    HW283788   7.676   7.972   5.165  0.9804  0.0024  0.9128
27261SOL     OW83789  10.406  10.049   0.697  0.6246  0.4524  0.0351
27261SOL    HW183790  10.486  10.102   0.704  0.2892  1.2275 -1.4923
27261SOL    HW283791  10.414  10.006   0.612 -0.6066  0.5752 -0.1503
27262SOL     OW83792   6.936   7.653   4.638  0.1468  0.1615  0.4533
27262SOL    HW183793   6.899   7.581   4.689 -0.5315  1.7336  2.2977
27262SOL    HW283794   6.909   7.732   4.685  2.3624  1.5613 -0.4710
27263SOL     OW83795   2.698   0.855  10.002 -0.0347 -0.3442 -0.1189
27263SOL    HW183796   2.710   0.864  10.096 -1.4516 -2.2850  0.3044
27263SOL    HW283797   2.774   0.898   9.964  0.2793  0.9984  1.8686
27264SOL     OW83798  10.735   0.337   0.221 -0.2920 -0.4903  0.2716
27264SOL    HW183799  10.728   0.256   0.272  0.0493 -1.1351 -0.6906
27264SOL    HW283800  10.674   0.326   0.149 -1.4613  0.8051  1.0087
27265SOL     OW83801   6.609   7.498   0.945 -0.1439  0.5198  0.3829
27265SOL    HW183802   6.659   7.507   0.864  0.9493 -1.9614  0.6967
27265SOL    HW283803   6.674   7.478   1.011 -1.1779  1.1380  1.6256
27266SOL     OW83804  10.283  10.319   5.731 -0.4160 -0.3335  0.5408
27266SOL    HW183805  10.341  10.382   5.688  0.0408 -0.7328  0.5585
27266SOL    HW283806  10.342  10.252   5.766 -0.9357 -1.1671 -0.1268
27267SOL     OW83807   1.304   8.656   4.408  0.3976 -0.0752 -0.4305
27267SOL    HW183808   1.330   8.611   4.328  1.5187  0.5244 -0.4268
27267SOL    HW283809   1.386   8.692   4.443 -0.1712  0.2180  0.6405
27268SOL     OW83810   3.763   0.997   8.311  0.0664 -0.2817 -0.2286
27268SOL    HW183811   3.726   1.085   8.302 -0.3923 -0.3616  0.7868
27268SOL    HW283812   3.852   1.012   8.344 -0.3152 -0.2157  0.8107
27269SOL     OW83813   4.660  10.845   5.115 -0.3067  0.1796 -0.6388
27269SOL    HW183814   4.670  10.886   5.029  0.1331 -1.5151 -1.4436
27269SOL    HW283815   4.695  10.757   5.103 -0.4793 -0.1689  1.2262
27270SOL     OW83816   5.582   5.023   5.467  0.6131 -0.2355  0.4255
27270SOL    HW183817   5.580   4.961   5.394  1.4883  1.1079 -0.8194
27270SOL    HW283818   5.621   5.102   5.429 -0.9444  1.2629  1.7814
27271SOL     OW83819   6.888  10.684   5.727 -0.5065 -0.3079 -0.1458
27271SOL    HW183820   6.824  10.713   5.663  1.8049  0.0679 -2.4434
27271SOL    HW283821   6.898  10.758   5.787 -0.7361  0.4115 -0.9837
27272SOL     OW83822   7.332   2.084   2.709  0.5168 -0.4359  0.6020
27272SOL    HW183823   7.327   2.015   2.642  0.1273  0.5552 -0.4260
27272SOL    HW283824   7.305   2.163   2.663 -0.0854  0.2250  2.0328
27273SOL     OW83825   9.770   6.477   8.250 -0.1351  0.1340 -0.3749
27273SOL    HW183826   9.693   6.424   8.231  0.0782 -0.1170 -0.5466
27273SOL    HW283827   9.766   6.493   8.344  0.5437 -1.3911 -0.0413
27274SOL     OW83828   8.584  10.439   7.713  0.1717 -0.2538 -0.1022
27274SOL    HW183829   8.648  10.468   7.779  1.6004 -0.1442 -1.4762
27274SOL    HW283830   8.566  10.518   7.662 -2.1194  0.0464  1.0249
27275SOL     OW83831   8.741   0.623   7.275  0.1369  0.6232  0.8357
27275SOL    HW183832   8.761   0.565   7.348 -0.7182 -1.5219 -0.5375
27275SOL    HW283833   8.653   0.656   7.294  0.4959  1.2530  1.4605
27276SOL     OW83834   5.498   0.615   8.587  0.2526 -0.3245 -0.0112
27276SOL    HW183835   5.532   0.530   8.612 -0.0075 -0.7456 -1.0467
27276SOL    HW283836   5.504   0.617   8.491 -0.0452  0.6858 -0.0253
27277SOL     OW83837   3.302   9.042   2.892 -0.2745  0.5874  0.3858
27277SOL    HW183838   3.393   9.021   2.912  0.0021 -0.5227 -1.7570
27277SOL    HW283839   3.295   9.033   2.797 -2.3807  1.6607  0.3726
27278SOL     OW83840   1.186   8.116   2.063 -0.3927  0.1157 -0.1466
27278SOL    HW183841   1.250   8.182   2.036 -0.1242 -0.7877 -1.8685
27278SOL    HW283842   1.129   8.161   2.124  1.4627  1.1521  0.9118
27279SOL     OW83843   5.285   6.556   8.078 -0.0201 -0.3750 -0.2334
27279SOL    HW183844   5.253   6.493   8.013  1.2455  0.5144 -1.7970
27279SOL    HW283845   5.216   6.622   8.083 -0.3338 -0.6939 -0.3183
27280SOL     OW83846   5.723  10.668   5.385  0.1647 -0.3603  0.2763
27280SOL    HW183847   5.711  10.629   5.299  0.9781 -1.1881  0.5273
27280SOL    HW283848   5.753  10.757   5.367  1.3163 -0.8457 -0.3152
27281SOL     OW83849   8.400   6.938   8.411  0.0853 -0.1396  0.0992
27281SOL    HW183850   8.473   6.994   8.384 -2.0075  2.9564  0.4138
27281SOL    HW283851   8.378   6.968   8.499 -2.4328 -0.0161 -0.5073
27282SOL     OW83852   6.296   5.976   3.099  0.0946  1.0895 -0.3052
27282SOL    HW183853   6.292   6.027   3.180 -0.6798  0.1736  0.2649
27282SOL    HW283854   6.344   5.897   3.123 -1.1068  0.2958 -0.4138
27283SOL     OW83855  10.039   5.778   5.540  0.4498 -0.5187 -0.2524
27283SOL    HW183856  10.053   5.868   5.570  1.0921 -0.5099 -0.5720
27283SOL    HW283857   9.944   5.767   5.542  0.4384 -0.3680  1.3445
27284SOL     OW83858   9.327   9.362   5.787  0.3053 -0.0264 -0.5900
27284SOL    HW183859   9.412   9.403   5.801  0.3545 -0.2084 -0.3483
27284SOL    HW283860   9.348   9.274   5.754  0.2577 -0.6804  1.0295
27285SOL     OW83861   6.136   9.023   6.987 -0.3046 -0.2344  0.2864
27285SOL    HW183862   6.066   9.066   7.036 -1.2617  0.1987 -1.3960
27285SOL    HW283863   6.101   8.936   6.966  0.2943 -0.6026  0.7595
27286SOL     OW83864   7.244   5.229   9.277 -0.4051 -0.7140  0.7595
27286SOL    HW183865   7.203   5.178   9.207  2.4954 -1.6485 -0.4370
27286SOL    HW283866   7.292   5.164   9.329  2.8236  0.5158 -0.3843
27287SOL     OW83867   7.610   1.022   3.585  0.5601  0.2751  0.0174
27287SOL    HW183868   7.610   1.077   3.507 -0.0333  0.6362  0.2624
27287SOL    HW283869   7.536   0.963   3.573  1.2824 -0.5782 -0.3113
27288SOL     OW83870   3.996   7.847   3.684 -0.3759 -0.2936  0.3526
27288SOL    HW183871   4.090   7.863   3.694 -0.4162  0.7475 -0.6972
27288SOL    HW283872   3.954   7.912   3.741 -0.4734  0.3106 -0.3968
27289SOL     OW83873   9.655   8.434   0.066  0.5812 -0.0163  0.5050
27289SOL    HW183874   9.740   8.420   0.109  1.2692 -1.2140 -1.1231
27289SOL    HW283875   9.676   8.483  -0.013 -0.4419  0.8005  0.7249
27290SOL     OW83876   0.047   4.575   7.174 -0.2264  0.0886 -0.6088
27290SOL    HW183877   0.060   4.508   7.107  0.8925 -0.6405  0.2999
27290SOL    HW283878  -0.042   4.560   7.205  0.5086 -2.0886  0.6963
27291SOL     OW83879   3.562   1.988   6.185 -0.1467 -0.1437 -0.1752
27291SOL    HW183880   3.627   1.923   6.158  0.7412  0.2453  0.9546
27291SOL    HW283881   3.558   1.979   6.280  1.9257  3.1673  0.3586
27292SOL     OW83882   9.564   9.586   8.971  0.1464 -0.6663  0.5278
27292SOL    HW183883   9.477   9.625   8.978  0.7534  0.5596  1.7039
27292SOL    HW283884   9.614   9.649   8.919  0.3010 -1.4359 -0.2651
27293SOL     OW83885   6.910   9.419   5.969 -0.2926 -0.3553 -0.2190
27293SOL    HW183886   6.988   9.471   5.988 -1.0921  1.3198 -1.3534
27293SOL    HW283887   6.862   9.416   6.053  0.7941 -1.1491  0.4045
27294SOL     OW83888   5.213   6.316  10.343  0.4299  0.1730 -0.3358
27294SOL    HW183889   5.270   6.269  10.404  1.1951  0.1727 -1.0389
27294SOL    HW283890   5.156   6.369  10.400 -1.0616 -2.2237  0.5245
27295SOL     OW83891   7.373   1.518   3.975 -0.6883 -0.0279  0.1221
27295SOL    HW183892   7.432   1.470   3.917 -1.5387 -0.3117 -0.5303
27295SOL    HW283893   7.308   1.557   3.916 -0.0343  1.9432  0.6240
27296SOL     OW83894   6.614   8.682   8.009 -0.3032  0.4499  0.8210
27296SOL    HW183895   6.572   8.690   8.095  2.8612 -0.1005  2.5492
27296SOL    HW283896   6.678   8.612   8.019  1.7662  1.8890 -1.2947
27297SOL     OW83897   5.634   9.358   9.537 -0.2766  0.4465 -0.0908
27297SOL    HW183898   5.638   9.431   9.599 -0.2878 -1.6329  2.5813
27297SOL    HW283899   5.546   9.362   9.501 -0.7933  0.9323  1.1522
27298SOL     OW83900   0.686   0.302   9.726  0.3005  0.6307  0.6250
27298SOL    HW183901   0.623   0.364   9.763  0.8175  0.8218  1.2039
27298SOL    HW283902   0.756   0.298   9.791  1.5240  1.3950 -0.5963
27299SOL     OW83903   6.964   9.439   5.406  0.3288 -0.4395  0.2199
27299SOL    HW183904   7.052   9.475   5.397 -0.3364  1.7392  1.7013
27299SOL    HW283905   6.925   9.488   5.479 -1.9407 -1.6988 -0.0506
27300SOL     OW83906  10.206   0.273   3.900  0.0297 -0.1284  0.6281
27300SOL    HW183907  10.214   0.314   3.986  0.0573 -0.5555  0.8321
27300SOL    HW283908  10.186   0.345   3.840  3.1064  0.7256  0.4326
27301SOL     OW83909   0.266   6.145   5.492 -0.1266  0.1305 -0.4813
27301SOL    HW183910   0.270   6.057   5.453 -0.7379 -0.7242  1.2909
27301SOL    HW283911   0.328   6.197   5.441  0.5824 -1.4356 -1.2770
27302SOL     OW83912   8.330   0.364   3.464  0.4834 -0.2828  0.4182
27302SOL    HW183913   8.343   0.290   3.524  0.8217  0.4832  1.3074
27302SOL    HW283914   8.411   0.368   3.413  2.1052  1.7142  2.9005
27303SOL     OW83915   8.998   8.050  10.314  0.1090 -0.0278 -0.1785
27303SOL    HW183916   8.991   7.982  10.380 -2.2416 -0.2466 -0.5673
27303SOL    HW283917   8.946   8.018  10.240 -1.5770  2.3595 -0.1633
27304SOL     OW83918  11.002   8.001   4.041  0.0149 -0.6387 -0.3742
27304SOL    HW183919  11.038   7.918   4.008  1.0392 -0.3794  0.0494
27304SOL    HW283920  11.031   8.066   3.976  0.2680 -0.4387 -0.0652
27305SOL     OW83921   6.584  10.928   3.137  0.4714 -0.0866 -0.0867
27305SOL    HW183922   6.511  10.989   3.123  0.8176  0.1948 -0.7121
27305SOL    HW283923   6.628  10.924   3.052  0.4688 -1.1945 -0.0521
27306SOL     OW83924   4.292   7.387   2.712 -0.3250 -0.2111 -0.1438
27306SOL    HW183925   4.384   7.363   2.705  0.3076  2.3447 -1.9012
27306SOL    HW283926   4.257   7.375   2.623 -1.5336 -0.4462  0.3353
27307SOL     OW83927   1.272  10.385   6.448  0.3778 -0.3206  0.2439
27307SOL    HW183928   1.355  10.372   6.493  0.5325 -1.3469 -0.3007
27307SOL    HW283929   1.209  10.406   6.518  0.8704 -0.6165  0.7829
27308SOL     OW83930   4.679   9.347   2.085 -0.3178  0.0048  0.4090
27308SOL    HW183931   4.661   9.312   1.998 -0.7132  1.1591 -0.0056
27308SOL    HW283932   4.603   9.403   2.104  0.4308  0.9018  0.8684
27309SOL     OW83933   6.167   8.447   4.621 -0.6806 -0.2764  0.1486
27309SOL    HW183934   6.260   8.469   4.618 -0.3474 -1.6212 -0.3447
27309SOL    HW283935   6.127   8.505   4.556  0.0155 -0.5194 -0.5196
27310SOL     OW83936   8.445  10.274   8.113  0.7366 -1.2293 -0.3237
27310SOL    HW183937   8.482  10.189   8.139  1.1820 -1.3091 -1.1777
27310SOL    HW283938   8.503  10.338   8.153  0.4750 -1.3246  0.2170
27311SOL     OW83939   9.220   0.373   9.795 -0.0164 -0.1432  0.4343
27311SOL    HW183940   9.219   0.362   9.700  0.8576  0.5141  0.3336
27311SOL    HW283941   9.152   0.315   9.827 -0.4809 -0.1908 -0.6167
27312SOL     OW83942   8.037   7.146   8.356 -0.1152 -0.4439  0.3092
27312SOL    HW183943   8.129   7.130   8.374 -0.3429 -0.0774  1.9828
27312SOL    HW283944   8.001   7.061   8.332 -0.4634 -1.9130  5.0617
27313SOL     OW83945   7.470   8.310   4.288  0.0696 -0.2568  0.0270
27313SOL    HW183946   7.420   8.230   4.300  0.8899 -0.8449 -0.3846
27313SOL    HW283947   7.454   8.360   4.368 -1.3230 -0.3252 -0.1781
27314SOL     OW83948   0.301   0.166   8.979 -0.5535 -0.5032  0.6355
27314SOL    HW183949   0.360   0.195   8.910 -0.1723 -1.0343  0.7329
27314SOL    HW283950   0.310   0.071   8.981 -0.4430 -0.4914  1.5137
27315SOL     OW83951   2.842   2.300   9.411  0.1054 -0.9342  0.4303
27315SOL    HW183952   2.887   2.311   9.495  1.8564 -0.2809 -0.5381
27315SOL    HW283953   2.913   2.281   9.349 -0.8523  0.8278 -1.3080
27316SOL     OW83954   1.556   3.007   0.563  0.1831  0.6321 -0.1391
27316SOL    HW183955   1.479   2.995   0.508 -0.6085  0.6332  0.9385
27316SOL    HW283956   1.618   3.056   0.507 -1.4445  2.6447 -0.3132
27317SOL     OW83957   9.534   0.459   5.153  0.0169 -0.5909  0.2864
27317SOL    HW183958   9.462   0.447   5.215  0.1430 -0.7238  0.4092
27317SOL    HW283959   9.606   0.407   5.190  0.2491 -0.2673  0.2879
27318SOL     OW83960   8.284   0.932   0.733  0.0268 -0.0496 -0.4140
27318SOL    HW183961   8.310   0.848   0.696 -0.2999 -0.1105 -0.5051
27318SOL    HW283962   8.365   0.969   0.767  0.7003  0.8083 -2.7628
27319SOL     OW83963   5.347   9.456   4.712  0.6184  0.6901 -0.0963
27319SOL    HW183964   5.258   9.435   4.738  0.8267 -0.9898 -0.5867
27319SOL    HW283965   5.384   9.503   4.786 -0.2727  0.2199  0.6646
27320SOL     OW83966   6.001   0.779  10.218  0.5918 -0.0799  0.1499
27320SOL    HW183967   5.987   0.690  10.185  1.0774 -0.2196  0.3040
27320SOL    HW283968   6.004   0.769  10.313 -0.4827  0.2742  0.2290
27321SOL     OW83969   0.350   7.085   6.860 -0.4248 -0.0187 -0.2830
27321SOL    HW183970   0.259   7.115   6.860 -0.0915  1.0429  0.2321
27321SOL    HW283971   0.393   7.139   6.926  0.1449 -1.8961  0.9642
27322SOL     OW83972   7.617   5.564   2.975 -0.4614  0.2936  0.0352
27322SOL    HW183973   7.581   5.555   2.886 -1.7835  1.1173  0.4565
27322SOL    HW283974   7.544   5.597   3.027  0.2401 -0.3495  1.4885
27323SOL     OW83975   6.770   8.970   3.927  0.1821 -0.5019  0.0863
27323SOL    HW183976   6.722   9.050   3.949  0.1213 -0.0269 -1.6174
27323SOL    HW283977   6.704   8.901   3.928  0.0712 -0.3890  0.7678
27324SOL     OW83978   0.859   6.628   5.808 -0.4236 -0.2123  0.2032
27324SOL    HW183979   0.828   6.676   5.731 -0.6758 -1.3697 -0.4466
27324SOL    HW283980   0.839   6.685   5.882 -3.1532 -0.3849 -0.2839
27325SOL     OW83981   0.867   9.384   1.594  0.1320  0.0422  0.4326
27325SOL    HW183982   0.781   9.346   1.575  0.6395 -0.4936 -0.9009
27325SOL    HW283983   0.899   9.415   1.510 -0.1762  3.4217  1.4276
27326SOL     OW83984   9.774   9.270   9.401  0.0345  0.0918  0.0117
27326SOL    HW183985   9.854   9.248   9.448  0.8654  0.8216 -0.9886
27326SOL    HW283986   9.703   9.251   9.462  1.0270  0.3686  1.2857
27327SOL     OW83987   5.049   7.024   8.549  0.0845  0.0662  0.0167
27327SOL    HW183988   5.015   6.981   8.628 -1.1121 -1.5647 -1.3119
27327SOL    HW283989   4.989   7.097   8.534 -1.1682 -1.0799 -0.7063
27328SOL     OW83990   9.659   8.663   8.499 -0.3183  0.1874  0.1240
27328SOL    HW183991   9.618   8.716   8.568  0.4854 -0.0199  0.7806
27328SOL    HW283992   9.738   8.628   8.540 -0.6724 -1.2706 -0.3976
27329SOL     OW83993   9.572   5.977   6.881 -0.1483 -0.1919 -0.2110
27329SOL    HW183994   9.484   6.006   6.903  0.9706  3.6428 -0.0911
27329SOL    HW283995   9.601   5.926   6.957 -0.7705  2.2692  1.8023
27330SOL     OW83996   7.357   6.060  10.204  0.2377 -0.5933  0.0095
27330SOL    HW183997   7.325   6.057  10.294  0.2730 -0.4803  0.0266
27330SOL    HW283998   7.300   6.001  10.156 -1.7204  1.5340 -0.4873
27331SOL     OW83999   8.139   2.549   9.411  0.2427 -0.2697  0.5226
27331SOL    HW184000   8.176   2.593   9.335  0.5039 -1.4162 -0.0213
27331SOL    HW284001   8.060   2.506   9.378  0.9614 -1.7086  0.6351
27332SOL     OW84002   7.808   9.832   5.680 -0.7578 -0.0966  0.3126
27332SOL    HW184003   7.789   9.815   5.772  0.8955  0.1832  0.7353
27332SOL    HW284004   7.733   9.882   5.649 -1.8644 -1.1579  1.1965
27333SOL     OW84005   0.266   1.283   0.831  0.0999 -0.4149  0.0339
27333SOL    HW184006   0.197   1.309   0.893 -0.0871 -0.6876 -0.0568
27333SOL    HW284007   0.218   1.253   0.754  0.3307 -0.1765 -0.2029
27334SOL     OW84008   1.028   7.056   9.441 -0.1007  0.1770 -0.0197
27334SOL    HW184009   1.119   7.032   9.427 -0.5230 -1.4547 -0.1189
27334SOL    HW284010   1.030   7.118   9.514  1.1976  1.2945 -0.9581
27335SOL     OW84011   0.891   3.297   0.397  0.4122  0.1813  0.1872
27335SOL    HW184012   0.894   3.345   0.314  1.2520 -1.6423 -0.8882
27335SOL    HW284013   0.804   3.318   0.433 -0.3616  0.2695 -1.6242
27336SOL     OW84014   2.981  10.377   9.510 -0.2062  0.0330  0.3587
27336SOL    HW184015   3.068  10.386   9.547 -0.8877  3.5839  1.4657
27336SOL    HW284016   2.925  10.357   9.586 -0.6988  0.4192  0.1005
27337SOL     OW84017   4.810   7.084   7.683 -0.2897 -0.4470  0.0205
27337SOL    HW184018   4.817   7.160   7.741  0.3633 -0.4982  0.0109
27337SOL    HW284019   4.718   7.058   7.689 -0.5552  0.4297 -0.0879
27338SOL     OW84020   0.655   6.826   1.788  0.1364  0.0278 -0.4501
27338SOL    HW184021   0.621   6.896   1.844 -0.5742 -0.6367 -0.0256
27338SOL    HW284022   0.701   6.768   1.847 -1.5360 -1.2535 -0.3219
27339SOL     OW84023   9.085   6.039   4.859  0.2644  0.2990  0.0925
27339SOL    HW184024   9.036   6.070   4.935 -1.7755  1.1444 -1.4850
27339SOL    HW284025   9.072   5.944   4.859  2.1467 -0.0581  1.9587
27340SOL     OW84026   9.343   7.054   5.137  0.1397 -0.0541 -0.0458
27340SOL    HW184027   9.414   7.000   5.103  0.4062  0.0709  0.3049
27340SOL    HW284028   9.322   7.114   5.065  0.2834 -0.1914 -0.2043
27341SOL     OW84029   3.338   6.183   4.785  0.5519  0.2372 -0.2160
27341SOL    HW184030   3.353   6.272   4.818  2.3681  0.0886 -0.5421
27341SOL    HW284031   3.408   6.131   4.823  0.4453 -0.7323 -1.2815
27342SOL     OW84032   8.755   5.374  10.730  0.0016  0.2725 -0.1253
27342SOL    HW184033   8.746   5.279  10.733  1.3894  0.1279  0.0219
27342SOL    HW284034   8.708   5.400  10.651 -1.0265 -0.4433  0.2326
27343SOL     OW84035   6.640   7.542   7.365  0.4275 -0.7230  0.2381
27343SOL    HW184036   6.709   7.509   7.307 -0.7130 -0.0056 -1.6055
27343SOL    HW284037   6.563   7.489   7.344 -0.9581  1.7453 -1.5404
27344SOL     OW84038   9.396   1.744   2.003 -0.8207  0.5875  0.1456
27344SOL    HW184039   9.329   1.689   1.962  0.6523 -2.3230  1.3984
27344SOL    HW284040   9.450   1.773   1.929 -1.7588  0.5684 -0.5724
27345SOL     OW84041  10.637   7.356   5.214 -0.1914  0.6269 -0.0620
27345SOL    HW184042  10.618   7.439   5.257 -0.3209  0.4615  0.2017
27345SOL    HW284043  10.552   7.327   5.179 -0.1347  0.6378 -0.2075
27346SOL     OW84044   0.222   8.365   8.074  0.3142  0.3719  0.3904
27346SOL    HW184045   0.250   8.375   7.983 -2.0901  1.1143 -0.3433
27346SOL    HW284046   0.155   8.297   8.071 -1.6101  2.1279  1.1056
27347SOL     OW84047   6.331   7.063   6.224 -0.0668  0.0600  0.0085
27347SOL    HW184048   6.401   7.031   6.167 -1.0513  0.5482 -1.5581
27347SOL    HW284049   6.374   7.128   6.280  0.6786  0.7100 -1.2473
27348SOL     OW84050   4.229   2.658   8.295  0.6764  0.1040 -0.4163
27348SOL    HW184051   4.209   2.752   8.285  0.3053  0.2420  1.3195
27348SOL    HW284052   4.300   2.642   8.232  1.7137  1.8731  0.2279
27349SOL     OW84053   6.704   7.493   6.844 -0.1435  0.9922  0.2085
27349SOL    HW184054   6.730   7.422   6.785 -0.4560 -0.0371  1.2515
27349SOL    HW284055   6.651   7.551   6.791 -0.0206  0.3492 -0.6374
27350SOL     OW84056   9.194   8.851   8.943  0.4629  0.4284  0.3497
27350SOL    HW184057   9.204   8.908   8.866  1.2006  0.8258  0.7329
27350SOL    HW284058   9.100   8.851   8.960  0.2180 -0.0982 -0.8741
27351SOL     OW84059   6.324   6.211   5.441 -0.4982  0.2089  0.2182
27351SOL    HW184060   6.359   6.164   5.365  0.4283 -0.1675  0.8611
27351SOL    HW284061   6.247   6.257   5.407 -0.4036 -0.3686 -0.8255
27352SOL     OW84062   5.480   0.881  10.540  0.2602  0.6838  0.1374
27352SOL    HW184063   5.509   0.882  10.631 -0.4893  1.4211  0.3767
27352SOL    HW284064   5.558   0.905  10.490  0.0167  3.1269  0.8062
27353SOL     OW84065   2.140   2.299   7.708 -0.2944 -0.2263 -0.3090
27353SOL    HW184066   2.071   2.236   7.730  1.3246 -2.2624 -0.7431
27353SOL    HW284067   2.114   2.380   7.751 -2.3716 -1.2467  0.4544
27354SOL     OW84068   1.750   5.388   7.661 -0.2531  0.2029 -0.0426
27354SOL    HW184069   1.765   5.367   7.569 -0.2955  1.1940 -0.2815
27354SOL    HW284070   1.837   5.402   7.697 -0.2809  0.7413 -0.1681
27355SOL     OW84071   2.236   3.324   3.584 -0.2816 -0.0964 -0.5407
27355SOL    HW184072   2.271   3.240   3.616 -0.4996  0.0207  0.0128
27355SOL    HW284073   2.141   3.313   3.586 -0.3308  0.3922  0.1773
27356SOL     OW84074   1.528   1.989   5.516  0.0115 -0.4167  0.1229
27356SOL    HW184075   1.558   2.073   5.553  0.9669  0.7146 -2.9499
27356SOL    HW284076   1.437   1.983   5.543 -0.8001  2.8231 -1.3609
27357SOL     OW84077   9.180   9.613  10.701 -0.4922 -0.0524 -0.3266
27357SOL    HW184078   9.203   9.524  10.725  1.8431  1.0440  1.9964
27357SOL    HW284079   9.145   9.652  10.781  0.3936  1.6360 -0.6909
27358SOL     OW84080  10.404   5.333   5.388  0.0951  0.1682  0.4391
27358SOL    HW184081  10.336   5.298   5.445  0.6319 -0.2338  0.8354
27358SOL    HW284082  10.427   5.261   5.330 -0.4143  0.5607 -0.2646
27359SOL     OW84083   6.251   5.952   6.242 -0.7455 -0.3019  0.2687
27359SOL    HW184084   6.194   5.892   6.194  0.1957 -0.5365 -0.5879
27359SOL    HW284085   6.305   5.896   6.297 -0.2996 -0.1936 -0.0585
27360SOL     OW84086   9.266   9.518   9.556 -0.0580  0.5015  0.0008
27360SOL    HW184087   9.286   9.601   9.600  0.6977 -0.0295  0.6954
27360SOL    HW284088   9.291   9.451   9.620  0.1320 -0.2758 -0.8770
27361SOL     OW84089   9.026   5.677   9.176  0.5883 -0.0000 -0.0017
27361SOL    HW184090   8.953   5.640   9.225  0.3738  1.0294  0.4709
27361SOL    HW284091   9.038   5.764   9.212  2.5804 -0.4204  0.4751
27362SOL     OW84092   2.515   8.617   3.916  0.2436  0.3681 -0.0123
27362SOL    HW184093   2.442   8.651   3.967  0.9946 -0.6022  1.8164
27362SOL    HW284094   2.528   8.528   3.950  3.3848  1.1039  1.0294
27363SOL     OW84095   3.320   4.085   5.782  0.6712  0.1291 -0.3312
27363SOL    HW184096   3.232   4.082   5.820  1.1694  0.7076  0.9163
27363SOL    HW284097   3.348   3.994   5.780  0.3050  0.0061 -0.0783
27364SOL     OW84098   5.008  10.699   6.328  0.0911 -0.1444  0.3368
27364SOL    HW184099   5.093  10.714   6.369 -1.2873  2.6924  2.4489
27364SOL    HW284100   4.996  10.774   6.270 -1.0771 -0.3674  0.2654
27365SOL     OW84101   4.005   1.084   7.196  0.4327 -0.5035  0.2512
27365SOL    HW184102   3.956   1.015   7.150 -0.1847  0.6689 -0.9236
27365SOL    HW284103   3.982   1.164   7.149  0.9823  0.5351  1.7096
27366SOL     OW84104   8.500   4.910   7.841 -0.4507 -0.6943  0.1072
27366SOL    HW184105   8.429   4.865   7.886 -0.0006  0.3709  2.0181
27366SOL    HW284106   8.470   5.001   7.833 -0.6434 -0.9021 -2.1224
27367SOL     OW84107   8.244   2.011   7.574 -0.4703 -0.4564  0.0838
27367SOL    HW184108   8.277   1.992   7.662  1.7643  2.4742  0.0241
27367SOL    HW284109   8.149   2.012   7.584 -0.2831 -0.0468  2.5385
27368SOL     OW84110  10.251   1.759   6.291 -0.5760  0.0954  0.3522
27368SOL    HW184111  10.229   1.849   6.314 -0.6691 -0.0729  0.9405
27368SOL    HW284112  10.274   1.763   6.198 -1.5593  0.5533  0.1119
27369SOL     OW84113   4.601   9.127   5.734 -0.2524 -0.4880  0.3091
27369SOL    HW184114   4.524   9.075   5.754 -0.6276  0.0931  0.4174
27369SOL    HW284115   4.584   9.212   5.776  0.5326 -0.4175  0.5091
27370SOL     OW84116   7.382   6.273   3.298  0.0963 -0.2535 -0.0482
27370SOL    HW184117   7.324   6.322   3.356 -1.9087 -0.9770 -1.3067
27370SOL    HW284118   7.469   6.283   3.336 -0.9758  0.0309  2.5636
27371SOL     OW84119   4.441   1.159   4.679  0.2173 -0.0659 -0.1681
27371SOL    HW184120   4.432   1.178   4.585 -0.7853 -0.6567 -0.1963
27371SOL    HW284121   4.403   1.235   4.722 -3.4129 -1.6248 -0.2828
27372SOL     OW84122   7.827   7.857   4.856  0.1747  0.4798  0.2904
27372SOL    HW184123   7.877   7.806   4.920  0.0144  0.2489  0.2353
27372SOL    HW284124   7.818   7.797   4.781  2.4919  1.5533 -0.9620
27373SOL     OW84125   9.039   5.965   9.170  0.2199  0.2118 -0.1292
27373SOL    HW184126   9.125   5.947   9.131  0.4630  1.4405 -0.2331
27373SOL    HW284127   9.046   6.056   9.199 -1.1012  0.3776 -0.2933
27374SOL     OW84128   7.611   7.875   5.735  0.0204  0.0602  0.3030
27374SOL    HW184129   7.546   7.813   5.701  0.6574  0.4260 -1.7386
27374SOL    HW284130   7.559   7.946   5.772 -0.8838  0.9871 -2.4779
27375SOL     OW84131   4.296   6.368   6.532 -0.7323 -0.2745 -0.5308
27375SOL    HW184132   4.348   6.289   6.546 -0.2897  0.1643  0.3206
27375SOL    HW284133   4.221   6.359   6.591  0.1470  0.6763  0.7764
27376SOL     OW84134  10.091   1.709   4.488  0.1032  0.1132 -0.1904
27376SOL    HW184135  10.113   1.744   4.402 -1.4024  1.3110 -0.1444
27376SOL    HW284136   9.996   1.698   4.485 -0.0782  0.8286  1.5179
27377SOL     OW84137   7.482  10.386   1.557 -0.4256  0.3993 -0.2796
27377SOL    HW184138   7.490  10.444   1.633  0.2577 -0.7399  0.5420
27377SOL    HW284139   7.566  10.396   1.511 -0.7289  0.8707 -0.7431
27378SOL     OW84140   7.703   1.150   5.111  0.2316  0.1153 -0.2505
27378SOL    HW184141   7.792   1.142   5.146  0.1697  0.6435  0.0408
27378SOL    HW284142   7.713   1.202   5.031  0.2666 -0.3913 -0.5804
27379SOL     OW84143   4.247   1.451   9.040 -0.0849  0.7552 -0.4923
27379SOL    HW184144   4.304   1.459   8.963 -1.0605  1.6799 -1.1540
27379SOL    HW284145   4.190   1.377   9.020  2.2890 -1.6873  1.1699
27380SOL     OW84146   6.849   7.071   1.923  0.0811 -0.0178 -0.5671
27380SOL    HW184147   6.792   6.994   1.922 -1.2625  0.9446 -0.4076
27380SOL    HW284148   6.872   7.083   2.015  0.0706 -0.0782 -0.5565
27381SOL     OW84149   3.586   9.753   0.697 -0.3516  0.5735  0.0332
27381SOL    HW184150   3.500   9.713   0.687 -0.2212  0.4367 -0.5890
27381SOL    HW284151   3.646   9.693   0.651  0.0005  0.9319  0.0181
27382SOL     OW84152  10.237   5.921   7.550 -0.2400  0.1756 -0.5592
27382SOL    HW184153  10.182   5.977   7.496  0.1955  1.5041  0.3160
27382SOL    HW284154  10.314   5.975   7.569 -0.2354 -0.3640  1.0921
27383SOL     OW84155   5.502   4.884  10.483 -0.0793  0.8772 -0.1115
27383SOL    HW184156   5.549   4.942  10.423 -0.6597  1.6459  0.1703
27383SOL    HW284157   5.418   4.869  10.441 -1.1236  2.6812  1.1854
27384SOL     OW84158   6.300   4.710   2.224  0.2916 -0.0764 -0.3887
27384SOL    HW184159   6.212   4.679   2.246  0.4540 -1.2117 -1.2446
27384SOL    HW284160   6.337   4.738   2.307  0.1948 -2.3972  0.5276
27385SOL     OW84161   0.324   4.239   3.918  0.0770  0.0217 -0.2415
27385SOL    HW184162   0.368   4.156   3.900  1.5014  0.4373  1.0714
27385SOL    HW284163   0.314   4.239   4.014  0.1621  1.3864 -0.2230
27386SOL     OW84164   4.641   9.231  11.082 -0.2172  0.2200  0.0678
27386SOL    HW184165   4.560   9.281  11.091 -0.9297 -0.9771  0.5748
27386SOL    HW284166   4.639   9.169  11.154  0.3984 -0.8580 -0.8033
27387SOL     OW84167   4.987   7.809   8.116  0.2339 -0.3052 -0.1865
27387SOL    HW184168   5.028   7.814   8.030  0.1573 -0.5956 -0.2401
27387SOL    HW284169   5.000   7.896   8.154 -0.6846  0.1875 -0.9302
27388SOL     OW84170  11.055   8.458   7.322  0.0511 -0.0445  0.0633
27388SOL    HW184171  11.061   8.535   7.379 -0.2795  0.0264  0.0040
27388SOL    HW284172  10.983   8.407   7.360 -0.7532  0.4226 -0.7946
27389SOL     OW84173   7.129   8.974  10.709  0.5454 -0.3496  0.1055
27389SOL    HW184174   7.033   8.969  10.710  0.5215  0.1848  0.5785
27389SOL    HW284175   7.154   8.920  10.634 -0.0217 -2.3153  1.2298
27390SOL     OW84176   1.346   9.598   4.278 -0.4465 -0.2010  0.4051
27390SOL    HW184177   1.282   9.627   4.342 -0.6285  1.4415 -0.4738
27390SOL    HW284178   1.303   9.611   4.193  0.1923 -1.2948 -0.1061
27391SOL     OW84179   7.407   0.311   6.075 -0.2630  0.1991 -0.4049
27391SOL    HW184180   7.359   0.297   6.157  1.7995 -1.5312  0.6130
27391SOL    HW284181   7.403   0.227   6.030  2.2729 -0.2645  0.0642
27392SOL     OW84182   1.791   6.969   8.033 -0.0697 -0.0683 -0.2297
27392SOL    HW184183   1.700   6.964   8.060 -0.5912  2.3357 -1.2274
27392SOL    HW284184   1.837   6.907   8.090 -2.1751 -0.7244  0.8591
27393SOL     OW84185   6.369   2.723   8.952 -0.4376  0.3738  0.5602
27393SOL    HW184186   6.330   2.800   8.911 -0.2566 -0.9018 -2.2279
27393SOL    HW284187   6.297   2.660   8.957  0.3913 -0.8338 -1.5345
27394SOL     OW84188   7.121   6.822   9.257  0.6495  0.2212  0.7825
27394SOL    HW184189   7.082   6.905   9.229 -2.7074 -1.2541  0.4849
27394SOL    HW284190   7.184   6.801   9.188 -1.6655  0.4972 -1.6245
27395SOL     OW84191   6.837   2.295   2.496 -0.3777 -0.0016  0.5723
27395SOL    HW184192   6.797   2.316   2.411  0.6712  0.5142  0.1805
27395SOL    HW284193   6.834   2.199   2.501 -2.4014  0.0441  0.9556
27396SOL     OW84194   2.430   1.963   8.776 -0.6817  0.0191  0.5869
27396SOL    HW184195   2.427   1.926   8.864  1.8507  1.2448  1.2866
27396SOL    HW284196   2.515   1.937   8.742  0.1022  2.8461  0.1169
27397SOL     OW84197   3.216  10.196   4.232 -0.1377 -0.2179  0.7481
27397SOL    HW184198   3.269  10.231   4.160  0.0212 -0.0923  0.9273
27397SOL    HW284199   3.134  10.246   4.229 -1.0792 -1.7262 -0.7817
27398SOL     OW84200  10.061   6.436   4.284 -0.1568 -0.2224  0.1286
27398SOL    HW184201  10.083   6.401   4.198 -1.0850 -0.2060 -0.1284
27398SOL    HW284202   9.965   6.442   4.284 -0.0414  2.9290 -0.0663
27399SOL     OW84203   0.658   9.768   7.488 -0.2591 -0.9437  0.3051
27399SOL    HW184204   0.735   9.745   7.435  0.9955  0.5631  1.3648
27399SOL    HW284205   0.662   9.708   7.563  0.4778 -0.2469  0.8455
27400SOL     OW84206   4.356   9.333   0.005  0.0997  0.0795  0.1900
27400SOL    HW184207   4.342   9.426   0.020 -0.4703  0.2795 -1.4361
27400SOL    HW284208   4.284   9.307  -0.052  1.4802 -0.8630 -1.1935
27401SOL     OW84209   9.758   8.462   0.380 -0.1115 -0.2240 -0.2200
27401SOL    HW184210   9.754   8.427   0.469  1.0553  3.5838  1.5397
27401SOL    HW284211   9.845   8.438   0.349  0.0675 -0.2850  0.3055
27402SOL     OW84212   5.219   4.842   5.483 -0.6712 -0.1066  0.5169
27402SOL    HW184213   5.280   4.858   5.555 -1.8336  0.7303  1.3699
27402SOL    HW284214   5.271   4.800   5.415  0.6731 -0.0593  1.4888
27403SOL     OW84215   8.045   2.790   3.390  0.4617 -0.0666 -0.7618
27403SOL    HW184216   8.103   2.817   3.319  2.4701 -0.5438  0.5976
27403SOL    HW284217   7.980   2.860   3.396  0.6213  0.2899 -2.6190
27404SOL     OW84218   1.956  10.453  10.806  0.4244 -0.6392  0.5410
27404SOL    HW184219   1.916  10.450  10.893  0.4478 -2.0569  0.5295
27404SOL    HW284220   1.883  10.473  10.748 -0.1579 -2.4069  0.6122
27405SOL     OW84221   5.836   3.327   0.326  0.2306  0.0448 -0.1311
27405SOL    HW184222   5.855   3.315   0.233  0.9789  1.1750 -0.1521
27405SOL    HW284223   5.743   3.310   0.334  0.3383 -1.0078 -0.9126
27406SOL     OW84224   5.228   4.529   3.520  0.0427  0.6377  0.2741
27406SOL    HW184225   5.316   4.507   3.550  0.2605  1.2697  0.1135
27406SOL    HW284226   5.188   4.445   3.499  0.4721  0.3149  0.7178
27407SOL     OW84227   1.844  10.248   2.811 -0.1964  0.8288  0.0286
27407SOL    HW184228   1.869  10.331   2.852 -0.8933  0.6206  0.9244
27407SOL    HW284229   1.927  10.205   2.792  0.1610  1.3191  0.4266
27408SOL     OW84230   9.162   9.873   6.368  0.3876 -0.1231  0.2144
27408SOL    HW184231   9.142   9.917   6.450 -2.6082 -0.8680 -0.0000
27408SOL    HW284232   9.173   9.780   6.392  2.6011  0.0504  0.1117
27409SOL     OW84233   3.677  10.795   3.226  0.4345 -0.1147  0.3028
27409SOL    HW184234   3.648  10.748   3.148 -1.9675  0.4366  0.8042
27409SOL    HW284235   3.621  10.873   3.230  2.8547  1.7460  0.6869
27410SOL     OW84236  10.190   8.320   7.375 -0.0288 -0.3929  0.3875
27410SOL    HW184237  10.096   8.309   7.391 -0.0250  0.2644  0.8759
27410SOL    HW284238  10.220   8.232   7.351 -1.2220 -0.2151 -2.2161
27411SOL     OW84239   5.097   1.001   6.364 -0.8558  0.1744 -0.0700
27411SOL    HW184240   5.167   0.942   6.392  1.6836  1.6456 -2.7823
27411SOL    HW284241   5.024   0.943   6.343  0.6414 -1.7608 -0.1947
27412SOL     OW84242   3.979   4.725   0.196  0.0369 -0.1714  0.9086
27412SOL    HW184243   3.912   4.771   0.145 -0.3793 -2.4867 -0.7908
27412SOL    HW284244   3.931   4.687   0.270 -0.2066 -0.3465  0.6635
27413SOL     OW84245   9.793   5.010   7.148 -0.4257 -0.9222 -0.1286
27413SOL    HW184246   9.888   5.014   7.154 -0.4902  3.3333  0.9427
27413SOL    HW284247   9.773   5.029   7.057 -0.2224 -0.0097  0.0073
27414SOL     OW84248   2.255   8.765   3.624 -0.0298  0.5285 -0.4633
27414SOL    HW184249   2.188   8.697   3.621 -0.1985  0.7154 -1.0290
27414SOL    HW284250   2.314   8.737   3.693  0.8206 -1.0432 -1.7599
27415SOL     OW84251   8.221   6.539   7.706 -0.4781  0.4580 -0.4069
27415SOL    HW184252   8.196   6.548   7.798 -1.0323  1.7838 -0.6562
27415SOL    HW284253   8.203   6.448   7.685 -0.9553  0.2977  0.6251
27416SOL     OW84254   9.056   3.243   8.003 -0.2479  0.4158  0.1227
27416SOL    HW184255   9.081   3.213   8.090  2.9205 -3.4228 -1.7800
27416SOL    HW284256   8.972   3.202   7.986 -0.2495  0.0888  0.8834
27417SOL     OW84257   7.457   8.320   4.917  0.3210 -0.2783 -0.8201
27417SOL    HW184258   7.423   8.272   4.842 -0.3305  1.3765 -1.6398
27417SOL    HW284259   7.515   8.258   4.961 -1.3872 -2.1748 -1.1145
27418SOL     OW84260   2.241   9.605   4.841 -0.5543  0.2734  0.0507
27418SOL    HW184261   2.249   9.545   4.915 -0.3415  0.2719  0.0274
27418SOL    HW284262   2.330   9.613   4.807 -0.2061  2.0534  1.2008
27419SOL     OW84263   7.866   6.704   7.527 -0.0953  0.1091 -0.4514
27419SOL    HW184264   7.834   6.619   7.498  0.1825  0.3324 -1.4556
27419SOL    HW284265   7.884   6.751   7.446  0.1263  0.9823  0.0986
27420SOL     OW84266   7.992   6.272   3.894 -0.7282  0.1175 -0.8000
27420SOL    HW184267   7.953   6.205   3.836 -1.1938 -0.5265  0.2334
27420SOL    HW284268   8.083   6.244   3.904 -1.1288 -0.8760  0.3121
27421SOL     OW84269   7.464   1.779   2.991  0.3679 -0.0096 -0.3728
27421SOL    HW184270   7.472   1.702   3.047 -0.1178 -0.7198 -1.2506
27421SOL    HW284271   7.422   1.747   2.911  0.0044  1.1978 -0.6971
27422SOL     OW84272   9.403   1.279   1.989  0.0845  0.2752 -0.1972
27422SOL    HW184273   9.440   1.331   1.917  0.3180  0.4721  0.0638
27422SOL    HW284274   9.476   1.265   2.049 -0.0896  0.0372 -0.0375
27423SOL     OW84275   5.530   9.330  10.370 -0.1014  0.1644  0.1204
27423SOL    HW184276   5.440   9.363  10.378  0.3459  1.1787  1.1724
27423SOL    HW284277   5.574   9.394  10.315 -0.0435 -0.4242 -0.5369
27424SOL     OW84278  10.002   7.269   5.791  0.1411  0.1611  0.1378
27424SOL    HW184279  10.022   7.176   5.781  0.0511  0.1276  0.2624
27424SOL    HW284280  10.010   7.305   5.703 -0.4875 -0.0927 -0.0240
27425SOL     OW84281   6.115   8.260   3.795 -0.0255  0.1894 -0.1947
27425SOL    HW184282   6.067   8.278   3.877 -0.8047  1.3967 -0.8777
27425SOL    HW284283   6.207   8.266   3.819 -0.2426  0.2792  0.6511
27426SOL     OW84284  10.859   8.227   9.001 -0.1437  0.4101  0.5785
27426SOL    HW184285  10.810   8.190   8.928  1.8342  0.0806 -0.6625
27426SOL    HW284286  10.848   8.322   8.992  0.4344  0.3950 -0.4513
27427SOL     OW84287   8.718   5.860   8.581  0.0062 -0.1455 -0.4424
27427SOL    HW184288   8.733   5.897   8.494 -0.2090 -0.8196 -0.7709
27427SOL    HW284289   8.727   5.765   8.569 -1.3998 -0.3612 -0.0275
27428SOL     OW84290   7.411   7.344   6.940  0.7321 -0.0725 -0.3151
27428SOL    HW184291   7.336   7.289   6.918 -0.1887  1.2767 -0.7254
27428SOL    HW284292   7.482   7.313   6.884  0.0070 -0.3323 -1.1076
27429SOL     OW84293   7.033   2.351   0.290  0.4035 -0.1331 -0.2814
27429SOL    HW184294   6.953   2.402   0.304  0.4362  0.1767 -1.1577
27429SOL    HW284295   7.076   2.349   0.376 -0.9708 -1.0474  0.4280
27430SOL     OW84296   9.636   7.875   8.464 -0.1236  0.7369 -0.5020
27430SOL    HW184297   9.641   7.921   8.547 -0.9728 -0.1861  0.0917
27430SOL    HW284298   9.709   7.909   8.412 -0.8711  2.9261 -0.2092
27431SOL     OW84299   4.776   7.334   8.995  0.4169 -0.3870 -0.4376
27431SOL    HW184300   4.826   7.339   9.077  1.7882 -1.0019 -1.2044
27431SOL    HW284301   4.842   7.335   8.926 -0.7762  1.2734 -1.6177
27432SOL     OW84302   3.261   8.220   2.194  0.0095 -0.0974 -0.6661
27432SOL    HW184303   3.266   8.206   2.289 -1.0673  0.7825 -0.4593
27432SOL    HW284304   3.353   8.222   2.166  0.4608  1.9694  0.7308
27433SOL     OW84305   9.266   1.429  10.753 -0.2749 -0.1750 -0.4192
27433SOL    HW184306   9.357   1.400  10.762 -0.2516  0.1413  0.5183
27433SOL    HW284307   9.245   1.468  10.838 -1.2248 -0.0582 -0.6946
27434SOL     OW84308   3.262   1.119  10.112 -0.1045 -0.4859  0.1923
27434SOL    HW184309   3.273   1.183  10.183  0.4319  0.3947 -0.6484
27434SOL    HW284310   3.344   1.069  10.112 -0.4835 -1.1165  0.7853
27435SOL     OW84311   9.255  10.878   3.226  0.0878 -0.5414 -0.6918
27435SOL    HW184312   9.179  10.831   3.193 -0.9444 -0.0367  0.8588
27435SOL    HW284313   9.273  10.945   3.160 -0.9645 -0.5241 -0.9788
27436SOL     OW84314   3.750   0.432   8.454 -0.2014  0.1007 -0.4822
27436SOL    HW184315   3.770   0.389   8.371 -0.1867 -2.5068  0.7743
27436SOL    HW284316   3.663   0.400   8.477 -1.0954  2.3777 -0.3901
27437SOL     OW84317   6.595   3.588   7.599  0.1854  0.0658  0.2679
27437SOL    HW184318   6.582   3.510   7.546 -0.5192 -0.3168  0.9761
27437SOL    HW284319   6.534   3.652   7.563  1.2440  0.5246 -0.7433
27438SOL     OW84320   5.282   9.744   4.370 -0.5864 -0.1411 -0.1746
27438SOL    HW184321   5.218   9.679   4.399  0.2075 -0.2525  1.4556
27438SOL    HW284322   5.306   9.717   4.281 -0.4601 -1.9515  0.3789
27439SOL     OW84323   7.083   9.871   9.999 -0.0205 -0.2079  0.1065
27439SOL    HW184324   7.077   9.888  10.093 -0.7728  0.7810 -0.1103
27439SOL    HW284325   7.167   9.907   9.973 -0.4201  0.7746  0.1528
27440SOL     OW84326   2.857   5.691   9.004  0.2262 -0.5573 -0.8362
27440SOL    HW184327   2.779   5.643   9.032 -0.1699  0.1020 -0.7787
27440SOL    HW284328   2.910   5.626   8.957 -0.4316 -0.9769 -1.0090
27441SOL     OW84329   6.054   1.786  10.939 -0.1344  1.2482  0.1652
27441SOL    HW184330   6.098   1.865  10.909  0.0982  0.7923 -0.7217
27441SOL    HW284331   6.024   1.807  11.028  0.1174  2.2445  0.0188
27442SOL     OW84332   8.710   1.545   3.187 -0.2464 -0.1937  0.6530
27442SOL    HW184333   8.707   1.640   3.176  0.2617 -0.1752  0.6563
27442SOL    HW284334   8.714   1.510   3.098  1.9373 -0.1140  0.6643
27443SOL     OW84335   9.475  10.867   9.927  0.0788  0.1361 -0.0875
27443SOL    HW184336   9.538  10.873   9.999  0.0120 -0.5616  0.0353
27443SOL    HW284337   9.389  10.878   9.968  0.0776  0.4932 -0.1746
27444SOL     OW84338   7.743   7.760   1.584  0.0492 -0.1331  0.6820
27444SOL    HW184339   7.764   7.689   1.645 -0.3075  0.6071  1.6909
27444SOL    HW284340   7.749   7.720   1.497  2.1117 -0.8318  1.1013
27445SOL     OW84341   6.132  10.452  10.274 -0.6692 -0.2280  0.0307
27445SOL    HW184342   6.125  10.358  10.256  0.1030 -0.3833  0.4731
27445SOL    HW284343   6.212  10.460  10.326  0.1345  0.8796 -1.3368
27446SOL     OW84344   8.491   1.344   6.502  0.0920  0.1125  0.3290
27446SOL    HW184345   8.496   1.413   6.436  0.4995  0.8184  1.0723
27446SOL    HW284346   8.582   1.321   6.520  0.1999  1.8940  2.6059
27447SOL     OW84347   3.848   5.286   9.610  0.4119 -0.0271 -0.2545
27447SOL    HW184348   3.780   5.270   9.544  1.0239 -1.0372 -0.6733
27447SOL    HW284349   3.890   5.367   9.582 -0.4530  0.4666 -0.1347
27448SOL     OW84350   3.318   9.812   4.116  0.1821 -0.1069  0.4178
27448SOL    HW184351   3.273   9.873   4.174  2.2953  0.4153  1.6015
27448SOL    HW284352   3.410   9.816   4.143  0.8129 -1.8387 -1.2390
27449SOL     OW84353   3.570   2.011   8.648 -0.0587  0.2493 -0.1377
27449SOL    HW184354   3.654   1.989   8.609  0.1830  2.2891 -0.9214
27449SOL    HW284355   3.517   1.932   8.639  0.6078  0.0366 -2.9150
27450SOL     OW84356   4.021   9.057   7.515  0.3913  0.0665 -0.7346
27450SOL    HW184357   4.111   9.030   7.534  0.1237 -0.8632 -0.7571
27450SOL    HW284358   4.003   9.125   7.580  1.0421  0.1193 -0.6001
27451SOL     OW84359   9.434   8.270   7.249 -0.7117  0.4855 -0.1244
27451SOL    HW184360   9.503   8.207   7.268 -2.6687 -1.8181 -0.2161
27451SOL    HW284361   9.477   8.336   7.194  1.7674  0.0843  1.1505
27452SOL     OW84362  10.365  10.771   6.325  0.0450 -0.4033  0.3353
27452SOL    HW184363  10.312  10.789   6.247  1.6623 -3.1532 -1.5980
27452SOL    HW284364  10.437  10.834   6.319 -0.4194  0.1230  0.2263
27453SOL     OW84365   5.005  10.378   0.983  0.1165  0.3604  0.1743
27453SOL    HW184366   5.072  10.310   0.991 -0.5251 -0.3540 -0.3489
27453SOL    HW284367   4.999  10.417   1.070  0.8746  0.1160  0.3427
27454SOL     OW84368   6.380   7.702   6.992  0.2256  0.2911 -0.4151
27454SOL    HW184369   6.292   7.715   6.956 -0.4567 -1.8820  0.2663
27454SOL    HW284370   6.385   7.608   7.008  2.2580  0.5262  0.6739
27455SOL     OW84371   1.598  10.034   1.989 -0.1763  0.5252 -0.0950
27455SOL    HW184372   1.669  10.085   1.950 -0.6521  0.0502 -1.6616
27455SOL    HW284373   1.519  10.063   1.943 -0.7979  0.0394  0.6383
27456SOL     OW84374   3.946   9.378   6.689 -0.0781  0.0318 -0.1565
27456SOL    HW184375   3.910   9.443   6.629  0.8577 -0.1835 -0.9836
27456SOL    HW284376   3.880   9.309   6.693 -1.1687  1.1016  0.8883
27457SOL     OW84377   9.156   9.830   6.962  0.0222 -0.4103 -0.3063
27457SOL    HW184378   9.083   9.829   7.025 -0.0810 -0.8348 -0.4286
27457SOL    HW284379   9.153   9.743   6.921 -0.6755  0.2506 -1.7679
27458SOL     OW84380   3.518  10.978   7.505 -0.1134 -0.0087  0.5160
27458SOL    HW184381   3.449  11.042   7.487 -0.7106 -0.9544 -0.7253
27458SOL    HW284382   3.472  10.906   7.548  0.4234  0.0755  1.2389
27459SOL     OW84383   9.465   9.136   5.648 -0.0253  0.2317  0.3442
27459SOL    HW184384   9.558   9.133   5.671 -0.0209 -2.5252  0.2806
27459SOL    HW284385   9.424   9.070   5.703 -1.9061  1.0523  0.0305
27460SOL     OW84386   3.441  10.810   9.545  0.0741 -0.2107 -0.1338
27460SOL    HW184387   3.513  10.748   9.532  1.9446  1.5939  0.8884
27460SOL    HW284388   3.469  10.863   9.620 -1.9596  1.1057 -0.2329
27461SOL     OW84389   4.094   6.022   7.690  0.1122  0.4828 -0.0999
27461SOL    HW184390   4.077   5.939   7.646  0.3062  0.2582  0.2473
27461SOL    HW284391   4.148   6.071   7.627  1.2514 -0.2375  0.2882
27462SOL     OW84392   8.543   1.135   7.036  0.7153 -0.2551 -0.2753
27462SOL    HW184393   8.465   1.095   6.996 -1.6094  1.7981  1.9120
27462SOL    HW284394   8.574   1.197   6.971  0.2951 -0.7786 -0.9943
27463SOL     OW84395   7.027   8.719   4.318  0.0061 -0.3696 -0.1737
27463SOL    HW184396   7.003   8.791   4.260 -1.2345 -0.4966  0.1537
27463SOL    HW284397   7.117   8.697   4.293 -0.4794 -0.4271 -2.0553
27464SOL     OW84398   7.078   0.443  10.057 -0.0607  0.3724  0.0414
27464SOL    HW184399   7.104   0.388  10.131 -0.3376 -0.6428 -0.5961
27464SOL    HW284400   7.160   0.482  10.025  0.0382  0.9480  0.9725
27465SOL     OW84401   4.128   6.650   4.834  0.4646 -0.3247 -0.2499
27465SOL    HW184402   4.164   6.676   4.918  0.2850  0.3309 -0.3694
27465SOL    HW284403   4.033   6.648   4.848  0.3418  1.0885 -0.7822
27466SOL     OW84404   3.822   4.134   7.654  0.0287  0.1111  0.2896
27466SOL    HW184405   3.851   4.225   7.666  0.0642 -0.1135  2.0660
27466SOL    HW284406   3.789   4.132   7.564 -2.3938  2.5717  0.9735
27467SOL     OW84407   9.667   0.166   5.478  0.3472 -0.1729 -0.0710
27467SOL    HW184408   9.656   0.074   5.500 -2.7631  0.2428  0.5935
27467SOL    HW284409   9.702   0.206   5.558 -0.5446 -0.4297  0.4616
27468SOL     OW84410   5.281   3.732   4.908 -0.5305 -0.1653  0.3845
27468SOL    HW184411   5.351   3.698   4.852 -2.4407 -1.1534 -1.5661
27468SOL    HW284412   5.208   3.746   4.848 -1.7470  1.6739  2.1932
27469SOL     OW84413   5.961   5.505   1.417 -0.1624 -0.1542 -0.1638
27469SOL    HW184414   5.893   5.572   1.405  0.2847  0.1373 -1.1807
27469SOL    HW284415   6.044   5.553   1.407  0.1797 -0.6914  0.0531
27470SOL     OW84416   6.382   2.503   2.922  0.6263 -0.4920  0.1376
27470SOL    HW184417   6.337   2.466   2.998  0.2568  0.4325  0.3864
27470SOL    HW284418   6.459   2.447   2.909  0.8306 -0.5076  1.3503
27471SOL     OW84419   6.906  11.008   9.146  0.8535 -0.6950  0.3980
27471SOL    HW184420   6.928  10.986   9.055  1.3468 -0.8039  0.5370
27471SOL    HW284421   6.819  11.047   9.141 -0.0403 -2.5748  0.1065
27472SOL     OW84422   6.251   4.068  10.105 -0.0850 -0.3760  0.1117
27472SOL    HW184423   6.201   4.145  10.134 -1.2252 -0.5010 -1.4254
27472SOL    HW284424   6.278   4.089  10.016  0.7525 -1.2173  0.1591
27473SOL     OW84425   6.588  10.450   8.685  0.0280 -0.1598 -0.3455
27473SOL    HW184426   6.643  10.525   8.663  0.8705 -0.3602  0.9447
27473SOL    HW284427   6.502  10.488   8.702  0.1893  0.3821 -0.7154
27474SOL     OW84428   1.888   7.563   0.480 -0.3262  0.7531  0.5108
27474SOL    HW184429   1.911   7.493   0.419 -1.5700  1.4537 -0.8034
27474SOL    HW284430   1.799   7.588   0.457  0.1454  2.9331  0.7663
27475SOL     OW84431   5.992  10.353   1.109 -0.1252  0.0773 -0.3681
27475SOL    HW184432   5.942  10.396   1.039  1.5393 -0.6052 -2.0538
27475SOL    HW284433   6.074  10.328   1.068  0.6519 -0.9812  1.6902
27476SOL     OW84434   3.821   8.925   9.966  0.3071  0.1207  0.3043
27476SOL    HW184435   3.781   9.008   9.944  0.1793  0.0303  0.1951
27476SOL    HW284436   3.894   8.948  10.024  0.1188  0.2867  0.4777
27477SOL     OW84437   6.969   3.243   9.500  0.5097  0.3568  0.1038
27477SOL    HW184438   7.025   3.238   9.422 -2.7739 -2.1791 -2.3799
27477SOL    HW284439   6.965   3.153   9.532 -2.0917  0.4044  0.1116
27478SOL     OW84440   2.992   0.332  10.423  0.0197 -0.3574  0.2618
27478SOL    HW184441   3.024   0.242  10.416 -0.0880 -0.3560 -0.3294
27478SOL    HW284442   3.069   0.386  10.405 -0.1958 -0.3509 -0.7184
27479SOL     OW84443   2.121  10.017   3.558 -0.3181  0.1085 -0.3175
27479SOL    HW184444   2.058   9.945   3.550 -0.8111  0.5149 -0.1949
27479SOL    HW284445   2.200   9.976   3.591  0.1838 -0.7859 -2.4397
27480SOL     OW84446   6.880  10.762   2.085  0.1571  0.7166  0.1515
27480SOL    HW184447   6.886  10.857   2.097  0.3376  0.6476  0.6249
27480SOL    HW284448   6.897  10.726   2.172  0.9200  0.2195 -0.1914
27481SOL     OW84449   8.671   0.999  10.147  0.1092 -0.4210 -0.0281
27481SOL    HW184450   8.705   0.936  10.083  0.4603 -1.4188  1.0906
27481SOL    HW284451   8.579   0.974  10.158 -0.7495  1.4894 -2.1263
27482SOL     OW84452   7.229   5.824   3.901 -0.4864  0.7312 -0.8861
27482SOL    HW184453   7.226   5.882   3.976  0.3268  0.7680 -0.8772
27482SOL    HW284454   7.315   5.783   3.905 -0.7048  0.2015 -1.4000
27483SOL     OW84455   5.055   7.882   7.211 -0.2260  0.8022 -0.0159
27483SOL    HW184456   5.073   7.932   7.131  0.3532  0.3724 -0.1701
27483SOL    HW284457   5.011   7.803   7.179  4.3138 -1.8438 -0.6374
27484SOL     OW84458  10.512   7.402   0.080 -0.0648  0.3080  0.1334
27484SOL    HW184459  10.505   7.374   0.171  0.4662  1.4515  0.5353
27484SOL    HW284460  10.579   7.345   0.042 -0.0112  0.0901  0.5542
27485SOL     OW84461   1.299  10.068   4.066 -0.2115  0.3173 -0.1337
27485SOL    HW184462   1.352   9.997   4.030 -0.1355  1.0322 -1.4875
27485SOL    HW284463   1.364  10.128   4.105 -0.1289  0.5022 -0.5500
27486SOL     OW84464   9.408   0.067   0.516 -0.3102  0.0089 -0.3262
27486SOL    HW184465   9.452  -0.017   0.503  0.4995  0.4209 -0.3220
27486SOL    HW284466   9.448   0.125   0.451 -0.7662  0.4295 -0.2356
27487SOL     OW84467   3.913   0.946   2.007  0.3252  0.0169 -0.2603
27487SOL    HW184468   3.883   0.950   2.098  0.5748  1.3378 -0.2137
27487SOL    HW284469   3.967   0.867   2.003 -0.6497 -0.7084  0.4251
27488SOL     OW84470   7.575   8.430   0.860 -0.4178  0.0491  0.1055
27488SOL    HW184471   7.578   8.353   0.918 -0.6486  0.2806  0.4279
27488SOL    HW284472   7.491   8.472   0.880  0.8920  1.9693  2.0173
27489SOL     OW84473   9.554   0.679   7.881  0.4410 -0.0285 -0.3394
27489SOL    HW184474   9.496   0.708   7.810 -0.5623 -1.2311 -0.0499
27489SOL    HW284475   9.499   0.685   7.959  0.6075 -1.4315 -0.0920
27490SOL     OW84476   5.921   7.529   7.621 -0.4276  0.5434 -0.7389
27490SOL    HW184477   5.911   7.547   7.714  0.2883 -0.0394 -0.5363
27490SOL    HW284478   5.867   7.595   7.577 -1.9299 -0.0359  0.1279
27491SOL     OW84479  10.819   0.340   8.007  0.0930 -0.4312  0.1182
27491SOL    HW184480  10.799   0.249   8.028  1.8371 -0.9582 -0.3702
27491SOL    HW284481  10.734   0.378   7.983 -0.8141 -1.6440  1.2728
27492SOL     OW84482   7.572   6.917   6.533  0.5255  0.4723 -0.0720
27492SOL    HW184483   7.657   6.873   6.530 -0.1635 -0.8907 -0.4393
27492SOL    HW284484   7.559   6.949   6.444 -0.7448 -2.1938 -0.9571
27493SOL     OW84485   5.168   8.535   8.149 -0.4878 -0.4284 -0.1805
27493SOL    HW184486   5.225   8.462   8.126 -1.0390 -0.6241 -1.0056
27493SOL    HW284487   5.174   8.542   8.244  0.7145 -0.5937 -0.2296
27494SOL     OW84488   7.257   7.870   9.738 -0.0491  0.2380 -0.0239
27494SOL    HW184489   7.309   7.873   9.818  1.7590  0.6513 -1.1578
27494SOL    HW284490   7.253   7.777   9.715  1.0712  0.2750 -0.4409
27495SOL     OW84491   5.904   7.610   7.196  0.3474  0.3490  0.6276
27495SOL    HW184492   5.866   7.643   7.278 -2.2715  1.9412 -1.0701
27495SOL    HW284493   5.836   7.553   7.160  0.9121  0.6657 -1.0098
27496SOL     OW84494   3.348   8.642   7.705 -0.1798 -0.0078 -0.0697
27496SOL    HW184495   3.268   8.589   7.699 -0.0589 -0.0397 -1.6315
27496SOL    HW284496   3.392   8.630   7.621  0.6308  1.3356  0.1310
27497SOL     OW84497   8.706   5.516   5.969  0.2146  0.4259 -0.1867
27497SOL    HW184498   8.777   5.541   6.028  0.0535 -1.3971  0.8418
27497SOL    HW284499   8.653   5.455   6.020 -1.7586  1.2486 -1.1430
27498SOL     OW84500   8.742   0.630   8.226 -0.1607  0.1442  0.1087
27498SOL    HW184501   8.711   0.689   8.295  1.0852  0.1730  0.6725
27498SOL    HW284502   8.736   0.682   8.146  1.0586  1.1120  0.6193
27499SOL     OW84503   0.368   7.448   6.954  0.2444  0.1221  0.5322
27499SOL    HW184504   0.393   7.355   6.962 -0.6076 -0.2352 -0.6976
27499SOL    HW284505   0.445   7.496   6.984  0.2763 -0.9781  2.3569
27500SOL     OW84506  10.078   2.583   0.048  0.1315  0.0952  0.3047
27500SOL    HW184507  10.170   2.591   0.071  0.6111 -0.9281 -1.0559
27500SOL    HW284508  10.058   2.662  -0.002  0.8732 -0.5379 -1.0851
27501SOL     OW84509   6.254   8.974   9.138  0.0622 -0.6037  0.1622
27501SOL    HW184510   6.196   8.932   9.074 -1.4311 -0.0814  1.1009
27501SOL    HW284511   6.300   8.901   9.180 -0.5840 -1.1169 -0.0079
27502SOL     OW84512   8.291  10.119   7.287 -0.0772  0.0313 -0.0926
27502SOL    HW184513   8.244  10.039   7.262 -1.6168  0.8924 -0.0485
27502SOL    HW284514   8.236  10.159   7.354 -0.5972  2.3693 -1.8118
27503SOL     OW84515   8.837   3.569   1.779 -0.3399 -0.1393  0.1704
27503SOL    HW184516   8.847   3.561   1.684 -0.0364  1.5723  0.0225
27503SOL    HW284517   8.751   3.530   1.798 -1.5725  1.7191 -1.1944
27504SOL     OW84518   3.840   7.456   9.609  0.4985 -0.0727  0.3931
27504SOL    HW184519   3.768   7.515   9.634  2.2435  1.4524  2.1974
27504SOL    HW284520   3.796   7.381   9.568 -2.0149  1.3120  0.3152
27505SOL     OW84521   0.206   1.418  10.739 -0.4935 -0.5604  0.5079
27505SOL    HW184522   0.224   1.356  10.809 -2.3879  1.3485  2.8562
27505SOL    HW284523   0.292   1.453  10.716  0.0935 -0.2654  2.9019
27506SOL     OW84524   8.260   1.714   8.477  0.6874  0.0084 -0.4076
27506SOL    HW184525   8.299   1.628   8.459  0.3426  0.0325 -1.2744
27506SOL    HW284526   8.170   1.707   8.446  0.2816  0.2838  0.6799
27507SOL     OW84527   6.873   8.412   6.263  0.7681  0.3480  0.2657
27507SOL    HW184528   6.790   8.367   6.282  0.8677 -0.1538 -0.4735
27507SOL    HW284529   6.939   8.362   6.310  0.8781 -0.2858 -0.5543
27508SOL     OW84530   3.370   7.248  10.197 -0.1249  0.1514  0.0460
27508SOL    HW184531   3.292   7.239  10.143  0.5653  1.6076 -1.2774
27508SOL    HW284532   3.439   7.203  10.147  0.5848  1.7684 -0.5043
27509SOL     OW84533   3.665   1.095   9.072 -0.2654  0.3261 -0.1835
27509SOL    HW184534   3.729   1.134   9.132 -0.5859  0.7549 -0.1123
27509SOL    HW284535   3.715   1.032   9.021 -0.2971 -1.1984  1.5920
27510SOL     OW84536   0.354   5.111   5.661  0.3752  0.0290  0.4627
27510SOL    HW184537   0.303   5.138   5.584  0.8721  0.6836  0.3555
27510SOL    HW284538   0.330   5.019   5.674  0.1525 -0.0440 -0.3708
27511SOL     OW84539   0.735   8.451  10.500  0.1587 -0.3651  0.6702
27511SOL    HW184540   0.732   8.534  10.547  0.6201  0.2515 -0.3502
27511SOL    HW284541   0.827   8.440  10.476 -0.2215 -0.1040 -1.0215
27512SOL     OW84542   4.112   9.056   6.905 -0.5395  0.4484 -0.8402
27512SOL    HW184543   4.145   8.966   6.912  1.2794  1.1610  0.5020
27512SOL    HW284544   4.186   9.107   6.871 -0.3047  2.0072  1.7296
27513SOL     OW84545   9.695   1.637   9.272  0.1618 -0.5922 -0.2579
27513SOL    HW184546   9.712   1.722   9.231 -2.2779 -0.0137 -0.1930
27513SOL    HW284547   9.758   1.633   9.345  0.8226  0.7993 -0.7166
27514SOL     OW84548   2.714   9.573   0.173  0.2802  0.0983  0.4717
27514SOL    HW184549   2.654   9.556   0.100  1.4423 -0.6347 -0.3486
27514SOL    HW284550   2.709   9.493   0.226  0.8536 -0.1538  0.1550
27515SOL     OW84551   3.863   8.009  10.608 -0.4520 -0.0329  0.2484
27515SOL    HW184552   3.897   7.926  10.642 -1.7340 -0.5656  0.2650
27515SOL    HW284553   3.913   8.076  10.655  0.3414 -0.7811  0.5017
27516SOL     OW84554   7.485   8.726   6.463  0.0419  0.1583 -0.7373
27516SOL    HW184555   7.575   8.702   6.445 -0.4227 -1.3296 -1.2408
27516SOL    HW284556   7.453   8.658   6.522 -0.9060  0.3558 -0.9978
27517SOL     OW84557   1.522   9.078   4.479 -0.1087  0.2309 -0.0431
27517SOL    HW184558   1.613   9.082   4.509 -0.5308  0.0522  1.2942
27517SOL    HW284559   1.523   9.124   4.395  0.8560  1.9651  0.8546
27518SOL     OW84560   6.950  10.680   1.285 -0.1011 -0.2470  0.5560
27518SOL    HW184561   7.001  10.759   1.265 -0.7711  0.2672  0.8299
27518SOL    HW284562   6.898  10.665   1.206  0.2622 -0.6079  0.3827
27519SOL     OW84563  10.300   0.222   9.853  0.2473  0.6601 -0.7115
27519SOL    HW184564  10.322   0.146   9.798 -1.3862  0.0970 -0.6205
27519SOL    HW284565  10.281   0.292   9.790 -1.2070  0.1337 -0.8858
27520SOL     OW84566   1.925   9.660   8.077 -0.2331  0.0767  0.4515
27520SOL    HW184567   1.889   9.621   7.997 -0.4979 -0.6014  0.8874
27520SOL    HW284568   2.003   9.608   8.096 -0.1272  0.2862  0.5970
27521SOL     OW84569   8.680   2.718  10.414  0.0792  0.2248 -0.4120
27521SOL    HW184570   8.640   2.771  10.346  1.5827  0.9333 -0.7717
27521SOL    HW284571   8.751   2.670  10.370  0.7327  0.2962  0.5298
27522SOL     OW84572   7.950   8.761   9.119 -0.4607 -0.0042  0.1532
27522SOL    HW184573   7.895   8.832   9.154 -1.4122 -2.3654  4.1044
27522SOL    HW284574   7.898   8.682   9.134  1.7014 -1.8388 -1.4198
27523SOL     OW84575   5.771   1.154   9.959 -0.4815 -0.2117 -0.0035
27523SOL    HW184576   5.738   1.101   9.886  0.6622 -0.6347 -0.2395
27523SOL    HW284577   5.811   1.090  10.018  2.2040  0.4406 -0.9816
27524SOL     OW84578   7.244   7.155   6.436 -0.0780  0.0911 -0.3410
27524SOL    HW184579   7.275   7.137   6.348  1.1282  0.9833 -0.1321
27524SOL    HW284580   7.190   7.080   6.459  1.1678 -1.0883 -1.1093
27525SOL     OW84581   8.110   8.502   9.034  0.2725 -0.0225 -0.4756
27525SOL    HW184582   8.016   8.505   9.051  0.5642  1.3942  1.1999
27525SOL    HW284583   8.119   8.442   8.960 -1.9681  0.0806 -0.9080
27526SOL     OW84584   7.410   0.970   5.331  0.2999  0.0829 -0.2271
27526SOL    HW184585   7.463   1.047   5.348  0.6081  0.0732 -1.0869
27526SOL    HW284586   7.391   0.934   5.418  0.3451  0.9861  0.1688
27527SOL     OW84587   2.513   8.856   4.250  0.2095  0.0545 -0.1659
27527SOL    HW184588   2.499   8.936   4.198  0.9334 -0.2616 -0.8557
27527SOL    HW284589   2.608   8.850   4.260  0.0845  0.0621  1.1338
27528SOL     OW84590  10.147  10.603   1.571 -0.1545  0.6111  0.4890
27528SOL    HW184591  10.079  10.628   1.508 -0.6403 -0.4470  0.5686
27528SOL    HW284592  10.219  10.663   1.553 -1.7169  2.9635  1.5598
27529SOL     OW84593   8.839   9.833   4.952  0.2028 -0.4884 -0.5105
27529SOL    HW184594   8.905   9.788   5.005  0.0003  0.1161  0.2658
27529SOL    HW284595   8.820   9.913   5.000 -0.9529 -0.5567 -0.8385
27530SOL     OW84596   8.186   9.154   7.771 -0.2800 -0.1647  0.3341
27530SOL    HW184597   8.215   9.185   7.686  0.7145 -0.2158  0.6382
27530SOL    HW284598   8.264   9.158   7.826 -0.9487  0.0556  1.3003
27531SOL     OW84599   0.189   1.501   9.122  0.5854  0.3535 -0.1862
27531SOL    HW184600   0.210   1.533   9.209  0.7727 -1.2844  0.4046
27531SOL    HW284601   0.273   1.497   9.076  0.8933 -1.2244  0.4449
27532SOL     OW84602   0.998   8.014  10.651 -0.1943 -0.5027  0.5192
27532SOL    HW184603   1.071   8.059  10.693 -0.4775  0.1763  0.3046
27532SOL    HW284604   1.037   7.963  10.580 -0.0580  0.8743 -0.4238
27533SOL     OW84605  11.054   4.513   1.588 -0.4503  0.0553  0.5739
27533SOL    HW184606  11.149   4.517   1.602 -0.3871 -3.7662  2.3381
27533SOL    HW284607  11.045   4.500   1.493  0.7208  0.8637  0.3267
27534SOL     OW84608   5.831  10.064   5.385  0.1962 -0.1186  0.7422
27534SOL    HW184609   5.792  10.056   5.472 -2.0860  1.8218  0.0120
27534SOL    HW284610   5.791   9.993   5.334 -0.9434  0.6741  0.5020
27535SOL     OW84611   8.764  10.131   7.148 -0.2814 -0.2617  0.4407
27535SOL    HW184612   8.676  10.155   7.177  0.2559  1.4751  0.7920
27535SOL    HW284613   8.796  10.070   7.215 -0.6319  0.3581  1.1923
27536SOL     OW84614   2.479   9.279   5.271 -0.2906 -0.3061  0.2273
27536SOL    HW184615   2.488   9.372   5.253 -1.5207 -0.0659  0.7443
27536SOL    HW284616   2.546   9.259   5.336  2.5379 -0.6421 -2.5656
27537SOL     OW84617   5.495   8.908   4.345  0.9148  0.4676  0.1796
27537SOL    HW184618   5.483   8.895   4.439 -0.6335 -0.1075 -0.0642
27537SOL    HW284619   5.572   8.856   4.323  1.2078  0.4928  1.0936
27538SOL     OW84620   2.413   9.807   8.997  0.2812 -0.5022 -0.1176
27538SOL    HW184621   2.351   9.753   8.949 -1.8860 -0.0410  1.9586
27538SOL    HW284622   2.389   9.897   8.974  1.4362 -0.3377 -0.7244
27539SOL     OW84623   9.019   3.053   6.950  0.2542 -0.2044  0.4396
27539SOL    HW184624   9.019   3.097   6.864 -0.1077  0.3601  0.7190
27539SOL    HW284625   9.053   2.966   6.932  2.3013  0.6217  0.0895
27540SOL     OW84626   3.433   6.335   5.040 -0.2736 -0.3832 -0.2977
27540SOL    HW184627   3.456   6.425   5.018 -1.1534 -0.0949 -0.0767
27540SOL    HW284628   3.517   6.293   5.060  0.2354  0.1164 -1.3435
27541SOL     OW84629  10.115  10.121   9.795 -0.6986  0.1174  0.0934
27541SOL    HW184630  10.184  10.166   9.746 -0.9516  0.1803 -0.2063
27541SOL    HW284631  10.162  10.065   9.857 -0.3444 -1.0994 -1.2159
27542SOL     OW84632   8.886   0.471   1.329  0.1710  0.0246  0.2867
27542SOL    HW184633   8.850   0.404   1.272  1.4780  0.0568 -0.6083
27542SOL    HW284634   8.975   0.442   1.348  1.1265  1.9289 -0.9236
27543SOL     OW84635   6.253   7.390   5.246 -0.3544  0.8033  0.5813
27543SOL    HW184636   6.268   7.306   5.289  0.1108 -0.8467 -2.5605
27543SOL    HW284637   6.313   7.450   5.289  0.4325 -0.8239  1.8642
27544SOL     OW84638   3.595   3.363   1.685  0.2967  0.4026  0.9279
27544SOL    HW184639   3.535   3.430   1.653 -1.0192 -1.0521  0.2093
27544SOL    HW284640   3.680   3.388   1.649 -0.2629  1.3881  0.2346
27545SOL     OW84641   7.380   1.520  10.208 -0.3411 -0.5122 -0.1568
27545SOL    HW184642   7.461   1.560  10.240 -1.1334  2.7037 -1.7163
27545SOL    HW284643   7.373   1.437  10.256  3.7097 -0.8550  0.1779
27546SOL     OW84644   8.829   9.876   7.861 -0.1552  0.3019  0.0081
27546SOL    HW184645   8.890   9.940   7.823  1.4599 -1.0120  0.2644
27546SOL    HW284646   8.885   9.802   7.884 -2.0277 -1.3403 -0.5650
27547SOL     OW84647   0.257   0.090  10.310  0.1212  0.3630 -0.1125
27547SOL    HW184648   0.321   0.046  10.366 -2.2226 -1.2740  1.4921
27547SOL    HW284649   0.308   0.126  10.238  3.0475  0.8951  2.0737
27548SOL     OW84650  10.691   6.911   7.473 -0.6366  0.2192 -0.0164
27548SOL    HW184651  10.783   6.922   7.448 -1.1479 -1.4570 -3.2385
27548SOL    HW284652  10.653   6.998   7.466  0.6629  0.9770  1.5700
27549SOL     OW84653   7.114   2.447   2.472 -0.0240  0.0874  0.0773
27549SOL    HW184654   7.080   2.515   2.414  0.4839 -0.2859 -0.6902
27549SOL    HW284655   7.041   2.384   2.480  0.3326 -0.5578 -1.3144
27550SOL     OW84656   7.980   9.442   6.317  0.4872  0.2172  0.5901
27550SOL    HW184657   8.043   9.378   6.348  0.5162  0.0118  0.1059
27550SOL    HW284658   7.899   9.420   6.363  0.1448 -0.9894 -0.5474
27551SOL     OW84659   0.580   6.039   8.759  0.3089  0.2534 -0.2077
27551SOL    HW184660   0.577   6.004   8.669 -0.9956  1.0219 -0.4895
27551SOL    HW284661   0.501   6.004   8.800  0.2103  0.9785  0.2305
27552SOL     OW84662   0.659   9.885   0.309 -0.7716  0.7089  0.0445
27552SOL    HW184663   0.653   9.856   0.400 -0.2658  0.1440 -0.0931
27552SOL    HW284664   0.596   9.956   0.302 -2.1213 -0.4056  0.3714
27553SOL     OW84665   9.393   7.221   7.618  0.1260 -0.3216 -0.3299
27553SOL    HW184666   9.315   7.185   7.576 -0.7891  1.2468 -0.0870
27553SOL    HW284667   9.455   7.148   7.622 -1.1733 -1.5021 -0.9062
27554SOL     OW84668   0.797   4.821   6.530  0.4784 -0.4087  0.1936
27554SOL    HW184669   0.760   4.735   6.511 -1.8549  0.7196 -0.8900
27554SOL    HW284670   0.867   4.832   6.466 -0.6139 -0.7036 -1.1111
27555SOL     OW84671   8.517   5.559   1.950 -0.4675  0.2644 -0.4028
27555SOL    HW184672   8.496   5.635   1.897 -0.6467 -0.5654 -1.5521
27555SOL    HW284673   8.604   5.578   1.985 -0.9871  1.4964  0.2941
27556SOL     OW84674  10.278   4.756   4.478  0.1674 -0.7933  0.3217
27556SOL    HW184675  10.184   4.745   4.489  0.3941 -1.3803  1.9078
27556SOL    HW284676  10.314   4.668   4.491  0.9087 -0.6509 -0.6805
27557SOL     OW84677   4.927   7.605   9.201 -0.2338 -0.0700 -0.2406
27557SOL    HW184678   4.997   7.576   9.260 -1.1721  0.0980  1.0000
27557SOL    HW284679   4.973   7.645   9.127  1.0388 -2.2278 -0.7123
27558SOL     OW84680   7.831   9.529   1.213 -0.4410 -0.2994 -0.1113
27558SOL    HW184681   7.896   9.465   1.183 -1.0136 -0.8795 -0.1366
27558SOL    HW284682   7.830   9.519   1.308 -0.2263 -0.0254 -0.0796
27559SOL     OW84683   8.775   3.650   2.850  0.0610  0.4327  0.0431
27559SOL    HW184684   8.740   3.569   2.887  0.3922 -0.9803 -2.5163
27559SOL    HW284685   8.701   3.688   2.801  0.3175  0.9241  0.0306
27560SOL     OW84686   9.674   8.430   8.764  0.0429  0.2787 -0.2635
27560SOL    HW184687   9.671   8.353   8.821 -0.3874 -0.2787 -1.0196
27560SOL    HW284688   9.766   8.435   8.735  0.7605  1.7391  1.9982
27561SOL     OW84689   4.636   9.567  10.854  0.1873  0.2803 -0.0946
27561SOL    HW184690   4.659   9.599  10.768  0.9435  0.8948  0.3251
27561SOL    HW284691   4.717   9.571  10.904  0.1863 -1.7221  0.1628
27562SOL     OW84692   8.490   1.339   8.963  0.2026  0.3881  0.1084
27562SOL    HW184693   8.464   1.399   9.033  2.2645  1.8074 -0.2402
27562SOL    HW284694   8.507   1.395   8.888 -1.4526 -1.0537 -1.4570
27563SOL     OW84695  10.137   4.832   1.261  0.1817  0.0216  0.2991
27563SOL    HW184696  10.227   4.852   1.288  0.4038 -1.2316  0.5494
27563SOL    HW284697  10.138   4.738   1.241 -0.6779  0.3022 -1.2717
27564SOL     OW84698   6.704  10.497   5.430  0.4878  0.0329  0.3490
27564SOL    HW184699   6.613  10.486   5.404  0.4645 -1.6324  0.9659
27564SOL    HW284700   6.705  10.576   5.484 -0.9709 -0.9006  1.8354
27565SOL     OW84701   5.965  10.249   1.922  0.2743  0.0534  0.1675
27565SOL    HW184702   5.997  10.325   1.872 -1.5401  0.2233 -0.8414
27565SOL    HW284703   5.896  10.286   1.978  1.6755 -0.2986  2.2216
27566SOL     OW84704   4.244   0.874   8.807 -0.5345  0.1337  0.3501
27566SOL    HW184705   4.282   0.879   8.895 -0.7474 -2.1626  0.6443
27566SOL    HW284706   4.313   0.905   8.749  0.1261  0.3533  1.2335
27567SOL     OW84707   9.932   9.896   3.083  0.3495 -0.0402  0.0135
27567SOL    HW184708   9.920   9.897   2.988 -0.9521 -0.6236  0.1596
27567SOL    HW284709   9.874   9.965   3.116 -1.4567 -1.7543  0.5921
27568SOL     OW84710   6.201  10.978   6.810 -0.2415 -0.4061 -0.3826
27568SOL    HW184711   6.198  10.985   6.905  0.5626 -0.5888 -0.3382
27568SOL    HW284712   6.146  10.902   6.790  0.0541 -0.7236 -0.0131
27569SOL     OW84713   4.735  11.058   0.203 -0.0897 -0.1701 -0.1275
27569SOL    HW184714   4.771  11.130   0.152 -3.7941 -0.1393 -3.0707
27569SOL    HW284715   4.781  10.980   0.169  1.2128  0.3666  0.3485
27570SOL     OW84716   6.051  10.771  11.005 -0.4272  0.0157 -0.2226
27570SOL    HW184717   5.998  10.768  10.925 -2.2010  0.3876  0.8765
27570SOL    HW284718   6.100  10.688  11.004  0.5541  0.5430 -2.2667
27571SOL     OW84719   4.992   2.215   7.863 -0.1949  0.5178 -0.1529
27571SOL    HW184720   5.078   2.197   7.827 -1.0466  0.6398 -2.4078
27571SOL    HW284721   4.989   2.165   7.944  1.4792 -0.5982 -0.7258
27572SOL     OW84722   1.692   5.552   8.016  0.7895 -0.4783  0.2960
27572SOL    HW184723   1.606   5.514   8.000  0.1350  1.7731 -2.3505
27572SOL    HW284724   1.754   5.485   7.989 -0.0698 -2.0456  2.0168
27573SOL     OW84725   8.560   5.221   6.268  0.1556  0.1123 -0.0177
27573SOL    HW184726   8.547   5.158   6.339  1.9400  0.0315  0.2828
27573SOL    HW284727   8.618   5.176   6.207 -2.3506 -0.3347 -2.2822
27574SOL     OW84728   0.741  10.789   8.471  0.1002 -0.2405 -0.5528
27574SOL    HW184729   0.798  10.817   8.400 -0.8248  0.6358 -0.9802
27574SOL    HW284730   0.729  10.695   8.457  0.7855 -0.2731 -0.9267
27575SOL     OW84731   6.794   6.627  10.690  0.3944  0.1094 -0.0007
27575SOL    HW184732   6.819   6.611  10.781 -0.3081  0.8307  0.3280
27575SOL    HW284733   6.877   6.621  10.642  0.8765  0.3595  0.7704
27576SOL     OW84734   1.828   8.482   3.934  0.0770  0.5898 -0.4506
27576SOL    HW184735   1.869   8.568   3.925  1.4678  0.0997  0.6953
27576SOL    HW284736   1.833   8.463   4.028  0.1472 -0.8899 -0.7297
27577SOL     OW84737   0.659   0.657   6.566 -0.5976 -0.2103  0.2646
27577SOL    HW184738   0.693   0.608   6.640  0.0361 -0.7323 -0.3507
27577SOL    HW284739   0.628   0.591   6.504 -0.8259  0.2013 -0.0729
27578SOL     OW84740   3.448   5.115  10.585 -0.0207  0.2217 -0.2309
27578SOL    HW184741   3.509   5.107  10.511  0.1974  0.1719 -0.0482
27578SOL    HW284742   3.505   5.117  10.662 -0.2877 -0.6232  0.0004
27579SOL     OW84743   4.993   8.395   6.391 -0.0452  0.2616  0.4059
27579SOL    HW184744   4.914   8.420   6.343  0.0121 -0.1415  0.1055
27579SOL    HW284745   5.015   8.474   6.442  0.2722  0.9112 -0.7123
27580SOL     OW84746   4.750  10.066   7.216  0.0272  0.5321 -0.3694
27580SOL    HW184747   4.763   9.987   7.163  1.3016  2.1071 -2.6077
27580SOL    HW284748   4.658  10.087   7.206  0.3311  1.0931 -2.5785
27581SOL     OW84749   6.447   9.048   3.718  0.3429  0.2363  0.2797
27581SOL    HW184750   6.532   9.051   3.761  0.0077 -0.7920  1.0693
27581SOL    HW284751   6.420   8.956   3.724 -0.4966  0.4094 -0.5993
27582SOL     OW84752   0.894   6.096   7.938 -0.6175  0.2192 -0.2106
27582SOL    HW184753   0.874   6.005   7.914  1.1288 -0.5740  1.1239
27582SOL    HW284754   0.867   6.103   8.029 -0.9609  1.1288 -0.3754
27583SOL     OW84755   8.089   9.215   6.458 -0.4505  0.2558 -1.1531
27583SOL    HW184756   8.139   9.140   6.426 -0.5568 -0.2769 -0.1034
27583SOL    HW284757   7.999   9.182   6.466 -0.6006  0.6484 -1.1874
27584SOL     OW84758   3.389   2.625   6.968 -0.1844 -0.2035 -0.1671
27584SOL    HW184759   3.481   2.622   6.992  0.3268  0.4491 -1.9278
27584SOL    HW284760   3.358   2.535   6.980  0.9745 -0.6808 -0.6648
27585SOL     OW84761  10.909   6.398   7.562 -0.7069  0.2977 -0.0842
27585SOL    HW184762  10.961   6.370   7.488  1.1039 -0.7025  1.4737
27585SOL    HW284763  10.898   6.492   7.550  2.3453  0.7490 -0.0238
27586SOL     OW84764   5.514   5.293  10.601 -0.2656  0.3080  0.2989
27586SOL    HW184765   5.479   5.206  10.614 -0.0742 -0.2170 -2.2424
27586SOL    HW284766   5.603   5.279  10.567  0.3498  1.5380  1.2732
27587SOL     OW84767   5.344   8.372   5.701  0.6711  0.4176 -0.7571
27587SOL    HW184768   5.367   8.326   5.621 -1.3012 -0.9666 -0.5861
27587SOL    HW284769   5.258   8.337   5.726  0.5018  1.9651  1.0888
27588SOL     OW84770   6.169   2.484   6.718 -0.2190 -0.0617  0.4604
27588SOL    HW184771   6.242   2.440   6.760  1.1647  1.3416 -0.3585
27588SOL    HW284772   6.180   2.576   6.740 -0.9776  0.3522 -0.7732
27589SOL     OW84773   7.608   9.005   7.848 -0.3373  0.2036 -0.5895
27589SOL    HW184774   7.688   9.030   7.802 -1.7457 -0.1539 -3.4144
27589SOL    HW284775   7.565   9.088   7.868 -0.1138  0.3448 -0.6920
27590SOL     OW84776   5.432  10.117   0.975 -0.2082  0.2314 -0.0251
27590SOL    HW184777   5.491  10.114   1.050 -1.4213  0.4825  0.9802
27590SOL    HW284778   5.486  10.090   0.901  1.5200  1.7374  0.6013
27591SOL     OW84779   8.822   7.143   1.415 -0.4682  0.3410 -0.3054
27591SOL    HW184780   8.748   7.196   1.444  1.1182  1.1197  2.8577
27591SOL    HW284781   8.834   7.078   1.484  0.3046 -1.3806 -1.9712
27592SOL     OW84782   5.302   1.609   7.895 -0.2037 -0.3822  0.5147
27592SOL    HW184783   5.393   1.619   7.921 -0.2538 -1.7029  1.2474
27592SOL    HW284784   5.278   1.695   7.859  0.5501  0.8116  2.7184
27593SOL     OW84785   1.538   9.225   7.604  0.2077 -0.7198  0.3985
27593SOL    HW184786   1.572   9.293   7.661  0.7801  0.0239 -0.7950
27593SOL    HW284787   1.572   9.143   7.641  0.4993 -0.2675  1.1567
27594SOL     OW84788   7.337   8.703   9.045  0.0952 -0.2884 -0.3962
27594SOL    HW184789   7.310   8.794   9.030 -0.7997 -0.4142  0.3155
27594SOL    HW284790   7.318   8.659   8.963 -1.3954 -0.2411 -0.1103
27595SOL     OW84791   5.221   5.577   7.937  0.1829 -0.2231  0.0890
27595SOL    HW184792   5.141   5.616   7.901  0.3036 -0.4003 -0.3755
27595SOL    HW284793   5.223   5.488   7.901  0.7030 -0.1463 -0.0856
27596SOL     OW84794   7.987  10.665   9.537 -0.3170 -0.2944  0.3468
27596SOL    HW184795   8.040  10.700   9.466 -0.4230 -0.5247  0.1551
27596SOL    HW284796   7.904  10.641   9.496  0.0509 -1.5597  0.3082
27597SOL     OW84797   6.404   8.889   5.788 -0.8406 -0.6752 -0.0642
27597SOL    HW184798   6.330   8.830   5.775 -0.3310 -1.7055  1.4053
27597SOL    HW284799   6.456   8.847   5.857  1.4097 -0.2908 -1.4065
27598SOL     OW84800   2.463   2.361   6.363 -0.4132 -0.2160  0.6312
27598SOL    HW184801   2.552   2.327   6.364 -1.2502 -2.6345  0.6350
27598SOL    HW284802   2.447   2.387   6.273 -0.2913 -1.5890  0.1934
27599SOL     OW84803   5.033   0.990   7.640  0.5494  0.5751 -0.0070
27599SOL    HW184804   5.117   1.026   7.611 -0.0015 -0.2287 -2.8341
27599SOL    HW284805   5.048   0.964   7.731  3.0685  1.2625 -0.1633
27600SOL     OW84806   5.754   8.903   7.432 -0.5029  0.7113  0.5608
27600SOL    HW184807   5.699   8.844   7.380  1.7164  0.0625 -1.2031
27600SOL    HW284808   5.751   8.986   7.385  0.8352  0.3618 -0.1942
27601SOL     OW84809   6.200   1.505   3.831  0.3516  0.0979 -0.3952
27601SOL    HW184810   6.166   1.464   3.910  2.2179  0.5367  0.6799
27601SOL    HW284811   6.269   1.447   3.800  0.3144  0.4299 -1.1343
27602SOL     OW84812   6.959   0.679   7.420  0.0486  0.2811 -0.3890
27602SOL    HW184813   6.867   0.663   7.399 -0.1593 -0.8934  1.2123
27602SOL    HW284814   6.959   0.764   7.465 -0.1192  0.7040 -1.1794
27603SOL     OW84815   6.750   7.228   5.454  0.0545  0.4693  0.6873
27603SOL    HW184816   6.681   7.207   5.390  2.3492 -0.8132 -1.5215
27603SOL    HW284817   6.791   7.307   5.419  2.8617 -1.5382 -0.9257
27604SOL     OW84818   5.489   7.312   4.920  0.5544  0.3213 -0.5910
27604SOL    HW184819   5.450   7.377   4.979  0.0579 -0.4528 -0.0489
27604SOL    HW284820   5.465   7.227   4.958  1.2026 -0.1867 -1.2789
27605SOL     OW84821   0.003   4.133   0.406  0.0849  0.2964  0.0020
27605SOL    HW184822   0.086   4.086   0.403 -0.7076 -1.1212 -0.7143
27605SOL    HW284823  -0.048   4.089   0.474 -0.4539  0.4871 -0.2673
27606SOL     OW84824   8.706   1.888   8.943  0.3984  0.2930 -0.0066
27606SOL    HW184825   8.770   1.825   8.909  0.8338  0.4082  0.5803
27606SOL    HW284826   8.737   1.973   8.913  0.3624  0.3186  0.0282
27607SOL     OW84827   7.271   2.242   1.396 -0.0741  0.6208 -0.4862
27607SOL    HW184828   7.212   2.178   1.435  0.8671 -0.5481 -0.9359
27607SOL    HW284829   7.256   2.235   1.302 -0.8133  1.9350 -0.4997
27608SOL     OW84830   6.829   7.288  11.022  0.3862 -0.1149 -0.3171
27608SOL    HW184831   6.735   7.303  11.035  0.0333 -2.3179  0.1139
27608SOL    HW284832   6.871   7.335  11.094 -0.4658  0.0550  0.0795
27609SOL     OW84833   7.161   4.768  10.551 -0.0653  0.0280 -0.0758
27609SOL    HW184834   7.246   4.765  10.594 -0.7562  0.4292  1.3642
27609SOL    HW284835   7.112   4.695  10.588 -0.3941 -0.1592 -0.8482
27610SOL     OW84836  10.004   7.681   9.799 -0.1743 -0.0371  0.8979
27610SOL    HW184837  10.037   7.769   9.817 -1.0095  0.3249  0.6798
27610SOL    HW284838  10.079   7.623   9.817  1.1665  0.8915 -1.3043
27611SOL     OW84839   6.543  10.952  11.001  0.0436 -0.2319  0.3360
27611SOL    HW184840   6.480  10.954  11.073  0.5559 -0.7406  0.8139
27611SOL    HW284841   6.575  11.041  10.994 -2.2261  0.5602 -1.2970
27612SOL     OW84842   3.796   0.382   8.926 -0.2430  0.4562  0.5635
27612SOL    HW184843   3.738   0.328   8.980 -1.2007  1.7311  0.8629
27612SOL    HW284844   3.779   0.471   8.955  3.0055  0.8142  1.7339
27613SOL     OW84845   5.885   5.769   9.475 -0.7050 -0.0459 -0.4330
27613SOL    HW184846   5.907   5.792   9.565 -2.6990  1.7425 -0.3331
27613SOL    HW284847   5.969   5.767   9.429  0.1608  1.1575  1.0200
27614SOL     OW84848   4.388   0.163   9.821  0.2000  0.3463  0.0559
27614SOL    HW184849   4.382   0.257   9.836  0.7225  0.1363  1.7063
27614SOL    HW284850   4.464   0.135   9.871  0.0871 -0.9574 -0.4643
27615SOL     OW84851   4.811  10.078   9.690  0.5065 -0.0402 -0.4613
27615SOL    HW184852   4.886  10.130   9.718  0.8085 -0.7324  0.0386
27615SOL    HW284853   4.797  10.102   9.599  0.1350  1.5281 -0.0188
27616SOL     OW84854   9.072   2.883   9.721  0.5406  0.3953  0.0616
27616SOL    HW184855   9.055   2.843   9.636 -1.0835  1.7630 -0.3192
27616SOL    HW284856   9.144   2.832   9.758  1.0737 -0.4421 -1.9797
27617SOL     OW84857  10.365   8.662   3.928 -0.2600  0.6430  0.0717
27617SOL    HW184858  10.338   8.669   3.836  0.5361 -1.5493 -0.3829
27617SOL    HW284859  10.420   8.584   3.931  0.2795  1.0426  2.3103
27618SOL     OW84860   5.307   8.314   3.780 -0.0344  0.3265  0.4972
27618SOL    HW184861   5.295   8.223   3.753 -0.4170  0.4766  0.1348
27618SOL    HW284862   5.382   8.313   3.838  0.0053 -0.2122  0.4386
27619SOL     OW84863   6.210   6.332   5.702  0.1863  0.1804 -0.1173
27619SOL    HW184864   6.184   6.291   5.784  1.3974  1.1904  0.8159
27619SOL    HW284865   6.130   6.337   5.651 -0.8183  0.4645  1.4284
27620SOL     OW84866   1.194   6.350   5.971 -0.1896 -0.3736 -0.4090
27620SOL    HW184867   1.189   6.404   6.050 -0.2168  0.1904 -0.7882
27620SOL    HW284868   1.129   6.282   5.984 -2.3287  1.4089 -1.1919
27621SOL     OW84869   9.759   0.943  10.205 -0.1250 -1.3350 -0.0926
27621SOL    HW184870   9.699   0.871  10.186  0.5457 -1.5233 -1.6290
27621SOL    HW284871   9.829   0.904  10.256 -0.5188 -1.4396  0.3741
27622SOL     OW84872   2.678  11.019   3.564  0.7095  0.3171 -0.0488
27622SOL    HW184873   2.768  10.986   3.554 -0.1395 -1.9929 -0.9839
27622SOL    HW284874   2.629  10.972   3.496 -1.1627  1.7404  0.2574
27623SOL     OW84875   5.435   7.175   6.373 -0.1836 -0.1728  0.0606
27623SOL    HW184876   5.431   7.243   6.305 -0.4518 -0.0988  0.1476
27623SOL    HW284877   5.358   7.192   6.427  0.9250  0.8384  1.4002
27624SOL     OW84878   6.858   9.549   8.965  0.4508 -0.1900  0.5455
27624SOL    HW184879   6.888   9.629   8.922 -1.0805 -0.2379 -0.6734
27624SOL    HW284880   6.897   9.478   8.913  0.5281 -0.2424  0.6756
27625SOL     OW84881   8.142   4.313   6.237 -1.0084 -0.3442 -0.1103
27625SOL    HW184882   8.184   4.367   6.170  0.1735 -1.2372 -0.1123
27625SOL    HW284883   8.108   4.238   6.189 -2.2486  0.1268 -0.0343
27626SOL     OW84884   8.929   0.070   4.903 -0.2924  1.1708  0.7352
27626SOL    HW184885   8.933  -0.025   4.911 -1.2143  0.9454 -1.0555
27626SOL    HW284886   9.020   0.097   4.890 -0.1819  0.3828 -0.1718
27627SOL     OW84887   8.984   1.434   2.806 -0.2153 -0.4344  1.0144
27627SOL    HW184888   8.966   1.347   2.772  0.7163 -0.6722  1.0951
27627SOL    HW284889   9.027   1.480   2.734 -0.5347 -0.0956  1.0334
27628SOL     OW84890   1.082   5.478   7.818 -0.1617 -0.2773 -0.2485
27628SOL    HW184891   1.153   5.521   7.772 -1.2657  0.1600 -1.6186
27628SOL    HW284892   1.124   5.410   7.870  1.0421 -1.6888 -2.9244
27629SOL     OW84893   1.709   1.088   5.132 -0.1733 -0.4088  0.3203
27629SOL    HW184894   1.677   1.178   5.125  1.1736 -0.0464 -2.1840
27629SOL    HW284895   1.629   1.036   5.144 -1.0184  1.0373  1.2965
27630SOL     OW84896  10.652   8.473   5.528  0.6297  0.5415 -0.7001
27630SOL    HW184897  10.707   8.399   5.500 -0.5946 -1.1593  1.0904
27630SOL    HW284898  10.696   8.508   5.605  1.2127  1.7235 -1.5551
27631SOL     OW84899   8.568  10.819   5.314 -0.2059 -0.4616  0.2694
27631SOL    HW184900   8.563  10.864   5.230  0.5474  0.9281  0.9350
27631SOL    HW284901   8.548  10.887   5.379  2.0933 -0.7483  1.3824
27632SOL     OW84902   4.796   0.788   9.790 -0.8191  0.2573 -0.4065
27632SOL    HW184903   4.720   0.770   9.846 -0.2620 -0.4323  0.1614
27632SOL    HW284904   4.857   0.717   9.810  0.2897  1.2140 -0.2763
27633SOL     OW84905   2.233   3.969   2.734  0.0728  0.3445 -0.0630
27633SOL    HW184906   2.258   4.025   2.808  2.3905  0.1562 -0.6029
27633SOL    HW284907   2.285   3.889   2.747 -1.6106 -0.8577 -0.4297
27634SOL     OW84908   9.522   1.427   8.057 -0.3543 -0.5290  0.5543
27634SOL    HW184909   9.570   1.401   8.136  2.3059  0.6869 -0.5598
27634SOL    HW284910   9.434   1.391   8.070 -0.1250 -0.1565  4.1798
27635SOL     OW84911   6.786   9.398   5.697  0.0667  0.0358  0.3399
27635SOL    HW184912   6.829   9.459   5.757  1.3140  1.8095 -2.1956
27635SOL    HW284913   6.738   9.454   5.636  0.4403 -1.5578 -1.4984
27636SOL     OW84914  10.193  10.328   8.882 -0.2794 -0.4403  0.6418
27636SOL    HW184915  10.262  10.312   8.947  1.1576  2.5215  0.0349
27636SOL    HW284916  10.238  10.323   8.798 -0.9705  0.7256  0.1826
27637SOL     OW84917   1.844  10.197   3.679  0.1587  0.3185 -0.2786
27637SOL    HW184918   1.888  10.196   3.594  0.1375  1.7289 -0.3272
27637SOL    HW284919   1.909  10.160   3.739  0.7254  0.6434 -0.6700
27638SOL     OW84920   9.000   2.012  10.180  0.2586 -0.1119 -0.5614
27638SOL    HW184921   8.990   2.080  10.112  0.5968 -1.6930 -2.2856
27638SOL    HW284922   8.957   1.935  10.143  0.7766 -1.1457  0.8874
27639SOL     OW84923   2.490   6.620   8.539 -0.0104  0.1647  0.4945
27639SOL    HW184924   2.490   6.586   8.628  2.0168  1.6653  1.1418
27639SOL    HW284925   2.533   6.705   8.546 -0.3983  0.6118 -1.8218
27640SOL     OW84926   2.592   9.899   6.562 -0.1139  0.3285 -0.8649
27640SOL    HW184927   2.542   9.827   6.601  1.2677 -0.1203  0.1498
27640SOL    HW284928   2.615   9.868   6.475  1.3968 -0.9510 -0.0490
27641SOL     OW84929   6.434   6.931   3.347 -0.0722 -0.2197 -0.3291
27641SOL    HW184930   6.432   6.963   3.437  0.6301 -0.1394 -0.3356
27641SOL    HW284931   6.519   6.890   3.338 -0.4663 -0.9661 -0.7172
27642SOL     OW84932   1.334   9.460  10.122 -0.0243  0.5387 -0.0365
27642SOL    HW184933   1.270   9.499  10.063 -0.4197  2.5491  1.5705
27642SOL    HW284934   1.417   9.501  10.098  0.0749  0.2915 -0.1146
27643SOL     OW84935   9.017   7.500   4.828  0.1091 -0.6488  0.1424
27643SOL    HW184936   9.026   7.583   4.781 -1.5582 -0.7932 -0.4972
27643SOL    HW284937   9.046   7.434   4.765  1.5308 -0.5719  0.6859
27644SOL     OW84938   8.745   8.594   7.337 -0.3239 -0.3026  0.3943
27644SOL    HW184939   8.750   8.503   7.365  1.2348 -0.0897  0.8999
27644SOL    HW284940   8.652   8.616   7.343 -0.4475 -1.1560  2.5598
27645SOL     OW84941   8.247   8.384   6.668 -0.2827 -0.5390 -0.1807
27645SOL    HW184942   8.160   8.400   6.706  0.3344 -0.3447  1.1957
27645SOL    HW284943   8.295   8.465   6.682  0.4339 -0.9748 -0.0504
27646SOL     OW84944  10.567  11.085   9.493  0.4737  0.2784 -0.1083
27646SOL    HW184945  10.485  11.039   9.515  0.1953  1.0429  0.5004
27646SOL    HW284946  10.549  11.177   9.512  1.5969  0.4120  0.3849
27647SOL     OW84947   8.952   0.317   3.241 -0.5531 -0.2706 -0.0638
27647SOL    HW184948   8.879   0.256   3.257 -1.4731  1.3002  2.2488
27647SOL    HW284949   9.008   0.308   3.318 -0.6402  1.6516  0.2702
27648SOL     OW84950   8.345   9.699   6.086 -0.3375  0.3909 -0.9963
27648SOL    HW184951   8.392   9.667   6.009  0.4798 -1.9992  0.4053
27648SOL    HW284952   8.382   9.787   6.101  0.5903  0.2803 -2.4127
27649SOL     OW84953  10.284   9.050   0.892 -0.5502 -0.3237 -0.6012
27649SOL    HW184954  10.206   9.090   0.931 -0.3615 -0.7724  0.2696
27649SOL    HW284955  10.280   9.075   0.800 -1.0834  0.6577 -0.3291
27650SOL     OW84956   0.358   1.557   3.681 -0.0727  0.1668 -0.6925
27650SOL    HW184957   0.399   1.544   3.767 -0.0316  1.8024 -0.4370
27650SOL    HW284958   0.375   1.649   3.661 -4.8629  1.4785  0.1043
27651SOL     OW84959   6.642   5.716   3.765 -0.0123  0.0871 -0.2028
27651SOL    HW184960   6.638   5.721   3.860 -0.9003  0.4780 -0.2419
27651SOL    HW284961   6.699   5.641   3.746  1.4691  0.9690  0.6123
27652SOL     OW84962  10.514   8.038   0.370 -0.1515 -0.0188 -0.0033
27652SOL    HW184963  10.550   8.107   0.314  1.6416 -0.9639 -0.0803
27652SOL    HW284964  10.515   8.076   0.458  0.6383  0.1583 -0.0764
27653SOL     OW84965   8.233  10.682   6.242  0.2109 -0.4748 -0.1603
27653SOL    HW184966   8.217  10.701   6.335 -1.4148 -0.0786 -0.4935
27653SOL    HW284967   8.239  10.587   6.237 -1.0528 -0.5799  0.1655
27654SOL     OW84968   0.712   4.107   4.061 -0.2103  0.1944 -0.3043
27654SOL    HW184969   0.748   4.078   4.145  1.5453  0.9123 -0.7690
27654SOL    HW284970   0.772   4.070   3.996 -2.5707 -1.9477 -1.4334
27655SOL     OW84971   5.428   7.728  10.173 -0.4534  0.7858  0.0859
27655SOL    HW184972   5.397   7.665  10.237  0.3196 -0.7287 -0.9739
27655SOL    HW284973   5.484   7.788  10.222 -0.6246  0.2219  0.9768
27656SOL     OW84974   4.789  10.023   7.896  0.1476 -0.2998  0.0996
27656SOL    HW184975   4.809  10.106   7.854 -0.3141 -0.2672 -0.0617
27656SOL    HW284976   4.695  10.011   7.882  0.2499 -0.9566 -0.0764
27657SOL     OW84977  10.232   9.323   8.136 -0.1650 -0.0387  0.0426
27657SOL    HW184978  10.232   9.411   8.175 -1.9139  0.1182 -0.2261
27657SOL    HW284979  10.259   9.336   8.045 -1.4737  0.3960 -0.2981
27658SOL     OW84980   5.142   1.361   4.598  0.1936  0.1564 -0.2867
27658SOL    HW184981   5.111   1.392   4.513 -0.4532  0.6535  0.1244
27658SOL    HW284982   5.237   1.368   4.593  0.1946 -0.3956 -1.1887
27659SOL     OW84983   4.546   9.738   6.394 -0.5946 -0.0489 -0.4332
27659SOL    HW184984   4.562   9.752   6.487  1.2722 -0.0732 -0.7025
27659SOL    HW284985   4.519   9.647   6.388  2.0050 -0.9481 -0.1113
27660SOL     OW84986   8.207   6.912  10.024 -0.5182 -0.3076 -0.1788
27660SOL    HW184987   8.222   6.991  10.075  0.1844  0.1201 -1.0122
27660SOL    HW284988   8.113   6.913  10.006 -0.6484 -0.0852  0.4881
27661SOL     OW84989   9.539   7.944   7.806  0.0021  0.0853 -0.0150
27661SOL    HW184990   9.494   7.867   7.773  0.0407 -0.3074  0.8130
27661SOL    HW284991   9.632   7.926   7.792  0.0738 -0.4433  0.9996
27662SOL     OW84992   7.238   1.713   7.621 -0.2223 -0.2535  0.1891
27662SOL    HW184993   7.208   1.623   7.636 -1.8714  0.2650  0.2694
27662SOL    HW284994   7.297   1.706   7.546  0.4133 -1.5122  0.7640
27663SOL     OW84995   4.219   6.012   4.134  0.2065 -0.7473  0.5255
27663SOL    HW184996   4.173   6.036   4.053  1.4782  0.3606  0.0824
27663SOL    HW284997   4.163   6.045   4.204 -1.2507 -2.3239  0.1688
27664SOL     OW84998   9.397   2.419   7.389 -0.4963 -0.0610  0.6319
27664SOL    HW184999   9.329   2.370   7.435  1.8971 -2.9914  1.3413
27664SOL    HW285000   9.455   2.450   7.459 -0.4527  1.4632 -0.0355
27665SOL     OW85001   4.282  10.891   8.417  0.3152 -0.3826 -0.0003
27665SOL    HW185002   4.284  10.838   8.496 -1.4566 -0.8590 -0.2406
27665SOL    HW285003   4.328  10.972   8.441 -1.8145  0.2976  2.1428
27666SOL     OW85004   2.354   9.531   5.445  0.5459  0.3550 -0.5415
27666SOL    HW185005   2.395   9.550   5.530 -0.3002 -1.6621  0.3821
27666SOL    HW285006   2.353   9.436   5.439 -1.4005  0.3872 -1.8192
27667SOL     OW85007   5.297   0.593  10.572  0.6775 -0.3917  0.1918
27667SOL    HW185008   5.390   0.612  10.558  1.0666 -0.1196  2.6942
27667SOL    HW285009   5.254   0.679  10.562  0.7364 -0.4444 -0.5592
27668SOL     OW85010   5.239   3.396   9.021 -0.0592 -0.2474  0.0502
27668SOL    HW185011   5.239   3.439   8.935 -1.2985  1.2507  0.7396
27668SOL    HW285012   5.216   3.305   9.003  2.0362 -0.5496 -1.4127
27669SOL     OW85013   2.797   8.757   0.922  0.2773 -0.1562 -0.2795
27669SOL    HW185014   2.709   8.763   0.886 -0.1438 -0.9626  0.5629
27669SOL    HW285015   2.813   8.662   0.930  0.7568 -0.0049  0.6644
27670SOL     OW85016   5.773   1.669   9.257  0.0226  0.1180 -0.5359
27670SOL    HW185017   5.751   1.599   9.319  0.8861 -0.5563 -0.9543
27670SOL    HW285018   5.773   1.749   9.309 -1.1761 -0.1566 -0.0832
27671SOL     OW85019   5.642   6.792   8.779  0.2065 -0.1844  0.1915
27671SOL    HW185020   5.623   6.865   8.720 -0.4519 -0.5031  0.0001
27671SOL    HW285021   5.611   6.714   8.732  0.3928 -0.5272  0.6245
27672SOL     OW85022   0.776   5.293   6.907 -0.1542  0.3402  0.3757
27672SOL    HW185023   0.833   5.369   6.893  0.2066  0.0784  0.3934
27672SOL    HW285024   0.751   5.298   6.999 -0.0557  0.3873  0.3999
27673SOL     OW85025   8.909   6.849   7.929 -0.3812  0.1353  0.2139
27673SOL    HW185026   8.864   6.908   7.869  0.5920  0.3352 -0.3345
27673SOL    HW285027   8.891   6.885   8.016  2.1627  2.7305 -0.1893
27674SOL     OW85028  10.519   8.735   7.483  0.3274 -0.0690 -0.1618
27674SOL    HW185029  10.443   8.786   7.457  0.0540 -0.2490  0.2717
27674SOL    HW285030  10.577   8.798   7.525 -0.2172 -0.1955  0.8007
27675SOL     OW85031   6.928   7.358   9.201  0.4094 -0.2307  0.0609
27675SOL    HW185032   6.857   7.412   9.236  0.1835 -0.7424  0.3997
27675SOL    HW285033   6.994   7.358   9.270  0.4035 -0.4034  0.0650
27676SOL     OW85034   5.186   6.617   9.344  0.7173 -0.3577  0.0498
27676SOL    HW185035   5.152   6.667   9.418 -0.8779 -2.6439  0.9877
27676SOL    HW285036   5.108   6.596   9.291  1.3329 -1.6220 -0.4081
27677SOL     OW85037  10.630   8.932   6.280  0.2143  0.8358 -0.2985
27677SOL    HW185038  10.622   9.010   6.335  0.9132 -0.6411  2.0850
27677SOL    HW285039  10.557   8.938   6.219  0.4657  3.5099 -0.4585
27678SOL     OW85040   4.200   8.521   0.789 -0.4030  0.0954 -0.2500
27678SOL    HW185041   4.191   8.552   0.880  0.3945  0.0258 -0.1459
27678SOL    HW285042   4.162   8.592   0.737 -0.3699  0.3817  0.1053
27679SOL     OW85043   1.968   1.222   1.462  0.1806  0.1172  0.2312
27679SOL    HW185044   1.881   1.221   1.502  0.5094 -1.0230  0.9545
27679SOL    HW285045   1.964   1.293   1.398 -1.2357  0.1607  0.3410
27680SOL     OW85046   3.395   0.311   1.680 -0.3738 -0.5319 -0.6660
27680SOL    HW185047   3.392   0.405   1.696 -1.4478 -1.0774  3.2078
27680SOL    HW285048   3.310   0.278   1.710  1.4736 -3.1697  2.2983
27681SOL     OW85049   3.708   6.654   9.543  0.0044  0.0946 -0.1976
27681SOL    HW185050   3.636   6.668   9.482 -0.3626  0.7077  0.3731
27681SOL    HW285051   3.704   6.728   9.603  0.4037 -0.4597  0.5323
27682SOL     OW85052   8.973  10.678  10.297 -0.5071  0.4699 -0.8426
27682SOL    HW185053   9.059  10.644  10.322 -0.2244  0.2787 -2.0320
27682SOL    HW285054   8.911  10.622  10.343 -0.0256  1.2472  0.8584
27683SOL     OW85055  11.066  10.722   2.302 -0.2978  0.1221  0.3686
27683SOL    HW185056  11.140  10.753   2.249 -0.4400  1.0335  0.6845
27683SOL    HW285057  11.004  10.687   2.238 -0.2132  0.6720 -0.0227
27684SOL     OW85058   9.304   6.527   7.133  0.8285 -0.1833  0.3618
27684SOL    HW185059   9.288   6.468   7.059  2.3110 -1.0642  0.7072
27684SOL    HW285060   9.218   6.536   7.174  0.0627 -0.0256 -1.1914
27685SOL     OW85061   5.349   0.820   0.811  0.1053 -0.1384 -0.4442
27685SOL    HW185062   5.294   0.868   0.873  2.2178  1.0809  0.5967
27685SOL    HW285063   5.365   0.736   0.854  1.6241  0.7281  0.8127
27686SOL     OW85064   1.354   1.986  10.635 -0.2900 -0.7803 -0.2352
27686SOL    HW185065   1.274   1.970  10.683 -0.6461 -1.0428 -0.8976
27686SOL    HW285066   1.336   1.953  10.547  0.0468  0.4282 -0.7813
27687SOL     OW85067   7.704   0.346   9.241  0.4009  0.4602 -0.5729
27687SOL    HW185068   7.692   0.281   9.172  1.0060 -0.2368 -0.0483
27687SOL    HW285069   7.623   0.396   9.242  1.0484  1.7220 -3.0309
27688SOL     OW85070   6.279   1.013   6.292  0.1274  0.2485 -0.3128
27688SOL    HW185071   6.211   1.005   6.225  0.3763  1.3640 -0.7168
27688SOL    HW285072   6.360   1.030   6.243  0.2274  1.5835  0.2719
27689SOL     OW85073   5.747   7.310   0.525 -0.1535  0.3377 -0.2144
27689SOL    HW185074   5.672   7.351   0.482 -0.3579 -0.6679 -0.8196
27689SOL    HW285075   5.715   7.288   0.613  0.0566  1.7445  0.2432
27690SOL     OW85076   6.491   6.659   8.249 -0.6296 -0.0184  0.0670
27690SOL    HW185077   6.497   6.566   8.272  0.7115 -0.1751 -0.8239
27690SOL    HW285078   6.576   6.695   8.273 -0.2063  0.4257 -1.9262
27691SOL     OW85079   7.090   8.230   1.790 -0.3965 -0.0466 -0.3166
27691SOL    HW185080   7.172   8.268   1.821 -0.9248  1.0997 -0.2954
27691SOL    HW285081   7.104   8.135   1.798  0.7162  0.1406  0.2130
27692SOL     OW85082   7.295  10.230   7.237 -0.5420  0.1067  0.1987
27692SOL    HW185083   7.260  10.245   7.149 -1.0451 -2.2093 -0.0532
27692SOL    HW285084   7.362  10.163   7.225 -0.5350 -0.1556  1.5704
27693SOL     OW85085   3.572   5.275  10.089 -0.6414 -0.4413 -0.4171
27693SOL    HW185086   3.589   5.368  10.102 -0.4472 -0.7422  2.0841
27693SOL    HW285087   3.630   5.232  10.152 -1.3509 -2.2156 -0.9305
27694SOL     OW85088   6.528   7.440  10.028  0.6598 -0.3210 -0.0394
27694SOL    HW185089   6.489   7.482  10.105  0.0903 -0.7919 -0.0639
27694SOL    HW285090   6.477   7.475   9.954  2.0199  1.1243 -0.3648
27695SOL     OW85091   5.858   6.521  10.872  0.3283 -0.1090  0.1363
27695SOL    HW185092   5.809   6.472  10.939  0.8088 -0.9942 -0.1464
27695SOL    HW285093   5.844   6.613  10.895 -0.4344 -0.3762  0.7935
27696SOL     OW85094   0.156   0.175   3.479  0.0661 -0.4715  0.4034
27696SOL    HW185095   0.238   0.150   3.522  0.0655 -1.8500 -0.3676
27696SOL    HW285096   0.177   0.258   3.436  1.5236 -1.5086 -1.0052
27697SOL     OW85097   1.114   6.018   7.673  0.5174  0.5077 -0.2449
27697SOL    HW185098   1.032   6.001   7.626  0.7830 -0.5783 -0.3311
27697SOL    HW285099   1.162   6.077   7.615  0.6871 -0.5311 -1.1889
27698SOL     OW85100   9.880   4.866   4.796 -0.4088  0.5982  0.6699
27698SOL    HW185101   9.899   4.801   4.864  1.5758 -1.0869 -1.3583
27698SOL    HW285102   9.957   4.924   4.796 -0.2015  0.3333 -0.3919
27699SOL     OW85103   8.435   2.408   3.124  0.2765 -0.3241 -0.9373
27699SOL    HW185104   8.472   2.334   3.171 -1.0760 -1.1739 -1.1796
27699SOL    HW285105   8.379   2.452   3.189 -0.3536 -0.5842 -1.2966
27700SOL     OW85106   8.716   7.913   3.957  0.4195 -0.0261 -0.0813
27700SOL    HW185107   8.806   7.924   3.989  1.9374 -3.3093 -2.6373
27700SOL    HW285108   8.670   7.870   4.029  1.7838 -1.0374  0.2317
27701SOL     OW85109   4.249   1.788   0.626  0.5176 -0.3063  0.4936
27701SOL    HW185110   4.241   1.808   0.719 -2.8301 -0.6271  0.4006
27701SOL    HW285111   4.264   1.873   0.585 -0.6359  0.2502  1.1657
27702SOL     OW85112  11.088   8.037   2.441 -0.6312 -0.4599  0.3855
27702SOL    HW185113  11.050   8.121   2.468  0.7110  0.6904 -1.1129
27702SOL    HW285114  11.160   8.023   2.502  0.3623  0.5010 -0.5218
27703SOL     OW85115  10.870   9.983   1.964  0.3214 -0.4389  0.0288
27703SOL    HW185116  10.929   9.936   2.024 -0.0583 -0.6965  0.2057
27703SOL    HW285117  10.845  10.062   2.013  1.7979  0.5158 -0.6773
27704SOL     OW85118   7.787   9.329   4.268  0.1572 -0.0895  0.3567
27704SOL    HW185119   7.706   9.381   4.276 -0.0711 -0.3782 -0.0437
27704SOL    HW285120   7.785   9.270   4.343 -0.0525 -0.1597  0.2978
27705SOL     OW85121   7.272   4.734   7.514  0.3448 -0.1218 -0.1414
27705SOL    HW185122   7.202   4.779   7.561 -0.6579 -0.4640 -1.2276
27705SOL    HW285123   7.290   4.791   7.439  0.9735 -0.2243 -0.0715
27706SOL     OW85124   0.181   7.591   6.746 -0.3942  0.0073 -0.3297
27706SOL    HW185125   0.146   7.676   6.774 -1.1027 -0.3500 -0.0934
27706SOL    HW285126   0.253   7.573   6.806  0.7342  1.1051 -1.2828
27707SOL     OW85127   6.112   3.420   1.551  0.0677 -0.1099  0.1557
27707SOL    HW185128   6.186   3.411   1.492 -0.8037 -0.1965 -0.9500
27707SOL    HW285129   6.100   3.515   1.561 -0.3114 -0.0814 -0.5066
27708SOL     OW85130   1.151   3.558   7.828  0.4278 -0.5106 -0.0222
27708SOL    HW185131   1.130   3.638   7.779  0.5401 -1.6021 -1.9902
27708SOL    HW285132   1.242   3.539   7.804  0.0415 -1.8295 -0.5640
27709SOL     OW85133   6.719   2.925   0.137 -0.4389  0.1660  0.4811
27709SOL    HW185134   6.757   2.891   0.056 -0.0225 -1.0852  1.1723
27709SOL    HW285135   6.722   3.020   0.127  0.2140  0.0418 -0.6950
27710SOL     OW85136   5.143   6.814   1.702 -0.3650 -0.2670  0.7972
27710SOL    HW185137   5.147   6.901   1.662  2.1419 -0.5375  0.3070
27710SOL    HW285138   5.217   6.811   1.761 -0.2247 -2.1773  0.5890
27711SOL     OW85139   6.699   5.131   2.640 -0.3837  0.3949  0.1717
27711SOL    HW185140   6.650   5.049   2.650 -1.8410  1.1342 -0.6123
27711SOL    HW285141   6.752   5.137   2.719 -0.4955 -1.1299  0.3999
27712SOL     OW85142   4.343   8.313   3.606  0.4535 -0.7175  0.5421
27712SOL    HW185143   4.254   8.332   3.576 -0.0349 -2.0157  1.0790
27712SOL    HW285144   4.400   8.347   3.537 -0.4486  0.2384  0.2505
27713SOL     OW85145   9.591   0.939   0.988 -0.5081 -0.0956 -0.2728
27713SOL    HW185146   9.557   0.891   0.912 -1.5816 -0.1675  0.2354
27713SOL    HW285147   9.636   0.873   1.040  0.5551  0.0209 -1.0084
27714SOL     OW85148   6.481   8.062   6.213  0.3857 -0.4214 -0.2618
27714SOL    HW185149   6.474   7.967   6.208 -2.4860 -0.3692  1.0010
27714SOL    HW285150   6.491   8.080   6.307 -2.4574  0.5852 -0.0718
27715SOL     OW85151   4.360   5.399   9.161 -0.1902 -0.1798  0.0728
27715SOL    HW185152   4.337   5.313   9.197  3.4172 -1.6200 -0.6351
27715SOL    HW285153   4.424   5.435   9.223  1.1754  0.2352 -1.5015
27716SOL     OW85154   7.534   8.004   6.056 -0.6189 -0.5540  0.5543
27716SOL    HW185155   7.628   8.013   6.039 -0.3450 -0.2817  2.0677
27716SOL    HW285156   7.492   8.045   5.981  0.4691 -0.7177 -0.1654
27717SOL     OW85157   0.868   9.361   4.788 -0.1909 -0.1208 -0.1865
27717SOL    HW185158   0.940   9.315   4.746 -0.3566 -2.3327  1.7618
27717SOL    HW285159   0.821   9.293   4.837 -1.1675  1.9346  1.9223
27718SOL     OW85160   4.374   7.215   6.138 -0.0308  0.4186  0.1844
27718SOL    HW185161   4.305   7.153   6.161 -0.2545  0.1022 -1.2529
27718SOL    HW285162   4.453   7.180   6.180 -0.0225 -1.2041 -1.1098
27719SOL     OW85163   2.956   4.952   4.612 -0.3778 -0.5171  0.0420
27719SOL    HW185164   2.871   4.955   4.658 -0.9236 -0.5155 -0.9481
27719SOL    HW285165   2.996   5.037   4.631 -0.3404 -0.7349  0.9828
27720SOL     OW85166   1.880   7.901   9.677 -0.7951 -0.4211 -0.1587
27720SOL    HW185167   1.926   7.899   9.761  1.1253  3.6075 -0.9081
27720SOL    HW285168   1.805   7.958   9.692 -1.3638 -0.9722 -0.8294
27721SOL     OW85169   8.508   4.715  10.402  0.1798 -0.4305 -0.1796
27721SOL    HW185170   8.547   4.722  10.489 -0.7639  0.1357  0.2142
27721SOL    HW285171   8.522   4.624  10.377  1.4196 -0.3364  0.0906
27722SOL     OW85172  10.284   9.430   0.355 -0.4086 -0.1100 -0.4081
27722SOL    HW185173  10.346   9.407   0.425  0.3836  0.8257 -0.7820
27722SOL    HW285174  10.258   9.345   0.318  0.0486 -0.5606  0.2625
27723SOL     OW85175   8.986   3.150   8.959  0.6243  0.0546 -0.0060
27723SOL    HW185176   8.988   3.058   8.932  0.1751  0.0993 -0.2065
27723SOL    HW285177   9.060   3.190   8.912  1.5154 -0.4276  0.9551
27724SOL     OW85178   7.051   7.816   2.249 -0.2372 -0.1726 -0.3737
27724SOL    HW185179   7.119   7.749   2.240 -0.8735 -0.6256 -2.1293
27724SOL    HW285180   6.975   7.769   2.281 -0.7598 -0.3646 -1.8486
27725SOL     OW85181   3.148   4.372   4.492  0.1009 -0.1696 -0.2224
27725SOL    HW185182   3.202   4.303   4.530 -0.7715 -0.6732  0.1263
27725SOL    HW285183   3.151   4.356   4.398  1.4110  0.4482 -0.3026
27726SOL     OW85184   6.295   0.953   5.895 -0.2951  0.0694  0.1575
27726SOL    HW185185   6.257   1.005   5.824  1.2495  0.0157 -0.7540
27726SOL    HW285186   6.328   1.018   5.958 -2.1855  0.1167  1.1771
27727SOL     OW85187   9.708  10.698  10.712  0.2579 -0.2492 -0.2071
27727SOL    HW185188   9.800  10.726  10.712  0.5865 -1.2740 -0.6737
27727SOL    HW285189   9.688  10.682  10.804  0.2253  0.9528  0.0083
27728SOL     OW85190  10.855   8.595   8.737  0.2787  0.3107  0.2080
27728SOL    HW185191  10.916   8.586   8.663 -1.8285 -0.5605 -1.5426
27728SOL    HW285192  10.821   8.684   8.728  1.2022  0.7818  1.1594
27729SOL     OW85193   7.928   9.525   6.929 -0.6504  0.1713  0.2028
27729SOL    HW185194   8.014   9.502   6.965 -0.4664 -0.9282 -0.8748
27729SOL    HW285195   7.872   9.450   6.949 -0.7850 -0.0572 -0.9562
27730SOL     OW85196   1.848   7.294  10.081 -0.1033  0.2676  0.3160
27730SOL    HW185197   1.821   7.265   9.994 -1.8512  0.2301  0.8470
27730SOL    HW285198   1.940   7.267  10.087 -0.0544 -0.0816 -1.3474
27731SOL     OW85199  10.916   0.208   6.900 -0.1355 -0.1878 -0.2584
27731SOL    HW185200  10.953   0.266   6.833  0.2802  1.1515  1.0822
27731SOL    HW285201  10.830   0.246   6.918 -0.9817 -1.5567 -1.2261
27732SOL     OW85202   3.760   7.462   7.645  0.2953  0.6335 -0.3401
27732SOL    HW185203   3.785   7.471   7.554 -0.3689  0.0167 -0.5919
27732SOL    HW285204   3.702   7.386   7.647  1.3807 -0.2064  0.8202
27733SOL     OW85205   6.874   9.602   0.972  0.3005  0.2042  0.0752
27733SOL    HW185206   6.807   9.670   0.979 -0.1185 -0.2128  0.1916
27733SOL    HW285207   6.891   9.576   1.063  2.7556  2.3190  0.3469
27734SOL     OW85208  11.035   7.893   7.229  0.0020 -0.0573 -0.2994
27734SOL    HW185209  10.955   7.916   7.277  0.2084  2.8786 -1.1727
27734SOL    HW285210  11.106   7.927   7.283  0.6280 -1.5900 -0.1124
27735SOL     OW85211   2.027  10.066   5.736  0.0384  0.6947 -0.0135
27735SOL    HW185212   2.067  10.115   5.664 -0.4183  0.6327 -0.3112
27735SOL    HW285213   1.944  10.034   5.700  0.0819  0.1660  0.3564
27736SOL     OW85214   5.610  11.039   2.712 -0.5248 -0.7797 -0.3646
27736SOL    HW185215   5.601  11.031   2.617 -0.8135 -3.2577 -0.1824
27736SOL    HW285216   5.693  11.086   2.724 -0.8919  0.3138 -1.8089
27737SOL     OW85217   9.065   8.002   0.763  0.7065  0.4103 -0.1115
27737SOL    HW185218   9.052   7.909   0.741 -0.5627  0.3595  0.7549
27737SOL    HW285219   9.131   8.001   0.832  1.4060  0.2370 -0.7682
27738SOL     OW85220   8.315   1.000   3.896  0.3546  0.1991 -0.1350
27738SOL    HW185221   8.362   1.010   3.979 -0.1221  1.3970  0.0172
27738SOL    HW285222   8.344   0.916   3.861 -2.0644 -2.1751  2.9435
27739SOL     OW85223   1.698   8.332   7.890  0.0168  0.0463  0.6114
27739SOL    HW185224   1.725   8.362   7.977  0.3760 -0.0363  0.5275
27739SOL    HW285225   1.731   8.243   7.884  2.3310  0.9027 -0.6165
27740SOL     OW85226   7.194   3.474   3.511  0.1843 -0.1318  0.0498
27740SOL    HW185227   7.279   3.474   3.555  0.0183 -0.9074  0.4033
27740SOL    HW285228   7.212   3.506   3.422  0.7481  0.2173  0.2883
27741SOL     OW85229   1.391  10.067   8.347 -0.3623 -0.0414  0.1446
27741SOL    HW185230   1.438  10.011   8.409  1.2503  1.0111 -0.0703
27741SOL    HW285231   1.301  10.037   8.351  0.2839 -2.0256  0.7173
27742SOL     OW85232   5.565   9.187   0.825 -0.2645 -0.0509 -0.1179
27742SOL    HW185233   5.476   9.223   0.817 -0.3416 -0.1886  0.1333
27742SOL    HW285234   5.594   9.175   0.734 -0.6845 -0.4545 -0.2003
27743SOL     OW85235   5.492   8.488   9.283  0.0327 -0.2636  0.3249
27743SOL    HW185236   5.431   8.555   9.314  1.7540  1.4540  0.2116
27743SOL    HW285237   5.490   8.420   9.350 -1.0116  0.3813  0.9693
27744SOL     OW85238   6.726   2.865   8.768  0.1193  0.0988  0.3153
27744SOL    HW185239   6.787   2.898   8.703  0.8350 -0.0083  0.9151
27744SOL    HW285240   6.690   2.785   8.729  1.0495 -0.3375  0.3106
27745SOL     OW85241   8.347   2.781   0.303 -0.2760  0.4555 -0.0031
27745SOL    HW185242   8.252   2.774   0.297 -0.4497  1.5437  1.1217
27745SOL    HW285243   8.363   2.833   0.381  1.2517  0.4466 -0.2670
27746SOL     OW85244   7.105   8.358   0.186  0.0183 -0.2122 -0.2746
27746SOL    HW185245   7.046   8.412   0.133  0.4348  0.6990  0.1543
27746SOL    HW285246   7.049   8.320   0.253 -0.3292 -0.5402 -0.7448
27747SOL     OW85247   3.056  10.464   8.506  1.2175 -0.5065  0.4758
27747SOL    HW185248   2.965  10.489   8.490  0.5902 -2.5459  0.5535
27747SOL    HW285249   3.090  10.443   8.419  0.6220 -2.7470  0.7392
27748SOL     OW85250   6.066   8.205   9.957  0.0148 -0.5344  0.2128
27748SOL    HW185251   6.001   8.183  10.024  1.5619  0.0854  2.0097
27748SOL    HW285252   6.054   8.299   9.942 -0.5074 -0.7224 -0.6233
27749SOL     OW85253   5.342   2.285  10.756 -0.2032  0.1132  0.3737
27749SOL    HW185254   5.351   2.366  10.707 -1.0338  0.7217  1.2022
27749SOL    HW285255   5.251   2.284  10.785  0.1391 -0.4579  1.4906
27750SOL     OW85256   0.572   3.111   5.362 -0.5100  0.1731 -0.0109
27750SOL    HW185257   0.643   3.063   5.318  1.7122  1.5244  1.8576
27750SOL    HW285258   0.542   3.174   5.297  2.0991  1.5605 -0.0060
27751SOL     OW85259   8.437   7.568   2.582 -0.1290 -0.3457  0.5737
27751SOL    HW185260   8.400   7.492   2.539  0.4033  0.0696 -0.6686
27751SOL    HW285261   8.472   7.534   2.664 -2.3725 -0.9019  1.3663
27752SOL     OW85262   7.471  10.142   9.207 -0.1579  0.1583 -0.1966
27752SOL    HW185263   7.412  10.104   9.272 -0.4497  0.4526 -0.2867
27752SOL    HW285264   7.507  10.066   9.161  1.7080 -0.1779  1.7055
27753SOL     OW85265   8.822   0.567  10.434  0.5146  0.6018  0.3569
27753SOL    HW185266   8.807   0.593  10.344  1.7451  0.4698  0.0861
27753SOL    HW285267   8.760   0.618  10.485 -0.3138  0.5461 -0.5727
27754SOL     OW85268   3.793   1.280  10.971 -0.0705  0.1810  0.0561
27754SOL    HW185269   3.718   1.339  10.957 -0.3944 -0.3746 -0.5771
27754SOL    HW285270   3.825   1.304  11.058 -1.6436 -0.2776  0.8046
27755SOL     OW85271   1.152   8.495  10.757  0.6572  0.5475  0.1223
27755SOL    HW185272   1.165   8.400  10.766  2.3794  0.8720  1.4446
27755SOL    HW285273   1.114   8.505  10.669 -1.7662 -1.5312  0.8081
27756SOL     OW85274   8.790   9.720   8.192  0.2261 -0.5473 -0.3248
27756SOL    HW185275   8.749   9.634   8.195  2.3733 -1.6927 -1.2146
27756SOL    HW285276   8.768   9.753   8.104 -0.3559 -0.3045 -0.0913
27757SOL     OW85277   4.342   0.747   6.582  0.3804 -0.5535 -0.2145
27757SOL    HW185278   4.247   0.749   6.590  0.4295  0.3688  0.3221
27757SOL    HW285279   4.365   0.833   6.549  1.0675 -0.5978  0.1321
27758SOL     OW85280   4.946   1.312  10.723 -0.8951  0.4736  0.5589
27758SOL    HW185281   4.926   1.406  10.722  0.4216  0.7744  0.1456
27758SOL    HW285282   4.960   1.292  10.816 -0.2047  0.9212  0.5596
27759SOL     OW85283   5.670   1.567   6.674  0.3126 -0.3840 -0.1180
27759SOL    HW185284   5.587   1.522   6.662 -0.7207  1.7651 -1.8682
27759SOL    HW285285   5.728   1.529   6.608  0.3730 -1.1232  0.3601
27760SOL     OW85286   4.053   8.333   7.929 -0.4318 -0.2571 -0.7015
27760SOL    HW185287   4.146   8.313   7.942 -0.2700 -0.3863 -1.9960
27760SOL    HW285288   4.015   8.250   7.901 -1.2324 -0.5551  1.1014
27761SOL     OW85289   6.776  10.944  10.708  0.6312  0.3888  0.1062
27761SOL    HW185290   6.810  11.002  10.775  0.9035 -0.3574  0.6238
27761SOL    HW285291   6.850  10.888  10.685  1.0070  1.6123 -1.9399
27762SOL     OW85292   1.198  10.665   0.273 -0.2723  0.1491  0.2407
27762SOL    HW185293   1.115  10.695   0.309 -0.9038 -0.5820 -0.5616
27762SOL    HW285294   1.182  10.574   0.249  1.0439 -0.2891  0.9231
27763SOL     OW85295   1.468   6.738   8.478  0.4319 -0.5923  0.0601
27763SOL    HW185296   1.441   6.710   8.390  0.2325  0.9987 -0.4212
27763SOL    HW285297   1.408   6.692   8.537 -2.7005  1.8588 -0.9192
27764SOL     OW85298   6.917   2.856  11.055  0.4998  0.3606 -0.0009
27764SOL    HW185299   6.987   2.862  11.120  0.9475 -0.1209 -0.4265
27764SOL    HW285300   6.934   2.928  10.995 -0.5724  1.5148  1.0197
27765SOL     OW85301  11.098   9.186  10.506 -0.4051 -0.2730 -0.2133
27765SOL    HW185302  11.054   9.270  10.518  1.4744  0.5759  1.1950
27765SOL    HW285303  11.190   9.208  10.494 -0.1841 -2.0292 -2.3687
27766SOL     OW85304   1.202   0.060   8.260 -0.3757  0.7216 -0.0039
27766SOL    HW185305   1.147   0.050   8.337  1.8261  0.8378  1.6657
27766SOL    HW285306   1.171   0.141   8.219 -1.4761  0.7340  0.8085
27767SOL     OW85307   4.277   2.898   5.644  0.0787  0.2395  0.0458
27767SOL    HW185308   4.186   2.889   5.674  0.0723 -0.9634 -0.2868
27767SOL    HW285309   4.311   2.973   5.693 -1.1515  0.8375  0.0256
27768SOL     OW85310   7.760   5.337   4.047  0.1966 -0.0088  0.3678
27768SOL    HW185311   7.784   5.245   4.056  0.7289 -0.0004 -0.7042
27768SOL    HW285312   7.825   5.384   4.099  0.8565 -0.1662 -0.2861
27769SOL     OW85313   6.200   0.625   2.255 -0.1760 -0.3281 -0.1206
27769SOL    HW185314   6.213   0.532   2.237 -0.3398 -0.9796  2.7051
27769SOL    HW285315   6.124   0.649   2.202  0.3813 -1.5495 -1.5493
27770SOL     OW85316   1.010   5.666   9.675 -0.2005 -0.0843 -0.5363
27770SOL    HW185317   0.996   5.760   9.667  2.1232  0.2150 -2.3679
27770SOL    HW285318   1.078   5.657   9.742  0.6600 -0.3073 -1.4229
27771SOL     OW85319   3.910   0.699   4.284 -0.1492 -0.4776 -0.0994
27771SOL    HW185320   3.832   0.660   4.243 -0.6160 -0.9907  1.2146
27771SOL    HW285321   3.896   0.686   4.378 -1.0129  4.0623  0.6118
27772SOL     OW85322   1.353   3.919   0.433 -0.1165  0.2931  0.2858
27772SOL    HW185323   1.271   3.967   0.441  0.2451  0.8021  1.0045
27772SOL    HW285324   1.357   3.894   0.340 -1.2438 -0.0503  0.3117
27773SOL     OW85325   4.558   1.281   1.812  0.3374  0.0003  0.0580
27773SOL    HW185326   4.497   1.235   1.754  0.6980  0.2194 -0.5113
27773SOL    HW285327   4.644   1.248   1.786  0.3963 -1.1880  1.6598
27774SOL     OW85328   0.433  10.319   8.692 -0.0406  0.5178 -0.5431
27774SOL    HW185329   0.478  10.250   8.741 -0.8399  0.4817  0.1636
27774SOL    HW285330   0.341  10.307   8.714 -0.0780  2.6883  0.7345
27775SOL     OW85331   9.368   3.753  10.684 -0.4246 -0.7456  0.0155
27775SOL    HW185332   9.412   3.819  10.738 -1.2476  0.4563 -0.7480
27775SOL    HW285333   9.385   3.671  10.730 -0.1778  0.0978  1.5172
27776SOL     OW85334   8.187   0.725   8.494  0.0114  0.0949  0.3609
27776SOL    HW185335   8.199   0.689   8.582  1.2980  1.4792  0.7845
27776SOL    HW285336   8.237   0.667   8.437  0.5677  0.1701  0.7729
27777SOL     OW85337  10.635   9.866   7.415  0.2709  0.4281 -0.5361
27777SOL    HW185338  10.651   9.918   7.494  1.8186  2.6930 -2.2390
27777SOL    HW285339  10.540   9.856   7.412  0.1843  0.0504  1.7151
27778SOL     OW85340   6.495   8.965   0.271  0.6311 -0.0947  0.2171
27778SOL    HW185341   6.573   9.012   0.241 -0.1699 -0.7416 -3.2836
27778SOL    HW285342   6.492   8.886   0.217 -2.5224 -0.0025  0.0856
27779SOL     OW85343   9.898   0.898  10.897  0.3345 -0.1342  0.4171
27779SOL    HW185344   9.883   0.827  10.833 -0.5636  0.2952  0.1369
27779SOL    HW285345   9.993   0.912  10.894  0.3217 -0.1636 -0.7917
27780SOL     OW85346   9.232   0.413   2.100 -0.0953  0.2333  0.3777
27780SOL    HW185347   9.207   0.503   2.081  2.8379  1.0612  0.0228
27780SOL    HW285348   9.240   0.371   2.014 -0.6112 -0.1454  0.5063
27781SOL     OW85349  10.215   9.126   7.290  0.1837  0.3650 -0.4558
27781SOL    HW185350  10.181   9.213   7.310  0.6504  0.4605 -0.0653
27781SOL    HW285351  10.305   9.127   7.323  0.2015 -0.2559 -0.4750
27782SOL     OW85352   7.614  10.739   7.579 -0.1880 -0.2247  0.1843
27782SOL    HW185353   7.600  10.674   7.510 -1.1546 -1.6509  1.6697
27782SOL    HW285354   7.535  10.793   7.578 -0.3828 -0.5067  0.4585
27783SOL     OW85355   1.661   2.255   1.085  0.0852  0.4621 -0.3054
27783SOL    HW185356   1.592   2.192   1.066  0.1001 -0.6416  2.7330
27783SOL    HW285357   1.617   2.327   1.130  0.6668  0.5124  0.2008
27784SOL     OW85358   5.859   0.127  10.111 -0.6353  0.2998  0.3833
27784SOL    HW185359   5.931   0.086  10.064 -1.7556 -1.0669 -0.2164
27784SOL    HW285360   5.805   0.165  10.041 -0.2961  1.7042  0.8518
27785SOL     OW85361   0.969   5.155   8.948  0.4884 -0.1253  0.1247
27785SOL    HW185362   0.952   5.230   9.005 -0.0382  0.6767 -1.0514
27785SOL    HW285363   0.893   5.098   8.959 -0.0108  0.4308 -0.3903
27786SOL     OW85364   0.887   5.863   3.808 -0.1273 -0.2257 -0.1416
27786SOL    HW185365   0.845   5.897   3.730 -2.9967 -1.3940  0.7860
27786SOL    HW285366   0.876   5.768   3.802 -1.4145 -0.2914  2.1412
27787SOL     OW85367   2.010   1.588   4.144  0.8760 -0.3039  0.0993
27787SOL    HW185368   1.955   1.657   4.181 -0.0127  0.0962 -1.8266
27787SOL    HW285369   2.095   1.600   4.186  0.6008  1.6420  0.2227
27788SOL     OW85370   0.777   4.919   8.814  0.0911  0.4751 -0.0050
27788SOL    HW185371   0.763   4.826   8.826 -0.3756  0.3911 -1.0683
27788SOL    HW285372   0.765   4.957   8.901  1.0683 -0.5327  0.5960
27789SOL     OW85373   7.085   8.963   5.878 -0.1300  0.3425 -0.4548
27789SOL    HW185374   7.132   9.011   5.810  0.0426  1.5362  0.4642
27789SOL    HW285375   7.001   9.007   5.886  0.3901  1.1251  1.0494
27790SOL     OW85376   1.474   0.942   2.168 -0.1424  0.4977 -0.3928
27790SOL    HW185377   1.553   0.916   2.215 -0.3048  1.9178  0.7543
27790SOL    HW285378   1.503   1.010   2.108 -0.0925 -0.6982 -1.7560
27791SOL     OW85379  10.006   1.368   9.987 -0.0040  0.3517 -0.2802
27791SOL    HW185380  10.035   1.277   9.985 -2.1778 -0.4763  1.3809
27791SOL    HW285381  10.012   1.398   9.896  0.9754 -1.3565 -0.8179
27792SOL     OW85382   6.390   2.933  10.666 -0.3709 -0.0909  0.1566
27792SOL    HW185383   6.314   2.884  10.698  0.7365 -0.6057  2.2421
27792SOL    HW285384   6.354   3.007  10.619 -2.1354 -1.0837 -0.1319
27793SOL     OW85385   7.559   2.115   9.783 -0.2465  0.3584  0.0132
27793SOL    HW185386   7.566   2.162   9.700 -0.4541 -1.8342 -1.3301
27793SOL    HW285387   7.467   2.087   9.787 -0.3117  0.6832  1.1316
27794SOL     OW85388   4.542   9.432   8.684  0.2005  0.3017  0.3196
27794SOL    HW185389   4.578   9.375   8.753  0.8795 -0.0686 -0.3236
27794SOL    HW285390   4.451   9.444   8.709  0.6623  1.0025  1.8322
27795SOL     OW85391   2.869   1.192   7.210 -0.1059 -0.3652 -0.1758
27795SOL    HW185392   2.837   1.157   7.126 -0.1881  0.3983 -0.4745
27795SOL    HW285393   2.819   1.273   7.222  0.4982 -0.0470  0.2075
27796SOL     OW85394   4.475  10.728   9.770  0.0660 -0.3132  0.2954
27796SOL    HW185395   4.541  10.662   9.793  0.5901 -0.1337 -0.6375
27796SOL    HW285396   4.404  10.678   9.729  0.6595 -0.2635 -0.8173
27797SOL     OW85397   4.841   6.379   4.341  0.0686  0.0803 -0.5532
27797SOL    HW185398   4.841   6.475   4.341  0.1183  0.0962  0.5013
27797SOL    HW285399   4.877   6.355   4.427 -2.9564 -0.8564  0.5666
27798SOL     OW85400   8.708   7.534   9.215  0.3788 -0.4434 -0.1368
27798SOL    HW185401   8.646   7.591   9.261 -0.3118 -0.8107 -0.5967
27798SOL    HW285402   8.780   7.592   9.190  0.5343 -0.1424  0.9736
27799SOL     OW85403   0.466   6.195   6.336  0.6635  0.2122  0.1866
27799SOL    HW185404   0.447   6.212   6.244  0.0403 -1.0274  0.0658
27799SOL    HW285405   0.562   6.202   6.342  0.9463 -1.7825 -1.0375
27800SOL     OW85406   5.212   3.965   6.978  0.7964 -0.1392 -0.1919
27800SOL    HW185407   5.133   3.917   7.001  0.2830  1.4344  1.6120
27800SOL    HW285408   5.181   4.052   6.951  1.8244  0.0020 -0.9947
27801SOL     OW85409   8.642   9.789  10.465  0.7137 -0.0198  0.0836
27801SOL    HW185410   8.716   9.849  10.457  0.6570  0.2154  1.1325
27801SOL    HW285411   8.574   9.841  10.508  1.0955 -1.1424  2.1989
27802SOL     OW85412   5.279   0.012   7.141  0.1618  0.1356 -0.0629
27802SOL    HW185413   5.287  -0.005   7.047  2.1545  0.4574  0.0069
27802SOL    HW285414   5.355   0.067   7.162 -0.9603  1.1801  1.4963
27803SOL     OW85415   0.636   9.433   9.703  0.3075  0.2914  0.0087
27803SOL    HW185416   0.563   9.481   9.743  0.0330 -1.5519  1.8295
27803SOL    HW285417   0.602   9.406   9.617 -0.5131  0.9148  0.1195
27804SOL     OW85418   4.711   4.597  10.897  0.0028  0.1771  0.5387
27804SOL    HW185419   4.681   4.605  10.806 -2.2007  0.7376  1.2373
27804SOL    HW285420   4.651   4.654  10.946  0.8170 -0.5174  2.4053
27805SOL     OW85421   2.342   9.033   3.926 -0.4972  0.4935  0.5384
27805SOL    HW185422   2.316   9.061   3.839 -2.0295  1.5411  1.2788
27805SOL    HW285423   2.435   9.013   3.919 -1.0601 -1.9151 -1.9390
27806SOL     OW85424   1.599   6.596   5.944 -0.0129 -0.0222 -0.3751
27806SOL    HW185425   1.535   6.577   5.875 -1.6608  0.1766  1.0393
27806SOL    HW285426   1.594   6.521   6.003  0.9767  0.0638 -0.1623
27807SOL     OW85427   5.661   3.660   2.423 -0.2244 -0.3835 -0.2909
27807SOL    HW185428   5.590   3.614   2.378  0.2221 -0.3432 -1.0422
27807SOL    HW285429   5.741   3.619   2.390  0.1045 -0.8836  1.0418
27808SOL     OW85430   8.960   4.653   9.867 -0.0877 -0.2083 -0.3471
27808SOL    HW185431   9.052   4.632   9.883  0.2901  0.3963 -1.5998
27808SOL    HW285432   8.959   4.686   9.777 -1.0069  2.8462  0.6953
27809SOL     OW85433   0.265   0.264   6.827 -0.3803 -0.1718 -0.1173
27809SOL    HW185434   0.221   0.329   6.882  0.3613  1.2707 -1.1548
27809SOL    HW285435   0.328   0.221   6.886  1.3613  2.2706 -0.0342
27810SOL     OW85436   6.629   4.895   3.278  0.2161 -0.6500  0.2373
27810SOL    HW185437   6.704   4.890   3.337 -0.5271 -1.4615  1.1489
27810SOL    HW285438   6.556   4.923   3.334 -0.1305  0.3564 -0.6768
27811SOL     OW85439   6.917   4.089   8.795  0.1829  0.4866  0.0214
27811SOL    HW185440   6.841   4.050   8.752  0.2917  0.1400  0.1430
27811SOL    HW285441   6.928   4.174   8.752 -0.8902  0.9880  0.6857
27812SOL     OW85442   1.631   6.507  10.590 -0.5732 -0.1987  0.2270
27812SOL    HW185443   1.553   6.562  10.577  0.5032  1.2261 -0.5758
27812SOL    HW285444   1.613   6.428  10.540 -0.5062  1.2088 -2.1912
27813SOL     OW85445   4.703   3.366   4.480  0.0076 -0.4906 -0.0609
27813SOL    HW185446   4.626   3.396   4.432  1.5436  2.4110 -0.9277
27813SOL    HW285447   4.699   3.413   4.564  0.3438 -1.1033  0.3105
27814SOL     OW85448   6.325  10.525  10.440  0.5689 -0.0495  0.7894
27814SOL    HW185449   6.393  10.590  10.453  0.2572  0.2093  1.1798
27814SOL    HW285450   6.340  10.460  10.509 -0.0993  0.4664  1.4398
27815SOL     OW85451   8.014   8.071   9.577  0.4606 -0.2620  0.1707
27815SOL    HW185452   8.041   8.148   9.628  0.8419 -1.3963  1.7592
27815SOL    HW285453   8.095   8.023   9.560  0.4478  0.4288 -2.2034
27816SOL     OW85454   6.470   8.978  11.003 -0.5431  0.0573 -0.5122
27816SOL    HW185455   6.478   9.072  11.021 -0.7563  0.3455 -1.8406
27816SOL    HW285456   6.560   8.945  11.004 -0.4857  0.2216  0.1938
27817SOL     OW85457   0.693  10.508   8.444 -0.4686 -0.2963  0.1187
27817SOL    HW185458   0.754  10.454   8.395  0.4816  0.6320  0.2511
27817SOL    HW285459   0.623  10.528   8.382  0.2395  0.0657 -0.5775
27818SOL     OW85460   3.826   5.374   1.234 -0.1761 -0.8962  0.9291
27818SOL    HW185461   3.846   5.374   1.328 -2.4755  2.1630  1.5843
27818SOL    HW285462   3.747   5.428   1.226 -0.2709 -1.3028 -2.7581
27819SOL     OW85463   4.347  10.490   3.161 -0.7053  0.1366  0.0863
27819SOL    HW185464   4.417  10.537   3.205 -2.2017  0.4953  2.2370
27819SOL    HW285465   4.339  10.533   3.076  1.9806 -0.2701 -0.4453
27820SOL     OW85466   8.304   7.175   3.195 -0.3131  0.2004 -0.2564
27820SOL    HW185467   8.231   7.178   3.133 -0.2554 -1.2478 -0.4413
27820SOL    HW285468   8.268   7.210   3.276 -1.0523  0.0149 -0.4927
27821SOL     OW85469   7.090   9.219   3.011  0.2725  0.5911  0.1317
27821SOL    HW185470   7.070   9.234   2.918 -1.8121 -1.5921  0.1296
27821SOL    HW285471   7.092   9.124   3.020  0.5624  0.7528  2.3209
27822SOL     OW85472   6.042   8.463   2.222 -0.2066  0.0058  0.0791
27822SOL    HW185473   6.017   8.488   2.133  0.6265 -2.4527 -0.9478
27822SOL    HW285474   6.110   8.526   2.246  0.4170  0.0063 -1.5444
27823SOL     OW85475   2.906   4.161   5.555 -0.1831 -0.4425  0.0429
27823SOL    HW185476   2.848   4.085   5.565 -1.0384  0.4014  2.0639
27823SOL    HW285477   2.895   4.210   5.636  2.8527  0.1707  0.1999
27824SOL     OW85478   1.044   5.896   5.690 -0.2158 -0.2118 -1.0560
27824SOL    HW185479   0.986   5.928   5.621  1.6183  0.4251 -2.3556
27824SOL    HW285480   1.128   5.882   5.647  0.3993 -2.0072  0.5756
27825SOL     OW85481   6.219   8.473  11.059  0.0133 -0.7423 -0.5935
27825SOL    HW185482   6.167   8.552  11.071  0.1971 -0.5575 -0.9917
27825SOL    HW285483   6.279   8.472  11.134  0.9946  0.2707 -1.3209
27826SOL     OW85484   0.090   2.658   0.706 -0.2652  0.1932 -0.4573
27826SOL    HW185485   0.160   2.659   0.771 -0.1577 -0.8610 -0.5339
27826SOL    HW285486   0.124   2.604   0.635 -0.9671  0.0599 -0.7039
27827SOL     OW85487   8.256   0.895   9.662  0.1340 -0.4194 -0.7410
27827SOL    HW185488   8.337   0.945   9.658  0.0226 -0.1629 -0.0296
27827SOL    HW285489   8.199   0.934   9.597  0.1312  0.2313 -0.3521
27828SOL     OW85490   5.538   5.560  10.424  0.3032 -0.1969 -0.3271
27828SOL    HW185491   5.539   5.529  10.514  0.5039  0.8485  0.0458
27828SOL    HW285492   5.622   5.532  10.387 -0.3371 -1.7957 -0.6152
27829SOL     OW85493   5.638   6.212  10.528  0.1588 -0.2316 -0.4618
27829SOL    HW185494   5.731   6.198  10.513  0.1969  0.5764 -1.0453
27829SOL    HW285495   5.634   6.275  10.600  0.0348 -1.0812  0.2942
27830SOL     OW85496  10.626   5.220   6.056  0.0333  0.4676  0.2654
27830SOL    HW185497  10.543   5.219   6.007 -0.5344  0.0567  1.2140
27830SOL    HW285498  10.693   5.210   5.989 -0.7831 -1.4890 -0.3419
27831SOL     OW85499   9.256   3.325  10.354 -0.1798  0.2871 -0.6318
27831SOL    HW185500   9.258   3.306  10.260  1.7259 -0.8095 -0.4071
27831SOL    HW285501   9.164   3.347  10.372 -0.5587  0.6331 -2.7527
27832SOL     OW85502  10.243   8.808   8.862  0.4020 -0.5917  0.0041
27832SOL    HW185503  10.241   8.803   8.766  0.8368  1.2132 -0.1334
27832SOL    HW285504  10.304   8.880   8.881 -0.0354 -0.6115  1.6279
27833SOL     OW85505   6.232   7.382   2.940 -0.0656  0.2356 -0.8744
27833SOL    HW185506   6.193   7.328   2.872 -0.2303 -0.5099 -0.2032
27833SOL    HW285507   6.283   7.321   2.993  0.5251  0.8976 -0.6609
27834SOL     OW85508   5.914   6.812   4.392 -0.5857 -0.5834  1.1871
27834SOL    HW185509   5.954   6.898   4.400  0.8204 -1.1641  0.7172
27834SOL    HW285510   5.892   6.787   4.482  1.1922 -0.7116  1.6351
27835SOL     OW85511   5.940   2.902   0.825  0.4139 -0.3806  0.0541
27835SOL    HW185512   5.943   2.997   0.829  0.9358 -0.3298 -1.1317
27835SOL    HW285513   5.892   2.876   0.903  0.9523  0.8109  0.7980
27836SOL     OW85514   9.465   0.425   2.301 -0.1793  0.1313  0.1965
27836SOL    HW185515   9.394   0.454   2.243  0.2569 -0.6039 -0.7317
27836SOL    HW285516   9.541   0.478   2.274  0.3172 -1.0003 -0.7030
27837SOL     OW85517   0.583   7.775   4.332 -0.0496 -0.1639 -0.0433
27837SOL    HW185518   0.658   7.721   4.306  0.4692  0.4446  0.1311
27837SOL    HW285519   0.525   7.716   4.380 -0.6345 -1.1147 -1.8463
27838SOL     OW85520   4.013  10.287   0.268 -0.5678  0.1161  0.1412
27838SOL    HW185521   3.971  10.359   0.220  1.3616  0.5055 -1.0683
27838SOL    HW285522   3.947  10.259   0.331 -2.2656  1.3221 -1.0015
27839SOL     OW85523   1.272   1.059   9.259 -0.4866  0.0575 -0.0358
27839SOL    HW185524   1.298   1.039   9.169  0.3816 -0.6731  0.3598
27839SOL    HW285525   1.194   1.005   9.274 -0.5050  0.0145 -0.2797
27840SOL     OW85526   5.920   9.996   1.952  0.6835 -0.9027  0.1332
27840SOL    HW185527   5.949  10.086   1.936 -1.3112 -0.2233  0.0994
27840SOL    HW285528   5.967   9.943   1.888  0.1935  0.4375 -1.3901
27841SOL     OW85529   7.575   7.420   0.206  0.0909  0.2212 -0.0947
27841SOL    HW185530   7.621   7.337   0.189  1.4439  0.4175  2.2727
27841SOL    HW285531   7.517   7.400   0.279  1.4755  1.6587  1.4707
27842SOL     OW85532   2.490   2.382   1.331  0.8651 -0.6066 -0.0907
27842SOL    HW185533   2.399   2.354   1.334  0.2228  1.3468 -0.1817
27842SOL    HW285534   2.532   2.335   1.404 -0.1781 -1.5874 -0.1083
27843SOL     OW85535   4.934   4.886   4.727 -0.6949  0.0214  0.3001
27843SOL    HW185536   4.967   4.796   4.734 -0.3261  0.2037  0.9287
27843SOL    HW285537   5.004   4.940   4.762 -1.1414  0.5182  0.4339
27844SOL     OW85538   8.155   1.567   5.804 -0.6705 -0.6117 -0.1495
27844SOL    HW185539   8.110   1.486   5.781 -3.1072  0.7741 -0.5716
27844SOL    HW285540   8.110   1.635   5.754 -0.1040  1.2768  1.7546
27845SOL     OW85541   4.007   9.130   1.579 -0.3428 -0.1070 -0.0494
27845SOL    HW185542   4.082   9.183   1.551  0.2897 -0.0814  1.6120
27845SOL    HW285543   4.008   9.055   1.520  0.4187  0.3630 -0.6598
27846SOL     OW85544   8.445   7.809   1.992  0.2931 -0.2560  0.5455
27846SOL    HW185545   8.372   7.822   2.052  0.1422 -0.8581  0.4976
27846SOL    HW285546   8.426   7.726   1.948 -0.3955  0.9093 -1.4643
27847SOL     OW85547   8.539   0.546   2.570  0.0859 -0.6501 -0.3920
27847SOL    HW185548   8.598   0.493   2.624  0.1525 -1.9537 -1.6730
27847SOL    HW285549   8.596   0.590   2.507 -0.1199 -0.3364 -0.3607
27848SOL     OW85550   2.452   8.794   1.753 -0.3634  0.2098 -0.0283
27848SOL    HW185551   2.466   8.763   1.842 -2.4600  1.3170  0.7657
27848SOL    HW285552   2.454   8.714   1.700 -3.5719 -1.2444  1.6799
27849SOL     OW85553   9.915  10.762   1.070 -0.5507 -0.0327  0.0139
27849SOL    HW185554   9.993  10.749   1.016 -2.0702 -0.1838 -2.3359
27849SOL    HW285555   9.872  10.676   1.071 -0.1374 -0.2622  2.2906
27850SOL     OW85556   8.464   3.195   7.516  0.3719 -0.1002 -0.2315
27850SOL    HW185557   8.475   3.147   7.435 -1.3622 -0.3765 -0.3370
27850SOL    HW285558   8.377   3.235   7.509 -0.3802 -1.1600  1.9724
27851SOL     OW85559   9.636   6.455  10.109 -0.2805 -0.0586 -0.4397
27851SOL    HW185560   9.656   6.517  10.038 -0.5691 -0.3236 -0.7529
27851SOL    HW285561   9.676   6.373  10.081  2.6971  0.6527  1.3187
27852SOL     OW85562   4.549  10.238  10.800  0.4229 -0.0565 -0.5655
27852SOL    HW185563   4.498  10.291  10.861 -0.5761 -2.0881  0.4844
27852SOL    HW285564   4.513  10.259  10.713  0.5123  1.4194 -0.2639
27853SOL     OW85565   0.260   2.635   6.336  0.0869  0.7218 -0.6288
27853SOL    HW185566   0.197   2.563   6.323 -0.5722  1.2595 -0.4787
27853SOL    HW285567   0.217   2.712   6.299  0.5588  1.1480 -0.3084
27854SOL     OW85568   5.504  10.145   1.454 -0.1756  0.3239  0.0517
27854SOL    HW185569   5.557  10.108   1.383 -1.1678 -0.2542 -0.3969
27854SOL    HW285570   5.418  10.105   1.444 -0.2834  0.0913  1.7156
27855SOL     OW85571   5.369   6.691   1.203  0.4588 -0.3443 -0.8667
27855SOL    HW185572   5.332   6.740   1.130  0.0226 -0.4301 -0.7054
27855SOL    HW285573   5.416   6.757   1.255 -2.1950  0.4499  0.7277
27856SOL     OW85574   1.880   1.615  10.401  0.0594  0.3552  0.8819
27856SOL    HW185575   1.959   1.562  10.389  0.7045  1.6243 -0.7790
27856SOL    HW285576   1.820   1.585  10.333 -0.6559 -0.1258  1.7009
27857SOL     OW85577   1.238   5.503   7.012 -0.4082  0.0614  0.3923
27857SOL    HW185578   1.314   5.535   6.963 -0.8274 -1.4862 -1.4006
27857SOL    HW285579   1.251   5.408   7.017 -3.3489 -0.6264 -2.1726
27858SOL     OW85580   8.442   3.602   2.634  0.1403 -0.3721  0.1629
27858SOL    HW185581   8.354   3.597   2.597  0.6568  0.6396 -1.3035
27858SOL    HW285582   8.445   3.531   2.698 -0.8798 -2.1725 -1.6493
27859SOL     OW85583   2.840   3.478  10.839  0.1099  0.1400 -0.6937
27859SOL    HW185584   2.837   3.485  10.935  0.2271 -0.1297 -0.6716
27859SOL    HW285585   2.751   3.454  10.814 -0.6499  2.7293 -0.8579
27860SOL     OW85586   2.793   8.995   8.698  0.0021  0.3979  0.0728
27860SOL    HW185587   2.846   9.042   8.762  0.0580  1.2600 -0.6026
27860SOL    HW285588   2.806   8.902   8.720  1.8666  0.5787 -0.1407
27861SOL     OW85589   9.043   8.610   3.997 -0.0651 -0.0759  0.6056
27861SOL    HW185590   8.975   8.579   3.938  0.2595  0.5676 -0.1123
27861SOL    HW285591   9.090   8.530   4.023 -0.9849 -0.5089  1.0048
27862SOL     OW85592   1.126   6.636   0.887  0.2672 -0.0794  0.2721
27862SOL    HW185593   1.099   6.646   0.978  2.6107  0.0975  1.0135
27862SOL    HW285594   1.156   6.545   0.881 -0.8676 -0.4260 -0.6597
27863SOL     OW85595   9.175   8.846   8.631  0.0665 -0.2047 -0.2160
27863SOL    HW185596   9.103   8.786   8.650  0.3308 -1.0112 -1.5644
27863SOL    HW285597   9.191   8.834   8.537  1.0081  1.0167 -0.2322
27864SOL     OW85598   8.208   0.674  10.683 -0.3388 -0.1056  0.3687
27864SOL    HW185599   8.248   0.596  10.721  1.6049 -0.1662 -1.6118
27864SOL    HW285600   8.163   0.643  10.605 -1.6248  0.4684  0.8393
27865SOL     OW85601   0.507   9.286   2.398  0.2713 -0.6508 -0.4171
27865SOL    HW185602   0.511   9.325   2.485  0.2896  0.3864 -0.8758
27865SOL    HW285603   0.471   9.198   2.413 -0.1840 -0.3072  0.5723
27866SOL     OW85604  10.187   4.571   5.024 -0.0306  0.4473  0.2853
27866SOL    HW185605  10.133   4.507   5.070  1.6152  0.5767  2.5308
27866SOL    HW285606  10.260   4.520   4.988  0.7095  0.8664  1.1524
27867SOL     OW85607   5.813   9.728   8.525  0.3312  0.0795  0.6230
27867SOL    HW185608   5.751   9.674   8.574 -0.6610  0.3895 -0.2484
27867SOL    HW285609   5.804   9.700   8.434  0.8199  0.7535  0.3542
27868SOL     OW85610   8.347   8.577   6.449 -0.4146 -0.0355 -1.0021
27868SOL    HW185611   8.406   8.600   6.378 -0.5795 -1.4114 -1.6210
27868SOL    HW285612   8.269   8.542   6.406 -1.4160  1.1123 -0.1822
27869SOL     OW85613   5.678   4.815   0.591 -0.3494  0.5424  0.1182
27869SOL    HW185614   5.680   4.907   0.615 -3.1167  0.4953  0.8618
27869SOL    HW285615   5.694   4.814   0.496  0.6306  1.6601  0.2464
27870SOL     OW85616   6.291  10.854  10.073 -0.0631 -0.2703 -0.1112
27870SOL    HW185617   6.228  10.858  10.145  0.2613 -2.3701  0.3668
27870SOL    HW285618   6.301  10.760  10.056  1.0776  0.1226 -1.8340
27871SOL     OW85619   6.359   6.230   7.062  0.2412 -0.0574  0.0297
27871SOL    HW185620   6.341   6.223   6.968 -1.5115  0.9732  0.2503
27871SOL    HW285621   6.379   6.323   7.075  1.3579 -0.3534  0.5610
27872SOL     OW85622   9.453   4.879   9.584  0.5462 -0.0564 -0.6164
27872SOL    HW185623   9.450   4.865   9.489  0.4161  1.5616 -0.8730
27872SOL    HW285624   9.372   4.839   9.617  1.4323 -2.2422 -0.9163
27873SOL     OW85625   2.656   5.909   6.149 -0.4886 -0.6186 -0.4172
27873SOL    HW185626   2.691   5.828   6.187 -1.5626 -0.4951  0.9212
27873SOL    HW285627   2.580   5.930   6.203 -0.1684  1.3564 -0.6373
27874SOL     OW85628   3.742  10.953   9.726  0.0841 -0.1738  0.5244
27874SOL    HW185629   3.665  10.976   9.777 -1.7527 -2.5382 -0.9924
27874SOL    HW285630   3.749  10.858   9.734  1.7197 -0.2318 -0.9671
27875SOL     OW85631   4.736   0.494   0.494 -0.6921  0.4337 -0.3109
27875SOL    HW185632   4.765   0.413   0.452  1.9154  1.6335 -1.0216
27875SOL    HW285633   4.666   0.527   0.437 -1.2130 -0.8607 -0.4595
27876SOL     OW85634   9.896   1.997   2.802 -0.5005 -0.1595 -0.1442
27876SOL    HW185635   9.899   1.914   2.755 -0.1672  0.3512 -1.0368
27876SOL    HW285636   9.927   2.062   2.739 -0.2911  0.5737  0.6966
27877SOL     OW85637   0.511   5.862   2.773  0.0131  0.1519  0.4229
27877SOL    HW185638   0.547   5.774   2.760 -2.2094 -0.6447 -0.7756
27877SOL    HW285639   0.461   5.881   2.693 -1.0179  1.7607  1.3779
27878SOL     OW85640   5.380  10.037   3.067  0.1526  0.2115 -0.2762
27878SOL    HW185641   5.295  10.013   3.032  0.9063 -1.6978 -0.9379
27878SOL    HW285642   5.432  10.060   2.990  0.7025 -0.2623 -0.0569
27879SOL     OW85643   3.452   2.205   8.838 -0.0403 -0.0062 -0.0805
27879SOL    HW185644   3.489   2.140   8.779 -0.7368 -0.5154  0.0401
27879SOL    HW285645   3.369   2.168   8.867 -0.3248  0.8157  0.1962
27880SOL     OW85646   4.778   0.243   0.327  0.2983 -0.1596 -0.2257
27880SOL    HW185647   4.832   0.310   0.285  0.5677 -1.3604 -1.8953
27880SOL    HW285648   4.745   0.190   0.254  0.6112 -2.2218  1.0455
27881SOL     OW85649   8.298   6.053   1.047 -0.1947  0.1988  0.3180
27881SOL    HW185650   8.253   6.054   1.132  0.7569 -0.7958  0.8570
27881SOL    HW285651   8.389   6.072   1.068 -0.1059  0.8230 -0.6030
27882SOL     OW85652   8.281   1.626   2.003  0.2738  0.0831  0.3466
27882SOL    HW185653   8.285   1.620   2.098  2.4899  1.2515  0.3984
27882SOL    HW285654   8.328   1.707   1.982  0.5536 -0.5644 -1.7780
27883SOL     OW85655   5.784   5.330   5.753 -0.5263  0.0985  0.1315
27883SOL    HW185656   5.854   5.394   5.739 -1.4139  0.8480 -1.1021
27883SOL    HW285657   5.711   5.382   5.788 -1.1064 -0.3109 -0.4525
27884SOL     OW85658   8.699   2.762   1.625 -0.2706 -0.0478 -0.0842
27884SOL    HW185659   8.645   2.828   1.582 -0.8397 -0.0735  0.5764
27884SOL    HW285660   8.763   2.736   1.558  0.0470  1.2593 -0.3218
27885SOL     OW85661   8.144   5.835   9.880  0.2943 -0.2574 -0.7775
27885SOL    HW185662   8.074   5.895   9.853 -0.2089 -0.2680  0.4303
27885SOL    HW285663   8.170   5.866   9.966 -0.0387 -1.8015 -0.0782
27886SOL     OW85664   6.407   1.795   1.658 -0.5742 -0.1820 -0.4509
27886SOL    HW185665   6.498   1.812   1.633 -0.2072  0.2205  1.0821
27886SOL    HW285666   6.371   1.882   1.677 -1.1501 -0.3794 -0.6181
27887SOL     OW85667   3.121  10.778   9.894 -0.1748 -0.3833 -0.1797
27887SOL    HW185668   3.200  10.757   9.945 -0.2728 -2.3142 -0.7240
27887SOL    HW285669   3.070  10.697   9.896 -3.0460  1.2985  1.6492
27888SOL     OW85670   4.763   8.504   3.093  0.2065 -0.4683  0.0750
27888SOL    HW185671   4.791   8.422   3.133 -1.3593 -1.1350 -0.1233
27888SOL    HW285672   4.759   8.567   3.165 -0.6131 -1.1282  0.6269
27889SOL     OW85673   5.904   0.693  10.812 -0.3889  0.0318  0.3316
27889SOL    HW185674   5.952   0.671  10.892 -0.0377 -0.9295 -0.1264
27889SOL    HW285675   5.928   0.624  10.750 -1.1602  0.4033 -0.4010
27890SOL     OW85676   1.842   5.244   3.156 -0.2687 -0.5026  0.1308
27890SOL    HW185677   1.919   5.196   3.187 -0.5680 -1.0123  0.1103
27890SOL    HW285678   1.799   5.183   3.096  0.0266  0.2726 -0.8919
27891SOL     OW85679   8.550   1.035   9.117  0.3036 -0.0290 -0.2083
27891SOL    HW185680   8.609   1.102   9.083 -0.2320 -0.0304 -1.1609
27891SOL    HW285681   8.475   1.036   9.057  1.1245 -2.8028 -1.4099
27892SOL     OW85682   8.795   7.952   2.548 -0.4301 -0.4745 -0.5881
27892SOL    HW185683   8.795   8.009   2.471  0.7205  1.2283  0.6065
27892SOL    HW285684   8.774   7.865   2.514  0.2285  0.1941 -2.8310
27893SOL     OW85685   6.503   2.451   2.108  0.5833 -0.4659  0.3115
27893SOL    HW185686   6.434   2.483   2.166  0.3357  1.3182 -0.8776
27893SOL    HW285687   6.469   2.466   2.020  2.0753 -0.4996 -0.2976
27894SOL     OW85688   0.585   7.528   7.148  0.1766 -0.2106 -0.6045
27894SOL    HW185689   0.646   7.572   7.207  0.1285  0.8664 -1.3276
27894SOL    HW285690   0.619   7.439   7.141  0.9894  0.0408 -0.0808
27895SOL     OW85691   6.059   3.270   0.581  0.2260 -0.1371  0.2261
27895SOL    HW185692   6.076   3.321   0.502  0.1717  2.4624  1.7688
27895SOL    HW285693   5.964   3.274   0.592  0.1923 -0.8323  0.2285
27896SOL     OW85694   2.717   7.641   0.557 -0.1965 -0.1120 -0.2106
27896SOL    HW185695   2.720   7.637   0.653 -1.8178 -0.3442 -0.1468
27896SOL    HW285696   2.788   7.701   0.534  0.1789 -0.0028  1.1327
27897SOL     OW85697   6.665   7.306   0.380  0.1399  0.0075 -0.0613
27897SOL    HW185698   6.749   7.311   0.336 -0.0533  0.4508 -0.3886
27897SOL    HW285699   6.684   7.326   0.472  0.3974  0.0258 -0.1181
27898SOL     OW85700  10.985   9.935   6.644  0.1856 -0.2576  0.2569
27898SOL    HW185701  10.992  10.030   6.653 -1.0375 -0.2200  1.0960
27898SOL    HW285702  10.891   9.919   6.630  0.4296 -1.3157 -0.3429
27899SOL     OW85703   3.994   0.783   1.632 -0.2876 -0.0352  0.5814
27899SOL    HW185704   3.985   0.727   1.555  1.1835 -0.4698  0.7045
27899SOL    HW285705   3.942   0.738   1.699 -1.4335  0.2542 -0.0773
27900SOL     OW85706   7.590   1.809  10.608 -1.0578  0.3056  0.0976
27900SOL    HW185707   7.671   1.860  10.620 -0.5428 -0.5528  0.3607
27900SOL    HW285708   7.554   1.841  10.525 -0.0962  0.2442 -0.3628
27901SOL     OW85709   3.330   1.440   8.535  0.0629 -0.9058 -0.4176
27901SOL    HW185710   3.342   1.501   8.608 -1.6717 -2.0254  0.8942
27901SOL    HW285711   3.275   1.489   8.472  1.0335 -0.1589 -0.7088
27902SOL     OW85712   5.849   7.870   6.354 -0.0704 -0.0486  0.1108
27902SOL    HW185713   5.911   7.802   6.327  1.9240  1.1755  1.4032
27902SOL    HW285714   5.795   7.828   6.421  1.2413 -0.3436  1.0067
27903SOL     OW85715   1.347  10.827   9.818  0.1536  0.0858  0.1736
27903SOL    HW185716   1.294  10.889   9.868 -0.4845  0.0852 -0.4907
27903SOL    HW285717   1.291  10.801   9.745  1.5266  1.1370 -1.3274
27904SOL     OW85718   1.088   1.221  10.183  0.5164 -0.2472  0.2982
27904SOL    HW185719   1.083   1.137  10.229  0.1998 -0.1510  0.4435
27904SOL    HW285720   1.162   1.211  10.124  0.0258 -0.9094 -0.2338
27905SOL     OW85721   9.927   5.690   2.850  0.0132 -0.1362  0.0402
27905SOL    HW185722   9.879   5.672   2.931  0.2543  2.9977  1.0128
27905SOL    HW285723   9.860   5.717   2.788  0.2186  3.4759  1.1667
27906SOL     OW85724   8.461   7.456   4.955  0.2664  0.1887  0.2162
27906SOL    HW185725   8.470   7.367   4.990  0.5223  0.8258  1.8730
27906SOL    HW285726   8.470   7.446   4.861  1.7823 -1.3624  0.4776
27907SOL     OW85727   8.726   8.434   9.778 -0.0846  0.1670 -0.3785
27907SOL    HW185728   8.688   8.518   9.803  0.0272  0.4369 -1.0813
27907SOL    HW285729   8.787   8.456   9.707  0.2850 -0.4470 -0.2599
27908SOL     OW85730   5.161   3.099   2.351 -0.0472  0.2822  0.1101
27908SOL    HW185731   5.231   3.149   2.391 -1.4993  1.9964  0.6493
27908SOL    HW285732   5.107   3.163   2.306 -0.0965 -1.2569 -2.1988
27909SOL     OW85733   5.669   9.511   3.096  0.4598  0.8756  0.3149
27909SOL    HW185734   5.720   9.586   3.066  1.5535  0.7675  1.8530
27909SOL    HW285735   5.618   9.544   3.170  0.9140  0.1177  0.9735
27910SOL     OW85736   7.116  10.249   3.567  0.0495 -0.4932  0.1619
27910SOL    HW185737   7.026  10.233   3.598  0.5213 -1.2924  1.1919
27910SOL    HW285738   7.144  10.326   3.616  0.2072 -0.7352  0.4536
27911SOL     OW85739  10.268   1.174   7.874  0.2292  0.4421  0.5676
27911SOL    HW185740  10.327   1.248   7.880  0.3884  0.3100  0.6250
27911SOL    HW285741  10.187   1.205   7.914 -0.7710  1.6548 -2.1205
27912SOL     OW85742   9.655   1.936   9.940  0.0274 -0.2464  0.6001
27912SOL    HW185743   9.651   1.849   9.979  2.3043  0.3332  2.3664
27912SOL    HW285744   9.564   1.966   9.938 -0.6493 -2.1266  1.1598
27913SOL     OW85745   6.715   0.157   1.986 -0.1776 -0.5728  0.4083
27913SOL    HW185746   6.663   0.234   1.963  1.4724  0.3901 -0.2348
27913SOL    HW285747   6.650   0.086   1.993 -1.7955  0.9318  1.5372
27914SOL     OW85748   8.340   9.968   4.181  0.0539  0.0398  0.7480
27914SOL    HW185749   8.333  10.054   4.223  0.5309 -0.3514  1.6683
27914SOL    HW285750   8.354   9.907   4.254 -4.3765 -1.4328  0.6516
27915SOL     OW85751  10.369  11.007   5.659  0.6426 -0.4327 -0.2762
27915SOL    HW185752  10.303  11.076   5.667  0.9410 -0.1124 -0.5428
27915SOL    HW285753  10.333  10.933   5.707  0.0270 -0.3029 -0.5349
27916SOL     OW85754   9.573   6.599   2.353  0.4476  0.1315  0.2156
27916SOL    HW185755   9.479   6.620   2.356  0.3347 -0.1827 -0.7761
27916SOL    HW285756   9.615   6.681   2.329  0.1586 -0.2997 -1.9796
27917SOL     OW85757   5.945   0.165   4.394 -0.7745  0.3539 -0.4186
27917SOL    HW185758   5.989   0.110   4.329  1.9849  1.0329  0.7594
27917SOL    HW285759   5.898   0.103   4.450  0.4531 -0.6239 -0.4338
27918SOL     OW85760   5.485   0.880  10.003  0.1613 -0.0502  0.1499
27918SOL    HW185761   5.558   0.845  10.054 -0.7672 -1.9434  0.2825
27918SOL    HW285762   5.453   0.954  10.054  2.2831  1.1805 -0.1846
27919SOL     OW85763  10.511   3.112   3.080  0.0602 -0.1327 -0.4076
27919SOL    HW185764  10.519   3.153   2.994  2.3748 -0.1808 -0.2851
27919SOL    HW285765  10.482   3.022   3.062 -0.6724  0.2098 -1.0097
27920SOL     OW85766   0.902   2.803   9.058 -0.2456  0.9367 -0.6389
27920SOL    HW185767   0.950   2.858   8.996 -0.0047  0.6402 -0.7194
27920SOL    HW285768   0.945   2.718   9.052  0.5280  1.2043  0.7777
27921SOL     OW85769   4.917   9.816   3.219  0.0139  0.3810 -0.3084
27921SOL    HW185770   4.927   9.763   3.140 -0.6607  2.5317 -1.9151
27921SOL    HW285771   4.823   9.813   3.238  0.3078 -1.0687  1.1706
27922SOL     OW85772   9.480   2.569   2.774 -0.3245  0.4368 -0.3230
27922SOL    HW185773   9.433   2.651   2.781 -1.5811 -0.2633 -0.2545
27922SOL    HW285774   9.425   2.505   2.819  1.0198 -0.2946  0.3372
27923SOL     OW85775   9.044  10.461   2.955 -0.0746 -0.3741  0.2053
27923SOL    HW185776   8.955  10.429   2.945  0.4101 -1.1211 -3.0455
27923SOL    HW285777   9.053  10.482   3.048 -3.3369 -1.0268  0.7665
27924SOL     OW85778   4.048   5.373   1.105  0.1487 -0.4878  0.0507
27924SOL    HW185779   4.059   5.278   1.112 -2.4312 -0.9430 -0.7236
27924SOL    HW285780   3.957   5.389   1.130  0.1209  1.6096 -1.0947
27925SOL     OW85781   3.566   7.618   3.296  0.0095 -0.0257  0.5284
27925SOL    HW185782   3.550   7.567   3.217  1.0031 -0.6675  0.7240
27925SOL    HW285783   3.633   7.682   3.270 -1.5241  1.5066  0.1668
27926SOL     OW85784   4.897   0.226   6.630 -0.0077  0.5445 -0.0561
27926SOL    HW185785   4.976   0.227   6.576  0.1669  0.8056  0.2076
27926SOL    HW285786   4.908   0.298   6.692 -0.0162 -0.0166  0.6093
27927SOL     OW85787  10.122   7.521   9.170 -0.4389 -0.6054 -0.3108
27927SOL    HW185788  10.135   7.491   9.259 -0.0941 -3.5282 -1.2388
27927SOL    HW285789  10.043   7.574   9.173 -0.6697 -1.0141  1.6460
27928SOL     OW85790   4.314   3.555   0.613 -0.2413 -0.2911  0.0483
27928SOL    HW185791   4.323   3.607   0.693  2.5704  2.3328 -1.7271
27928SOL    HW285792   4.245   3.600   0.564 -0.1308 -0.2737 -0.0905
27929SOL     OW85793   4.414   9.771  10.351 -0.0449 -0.6611  0.7054
27929SOL    HW185794   4.381   9.773  10.440 -0.0387 -0.7349  0.7102
27929SOL    HW285795   4.336   9.779  10.296  0.0488  0.5594  0.7175
27930SOL     OW85796   5.756  10.065   7.210 -0.2081 -0.2223 -0.0295
27930SOL    HW185797   5.754  10.160   7.199  1.4190  0.1192  2.0014
27930SOL    HW285798   5.810  10.034   7.137  1.7170  0.7809  0.9056
27931SOL     OW85799   6.905   8.546   3.375 -0.1836 -0.4444  0.1800
27931SOL    HW185800   6.880   8.483   3.307 -1.4368 -0.1966  0.4009
27931SOL    HW285801   6.836   8.612   3.374  1.6777  1.6212 -0.8684
27932SOL     OW85802   2.828   6.236   6.709  0.1078 -0.3047 -0.0556
27932SOL    HW185803   2.839   6.296   6.635 -1.9344  1.1267  0.7184
27932SOL    HW285804   2.899   6.173   6.700  0.4495  0.3764 -2.6982
27933SOL     OW85805   0.384   6.559   2.409 -0.4357  0.6990 -0.4042
27933SOL    HW185806   0.376   6.568   2.504  0.4072 -0.2395 -0.2256
27933SOL    HW285807   0.315   6.614   2.373 -2.8059 -1.2910  0.8233
27934SOL     OW85808   9.681   6.782   4.492  0.3191 -0.0303 -0.2956
27934SOL    HW185809   9.673   6.866   4.446 -0.8381  0.5055  0.8373
27934SOL    HW285810   9.630   6.792   4.571 -0.1010 -1.9196 -0.2645
27935SOL     OW85811   5.888   0.732   0.259 -0.0774 -0.0602 -0.1086
27935SOL    HW185812   5.812   0.778   0.294  0.3374 -0.8607  2.0133
27935SOL    HW285813   5.938   0.800   0.213 -1.3319  0.7743 -0.2874
27936SOL     OW85814   2.245   0.255   0.181 -0.0695 -0.1174  0.0807
27936SOL    HW185815   2.181   0.317   0.147 -1.8401 -1.7462  0.2481
27936SOL    HW285816   2.305   0.240   0.108  0.2577  1.5495 -0.0344
27937SOL     OW85817   7.355   8.460  10.748 -0.1000 -0.5600 -0.1373
27937SOL    HW185818   7.362   8.505  10.664  0.5492  1.0990  0.7708
27937SOL    HW285819   7.421   8.391  10.744  1.1105  0.5778 -0.3758
27938SOL     OW85820   5.419   8.813   9.252 -1.0054 -0.2922  0.3681
27938SOL    HW185821   5.413   8.769   9.167 -0.7089 -1.5007  0.9551
27938SOL    HW285822   5.348   8.877   9.251  0.1243  1.0190 -1.5169
27939SOL     OW85823   0.748   0.605   0.012  0.0456 -0.1944 -0.2653
27939SOL    HW185824   0.825   0.609   0.069  0.9227 -1.3491 -1.3281
27939SOL    HW285825   0.760   0.525  -0.039 -1.3229  0.1769 -1.2088
27940SOL     OW85826   2.691   6.921  10.296 -0.3552  0.0639 -0.7261
27940SOL    HW185827   2.622   6.866  10.260 -0.9183  0.2269  0.0805
27940SOL    HW285828   2.751   6.936  10.222 -2.2712  1.6651 -2.0583
27941SOL     OW85829   0.873   7.859   5.345 -0.1493  0.0678 -0.1866
27941SOL    HW185830   0.791   7.863   5.393 -1.1550 -0.8941 -1.7120
27941SOL    HW285831   0.938   7.832   5.410 -1.6742 -2.4588  0.4235
27942SOL     OW85832   2.699  10.847   2.878  0.2967 -0.2016 -0.5639
27942SOL    HW185833   2.724  10.891   2.959  0.3415 -1.8023  0.3449
27942SOL    HW285834   2.612  10.882   2.857  0.7548  1.0523 -0.4743
27943SOL     OW85835   3.045   0.366   6.994  0.0226  0.0800  0.2294
27943SOL    HW185836   3.091   0.283   6.984  1.0853  0.5812  0.8096
27943SOL    HW285837   2.972   0.346   7.053 -0.2739 -0.6315 -0.3669
27944SOL     OW85838   0.969   6.410   3.734  0.1598 -0.1056 -0.9660
27944SOL    HW185839   0.902   6.471   3.704 -1.0588 -0.4412  0.8847
27944SOL    HW285840   1.020   6.459   3.798 -1.5462 -1.2199  1.4070
27945SOL     OW85841   6.462   1.146   3.388 -0.5633  0.0264  0.2663
27945SOL    HW185842   6.542   1.199   3.383  0.1883 -1.1854 -0.9792
27945SOL    HW285843   6.493   1.056   3.392 -1.8785 -0.4697 -0.3946
27946SOL     OW85844   8.213   6.060   2.799 -0.0303 -0.4488 -0.1432
27946SOL    HW185845   8.154   6.134   2.803  1.4386  0.7271  1.6526
27946SOL    HW285846   8.281   6.086   2.737  1.4878  0.6063  1.8336
27947SOL     OW85847   0.221   6.136   8.901 -0.1491  0.4666  0.4056
27947SOL    HW185848   0.237   6.049   8.865 -1.8233  0.0062  0.7093
27947SOL    HW285849   0.254   6.131   8.990 -0.2790  0.1282  0.4372
27948SOL     OW85850   7.458   1.356   4.917  0.2495  0.3666  0.1094
27948SOL    HW185851   7.454   1.365   5.013 -2.7705  0.2682  0.0901
27948SOL    HW285852   7.481   1.444   4.886 -1.9952  1.2793  0.8704
27949SOL     OW85853  10.510   7.583   1.657 -0.2745 -0.0729  0.5273
27949SOL    HW185854  10.509   7.678   1.650  1.0462 -0.0626  0.1050
27949SOL    HW285855  10.419   7.557   1.649 -1.0256  1.3190  3.3369
27950SOL     OW85856   4.029   2.110   6.892 -0.1030 -0.2790  0.4985
27950SOL    HW185857   4.049   2.187   6.946 -0.4345  0.6479 -0.6552
27950SOL    HW285858   3.942   2.127   6.858 -0.6973 -1.7624  1.1702
27951SOL     OW85859   9.578   6.025   9.451  0.0598 -0.0045 -0.3294
27951SOL    HW185860   9.635   5.959   9.490 -2.1515  0.2630  3.9832
27951SOL    HW285861   9.498   5.978   9.427 -0.7654  0.6801  0.9260
27952SOL     OW85862   5.421   0.260   0.115  1.0639 -0.1789 -0.4862
27952SOL    HW185863   5.333   0.250   0.150  0.3304  0.6235 -1.9886
27952SOL    HW285864   5.439   0.354   0.121  1.8568 -0.3472 -0.1206
27953SOL     OW85865   2.636   3.747   9.974 -0.5548 -0.3872 -0.2431
27953SOL    HW185866   2.543   3.769   9.970 -0.1666  1.4522 -0.3458
27953SOL    HW285867   2.655   3.740  10.068 -0.5709  0.4116 -0.1733
27954SOL     OW85868   1.702   8.705   3.388 -0.3709  0.1206  0.3053
27954SOL    HW185869   1.782   8.757   3.382  0.4192 -1.1630 -1.2727
27954SOL    HW285870   1.727   8.619   3.354 -2.5057 -0.2313 -0.5455
27955SOL     OW85871   9.617  10.396   8.317  0.3597  0.0093 -0.3670
27955SOL    HW185872   9.593  10.426   8.230 -0.2949  0.4625 -0.0454
27955SOL    HW285873   9.625  10.477   8.369  3.0375 -0.0598 -0.5262
27956SOL     OW85874   6.014   6.115   1.573  0.8380  0.1908 -0.3118
27956SOL    HW185875   5.930   6.100   1.530 -0.4571 -2.6285  2.7692
27956SOL    HW285876   5.998   6.188   1.633  0.5540 -0.2540  0.1715
27957SOL     OW85877   3.608   8.775  10.727 -1.0473 -0.1162 -0.6084
27957SOL    HW185878   3.619   8.868  10.708 -1.9187 -0.2429 -1.8598
27957SOL    HW285879   3.614   8.732  10.642 -0.1880 -1.2713 -0.0011
27958SOL     OW85880   9.949   9.244   9.118 -0.0341  0.0256 -0.1038
27958SOL    HW185881   9.968   9.174   9.180 -0.0355  1.0250  1.0497
27958SOL    HW285882   9.981   9.211   9.034  0.2978 -1.2016  0.4874
27959SOL     OW85883   6.941   4.339   3.404  0.1909 -0.3140 -0.0876
27959SOL    HW185884   6.934   4.435   3.401 -1.3196 -0.4123 -0.3103
27959SOL    HW285885   6.926   4.317   3.496  0.9988 -0.3314  0.0539
27960SOL     OW85886   2.400  10.634   7.147  0.0136 -0.7176  0.1502
27960SOL    HW185887   2.469  10.681   7.101 -1.4379  1.1292 -0.2410
27960SOL    HW285888   2.445  10.589   7.219  1.2766  2.9404  1.8640
27961SOL     OW85889   6.638   0.161   6.503  0.2071  0.2646  0.1964
27961SOL    HW185890   6.591   0.210   6.436  1.6423  2.4288  0.6334
27961SOL    HW285891   6.603   0.195   6.586  0.4219 -0.2983  0.5213
27962SOL     OW85892   2.595   7.312   0.911 -0.3108  0.5708  0.2243
27962SOL    HW185893   2.516   7.261   0.891 -0.0502  0.3513 -0.2530
27962SOL    HW285894   2.667   7.259   0.878 -0.0949  1.7234 -1.2669
27963SOL     OW85895   2.405   2.723   9.157 -0.1068  0.1521  0.0871
27963SOL    HW185896   2.495   2.699   9.175 -0.7499 -1.3257  1.5267
27963SOL    HW285897   2.380   2.780   9.230 -0.3174  0.6421 -0.3603
27964SOL     OW85898   1.828   8.097   7.016 -0.1726 -0.3286  0.1914
27964SOL    HW185899   1.914   8.129   7.044  1.0338 -1.7328 -1.6298
27964SOL    HW285900   1.817   8.133   6.928  0.8146 -3.8506 -1.5515
27965SOL     OW85901   8.390  11.002   1.600  0.1131 -0.2668  0.4791
27965SOL    HW185902   8.446  11.016   1.675  1.7481  0.6263 -0.8445
27965SOL    HW285903   8.398  11.082   1.548 -3.1232  0.3239  0.6214
27966SOL     OW85904   8.101   6.557   6.265  0.0879 -0.4181 -0.1811
27966SOL    HW185905   8.073   6.497   6.334 -0.3922 -1.0955 -0.9633
27966SOL    HW285906   8.180   6.517   6.228  0.9458  0.4492  0.6161
27967SOL     OW85907   3.544   6.984   5.365  0.9386  0.2582 -0.5093
27967SOL    HW185908   3.497   7.021   5.439  1.3067  0.4888 -0.3861
27967SOL    HW285909   3.629   7.028   5.367  0.4150  1.4675 -1.9933
27968SOL     OW85910   5.400   1.346   0.306 -0.1348  0.2477 -0.0119
27968SOL    HW185911   5.406   1.367   0.213  1.7846  0.3337  0.0839
27968SOL    HW285912   5.433   1.424   0.350 -3.1903  1.1533  0.9367
27969SOL     OW85913   5.370   9.159  10.764  0.5034 -0.1250  0.4309
27969SOL    HW185914   5.301   9.207  10.810  0.4933  0.7364 -0.4578
27969SOL    HW285915   5.425   9.227  10.725  0.4614 -0.8134 -0.8969
27970SOL     OW85916   1.820   0.675   8.528  0.8698 -0.1865 -0.1274
27970SOL    HW185917   1.874   0.626   8.590  2.2390  2.1719  0.6460
27970SOL    HW285918   1.764   0.730   8.583  1.5642  1.3844 -0.9468
27971SOL     OW85919   9.415   4.660   3.659 -0.1067 -0.2686  0.1799
27971SOL    HW185920   9.430   4.710   3.740 -0.5515  1.4581 -0.7386
27971SOL    HW285921   9.343   4.706   3.616  1.6387  0.3312 -2.3211
27972SOL     OW85922   6.341   0.749  10.395  0.1885 -0.3397 -0.3104
27972SOL    HW185923   6.373   0.687  10.461 -1.1342  0.1939  0.8817
27972SOL    HW285924   6.311   0.694  10.323  1.2498 -0.9550 -0.3006
27973SOL     OW85925   4.714   5.221   7.701  0.2828  0.1875 -0.0283
27973SOL    HW185926   4.787   5.283   7.695 -0.3758  0.8552 -1.6124
27973SOL    HW285927   4.636   5.276   7.701 -0.2683 -0.5852  0.2340
27974SOL     OW85928  10.997   2.195   9.912 -0.1081  0.3525  0.2853
27974SOL    HW185929  11.083   2.163   9.940 -0.1255 -0.1636 -0.2204
27974SOL    HW285930  10.952   2.219   9.993 -0.0820 -0.8918  0.6842
27975SOL     OW85931   2.768  10.810   8.942  0.2547 -0.0981  0.0865
27975SOL    HW185932   2.816  10.862   8.877  0.6680 -1.4854 -0.7659
27975SOL    HW285933   2.836  10.763   8.989 -0.1856 -1.3892 -0.5166
27976SOL     OW85934   9.479   5.443   5.087  0.7457 -0.4701 -0.0115
27976SOL    HW185935   9.418   5.511   5.060 -0.2816 -1.3350  0.0511
27976SOL    HW285936   9.483   5.383   5.013 -0.2619 -1.6114  0.8185
27977SOL     OW85937   9.501   6.480   3.726  0.1617 -0.2125 -0.5025
27977SOL    HW185938   9.452   6.397   3.729 -0.0331 -0.1437 -1.5321
27977SOL    HW285939   9.435   6.546   3.746  0.4511 -0.3380  0.9709
27978SOL     OW85940  11.019   9.200   0.356 -0.3940 -0.3776  0.1424
27978SOL    HW185941  10.979   9.170   0.275 -1.1711  2.3867 -0.6165
27978SOL    HW285942  10.949   9.195   0.421  0.0659 -2.0314  0.5629
27979SOL     OW85943   6.652   5.401   0.286  0.5791  0.1388  0.4730
27979SOL    HW185944   6.595   5.411   0.211 -1.3416  0.6031  1.9329
27979SOL    HW285945   6.663   5.306   0.295 -2.4541 -0.1849  1.8752
27980SOL     OW85946   8.362   4.791   1.350 -0.1711  0.1439  0.3054
27980SOL    HW185947   8.326   4.817   1.435 -0.1595  0.6853  0.1479
27980SOL    HW285948   8.455   4.779   1.367 -0.5675 -2.5961  1.0344
27981SOL     OW85949   1.386   3.899   1.701 -0.6426 -0.2218  0.0074
27981SOL    HW185950   1.433   3.868   1.779 -0.4311 -0.4835 -0.2262
27981SOL    HW285951   1.429   3.855   1.628 -2.2710 -1.7447 -0.0973
27982SOL     OW85952   3.276   8.991   4.303  0.6986 -0.2810  0.3052
27982SOL    HW185953   3.279   8.972   4.210 -0.6269  2.0052 -0.2826
27982SOL    HW285954   3.363   9.027   4.323  0.6082  0.3126 -0.3341
27983SOL     OW85955   7.988   4.414  11.097 -0.1124  0.0643  0.1366
27983SOL    HW185956   7.894   4.409  11.078 -0.6662 -2.0464  2.7798
27983SOL    HW285957   8.030   4.411  11.011 -2.4187 -0.1178 -1.0711
27984SOL     OW85958   1.730   6.896   8.739 -0.0080  0.6307 -0.0524
27984SOL    HW185959   1.706   6.964   8.675 -1.0950 -0.6956 -1.1069
27984SOL    HW285960   1.649   6.881   8.788  0.8463  1.7311  1.8072
27985SOL     OW85961   9.783   9.779   1.595  0.1796  0.5867 -0.3881
27985SOL    HW185962   9.696   9.752   1.566 -0.6786  0.4225  2.0570
27985SOL    HW285963   9.834   9.786   1.515 -1.8097 -0.2670 -1.8232
27986SOL     OW85964  10.855   0.399   1.759 -0.2976 -0.1553  0.0462
27986SOL    HW185965  10.916   0.462   1.720  0.2406 -1.5422 -1.4429
27986SOL    HW285966  10.768   0.432   1.735 -0.0734  0.6210  0.2612
27987SOL     OW85967   2.369   3.268   3.983 -0.1099  0.2985 -0.4212
27987SOL    HW185968   2.376   3.201   4.051 -0.7760  2.0896  1.5492
27987SOL    HW285969   2.288   3.247   3.936 -0.4735 -0.1299  0.3789
27988SOL     OW85970   8.167   5.825   8.150  0.0172 -0.2761  0.5156
27988SOL    HW185971   8.100   5.873   8.198 -0.0601 -1.2573  1.4107
27988SOL    HW285972   8.139   5.734   8.153  0.7252 -0.5302 -0.2183
27989SOL     OW85973   1.849   3.051  10.187 -0.9785  0.2713 -0.4084
27989SOL    HW185974   1.939   3.049  10.155 -1.2736 -1.1608 -1.1953
27989SOL    HW285975   1.837   2.968  10.234 -1.6013  0.8696  0.5481
27990SOL     OW85976   0.916   0.489   8.149 -0.1781  0.0733 -0.0376
27990SOL    HW185977   0.944   0.563   8.095 -0.5561  0.4969  0.3263
27990SOL    HW285978   0.830   0.516   8.182  0.5547  0.3790  1.7488
27991SOL     OW85979   6.743   8.361   1.113  0.2603 -0.0875  0.3903
27991SOL    HW185980   6.793   8.389   1.190 -1.2618 -0.4618  1.5729
27991SOL    HW285981   6.696   8.440   1.085 -1.3550 -0.5644  1.6093
27992SOL     OW85982   4.230   7.647   3.886  0.2665 -0.0190 -0.4240
27992SOL    HW185983   4.250   7.556   3.909 -0.4864 -0.6560 -2.1247
27992SOL    HW285984   4.148   7.641   3.837 -0.2100  1.6834  0.1014
27993SOL     OW85985   4.934   8.475   9.705  0.0233  0.1610  0.4735
27993SOL    HW185986   4.955   8.564   9.678 -0.8047  0.6072  1.2344
27993SOL    HW285987   4.850   8.483   9.749 -0.7485 -1.2319 -0.6741
27994SOL     OW85988   0.185   7.150   2.838  0.5964 -0.1764  0.1082
27994SOL    HW185989   0.125   7.111   2.902 -1.1159  1.4746 -0.3747
27994SOL    HW285990   0.157   7.113   2.754  1.0724 -0.3195  0.0110
27995SOL     OW85991   1.306  10.244   7.418 -0.0275 -0.0258  0.1558
27995SOL    HW185992   1.268  10.283   7.496 -1.8634 -1.2852 -0.0500
27995SOL    HW285993   1.323  10.319   7.360  0.6299  0.8380  1.4026
27996SOL     OW85994   8.102   8.944   6.933 -0.1479 -0.3229  0.0096
27996SOL    HW185995   8.173   8.885   6.908 -1.0138 -0.8781 -1.2732
27996SOL    HW285996   8.029   8.887   6.955 -1.1132  0.2009 -1.5896
27997SOL     OW85997   5.813   6.118   8.641 -0.6022  0.3034  0.6814
27997SOL    HW185998   5.886   6.163   8.598 -0.2346 -1.4045 -0.6032
27997SOL    HW285999   5.847   6.031   8.661 -3.1788 -1.9749 -3.3138
27998SOL     OW86000   6.161   9.328   8.720  0.5034 -0.0755 -0.0649
27998SOL    HW186001   6.152   9.240   8.756 -1.6528  1.0817  2.5476
27998SOL    HW286002   6.085   9.339   8.663 -0.1063  0.5648  0.8372
27999SOL     OW86003   5.813   9.921   3.937  0.2382  0.1903  0.6904
27999SOL    HW186004   5.740   9.982   3.929 -0.8561 -1.2788 -1.9365
27999SOL    HW286005   5.829   9.915   4.031 -0.7380  3.1064  1.1601
28000SOL     OW86006   5.380  11.093   0.018  0.6943  0.0171 -0.2618
28000SOL    HW186007   5.384  11.133  -0.069 -1.3361  1.1682  0.1228
28000SOL    HW286008   5.395  11.165   0.079  0.5287 -0.4901  0.3934
28001SOL     OW86009   5.091  10.303   3.070 -0.8876  0.1380  0.0814
28001SOL    HW186010   5.122  10.340   3.153 -2.8027  1.2031  0.3747
28001SOL    HW286011   5.103  10.209   3.080  3.1077  0.4427 -0.2449
28002SOL     OW86012   4.905   0.807   2.870  0.2108  0.6031 -0.5986
28002SOL    HW186013   4.926   0.881   2.926 -1.3480  1.3309 -0.8971
28002SOL    HW286014   4.979   0.747   2.878 -0.2281  0.3444  2.7572
28003SOL     OW86015   6.902   4.595  10.392 -0.6430 -0.6822 -0.0338
28003SOL    HW186016   6.954   4.541  10.452  0.2486 -0.4987 -0.6333
28003SOL    HW286017   6.884   4.538  10.318  0.4202 -0.1429 -0.7336
28004SOL     OW86018   1.713   3.214   6.073 -0.3326 -0.3341  0.4076
28004SOL    HW186019   1.755   3.299   6.079 -1.7248  0.4857 -0.8054
28004SOL    HW286020   1.649   3.223   6.002 -1.6333 -1.9023  1.2879
28005SOL     OW86021   9.831   4.792   8.447 -0.2552 -0.0880  0.5951
28005SOL    HW186022   9.842   4.885   8.464 -1.1081 -0.1268  1.4637
28005SOL    HW286023   9.776   4.788   8.369 -1.1025  0.1719  1.1534
28006SOL     OW86024  10.582   6.951   0.917  0.6271  0.0417  0.1129
28006SOL    HW186025  10.595   6.922   1.008 -0.2427  0.2791  0.3217
28006SOL    HW286026  10.511   7.015   0.922  3.0614  3.0060 -0.2076
28007SOL     OW86027   0.733   7.476   3.592  0.3530 -0.1316  0.3771
28007SOL    HW186028   0.721   7.394   3.544  1.7998 -0.2538  0.1957
28007SOL    HW286029   0.651   7.487   3.640 -1.4910  0.3640 -2.6151
28008SOL     OW86030   0.298   1.503   8.736  0.1825 -0.0616  0.1032
28008SOL    HW186031   0.292   1.524   8.829 -0.1175  0.2387  0.0196
28008SOL    HW286032   0.392   1.500   8.717  0.2471  2.0663 -0.0665
28009SOL     OW86033   2.108   4.760   2.043  0.7252 -0.1945  0.3102
28009SOL    HW186034   2.119   4.835   2.101  0.0857  0.3556 -0.2591
28009SOL    HW286035   2.196   4.725   2.031  0.7203 -1.2831  2.8371
28010SOL     OW86036   7.239   2.145   1.151  0.1498 -0.0221  0.4122
28010SOL    HW186037   7.248   2.059   1.110  0.8353  0.1214  0.2459
28010SOL    HW286038   7.266   2.207   1.083 -0.9689  0.3777  0.3054
28011SOL     OW86039   5.700  10.285  10.107  0.3090 -0.1155 -0.0911
28011SOL    HW186040   5.781  10.236  10.089  1.0654  0.5188  1.3863
28011SOL    HW286041   5.632  10.217  10.113  0.6943 -0.6468 -1.4570
28012SOL     OW86042   8.952   7.984   1.373 -0.4269 -0.8351 -0.2517
28012SOL    HW186043   8.990   7.897   1.388 -1.2602 -1.2876 -0.7018
28012SOL    HW286044   9.021   8.045   1.399  0.3776 -1.6328 -0.4720
28013SOL     OW86045   2.791   0.486  10.601  0.0974  0.4031  0.0462
28013SOL    HW186046   2.827   0.446  10.522  1.0325  2.1608 -0.4830
28013SOL    HW286047   2.868   0.507  10.655 -0.3538  1.3783  0.3366
28014SOL     OW86048   5.957  11.100   3.476  0.2693 -0.0513 -0.4764
28014SOL    HW186049   5.965  11.022   3.421  2.0960 -1.0155  1.0399
28014SOL    HW286050   6.025  11.158   3.444  0.2598  0.0634 -0.2886
28015SOL     OW86051   1.495   9.805   5.903 -0.3656  0.4205 -0.4327
28015SOL    HW186052   1.469   9.896   5.888 -1.1289  0.4175  0.7155
28015SOL    HW286053   1.590   9.804   5.893 -0.1950  1.6163  0.7623
28016SOL     OW86054   7.534   9.041   8.912 -0.0084  0.4072  0.1946
28016SOL    HW186055   7.492   9.094   8.844  1.2561  0.1425 -0.8079
28016SOL    HW286056   7.614   9.089   8.934  0.1655 -0.1009  0.6930
28017SOL     OW86057   8.900   7.384   8.547 -0.2774  0.5845  0.5656
28017SOL    HW186058   8.819   7.372   8.596 -1.0083 -0.4884 -0.7985
28017SOL    HW286059   8.941   7.462   8.584 -1.8302  1.0176  1.4315
28018SOL     OW86060   5.684   7.271   6.888  0.5007 -0.2190  0.1301
28018SOL    HW186061   5.683   7.296   6.796  2.4633  1.3275  0.4595
28018SOL    HW286062   5.760   7.316   6.924  1.5779 -3.1301  1.8515
28019SOL     OW86063   8.655   7.711   9.455  0.4819  0.4064  0.8006
28019SOL    HW186064   8.680   7.658   9.532  0.1265  0.9116  1.2664
28019SOL    HW286065   8.712   7.788   9.460  0.2192  0.6051  0.7519
28020SOL     OW86066   7.332  10.227   8.814  0.1162 -0.1774 -0.3184
28020SOL    HW186067   7.349  10.321   8.824 -1.8634  0.3998 -1.8600
28020SOL    HW286068   7.266  10.222   8.745 -1.5233 -2.5654  1.2863
28021SOL     OW86069   8.551   9.604   7.166  0.6803  0.3843  0.1816
28021SOL    HW186070   8.633   9.627   7.209  0.8340  0.2673 -0.0479
28021SOL    HW286071   8.569   9.521   7.122  0.0667 -0.3033  1.1927
28022SOL     OW86072   1.527   9.452   5.097 -0.1727 -0.7918 -0.7766
28022SOL    HW186073   1.530   9.457   5.002 -0.0067  0.8071 -0.7033
28022SOL    HW286074   1.442   9.490   5.121  0.4177  0.2250 -0.2225
28023SOL     OW86075   0.286   2.135  10.462  0.2890 -0.1071  0.7055
28023SOL    HW186076   0.238   2.136  10.379  0.0886 -2.5211  0.7442
28023SOL    HW286077   0.228   2.181  10.523  0.5610  1.9596 -0.4790
28024SOL     OW86078   4.149   5.166   1.833  0.2276 -0.3209  0.0479
28024SOL    HW186079   4.102   5.192   1.754 -1.2889 -2.0715  0.2972
28024SOL    HW286080   4.196   5.087   1.808 -1.3570 -1.6917  1.1629
28025SOL     OW86081   9.842   2.172   0.693  0.0357 -0.2616  0.1559
28025SOL    HW186082   9.776   2.178   0.625  1.7328 -1.5832 -1.7518
28025SOL    HW286083   9.859   2.078   0.702  2.0300  0.0352  0.1124
28026SOL     OW86084   7.459  10.241   7.967  0.3388 -0.5401 -0.3305
28026SOL    HW186085   7.538  10.251   7.914  0.0184  0.9600 -0.5754
28026SOL    HW286086   7.393  10.295   7.922  0.3245  1.6768  2.1001
28027SOL     OW86087   7.496   6.692   1.947  0.0620 -0.1174  0.1979
28027SOL    HW186088   7.455   6.638   1.879 -0.0212 -0.3403  0.4244
28027SOL    HW286089   7.524   6.630   2.014 -0.9226  0.1925  0.9352
28028SOL     OW86090   7.251   5.504   8.115 -0.1067 -0.3585  0.5559
28028SOL    HW186091   7.213   5.591   8.101 -1.2436 -0.8999  0.1553
28028SOL    HW286092   7.278   5.476   8.027  0.9306 -0.1321  0.7846
28029SOL     OW86093   6.351   5.732   2.188  0.3150  0.4288 -0.2272
28029SOL    HW186094   6.361   5.772   2.274 -1.5263 -1.5192  0.9659
28029SOL    HW286095   6.411   5.657   2.189 -1.6266 -1.1960  0.4655
28030SOL     OW86096   6.064   1.207   5.842 -0.2159 -0.1707 -0.0345
28030SOL    HW186097   6.104   1.288   5.875  1.5783 -1.2857  0.6715
28030SOL    HW286098   6.054   1.152   5.920  0.1480 -1.2471 -0.7301
28031SOL     OW86099  10.738   9.793   9.817  0.8217 -0.4304 -0.3762
28031SOL    HW186100  10.645   9.811   9.829  1.1193  0.0117  1.8023
28031SOL    HW286101  10.769   9.863   9.760  0.2094  0.7231  0.6523
28032SOL     OW86102   7.099   7.236   9.843 -0.2142 -0.2873 -0.5158
28032SOL    HW186103   7.135   7.169   9.784  0.9213  0.3189 -0.5270
28032SOL    HW286104   7.091   7.314   9.788  1.3306  0.4298  0.2141
28033SOL     OW86105   8.524   2.502   8.319 -0.6679 -0.4957 -0.7435
28033SOL    HW186106   8.547   2.436   8.254 -1.2663  1.3290 -2.9372
28033SOL    HW286107   8.432   2.521   8.302 -0.6364  0.5593  0.1415
28034SOL     OW86108   8.803   4.097   3.276 -0.4561 -0.0360  0.2384
28034SOL    HW186109   8.764   4.143   3.350 -0.1274 -1.1852  1.1442
28034SOL    HW286110   8.898   4.105   3.290 -0.3548  0.9894 -0.8595
28035SOL     OW86111   8.635   3.740   6.475  0.2411  0.3277 -0.3673
28035SOL    HW186112   8.665   3.734   6.385  1.5678 -0.4358  0.1006
28035SOL    HW286113   8.668   3.824   6.506 -0.0540  0.5060 -0.5384
28036SOL     OW86114   7.806   5.896   1.742 -0.0814  0.6739 -0.1258
28036SOL    HW186115   7.753   5.818   1.727 -0.8553  1.1648 -0.0235
28036SOL    HW286116   7.894   5.863   1.755  0.0677 -0.0361 -2.4378
28037SOL     OW86117   5.816   6.122   3.989 -0.2591  0.0936  0.0558
28037SOL    HW186118   5.877   6.166   3.930  0.2999 -1.9951 -1.0368
28037SOL    HW286119   5.871   6.075   4.050 -0.7119 -1.6234 -0.7933
28038SOL     OW86120   8.238   6.815   7.744 -0.1026  0.4194 -0.5450
28038SOL    HW186121   8.231   6.721   7.725 -0.2125 -0.0490  1.5850
28038SOL    HW286122   8.226   6.821   7.838  0.1192  2.5798 -0.6152
28039SOL     OW86123   9.324   3.256   3.779  0.3096  0.4087  0.0973
28039SOL    HW186124   9.272   3.294   3.850 -0.6574  1.1270 -0.9597
28039SOL    HW286125   9.414   3.275   3.803 -0.0935  3.4529 -0.3275
28040SOL     OW86126   1.284   5.994   6.914 -0.4980 -0.2715 -0.4904
28040SOL    HW186127   1.329   6.023   6.835  0.1682 -0.5312 -0.2133
28040SOL    HW286128   1.196   6.031   6.906 -0.0447  0.7854 -0.7310
28041SOL     OW86129   3.540   8.657   8.290  0.2058  0.2233 -0.4734
28041SOL    HW186130   3.499   8.724   8.236  0.0715  1.6904  1.3580
28041SOL    HW286131   3.467   8.616   8.336  0.3086 -1.0879 -1.4335
28042SOL     OW86132   0.308   5.299   2.177 -0.6403  0.3283 -0.2115
28042SOL    HW186133   0.328   5.205   2.185 -0.8022  0.4712  2.8141
28042SOL    HW286134   0.259   5.320   2.256 -0.5392  3.0194 -0.7833
28043SOL     OW86135   5.333   1.160   2.550  0.4446  0.8188 -0.1259
28043SOL    HW186136   5.373   1.106   2.619  1.4458  0.0692 -1.2496
28043SOL    HW286137   5.240   1.162   2.573  0.5145 -0.6739  0.4530
28044SOL     OW86138   9.114  10.504   0.271 -0.6421 -0.3420 -0.0539
28044SOL    HW186139   9.030  10.483   0.311 -1.1061  1.5504  0.0404
28044SOL    HW286140   9.091  10.547   0.188  0.1881  0.8609  0.3107
28045SOL     OW86141  10.031   9.902  10.934 -0.2288 -0.1381  0.2078
28045SOL    HW186142   9.965   9.902  10.866 -0.2742  0.7547  0.2453
28045SOL    HW286143   9.981   9.904  11.016 -0.1665  0.1245  0.2417
28046SOL     OW86144  10.559   4.051   7.739 -0.0683  0.3218  0.2686
28046SOL    HW186145  10.540   4.144   7.745  0.2156  0.4587 -0.7480
28046SOL    HW286146  10.565   4.034   7.645 -1.7118 -1.0537  0.3609
28047SOL     OW86147  10.747  10.741   3.362  0.5287  0.0428  0.2312
28047SOL    HW186148  10.816  10.801   3.334 -0.3531  0.4860 -1.0862
28047SOL    HW286149  10.677  10.753   3.297 -0.3566 -1.1643  0.9266
28048SOL     OW86150   5.618   4.717   3.398 -0.5076  0.3718  0.0612
28048SOL    HW186151   5.629   4.622   3.395  1.6621  0.5354  0.5228
28048SOL    HW286152   5.576   4.739   3.316  0.5171 -0.8532 -0.8390
28049SOL     OW86153   1.366   4.849   8.948 -0.7012  0.4798  0.2548
28049SOL    HW186154   1.316   4.931   8.940  0.8022  1.3266 -1.2159
28049SOL    HW286155   1.434   4.857   8.881  0.0853 -1.5662  0.7613
28050SOL     OW86156   3.139   9.616   9.073  0.3336 -0.0859  0.0011
28050SOL    HW186157   3.081   9.539   9.070  1.5713 -1.0376 -2.0984
28050SOL    HW286158   3.112   9.668   8.997  2.1127 -0.5269 -0.9965
28051SOL     OW86159   3.543   7.600   0.429 -0.1358 -0.1879  0.3155
28051SOL    HW186160   3.459   7.643   0.413 -0.4170 -0.6489  0.5023
28051SOL    HW286161   3.552   7.601   0.524 -0.5010 -1.1656  0.3790
28052SOL     OW86162   4.056   9.167  10.614  0.2919 -0.1059  0.1058
28052SOL    HW186163   4.093   9.115  10.542  0.2927  0.0929 -0.0399
28052SOL    HW286164   4.118   9.239  10.625 -0.7447  1.0016 -1.0621
28053SOL     OW86165   6.492   8.577   3.380 -0.0146  0.1948 -0.7839
28053SOL    HW186166   6.493   8.528   3.462  0.6372  3.2150  1.1687
28053SOL    HW286167   6.476   8.510   3.313  1.0054 -2.6659  1.5740
28054SOL     OW86168   1.915   8.602   8.614  0.0403 -0.1755 -0.4791
28054SOL    HW186169   1.959   8.671   8.564  1.4885 -1.6645 -1.3471
28054SOL    HW286170   1.958   8.604   8.700 -1.7816  1.7291  0.4837
28055SOL     OW86171   4.929   0.038  10.015  0.6266 -0.0827  0.2713
28055SOL    HW186172   4.961   0.019  10.102 -0.3344 -1.9448  0.2610
28055SOL    HW286173   4.834   0.048  10.026  0.5572  0.1724 -0.4871
28056SOL     OW86174   6.477   8.219   1.001  0.6227 -0.1731 -0.3472
28056SOL    HW186175   6.528   8.292   1.035 -1.6909  1.4939 -0.2116
28056SOL    HW286176   6.391   8.256   0.981  0.3917 -2.0641 -3.6919
28057SOL     OW86177   3.837   6.218   2.129 -0.5818 -0.2971 -0.2465
28057SOL    HW186178   3.804   6.147   2.074 -1.6143  0.4151 -0.5666
28057SOL    HW286179   3.772   6.226   2.199 -0.6667  0.5700 -0.4149
28058SOL     OW86180   7.101   1.783   2.845 -0.2590  0.1409  0.1172
28058SOL    HW186181   7.185   1.747   2.817  0.9540  0.0585  3.3762
28058SOL    HW286182   7.062   1.712   2.898 -1.1638  1.0749  0.7313
28059SOL     OW86183   2.800   8.433  10.090  0.0684  0.0502 -0.3748
28059SOL    HW186184   2.838   8.354  10.053 -2.4512 -0.9420 -1.0654
28059SOL    HW286185   2.713   8.406  10.119  0.2879  1.8491  2.3035
28060SOL     OW86186   1.485   4.268   6.510 -0.0109 -0.4782 -0.2271
28060SOL    HW186187   1.441   4.253   6.594 -1.3502  0.4597 -0.7086
28060SOL    HW286188   1.424   4.232   6.445  0.5274 -0.2917 -0.8452
28061SOL     OW86189  10.470   3.527   8.519 -0.1072 -0.3097 -0.2588
28061SOL    HW186190  10.443   3.440   8.548  0.6081 -0.5044 -0.1520
28061SOL    HW286191  10.454   3.584   8.594  1.8703 -0.8364  0.6308
28062SOL     OW86192   4.729   7.403   2.154 -0.6575  0.5848 -0.3267
28062SOL    HW186193   4.774   7.393   2.238 -1.3210  0.0295 -0.0308
28062SOL    HW286194   4.673   7.326   2.147 -1.6524  1.3108 -0.6372
28063SOL     OW86195  10.486   9.062   9.726 -0.0505  0.6210 -0.4914
28063SOL    HW186196  10.391   9.058   9.736 -0.4980  0.3214 -3.8165
28063SOL    HW286197  10.514   8.971   9.729 -0.0994  0.5831 -1.0756
28064SOL     OW86198   6.112  10.170   9.654  0.1759  1.5510  0.2650
28064SOL    HW186199   6.127  10.259   9.623  0.8434  1.1569 -0.5865
28064SOL    HW286200   6.155  10.166   9.739  1.0370  1.7577 -0.1478
28065SOL     OW86201   7.126   9.970   3.881  0.5142  0.3662  0.1200
28065SOL    HW186202   7.055   9.909   3.863 -0.0454  0.4926  1.7792
28065SOL    HW286203   7.206   9.920   3.862  0.0362  0.3788 -2.2338
28066SOL     OW86204   1.608   6.911   1.833  0.5775 -0.4137 -0.0421
28066SOL    HW186205   1.563   6.979   1.784 -1.6478 -1.6767  0.0591
28066SOL    HW286206   1.690   6.896   1.786  0.5723  1.4694 -0.7285
28067SOL     OW86207   1.315   0.486   3.543  0.3485 -0.1421 -0.1802
28067SOL    HW186208   1.377   0.517   3.477  0.6437  1.0402  0.6157
28067SOL    HW286209   1.282   0.566   3.584  0.6021 -0.8461  1.4791
28068SOL     OW86210   3.925   6.304   1.296  0.0309 -0.3435 -0.4064
28068SOL    HW186211   3.999   6.365   1.290 -0.6433  0.5966  0.5873
28068SOL    HW286212   3.946   6.235   1.232  1.4207  0.2612 -0.6381
28069SOL     OW86213   8.179   7.913   5.694  0.0273 -0.0934 -0.0085
28069SOL    HW186214   8.126   7.894   5.617 -0.0520  0.3157 -0.0558
28069SOL    HW286215   8.151   7.848   5.759 -0.4630  0.0591 -0.0655
28070SOL     OW86216   4.368   0.463   0.880 -0.0448 -0.3615  0.5593
28070SOL    HW186217   4.406   0.376   0.869  1.9890  0.4444  0.9045
28070SOL    HW286218   4.409   0.517   0.812 -2.1892  0.1115 -0.4647
28071SOL     OW86219   6.750   6.985   9.280 -0.0280  0.1822 -0.3011
28071SOL    HW186220   6.767   6.895   9.310 -0.1572  0.7882  1.7149
28071SOL    HW286221   6.833   7.030   9.292 -0.2077  0.5562 -0.4467
28072SOL     OW86222   0.358   0.795   4.634 -0.0927  0.5246  0.6468
28072SOL    HW186223   0.339   0.849   4.558  1.3242 -0.1197 -0.1987
28072SOL    HW286224   0.292   0.726   4.632  0.8474 -0.3925 -0.9463
28073SOL     OW86225   1.007   7.368   6.774  0.3069 -0.1828 -0.4214
28073SOL    HW186226   1.030   7.288   6.726  0.0840 -0.4925 -0.0209
28073SOL    HW286227   1.048   7.357   6.859  2.3347  1.2320 -1.1571
28074SOL     OW86228   4.228   1.433   2.099  0.3853 -0.2634 -0.5434
28074SOL    HW186229   4.239   1.524   2.125 -0.8250  0.3366 -1.9778
28074SOL    HW286230   4.138   1.428   2.065  0.5714 -1.8856 -0.9061
28075SOL     OW86231   1.990   4.864   2.998  0.1769  0.0238  0.0728
28075SOL    HW186232   2.074   4.854   3.042  1.8019 -0.5147 -2.8734
28075SOL    HW286233   1.930   4.807   3.047  1.2229  1.0913  2.7654
28076SOL     OW86234   7.820   9.835  10.491  0.5157  0.1269  0.1234
28076SOL    HW186235   7.851   9.869  10.575 -0.2042 -1.0581  0.8954
28076SOL    HW286236   7.814   9.741  10.504 -1.6085  0.1107 -0.5524
28077SOL     OW86237   2.181   8.520   1.133  0.3050  0.1194  0.1743
28077SOL    HW186238   2.129   8.457   1.183  0.6696 -1.4430 -1.3005
28077SOL    HW286239   2.171   8.491   1.042  0.9062  1.9241 -0.5016
28078SOL     OW86240   3.760  10.461  10.849  0.5053 -0.8224  0.2036
28078SOL    HW186241   3.814  10.383  10.837  1.4357 -0.0257 -1.0640
28078SOL    HW286242   3.705  10.464  10.771 -1.4573 -1.6336  1.4906
28079SOL     OW86243   9.301  10.466   7.440  0.1426  0.0422  0.7296
28079SOL    HW186244   9.370  10.526   7.468 -0.2119  1.7372 -1.6992
28079SOL    HW286245   9.303  10.395   7.504  2.7980  1.0102  1.8522
28080SOL     OW86246   6.990   0.755   5.580 -0.1370 -0.1728  0.1491
28080SOL    HW186247   6.955   0.786   5.664  1.8445  0.0730  0.9456
28080SOL    HW286248   7.084   0.774   5.585  0.0635 -0.3581 -2.0559
28081SOL     OW86249   9.392   5.164   4.583  0.4008 -0.4306  0.5766
28081SOL    HW186250   9.353   5.166   4.496  1.5372 -2.4647 -0.0389
28081SOL    HW286251   9.486   5.168   4.568  0.5749  2.1537  1.9185
28082SOL     OW86252   6.876   1.287   7.804 -0.4289 -0.0907  0.0061
28082SOL    HW186253   6.942   1.231   7.845 -1.7514 -1.7876 -0.0595
28082SOL    HW286254   6.832   1.330   7.877  0.2162  0.4180  0.0956
28083SOL     OW86255   6.476   0.348   4.133  0.1569 -0.0257  0.8649
28083SOL    HW186256   6.546   0.303   4.180  1.1295  2.0374  1.5112
28083SOL    HW286257   6.504   0.347   4.041 -0.4536 -1.7542  0.6609
28084SOL     OW86258   1.159   0.622   2.793  0.6527  0.4224  0.4757
28084SOL    HW186259   1.231   0.685   2.793  0.9246  0.1160  1.0622
28084SOL    HW286260   1.174   0.569   2.870  0.1867 -0.0968  0.2122
28085SOL     OW86261   5.207  10.495   0.567  0.3514 -0.0387 -0.2678
28085SOL    HW186262   5.212  10.567   0.505  0.3519  1.3491  1.2812
28085SOL    HW286263   5.253  10.526   0.644 -0.2515 -1.4322  0.7047
28086SOL     OW86264  10.888   0.356   6.070 -0.0118  0.3650  0.2074
28086SOL    HW186265  10.859   0.340   6.159 -0.4829  0.4701  0.0756
28086SOL    HW286266  10.870   0.274   6.023 -2.1772  1.1259 -0.4027
28087SOL     OW86267   3.249   8.812  10.512  0.2518 -0.1223  0.7968
28087SOL    HW186268   3.246   8.907  10.525  0.2842  0.0381 -0.3383
28087SOL    HW286269   3.265   8.777  10.600 -0.0642  0.9022  1.2793
28088SOL     OW86270   9.983   5.395   1.412  0.6112 -0.1433  0.9946
28088SOL    HW186271  10.068   5.432   1.390  0.6460  0.0025  1.3826
28088SOL    HW286272   9.927   5.418   1.337  1.3312 -1.6945 -0.0650
28089SOL     OW86273   3.416   0.618   4.518  0.2938  0.2792 -0.0694
28089SOL    HW186274   3.435   0.539   4.466  1.5816  0.5713 -0.0888
28089SOL    HW286275   3.440   0.593   4.607  3.2261  1.3941 -0.4436
28090SOL     OW86276   7.305   8.498  11.019  0.3282  0.2394 -0.5232
28090SOL    HW186277   7.312   8.487  10.924  0.3595 -0.4716 -0.4420
28090SOL    HW286278   7.216   8.470  11.040 -0.4391  2.4142 -0.6017
28091SOL     OW86279   6.707   8.950   6.811  0.6300 -0.8485 -0.3381
28091SOL    HW186280   6.653   8.927   6.735  1.0272 -1.8335 -0.3328
28091SOL    HW286281   6.704   9.046   6.814 -0.5705 -0.8592 -0.7255
28092SOL     OW86282   1.404   2.488   3.170 -0.0705 -0.4057  0.0962
28092SOL    HW186283   1.445   2.430   3.106  0.4353  0.0962 -0.0473
28092SOL    HW286284   1.477   2.525   3.219 -0.4119 -0.2030  0.4556
28093SOL     OW86285   7.391   0.314   4.766 -0.2123  0.1432 -0.5034
28093SOL    HW186286   7.431   0.374   4.703 -0.2172  0.3472 -0.3118
28093SOL    HW286287   7.349   0.247   4.712  1.0494 -0.5163 -0.7102
28094SOL     OW86288   7.054   6.160   3.542 -0.4296 -0.2020 -0.0544
28094SOL    HW186289   6.958   6.168   3.550 -0.7063 -0.9026 -2.1987
28094SOL    HW286290   7.068   6.075   3.501  1.1177 -0.0129  0.0231
28095SOL     OW86291   3.064   9.635   1.208  0.1832  0.6843 -0.4509
28095SOL    HW186292   3.081   9.581   1.285  0.7350  1.6673  0.1384
28095SOL    HW286293   2.986   9.686   1.231 -0.3042  0.1921 -0.9826
28096SOL     OW86294   3.864   1.357   6.749  0.4158 -0.1531  0.2693
28096SOL    HW186295   3.902   1.367   6.836 -0.1015  0.2368  0.4559
28096SOL    HW286296   3.803   1.430   6.741 -0.4479 -0.8679  0.0626
28097SOL     OW86297   6.030   0.197   4.675  0.6909  0.6304 -0.2641
28097SOL    HW186298   6.064   0.285   4.686  2.0489  0.7276 -3.8036
28097SOL    HW286299   5.972   0.202   4.599  0.0775 -1.3693 -0.0037
28098SOL     OW86300   5.983   9.135   1.627 -0.2512 -0.8106 -0.0640
28098SOL    HW186301   6.075   9.122   1.651 -0.2385  0.0618  0.4122
28098SOL    HW286302   5.982   9.218   1.579 -0.8235 -0.6974  0.1326
28099SOL     OW86303   7.226   7.738   4.552 -0.4280 -0.0634  0.2111
28099SOL    HW186304   7.165   7.790   4.605 -0.9340  0.1262 -0.5328
28099SOL    HW286305   7.173   7.665   4.519 -0.2322  0.0533 -0.3691
28100SOL     OW86306   4.673   1.544   5.679  0.2881  0.1182  0.1629
28100SOL    HW186307   4.745   1.487   5.707  0.0208 -0.4771 -0.3406
28100SOL    HW286308   4.631   1.496   5.607 -1.0128  0.1442  0.8688
28101SOL     OW86309   2.835   9.106   4.370 -0.3631 -0.1700  0.1439
28101SOL    HW186310   2.884   9.025   4.356 -1.1390 -0.4730 -0.8853
28101SOL    HW286311   2.766   9.082   4.432 -0.7026 -0.3472 -0.2991
28102SOL     OW86312   6.973   9.376   4.140 -0.9719 -0.4013  0.4624
28102SOL    HW186313   6.998   9.391   4.048  1.6731 -2.3483  0.7531
28102SOL    HW286314   6.963   9.281   4.147 -1.0738 -0.2967  2.1837
28103SOL     OW86315   7.224   3.275   0.260 -0.3903  0.4586 -0.2029
28103SOL    HW186316   7.311   3.236   0.266 -0.5304  0.3247  1.1408
28103SOL    HW286317   7.165   3.210   0.296 -1.1955  0.1921 -1.9025
28104SOL     OW86318   8.500   6.296   7.381 -0.8737 -0.4129  0.2672
28104SOL    HW186319   8.494   6.354   7.458  1.1682 -0.2010  0.3396
28104SOL    HW286320   8.566   6.232   7.406  0.3046  0.0381 -1.5148
28105SOL     OW86321   7.791   9.180   1.743 -0.1050 -0.0370 -0.3094
28105SOL    HW186322   7.743   9.261   1.725 -0.5456 -0.3504 -0.5339
28105SOL    HW286323   7.749   9.114   1.689  0.4525 -0.3560 -0.3589
28106SOL     OW86324   5.998   7.319   1.778  0.0562 -0.6562 -0.2615
28106SOL    HW186325   6.083   7.317   1.823  0.3064  0.2559 -0.6624
28106SOL    HW286326   5.951   7.242   1.811  0.3171 -0.1455  1.3755
28107SOL     OW86327  10.973   6.285   1.337  0.3544  0.3222 -0.5023
28107SOL    HW186328  10.937   6.256   1.421  0.5644  0.1581 -0.4675
28107SOL    HW286329  11.066   6.262   1.342  0.2113 -0.3918 -1.0894
28108SOL     OW86330   8.337   9.611   7.321  0.1167  0.2337  0.3639
28108SOL    HW186331   8.403   9.633   7.255 -0.2571  0.4322  0.0495
28108SOL    HW286332   8.276   9.553   7.276  1.0731 -1.4905  1.1763
28109SOL     OW86333   4.122   9.104   8.396 -0.4316 -0.0809 -0.1141
28109SOL    HW186334   4.058   9.043   8.432  1.1097 -0.8117  1.5619
28109SOL    HW286335   4.201   9.089   8.448  0.5271  2.1581 -0.8124
28110SOL     OW86336   0.079   9.448   8.103  0.1038 -0.1349  0.0755
28110SOL    HW186337   0.046   9.460   8.192  1.4336 -0.5534  0.6534
28110SOL    HW286338   0.001   9.445   8.049 -0.6873  2.7334  0.8739
28111SOL     OW86339   6.844   1.817  10.723  0.2839 -0.3690  0.3643
28111SOL    HW186340   6.919   1.846  10.775 -0.4578  1.4645  0.4848
28111SOL    HW286341   6.860   1.854  10.636  1.2281 -2.9255 -0.6387
28112SOL     OW86342   9.296   8.167   3.117  0.2621 -0.1381 -0.2828
28112SOL    HW186343   9.221   8.111   3.096 -1.1865  1.7632 -0.4811
28112SOL    HW286344   9.318   8.145   3.207 -1.1012 -0.1531  0.0711
28113SOL     OW86345   1.850   4.148   3.461 -0.3519 -0.0149 -0.0912
28113SOL    HW186346   1.805   4.194   3.531  0.4499 -0.9177  1.0582
28113SOL    HW286347   1.932   4.197   3.449 -1.0126  0.8555 -1.2732
28114SOL     OW86348  10.897   8.712   5.737 -0.3576  0.4697  0.2217
28114SOL    HW186349  10.876   8.619   5.723 -1.6877  0.7084  0.4498
28114SOL    HW286350  10.961   8.733   5.669  0.9059 -0.9119  0.9317
28115SOL     OW86351   7.374   4.459   2.802  0.1704  0.0024 -0.4240
28115SOL    HW186352   7.302   4.399   2.779 -0.4936  1.5354 -2.6127
28115SOL    HW286353   7.372   4.462   2.898 -1.1588 -1.7907 -0.3363
28116SOL     OW86354   2.085   4.089   2.379 -0.2667  0.2016  0.0727
28116SOL    HW186355   2.127   4.015   2.334 -0.1951  0.6113 -0.5481
28116SOL    HW286356   2.153   4.157   2.382 -0.5082  0.4437  0.1323
28117SOL     OW86357   0.861   9.620   4.004 -0.2862 -0.3982  0.2376
28117SOL    HW186358   0.912   9.650   3.929  0.5881  0.5406  1.1764
28117SOL    HW286359   0.881   9.527   4.010  1.0404 -0.1315  0.3421
28118SOL     OW86360   3.130   9.915  10.825 -0.0378 -0.1259 -0.2910
28118SOL    HW186361   3.135   9.917  10.921  0.5535 -1.4786 -0.2658
28118SOL    HW286362   3.186   9.842  10.800 -1.3145 -0.7048 -1.5927
28119SOL     OW86363   3.145  10.160   3.140  0.3453  0.2101  0.4009
28119SOL    HW186364   3.212  10.154   3.209 -1.0536  0.3245  1.8142
28119SOL    HW286365   3.092  10.235   3.164 -0.2145  0.2284 -0.7979
28120SOL     OW86366   4.379  10.785   3.436 -0.1664 -0.3708  0.2785
28120SOL    HW186367   4.383  10.879   3.423 -1.4787 -0.4260 -0.7002
28120SOL    HW286368   4.301  10.771   3.489  0.2607 -0.8806  0.7884
28121SOL     OW86369   3.188  10.356   0.772 -0.4964 -0.7500  0.0179
28121SOL    HW186370   3.229  10.421   0.829  1.2694 -0.6426 -1.2797
28121SOL    HW286371   3.138  10.408   0.709 -0.7001 -0.7591  0.1712
28122SOL     OW86372   8.796   9.304   1.930 -0.2141 -0.3122  0.0602
28122SOL    HW186373   8.891   9.297   1.939 -0.2993 -2.0986  0.0862
28122SOL    HW286374   8.762   9.254   2.005 -1.1610 -0.3874 -0.4090
28123SOL     OW86375   9.131   6.753   4.440  0.1583 -0.4458 -0.1566
28123SOL    HW186376   9.139   6.848   4.449  0.2997 -0.3133 -1.5141
28123SOL    HW286377   9.207   6.728   4.387 -0.2668 -1.2141 -0.4061
28124SOL     OW86378   7.273   3.488   7.428  0.1203  0.1698 -0.0309
28124SOL    HW186379   7.270   3.520   7.338 -0.7219  0.1129 -0.0323
28124SOL    HW286380   7.181   3.490   7.457 -0.0040 -2.3003 -0.0515
28125SOL     OW86381   6.306   0.839   4.081  0.0028  0.6358  0.2061
28125SOL    HW186382   6.365   0.785   4.029  1.0845  2.1437 -0.1889
28125SOL    HW286383   6.271   0.779   4.148  1.6083 -0.4037  0.1534
28126SOL     OW86384   4.022   0.365  10.812 -0.0273  0.3607  0.2978
28126SOL    HW186385   4.058   0.383  10.899  1.8524 -0.4120 -0.2671
28126SOL    HW286386   4.046   0.275  10.794  0.0984  0.6748 -1.2360
28127SOL     OW86387   9.238   1.108   4.763 -0.4370 -0.1991 -0.1008
28127SOL    HW186388   9.185   1.093   4.685  0.8768 -1.0039 -0.8735
28127SOL    HW286389   9.178   1.092   4.836 -1.5537  0.0665 -0.9355
28128SOL     OW86390   1.628   5.189   3.934 -0.1328 -0.4154  0.0566
28128SOL    HW186391   1.551   5.242   3.954 -1.5284 -1.9789 -0.9269
28128SOL    HW286392   1.668   5.232   3.859 -0.5082 -0.0579  0.0588
28129SOL     OW86393   6.117   8.012   1.904 -0.3185  0.3667 -0.1344
28129SOL    HW186394   6.166   8.088   1.937  1.4161 -0.4151 -0.7702
28129SOL    HW286395   6.026   8.041   1.904 -0.0974  1.4033  2.4978
28130SOL     OW86396   9.869   8.261  10.490 -0.3511  0.4507 -0.0515
28130SOL    HW186397   9.809   8.308  10.548  0.1938  0.0679  0.8653
28130SOL    HW286398   9.866   8.308  10.407 -0.4289  1.6131  0.5909
28131SOL     OW86399   7.039   7.534   3.564  1.0228  0.1857 -0.4604
28131SOL    HW186400   7.132   7.516   3.552  0.7877 -1.0132 -0.5789
28131SOL    HW286401   6.998   7.504   3.483  0.3379 -0.8278  0.2500
28132SOL     OW86402   1.156   2.333   0.631  0.8633  0.6601  0.3015
28132SOL    HW186403   1.245   2.299   0.627  0.2976 -0.7919 -1.9619
28132SOL    HW286404   1.103   2.261   0.665  0.2706  0.7474 -0.3918
28133SOL     OW86405   4.638   3.704   1.698  0.7446 -0.0864 -0.2493
28133SOL    HW186406   4.563   3.694   1.639  0.5482 -0.4744  0.0681
28133SOL    HW286407   4.663   3.614   1.721 -0.4785  0.0605  1.9209
28134SOL     OW86408   5.283   8.066   1.810 -0.1530 -0.5471 -0.3645
28134SOL    HW186409   5.360   8.017   1.838 -0.4164 -0.9578 -0.3679
28134SOL    HW286410   5.240   8.010   1.746 -0.9924 -0.7466  0.3511
28135SOL     OW86411   6.052   8.552   7.931 -0.4606 -0.0194  0.0178
28135SOL    HW186412   6.129   8.508   7.967  0.6242  0.9580 -0.9804
28135SOL    HW286413   6.045   8.633   7.981 -0.9564 -0.1913  0.2278
28136SOL     OW86414   6.978   2.922   4.229  0.0238 -0.0182 -0.2368
28136SOL    HW186415   6.957   2.991   4.166  0.2296 -0.0648 -0.3593
28136SOL    HW286416   6.919   2.937   4.302 -0.0801  0.1578 -0.3561
28137SOL     OW86417   7.144   5.825   8.436  0.5690 -0.1799 -0.4529
28137SOL    HW186418   7.059   5.782   8.439  0.1935  0.5458  2.0161
28137SOL    HW286419   7.125   5.916   8.412  0.7447 -0.2093 -0.7076
28138SOL     OW86420   5.433  10.664   2.820 -0.3223  0.1073  0.7091
28138SOL    HW186421   5.384  10.582   2.824 -0.4961 -0.1376 -2.9032
28138SOL    HW286422   5.516  10.644   2.865  0.5757 -2.9111 -1.8955
28139SOL     OW86423   4.474   9.180   7.186  0.0108  0.3424  0.2948
28139SOL    HW186424   4.384   9.164   7.155 -0.0332 -1.1215  1.0952
28139SOL    HW286425   4.475   9.273   7.207 -1.5088  0.2811  0.8135
28140SOL     OW86426   5.530   2.493   2.226  0.1049 -0.3907 -0.0435
28140SOL    HW186427   5.611   2.532   2.196 -0.2051  1.4049  1.2900
28140SOL    HW286428   5.480   2.565   2.264 -1.1410 -1.8298  1.2374
28141SOL     OW86429   7.153   6.491   7.257  0.1404  0.0345 -0.4035
28141SOL    HW186430   7.058   6.490   7.274  0.0039  0.9614 -1.0556
28141SOL    HW286431   7.162   6.534   7.172  1.1581  0.0388 -0.3019
28142SOL     OW86432   2.688   2.970   7.083  0.4335 -0.0744  0.0419
28142SOL    HW186433   2.690   3.066   7.079  2.1724 -0.0619  0.4895
28142SOL    HW286434   2.688   2.942   6.991  1.3286  0.3640 -0.1048
28143SOL     OW86435   6.612   1.909  10.845 -0.3539 -0.3084 -0.0244
28143SOL    HW186436   6.620   1.987  10.791  0.0862 -0.1230  0.3020
28143SOL    HW286437   6.695   1.863  10.834  0.4127  0.5586  1.7507
28144SOL     OW86438   9.701   1.414   5.920  0.3548 -0.2760  0.2068
28144SOL    HW186439   9.784   1.445   5.885  0.6320 -0.7185  0.4662
28144SOL    HW286440   9.672   1.484   5.979  0.3149  0.0791 -0.2234
28145SOL     OW86441   3.665   9.700   8.053 -0.1337 -0.4643  0.2374
28145SOL    HW186442   3.718   9.734   8.124 -0.3384 -1.2908  0.7992
28145SOL    HW286443   3.614   9.775   8.022  0.5347  0.0736  0.4333
28146SOL     OW86444  10.794   7.102   1.161 -0.3213  0.0041  0.0827
28146SOL    HW186445  10.882   7.109   1.199 -0.6954 -1.7394  1.3719
28146SOL    HW286446  10.809   7.068   1.073  0.3099  0.0858  0.1484
28147SOL     OW86447  10.279   9.958   2.277 -0.8059 -0.1072  0.0554
28147SOL    HW186448  10.275   9.923   2.188 -2.1183 -0.1187  0.0924
28147SOL    HW286449  10.247   9.886   2.332  0.1775 -0.1668  0.5680
28148SOL     OW86450   3.382   0.757   8.009 -0.3060 -0.0817  0.4813
28148SOL    HW186451   3.451   0.736   8.071 -0.7542 -0.4711  0.8561
28148SOL    HW286452   3.393   0.695   7.938  0.0353  0.1833  0.3014
28149SOL     OW86453  10.097   5.401   0.478  0.1557  0.6349  0.0721
28149SOL    HW186454  10.028   5.388   0.413  0.0307  2.6575 -0.2681
28149SOL    HW286455  10.168   5.442   0.429  1.0696 -0.1445  0.7138
28150SOL     OW86456   4.972   7.901   1.957 -0.4841 -0.0797 -0.9246
28150SOL    HW186457   4.958   7.866   2.045  0.3784  1.1043 -0.3063
28150SOL    HW286458   4.909   7.852   1.902 -1.3018 -0.5574  0.3944
28151SOL     OW86459  10.778   8.214   1.154 -0.2551 -0.2941  0.4684
28151SOL    HW186460  10.711   8.251   1.095 -2.1116 -1.1321  1.9514
28151SOL    HW286461  10.769   8.265   1.235  1.6923  0.2978  0.3571
28152SOL     OW86462   1.264   1.528   2.197 -0.3138 -0.1867  0.0995
28152SOL    HW186463   1.273   1.433   2.193 -0.5582 -0.2376  0.6186
28152SOL    HW286464   1.169   1.543   2.199 -0.3759 -0.1445  3.6805
28153SOL     OW86465   8.350   9.842   6.596 -0.0295  0.4981  0.0808
28153SOL    HW186466   8.291   9.917   6.602  0.9762  1.2522  0.6949
28153SOL    HW286467   8.411   9.853   6.668 -0.4373 -1.4320  0.7832
28154SOL     OW86468   3.016   4.132   1.634  0.4466  0.1205  0.7717
28154SOL    HW186469   2.998   4.218   1.671  2.2258  0.7023  0.3396
28154SOL    HW286470   3.037   4.148   1.543 -0.1255 -0.9020  0.4320
28155SOL     OW86471   5.315   9.701   1.135  0.3352  0.0375  0.5094
28155SOL    HW186472   5.300   9.622   1.186 -0.1187 -0.9362 -1.0495
28155SOL    HW286473   5.292   9.676   1.045 -0.0974  2.0267  0.0193
28156SOL     OW86474   5.626   2.894   3.115  0.4940  0.2293 -0.0836
28156SOL    HW186475   5.638   2.875   3.208  1.4864 -0.0164 -0.2496
28156SOL    HW286476   5.623   2.989   3.111 -0.0624  0.2320  0.2533
28157SOL     OW86477   2.976   6.477   5.156  0.1080  0.3293 -0.2837
28157SOL    HW186478   3.045   6.420   5.191 -1.6037 -1.4649  0.3342
28157SOL    HW286479   3.006   6.566   5.177  1.9685 -0.4164  0.4384
28158SOL     OW86480   1.794   0.137   1.209  0.5955  0.3594  0.1796
28158SOL    HW186481   1.803   0.220   1.162 -0.0187  0.3413  0.0189
28158SOL    HW286482   1.702   0.113   1.198  0.5303  0.1585  1.0590
28159SOL     OW86483  10.982   9.105   1.892  0.2018  0.4369 -0.3637
28159SOL    HW186484  11.022   9.047   1.828  0.2491  0.1880 -0.1103
28159SOL    HW286485  11.039   9.182   1.893  0.2720  0.3866 -0.5287
28160SOL     OW86486   7.156   8.212   5.029  0.4404 -0.0574  0.0592
28160SOL    HW186487   7.132   8.230   4.938  0.2417  0.6697  0.2566
28160SOL    HW286488   7.092   8.147   5.058 -0.8229  1.2667  0.3286
28161SOL     OW86489  10.095   8.087   5.037 -0.2035  0.5241  0.0407
28161SOL    HW186490  10.150   8.039   4.974  1.5149  2.9751 -0.5000
28161SOL    HW286491  10.051   8.153   4.984  0.0162  1.5981  1.1519
28162SOL     OW86492   2.344   9.861   3.260 -0.3441  0.2811 -0.1087
28162SOL    HW186493   2.249   9.868   3.266 -0.3297  2.2099 -1.3996
28162SOL    HW286494   2.359   9.789   3.199 -1.0602  1.2895 -1.5317
28163SOL     OW86495   8.682   4.763   2.094  0.3738  0.1499 -0.1917
28163SOL    HW186496   8.599   4.809   2.099 -0.4982 -1.4156  0.2048
28163SOL    HW286497   8.747   4.826   2.125 -0.5980  1.5033 -0.8374
28164SOL     OW86498   2.149   3.081  10.154 -0.2935 -0.1058 -0.3501
28164SOL    HW186499   2.159   3.133  10.234 -0.5586 -0.8668  0.1888
28164SOL    HW286500   2.208   3.007  10.167  0.1463  0.0897 -1.1491
28165SOL     OW86501   4.450   4.146   0.347 -0.2827  0.1277  0.0375
28165SOL    HW186502   4.453   4.151   0.251 -1.2767  0.9529  0.0413
28165SOL    HW286503   4.416   4.231   0.375  1.9259  0.6988  1.2493
28166SOL     OW86504   9.544   0.260   1.674  0.2207 -0.1857  0.0347
28166SOL    HW186505   9.581   0.286   1.591 -0.7264  0.9651 -0.0526
28166SOL    HW286506   9.566   0.331   1.735 -1.4719  0.3715  0.0567
28167SOL     OW86507  11.008   9.819   3.021  0.3108  0.1960  0.4331
28167SOL    HW186508  11.045   9.749   2.967 -0.4186  0.4307 -0.3885
28167SOL    HW286509  10.931   9.780   3.062 -0.5655  0.7273 -0.6604
28168SOL     OW86510   6.468   7.620   5.393  0.6591 -0.5662  0.0894
28168SOL    HW186511   6.552   7.665   5.406 -0.1931  0.8812  0.8855
28168SOL    HW286512   6.448   7.583   5.479 -0.1740  0.3210  0.2938
28169SOL     OW86513   2.299   4.163   0.385 -0.5492 -0.1881  0.3499
28169SOL    HW186514   2.221   4.187   0.335  0.0446 -0.0105 -0.5139
28169SOL    HW286515   2.372   4.175   0.323  0.1862 -0.1048  1.2145
28170SOL     OW86516   8.096   9.370   1.382  1.1070  0.0702  0.2532
28170SOL    HW186517   8.157   9.444   1.383  3.6342 -1.8588 -0.4222
28170SOL    HW286518   8.082   9.351   1.289  0.6317 -0.4154  0.4154
28171SOL     OW86519   8.654   6.808  10.401  0.3431  0.2527  0.0793
28171SOL    HW186520   8.572   6.768  10.430  0.8187  0.6288  2.1050
28171SOL    HW286521   8.650   6.805  10.306 -1.1870 -1.4248  0.1454
28172SOL     OW86522   7.572   5.129   1.371 -0.1547 -0.1905  0.2485
28172SOL    HW186523   7.586   5.207   1.424  0.6453 -0.1891  0.0454
28172SOL    HW286524   7.481   5.104   1.389 -0.1051  0.1971  1.0898
28173SOL     OW86525  10.325   6.987   3.050  0.4788  0.7746  0.9562
28173SOL    HW186526  10.258   6.972   2.984  0.3588  0.6001  1.1153
28173SOL    HW286527  10.283   6.963   3.133  1.6300 -2.1951  0.7862
28174SOL     OW86528   7.132   3.931   2.605 -0.1757  0.4791 -0.7607
28174SOL    HW186529   7.075   3.855   2.615 -0.6143  0.9793  0.7952
28174SOL    HW286530   7.119   3.959   2.514  0.2636 -1.4881 -1.4721
28175SOL     OW86531   3.023   6.973  10.282 -0.0863  0.4401  0.0038
28175SOL    HW186532   2.936   6.965  10.322 -0.3845  0.7667 -0.5567
28175SOL    HW286533   3.005   7.008  10.194  0.5994  0.3426 -0.1781
28176SOL     OW86534   3.893   3.769   8.479  0.3433  0.2670  0.7275
28176SOL    HW186535   3.865   3.851   8.521 -0.3791  0.5451 -0.2585
28176SOL    HW286536   3.907   3.793   8.387 -0.2646 -0.7986  0.3398
28177SOL     OW86537   3.451   9.146   6.883 -0.0453  0.6584 -0.1143
28177SOL    HW186538   3.507   9.132   6.960 -1.6277  0.0989  0.9939
28177SOL    HW286539   3.416   9.059   6.863 -1.1671  1.1271 -0.2493
28178SOL     OW86540   6.622   8.729   1.952  0.1436 -0.0574 -0.0951
28178SOL    HW186541   6.542   8.752   1.906 -0.4412 -0.3519  0.7383
28178SOL    HW286542   6.643   8.806   2.005  0.9674  0.3861 -1.0472
28179SOL     OW86543   3.332   0.241   0.934 -0.2721 -0.0074  0.4842
28179SOL    HW186544   3.254   0.188   0.917 -0.7361  0.7560  0.1912
28179SOL    HW286545   3.303   0.310   0.994  0.5735 -0.6751  1.7084
28180SOL     OW86546   8.110   8.283   4.783 -0.3309  0.0547 -0.0356
28180SOL    HW186547   8.146   8.253   4.866 -2.4712  1.6501  1.6027
28180SOL    HW286548   8.058   8.210   4.751  0.4475 -0.5475  0.0560
28181SOL     OW86549   6.028   0.747   8.579 -0.6015 -0.4019 -0.3915
28181SOL    HW186550   6.120   0.772   8.586 -0.5211 -0.4487 -1.1946
28181SOL    HW286551   5.988   0.780   8.660 -0.3957  1.8151 -1.1361
28182SOL     OW86552   2.828   5.446   3.571  0.2113 -0.2978  0.4914
28182SOL    HW186553   2.806   5.526   3.523  0.8181 -0.3914  0.0425
28182SOL    HW286554   2.743   5.412   3.600 -0.1534 -0.0900 -0.2870
28183SOL     OW86555   3.973   9.091   4.705 -0.2382 -0.3441  0.2902
28183SOL    HW186556   4.050   9.096   4.762  0.0847  0.8402 -0.2183
28183SOL    HW286557   4.006   9.054   4.624  0.2523  1.8805 -0.5962
28184SOL     OW86558   8.033   2.664   1.909  0.5264  0.2276 -0.1315
28184SOL    HW186559   7.981   2.723   1.854 -0.0369  1.2829  1.4434
28184SOL    HW286560   8.115   2.654   1.862  0.0082  0.9519 -1.2458
28185SOL     OW86561   0.013   5.383   7.220 -0.0234 -0.4245  0.1393
28185SOL    HW186562  -0.039   5.314   7.180 -0.3093 -0.3818  0.4335
28185SOL    HW286563   0.096   5.382   7.172 -1.0247  0.8953 -1.8035
28186SOL     OW86564  10.031   3.249   5.191 -0.5623 -0.2979  0.4093
28186SOL    HW186565  10.058   3.177   5.248 -0.2491  0.0047  0.6506
28186SOL    HW286566  10.033   3.326   5.247  0.3765  0.1098 -0.1482
28187SOL     OW86567   4.988   8.810   9.109  0.2935 -0.1752  0.1338
28187SOL    HW186568   4.964   8.719   9.125  0.4997 -0.2962 -0.2341
28187SOL    HW286569   4.982   8.820   9.014  0.4124  0.1537  0.1596
28188SOL     OW86570   7.285   6.131   0.662 -0.1935  0.5625 -0.9881
28188SOL    HW186571   7.295   6.124   0.567  0.5921  1.6805 -1.0053
28188SOL    HW286572   7.258   6.221   0.677 -3.3055 -0.3601 -0.3279
28189SOL     OW86573   2.068   9.353   4.406  0.0530  0.2063 -0.1967
28189SOL    HW186574   2.011   9.388   4.337  1.5007 -0.2194 -1.6569
28189SOL    HW286575   2.099   9.269   4.371  1.2489  0.2318  0.7443
28190SOL     OW86576   9.815   7.150  10.194  0.1604  0.1220  0.2138
28190SOL    HW186577   9.880   7.149  10.123  0.6435  0.9116  0.6277
28190SOL    HW286578   9.867   7.157  10.274 -0.3384 -1.7828  0.7359
28191SOL     OW86579   8.927   9.739   6.571  0.1602  0.2107  0.2504
28191SOL    HW186580   8.876   9.729   6.651  0.4963  4.9957  1.3859
28191SOL    HW286581   8.883   9.809   6.523  1.9521 -0.1022 -2.0371
28192SOL     OW86582   8.481   9.570   5.862  0.4585 -0.5377  0.1828
28192SOL    HW186583   8.461   9.480   5.887  1.8977 -0.9013  0.0814
28192SOL    HW286584   8.489   9.568   5.767  0.7689 -0.3669  0.2040
28193SOL     OW86585   8.295   9.822   2.252  1.3272 -0.2549 -0.2259
28193SOL    HW186586   8.201   9.836   2.244  1.2832 -0.4758 -0.1121
28193SOL    HW286587   8.321   9.873   2.329  1.1991 -0.6436  0.0823
28194SOL     OW86588  10.488   7.921  10.963 -0.2673  0.1113 -0.1860
28194SOL    HW186589  10.453   7.878  10.884  0.0534  0.1979 -0.3777
28194SOL    HW286590  10.580   7.893  10.966 -0.5517 -0.7612  0.7554
28195SOL     OW86591   7.319   2.762   0.981  0.2251 -0.5356  0.0005
28195SOL    HW186592   7.226   2.766   1.002  0.4264 -0.4369  0.9134
28195SOL    HW286593   7.324   2.714   0.898 -0.6571 -0.2603 -0.2167
28196SOL     OW86594   4.343   1.352   1.443 -0.5151 -0.7470  0.2440
28196SOL    HW186595   4.379   1.271   1.408 -0.3181 -0.4530 -0.2385
28196SOL    HW286596   4.420   1.400   1.476 -0.6415 -0.7932  0.6189
28197SOL     OW86597   6.152  10.502   4.379 -0.1599 -0.2619  0.1639
28197SOL    HW186598   6.230  10.522   4.327 -0.5305 -0.4651 -0.4907
28197SOL    HW286599   6.173  10.419   4.422  1.2875  1.2783  2.7027
28198SOL     OW86600   5.353   1.162   0.933 -0.7142  0.1370 -0.4798
28198SOL    HW186601   5.300   1.164   0.853 -2.3035  2.6229  0.5062
28198SOL    HW286602   5.308   1.098   0.989 -3.0216  2.3621  0.4260
28199SOL     OW86603   5.000   0.328   3.756  0.0448  0.4932 -0.2415
28199SOL    HW186604   5.029   0.414   3.728 -1.0494 -0.0326 -3.3716
28199SOL    HW286605   5.081   0.281   3.777  0.7922  1.6319 -0.5333
28200SOL     OW86606   1.242   8.247   6.896 -0.1312  0.0106  0.1406
28200SOL    HW186607   1.305   8.317   6.877 -0.6499  0.0983 -1.4804
28200SOL    HW286608   1.157   8.290   6.896 -0.3554 -0.4200  0.3936
28201SOL     OW86609  10.464   1.482   1.616  0.1423  0.1452  0.1060
28201SOL    HW186610  10.522   1.454   1.687  0.3073  2.0275  0.7801
28201SOL    HW286611  10.520   1.536   1.560 -0.0219 -1.2037 -1.4226
28202SOL     OW86612   1.820   9.621   9.624  0.1828  0.4793 -0.2647
28202SOL    HW186613   1.818   9.578   9.538  0.6519  1.0822 -0.5852
28202SOL    HW286614   1.759   9.695   9.615 -0.4315  0.0465  0.2057
28203SOL     OW86615   3.981   6.285   0.998 -0.0966  0.1810  0.0861
28203SOL    HW186616   3.920   6.334   0.944  0.3737  0.7379  0.0522
28203SOL    HW286617   3.938   6.201   1.013  0.5042 -0.6804 -2.6052
28204SOL     OW86618   6.429   9.557   2.450 -0.3739  0.0814 -0.4308
28204SOL    HW186619   6.439   9.461   2.454 -0.2383 -0.0426 -2.5247
28204SOL    HW286620   6.440   9.578   2.357  0.4358  2.2430  0.0927
28205SOL     OW86621   7.901   0.132   1.308  0.2013 -0.1309  0.7960
28205SOL    HW186622   7.827   0.093   1.262  2.1779 -2.1870 -0.9426
28205SOL    HW286623   7.914   0.076   1.385 -0.5893  0.7926  1.6131
28206SOL     OW86624   4.888   1.784   6.207  0.4176 -0.2033 -0.0019
28206SOL    HW186625   4.965   1.768   6.262  0.9430 -1.3023 -0.9925
28206SOL    HW286626   4.840   1.701   6.208 -0.2328  0.1647 -0.1756
28207SOL     OW86627   5.632   1.758   2.724 -0.0365 -0.1128  0.0823
28207SOL    HW186628   5.576   1.722   2.793  0.0953  0.3039  0.4123
28207SOL    HW286629   5.683   1.826   2.768 -1.2619  1.4309 -0.8034
28208SOL     OW86630   9.901   0.104   8.724 -0.6632  0.2281  0.0997
28208SOL    HW186631   9.989   0.101   8.684 -1.0319  2.5171 -1.0597
28208SOL    HW286632   9.917   0.098   8.818  0.5215 -1.7261 -0.1679
28209SOL     OW86633   9.396   4.874   2.607 -0.2989  0.2706  0.0475
28209SOL    HW186634   9.377   4.918   2.524  0.6109  1.3350  0.3819
28209SOL    HW286635   9.349   4.926   2.672 -1.5193 -0.9192  0.1640
28210SOL     OW86636   1.671   9.743   2.614 -0.3940 -0.2136  0.6402
28210SOL    HW186637   1.719   9.810   2.662 -1.3248 -0.2748  1.6822
28210SOL    HW286638   1.676   9.665   2.669 -0.5351 -0.5973  0.1172
28211SOL     OW86639   8.687   1.436   0.200  0.1096  0.1752 -0.1420
28211SOL    HW186640   8.633   1.483   0.136 -1.7241 -1.1119  0.3810
28211SOL    HW286641   8.718   1.358   0.152  1.5257  0.8798 -0.4241
28212SOL     OW86642   5.682   2.962   7.964  0.1121 -0.5805  0.1197
28212SOL    HW186643   5.669   2.874   7.930  0.0935 -0.6918  0.4160
28212SOL    HW286644   5.692   3.017   7.885  0.0755 -0.8365 -0.0638
28213SOL     OW86645   5.546  10.197   0.096  0.0614 -0.0072  0.1926
28213SOL    HW186646   5.462  10.211   0.141 -0.3869 -2.3448  0.1952
28213SOL    HW286647   5.565  10.104   0.108  4.4879  0.9596  3.2768
28214SOL     OW86648   4.019   0.491   9.380  0.4298 -0.2659  0.1873
28214SOL    HW186649   3.968   0.532   9.310  0.8866 -1.5402 -0.9428
28214SOL    HW286650   3.973   0.408   9.396 -0.0006  0.2550  1.8362
28215SOL     OW86651   5.319   3.234   7.669 -0.3398 -0.4557 -0.2083
28215SOL    HW186652   5.256   3.258   7.736 -2.1328 -0.3166 -1.8451
28215SOL    HW286653   5.400   3.279   7.694 -1.9346  2.5791 -0.0646
28216SOL     OW86654  10.367   0.967   3.899 -0.4767 -0.1744 -0.1251
28216SOL    HW186655  10.284   0.953   3.945 -0.3916 -0.2800 -0.0017
28216SOL    HW286656  10.344   0.972   3.807 -0.6138 -0.2579 -0.0941
28217SOL     OW86657   8.800   8.795   3.758  0.4481 -0.2347 -0.2046
28217SOL    HW186658   8.797   8.851   3.680  2.0188 -0.2705 -0.3214
28217SOL    HW286659   8.789   8.855   3.831  1.6614  0.1934 -0.3500
28218SOL     OW86660   1.589   2.701   2.286 -0.0526  0.7767  0.4634
28218SOL    HW186661   1.498   2.675   2.297 -0.6946  3.3963  2.3306
28218SOL    HW286662   1.635   2.620   2.261 -2.5952 -0.9169  0.9307
28219SOL     OW86663   5.170   9.011   8.543 -0.5110  0.2881  0.0451
28219SOL    HW186664   5.179   9.077   8.612 -1.5456  1.2039 -0.6498
28219SOL    HW286665   5.090   9.036   8.497  0.4150  0.0362 -1.8154
28220SOL     OW86666   9.900   4.891   9.226 -0.3615 -0.1068 -0.0313
28220SOL    HW186667   9.875   4.815   9.278  0.0846 -0.3580 -0.1722
28220SOL    HW286668   9.824   4.949   9.229 -0.2734 -0.0273  1.0574
28221SOL     OW86669   5.207   7.142   4.701 -0.4822 -0.0443 -0.3678
28221SOL    HW186670   5.184   7.079   4.632 -2.5308  0.0356  0.1703
28221SOL    HW286671   5.196   7.228   4.660 -1.9734  0.0109  0.0697
28222SOL     OW86672   0.601   3.268   0.223 -0.1409 -0.2965 -0.2367
28222SOL    HW186673   0.585   3.362   0.228  2.2186  0.1056  1.6454
28222SOL    HW286674   0.692   3.261   0.194 -0.3444 -2.0291 -0.5729
28223SOL     OW86675   5.467   5.834   3.154  0.1231 -0.0822 -0.1468
28223SOL    HW186676   5.516   5.753   3.139 -0.5641 -1.1389  2.7747
28223SOL    HW286677   5.377   5.806   3.166 -0.3756  1.3100 -0.4328
28224SOL     OW86678  10.306   6.230  10.099  0.2896 -1.0706  0.3629
28224SOL    HW186679  10.259   6.221  10.016 -0.9111 -1.0260  1.0247
28224SOL    HW286680  10.381   6.287  10.078 -1.7742  1.7172 -0.0204
28225SOL     OW86681   1.363   7.376   8.594 -0.5559 -0.1703  0.7009
28225SOL    HW186682   1.449   7.367   8.635  0.6662  1.8977 -1.2187
28225SOL    HW286683   1.303   7.393   8.667  0.8620 -0.3316  1.9515
28226SOL     OW86684   4.850  10.676   1.614 -0.2149 -0.1842 -0.5538
28226SOL    HW186685   4.774  10.619   1.625  0.2523 -0.5384  1.1802
28226SOL    HW286686   4.821  10.760   1.650  0.3362 -0.4518  0.5588
28227SOL     OW86687   1.910   9.311   2.546  0.1998 -0.0385  0.1513
28227SOL    HW186688   1.914   9.313   2.451  0.2805 -0.1058  0.1541
28227SOL    HW286689   1.844   9.245   2.566  1.1535 -1.0163  0.1679
28228SOL     OW86690   0.854   7.211  10.361  0.9463 -0.1647  0.1044
28228SOL    HW186691   0.872   7.188  10.270 -0.1741  0.0473 -0.1906
28228SOL    HW286692   0.921   7.165  10.411  0.3515 -1.9729 -0.6722
28229SOL     OW86693   5.360  10.481   6.841  0.5314  0.3817  0.1659
28229SOL    HW186694   5.402  10.519   6.918 -0.2355 -0.0044  0.7860
28229SOL    HW286695   5.388  10.389   6.841 -1.7960 -0.4236  1.7264
28230SOL     OW86696   0.954   1.361   5.270  0.5915 -0.1256 -0.3448
28230SOL    HW186697   0.861   1.356   5.294  0.7546 -0.1638  0.3109
28230SOL    HW286698   0.959   1.433   5.208  0.4110  1.2289  1.1372
28231SOL     OW86699   2.616   9.972   4.011 -0.0285 -0.0632 -0.1058
28231SOL    HW186700   2.590   9.894   4.060  2.9023 -0.5686  0.8431
28231SOL    HW286701   2.620   9.942   3.920 -0.1169 -0.6609  0.0798
28232SOL     OW86702  10.827   7.614   9.578  0.4091  0.4539 -0.5096
28232SOL    HW186703  10.776   7.688   9.611 -2.1373 -0.7284 -1.5505
28232SOL    HW286704  10.771   7.537   9.593  1.7553 -0.8876 -1.9991
28233SOL     OW86705   0.699  10.103   5.415  0.0914  0.4136 -0.1195
28233SOL    HW186706   0.606  10.102   5.392 -0.0371  1.8928  0.1852
28233SOL    HW286707   0.700  10.128   5.508  0.7824  0.1327 -0.0489
28234SOL     OW86708  10.982  10.472   5.321 -0.0367  0.2519 -0.2039
28234SOL    HW186709  10.933  10.397   5.355  0.4201  0.5584  1.1872
28234SOL    HW286710  11.071  10.460   5.354  0.3083  0.8492 -0.8783
28235SOL     OW86711   7.008   1.059   3.589  0.3474  0.6243  0.2798
28235SOL    HW186712   7.054   1.079   3.671  1.4847  0.5839 -0.3242
28235SOL    HW286713   7.078   1.044   3.525 -0.4059 -2.5899  0.0381
28236SOL     OW86714   3.471   9.119   6.136  0.1468  0.3103  0.3160
28236SOL    HW186715   3.501   9.038   6.177 -0.0508 -0.3422 -0.7816
28236SOL    HW286716   3.545   9.148   6.082 -0.2043  0.1831 -0.2489
28237SOL     OW86717   2.717   9.314   3.805 -0.1012 -0.1580  0.1187
28237SOL    HW186718   2.760   9.237   3.840  0.9037  0.8199  1.1250
28237SOL    HW286719   2.702   9.371   3.881 -0.9187  0.5940 -0.5717
28238SOL     OW86720   9.315   4.401   6.330  0.2572  0.5049 -0.2191
28238SOL    HW186721   9.321   4.308   6.351 -0.8487  0.4969  0.1429
28238SOL    HW286722   9.274   4.404   6.243 -0.1471  0.6616 -0.0252
28239SOL     OW86723   0.738   9.887   8.072  0.0589 -0.0716 -0.1915
28239SOL    HW186724   0.766   9.845   7.990  0.3579  1.0556 -0.6878
28239SOL    HW286725   0.747   9.818   8.138  0.0930 -0.9210 -1.0483
28240SOL     OW86726  10.445   9.481   7.982  0.1831  0.0573 -0.0445
28240SOL    HW186727  10.400   9.514   8.060 -1.4656 -0.3551 -0.7850
28240SOL    HW286728  10.405   9.527   7.909  2.2187  0.9865 -0.6652
28241SOL     OW86729   8.546  10.851   2.089 -0.1902 -0.6443  0.0766
28241SOL    HW186730   8.614  10.903   2.132 -0.9027 -1.1849  1.9679
28241SOL    HW286731   8.571  10.761   2.107 -1.5461 -0.8491  1.1245
28242SOL     OW86732   9.377  10.723  10.163  0.4108 -0.2551 -0.5997
28242SOL    HW186733   9.331  10.639  10.154  0.2217 -0.2396  0.1508
28242SOL    HW286734   9.315  10.788  10.130  0.1910 -0.3160 -0.3163
28243SOL     OW86735   9.795  10.426   4.873  0.2379 -0.2389 -0.4078
28243SOL    HW186736   9.797  10.504   4.928  0.4649  0.9185 -1.9928
28243SOL    HW286737   9.711  10.384   4.893  0.7702 -0.4498  1.5589
28244SOL     OW86738   5.982   8.330   0.725  0.9484  0.0924  0.0240
28244SOL    HW186739   5.934   8.316   0.644  4.0014  0.2074 -1.9503
28244SOL    HW286740   5.943   8.268   0.787 -1.2042 -0.2890 -1.5997
28245SOL     OW86741   9.506   1.470   9.385 -0.3035  0.3078  0.2687
28245SOL    HW186742   9.561   1.395   9.407 -0.9113  0.0386  0.8764
28245SOL    HW286743   9.562   1.525   9.330  0.3201 -0.3308  0.2559
28246SOL     OW86744   2.296   0.842   7.553 -0.2164  0.4020  0.4717
28246SOL    HW186745   2.350   0.859   7.476 -1.9788 -0.0729 -0.9299
28246SOL    HW286746   2.216   0.802   7.519 -1.0129  0.0595  2.5662
28247SOL     OW86747   3.885   8.871   8.209 -0.3052 -0.1845 -0.7930
28247SOL    HW186748   3.833   8.906   8.136 -0.3341 -1.2169 -1.2829
28247SOL    HW286749   3.853   8.919   8.286 -0.2344  0.9635 -1.4544
28248SOL     OW86750   6.301   0.878   2.664  0.1477 -0.0172 -0.0640
28248SOL    HW186751   6.345   0.839   2.588 -0.2682 -2.1389  0.7276
28248SOL    HW286752   6.223   0.921   2.627  0.1318 -0.7166 -0.8738
28249SOL     OW86753   9.503   2.376   4.386  0.0672  0.3365 -0.4623
28249SOL    HW186754   9.538   2.406   4.302  0.2903  0.9020 -0.1677
28249SOL    HW286755   9.410   2.397   4.382 -0.0278 -0.1329 -0.7857
28250SOL     OW86756   2.827  10.241  10.749 -0.1496  0.3096  0.5057
28250SOL    HW186757   2.855  10.290  10.827  0.2580 -0.2542  0.7248
28250SOL    HW286758   2.865  10.289  10.676 -1.5745  1.5666  0.5409
28251SOL     OW86759   7.282   7.563   1.248  0.4068  0.5414  0.0407
28251SOL    HW186760   7.269   7.468   1.240 -0.8074  0.5694  1.3974
28251SOL    HW286761   7.320   7.588   1.164 -1.8868 -0.7080 -1.4989
28252SOL     OW86762   7.046   3.284   9.812 -0.7642 -0.0609 -0.2796
28252SOL    HW186763   7.039   3.379   9.818 -0.0010 -0.0593  0.7259
28252SOL    HW286764   7.033   3.266   9.718  0.6647  1.1766 -0.7563
28253SOL     OW86765  10.355   8.929   7.623  0.7757  0.3527 -0.3175
28253SOL    HW186766  10.381   8.908   7.712 -0.0726  1.5596  0.2393
28253SOL    HW286767  10.259   8.925   7.624  0.7707 -1.0723 -1.5662
28254SOL     OW86768   1.805   0.013   6.515 -0.1095 -0.5570 -0.5366
28254SOL    HW186769   1.800   0.100   6.476  2.9776 -0.0881 -0.1388
28254SOL    HW286770   1.787   0.028   6.608  0.2371 -0.3587 -0.4994
28255SOL     OW86771   8.356  10.933   0.421 -0.0971  0.3372 -0.0919
28255SOL    HW186772   8.286  10.981   0.465 -0.0335 -0.5590  1.0284
28255SOL    HW286773   8.410  10.898   0.491  0.8928  0.1445 -0.9206
28256SOL     OW86774   8.195   6.855   3.886 -0.3626  0.2811  0.1615
28256SOL    HW186775   8.123   6.800   3.916  0.1082 -0.2722  0.3153
28256SOL    HW286776   8.160   6.903   3.811 -0.0408 -2.2168 -1.7194
28257SOL     OW86777   4.390   2.251   5.671  0.5978 -0.2482  0.0880
28257SOL    HW186778   4.389   2.184   5.603 -0.5088  0.3241 -0.4826
28257SOL    HW286779   4.315   2.306   5.652  0.0314 -0.2758  1.9995
28258SOL     OW86780   2.465   9.560   5.737 -0.1608  0.2217  0.0487
28258SOL    HW186781   2.463   9.479   5.789 -1.2469  1.2258  1.6368
28258SOL    HW286782   2.375   9.593   5.741  0.0282  0.9837 -1.4609
28259SOL     OW86783   7.722   1.306   7.500  0.0979  0.4127  0.5584
28259SOL    HW186784   7.810   1.287   7.467 -0.0162  0.6272  0.1220
28259SOL    HW286785   7.737   1.341   7.587  0.3903 -0.4265  0.8580
28260SOL     OW86786   7.892   6.119   0.275 -0.1547  0.6645 -0.2860
28260SOL    HW186787   7.973   6.072   0.258 -0.1864 -0.4096  2.1919
28260SOL    HW286788   7.919   6.211   0.281  0.8811  0.3245  0.4727
28261SOL     OW86789  10.940   5.609   6.641 -0.1108  0.5524  0.5381
28261SOL    HW186790  11.008   5.552   6.676 -0.0641  0.5343  0.4193
28261SOL    HW286791  10.914   5.567   6.558 -0.0612  0.7167  0.4399
28262SOL     OW86792   5.856   5.106   9.946 -0.3979 -0.4675  0.3333
28262SOL    HW186793   5.853   5.016   9.913 -2.1390  0.2122 -1.5541
28262SOL    HW286794   5.949   5.130   9.940 -0.2217 -1.4003 -1.3446
28263SOL     OW86795   4.106   9.379  10.954 -0.4515 -0.0863 -0.0311
28263SOL    HW186796   4.047   9.416  10.888  1.3092  1.7904 -0.6918
28263SOL    HW286797   4.142   9.300  10.913  0.1853  0.7463 -1.1241
28264SOL     OW86798   7.366  10.825   4.911 -0.1623  0.3976  0.0067
28264SOL    HW186799   7.387  10.772   4.988 -0.6847 -0.7116 -0.5777
28264SOL    HW286800   7.279  10.795   4.885 -0.2789  1.2448 -0.6193
28265SOL     OW86801   9.685  10.805   0.681 -0.2085 -0.4386  0.0335
28265SOL    HW186802   9.777  10.822   0.703 -0.1965 -0.4336 -0.0211
28265SOL    HW286803   9.665  10.723   0.727 -0.9601  0.9049  2.2613
28266SOL     OW86804   6.234  10.510   5.398  0.1860  0.2810  0.3152
28266SOL    HW186805   6.198  10.465   5.322 -1.1730 -1.1208  1.6906
28266SOL    HW286806   6.164  10.570   5.426  0.9437  1.3029  0.0708
28267SOL     OW86807   1.267   4.057   3.047  0.1293  0.1277  0.4078
28267SOL    HW186808   1.280   4.146   3.014 -0.5038  0.0787  0.0204
28267SOL    HW286809   1.296   4.000   2.976 -1.5814  0.0199 -0.2500
28268SOL     OW86810   2.553   0.620   9.309  0.1687  0.2143 -0.0379
28268SOL    HW186811   2.525   0.634   9.400 -2.7983 -0.8265 -0.6729
28268SOL    HW286812   2.586   0.531   9.308 -1.3237 -0.3672 -0.2383
28269SOL     OW86813   7.568   2.749   6.924  0.4298  0.4725 -0.6469
28269SOL    HW186814   7.549   2.843   6.926  0.1547  0.4613 -1.9600
28269SOL    HW286815   7.486   2.707   6.947  0.2416  0.5356 -1.1915
28270SOL     OW86816   2.464   8.643   3.172  0.1898 -0.1706 -0.3506
28270SOL    HW186817   2.443   8.550   3.166  1.4292 -0.4395 -0.8476
28270SOL    HW286818   2.473   8.661   3.265  1.7330 -0.9924 -0.3165
28271SOL     OW86819   8.773   8.982   4.335  0.1084 -0.2493  0.2710
28271SOL    HW186820   8.759   8.911   4.273 -1.1894  0.6689 -0.5361
28271SOL    HW286821   8.846   9.032   4.299 -0.7796  0.4086 -0.6923
28272SOL     OW86822   0.222  10.189   1.599 -0.0197  0.4195  0.3424
28272SOL    HW186823   0.231  10.211   1.692  1.1582 -0.8017  0.5552
28272SOL    HW286824   0.134  10.150   1.593 -0.3014  0.9532  0.8384
28273SOL     OW86825   4.002   4.097   6.012 -0.0425  1.0712  0.1729
28273SOL    HW186826   4.060   4.119   5.940  1.2395 -0.7191  0.5820
28273SOL    HW286827   3.923   4.062   5.969  0.1596  1.2627 -0.3653
28274SOL     OW86828   9.586  10.290   9.138  0.6870 -0.0298 -0.3148
28274SOL    HW186829   9.496  10.303   9.107 -0.1841 -2.2722  1.0380
28274SOL    HW286830   9.629  10.374   9.122 -1.4189  0.8600 -1.7243
28275SOL     OW86831   7.869   1.518   5.067  0.4775 -0.4878 -0.7989
28275SOL    HW186832   7.960   1.547   5.068  0.8257 -1.5255 -1.2668
28275SOL    HW286833   7.870   1.432   5.108 -0.6445  0.3690  1.1722
28276SOL     OW86834  10.620   0.041   6.899 -0.6204 -0.1506  0.1604
28276SOL    HW186835  10.529   0.043   6.929 -1.2127 -0.9607 -1.4255
28276SOL    HW286836  10.655   0.126   6.923 -1.9473  0.3526  0.4105
28277SOL     OW86837   4.121  10.374   3.869  0.0136  0.0358 -1.0043
28277SOL    HW186838   4.196  10.333   3.912 -0.5384  0.6371  0.5814
28277SOL    HW286839   4.158  10.450   3.824  0.1284  1.4695  1.3818
28278SOL     OW86840   5.647   0.715   6.248 -0.0872  0.0975  0.1829
28278SOL    HW186841   5.686   0.799   6.270  0.4014 -0.2682  0.7411
28278SOL    HW286842   5.595   0.732   6.169  0.3235  0.8269  0.0650
28279SOL     OW86843   5.581   4.348  10.938  0.0280 -0.3646 -0.0959
28279SOL    HW186844   5.609   4.299  10.861 -1.3963 -0.3705 -0.6344
28279SOL    HW286845   5.655   4.342  10.999  1.3226 -0.0691 -1.5767
28280SOL     OW86846   1.182   8.720   4.891  0.1152 -0.3739 -0.2066
28280SOL    HW186847   1.111   8.686   4.836 -2.2714 -1.5188  3.2462
28280SOL    HW286848   1.138   8.775   4.956  2.4042 -0.8283  1.8810
28281SOL     OW86849   1.935   0.676   5.058  0.2703  0.5943 -0.4015
28281SOL    HW186850   2.010   0.692   5.115 -1.0977  1.0530  1.4033
28281SOL    HW286851   1.942   0.741   4.989  1.1076  1.1638  0.1965
28282SOL     OW86852   7.675  10.951   8.396 -0.0231 -0.1574  0.1822
28282SOL    HW186853   7.608  10.914   8.338  1.9935  0.2786 -2.6664
28282SOL    HW286854   7.725  10.875   8.426 -1.6673 -0.4810  2.2970
28283SOL     OW86855  10.255   2.333   1.008  0.3506 -0.1411  0.0215
28283SOL    HW186856  10.326   2.366   1.063 -0.7974  2.5035  0.0596
28283SOL    HW286857  10.212   2.411   0.975 -2.0574 -1.6527 -0.6809
28284SOL     OW86858   0.686   8.675   2.423  0.5353  0.5246 -0.3827
28284SOL    HW186859   0.641   8.759   2.424 -0.3032  0.0904 -0.5044
28284SOL    HW286860   0.774   8.694   2.456  0.5277  1.5365 -0.9249
28285SOL     OW86861   4.556   9.487   4.923 -0.6584  0.1293  0.4004
28285SOL    HW186862   4.462   9.500   4.909 -0.7565 -0.3956  0.5614
28285SOL    HW286863   4.580   9.555   4.985 -0.5466  1.4632 -1.0486
28286SOL     OW86864   5.037   2.978   2.583  0.9096 -0.2647  0.0196
28286SOL    HW186865   5.082   3.000   2.501 -0.5209 -1.9304 -1.2920
28286SOL    HW286866   4.992   2.896   2.564  0.4659 -0.6603  2.4859
28287SOL     OW86867   8.618  10.112   6.180 -0.0630 -0.1270  0.0575
28287SOL    HW186868   8.648  10.106   6.090  2.4491 -1.5867  0.9096
28287SOL    HW286869   8.544  10.051   6.184  0.0810 -0.3784 -0.8762
28288SOL     OW86870   5.934   4.676   8.751 -0.0458 -0.0139  0.8127
28288SOL    HW186871   6.005   4.693   8.814  1.3385  0.2719 -0.7557
28288SOL    HW286872   5.934   4.581   8.741 -0.0787 -0.0374  1.0277
28289SOL     OW86873   6.860   0.572   6.189  0.0178 -0.1604  0.1495
28289SOL    HW186874   6.838   0.621   6.110  2.1567 -0.7581 -0.8963
28289SOL    HW286875   6.864   0.638   6.258 -0.8910  0.5257 -0.4372
28290SOL     OW86876   5.120   7.272   6.965  0.1390 -0.0572 -0.6494
28290SOL    HW186877   5.136   7.225   6.883  1.5348  1.3262 -1.2155
28290SOL    HW286878   5.026   7.266   6.978 -0.0075 -0.9729 -1.9288
28291SOL     OW86879   8.843   8.610   4.699 -0.0312 -0.0195 -0.5630
28291SOL    HW186880   8.795   8.558   4.764 -0.0815  0.0342 -0.5573
28291SOL    HW286881   8.779   8.674   4.668  0.2608  0.5719  0.0234
28292SOL     OW86882   5.326   1.601   3.722  0.4808  0.0457 -0.2498
28292SOL    HW186883   5.317   1.686   3.765  0.1311  0.1932 -0.6031
28292SOL    HW286884   5.274   1.610   3.642 -0.9284 -1.0457  0.4968
28293SOL     OW86885   3.386  10.713   9.927  0.0175 -0.4212  0.4322
28293SOL    HW186886   3.385  10.617   9.923 -0.4083 -0.5788  2.7397
28293SOL    HW286887   3.455  10.734   9.990  0.4397  0.8305 -0.4116
28294SOL     OW86888   9.400   7.674  10.719  0.4686  0.0452  0.3960
28294SOL    HW186889   9.363   7.715  10.797 -0.5502 -0.7702  0.3524
28294SOL    HW286890   9.478   7.628  10.750  1.5526  1.8416  0.4766
28295SOL     OW86891   3.481  10.196   4.748  0.5982  0.2983 -0.5466
28295SOL    HW186892   3.517  10.150   4.673  3.5770 -0.5985  1.2579
28295SOL    HW286893   3.551  10.254   4.777  0.3136 -0.7190  2.5463
28296SOL     OW86894   4.831   7.505   6.888 -0.2524  0.0088 -0.2476
28296SOL    HW186895   4.758   7.557   6.919  0.3765  0.1255  1.1047
28296SOL    HW286896   4.824   7.423   6.937  0.9671  0.3352  0.5120
28297SOL     OW86897   6.301   8.409  10.702  0.5166  0.2446 -0.0492
28297SOL    HW186898   6.381   8.365  10.676  0.9998  0.4874  0.9725
28297SOL    HW286899   6.285   8.379  10.792 -1.3015 -0.8766 -0.6830
28298SOL     OW86900   3.229   5.458  10.163 -0.6855 -0.7504 -0.1153
28298SOL    HW186901   3.137   5.429  10.159 -0.3368 -1.8353 -0.5956
28298SOL    HW286902   3.261   5.450  10.073  0.0412 -0.9308  0.1515
28299SOL     OW86903   3.144  10.968   1.622 -0.0071 -0.1251  0.1311
28299SOL    HW186904   3.220  10.920   1.588 -0.4287  0.2993 -1.4968
28299SOL    HW286905   3.162  10.979   1.715  2.6207  1.2214 -0.4526
28300SOL     OW86906   6.883  10.710   9.480 -0.4732  0.2921  0.1831
28300SOL    HW186907   6.921  10.780   9.533 -1.7009  1.1735 -0.0596
28300SOL    HW286908   6.951  10.687   9.417  0.5986 -0.0002  1.4063
28301SOL     OW86909   6.311  11.088   9.166  0.6125 -0.0849 -0.1423
28301SOL    HW186910   6.233  11.144   9.171  0.5713 -0.1942  0.5064
28301SOL    HW286911   6.331  11.084   9.072 -0.4452 -0.4535 -0.3661
28302SOL     OW86912   2.756  10.720   8.202  0.3592  0.1467 -0.4888
28302SOL    HW186913   2.692  10.652   8.181  0.5224  0.3915 -1.8274
28302SOL    HW286914   2.706  10.801   8.203  0.3909  0.1638 -0.0976
28303SOL     OW86915   9.882  11.094   5.785 -0.2973  0.1154 -0.0090
28303SOL    HW186916   9.828  11.064   5.712  0.5535 -1.2373 -0.1296
28303SOL    HW286917   9.824  11.090   5.861 -0.9329  0.6591 -0.4626
28304SOL     OW86918   7.036   9.918   5.367  0.4228 -0.3480 -0.4463
28304SOL    HW186919   6.997   9.977   5.302  0.6206  0.6767  0.3323
28304SOL    HW286920   6.961   9.875   5.408  0.2260 -0.0040 -0.4410
28305SOL     OW86921   1.962   3.255   3.568  0.2476 -0.0259  0.1181
28305SOL    HW186922   1.898   3.317   3.602 -0.2815  0.1530 -1.1398
28305SOL    HW286923   1.910   3.181   3.536  0.3393  1.1765 -3.2190
28306SOL     OW86924   9.954   1.185   4.150  0.0777 -0.1888 -0.4132
28306SOL    HW186925   9.909   1.216   4.071  0.1394 -0.0117 -0.3805
28306SOL    HW286926  10.034   1.238   4.154 -0.2140  0.2216  0.0945
28307SOL     OW86927  10.273   5.476   4.826  0.4265  0.3189  0.3357
28307SOL    HW186928  10.321   5.558   4.811  0.7641  0.2875  1.2168
28307SOL    HW286929  10.215   5.494   4.899 -0.2584  0.0774 -0.1434
28308SOL     OW86930   6.057   5.371   7.433 -0.0599 -0.1086  0.0033
28308SOL    HW186931   6.113   5.434   7.386  0.3577  1.5405  2.5449
28308SOL    HW286932   5.972   5.415   7.439 -0.3163 -0.6239  0.1777
28309SOL     OW86933   8.484   0.475   3.962  0.1987  0.2622  0.1043
28309SOL    HW186934   8.506   0.450   4.051  1.3390  1.2444  0.1204
28309SOL    HW286935   8.537   0.417   3.907  0.2314  0.3156  0.0800
28310SOL     OW86936   5.414   0.235   4.393  0.4948  0.0865 -0.1033
28310SOL    HW186937   5.319   0.238   4.410  0.4393 -0.9069 -0.1371
28310SOL    HW286938   5.439   0.326   4.381 -0.1904  0.5125  1.3939
28311SOL     OW86939   9.455   3.992   9.984 -0.2473  0.0864  0.3313
28311SOL    HW186940   9.394   3.924  10.012  0.7062 -1.3017 -0.7960
28311SOL    HW286941   9.410   4.037   9.912 -1.0917  1.0364  1.4209
28312SOL     OW86942   3.785   2.110   0.717  0.6219 -0.1366  0.0666
28312SOL    HW186943   3.787   2.173   0.645  0.5296  0.1382  0.3003
28312SOL    HW286944   3.827   2.032   0.682 -0.6455 -0.4939 -0.7503
28313SOL     OW86945   5.296   1.552   5.388  0.6506  0.9194 -0.0482
28313SOL    HW186946   5.333   1.469   5.419 -0.5684  0.8018  1.1486
28313SOL    HW286947   5.364   1.617   5.409  1.1445  0.3857  0.0347
28314SOL     OW86948   9.957  10.984   6.873  0.1463  0.2825  0.4443
28314SOL    HW186949   9.915  11.020   6.795 -1.0486  1.1330  1.4463
28314SOL    HW286950   9.895  10.919   6.906  0.4652  0.2062  0.8977
28315SOL     OW86951   2.694   6.705   3.773 -0.1470 -0.4447 -0.3080
28315SOL    HW186952   2.678   6.699   3.679 -0.2182 -2.1807 -0.2181
28315SOL    HW286953   2.760   6.637   3.791  0.0834  0.0550  0.8572
28316SOL     OW86954   7.554   8.736   4.869  0.4418  0.0507 -0.0358
28316SOL    HW186955   7.487   8.678   4.906 -1.1050  1.9317  0.3219
28316SOL    HW286956   7.563   8.708   4.778  0.7771 -1.5966  0.4732
28317SOL     OW86957   4.854   8.564   9.111 -0.2037  0.6710 -0.1424
28317SOL    HW186958   4.805   8.504   9.054  0.0972  1.6013 -1.4380
28317SOL    HW286959   4.860   8.518   9.195 -0.4752 -0.8664 -0.9196
28318SOL     OW86960   4.155   0.407  11.050 -0.4432 -0.1440 -0.2980
28318SOL    HW186961   4.134   0.359  11.130  1.4341  0.6342  0.7222
28318SOL    HW286962   4.156   0.499  11.076  3.5252 -0.0236 -0.2403
28319SOL     OW86963   1.397   2.053   9.038  0.3792  0.0431  0.0831
28319SOL    HW186964   1.432   1.986   9.096  4.4696  0.8655 -1.0713
28319SOL    HW286965   1.319   2.014   8.999  0.5966 -2.5760  2.0625
28320SOL     OW86966   0.450   8.017   1.375 -0.3476 -0.8777  0.1456
28320SOL    HW186967   0.355   8.019   1.387 -0.4262  3.3134  0.3425
28320SOL    HW286968   0.462   8.027   1.280 -0.1666 -0.5122  0.2025
28321SOL     OW86969   8.197   9.796   0.339  0.0727  0.3965  0.2617
28321SOL    HW186970   8.211   9.856   0.265  0.5674  1.2507  1.0226
28321SOL    HW286971   8.205   9.709   0.301  1.8595  0.8172 -0.4236
28322SOL     OW86972   8.323   6.483   1.513 -0.4467 -0.1900  0.3772
28322SOL    HW186973   8.268   6.411   1.545 -0.2570 -0.6943 -0.4085
28322SOL    HW286974   8.322   6.474   1.418 -1.6596  1.7762  0.1504
28323SOL     OW86975   9.349  10.674   0.261  0.1835  0.1021 -0.4880
28323SOL    HW186976   9.274  10.616   0.275  0.3961 -0.4412 -1.5761
28323SOL    HW286977   9.323  10.757   0.302 -0.9877 -0.1039 -0.7914
28324SOL     OW86978   6.838   9.807   2.455  0.2374  0.1460  0.0777
28324SOL    HW186979   6.816   9.765   2.538  1.0360 -0.8353 -0.1835
28324SOL    HW286980   6.765   9.784   2.397  0.2324 -0.1327  0.1900
28325SOL     OW86981   5.578  10.573   6.701 -0.1255  0.5384  0.2353
28325SOL    HW186982   5.493  10.601   6.734 -0.3033  1.1377 -0.6938
28325SOL    HW286983   5.608  10.645   6.645 -0.7072 -1.1250 -2.4009
28326SOL     OW86984   7.161   3.940   8.859  0.3864  0.0587 -0.0823
28326SOL    HW186985   7.107   4.013   8.827 -1.7327 -0.5726  1.7270
28326SOL    HW286986   7.229   3.982   8.912  0.7389  0.8196 -1.1204
28327SOL     OW86987   9.161   1.304   9.824  0.0812  0.0098  0.0635
28327SOL    HW186988   9.143   1.353   9.743  0.0773  0.3532  0.2717
28327SOL    HW286989   9.141   1.366   9.894  1.7769  0.3209  0.3157
28328SOL     OW86990   5.692   8.345   7.055 -0.1742  0.3296  0.1199
28328SOL    HW186991   5.720   8.361   7.146 -1.0328 -1.0153  0.6455
28328SOL    HW286992   5.758   8.286   7.020 -0.6573 -0.3669  0.3680
28329SOL     OW86993   7.241   0.545   8.606  0.1947 -0.2170  0.1753
28329SOL    HW186994   7.262   0.563   8.515 -0.9560 -2.2723 -0.5507
28329SOL    HW286995   7.196   0.624   8.636 -1.9862 -0.5451 -1.9318
28330SOL     OW86996  10.833   3.097   4.082  0.1581  0.1756  0.2404
28330SOL    HW186997  10.881   3.180   4.085  0.6661 -0.1447  1.6562
28330SOL    HW286998  10.741   3.123   4.090  0.3421  0.5984  1.1512
28331SOL     OW86999   7.437   0.499   7.180  0.1008 -0.2130 -0.0205
28331SOL    HW187000   7.349   0.519   7.212 -0.4133 -2.0067 -0.2115
28331SOL    HW287001   7.451   0.561   7.108  0.0941  1.8918  1.6810
28332SOL     OW87002   0.552   8.137   6.816 -0.4762 -0.2356 -0.1281
28332SOL    HW187003   0.577   8.154   6.726 -1.9882  0.1557 -0.5073
28332SOL    HW287004   0.457   8.122   6.812 -0.4431 -1.0141  1.2815
28333SOL     OW87005   2.768   5.249   7.397 -0.0545  0.0920  0.0952
28333SOL    HW187006   2.710   5.241   7.472 -0.3955  0.2715 -0.1497
28333SOL    HW287007   2.766   5.164   7.355  0.5948 -0.1951  0.6174
28334SOL     OW87008   3.959   0.773   3.192 -0.6744 -0.2677 -0.4931
28334SOL    HW187009   4.008   0.703   3.236 -1.5799 -0.0314  0.9663
28334SOL    HW287010   4.017   0.803   3.122 -0.7342 -3.2805 -1.9983
28335SOL     OW87011   0.183  10.260   3.489  0.2877  0.0072  0.1227
28335SOL    HW187012   0.214  10.346   3.458 -1.7416  0.5501 -0.5741
28335SOL    HW287013   0.088  10.271   3.498  0.0553 -2.0275  0.5309
28336SOL     OW87014   8.787  10.188   0.960  0.0803  0.1083 -0.3886
28336SOL    HW187015   8.772  10.270   0.913 -0.0661  0.0657 -0.4158
28336SOL    HW287016   8.727  10.126   0.920 -0.8891  0.3621  0.6118
28337SOL     OW87017   3.137  10.088  10.541  0.1591 -0.3759  0.3110
28337SOL    HW187018   3.067  10.047  10.491 -0.6617  1.3862 -0.0877
28337SOL    HW287019   3.124  10.057  10.631 -0.2393 -1.1796 -0.0169
28338SOL     OW87020   9.946   7.323   0.146  0.5713 -0.1010 -0.4213
28338SOL    HW187021   9.982   7.234   0.140  1.5668  0.1058  1.6773
28338SOL    HW287022   9.993   7.363   0.219 -0.1966  2.0134 -1.0144
28339SOL     OW87023   1.230   8.519   9.682 -0.0493  0.4072 -0.0769
28339SOL    HW187024   1.315   8.490   9.715  0.0789 -0.5537 -1.1639
28339SOL    HW287025   1.168   8.496   9.751  0.4007 -0.1662  0.1465
28340SOL     OW87026   3.250   4.734   6.075 -0.8236  0.3317  0.2394
28340SOL    HW187027   3.251   4.757   6.168 -0.0588 -0.9971  0.5861
28340SOL    HW287028   3.206   4.649   6.071  1.8027 -1.1061 -0.1954
28341SOL     OW87029   3.620   8.694   2.920  0.1855  0.2161 -0.5198
28341SOL    HW187030   3.561   8.739   2.980 -0.3657 -2.4466  1.1170
28341SOL    HW287031   3.562   8.657   2.853  0.3938  0.4017 -0.8006
28342SOL     OW87032   3.338  10.349   1.353  0.7219  0.2567  0.0146
28342SOL    HW187033   3.408  10.319   1.296  0.9891  1.7665 -0.5081
28342SOL    HW287034   3.260  10.303   1.322  0.5287  2.2366 -2.7239
28343SOL     OW87035  10.311   9.586   3.587 -0.0967  0.8595  0.3910
28343SOL    HW187036  10.274   9.644   3.653 -1.1769  1.9635 -1.1062
28343SOL    HW287037  10.322   9.641   3.510  2.1601 -0.1113 -0.0679
28344SOL     OW87038   6.198   8.943   4.468 -0.4528  0.0104 -0.0242
28344SOL    HW187039   6.272   8.883   4.465  0.8851  1.5992 -0.1736
28344SOL    HW287040   6.153   8.930   4.385 -1.7892 -2.6336  0.9972
28345SOL     OW87041   3.367   1.998   2.636  0.3635  0.3559 -0.5416
28345SOL    HW187042   3.398   2.064   2.699 -0.6724  2.1499 -1.8125
28345SOL    HW287043   3.273   1.992   2.652  0.1718  0.4600 -1.5695
28346SOL     OW87044   6.495   1.239   6.437 -0.1257  0.3031 -0.2918
28346SOL    HW187045   6.425   1.303   6.453 -1.2109 -0.9578  0.2665
28346SOL    HW287046   6.490   1.179   6.512  0.3625 -0.8549 -1.1476
28347SOL     OW87047   5.237   2.457   0.224  0.0902  0.0495  0.2410
28347SOL    HW187048   5.324   2.454   0.264  0.5433  2.7843 -0.2795
28347SOL    HW287049   5.190   2.524   0.274 -2.3828 -2.5022  1.5818
28348SOL     OW87050   6.620   8.778   5.580 -0.2601 -0.2169 -0.1905
28348SOL    HW187051   6.612   8.831   5.502 -0.4275 -1.0568 -0.7603
28348SOL    HW287052   6.563   8.819   5.644 -0.8006 -0.0175 -0.7917
28349SOL     OW87053   7.061   9.872   1.070  0.3346 -0.5248  0.9900
28349SOL    HW187054   6.992   9.813   1.101  0.2168 -0.9885 -0.1180
28349SOL    HW287055   7.016   9.936   1.016  0.7413 -0.7086  0.4262
28350SOL     OW87056   2.798   9.354   1.598 -0.2037  0.0300  0.8547
28350SOL    HW187057   2.802   9.426   1.662 -1.2176  0.6301  0.2703
28350SOL    HW287058   2.801   9.275   1.651 -2.7017  0.4993  1.8124
28351SOL     OW87059   4.024   7.186   4.926 -0.2253  0.1569  0.0300
28351SOL    HW187060   4.116   7.194   4.899 -0.8044 -1.0522 -2.6021
28351SOL    HW287061   3.977   7.245   4.866 -1.4263 -1.2827 -0.4928
28352SOL     OW87062   6.582   1.605   0.957  0.0581  0.0951  0.7550
28352SOL    HW187063   6.597   1.623   0.864 -1.8478 -1.0831  0.1553
28352SOL    HW287064   6.571   1.510   0.962 -0.7438  0.2291  2.0342
28353SOL     OW87065   8.770   9.169   0.223 -0.3498 -0.0672 -0.4567
28353SOL    HW187066   8.750   9.206   0.137 -0.1220  0.9192 -0.1076
28353SOL    HW287067   8.838   9.227   0.258  1.5820 -2.0144 -0.7230
28354SOL     OW87068   5.698   7.388   5.175 -0.0133 -0.1721  0.3747
28354SOL    HW187069   5.657   7.329   5.239 -0.6440  0.9394  1.0135
28354SOL    HW287070   5.784   7.348   5.159  0.3107 -0.3151  2.1754
28355SOL     OW87071   0.933   9.382   3.880 -0.1066 -0.3114 -0.3965
28355SOL    HW187072   0.907   9.302   3.834 -1.7453  0.1627 -0.3371
28355SOL    HW287073   1.025   9.367   3.903 -0.4724 -2.3363 -0.0587
28356SOL     OW87074   2.656   2.157   6.344 -0.2423  0.1847 -0.4888
28356SOL    HW187075   2.736   2.169   6.395  0.0066 -3.0900  0.0508
28356SOL    HW287076   2.686   2.136   6.256 -0.3890 -1.8811 -0.0975
28357SOL     OW87077   0.189   7.607   3.510  0.2522 -0.0469 -0.1095
28357SOL    HW187078   0.116   7.565   3.557  0.8523  1.0420  1.9494
28357SOL    HW287079   0.264   7.596   3.569  0.9970  1.6110 -0.6911
28358SOL     OW87080   7.182   5.964   6.626  0.0693  0.3940  0.4824
28358SOL    HW187081   7.089   5.957   6.603 -0.0090 -0.2934  0.9488
28358SOL    HW287082   7.209   5.873   6.644  0.6545  0.6591  0.9968
28359SOL     OW87083  10.832   0.959   9.256 -0.2401  0.5605  0.3245
28359SOL    HW187084  10.849   1.043   9.212 -0.3603  0.9903  1.0857
28359SOL    HW287085  10.919   0.921   9.269 -0.1328  0.9128  0.6448
28360SOL     OW87086   3.065   7.984   3.468  0.4198 -0.0327 -0.0239
28360SOL    HW187087   3.075   8.063   3.415 -1.1432 -0.9703 -1.8248
28360SOL    HW287088   2.994   8.005   3.528  0.9286  0.3773  0.4508
28361SOL     OW87089   2.660   9.243   1.151 -0.0291  0.0346 -0.3083
28361SOL    HW187090   2.743   9.196   1.156 -1.2212 -2.3303 -1.3778
28361SOL    HW287091   2.642   9.268   1.242  2.2923  1.5556 -0.1737
28362SOL     OW87092   1.192   3.613   3.021  0.0294  0.1516 -0.8693
28362SOL    HW187093   1.271   3.622   3.075 -1.2706  0.2677  1.1299
28362SOL    HW287094   1.223   3.575   2.939  1.8386 -2.1208  0.7456
28363SOL     OW87095   4.483   1.661   8.565  0.1886 -0.3104 -0.3913
28363SOL    HW187096   4.436   1.580   8.587 -0.4259  0.2937  0.5937
28363SOL    HW287097   4.521   1.690   8.648  1.2218 -0.0933 -0.9281
28364SOL     OW87098   1.155  11.015  10.511 -0.1259 -0.1930 -0.7696
28364SOL    HW187099   1.247  11.039  10.511  0.0358 -0.6564  0.8901
28364SOL    HW287100   1.154  10.922  10.491 -0.0586 -0.5545  0.7326
28365SOL     OW87101   5.196  10.091   6.163  0.2632  0.1211 -0.7382
28365SOL    HW187102   5.149  10.103   6.245 -0.4380 -0.5749 -1.0269
28365SOL    HW287103   5.138  10.126   6.095  1.5898  2.3840 -0.8125
28366SOL     OW87104   3.901   4.895   5.802 -0.5128  0.1103 -0.0844
28366SOL    HW187105   3.901   4.829   5.733 -0.7120  0.3341 -0.3029
28366SOL    HW287106   3.845   4.860   5.870 -3.0909  1.3186 -1.4506
28367SOL     OW87107   2.998   3.364   8.013 -0.5553 -0.2449 -0.4878
28367SOL    HW187108   3.049   3.290   8.046 -0.7875 -0.6554 -1.0417
28367SOL    HW287109   2.987   3.346   7.920 -1.4692 -0.0147 -0.4261
28368SOL     OW87110   9.307   5.746   0.133  0.0020 -0.4259  0.4251
28368SOL    HW187111   9.341   5.704   0.212  2.1861 -0.1440 -0.2999
28368SOL    HW287112   9.381   5.794   0.097 -0.7216 -1.0989 -2.1943
28369SOL     OW87113   2.842   5.066   6.184  0.4779  0.2499 -0.6054
28369SOL    HW187114   2.917   5.011   6.162  1.1795  1.4411 -1.3000
28369SOL    HW287115   2.868   5.154   6.158 -1.1347  0.7123 -0.7755
28370SOL     OW87116   4.480   0.173   9.198  1.0209 -0.1445 -0.4659
28370SOL    HW187117   4.480   0.130   9.283  0.7407 -0.7921 -0.7898
28370SOL    HW287118   4.415   0.125   9.146  1.0081  0.3978 -0.9679
28371SOL     OW87119   1.601   7.361   7.036 -0.1062 -0.0461 -0.1444
28371SOL    HW187120   1.676   7.389   7.088 -1.5093  0.9465  1.4475
28371SOL    HW287121   1.577   7.439   6.985  1.0989 -0.9309 -2.2258
28372SOL     OW87122   8.126   1.183   3.564  0.1208 -0.1615 -0.3713
28372SOL    HW187123   8.042   1.145   3.589  0.3902  0.3227  1.4174
28372SOL    HW287124   8.113   1.277   3.573  0.5052 -0.0122 -1.2843
28373SOL     OW87125   9.345   3.346   7.270  0.2084  0.4923  0.5828
28373SOL    HW187126   9.366   3.380   7.183 -1.5691  0.0119 -0.0793
28373SOL    HW287127   9.264   3.391   7.294  0.7468  0.7238  2.0810
28374SOL     OW87128   0.003  10.025   1.595 -0.1531  0.0216  0.5053
28374SOL    HW187129  -0.084  10.030   1.633 -0.6206 -0.3708 -0.4827
28374SOL    HW287130   0.002   9.946   1.542  0.4226  0.6098 -0.4241
28375SOL     OW87131   6.848   9.573   1.291 -0.4521 -0.0917 -0.2089
28375SOL    HW187132   6.935   9.592   1.327 -0.7296 -0.4263  0.6566
28375SOL    HW287133   6.807   9.658   1.281 -0.4002  0.0033  0.3544
28376SOL     OW87134   9.955   7.232   3.171  0.5490 -0.4402 -0.6459
28376SOL    HW187135   9.910   7.188   3.098  0.2312 -1.1283 -0.0430
28376SOL    HW287136   9.887   7.243   3.237  0.9739 -0.3474 -0.2231
28377SOL     OW87137  11.021  10.918   8.402  0.2903  0.2299 -0.0843
28377SOL    HW187138  11.112  10.948   8.398  1.2580 -2.1862  1.6645
28377SOL    HW287139  11.013  10.857   8.328  1.0961 -1.8100  1.4053
28378SOL     OW87140   3.664   8.580   4.430 -0.1641 -0.2767 -0.1607
28378SOL    HW187141   3.720   8.531   4.370  0.7275  0.4682  0.0470
28378SOL    HW287142   3.598   8.517   4.458 -0.6820 -0.6242 -2.0055
28379SOL     OW87143   6.677  11.036   4.153 -0.4593  0.5823  0.1859
28379SOL    HW187144   6.595  11.031   4.103 -0.8664 -0.0265  0.8904
28379SOL    HW287145   6.695  11.130   4.159 -1.4455  0.7592  0.5507
28380SOL     OW87146   6.078   6.123   6.684 -0.1050  0.1589 -0.2202
28380SOL    HW187147   6.034   6.209   6.684  0.3673  0.4002  0.4908
28380SOL    HW287148   6.109   6.113   6.594  0.6026  1.1400 -0.1075
28381SOL     OW87149   6.996  10.449   1.398  0.1548  0.8104  0.2470
28381SOL    HW187150   6.971  10.527   1.349 -0.3095  0.0837 -0.7187
28381SOL    HW287151   7.087  10.433   1.373 -0.5629 -0.5120 -1.7784
28382SOL     OW87152   6.650   1.346   0.855  0.0781 -0.3765  0.2777
28382SOL    HW187153   6.692   1.271   0.896  2.0732  0.3423 -0.3291
28382SOL    HW287154   6.606   1.310   0.778 -1.4288 -1.3174  1.5226
28383SOL     OW87155   5.002   8.407   2.865 -0.5434  0.2146  0.4202
28383SOL    HW187156   4.926   8.363   2.828  1.9898 -1.0334 -4.0393
28383SOL    HW287157   5.017   8.362   2.948 -2.5616 -2.0180 -0.2986
28384SOL     OW87158   3.313   6.009   8.756 -0.0441  0.1969 -0.2905
28384SOL    HW187159   3.353   6.091   8.729  0.1057  0.7471  1.4393
28384SOL    HW287160   3.344   5.996   8.846 -0.1970 -1.6754 -0.4662
28385SOL     OW87161   8.658   2.321   5.764  0.6476  0.4516 -0.1958
28385SOL    HW187162   8.645   2.362   5.678  1.6219  1.1187 -0.0401
28385SOL    HW287163   8.706   2.387   5.815 -1.8158  0.9806  1.6039
28386SOL     OW87164  10.012   2.633  10.485  0.3394  0.0321 -0.0257
28386SOL    HW187165  10.069   2.587  10.423 -2.1423  0.7202 -3.0743
28386SOL    HW287166  10.033   2.725  10.474  1.0231  0.0939  1.5076
28387SOL     OW87167   1.395   0.065   8.031  0.3763  0.5041 -0.0904
28387SOL    HW187168   1.436   0.149   8.052  0.8010 -0.2410  2.4170
28387SOL    HW287169   1.315   0.063   8.083  0.4591 -0.7089  0.0298
28388SOL     OW87170   7.250   8.134   3.205 -0.7054 -0.6479  0.5413
28388SOL    HW187171   7.282   8.197   3.270  1.1728 -2.2189  1.2012
28388SOL    HW287172   7.180   8.087   3.250 -0.2696 -0.8725  0.9875
28389SOL     OW87173   2.946   6.711   2.091 -0.1461  0.1857 -0.2890
28389SOL    HW187174   3.018   6.749   2.041  0.1585  0.6074  0.4570
28389SOL    HW287175   2.950   6.617   2.071  0.0670  0.3200 -0.9190
28390SOL     OW87176   4.098   2.646   4.220 -0.5318  0.2623  0.0410
28390SOL    HW187177   4.121   2.728   4.176  0.9991 -0.9408 -1.5907
28390SOL    HW287178   4.032   2.606   4.163 -1.2659  0.3305  0.8238
28391SOL     OW87179   1.436   5.736   4.626 -0.0816  0.8066  0.5937
28391SOL    HW187180   1.452   5.781   4.543 -0.7450 -0.8947 -0.5177
28391SOL    HW287181   1.519   5.694   4.647 -0.3816 -0.2097 -0.1713
28392SOL     OW87182   9.761   9.442   3.883  0.2246  0.4677 -0.0110
28392SOL    HW187183   9.707   9.462   3.806 -1.0563  1.2454  1.0566
28392SOL    HW287184   9.730   9.502   3.950  0.7962 -0.7115  1.3544
28393SOL     OW87185   2.525   0.720   4.885  0.3658  0.2140  0.1927
28393SOL    HW187186   2.587   0.793   4.891  0.2630  0.1946  2.1183
28393SOL    HW287187   2.440   0.759   4.907  0.2464 -0.3836  0.8399
28394SOL     OW87188   5.706   8.408   5.637  0.3311  0.1951  0.1463
28394SOL    HW187189   5.644   8.468   5.595  0.1104 -0.2437 -0.1522
28394SOL    HW287190   5.723   8.340   5.572  1.3291  0.4426  0.1209
28395SOL     OW87191   3.857   0.428   0.850 -0.4728 -0.1444  0.4626
28395SOL    HW187192   3.847   0.417   0.944  1.2942 -0.9815  0.5882
28395SOL    HW287193   3.914   0.356   0.823  1.8452  1.9747 -0.6809
28396SOL     OW87194   3.824  10.310  10.119 -0.3899 -0.5918 -0.2495
28396SOL    HW187195   3.764  10.235  10.111 -2.0797  0.8114 -1.6995
28396SOL    HW287196   3.768  10.386  10.106  1.6297  0.8297 -1.1019
28397SOL     OW87197   8.649   9.727   0.729 -0.0931  0.1757 -0.3395
28397SOL    HW187198   8.736   9.687   0.736  0.5134  1.5794  0.9900
28397SOL    HW287199   8.588   9.654   0.734  0.9810 -0.6966  0.7622
28398SOL     OW87200   5.529   9.925   7.198 -0.5295 -0.0697  0.8429
28398SOL    HW187201   5.616   9.957   7.172 -0.2726 -1.0784  0.3981
28398SOL    HW287202   5.499   9.988   7.264  0.6954  0.0892  1.2794
28399SOL     OW87203  10.801   9.524   2.599  0.5975 -0.2053 -0.3267
28399SOL    HW187204  10.727   9.526   2.538  1.5342  1.2352 -1.5025
28399SOL    HW287205  10.768   9.477   2.676 -2.8587  3.4589  0.7980
28400SOL     OW87206   0.514   4.410   5.792 -0.0130  0.4016 -0.7861
28400SOL    HW187207   0.569   4.477   5.750  1.0825 -0.9297 -1.5486
28400SOL    HW287208   0.457   4.379   5.721 -0.7986  0.7895 -0.3352
28401SOL     OW87209   9.542  10.357   2.649  0.1210 -0.2667  0.5039
28401SOL    HW187210   9.453  10.383   2.674 -0.2921 -2.2195  1.2622
28401SOL    HW287211   9.531  10.312   2.566  0.5685  0.4649  0.0464
28402SOL     OW87212   5.673  10.623   2.964  0.2122 -0.2235 -0.4533
28402SOL    HW187213   5.675  10.531   2.991  0.6002 -0.9396 -2.6847
28402SOL    HW287214   5.750  10.632   2.907 -0.8307  0.9799 -1.7248
28403SOL     OW87215   3.642   0.833   4.876 -0.5588  0.4402 -0.3073
28403SOL    HW187216   3.595   0.855   4.796  0.4570 -0.6428 -1.2158
28403SOL    HW287217   3.734   0.847   4.855 -0.3642  2.0814  1.3090
28404SOL     OW87218   2.867   7.104   2.037  0.1640  0.3332 -0.2290
28404SOL    HW187219   2.786   7.138   2.000 -0.6174  0.0654  1.1601
28404SOL    HW287220   2.843   7.018   2.072  1.0390  0.2773  0.2730
28405SOL     OW87221   5.928   2.767   2.707 -0.0293  0.3873 -0.0464
28405SOL    HW187222   5.969   2.842   2.749  1.0838 -0.9494  1.3849
28405SOL    HW287223   5.989   2.695   2.721 -1.9700 -1.2632  0.4946
28406SOL     OW87224   6.032  11.011   4.304  0.6197  0.5736 -0.4268
28406SOL    HW187225   6.021  10.919   4.330  2.8605  0.0292 -1.1328
28406SOL    HW287226   6.033  11.008   4.208 -0.0114  1.4692 -0.4705
28407SOL     OW87227   7.134  10.252   4.278  0.3245  0.1038 -0.1289
28407SOL    HW187228   7.062  10.295   4.323  1.4857  1.4613  0.5151
28407SOL    HW287229   7.102  10.240   4.188 -0.9129  0.0975  0.2930
28408SOL     OW87230   3.256  10.725   2.883 -0.1308 -0.3427  0.1658
28408SOL    HW187231   3.308  10.799   2.914 -0.8751 -0.9508  3.0934
28408SOL    HW287232   3.166  10.748   2.905 -0.7778 -0.7756 -1.8135
28409SOL     OW87233   6.319   7.648   2.896  0.1158 -0.2437  0.7714
28409SOL    HW187234   6.384   7.664   2.964 -0.1915 -0.8231  1.2127
28409SOL    HW287235   6.303   7.554   2.901 -1.2317 -0.0131  1.1151
28410SOL     OW87236   3.342   1.426  10.928  0.5650 -0.0995  0.4673
28410SOL    HW187237   3.371   1.497  10.871 -1.2324  1.7290  1.6965
28410SOL    HW287238   3.415   1.364  10.928  1.1372  0.3593 -2.8177
28411SOL     OW87239   7.528   8.748   2.676 -0.8031 -0.1286 -0.7933
28411SOL    HW187240   7.507   8.831   2.719  2.4490  1.2806 -1.6328
28411SOL    HW287241   7.624   8.748   2.668 -0.9262 -1.4884 -5.5419
28412SOL     OW87242  10.810   6.596   2.271  0.8097 -0.1559  0.5377
28412SOL    HW187243  10.729   6.592   2.322  0.6157  1.4878  0.3995
28412SOL    HW287244  10.857   6.671   2.307  0.7433  0.9692 -1.5577
28413SOL     OW87245   2.083   9.275   5.791  0.4540 -0.1766 -0.1892
28413SOL    HW187246   2.054   9.272   5.700 -0.0546 -0.4508 -0.0250
28413SOL    HW287247   2.166   9.228   5.791 -0.3119 -1.5939 -0.2493
28414SOL     OW87248   1.710   7.983   9.116  0.0379 -0.0087  0.1186
28414SOL    HW187249   1.795   7.981   9.160  1.1020 -0.9952 -1.8370
28414SOL    HW287250   1.688   8.076   9.109  0.1741  0.2024  1.9890
28415SOL     OW87251   8.123   8.366   7.113 -0.4914 -0.3271  0.2827
28415SOL    HW187252   8.217   8.356   7.098 -0.7170  0.2968 -1.8679
28415SOL    HW287253   8.087   8.278   7.097 -0.2108 -0.8043  2.0702
28416SOL     OW87254   6.740   8.032   3.413  0.0818  0.4386 -0.2353
28416SOL    HW187255   6.723   8.046   3.320 -0.6315 -0.9341 -0.3318
28416SOL    HW287256   6.775   7.943   3.418  1.2818  0.9287  0.6880
28417SOL     OW87257   5.774  10.890   4.528  0.4913  0.1177 -0.3417
28417SOL    HW187258   5.807  10.976   4.555  1.0054  0.2671 -1.3936
28417SOL    HW287259   5.680  10.893   4.545  0.6215  0.6125  0.3205
28418SOL     OW87260   5.134   1.510   8.691  0.1066 -0.0479 -0.0510
28418SOL    HW187261   5.058   1.478   8.643  0.7515 -1.0097 -0.4632
28418SOL    HW287262   5.122   1.605   8.694  0.3748  0.1510 -2.7499
28419SOL     OW87263   2.715   8.132   1.033 -0.6920 -0.3666  0.2688
28419SOL    HW187264   2.805   8.100   1.022 -0.3072  0.3399  1.2333
28419SOL    HW287265   2.716   8.221   0.999 -0.7869 -0.0294  1.1195
28420SOL     OW87266   7.308   2.133   6.215 -0.0126  0.0393  0.1868
28420SOL    HW187267   7.366   2.199   6.255 -0.8159  0.0142  1.4527
28420SOL    HW287268   7.228   2.180   6.194  0.3763  0.0345 -1.4141
28421SOL     OW87269   2.562  11.078  11.047 -0.3985 -0.1889 -0.2264
28421SOL    HW187270   2.562  11.160  10.997  2.3809  0.2446  0.2888
28421SOL    HW287271   2.575  11.105  11.138 -0.0193 -1.1493  0.0193
28422SOL     OW87272   4.440   7.712   8.014  0.9506  0.4351  0.7352
28422SOL    HW187273   4.419   7.720   7.921  2.9524  0.8112  0.2515
28422SOL    HW287274   4.371   7.657   8.050 -0.3064  0.9439 -0.8053
28423SOL     OW87275   6.958   0.411   6.363 -0.3770  0.1857  0.3611
28423SOL    HW187276   7.012   0.466   6.419  0.2392 -0.0807  0.0346
28423SOL    HW287277   6.930   0.469   6.292 -1.1983  0.5368  0.9462
28424SOL     OW87278   8.746  10.891   9.653  0.8830 -0.3344  0.1546
28424SOL    HW187279   8.830  10.926   9.682  1.5301 -0.1097 -1.8143
28424SOL    HW287280   8.689  10.968   9.647  1.2067 -0.1398 -0.5895
28425SOL     OW87281   0.216   4.272   7.082 -0.3591 -0.0829 -0.1094
28425SOL    HW187282   0.145   4.328   7.052 -0.1830  1.1724  1.6391
28425SOL    HW287283   0.273   4.330   7.133  1.7432 -1.1318 -1.1394
28426SOL     OW87284   8.655  10.029   2.139 -0.0990  0.0864 -0.1848
28426SOL    HW187285   8.631  10.010   2.049  2.9602 -2.1652 -0.6945
28426SOL    HW287286   8.730  10.087   2.133  0.1570 -0.1015  0.8899
28427SOL     OW87287   4.002   8.401   6.879 -0.3462 -0.1228  0.6883
28427SOL    HW187288   4.050   8.483   6.875 -0.0272 -0.1106  3.1890
28427SOL    HW287289   4.043   8.346   6.812  1.1520  0.8980  0.7182
28428SOL     OW87290   4.092   6.075   8.703 -0.3416 -0.8150 -0.3308
28428SOL    HW187291   4.111   6.019   8.778  0.9331 -0.2789 -0.2253
28428SOL    HW287292   4.079   6.162   8.740 -2.0325 -0.9608 -0.5199
28429SOL     OW87293   7.990   5.990   7.648 -0.1761 -0.0007  0.2972
28429SOL    HW187294   8.066   6.042   7.674  0.3831 -0.0999 -1.0960
28429SOL    HW287295   7.958   6.031   7.568  0.4727 -1.9542 -1.0147
28430SOL     OW87296  10.218  10.058   5.046 -0.1764  0.0863 -0.5265
28430SOL    HW187297  10.232  10.092   4.958  2.2314  0.0331 -0.2357
28430SOL    HW287298  10.251  10.127   5.104  0.1746 -0.7229  0.2577
28431SOL     OW87299  10.202   9.030   8.163 -0.1442  0.5321 -0.1851
28431SOL    HW187300  10.199   9.124   8.179  0.2853  0.3315  1.2359
28431SOL    HW287301  10.112   9.006   8.142 -0.0880  1.3919 -1.5615
28432SOL     OW87302   1.701   2.234   9.753 -0.2160 -0.4474  0.5218
28432SOL    HW187303   1.671   2.275   9.834 -0.2643  1.0129 -0.1996
28432SOL    HW287304   1.656   2.282   9.683 -0.7683 -2.1670 -0.3695
28433SOL     OW87305   6.590   0.967   3.699 -0.9804  0.1572  0.7500
28433SOL    HW187306   6.586   0.970   3.603 -0.6733 -1.0759  0.6783
28433SOL    HW287307   6.606   1.057   3.725 -2.4664  0.7593 -0.2730
28434SOL     OW87308   1.616   6.010  10.143  0.2203 -0.4322  0.1552
28434SOL    HW187309   1.574   6.044  10.064  0.3563 -1.5764 -0.4285
28434SOL    HW287310   1.651   6.088  10.187  0.9059  0.1596 -1.3596
28435SOL     OW87311   3.331   2.543   4.808 -0.2095  0.6966 -0.2677
28435SOL    HW187312   3.310   2.479   4.876 -1.4667  0.3370 -0.9742
28435SOL    HW287313   3.414   2.511   4.771 -0.8392 -0.5805 -0.6484
28436SOL     OW87314   1.873   3.050   5.722 -0.0559 -0.1251 -0.9363
28436SOL    HW187315   1.950   3.032   5.668  0.0276 -0.7853 -0.6094
28436SOL    HW287316   1.809   3.085   5.660  1.2864  2.8439 -0.8214
28437SOL     OW87317   8.619   0.436  10.738  0.2816 -0.1323  0.2955
28437SOL    HW187318   8.629   0.528  10.714 -0.9121  0.0988  0.5860
28437SOL    HW287319   8.708   0.405  10.753  0.6312  1.4067  1.7051
28438SOL     OW87320   3.319   3.210   0.552  0.0778 -0.1371  0.1974
28438SOL    HW187321   3.333   3.305   0.555 -0.4818 -0.0664  0.7382
28438SOL    HW287322   3.251   3.197   0.486 -1.5114  0.0659  1.7241
28439SOL     OW87323   6.017   5.930   0.394  0.1034 -1.2988  0.4207
28439SOL    HW187324   5.953   6.000   0.387  2.5692  1.3010  1.7143
28439SOL    HW287325   5.985   5.876   0.466 -0.7176 -0.1480  0.9518
28440SOL     OW87326   1.822  10.205   7.242 -0.8036  0.7782  0.1758
28440SOL    HW187327   1.775  10.289   7.247 -1.4891  0.4723 -0.8103
28440SOL    HW287328   1.773  10.154   7.178  0.6859  0.3119 -0.6359
28441SOL     OW87329   6.933   0.316   8.681 -0.1589 -0.5656  0.2050
28441SOL    HW187330   6.870   0.303   8.610 -0.7577  0.1065  0.6099
28441SOL    HW287331   6.943   0.411   8.687 -2.5828 -0.3533  3.1312
28442SOL     OW87332   5.622   0.607   0.633  0.4588 -0.1295  0.4831
28442SOL    HW187333   5.598   0.616   0.541 -1.2255 -0.8348  0.8136
28442SOL    HW287334   5.553   0.654   0.680  1.8733  1.1384  1.3655
28443SOL     OW87335   5.614  10.724  10.161  0.0878 -0.1143 -0.0142
28443SOL    HW187336   5.630  10.818  10.168 -0.2534  0.0152 -0.7964
28443SOL    HW287337   5.674  10.684  10.224 -1.1050  0.7264  1.7279
28444SOL     OW87338   2.495   0.777   0.263 -0.0811  0.9076 -0.3292
28444SOL    HW187339   2.491   0.871   0.280 -1.0004  0.4626  2.3763
28444SOL    HW287340   2.411   0.743   0.291  0.3548 -0.7931 -0.9401
28445SOL     OW87341   6.360   7.735   3.529  0.1294  0.5491 -0.1941
28445SOL    HW187342   6.303   7.691   3.592  1.0388  0.4240  0.5763
28445SOL    HW287343   6.308   7.742   3.449  0.0752 -2.3632 -0.5223
28446SOL     OW87344   5.185   0.915   1.008  0.0366  0.1603 -0.3941
28446SOL    HW187345   5.112   0.968   1.043 -1.0823 -0.9845 -0.9143
28446SOL    HW287346   5.212   0.861   1.082  0.1701  0.3770 -0.2825
28447SOL     OW87347   7.390   3.185   7.272  0.2440  0.2631 -0.0981
28447SOL    HW187348   7.312   3.227   7.307  1.4644  1.9964  0.6933
28447SOL    HW287349   7.394   3.214   7.181 -0.7860 -1.0220 -0.5805
28448SOL     OW87350   0.265   8.396   5.740 -0.5416  0.2319  0.1744
28448SOL    HW187351   0.307   8.336   5.679  0.6906  0.3016  0.9226
28448SOL    HW287352   0.229   8.339   5.808 -1.2595  0.2060 -0.2202
28449SOL     OW87353   3.824   2.837   8.615 -0.4999 -0.3170  0.3085
28449SOL    HW187354   3.754   2.771   8.610  0.7281 -1.6017 -0.7681
28449SOL    HW287355   3.790   2.910   8.562 -1.6090 -0.3219  0.9742
28450SOL     OW87356   3.224   9.652   8.087  0.1069 -0.2703 -0.3057
28450SOL    HW187357   3.250   9.574   8.038 -0.3355  0.4305 -1.6919
28450SOL    HW287358   3.271   9.644   8.171  2.3404 -0.5835 -1.5136
28451SOL     OW87359  10.192   1.598   5.109  0.5994 -0.0342 -0.0763
28451SOL    HW187360  10.245   1.519   5.095  1.6853  0.8413 -1.1325
28451SOL    HW287361  10.178   1.633   5.021  0.2586  1.0253  0.3841
28452SOL     OW87362   5.978   1.548  10.811 -0.2306  0.2445 -0.3704
28452SOL    HW187363   6.018   1.615  10.867  1.0251  2.0692 -3.2238
28452SOL    HW287364   5.907   1.594  10.766 -0.4197 -0.8308 -1.2098
28453SOL     OW87365   8.137   1.460   0.008  0.3252 -0.0344  0.4075
28453SOL    HW187366   8.110   1.542   0.048  0.9700 -0.4994  1.8913
28453SOL    HW287367   8.093   1.458  -0.077 -1.0559  1.0367  1.0649
28454SOL     OW87368   6.517   1.732   3.715  0.3638 -0.6586  0.6935
28454SOL    HW187369   6.575   1.776   3.652  1.7730  1.1137  3.0764
28454SOL    HW287370   6.429   1.757   3.688  0.9646  0.7198 -0.1223
28455SOL     OW87371   3.558   5.503   2.889  0.4533  0.4598 -0.4209
28455SOL    HW187372   3.569   5.597   2.908 -0.6104  0.5294 -0.0641
28455SOL    HW287373   3.629   5.461   2.936  0.5754  1.0404 -0.0696
28456SOL     OW87374   7.445   8.305   7.278  0.6592 -0.1653  0.1873
28456SOL    HW187375   7.478   8.217   7.295 -0.7845 -0.5699  1.1425
28456SOL    HW287376   7.416   8.336   7.364  2.5450  1.8936  0.1749
28457SOL     OW87377   5.972   1.915   6.742 -0.3474  0.4635  0.0524
28457SOL    HW187378   6.037   1.943   6.678  0.0692 -0.3382  0.1085
28457SOL    HW287379   6.017   1.850   6.796 -0.4554  1.6872  1.6774
28458SOL     OW87380   7.138   9.644   7.662 -0.3098  0.0529  0.7469
28458SOL    HW187381   7.211   9.691   7.622  0.0316  0.2699  1.5876
28458SOL    HW287382   7.092   9.602   7.589  0.4046  0.2669  0.1695
28459SOL     OW87383   6.260   3.180  10.535  0.4804 -0.9879 -0.4661
28459SOL    HW187384   6.281   3.208  10.624  0.0435 -0.7190 -0.4430
28459SOL    HW287385   6.335   3.206  10.483  0.2137 -0.0414 -0.3896
28460SOL     OW87386   0.991  10.358   8.478  0.0704  0.0528  0.1348
28460SOL    HW187387   0.986  10.410   8.397 -0.5137 -1.2677 -0.7153
28460SOL    HW287388   1.083  10.364   8.504  0.7596 -1.1148 -1.7834
28461SOL     OW87389   9.901  11.014   5.109 -0.3591  0.0626 -0.3504
28461SOL    HW187390   9.951  10.947   5.155 -2.4224 -0.3782  1.4172
28461SOL    HW287391   9.946  11.096   5.131  0.1801 -0.4054  0.3714
28462SOL     OW87392   2.901   1.048   6.825 -0.1738 -0.6189 -0.3984
28462SOL    HW187393   2.856   1.132   6.817 -0.3081 -0.4951  1.3216
28462SOL    HW287394   2.989   1.070   6.852 -0.5026 -1.0436  1.1079
28463SOL     OW87395   7.423   7.321   7.212 -0.2534 -0.0032  0.3750
28463SOL    HW187396   7.475   7.398   7.234  0.3256 -0.6617  1.4081
28463SOL    HW287397   7.409   7.328   7.118  1.0851  0.5895  0.1949
28464SOL     OW87398   1.546  10.487   3.652  0.1424  0.2340 -0.6220
28464SOL    HW187399   1.492  10.487   3.573 -0.7233 -0.8902 -0.0546
28464SOL    HW287400   1.485  10.468   3.723  0.9672  0.8841  0.2871
28465SOL     OW87401   3.807   1.420  10.515 -0.3508  0.2366 -0.2448
28465SOL    HW187402   3.886   1.462  10.480 -0.3013  0.1292 -0.2636
28465SOL    HW287403   3.841   1.351  10.573 -0.4235  1.0775  0.8287
28466SOL     OW87404   3.660   2.584   0.803  0.1029  0.5270 -0.0487
28466SOL    HW187405   3.700   2.646   0.864  1.5755 -1.0087  0.6299
28466SOL    HW287406   3.731   2.561   0.743 -0.5338 -0.1714 -0.5509
28467SOL     OW87407   5.965   0.862   7.065 -0.0435  0.2895 -0.4123
28467SOL    HW187408   5.872   0.860   7.089 -0.2237  0.7618 -1.0515
28467SOL    HW287409   5.974   0.939   7.009  0.9392  0.8738  0.4897
28468SOL     OW87410   1.609   9.011   5.072  0.3044 -0.2401  0.0412
28468SOL    HW187411   1.530   9.050   5.036  0.7356  1.2490  0.6362
28468SOL    HW287412   1.585   8.986   5.161 -0.7333 -3.8276 -1.0954
28469SOL     OW87413   7.867  10.059   4.311  0.3671 -0.1379  0.2367
28469SOL    HW187414   7.888   9.975   4.271 -0.8465 -0.0771 -0.5758
28469SOL    HW287415   7.788  10.089   4.265  1.9974  2.5047 -1.0584
28470SOL     OW87416   8.445   6.814   2.611  0.3967 -0.0739  0.4973
28470SOL    HW187417   8.517   6.765   2.651 -0.0011  0.0304  1.3589
28470SOL    HW287418   8.424   6.765   2.532  3.0710  1.2276 -1.1661
28471SOL     OW87419   2.053  10.377   8.125  0.2102 -0.3346  0.0420
28471SOL    HW187420   2.124  10.441   8.120  1.4991 -1.7703 -0.7470
28471SOL    HW287421   2.093  10.299   8.163 -0.6826 -1.4784 -1.2459
28472SOL     OW87422   9.684   9.163   0.961  0.1566 -0.8014  0.2797
28472SOL    HW187423   9.654   9.203   1.042 -0.9646 -0.7171 -0.1608
28472SOL    HW287424   9.730   9.084   0.989  0.0011 -0.6413  1.0064
28473SOL     OW87425   6.672  10.521  10.362 -0.0922  0.0522  0.2033
28473SOL    HW187426   6.752  10.499  10.315 -0.2602  1.3109 -0.7126
28473SOL    HW287427   6.670  10.460  10.436  2.2238  0.6605  0.8209
28474SOL     OW87428  10.739   9.841   6.607  0.4095  0.6856 -0.0965
28474SOL    HW187429  10.721   9.932   6.583  2.6854  0.6720 -2.3123
28474SOL    HW287430  10.750   9.796   6.523 -0.9949 -1.7646  0.9352
28475SOL     OW87431   9.559   3.007   4.894  0.3330 -0.0876  0.1043
28475SOL    HW187432   9.494   2.947   4.930  0.7763 -0.1565  0.8250
28475SOL    HW287433   9.538   3.092   4.933  0.3763 -0.0084 -0.0440
28476SOL     OW87434   1.092   1.588   6.890  0.1794  0.2460 -0.4493
28476SOL    HW187435   1.011   1.636   6.902 -1.8223 -2.4132 -2.1977
28476SOL    HW287436   1.126   1.617   6.805  0.1653  0.1323 -0.4937
28477SOL     OW87437   1.058   2.442   1.998  0.3074  0.1372 -0.3279
28477SOL    HW187438   1.012   2.375   1.948 -0.0227 -0.1684  0.3709
28477SOL    HW287439   0.992   2.475   2.059  0.6839  0.5559 -0.1482
28478SOL     OW87440   2.675  10.366   4.407 -0.0266  0.0850  0.1132
28478SOL    HW187441   2.717  10.300   4.352  0.7259  0.5694  0.0884
28478SOL    HW287442   2.587  10.374   4.372 -0.4744 -1.6401  0.7553
28479SOL     OW87443   8.465   7.742   9.072 -0.4533 -0.4235 -0.4834
28479SOL    HW187444   8.406   7.808   9.036  0.4417  1.9741  2.0816
28479SOL    HW287445   8.444   7.740   9.165  1.5459 -1.6513 -0.0124
28480SOL     OW87446   6.622   0.787   5.848  0.1255  0.8661 -0.6733
28480SOL    HW187447   6.675   0.707   5.854  1.3657  1.7706  1.9407
28480SOL    HW287448   6.538   0.758   5.814  0.1615 -1.7721  1.2192
28481SOL     OW87449   8.719   8.278   0.753  0.0374 -0.3415 -0.4333
28481SOL    HW187450   8.650   8.338   0.780 -0.3939 -1.7821  1.9236
28481SOL    HW287451   8.796   8.334   0.742 -1.2261  1.1679 -2.2479
28482SOL     OW87452   7.143   9.062   0.719  0.1974 -0.4654  0.0811
28482SOL    HW187453   7.109   8.973   0.733 -2.8350  0.6065  0.2171
28482SOL    HW287454   7.066   9.115   0.699  1.9517  2.0947 -0.4351
28483SOL     OW87455   0.848   2.301   0.011 -0.2472 -0.3225 -0.0349
28483SOL    HW187456   0.866   2.372   0.073  0.8063 -1.2467  0.7618
28483SOL    HW287457   0.754   2.286   0.018 -0.2715  0.1530  0.7227
28484SOL     OW87458   7.072   6.462   9.517  0.1990  0.0771 -0.7144
28484SOL    HW187459   7.101   6.553   9.524 -1.0757  0.4070  0.7978
28484SOL    HW287460   6.978   6.468   9.499  0.3969 -0.9646 -2.3066
28485SOL     OW87461  10.239  10.528   6.460  0.0721  0.2097  0.1191
28485SOL    HW187462  10.294  10.594   6.419 -1.1966  2.9394  2.4831
28485SOL    HW287463  10.210  10.472   6.387 -0.5819  3.5865 -2.4757
28486SOL     OW87464   0.577   4.534   7.128 -0.2155 -0.7186 -0.6066
28486SOL    HW187465   0.509   4.466   7.132 -0.0214 -0.9112 -0.5382
28486SOL    HW287466   0.643   4.504   7.191 -0.1461 -0.4456 -0.5506
28487SOL     OW87467  10.523   8.802   0.347 -0.0415 -0.3056 -0.1661
28487SOL    HW187468  10.509   8.737   0.279  0.4299  0.7040 -1.2749
28487SOL    HW287469  10.601   8.773   0.393 -0.0666 -0.7302 -0.3857
28488SOL     OW87470   0.113   9.849   6.477 -0.6072  0.3625  0.1727
28488SOL    HW187471   0.130   9.765   6.434 -0.3828 -0.0109  0.9846
28488SOL    HW287472   0.030   9.836   6.522  0.4060 -0.1180  1.9904
28489SOL     OW87473   6.529   9.506   4.596  0.5363  0.2717 -0.2654
28489SOL    HW187474   6.541   9.544   4.683 -1.2538  0.9065 -0.2475
28489SOL    HW287475   6.487   9.421   4.613  0.1997  0.3881 -0.5019
28490SOL     OW87476   6.066   8.782   9.051  0.2829 -0.1227  0.0606
28490SOL    HW187477   6.083   8.687   9.052  1.2250 -0.0513  3.2782
28490SOL    HW287478   5.983   8.791   9.098  0.0550  0.6351 -0.4777
28491SOL     OW87479   8.964  10.410   5.636 -0.1291  0.7227  0.0096
28491SOL    HW187480   8.888  10.459   5.669 -0.6046  0.1096 -0.1519
28491SOL    HW287481   9.036  10.473   5.640 -0.5998  1.2580  0.3553
28492SOL     OW87482   8.285   0.632   3.475  0.2514 -0.0670 -0.4668
28492SOL    HW187483   8.298   0.539   3.494 -0.2636  0.0874  0.7141
28492SOL    HW287484   8.241   0.633   3.390  0.7206 -0.8778 -0.7296
28493SOL     OW87485   2.927   9.465   9.076  0.3296 -0.0521 -0.0905
28493SOL    HW187486   2.896   9.446   9.164 -0.0065  0.1882 -0.1554
28493SOL    HW287487   2.879   9.405   9.020  0.0643  0.2387 -0.1788
28494SOL     OW87488   5.468   4.702   0.761 -0.2057  0.6880 -0.0153
28494SOL    HW187489   5.553   4.728   0.725 -0.4109  1.7147  0.2207
28494SOL    HW287490   5.488   4.674   0.850  0.2184 -1.3286 -0.6812
28495SOL     OW87491   7.076   5.381   8.628  0.4575  0.4948 -0.8441
28495SOL    HW187492   6.984   5.358   8.612  1.1830 -1.7618 -2.2791
28495SOL    HW287493   7.110   5.407   8.542  0.8200  2.9362 -0.0424
28496SOL     OW87494   1.210   2.038   0.194  0.1516 -0.2425  0.2036
28496SOL    HW187495   1.232   2.129   0.179  0.4426 -0.1810  0.9648
28496SOL    HW287496   1.266   2.011   0.267 -1.3975 -0.4358  1.3698
28497SOL     OW87497   1.097   1.545   7.608  0.4143 -0.1345 -0.3663
28497SOL    HW187498   1.182   1.524   7.646 -0.0986  0.3163  1.1169
28497SOL    HW287499   1.109   1.632   7.570  0.8101 -0.3883 -0.8287
28498SOL     OW87500   6.991   9.906   4.341  0.2414 -0.2173 -0.4022
28498SOL    HW187501   7.035   9.846   4.281 -0.5966 -0.5526 -0.6988
28498SOL    HW287502   7.062   9.950   4.387  0.9100  0.0477 -1.6402
28499SOL     OW87503   3.566  10.841   5.138 -0.8945 -0.7664 -0.5080
28499SOL    HW187504   3.622  10.868   5.065 -0.4442  1.8415  0.6988
28499SOL    HW287505   3.478  10.862   5.109 -0.8168 -0.7095 -0.7065
28500SOL     OW87506   9.831   2.243   9.310 -0.1788  0.1252 -0.0728
28500SOL    HW187507   9.740   2.266   9.297 -0.7161  0.1123  2.9298
28500SOL    HW287508   9.877   2.281   9.235 -2.3845  1.8014 -0.6633
28501SOL     OW87509   6.644   9.746   2.257 -0.1126 -1.0118  0.9415
28501SOL    HW187510   6.564   9.698   2.234 -0.2675 -0.9868  1.4165
28501SOL    HW287511   6.712   9.706   2.203 -0.8361  0.4706 -1.2436
28502SOL     OW87512   9.662  11.032   8.046 -0.1960  0.4210  0.1004
28502SOL    HW187513   9.677  10.960   7.985 -3.7006 -0.0242 -0.4333
28502SOL    HW287514   9.690  11.110   7.998  0.0805 -0.2147 -0.8075
28503SOL     OW87515   3.339   6.877   5.750  0.2019  0.0358  0.1509
28503SOL    HW187516   3.426   6.838   5.745  0.3190  0.3026  0.1172
28503SOL    HW287517   3.349   6.951   5.811 -0.4405 -1.1387  1.7723
28504SOL     OW87518   5.914   8.100  10.163  0.5749  0.3974  0.3446
28504SOL    HW187519   5.877   8.187  10.147 -0.2442  0.0057  0.0313
28504SOL    HW287520   5.913   8.091  10.259  1.6766  1.1479  0.4376
28505SOL     OW87521   9.561   3.995   0.114 -0.4924 -0.4647 -0.4083
28505SOL    HW187522   9.601   3.952   0.038  1.7977 -2.2323  1.6532
28505SOL    HW287523   9.479   3.947   0.127  0.8848 -2.7373  0.4003
28506SOL     OW87524   4.477   7.845   9.546 -0.4790 -0.8260  0.3768
28506SOL    HW187525   4.486   7.930   9.502  0.0434 -0.6344  0.8455
28506SOL    HW287526   4.563   7.804   9.537 -0.0662 -0.3903  2.0201
28507SOL     OW87527   0.785   8.263   3.920  0.3919 -0.0329 -0.0642
28507SOL    HW187528   0.850   8.204   3.956 -0.1157 -0.7629 -0.3128
28507SOL    HW287529   0.803   8.265   3.826 -0.5650 -1.0769 -0.2995
28508SOL     OW87530   0.270   8.112   6.834  0.1280  0.1340 -0.2488
28508SOL    HW187531   0.246   8.020   6.841  0.3818  0.1339  0.6897
28508SOL    HW287532   0.200   8.151   6.781  1.2372 -1.0498 -2.7658
28509SOL     OW87533   7.199   6.555   0.479 -0.1945  0.1893  0.5098
28509SOL    HW187534   7.176   6.633   0.529 -0.9525 -0.1133  0.6385
28509SOL    HW287535   7.160   6.568   0.393 -2.8888 -1.3037  1.3909
28510SOL     OW87536   9.065   4.079   0.338 -0.0954 -0.2742 -0.6536
28510SOL    HW187537   9.046   3.985   0.345 -0.4009 -0.1831 -0.1905
28510SOL    HW287538   9.160   4.084   0.348 -0.2894 -0.3354  1.9791
28511SOL     OW87539   9.893   5.590  11.007 -0.2420 -0.4686  0.1975
28511SOL    HW187540   9.823   5.567  11.068  0.6247 -1.2388  0.9318
28511SOL    HW287541   9.972   5.593  11.061 -0.0047  2.6194 -0.1684
28512SOL     OW87542   0.023   0.669   5.059 -0.0221 -0.1989 -0.6578
28512SOL    HW187543  -0.060   0.674   5.012  0.3779 -0.0982 -1.3586
28512SOL    HW287544  -0.002   0.647   5.149 -0.7413 -1.2364 -1.0853
28513SOL     OW87545   9.349   2.214   1.441 -0.1968 -0.1745 -0.4971
28513SOL    HW187546   9.438   2.191   1.467  0.4597  0.3141 -2.1740
28513SOL    HW287547   9.295   2.194   1.517  1.4318  0.0926  0.7651
28514SOL     OW87548   6.808  10.025   6.285 -0.0733  0.0320  0.6404
28514SOL    HW187549   6.808   9.981   6.201 -0.0532 -0.8804  1.1079
28514SOL    HW287550   6.719  10.058   6.296 -0.2097 -0.2867  0.4886
28515SOL     OW87551  10.955   0.666   5.299 -0.0151  0.6922 -0.0022
28515SOL    HW187552  10.959   0.583   5.347 -2.1893 -0.3781 -1.5296
28515SOL    HW287553  10.868   0.701   5.319 -0.0251  1.4189 -1.2506
28516SOL     OW87554   9.777   9.055   2.200 -0.4293  0.6944 -0.2547
28516SOL    HW187555   9.707   9.035   2.261 -1.5896  1.3125 -1.3439
28516SOL    HW287556   9.733   9.095   2.125  1.1569  1.7297 -0.6865
28517SOL     OW87557   9.879   5.925   6.682  0.5801  0.3457  0.0946
28517SOL    HW187558   9.929   5.896   6.758  0.3323  0.6068  0.3567
28517SOL    HW287559   9.839   6.008   6.709 -0.1685  0.0373 -0.0271
28518SOL     OW87560   7.790   9.111   7.597 -0.9985 -0.3743 -0.3035
28518SOL    HW187561   7.743   9.174   7.542 -1.3028 -0.3466 -0.0157
28518SOL    HW287562   7.875   9.100   7.554 -1.1476 -0.1806 -0.6534
28519SOL     OW87563   7.531   3.064   4.980 -0.3835 -0.0136 -0.1951
28519SOL    HW187564   7.502   3.155   4.971  0.7825  0.2539 -1.7392
28519SOL    HW287565   7.543   3.034   4.890  0.4608 -1.3042  0.3206
28520SOL     OW87566   5.311   0.233   3.596 -0.1315 -0.6230 -0.4729
28520SOL    HW187567   5.241   0.241   3.530  1.0538 -0.7571 -1.8025
28520SOL    HW287568   5.309   0.140   3.620 -0.5069 -0.5950 -0.3797
28521SOL     OW87569  10.842   9.347   1.459 -0.2816  0.0177 -0.4512
28521SOL    HW187570  10.871   9.431   1.493  2.6021 -1.0948  0.0848
28521SOL    HW287571  10.809   9.300   1.536  1.8381 -0.7411  0.0667
28522SOL     OW87572   7.825   9.805   2.662 -0.0756  0.4014  0.2444
28522SOL    HW187573   7.853   9.895   2.646  1.6196  0.0261  0.9490
28522SOL    HW287574   7.804   9.802   2.755 -1.6216  0.4297 -0.0796
28523SOL     OW87575   2.289   2.327  11.001 -0.0679 -0.2010 -0.0472
28523SOL    HW187576   2.241   2.248  11.024  0.3140 -0.7688 -1.1145
28523SOL    HW287577   2.380   2.299  10.996  0.2088  0.5536  0.6162
28524SOL     OW87578   7.319   6.114   6.822 -0.0429  0.7252 -0.2910
28524SOL    HW187579   7.273   6.069   6.752 -0.6154 -0.3490  0.7471
28524SOL    HW287580   7.265   6.100   6.900  1.7631 -0.1952  0.8808
28525SOL     OW87581  10.284  10.248   2.336  0.3213  0.1659  0.1011
28525SOL    HW187582  10.318  10.268   2.423  0.7940  2.0203 -0.4677
28525SOL    HW287583  10.314  10.159   2.318  0.9998  0.1025  1.4494
28526SOL     OW87584   3.731   5.305   4.875  0.8556  0.4896 -0.3776
28526SOL    HW187585   3.826   5.300   4.889  0.9919  0.9029 -1.0585
28526SOL    HW287586   3.714   5.398   4.863  0.1758  0.5420  0.8633
28527SOL     OW87587   9.333   9.416   4.987 -0.0212 -0.1100 -0.7340
28527SOL    HW187588   9.286   9.332   4.989 -0.4717  0.1402 -0.7564
28527SOL    HW287589   9.307   9.456   4.905 -0.9107  0.6775 -0.0849
28528SOL     OW87590   4.275   2.120   2.691 -0.8514  0.3654 -0.1563
28528SOL    HW187591   4.308   2.208   2.712 -0.8212 -0.1046  1.9825
28528SOL    HW287592   4.352   2.064   2.698 -1.0250  0.0507 -0.7314
28529SOL     OW87593   7.062   9.453   8.797  0.0894 -0.8485  0.5884
28529SOL    HW187594   7.122   9.451   8.722 -0.6475  1.4098 -0.1231
28529SOL    HW287595   7.111   9.498   8.865 -0.8508  1.3219 -0.1090
28530SOL     OW87596   3.362   7.026   4.146 -0.2577 -0.3405  0.5547
28530SOL    HW187597   3.420   7.103   4.145 -0.3311 -0.2589 -1.8290
28530SOL    HW287598   3.279   7.060   4.180  0.2928  0.1237  1.5073
28531SOL     OW87599   4.805   4.149   0.326  0.1977 -0.0629 -0.4633
28531SOL    HW187600   4.792   4.054   0.331  1.3452 -0.2927 -1.4182
28531SOL    HW287601   4.780   4.181   0.412 -3.6928 -0.7546 -1.1231
28532SOL     OW87602   5.219   6.757  10.003  0.2504  0.0059  0.3484
28532SOL    HW187603   5.255   6.670   9.987 -0.6826 -0.6173  1.4832
28532SOL    HW287604   5.248   6.809   9.928  1.2067 -1.1567 -0.1212
28533SOL     OW87605   2.338  10.510   7.906 -0.0194  0.0141 -0.0255
28533SOL    HW187606   2.307  10.516   7.996  0.6145 -0.9086  0.2706
28533SOL    HW287607   2.271  10.555   7.854 -1.3452 -1.0805  0.6902
28534SOL     OW87608   1.490   5.188   6.931  0.4752 -0.6566  0.1182
28534SOL    HW187609   1.577   5.159   6.959  1.7481  0.4954 -2.3769
28534SOL    HW287610   1.436   5.109   6.936  1.3930 -1.2408  2.3963
28535SOL     OW87611  11.009   1.204   5.299 -0.2644 -0.4494  0.1641
28535SOL    HW187612  10.980   1.273   5.358 -2.3990  0.7036 -2.0320
28535SOL    HW287613  11.054   1.251   5.228  0.0247 -1.5102 -0.3793
28536SOL     OW87614   6.500  10.395   4.765  0.5352  0.2575 -0.3638
28536SOL    HW187615   6.487  10.470   4.707 -0.8432  0.7877  0.5920
28536SOL    HW287616   6.432  10.332   4.740  1.2330 -0.3954 -0.6775
28537SOL     OW87617   7.897  10.468   5.044 -0.2852  0.2984  0.1681
28537SOL    HW187618   7.871  10.547   4.997 -0.9421 -0.6660 -1.1515
28537SOL    HW287619   7.821  10.410   5.036  0.4800 -0.7679  0.4269
28538SOL     OW87620   1.350   7.602   8.911  0.7369  0.0273 -0.0050
28538SOL    HW187621   1.310   7.670   8.965 -3.7935 -2.4279  0.2524
28538SOL    HW287622   1.303   7.607   8.827 -0.6853 -3.2789  0.4141
28539SOL     OW87623   6.563   7.494   3.242 -0.8323 -0.3215 -0.3460
28539SOL    HW187624   6.606   7.471   3.159  1.1313  0.3578  0.4090
28539SOL    HW287625   6.560   7.412   3.290  0.6956 -0.2129  0.0020
28540SOL     OW87626   6.914   7.431   5.794  0.4716 -0.5439  0.5653
28540SOL    HW187627   6.942   7.417   5.884  2.5259  0.7597  0.1908
28540SOL    HW287628   6.967   7.372   5.742 -0.1203 -0.6954  0.1208
28541SOL     OW87629   6.679   4.752  10.107  0.4942 -0.2521 -0.2086
28541SOL    HW187630   6.767   4.761  10.145  1.0236  3.4765 -1.9024
28541SOL    HW287631   6.633   4.832  10.133 -0.7290  0.1738 -3.2325
28542SOL     OW87632   7.157   0.035   8.062  0.0983  0.0327 -0.8470
28542SOL    HW187633   7.178  -0.023   8.135 -0.6499  0.4484 -0.2855
28542SOL    HW287634   7.063   0.024   8.048  0.0215  0.7927 -0.9987
28543SOL     OW87635   7.500   6.845   3.839 -0.4130  0.9091  0.0792
28543SOL    HW187636   7.469   6.837   3.929 -2.3515  3.8054 -0.1894
28543SOL    HW287637   7.420   6.852   3.787  0.6775  1.1457 -1.6510
28544SOL     OW87638   3.349   6.344   8.271  0.2285  0.7548 -0.0686
28544SOL    HW187639   3.380   6.434   8.264 -1.7987  1.5717  0.6946
28544SOL    HW287640   3.278   6.348   8.335 -0.1221 -1.3407 -0.2556
28545SOL     OW87641   3.307   2.224   6.295 -0.0275 -0.2832  0.1449
28545SOL    HW187642   3.221   2.260   6.272  0.0692  0.3815  0.7509
28545SOL    HW287643   3.350   2.209   6.211 -0.2554  0.6046 -0.1492
28546SOL     OW87644   0.729   2.457   9.821 -0.0628  0.6136 -0.4317
28546SOL    HW187645   0.649   2.416   9.789  0.2473 -0.3051 -0.0778
28546SOL    HW287646   0.786   2.383   9.842  0.3734  1.2309  0.6074
28547SOL     OW87647   4.680   2.617   5.908  0.4560 -0.2668  0.0427
28547SOL    HW187648   4.683   2.603   5.813  1.7703  0.5595 -0.0716
28547SOL    HW287649   4.757   2.672   5.926 -0.0586  0.0091  1.5197
28548SOL     OW87650   4.694   1.126   6.554  0.0473 -0.3962 -0.0880
28548SOL    HW187651   4.743   1.117   6.472 -1.0516 -1.3865 -0.6760
28548SOL    HW287652   4.709   1.043   6.600  0.9615  0.3052  0.9071
28549SOL     OW87653   9.299   2.481   5.278 -0.2632  0.4359 -0.2547
28549SOL    HW187654   9.214   2.474   5.321 -1.2825  0.5863 -2.1389
28549SOL    HW287655   9.345   2.401   5.303 -1.8336 -0.7331 -0.9514
28550SOL     OW87656   4.857  10.549   6.522  0.7522  0.1436  0.6154
28550SOL    HW187657   4.846  10.472   6.467 -0.4760  0.2345  0.7244
28550SOL    HW287658   4.924  10.602   6.476  0.1846 -0.0589 -0.4731
28551SOL     OW87659  10.554  10.735   3.605 -0.2669 -0.3346  0.2600
28551SOL    HW187660  10.554  10.800   3.535 -0.4219 -1.3596 -0.7153
28551SOL    HW287661  10.488  10.672   3.579  1.6789 -2.3149 -0.2007
28552SOL     OW87662   4.014   8.120   8.483 -0.1645 -0.1851 -0.5892
28552SOL    HW187663   3.938   8.067   8.508  0.3751 -1.0870 -0.8206
28552SOL    HW287664   3.999   8.204   8.526 -1.2730 -0.3586 -0.5947
28553SOL     OW87665   5.754   9.019   7.687  0.0035 -0.1843  0.1418
28553SOL    HW187666   5.760   9.050   7.597  0.0984  0.8731  0.4846
28553SOL    HW287667   5.664   8.991   7.698 -0.2191  0.4248 -0.0720
28554SOL     OW87668   1.819   8.280   7.271 -0.3464  0.2411 -0.2247
28554SOL    HW187669   1.843   8.321   7.189 -2.0337  2.3260  0.2388
28554SOL    HW287670   1.756   8.340   7.311 -0.3713 -1.1957  2.1174
28555SOL     OW87671   7.543   7.270   3.730 -0.1737  0.0712  0.0657
28555SOL    HW187672   7.547   7.210   3.656 -0.9391  1.4141 -1.1211
28555SOL    HW287673   7.462   7.320   3.717 -0.9154 -0.3922  2.4290
28556SOL     OW87674   6.042   6.839   9.501  0.5120  0.0669 -0.9033
28556SOL    HW187675   5.979   6.896   9.545  1.2403  0.1838  0.0165
28556SOL    HW287676   6.107   6.898   9.464  0.9850 -0.1377 -0.4036
28557SOL     OW87677   6.729   3.087   8.068  0.1751  0.2471  0.2073
28557SOL    HW187678   6.752   3.076   8.161  1.6009 -1.6840 -0.3209
28557SOL    HW287679   6.734   2.999   8.031 -2.4073  0.6320 -1.3182
28558SOL     OW87680   3.728   0.447   1.973  0.0902 -0.0758 -0.4473
28558SOL    HW187681   3.783   0.369   1.983  2.0100  0.9896 -2.0111
28558SOL    HW287682   3.693   0.462   2.061  1.1616 -1.6426  0.3010
28559SOL     OW87683  10.285   1.493   3.515 -0.5536 -0.1484  0.6725
28559SOL    HW187684  10.201   1.476   3.471 -1.2272  0.4251  1.7091
28559SOL    HW287685  10.289   1.588   3.524  0.3153 -0.1548  0.4539
28560SOL     OW87686   4.009   8.078   0.140 -0.2894 -0.0717 -0.0930
28560SOL    HW187687   3.929   8.026   0.143  0.1412 -0.8689 -1.7556
28560SOL    HW287688   4.017   8.106   0.049  1.5977 -0.4620 -0.0884
28561SOL     OW87689   6.153   9.904   0.123  0.3527  0.2031 -0.0801
28561SOL    HW187690   6.076   9.848   0.136  0.0342 -0.2379 -3.2246
28561SOL    HW287691   6.227   9.851   0.154 -0.4549  0.4250  2.4689
28562SOL     OW87692   1.828   9.871  10.658 -0.5582 -0.6608  0.0986
28562SOL    HW187693   1.907   9.841  10.614 -0.5553  0.1825 -0.5006
28562SOL    HW287694   1.756   9.833  10.607 -0.5624 -2.0178  1.0644
28563SOL     OW87695   3.241   0.928   4.371 -1.0620 -0.4365 -0.2458
28563SOL    HW187696   3.334   0.906   4.377 -1.5602 -2.9158 -0.4270
28563SOL    HW287697   3.223   0.976   4.451  0.3133 -0.1230 -0.0897
28564SOL     OW87698  10.214   1.992   4.845  0.2377 -0.3362 -0.0637
28564SOL    HW187699  10.305   1.967   4.860  0.1237 -0.3265  0.7167
28564SOL    HW287700  10.200   1.978   4.752  0.8907 -0.8297 -0.0960
28565SOL     OW87701   9.690   2.778   2.723 -0.3902  0.1773  0.2029
28565SOL    HW187702   9.685   2.728   2.641 -0.6744  0.8867 -0.2231
28565SOL    HW287703   9.599   2.784   2.753 -0.3750  0.5508  0.1771
28566SOL     OW87704   3.508   0.189   0.705 -0.1935  0.2055 -0.2337
28566SOL    HW187705   3.458   0.141   0.640 -0.4377  1.5214 -1.0440
28566SOL    HW287706   3.467   0.166   0.789 -2.6882  1.7980 -0.9179
28567SOL     OW87707   5.212   9.740   9.282 -0.1032 -0.2748  0.0875
28567SOL    HW187708   5.120   9.757   9.259  0.4249  3.4117  0.2037
28567SOL    HW287709   5.261   9.763   9.203  0.8734 -0.1991  0.7063
28568SOL     OW87710   5.809   0.030   6.623  0.2859 -0.0291 -0.4392
28568SOL    HW187711   5.770   0.083   6.692  0.9387 -0.6608  0.4462
28568SOL    HW287712   5.904   0.044   6.631  0.4443 -0.9757 -0.4589
28569SOL     OW87713   4.111   0.933   6.153  0.3880  0.3664  0.1464
28569SOL    HW187714   4.168   0.916   6.078  2.0484 -0.5997  1.5586
28569SOL    HW287715   4.141   0.872   6.220 -3.2996 -1.2927  0.5240
28570SOL     OW87716   7.849   5.606   5.118 -0.2812  0.7925 -0.0078
28570SOL    HW187717   7.900   5.548   5.062 -1.2698 -0.0966 -0.0245
28570SOL    HW287718   7.840   5.687   5.066  0.2031  0.5805 -0.4306
28571SOL     OW87719   4.159   2.803   5.090  0.5092  0.4698 -0.2713
28571SOL    HW187720   4.215   2.739   5.046 -0.9802 -0.8568 -0.3001
28571SOL    HW287721   4.091   2.751   5.132 -0.2002  1.9814  0.5319
28572SOL     OW87722   0.009   8.323   4.188  0.3832 -0.0427  0.2131
28572SOL    HW187723   0.090   8.298   4.232  0.4000  0.3827  0.4282
28572SOL    HW287724   0.016   8.284   4.101  1.0484  0.4169  0.0568
28573SOL     OW87725  10.774   7.788   4.933  0.0294 -0.2621  0.4634
28573SOL    HW187726  10.859   7.756   4.901  0.6069  0.9943  0.6805
28573SOL    HW287727  10.745   7.851   4.867  0.4468  1.1197  1.5419
28574SOL     OW87728   9.204   1.704   4.578  0.1885 -0.0321 -0.5975
28574SOL    HW187729   9.244   1.634   4.526  1.8703  0.4893 -0.0888
28574SOL    HW287730   9.167   1.764   4.514 -0.8831 -1.1479 -1.0515
28575SOL     OW87731   0.115   2.319   4.530  0.0392 -0.0920 -0.6427
28575SOL    HW187732   0.076   2.232   4.527 -0.9147  0.3140 -0.4675
28575SOL    HW287733   0.167   2.325   4.449 -0.6142 -0.4912 -1.1000
28576SOL     OW87734   6.016   9.084   8.768  0.2902  0.6528  0.1546
28576SOL    HW187735   5.955   9.077   8.695 -0.2260  2.0834  0.4213
28576SOL    HW287736   5.961   9.094   8.845  0.7680 -2.3447  1.0455
28577SOL     OW87737  10.151  10.508   9.170  0.3204  0.2527  0.0525
28577SOL    HW187738  10.218  10.567   9.134  0.9084 -1.3968 -1.6893
28577SOL    HW287739  10.070  10.537   9.129  0.8858 -1.1987 -2.2348
28578SOL     OW87740   7.857   0.751   9.216 -0.1477  0.2849 -0.2874
28578SOL    HW187741   7.766   0.730   9.194 -0.2429  0.3907  0.0016
28578SOL    HW287742   7.905   0.669   9.201 -0.7924 -0.6862  2.4496
28579SOL     OW87743  10.709   8.765   3.249  0.1526 -0.7014 -0.1383
28579SOL    HW187744  10.667   8.679   3.242  0.0485 -0.6480 -0.1729
28579SOL    HW287745  10.649   8.825   3.203 -1.1361 -0.1199  2.1422
28580SOL     OW87746   7.265   8.678   7.313  0.4560  0.6318  0.0372
28580SOL    HW187747   7.197   8.611   7.309  1.0343  0.0305  0.1568
28580SOL    HW287748   7.318   8.654   7.388  0.4620  1.4340  0.3014
28581SOL     OW87749   2.414   4.952   8.697  0.2077  0.4914  0.5132
28581SOL    HW187750   2.478   4.944   8.627 -1.2002 -0.5554 -0.7095
28581SOL    HW287751   2.331   4.921   8.659 -0.1394 -2.6121  3.2946
28582SOL     OW87752  10.222  10.542   5.999 -0.1075  0.7460  0.4967
28582SOL    HW187753  10.175  10.541   5.915 -0.1945  0.9628  0.5404
28582SOL    HW287754  10.173  10.481   6.054  0.7735 -0.4917 -0.0343
28583SOL     OW87755   3.128   1.130   8.836  0.5529  0.3840 -0.4120
28583SOL    HW187756   3.150   1.041   8.861 -0.5679 -0.7786 -3.1697
28583SOL    HW287757   3.036   1.140   8.861  0.2556  0.2335 -1.4319
28584SOL     OW87758   1.894   3.568   2.656  0.2311  0.2506  0.1538
28584SOL    HW187759   1.879   3.639   2.594  2.7783  1.2291  0.5030
28584SOL    HW287760   1.979   3.589   2.696  0.8064 -2.6698  0.7275
28585SOL     OW87761   3.979   8.975   3.308 -0.5012  0.1876  0.2491
28585SOL    HW187762   4.054   9.024   3.277 -1.6482  1.2918 -0.8875
28585SOL    HW287763   3.999   8.884   3.287 -0.1516  0.6398 -1.5119
28586SOL     OW87764   5.727   8.163   5.381 -0.2439  0.7333  0.4161
28586SOL    HW187765   5.772   8.104   5.321 -1.2241 -0.1902  0.5525
28586SOL    HW287766   5.643   8.120   5.399 -0.8460  2.0062  0.7985
28587SOL     OW87767   9.551   6.200  10.987 -0.2996 -0.1393  0.4883
28587SOL    HW187768   9.492   6.267  10.951  0.3071 -0.0244 -0.3201
28587SOL    HW287769   9.594   6.243  11.060 -2.0243 -0.5741  1.8203
28588SOL     OW87770   1.628   7.201   4.485  0.3830  0.1283  0.4643
28588SOL    HW187771   1.612   7.261   4.412  1.2261 -0.2556 -0.0580
28588SOL    HW287772   1.567   7.129   4.471  0.0803  0.3742  0.5151
28589SOL     OW87773   4.592   8.705   3.616 -0.5061 -0.4159  0.6727
28589SOL    HW187774   4.581   8.800   3.613  1.8204 -0.1237 -1.3482
28589SOL    HW287775   4.508   8.671   3.584  0.0827  1.2035 -3.0979
28590SOL     OW87776   5.487  10.365   8.437 -0.0835  0.3819  0.0980
28590SOL    HW187777   5.460  10.396   8.351  1.1400  1.8500  0.1874
28590SOL    HW287778   5.489  10.444   8.491  0.3072 -0.3275  1.1571
28591SOL     OW87779   1.871   0.445   9.636  0.1625 -0.1705 -0.3316
28591SOL    HW187780   1.791   0.409   9.598  0.2573 -0.8210  0.0679
28591SOL    HW287781   1.941   0.395   9.595  0.2526 -1.1629  0.9544
28592SOL     OW87782   1.252  10.652   1.428 -0.4202  0.1562 -0.0157
28592SOL    HW187783   1.347  10.642   1.417 -0.6869 -1.5696 -1.1310
28592SOL    HW287784   1.234  10.614   1.514  0.0022  1.4950  0.6955
28593SOL     OW87785   3.584   0.802   7.122 -0.0610 -0.0130  0.1738
28593SOL    HW187786   3.565   0.793   7.215 -0.0733  0.8898  0.2697
28593SOL    HW287787   3.548   0.723   7.082  0.3909 -0.6511  0.9945
28594SOL     OW87788   0.930   3.522   7.498 -0.0781  0.0985  0.7445
28594SOL    HW187789   0.936   3.557   7.409 -2.0524 -0.4740  0.3332
28594SOL    HW287790   0.932   3.600   7.555  1.0409  0.4757  0.2172
28595SOL     OW87791   3.895   0.998   2.294 -0.1374 -0.1460  0.0537
28595SOL    HW187792   3.879   1.078   2.344  0.6655 -0.0274  0.1287
28595SOL    HW287793   3.971   0.958   2.335 -0.1888 -0.6645 -0.3357
28596SOL     OW87794   2.854   5.541   1.929  0.2329  0.2139 -0.0701
28596SOL    HW187795   2.866   5.491   1.848  0.2177 -0.7317  0.5027
28596SOL    HW287796   2.912   5.498   1.992 -1.9648 -0.9792  1.2447
28597SOL     OW87797   0.996   1.812   6.478 -0.1491  0.4504  0.1754
28597SOL    HW187798   0.901   1.800   6.474 -0.4077  1.4985  1.9133
28597SOL    HW287799   1.017   1.863   6.400 -1.3949  2.1169  0.8506
28598SOL     OW87800   7.171   5.237   9.698 -0.3626 -0.6635  0.7167
28598SOL    HW187801   7.155   5.145   9.677 -1.7059 -0.3239  0.1229
28598SOL    HW287802   7.210   5.273   9.618 -0.2836 -0.6166  0.7769
28599SOL     OW87803   7.360   5.536   7.293  0.6241 -0.0934  0.6667
28599SOL    HW187804   7.353   5.446   7.262 -0.6394 -0.1747  1.1535
28599SOL    HW287805   7.307   5.587   7.232 -1.6227 -0.2085  2.3904
28600SOL     OW87806   3.240   1.542   0.970  0.1009 -0.5347 -0.2897
28600SOL    HW187807   3.286   1.459   0.960  0.3229 -0.4690  0.1788
28600SOL    HW287808   3.164   1.522   1.025  0.7493 -0.2178  0.7448
28601SOL     OW87809   6.169   5.112   4.267  0.3245 -0.4849 -0.1606
28601SOL    HW187810   6.102   5.075   4.211  0.3217  2.1018 -2.0549
28601SOL    HW287811   6.244   5.052   4.258 -1.0692 -2.4262  0.5709
28602SOL     OW87812   5.898   3.113   6.513  0.5593 -0.3810 -0.2410
28602SOL    HW187813   5.863   3.164   6.440  1.0875  0.6393  0.2022
28602SOL    HW287814   5.967   3.059   6.473  0.0570 -0.7093 -0.6928
28603SOL     OW87815   3.841   3.522   4.904  0.2762  0.1929  0.1712
28603SOL    HW187816   3.840   3.459   4.832 -0.6599 -1.9726  1.9289
28603SOL    HW287817   3.864   3.469   4.981 -3.0761  1.3546  2.2172
28604SOL     OW87818   5.023   1.111   3.257  0.4639 -0.0188  0.4283
28604SOL    HW187819   4.949   1.172   3.259  0.6508  0.2335  2.3011
28604SOL    HW287820   5.050   1.107   3.166 -1.4529  0.3768 -0.1814
28605SOL     OW87821  10.598   7.609   5.658  0.1917  0.0841 -0.0000
28605SOL    HW187822  10.615   7.690   5.706  2.4720 -0.3954  0.1118
28605SOL    HW287823  10.674   7.554   5.677 -0.9767 -1.8322 -0.6214
28606SOL     OW87824   4.353  10.057   3.820  0.1516  0.0880 -0.2437
28606SOL    HW187825   4.324  10.130   3.876  0.0872  0.6719 -1.0152
28606SOL    HW287826   4.308   9.980   3.855 -0.5760  0.5982 -0.0230
28607SOL     OW87827  10.697   9.039   8.386  0.4761  0.3885 -0.2647
28607SOL    HW187828  10.750   8.987   8.326  0.7513  0.9391 -0.5084
28607SOL    HW287829  10.610   9.040   8.347 -0.1370 -1.7456  0.8746
28608SOL     OW87830   6.422   9.210   9.920  0.1314 -0.4307  0.4751
28608SOL    HW187831   6.428   9.252  10.006  2.0982 -1.4732  0.8996
28608SOL    HW287832   6.480   9.262   9.864 -2.1269  1.0446 -0.6545
28609SOL     OW87833   5.500   4.367   3.578  0.3789  0.2962 -0.1627
28609SOL    HW187834   5.450   4.294   3.613 -0.0024  0.1688 -0.9485
28609SOL    HW287835   5.554   4.328   3.509  1.2221  0.5140  0.3542
28610SOL     OW87836   0.954   3.604   8.937  0.5180 -0.5505  0.1125
28610SOL    HW187837   0.900   3.631   9.012  0.6387 -3.8784  1.5699
28610SOL    HW287838   1.041   3.636   8.957 -0.3158  2.9644 -1.1974
28611SOL     OW87839  10.508   9.235  10.913 -0.1563  0.0236  0.5582
28611SOL    HW187840  10.595   9.250  10.876  0.2026  0.6602  1.6193
28611SOL    HW287841  10.466   9.321  10.911 -0.3852 -0.0781  0.9892
28612SOL     OW87842   5.580   4.857   6.350 -0.6559 -0.3148 -0.3239
28612SOL    HW187843   5.569   4.839   6.443 -0.1411  0.0058 -0.1966
28612SOL    HW287844   5.631   4.782   6.317 -3.0624 -1.8030 -0.9150
28613SOL     OW87845   3.830   8.295   2.699 -0.3397  0.0984 -0.5840
28613SOL    HW187846   3.747   8.268   2.739 -0.3481  0.8265 -0.1003
28613SOL    HW287847   3.804   8.356   2.631 -0.2302 -0.0928 -0.8003
28614SOL     OW87848   4.712  10.029   7.603 -0.6703 -0.0131 -0.1548
28614SOL    HW187849   4.706   9.942   7.642 -3.9265 -0.1197 -0.6218
28614SOL    HW287850   4.786  10.023   7.543 -1.0674 -2.6531 -0.5169
28615SOL     OW87851   9.332   7.700   1.299 -0.2062 -0.6651  0.1455
28615SOL    HW187852   9.254   7.733   1.254 -0.4653 -1.2792  0.1324
28615SOL    HW287853   9.320   7.605   1.300  0.4703 -0.7515  0.2813
28616SOL     OW87854   1.133   2.537   9.174 -0.0333  0.0910  0.9407
28616SOL    HW187855   1.079   2.592   9.232  1.6048  1.3542  1.3293
28616SOL    HW287856   1.208   2.511   9.228  0.5866 -0.2749 -0.0701
28617SOL     OW87857   2.397   0.152   3.639 -0.5138 -0.3814 -0.7303
28617SOL    HW187858   2.414   0.212   3.566  0.9371  0.5781  0.3495
28617SOL    HW287859   2.340   0.202   3.697 -0.9235 -0.8071 -0.7592
28618SOL     OW87860   5.283   0.791   3.475  0.4945  0.3763  0.5231
28618SOL    HW187861   5.210   0.782   3.536  1.4707 -1.1827  1.5466
28618SOL    HW287862   5.278   0.881   3.445 -2.0105  0.2493  0.3276
28619SOL     OW87863   5.013   6.150  10.651  0.2429 -0.7101  0.0402
28619SOL    HW187864   4.992   6.114  10.565  0.3831  0.6315 -0.5879
28619SOL    HW287865   4.965   6.233  10.655 -1.8733 -1.9555  2.3541
28620SOL     OW87866   2.408   2.811   0.839  0.7054 -0.1659 -0.2560
28620SOL    HW187867   2.354   2.875   0.792 -0.7050 -1.2465 -0.1730
28620SOL    HW287868   2.373   2.726   0.813  3.5904 -1.0594 -1.6397
28621SOL     OW87869  11.008  10.204   3.435  0.0354  0.3742 -0.8644
28621SOL    HW187870  10.946  10.276   3.422  0.1521  0.4235 -1.1647
28621SOL    HW287871  11.005  10.156   3.352 -0.2819 -0.1573 -0.5521
28622SOL     OW87872   7.581   1.749   6.384  0.2975  0.0251  0.2727
28622SOL    HW187873   7.614   1.677   6.329  2.9221  0.8916  0.5532
28622SOL    HW287874   7.623   1.827   6.347 -0.3834  1.0447  1.6063
28623SOL     OW87875   8.885   6.750   5.715 -0.0841  0.0129 -0.2030
28623SOL    HW187876   8.836   6.686   5.662 -0.1313  0.9270 -1.2886
28623SOL    HW287877   8.965   6.766   5.665  0.6760 -0.3888  0.8589
28624SOL     OW87878   3.246   8.866   5.000  0.0719 -0.3439 -0.1253
28624SOL    HW187879   3.318   8.903   5.052 -0.4708  0.3414  0.1616
28624SOL    HW287880   3.175   8.854   5.063 -0.3901 -0.0752 -0.5845
28625SOL     OW87881   2.829   0.399   8.127 -0.1195 -0.3634  0.0187
28625SOL    HW187882   2.808   0.399   8.034  0.0429 -4.0734 -0.1688
28625SOL    HW287883   2.818   0.490   8.155 -0.9439  0.7096 -3.4145
28626SOL     OW87884  10.253   4.009   6.625  0.1966  0.3061  0.6084
28626SOL    HW187885  10.273   3.921   6.657 -2.5307 -1.3906 -1.8245
28626SOL    HW287886  10.200   4.048   6.694 -0.9499 -1.1125  0.5746
28627SOL     OW87887   6.944   2.018  10.911 -0.2565  0.5403 -0.2008
28627SOL    HW187888   6.937   1.970  10.994 -0.9675 -0.7003 -0.9432
28627SOL    HW287889   7.033   2.054  10.912  0.0798 -0.2694  0.6762
28628SOL     OW87890   9.044   0.367   8.139  1.0589 -0.2570  0.1766
28628SOL    HW187891   9.139   0.380   8.142  0.8525  1.2385  1.2896
28628SOL    HW287892   9.019   0.394   8.051  1.4192  1.3857  0.5537
28629SOL     OW87893   4.537   0.088   3.823 -0.1618  0.2527  0.2214
28629SOL    HW187894   4.545  -0.008   3.815  1.7099  0.4179 -0.3327
28629SOL    HW287895   4.622   0.121   3.793  0.0324  1.9896  2.4988
28630SOL     OW87896   6.631  10.777   9.512  0.3637  0.2592  0.6233
28630SOL    HW187897   6.634  10.739   9.600 -0.2746 -1.1032  0.0893
28630SOL    HW287898   6.722  10.775   9.483  0.4880  0.1112  1.0045
28631SOL     OW87899   0.558   9.687   4.299 -0.0325 -0.4081  0.0409
28631SOL    HW187900   0.628   9.682   4.364 -0.5203 -0.2038  0.5863
28631SOL    HW287901   0.581   9.763   4.246 -1.4749  1.6692  2.1942
28632SOL     OW87902   5.647   1.282   8.335 -0.8172  0.3655 -0.1321
28632SOL    HW187903   5.736   1.276   8.300 -0.9964 -0.3520 -0.4821
28632SOL    HW287904   5.619   1.191   8.347 -2.0595  0.5319 -1.4533
28633SOL     OW87905   6.372   3.552   6.899  0.0552 -0.2979  0.1127
28633SOL    HW187906   6.436   3.493   6.857 -0.8430 -1.4023  0.2335
28633SOL    HW287907   6.345   3.611   6.829  0.3870 -0.5328 -0.2215
28634SOL     OW87908   7.193   9.630   2.117  0.2043  0.1564 -0.5640
28634SOL    HW187909   7.135   9.600   2.048  0.3163  0.1196 -0.6418
28634SOL    HW287910   7.281   9.606   2.087  0.5047  2.2730 -1.5366
28635SOL     OW87911   1.995   2.726   9.404 -0.9350 -0.1351 -0.1387
28635SOL    HW187912   1.994   2.807   9.455 -1.6504 -1.0310  1.3369
28635SOL    HW287913   2.052   2.667   9.452  1.8015  0.2703 -2.6052
28636SOL     OW87914   6.976   8.491   4.450 -0.0767  0.4311  0.0860
28636SOL    HW187915   6.969   8.565   4.390  0.7337 -0.5228 -1.2577
28636SOL    HW287916   6.886   8.461   4.462 -0.2113  0.2035 -1.2776
28637SOL     OW87917   2.523   4.388   2.564  0.1696  0.2707  0.4846
28637SOL    HW187918   2.569   4.337   2.630  0.3031  1.3718  1.2721
28637SOL    HW287919   2.541   4.343   2.482 -0.7568 -1.6657  1.2778
28638SOL     OW87920   1.959   1.311   4.012  0.4576 -0.0786  0.6661
28638SOL    HW187921   1.952   1.402   4.042  0.9939  0.1598  0.0791
28638SOL    HW287922   1.869   1.286   3.991  0.3679  0.4874  0.3472
28639SOL     OW87923   9.486   8.838   8.699  0.0942  0.2476  0.1028
28639SOL    HW187924   9.401   8.865   8.665  0.7323 -0.0208 -1.8140
28639SOL    HW287925   9.466   8.759   8.751 -0.8247  0.2058 -0.2837
28640SOL     OW87926   1.444   6.650   8.099 -0.3053 -0.0469  0.1224
28640SOL    HW187927   1.374   6.590   8.075 -0.8030  0.5927 -0.0654
28640SOL    HW287928   1.493   6.605   8.168 -2.3932  0.5000  2.0780
28641SOL     OW87929   8.724   4.070   2.197 -0.7730  0.1828  0.4009
28641SOL    HW187930   8.647   4.099   2.247 -1.1589  0.5479 -0.3888
28641SOL    HW287931   8.776   4.149   2.186 -0.6860  0.1016  0.2355
28642SOL     OW87932   6.709   5.744   6.562  0.0065 -0.4173  0.4934
28642SOL    HW187933   6.739   5.753   6.653  0.1244 -0.0597  0.4192
28642SOL    HW287934   6.613   5.741   6.569  0.0353 -0.9927  0.6804
28643SOL     OW87935   2.937   1.707   4.596  0.2535  0.0437 -0.1288
28643SOL    HW187936   2.952   1.614   4.580  1.5746  0.1076  0.5806
28643SOL    HW287937   2.880   1.735   4.524  1.2325 -0.9398 -1.3337
28644SOL     OW87938   7.329   7.610   8.789 -0.2958 -0.1670 -0.0120
28644SOL    HW187939   7.359   7.622   8.699 -1.7352  2.0763 -0.2683
28644SOL    HW287940   7.235   7.594   8.782 -0.5269  0.5647  1.0775
28645SOL     OW87941   0.660  10.243  10.264  0.0984  0.2911 -0.4458
28645SOL    HW187942   0.646  10.327  10.221 -0.5158  1.3349  1.6193
28645SOL    HW287943   0.727  10.262  10.331  2.2005 -1.6236 -1.8582
28646SOL     OW87944   5.228   0.421   7.624 -0.5648 -0.1847  0.1990
28646SOL    HW187945   5.282   0.357   7.670 -1.0966  0.3030  1.5323
28646SOL    HW287946   5.225   0.389   7.533  0.8000 -0.9580  0.4046
28647SOL     OW87947   5.488   1.778  10.008 -0.6459  0.2576 -0.0012
28647SOL    HW187948   5.539   1.844   9.962 -0.8996  0.3818 -0.1052
28647SOL    HW287949   5.552   1.712  10.035 -0.3590  0.6633  0.3098
28648SOL     OW87950   5.566   5.925   6.964  0.0524  0.0072  0.1078
28648SOL    HW187951   5.531   6.011   6.939  1.8564  0.6044 -0.4847
28648SOL    HW287952   5.554   5.871   6.886  2.2198  0.8032 -0.8576
28649SOL     OW87953   9.848   8.242   9.927  0.3066 -1.1429  0.0299
28649SOL    HW187954   9.930   8.290   9.937 -0.5048 -0.0606  2.0634
28649SOL    HW287955   9.854   8.203   9.840  2.8066 -0.8150 -0.0287
28650SOL     OW87956   4.337   8.779   6.628 -0.0516  0.6390  0.3560
28650SOL    HW187957   4.412   8.770   6.686 -0.4334  0.5337  0.8400
28650SOL    HW287958   4.369   8.832   6.555  0.1317  1.7124  1.1961
28651SOL     OW87959   6.811   6.285   9.107 -0.1745 -0.6729 -0.5258
28651SOL    HW187960   6.726   6.315   9.137  0.5483 -0.5199  1.5740
28651SOL    HW287961   6.825   6.202   9.154  0.4611 -1.1330 -1.4966
28652SOL     OW87962   2.687   7.668   0.838 -0.1796 -0.2271  0.2581
28652SOL    HW187963   2.622   7.737   0.852  0.0020 -0.1578  0.7494
28652SOL    HW287964   2.638   7.586   0.845 -0.5389 -0.1540 -1.0179
28653SOL     OW87965   3.402   4.574   3.066 -0.4590  0.7682 -0.4276
28653SOL    HW187966   3.421   4.491   3.108 -0.8770  0.3874 -0.9707
28653SOL    HW287967   3.341   4.552   2.996 -0.8291  1.5763 -0.3766
28654SOL     OW87968   0.902   7.552   1.693 -0.4015 -0.3153  0.6552
28654SOL    HW187969   0.883   7.577   1.603 -2.2123 -1.9445  0.5155
28654SOL    HW287970   0.897   7.635   1.742 -1.1923  0.3408 -0.4726
28655SOL     OW87971   1.975   2.500  10.352 -0.6340 -0.4805  0.4964
28655SOL    HW187972   2.044   2.470  10.412  1.0343  0.7296 -0.7447
28655SOL    HW287973   1.922   2.421  10.336  0.9565 -1.6729  0.8401
28656SOL     OW87974   1.305   3.437   3.316  0.5719  0.3356 -0.4977
28656SOL    HW187975   1.318   3.376   3.389 -0.6338 -1.0439 -1.3863
28656SOL    HW287976   1.246   3.503   3.352  1.1989  0.5226  0.2207
28657SOL     OW87977  11.044   8.318  10.880  0.1398  0.3529  0.3719
28657SOL    HW187978  11.116   8.349  10.825 -1.0679  0.6548 -1.0886
28657SOL    HW287979  10.972   8.303  10.820 -0.8596 -0.5232  1.7220
28658SOL     OW87980   7.509  10.955   8.052  0.7810  0.1145 -0.1128
28658SOL    HW187981   7.476  10.892   8.117  0.0892  0.5570 -0.0272
28658SOL    HW287982   7.597  10.976   8.082  0.4659  0.3136  0.6959
28659SOL     OW87983   0.401   9.910   2.615 -0.1838 -0.1198 -0.0769
28659SOL    HW187984   0.458   9.924   2.691  0.3752  1.5198 -0.7533
28659SOL    HW287985   0.321   9.959   2.635 -1.1854 -1.9510  0.6206
28660SOL     OW87986   1.981   6.464   5.940  0.1980  0.3821 -0.3019
28660SOL    HW187987   2.025   6.486   6.022 -0.4343  0.1230  0.1100
28660SOL    HW287988   2.051   6.465   5.875  0.8590 -0.2808  0.3840
28661SOL     OW87989   5.081   5.490   0.075 -0.3198 -0.2338  0.9234
28661SOL    HW187990   5.061   5.483  -0.019  1.8821  1.0771  0.2800
28661SOL    HW287991   5.022   5.558   0.106 -0.5821 -0.1774  0.3284
28662SOL     OW87992   4.588  10.967   6.918 -0.3045 -0.0050 -0.1337
28662SOL    HW187993   4.676  10.973   6.954 -0.4278  1.0266  0.0165
28662SOL    HW287994   4.594  11.008   6.832 -0.3845 -0.9943 -0.6345
28663SOL     OW87995   2.704   9.585   8.327  0.9934 -0.5452 -0.1230
28663SOL    HW187996   2.741   9.591   8.415  0.1094  2.6428  0.1432
28663SOL    HW287997   2.612   9.610   8.338  0.3045 -2.1591 -1.6891
28664SOL     OW87998   5.425   7.032  10.201 -0.0796  0.3668  0.0613
28664SOL    HW187999   5.447   7.079  10.282 -1.0272  0.1880  0.4332
28664SOL    HW288000   5.334   7.005  10.213 -0.3053  0.5250 -1.1608
28665SOL     OW88001   1.947   8.063   9.261  0.2696  0.4536 -0.3136
28665SOL    HW188002   2.011   8.096   9.198 -0.0528 -0.5956 -1.2163
28665SOL    HW288003   1.992   8.065   9.345  1.0999  0.7942 -0.7558
28666SOL     OW88004   4.040   3.286   1.510 -0.5000  0.4001 -0.0446
28666SOL    HW188005   4.126   3.272   1.548 -0.4830  1.9269  0.5743
28666SOL    HW288006   4.008   3.199   1.487  0.5126 -0.3350  1.2459
28667SOL     OW88007   9.294   0.375   8.201  0.1278  0.2406 -0.3462
28667SOL    HW188008   9.282   0.368   8.295 -2.2906 -0.0613 -0.5972
28667SOL    HW288009   9.365   0.438   8.190  0.7689 -0.0619  1.6538
28668SOL     OW88010   3.381  10.142   8.768 -0.7419  0.8758 -0.1625
28668SOL    HW188011   3.413  10.179   8.851 -0.9095  2.6052 -0.8315
28668SOL    HW288012   3.371  10.049   8.786 -0.4805  1.1631  1.6788
28669SOL     OW88013   7.000   9.528   1.962  0.0688  0.4677 -0.3340
28669SOL    HW188014   6.966   9.441   1.940  0.9030  0.1654 -0.4823
28669SOL    HW288015   7.040   9.560   1.881  1.4661  0.1492  0.1838
28670SOL     OW88016   6.946   2.414   7.245  0.3578 -0.3747 -0.6745
28670SOL    HW188017   6.953   2.358   7.322 -0.3534  0.2157 -0.1640
28670SOL    HW288018   6.888   2.366   7.186 -0.8529  0.1196  0.0664
28671SOL     OW88019  10.573  10.373   5.374 -0.2064  0.0760  0.3712
28671SOL    HW188020  10.597  10.466   5.379 -0.6245  0.1417  1.5561
28671SOL    HW288021  10.652  10.330   5.342  0.0136  0.8319 -0.1422
28672SOL     OW88022   9.082   8.738  10.858  0.0356 -0.2170  0.3471
28672SOL    HW188023   9.121   8.814  10.902  0.0417  0.2317 -0.4144
28672SOL    HW288024   9.001   8.772  10.820  0.5890 -0.2993 -0.9627
28673SOL     OW88025   1.634   1.960   4.398 -0.2485 -0.5790 -0.3742
28673SOL    HW188026   1.715   1.982   4.444 -0.4963  0.7438 -0.5298
28673SOL    HW288027   1.591   2.045   4.384 -1.8288 -1.2896  0.0195
28674SOL     OW88028   8.467   6.123  10.963 -0.4016 -0.0896 -0.1345
28674SOL    HW188029   8.554   6.126  10.925 -0.2539  0.9591  0.2665
28674SOL    HW288030   8.481   6.111  11.057 -0.5813  2.0317  0.2228
28675SOL     OW88031   4.975   2.490   8.491 -0.3904 -0.5810  0.1039
28675SOL    HW188032   4.900   2.454   8.538 -0.7842 -0.0090 -0.0685
28675SOL    HW288033   5.020   2.414   8.456  0.1350 -1.0365  1.7262
28676SOL     OW88034   3.806  10.990   3.471  0.1222  0.3129  0.1957
28676SOL    HW188035   3.883  11.021   3.422 -0.0610 -0.1648 -0.4106
28676SOL    HW288036   3.733  11.043   3.437  0.3221  1.5110  1.5159
28677SOL     OW88037   9.529   5.349   0.381  0.1702 -0.0321 -0.5187
28677SOL    HW188038   9.529   5.441   0.357 -0.8822  0.3036  0.6147
28677SOL    HW288039   9.529   5.302   0.298 -0.2881  1.0051 -1.1271
28678SOL     OW88040   4.881   2.565   5.371 -0.2467 -0.0284  0.6615
28678SOL    HW188041   4.852   2.483   5.332  0.7239  0.1354 -0.4681
28678SOL    HW288042   4.806   2.624   5.364 -0.4016 -0.3104 -0.0793
28679SOL     OW88043   5.610   9.336   4.673  0.8627  0.8395 -0.2769
28679SOL    HW188044   5.610   9.260   4.615 -0.7967 -0.6383  1.5045
28679SOL    HW288045   5.520   9.368   4.670  0.3405 -0.1384  2.4138
28680SOL     OW88046   7.687   9.716   0.298 -0.2365  0.2757 -0.0732
28680SOL    HW188047   7.641   9.640   0.262 -1.5168  0.1456  1.6966
28680SOL    HW288048   7.761   9.678   0.345 -3.2325 -0.5385  4.6152
28681SOL     OW88049   5.797   1.395   9.082  0.0784 -0.2056  0.0066
28681SOL    HW188050   5.729   1.357   9.137  1.8024 -0.7521  1.8576
28681SOL    HW288051   5.781   1.490   9.087 -2.6686 -0.3465 -2.5737
28682SOL     OW88052   9.134   1.461  10.044 -0.0630 -0.2950  0.7984
28682SOL    HW188053   9.080   1.521  10.095  0.9960  0.4700  1.0782
28682SOL    HW288054   9.221   1.468  10.084  0.7231  0.0590 -0.8683
28683SOL     OW88055   3.055   2.682   9.132  0.3367  0.1711 -0.0804
28683SOL    HW188056   3.121   2.715   9.194  0.3806  1.8688 -0.9756
28683SOL    HW288057   3.094   2.695   9.046 -1.1417  1.2737 -0.6378
28684SOL     OW88058   5.249   9.809   1.839  0.0878 -0.0158  0.2587
28684SOL    HW188059   5.318   9.874   1.827 -0.4928  0.8877  1.5733
28684SOL    HW288060   5.295   9.728   1.859  0.8419  0.9282  2.8285
28685SOL     OW88061   0.473   7.292   7.351  0.3699  0.8657 -0.0778
28685SOL    HW188062   0.471   7.373   7.402  0.1912  1.7403 -1.4333
28685SOL    HW288063   0.386   7.286   7.311 -0.2998 -1.0175  1.5016
28686SOL     OW88064   9.841  10.806   4.640  0.0625  0.5259 -0.2695
28686SOL    HW188065   9.910  10.817   4.706  1.4952  0.6849 -1.7392
28686SOL    HW288066   9.846  10.885   4.587 -1.8286  0.9100  0.0699
28687SOL     OW88067   5.520   9.660   4.874 -0.4965  0.2848  0.5501
28687SOL    HW188068   5.461   9.659   4.949 -1.4524 -0.0778 -0.1900
28687SOL    HW288069   5.586   9.594   4.894 -1.3787 -0.6052  0.5832
28688SOL     OW88070   2.228  10.267   7.795 -0.1536 -0.0991 -0.7515
28688SOL    HW188071   2.286  10.256   7.720  1.0058  1.3642 -0.1276
28688SOL    HW288072   2.257  10.348   7.836 -2.0687  0.2001  0.1364
28689SOL     OW88073   4.259  10.387   9.996 -0.2870  0.0217  0.0176
28689SOL    HW188074   4.237  10.315  10.054  2.1511 -0.3766  0.5262
28689SOL    HW288075   4.245  10.352   9.908  0.1729 -0.8361  0.2799
28690SOL     OW88076   7.300   0.699   1.239 -0.0865 -0.1577 -0.1179
28690SOL    HW188077   7.371   0.756   1.211 -1.1476  2.1715  1.5991
28690SOL    HW288078   7.307   0.696   1.334 -2.9832  1.2999  0.2708
28691SOL     OW88079   5.677   1.273   0.194  0.1501 -0.3951 -0.0315
28691SOL    HW188080   5.715   1.338   0.253 -0.5660  0.4225 -0.4550
28691SOL    HW288081   5.685   1.312   0.107 -2.0190  0.0054 -0.0922
28692SOL     OW88082   3.487   2.310   1.511  0.2393  0.0505  0.4075
28692SOL    HW188083   3.397   2.291   1.536  0.1172 -2.2198 -1.4061
28692SOL    HW288084   3.540   2.250   1.564  0.1884 -2.5311 -2.2035
28693SOL     OW88085   5.754  10.365   8.156  0.1062  0.1295 -0.0760
28693SOL    HW188086   5.703  10.322   8.088 -0.1291  0.2148  0.0487
28693SOL    HW288087   5.845  10.341   8.136 -0.0256 -0.4630  0.0188
28694SOL     OW88088   4.778   3.943   8.620 -0.3007 -0.2210 -0.4192
28694SOL    HW188089   4.705   3.881   8.621  0.2066 -0.8294  0.0308
28694SOL    HW288090   4.751   4.012   8.560 -0.7981 -0.9815 -1.0876
28695SOL     OW88091   5.935   6.234   7.855 -0.5469  0.1505  0.6838
28695SOL    HW188092   5.963   6.243   7.764  1.4443 -0.2536  1.2072
28695SOL    HW288093   5.850   6.191   7.849 -1.4126  1.9510 -1.0343
28696SOL     OW88094   8.868  10.422   7.488 -0.2372  0.1844  0.0372
28696SOL    HW188095   8.917  10.501   7.467 -1.6780  1.6282  1.7386
28696SOL    HW288096   8.885  10.406   7.581 -0.6825 -0.9687 -0.0593
28697SOL     OW88097   5.987   0.962   3.281 -0.2013  0.3891  0.3087
28697SOL    HW188098   5.910   0.905   3.277 -0.1221  0.2250  0.9761
28697SOL    HW288099   5.986   0.997   3.370  2.1613 -1.9681  1.4277
28698SOL     OW88100   9.880   1.722   7.557 -0.4017 -0.2018  0.1367
28698SOL    HW188101   9.792   1.688   7.575 -0.3779 -0.5282 -0.3523
28698SOL    HW288102   9.939   1.654   7.587 -0.2772  0.3877  1.2867
28699SOL     OW88103   0.584   7.958  11.004 -0.1678  0.3898 -0.2603
28699SOL    HW188104   0.658   8.018  10.992 -1.2929  1.5462 -1.7288
28699SOL    HW288105   0.574   7.915  10.919  1.7981 -3.4252  1.2250
28700SOL     OW88106   3.928   5.033  11.075  0.6418 -0.6523 -0.1029
28700SOL    HW188107   3.922   4.958  11.016  1.5511  0.0230 -1.0858
28700SOL    HW288108   3.859   5.092  11.047 -0.1659 -1.1566  0.7606
28701SOL     OW88109   1.948   3.480  10.820 -0.2391 -0.4781  0.0135
28701SOL    HW188110   2.016   3.484  10.887 -0.8558 -0.1545  0.6266
28701SOL    HW288111   1.887   3.413  10.850 -0.2473 -0.7068 -0.4929
28702SOL     OW88112  10.248   0.738   5.855 -0.0325 -0.5026  0.0661
28702SOL    HW188113  10.254   0.829   5.826 -0.2798 -0.6276 -0.3823
28702SOL    HW288114  10.323   0.727   5.913  0.9620 -0.4782 -1.1731
28703SOL     OW88115   5.141   1.482   5.686 -0.1349 -0.1770 -0.1604
28703SOL    HW188116   5.167   1.419   5.753  0.6304 -0.7400 -0.9474
28703SOL    HW288117   5.175   1.565   5.717 -1.6906 -0.0004  1.1907
28704SOL     OW88118   0.881   0.798   8.443 -0.0860  0.0102 -0.7512
28704SOL    HW188119   0.934   0.842   8.509 -0.7119 -1.0823  0.5510
28704SOL    HW288120   0.944   0.762   8.382  0.4718  1.8086 -1.2859
28705SOL     OW88121   9.424   0.818   9.977  0.4613 -0.3169 -0.3890
28705SOL    HW188122   9.392   0.732   9.950  0.5456 -0.5653  0.2691
28705SOL    HW288123   9.450   0.806  10.068  0.8563  0.3068 -0.4120
28706SOL     OW88124   9.150   8.445   8.336 -0.0854  0.0121  0.2632
28706SOL    HW188125   9.242   8.458   8.311 -0.8000  2.1823 -1.5071
28706SOL    HW288126   9.107   8.415   8.255 -1.1468  0.0819  0.7889
28707SOL     OW88127   1.032   4.293  10.317  0.0012  0.1179  0.1097
28707SOL    HW188128   0.990   4.323  10.398  1.4804  0.0282  0.9367
28707SOL    HW288129   1.023   4.198  10.319 -0.8487  0.1753 -0.3559
28708SOL     OW88130   6.537   1.610   9.122 -0.3716  0.0931 -0.3501
28708SOL    HW188131   6.461   1.630   9.069 -0.6542 -1.4619 -0.5805
28708SOL    HW288132   6.501   1.583   9.207  0.0359  1.5837  0.3311
28709SOL     OW88133   2.484   1.320   8.651  0.1805  0.1053 -0.2008
28709SOL    HW188134   2.559   1.373   8.678  1.3155 -2.0861  1.2917
28709SOL    HW288135   2.417   1.337   8.717  0.1784  0.3977 -0.2772
28710SOL     OW88136   7.642   2.543   6.787  0.0687 -0.3070 -0.7649
28710SOL    HW188137   7.620   2.630   6.822  2.5018 -0.1734  0.6242
28710SOL    HW288138   7.657   2.557   6.694  0.2550  0.7278 -0.5887
28711SOL     OW88139   0.370  10.659   4.170 -0.1507  0.0092 -0.1926
28711SOL    HW188140   0.460  10.673   4.197 -0.4299 -0.0749  0.8317
28711SOL    HW288141   0.361  10.708   4.088  1.3302 -1.4864 -1.3328
28712SOL     OW88142   5.501   2.413   2.672 -0.7279  0.5824  0.5167
28712SOL    HW188143   5.504   2.395   2.578  0.0320  1.2243  0.4120
28712SOL    HW288144   5.443   2.345   2.707 -0.8416  0.2010 -0.3774
28713SOL     OW88145   9.065   5.111   9.246 -0.1216 -0.0566  0.4406
28713SOL    HW188146   9.148   5.109   9.198  0.5682  0.5063  1.5941
28713SOL    HW288147   8.999   5.128   9.178  0.7183 -0.3006 -0.4578
28714SOL     OW88148   9.724  10.133   8.376  0.2136  0.1697 -0.0253
28714SOL    HW188149   9.634  10.155   8.400 -0.1803 -1.0431 -0.3499
28714SOL    HW288150   9.745  10.194   8.305 -1.0355 -0.7739 -1.2570
28715SOL     OW88151   7.767   3.380  10.773 -0.2606 -0.1788 -0.0730
28715SOL    HW188152   7.781   3.468  10.738 -3.1511  0.2624 -0.3718
28715SOL    HW288153   7.673   3.377  10.795  0.1196 -2.5707  1.6976
28716SOL     OW88154   9.742   4.568   5.946 -0.0293 -0.2968  0.3754
28716SOL    HW188155   9.742   4.558   5.851  1.6307 -1.0749  0.4279
28716SOL    HW288156   9.716   4.482   5.979 -1.8204  0.2988  0.6536
28717SOL     OW88157   0.805   5.922   2.280  0.6811 -0.7434 -0.1373
28717SOL    HW188158   0.768   6.006   2.308 -0.0191 -1.1898  0.3129
28717SOL    HW288159   0.880   5.908   2.337  1.5299  0.1317 -1.0005
28718SOL     OW88160   8.524   0.319   4.957  0.0843  0.1335  0.7120
28718SOL    HW188161   8.609   0.303   4.999 -0.4949 -3.2037  0.9599
28718SOL    HW288162   8.538   0.296   4.865 -0.1101  1.4907  0.3299
28719SOL     OW88163   8.294   9.113   9.219  0.3262  0.0002  0.2682
28719SOL    HW188164   8.233   9.106   9.146 -0.5177 -1.7230  1.0743
28719SOL    HW288165   8.304   9.207   9.234 -0.7757  0.3398 -0.9885
28720SOL     OW88166   5.632   3.446   4.459 -0.3860  0.0049 -0.0469
28720SOL    HW188167   5.614   3.508   4.388 -0.9377  1.7607  1.5437
28720SOL    HW288168   5.608   3.361   4.423 -2.0418  1.0029 -1.4863
28721SOL     OW88169   3.366   3.857  10.275  0.1516 -0.1503 -0.2315
28721SOL    HW188170   3.281   3.850  10.319  0.4871  1.3499  0.7192
28721SOL    HW288171   3.394   3.947  10.290  2.5214 -0.9350  0.6178
28722SOL     OW88172   8.799   9.650   5.574  0.4169 -0.3181 -0.3204
28722SOL    HW188173   8.845   9.647   5.490  1.0632  0.3907 -0.0006
28722SOL    HW288174   8.857   9.701   5.631 -0.0129 -0.7929  0.5557
28723SOL     OW88175   7.049  10.421   3.847  0.3824 -0.0851 -0.6718
28723SOL    HW188176   7.129  10.470   3.865  0.3224 -0.1533 -0.2003
28723SOL    HW288177   7.043  10.357   3.919  0.5472 -0.9003 -1.3680
28724SOL     OW88178   7.581   1.330   7.218  0.3482  0.0967  0.2031
28724SOL    HW188179   7.636   1.344   7.295 -0.1378 -0.4908  0.6697
28724SOL    HW288180   7.492   1.350   7.248  0.4813  3.1032 -1.0802
28725SOL     OW88181   4.895   3.834   5.597  0.1177  0.0185  0.0849
28725SOL    HW188182   4.810   3.813   5.558  0.3439 -1.9411  0.5333
28725SOL    HW288183   4.957   3.829   5.524  0.1447 -0.7982  0.1554
28726SOL     OW88184   4.342   4.383   0.369  0.2010  0.0895  0.3473
28726SOL    HW188185   4.347   4.468   0.413 -2.1794  0.2101  0.5151
28726SOL    HW288186   4.275   4.394   0.302  0.4656 -1.4292 -0.2148
28727SOL     OW88187   4.705   6.236   1.546 -0.3730 -0.0931 -0.5285
28727SOL    HW188188   4.632   6.200   1.597 -1.0000  0.1975 -1.1971
28727SOL    HW288189   4.693   6.202   1.458  1.5072 -1.7272 -0.2144
28728SOL     OW88190   7.870  10.892   7.603 -0.5733 -0.1494 -0.3315
28728SOL    HW188191   7.791  10.846   7.630 -2.3575  2.4079 -0.8009
28728SOL    HW288192   7.901  10.843   7.526 -1.1930 -1.6756  0.3560
28729SOL     OW88193   4.419   7.767   1.880 -0.2164  0.5227 -0.2371
28729SOL    HW188194   4.494   7.774   1.939 -0.2154  0.9875 -0.2952
28729SOL    HW288195   4.414   7.852   1.836  0.0736  0.0222 -1.2589
28730SOL     OW88196   0.608   4.531  10.430 -0.2152  0.5236  0.4426
28730SOL    HW188197   0.691   4.576  10.418  0.6616 -1.0426  0.3505
28730SOL    HW288198   0.567   4.532  10.343  1.2145 -1.4597 -0.3417
28731SOL     OW88199   4.556  10.707  10.847  0.4328  0.2669  0.0228
28731SOL    HW188200   4.525  10.717  10.757 -2.1903 -2.8353  0.4141
28731SOL    HW288201   4.510  10.775  10.896  2.1617  2.2277 -0.9038
28732SOL     OW88202   8.139   2.761  10.313 -0.4995  0.5708 -0.5583
28732SOL    HW188203   8.044   2.761  10.319 -0.4938 -0.6175 -0.2886
28732SOL    HW288204   8.158   2.721  10.228 -0.2336 -0.9848  0.1891
28733SOL     OW88205   9.367   0.390   6.674 -0.1948 -0.7857 -0.6616
28733SOL    HW188206   9.385   0.338   6.596  0.0698 -1.9912  0.1689
28733SOL    HW288207   9.319   0.330   6.732 -2.7815  0.8747 -0.9343
28734SOL     OW88208   6.956   6.005   7.426 -0.1158  0.4953  1.0522
28734SOL    HW188209   6.950   6.100   7.433 -2.2138  0.4789  0.3594
28734SOL    HW288210   6.912   5.972   7.504 -0.1976  0.1235  0.8548
28735SOL     OW88211   8.219   0.057   5.940 -0.7959  0.6961  0.4351
28735SOL    HW188212   8.133   0.099   5.938 -1.2349 -0.2071 -0.9517
28735SOL    HW288213   8.261   0.084   5.859 -0.0383  0.5565  0.7729
28736SOL     OW88214   9.640   8.745   8.262 -0.0250 -0.5643  0.4114
28736SOL    HW188215   9.579   8.818   8.268  0.8851  0.1967  0.7248
28736SOL    HW288216   9.653   8.716   8.353  2.3255  1.2389  0.7550
28737SOL     OW88217   4.866   1.605   9.856 -0.1784 -0.3559 -0.5076
28737SOL    HW188218   4.863   1.700   9.864  1.3712 -0.3054 -0.3049
28737SOL    HW288219   4.928   1.588   9.785  1.3592 -1.2325  0.9748
28738SOL     OW88220   2.866   3.527   8.846 -0.1500  0.4249 -0.0806
28738SOL    HW188221   2.808   3.468   8.797 -0.9006  1.2206 -0.1744
28738SOL    HW288222   2.818   3.610   8.849  1.1503  1.2155 -0.4713
28739SOL     OW88223   4.952   3.126   7.807 -0.0053 -0.8138 -0.2238
28739SOL    HW188224   5.018   3.192   7.827 -1.2332  1.8089 -3.7636
28739SOL    HW288225   4.914   3.103   7.891  1.4851  1.9430  1.3136
28740SOL     OW88226   8.618   5.568   7.304 -0.1171  0.1626  0.4637
28740SOL    HW188227   8.614   5.482   7.347 -0.3066 -0.8269 -1.4156
28740SOL    HW288228   8.528   5.586   7.279 -0.0263  0.7749  0.5671
28741SOL     OW88229   8.914   8.230   3.582  0.0070  0.3597  0.8553
28741SOL    HW188230   8.952   8.305   3.628 -0.1662  0.6530  0.5226
28741SOL    HW288231   8.859   8.187   3.648 -0.8665  1.2311  0.7152
28742SOL     OW88232   4.996   3.477  10.815 -0.0023  0.8186  0.4207
28742SOL    HW188233   5.018   3.552  10.871 -0.2170  1.4293 -0.2897
28742SOL    HW288234   4.960   3.517  10.735  2.0873  0.0659 -0.9730
28743SOL     OW88235  10.851   9.348   7.410 -0.0890  0.2048  0.3660
28743SOL    HW188236  10.878   9.410   7.342 -0.3805  1.6958  1.5632
28743SOL    HW288237  10.758   9.365   7.423 -0.0645 -0.1354  1.0477
28744SOL     OW88238   5.380   4.268   8.714 -0.6614 -0.1054 -0.0723
28744SOL    HW188239   5.342   4.339   8.767  1.8975  0.8762  0.6208
28744SOL    HW288240   5.428   4.215   8.777  0.0539 -0.6071 -1.0215
28745SOL     OW88241   3.695   2.339   9.638 -0.2294 -0.6625  0.3881
28745SOL    HW188242   3.752   2.412   9.613 -1.1381  0.0645  0.3919
28745SOL    HW288243   3.751   2.281   9.690  0.1504  0.7413  1.6074
28746SOL     OW88244   3.800   9.683   7.781 -0.3471  0.2432  0.2060
28746SOL    HW188245   3.831   9.773   7.774  0.5323  0.0848  1.7401
28746SOL    HW288246   3.746   9.682   7.860 -0.1144 -0.6346  0.3682
28747SOL     OW88247   7.443   0.016   8.346 -0.4581 -0.2901 -0.0689
28747SOL    HW188248   7.468   0.079   8.279 -1.2099 -0.9482 -0.9922
28747SOL    HW288249   7.525  -0.003   8.393  0.1919 -0.2270 -1.1510
28748SOL     OW88250   3.912   3.474   5.312 -0.2229 -0.2427 -0.1847
28748SOL    HW188251   3.938   3.414   5.243  1.4942  0.5386 -0.2784
28748SOL    HW288252   3.898   3.557   5.267  0.4206  0.1482  0.3137
28749SOL     OW88253   6.421  10.105   7.218  0.3329  0.0205 -0.0401
28749SOL    HW188254   6.355  10.074   7.157  0.3668 -1.2110  0.5205
28749SOL    HW288255   6.466  10.026   7.247  0.2161  0.5494  1.6859
28750SOL     OW88256   3.646   2.460   8.453 -0.3844  0.1002  0.2384
28750SOL    HW188257   3.640   2.447   8.358  0.7773 -0.2276  0.1967
28750SOL    HW288258   3.618   2.376   8.490  0.3124 -0.1761  0.1491
28751SOL     OW88259   3.978   6.671   1.297  0.2673  0.0260 -0.4737
28751SOL    HW188260   3.981   6.619   1.377  0.9702 -2.1387 -1.8467
28751SOL    HW288261   3.885   6.670   1.271  0.3295 -0.8560 -0.6783
28752SOL     OW88262   0.370   3.962   9.650  0.1152  0.4230  0.3570
28752SOL    HW188263   0.449   4.005   9.683  0.7722  1.9626 -2.8529
28752SOL    HW288264   0.302   4.029   9.659  0.3297  0.9074 -1.3475
28753SOL     OW88265   7.715   1.735   1.189 -0.1319  0.4724  0.6511
28753SOL    HW188266   7.641   1.688   1.150  0.7112  0.3264 -0.8397
28753SOL    HW288267   7.687   1.826   1.189 -0.9679  0.2355  1.6693
28754SOL     OW88268   3.520   5.949   9.922 -0.3189  0.1170 -0.0924
28754SOL    HW188269   3.577   5.981   9.852 -0.6984 -0.2281 -0.5663
28754SOL    HW288270   3.435   5.938   9.880 -0.7394  0.6455  0.6182
28755SOL     OW88271   8.989   2.698   9.989  0.0363  0.2224  0.0099
28755SOL    HW188272   8.971   2.779  10.037  0.1320  0.1575  0.1558
28755SOL    HW288273   9.085   2.691   9.989  0.0050 -0.7144  1.3956
28756SOL     OW88274   4.284   2.045   6.669  0.4990  0.6641 -0.1099
28756SOL    HW188275   4.239   1.982   6.725 -0.0144 -0.5932 -1.8665
28756SOL    HW288276   4.216   2.080   6.612  0.8429  2.5952  0.5523
28757SOL     OW88277   3.796   9.521   6.103 -0.1830  0.5193 -0.0839
28757SOL    HW188278   3.853   9.591   6.135  0.4221  0.4000 -0.8489
28757SOL    HW288279   3.715   9.565   6.078 -0.1703  0.8010  0.3744
28758SOL     OW88280   2.964   0.572  10.828 -0.0587 -0.1454 -0.1162
28758SOL    HW188281   2.939   0.655  10.868 -0.9482  0.2781 -1.4927
28758SOL    HW288282   3.054   0.587  10.796 -1.1425  1.3023 -2.8096
28759SOL     OW88283   3.840   9.839   9.070 -0.8592  0.3075  0.7040
28759SOL    HW188284   3.835   9.935   9.066 -1.2043  0.2934  0.7707
28759SOL    HW288285   3.780   9.810   9.002  0.8711  0.1539 -0.8520
28760SOL     OW88286   1.893   9.754   8.694  0.1759 -0.0584  0.2024
28760SOL    HW188287   1.880   9.790   8.606  1.4157  0.0037  0.0317
28760SOL    HW288288   1.975   9.793   8.724  0.0180 -0.4670  1.1936
28761SOL     OW88289   3.216   1.922   3.970 -0.5720 -0.0414 -0.2915
28761SOL    HW188290   3.289   1.973   3.934 -1.4053  0.8692 -0.7362
28761SOL    HW288291   3.250   1.833   3.976  1.1459  0.6394  1.1206
28762SOL     OW88292   6.497   3.041   7.413  0.1160 -0.1486  1.7973
28762SOL    HW188293   6.498   2.964   7.471 -0.0246  0.2811  2.3737
28762SOL    HW288294   6.408   3.041   7.375  0.7337 -1.4225  0.2136
28763SOL     OW88295   2.221   1.100   1.473  0.1188  0.0471  0.4393
28763SOL    HW188296   2.244   1.075   1.383 -0.3687 -3.5169  1.1500
28763SOL    HW288297   2.141   1.151   1.465  0.6439  0.6768 -1.1757
28764SOL     OW88298   8.927   5.931   3.306  0.0238 -0.0451  0.1137
28764SOL    HW188299   8.850   5.904   3.356 -0.7503  1.5865 -0.1407
28764SOL    HW288300   8.907   5.906   3.216  0.2232 -0.4641  0.1791
28765SOL     OW88301   0.517   0.957   7.382 -0.4564 -0.5012  0.0041
28765SOL    HW188302   0.563   0.977   7.464 -0.3846  1.1296 -0.3813
28765SOL    HW288303   0.520   0.862   7.375 -0.1429 -0.6551  1.7017
28766SOL     OW88304   3.725   4.149   2.949  0.0334  0.3004 -0.1624
28766SOL    HW188305   3.721   4.170   3.042 -0.7966 -2.7491  0.6189
28766SOL    HW288306   3.638   4.115   2.929  0.8033 -0.9850 -1.5175
28767SOL     OW88307   0.399   1.228   7.067  0.3690  0.2570 -0.3435
28767SOL    HW188308   0.461   1.241   6.995  3.6697 -0.1898  2.2000
28767SOL    HW288309   0.449   1.247   7.146 -1.7014 -3.6005  2.1971
28768SOL     OW88310   6.366  11.035   3.574 -0.0074 -0.4467  0.0256
28768SOL    HW188311   6.335  11.123   3.551 -0.5489 -1.0707 -1.7682
28768SOL    HW288312   6.443  11.021   3.519 -0.5246 -1.4737 -0.4594
28769SOL     OW88313   8.095   5.626   0.004 -0.1841  0.6396  0.3512
28769SOL    HW188314   8.037   5.665   0.069 -0.2603 -0.6352  1.0855
28769SOL    HW288315   8.039   5.611  -0.072 -0.1094  2.0740 -0.0153
28770SOL     OW88316   1.652   2.778   5.268  0.1273 -0.5363 -0.1719
28770SOL    HW188317   1.675   2.767   5.176  1.3539 -0.0712  0.0680
28770SOL    HW288318   1.694   2.860   5.294  1.4245 -1.6178  1.3055
28771SOL     OW88319   6.883   0.861   3.494  0.5639  0.0428 -0.1233
28771SOL    HW188320   6.901   0.788   3.551  0.6583 -1.3872 -1.8872
28771SOL    HW288321   6.926   0.936   3.535  0.8329 -0.9589  1.4894
28772SOL     OW88322   6.460   5.607   7.138  0.3322 -0.0075 -0.0432
28772SOL    HW188323   6.527   5.663   7.099 -1.6628  2.0834 -0.6439
28772SOL    HW288324   6.437   5.545   7.068 -0.7519  1.4951 -1.0812
28773SOL     OW88325   2.426   5.915   0.181  0.1243 -0.1262 -0.4929
28773SOL    HW188326   2.406   5.988   0.241 -0.0041  0.7008 -1.5105
28773SOL    HW288327   2.519   5.899   0.194 -0.1623 -0.8551  0.8784
28774SOL     OW88328   1.759   0.483   7.765  0.1282  0.7245  0.1289
28774SOL    HW188329   1.751   0.431   7.684  0.9478 -0.0126  0.5096
28774SOL    HW288330   1.676   0.532   7.769 -0.2980  0.1138 -0.7035
28775SOL     OW88331   2.971   8.279   0.833  0.3360 -0.2492 -0.1878
28775SOL    HW188332   2.983   8.195   0.877 -1.1255  0.3769  1.5199
28775SOL    HW288333   2.920   8.257   0.755 -0.6037 -0.9019  0.5801
28776SOL     OW88334   4.861   9.299   6.219 -0.7449  0.5821  0.1712
28776SOL    HW188335   4.893   9.374   6.167  0.2082 -0.2495 -0.4720
28776SOL    HW288336   4.891   9.318   6.308  0.2136  0.5824 -0.1365
28777SOL     OW88337   7.192   6.741   3.879  0.8016 -0.1003  0.3020
28777SOL    HW188338   7.192   6.646   3.866 -1.6571 -0.0069 -0.8978
28777SOL    HW288339   7.241   6.775   3.805  2.9991 -0.4198  1.5100
28778SOL     OW88340   2.860   1.002   3.420 -0.0413  0.0997 -0.3675
28778SOL    HW188341   2.813   1.022   3.501 -0.6227 -1.1346 -0.3718
28778SOL    HW288342   2.899   1.085   3.393 -1.9660  1.1155 -0.1855
28779SOL     OW88343   2.637   7.229   0.162 -0.2519 -0.7064  0.4959
28779SOL    HW188344   2.553   7.270   0.183 -0.5015 -0.6701 -0.5263
28779SOL    HW288345   2.700   7.271   0.221 -0.4597  1.3057 -0.5991
28780SOL     OW88346   6.149   1.308   7.928  0.6293 -0.3362 -0.2666
28780SOL    HW188347   6.073   1.350   7.888  1.6554  1.4041 -0.4859
28780SOL    HW288348   6.146   1.336   8.020  0.1063 -1.6415  0.1429
28781SOL     OW88349   5.066   2.641   2.934  0.3009 -0.3831  0.5738
28781SOL    HW188350   5.155   2.671   2.914 -0.0743 -0.2110 -0.9734
28781SOL    HW288351   5.076   2.547   2.948  0.7744 -0.3128  0.7484
28782SOL     OW88352  10.937   1.105  10.303 -0.0940  0.1086 -0.3981
28782SOL    HW188353  10.910   1.039  10.239  0.2876  1.2886 -1.8314
28782SOL    HW288354  11.009   1.064  10.351 -0.8435 -1.0582 -0.2225
28783SOL     OW88355   3.875   4.515   3.099  0.0787 -0.2445 -0.1706
28783SOL    HW188356   3.797   4.555   3.060 -1.5877 -1.9854  1.2134
28783SOL    HW288357   3.888   4.562   3.182  1.1794  0.7268 -0.8542
28784SOL     OW88358   9.630   9.992  10.201  0.7509 -0.1127  0.1389
28784SOL    HW188359   9.593  10.079  10.188  0.2683 -0.4672 -0.9012
28784SOL    HW288360   9.698   9.984  10.134 -0.4606 -1.2194 -1.0180
28785SOL     OW88361   8.943   0.876   8.439 -0.2584  0.6501  0.4450
28785SOL    HW188362   8.973   0.806   8.498  1.5239 -0.7418 -1.9064
28785SOL    HW288363   8.848   0.866   8.436 -0.3516  0.5055  2.7205
28786SOL     OW88364   3.784   8.568   2.506 -0.5622 -0.5021  0.5550
28786SOL    HW188365   3.698   8.559   2.464 -0.4788 -1.8246  0.6180
28786SOL    HW288366   3.844   8.519   2.448 -0.1225 -0.8107  1.2561
28787SOL     OW88367   5.352   7.162   8.440 -0.9009 -0.3901 -0.1148
28787SOL    HW188368   5.321   7.227   8.377  1.5678 -0.6913 -1.7943
28787SOL    HW288369   5.433   7.199   8.474 -1.0099 -1.2872  1.1820
28788SOL     OW88370   6.228   8.680   9.344  0.1882  0.1267 -0.3469
28788SOL    HW188371   6.195   8.592   9.323  0.4222  0.0963 -0.5880
28788SOL    HW288372   6.177   8.706   9.421 -2.2848  1.1467 -2.1778
28789SOL     OW88373   1.215   4.041   9.117 -0.6380 -0.6893 -0.4041
28789SOL    HW188374   1.139   4.010   9.068 -0.4395  1.6942 -2.3591
28789SOL    HW288375   1.204   4.136   9.122  2.9251 -0.0210 -2.1768
28790SOL     OW88376   9.587   7.752   0.825  0.0777  0.5806  0.2854
28790SOL    HW188377   9.586   7.656   0.827  1.6849  0.5260 -0.0967
28790SOL    HW288378   9.543   7.778   0.906 -1.5518 -0.4394 -0.2216
28791SOL     OW88379   4.975   3.273   8.965  0.3592 -0.3903  0.1386
28791SOL    HW188380   4.979   3.360   8.926  2.0279 -0.7675 -0.6247
28791SOL    HW288381   4.916   3.282   9.040 -1.0024  0.9356 -1.0274
28792SOL     OW88382   9.546   1.560   4.793  0.6451  0.0846 -0.1365
28792SOL    HW188383   9.568   1.594   4.706  1.6432  0.7268  0.3486
28792SOL    HW288384   9.498   1.479   4.776  0.6694  0.3009 -1.2876
28793SOL     OW88385   7.827  10.256   5.774 -0.1771  0.3269 -0.4371
28793SOL    HW188386   7.902  10.218   5.820 -1.1742 -0.7331  0.4139
28793SOL    HW288387   7.813  10.198   5.699 -0.1634  0.4945 -0.5675
28794SOL     OW88388   4.496   0.047   0.045  0.1653 -0.5909  0.4798
28794SOL    HW188389   4.545  -0.014   0.100 -0.9189 -1.6469  0.3260
28794SOL    HW288390   4.472   0.118   0.103 -1.2399 -1.8429  1.5061
28795SOL     OW88391  10.810   8.409   4.394  0.3588  0.5006  0.6337
28795SOL    HW188392  10.868   8.477   4.360  1.0811 -1.4625 -2.4667
28795SOL    HW288393  10.863   8.329   4.392 -1.7540 -0.9763 -0.2250
28796SOL     OW88394   6.702   8.628   8.938 -0.5614 -0.4263 -0.0722
28796SOL    HW188395   6.731   8.628   8.847  1.0058  3.9887  0.1752
28796SOL    HW288396   6.771   8.579   8.984 -0.9881 -2.0531 -1.0531
28797SOL     OW88397   6.785   0.833  10.309 -0.2096  0.7054  0.3460
28797SOL    HW188398   6.766   0.798  10.396 -2.0240  1.3199  0.2426
28797SOL    HW288399   6.776   0.757  10.250 -2.4165  0.9131  0.3259
28798SOL     OW88400   6.010   8.700   4.050  0.1015 -0.6135  0.2745
28798SOL    HW188401   6.011   8.608   4.025 -1.0774 -0.5795 -0.0005
28798SOL    HW288402   5.917   8.719   4.067  0.6198 -0.1512  2.9900
28799SOL     OW88403  10.215   9.397   8.592  0.7879  0.1787  0.0819
28799SOL    HW188404  10.156   9.433   8.658 -0.1890 -0.5444 -0.3736
28799SOL    HW288405  10.231   9.469   8.532 -3.5009 -0.6675 -2.5137
28800SOL     OW88406  10.571   7.831   6.290  1.1043  0.5588  0.0459
28800SOL    HW188407  10.527   7.870   6.215 -0.3646  2.8423  1.9120
28800SOL    HW288408  10.655   7.877   6.295  0.0375  2.5889  1.2960
28801SOL     OW88409   1.326   7.676   6.494 -0.5912 -0.1810 -0.3327
28801SOL    HW188410   1.278   7.664   6.412 -1.0744 -0.5030 -0.0036
28801SOL    HW288411   1.417   7.660   6.470 -0.7686 -0.6255 -0.7365
28802SOL     OW88412   7.784   7.096   9.281  0.2810  0.0041 -0.2197
28802SOL    HW188413   7.858   7.071   9.335  0.6817  0.5847 -0.4821
28802SOL    HW288414   7.727   7.146   9.340  0.5894  0.4130 -0.2657
28803SOL     OW88415   8.796   8.276   1.291 -0.1322  0.3161  0.3911
28803SOL    HW188416   8.842   8.299   1.372  0.6705  0.1878 -0.0283
28803SOL    HW288417   8.758   8.359   1.261 -0.6443  0.3204  1.0188
28804SOL     OW88418  10.073   8.821   4.885 -0.0723 -0.0734 -0.1149
28804SOL    HW188419   9.988   8.865   4.887  0.0832  0.3089  2.7834
28804SOL    HW288420  10.118   8.859   4.810 -1.6066  1.4005 -0.3539
28805SOL     OW88421   7.396   6.947   3.132 -0.0109 -0.2536 -0.6387
28805SOL    HW188422   7.376   6.920   3.043 -0.3615  1.0250 -0.9671
28805SOL    HW288423   7.311   6.948   3.177  0.3420 -2.3653  0.1617
28806SOL     OW88424   5.985   2.644   6.413 -0.0541  0.0346 -0.7561
28806SOL    HW188425   6.063   2.690   6.443 -0.4086  0.8068 -0.9850
28806SOL    HW288426   5.934   2.711   6.368 -2.4733  0.4423  2.2536
28807SOL     OW88427   0.540   0.032   6.104  0.2967 -0.1333 -0.0811
28807SOL    HW188428   0.501   0.119   6.097  0.4203  0.0314  1.1680
28807SOL    HW288429   0.619   0.045   6.156  1.2930 -0.7001 -1.3745
28808SOL     OW88430   3.884   1.258   9.558 -0.1595  0.0193 -0.3104
28808SOL    HW188431   3.809   1.285   9.611 -0.9897  0.1647 -1.5109
28808SOL    HW288432   3.940   1.209   9.619 -1.5676 -0.7057  0.4677
28809SOL     OW88433   6.538   1.122   6.188 -0.3386  0.0002 -0.5483
28809SOL    HW188434   6.537   1.187   6.258 -0.3675  2.0609 -2.3644
28809SOL    HW288435   6.630   1.103   6.174 -0.3695 -1.5660  0.9588
28810SOL     OW88436   6.563   7.515   3.993 -0.3001  0.0702  0.0467
28810SOL    HW188437   6.559   7.512   3.898 -0.7079 -0.4002  0.0734
28810SOL    HW288438   6.606   7.433   4.018  1.5938  1.0549  0.1949
28811SOL     OW88439   9.478   8.587   9.763 -0.1552 -0.1156  0.2808
28811SOL    HW188440   9.511   8.671   9.729  0.6076  0.0251  1.3160
28811SOL    HW288441   9.465   8.534   9.684  2.7470 -0.2376 -0.2536
28812SOL     OW88442   1.194   4.561   2.785 -0.2288  0.0002 -0.0735
28812SOL    HW188443   1.118   4.571   2.727  0.4667 -0.2211 -1.0499
28812SOL    HW288444   1.232   4.648   2.791  0.2032 -0.1432 -0.6680
28813SOL     OW88445   0.892   9.024   7.861  0.0497  0.1383  0.4833
28813SOL    HW188446   0.964   8.972   7.824  0.0656  0.3628  0.1895
28813SOL    HW288447   0.818   9.005   7.804  0.0396  0.3839  0.4121
28814SOL     OW88448   6.308   0.510   6.077  0.2007 -0.3021 -0.3025
28814SOL    HW188449   6.304   0.418   6.050 -1.7422 -0.7340  1.2117
28814SOL    HW288450   6.377   0.512   6.143  1.0400 -0.4162 -1.1595
28815SOL     OW88451   2.492   5.180   8.461 -0.0409 -0.0276  0.0653
28815SOL    HW188452   2.412   5.142   8.425 -0.1263  0.1870  0.0244
28815SOL    HW288453   2.464   5.263   8.499 -0.0803 -0.5800  1.2855
28816SOL     OW88454   3.473   5.782   0.840 -0.2944  0.0225  0.3792
28816SOL    HW188455   3.400   5.723   0.861 -1.7515  1.5844 -0.0709
28816SOL    HW288456   3.541   5.724   0.805 -1.7077 -1.3995 -0.1588
28817SOL     OW88457   7.918   3.359   5.590 -0.3292 -0.6270  0.0628
28817SOL    HW188458   7.904   3.272   5.554 -0.2140 -0.6856  0.1548
28817SOL    HW288459   7.848   3.370   5.654  0.2886 -1.0965  0.8394
28818SOL     OW88460   4.572   9.974   8.408  0.1355  0.3596 -0.1689
28818SOL    HW188461   4.642  10.012   8.355  0.5922 -1.2894 -0.7940
28818SOL    HW288462   4.583  10.015   8.494  2.0647 -0.0745 -0.1624
28819SOL     OW88463  10.588   5.603   2.009 -0.3259 -0.4635 -0.2327
28819SOL    HW188464  10.659   5.646   1.962 -0.2327  0.7435  0.9680
28819SOL    HW288465  10.509   5.629   1.961 -0.1691  0.0974 -0.1891
28820SOL     OW88466   5.551   2.439   4.207  0.2462  0.5041 -0.8819
28820SOL    HW188467   5.594   2.376   4.266 -4.2965 -3.5505 -1.1968
28820SOL    HW288468   5.576   2.411   4.119  0.3077  0.9378 -1.0052
28821SOL     OW88469   3.421   3.510   8.004 -0.3302 -0.3264  0.0613
28821SOL    HW188470   3.357   3.507   7.933 -0.1122  0.6089 -0.1867
28821SOL    HW288471   3.506   3.495   7.961 -0.1699  0.5102  0.0815
28822SOL     OW88472   5.434   5.528  10.688  0.4107  0.5598  0.0894
28822SOL    HW188473   5.430   5.531  10.784 -2.1679 -0.6898  0.1001
28822SOL    HW288474   5.441   5.435  10.668 -0.0496  0.7399 -0.9558
28823SOL     OW88475  10.030   4.364  10.151  0.4367 -0.2453 -0.3514
28823SOL    HW188476   9.966   4.299  10.121 -0.1875  0.2226 -0.0732
28823SOL    HW288477  10.067   4.326  10.231 -2.3669  1.0982  1.7957
28824SOL     OW88478   8.903   9.496  10.670 -0.1798 -0.0843 -0.0120
28824SOL    HW188479   8.818   9.528  10.639 -0.1971 -0.7167 -0.6192
28824SOL    HW288480   8.962   9.570  10.658 -0.1269 -0.3876 -1.8065
28825SOL     OW88481   1.580   1.354   5.225 -0.4450 -0.2502  0.3898
28825SOL    HW188482   1.550   1.414   5.157  0.1193 -1.0830 -0.6128
28825SOL    HW288483   1.499   1.316   5.261 -0.7023 -1.3551 -1.2620
28826SOL     OW88484   3.601   5.518   1.195  0.1416 -0.2248  0.1241
28826SOL    HW188485   3.550   5.490   1.119  1.3989  0.2079 -0.9209
28826SOL    HW288486   3.624   5.609   1.176 -0.9403  0.4464  1.8328
28827SOL     OW88487   7.678   8.151   1.018  0.0888  0.4382 -0.2463
28827SOL    HW188488   7.600   8.125   0.970  1.5214 -2.4553 -1.2508
28827SOL    HW288489   7.661   8.124   1.109  0.8829 -2.9549 -0.9658
28828SOL     OW88490   1.091   0.180  11.021 -0.7985 -0.4242  0.5877
28828SOL    HW188491   1.088   0.085  11.033 -0.0581 -0.5272 -0.0081
28828SOL    HW288492   1.177   0.206  11.056 -1.1179  0.0685  1.0225
28829SOL     OW88493   5.304   8.670   7.267  0.0730  0.0405  0.3671
28829SOL    HW188494   5.234   8.648   7.328  1.7976 -1.3714  1.9987
28829SOL    HW288495   5.304   8.598   7.204  0.5472 -0.4355  0.8871
28830SOL     OW88496   8.632   2.825  10.652  0.8994  0.4333 -0.5127
28830SOL    HW188497   8.590   2.756  10.703  0.2348  1.7335  0.7779
28830SOL    HW288498   8.655   2.783  10.569 -2.3501 -0.5359 -1.0690
28831SOL     OW88499   7.005   0.145  10.294  0.3006  0.5510  0.1107
28831SOL    HW188500   7.083   0.181  10.252  0.6840 -0.8088 -0.4008
28831SOL    HW288501   6.952   0.112  10.222  0.9341 -1.7562  0.6435
28832SOL     OW88502   1.533   8.517   8.735  0.2638  0.3423 -0.1257
28832SOL    HW188503   1.557   8.581   8.802  1.5640 -0.0728 -0.1640
28832SOL    HW288504   1.538   8.566   8.652 -0.7874  0.7069  0.0092
28833SOL     OW88505   4.007   8.360  10.929  0.4401 -0.2636  0.7130
28833SOL    HW188506   3.993   8.412  11.008 -1.5408 -1.9479  1.5750
28833SOL    HW288507   4.049   8.280  10.960  1.4515 -0.1399 -0.2657
28834SOL     OW88508   5.745   7.844   4.396  0.6333  0.6963  0.0439
28834SOL    HW188509   5.651   7.842   4.414  0.9998  1.8432  2.5354
28834SOL    HW288510   5.756   7.912   4.330 -0.2653  0.5754 -0.2412
28835SOL     OW88511   5.386   4.773   0.471 -0.1658  0.1758 -0.0835
28835SOL    HW188512   5.427   4.771   0.385  0.1010 -3.0037 -0.0080
28835SOL    HW288513   5.459   4.772   0.532 -0.3707  0.7882  0.1817
28836SOL     OW88514   9.120   8.135   4.634  0.2917 -0.4230 -0.3449
28836SOL    HW188515   9.032   8.134   4.672 -0.2036 -2.4953 -1.4206
28836SOL    HW288516   9.146   8.227   4.638 -1.3690  0.0400  1.2056
28837SOL     OW88517  10.862  10.141   9.411 -0.1613  0.1284 -0.0184
28837SOL    HW188518  10.918  10.162   9.486 -0.5582  0.4432  0.1896
28837SOL    HW288519  10.914  10.166   9.334  0.7547 -1.3425  0.0882
28838SOL     OW88520   2.756  10.862   8.474  0.5082 -0.3095 -0.1820
28838SOL    HW188521   2.685  10.805   8.444 -0.3351  0.5411  0.1261
28838SOL    HW288522   2.829  10.844   8.415 -0.4185 -0.2137 -1.3887
28839SOL     OW88523  10.538   4.870   0.938  0.3320  0.0866  0.2824
28839SOL    HW188524  10.517   4.785   0.900  0.9222  0.8817 -1.9213
28839SOL    HW288525  10.455   4.917   0.940  0.2246 -0.1054  0.4007
28840SOL     OW88526   7.388   6.490   9.344 -0.1379 -0.3515  0.4183
28840SOL    HW188527   7.468   6.483   9.395  0.2090 -2.9875 -0.3142
28840SOL    HW288528   7.331   6.547   9.396  1.1464 -0.7599  2.3901
28841SOL     OW88529   2.428  10.961   1.591  0.1329 -0.0165 -0.2303
28841SOL    HW188530   2.490  10.906   1.639 -0.5403 -0.5634  0.0125
28841SOL    HW288531   2.372  10.999   1.659 -1.3567 -1.4406 -0.5985
28842SOL     OW88532  10.135   5.558   1.950  0.0851  0.4040 -0.2852
28842SOL    HW188533  10.104   5.635   1.902 -1.2299 -0.7059 -1.3230
28842SOL    HW288534  10.107   5.483   1.896  1.3769 -0.8065  0.6444
28843SOL     OW88535   6.962   8.279   6.001  0.1300  0.8277 -0.1318
28843SOL    HW188536   6.901   8.349   6.024 -0.1541  1.0741 -1.5122
28843SOL    HW288537   7.037   8.291   6.059 -1.0042  0.6783  1.4122
28844SOL     OW88538   7.860   4.991   4.030  0.1687  0.2997 -0.2217
28844SOL    HW188539   7.895   5.022   4.114  0.7940 -1.0770  0.0515
28844SOL    HW288540   7.780   4.943   4.054 -0.5743  1.3126 -0.5981
28845SOL     OW88541   7.427   8.073   5.821 -0.1774  0.0278 -1.1057
28845SOL    HW188542   7.482   8.146   5.792 -0.2085  0.5240  0.0236
28845SOL    HW288543   7.346   8.082   5.770 -0.5043  1.2969 -0.4022
28846SOL     OW88544   1.953   4.961   4.796 -0.3042 -0.3815 -0.0789
28846SOL    HW188545   1.963   5.057   4.796 -2.0680 -0.1736  0.2803
28846SOL    HW288546   1.977   4.935   4.707  0.3981  0.3634 -0.1240
28847SOL     OW88547   4.342   0.023   9.019 -0.0391  0.2808  0.7295
28847SOL    HW188548   4.304  -0.064   9.028  2.4022 -0.8750  0.8324
28847SOL    HW288549   4.307   0.057   8.937 -0.6286 -1.0391  0.4142
28848SOL     OW88550   2.570   8.637   0.519 -0.0726  0.2006 -0.4530
28848SOL    HW188551   2.503   8.651   0.452 -1.1012 -1.3733  0.1825
28848SOL    HW288552   2.631   8.709   0.508 -0.7736  0.5446 -2.4046
28849SOL     OW88553   9.119   6.859   3.051  0.3662  0.0294  0.0885
28849SOL    HW188554   9.165   6.775   3.053  0.1490 -0.2825 -2.7790
28849SOL    HW288555   9.041   6.846   3.105 -0.4220 -2.1673 -1.4426
28850SOL     OW88556   6.479   8.448   9.355 -0.1339 -0.0517  0.2296
28850SOL    HW188557   6.515   8.437   9.267  0.2811 -0.2187  0.4179
28850SOL    HW288558   6.384   8.445   9.343 -0.0915 -2.0150  0.0048
28851SOL     OW88559   3.276   9.505  10.652 -0.6791  0.3398 -0.1637
28851SOL    HW188560   3.325   9.440  10.703 -3.1697  0.0167  1.9928
28851SOL    HW288561   3.258   9.462  10.568  0.1127 -0.6436  0.1582
28852SOL     OW88562   5.194   8.628   5.020 -0.0794 -0.4589  0.3037
28852SOL    HW188563   5.155   8.637   4.933 -0.6908  0.5410  0.6684
28852SOL    HW288564   5.202   8.533   5.033  0.1509 -0.6189 -0.8905
28853SOL     OW88565   6.706   1.833   5.834  0.1349  0.4467  0.5551
28853SOL    HW188566   6.762   1.907   5.858 -0.1198  0.6729  0.4553
28853SOL    HW288567   6.677   1.797   5.918 -1.1172  1.5122  0.6109
28854SOL     OW88568   9.055   0.790   8.177  0.3752  0.8533 -0.1421
28854SOL    HW188569   8.969   0.817   8.144 -1.0884 -2.5634  0.3549
28854SOL    HW288570   9.036   0.746   8.260  3.2405  3.8788  2.3742
28855SOL     OW88571   7.038   7.136   3.707 -0.4256 -0.2670  0.6939
28855SOL    HW188572   7.119   7.099   3.671  0.0058  1.2863 -0.0306
28855SOL    HW288573   6.983   7.060   3.723  0.6952 -1.2811 -0.0126
28856SOL     OW88574   3.853   1.238   0.764  0.1254  0.3068 -0.4250
28856SOL    HW188575   3.904   1.317   0.782  1.5162 -0.9092  1.3939
28856SOL    HW288576   3.914   1.180   0.719  0.5494 -1.2708  2.0061
28857SOL     OW88577   1.551   9.817   6.307  0.1504 -0.3133 -0.1340
28857SOL    HW188578   1.464   9.820   6.267  0.5890 -0.3280 -1.1124
28857SOL    HW288579   1.580   9.727   6.293  0.4886 -0.2004 -0.1580
28858SOL     OW88580   8.996  10.142   5.059 -0.1668 -0.0226  0.3150
28858SOL    HW188581   8.990  10.148   4.964 -3.0415  0.4362  0.4254
28858SOL    HW288582   8.989  10.233   5.089  0.3315 -0.1947  0.9878
28859SOL     OW88583   9.483   1.449  10.050 -0.0284  0.7707 -0.2394
28859SOL    HW188584   9.495   1.416   9.961  0.0838 -1.5440  0.5456
28859SOL    HW288585   9.511   1.376  10.106 -5.5764 -0.3952  1.7489
28860SOL     OW88586  10.684   3.797   5.902 -0.2835  0.3678  0.3932
28860SOL    HW188587  10.622   3.815   5.972  0.8991 -2.2552  2.3163
28860SOL    HW288588  10.757   3.857   5.919 -0.9261  1.2626  0.0453
28861SOL     OW88589   2.948   5.580   7.122 -0.1468  0.7640  0.1177
28861SOL    HW188590   3.018   5.571   7.187 -0.4692  0.9040  0.4844
28861SOL    HW288591   2.960   5.668   7.087 -1.3681  1.5674  1.6265
28862SOL     OW88592   8.348   3.664   7.622  0.2935  0.2877  0.2962
28862SOL    HW188593   8.418   3.613   7.583 -0.1323 -1.2527  1.4514
28862SOL    HW288594   8.391   3.744   7.653  1.1716  0.1932 -0.6184
28863SOL     OW88595   1.727   6.454   2.560  0.2305  0.2235 -0.0907
28863SOL    HW188596   1.650   6.502   2.589  0.6292  0.5508  0.4484
28863SOL    HW288597   1.748   6.396   2.633 -0.9642 -1.6942 -1.1929
28864SOL     OW88598   5.287   9.455   1.247 -0.0702 -0.2026 -0.4682
28864SOL    HW188599   5.344   9.409   1.308  0.4689  0.4489 -0.4709
28864SOL    HW288600   5.199   9.448   1.286  0.2593  0.1579  0.3615
28865SOL     OW88601   6.036   9.842   6.653  0.1299 -0.0034 -0.3989
28865SOL    HW188602   5.951   9.798   6.653  0.9958 -1.8716 -2.1451
28865SOL    HW288603   6.098   9.772   6.673  1.2910  1.3011  0.6796
28866SOL     OW88604   7.844   8.843   5.671 -0.4299  0.4339 -0.0701
28866SOL    HW188605   7.881   8.926   5.700  0.1978  0.1230  0.0211
28866SOL    HW288606   7.894   8.820   5.593  0.1924 -0.4375  0.5679
28867SOL     OW88607  10.270  10.798   5.802  0.4381  1.0098  0.2344
28867SOL    HW188608  10.199  10.753   5.757 -1.3005  2.5986  1.2514
28867SOL    HW288609  10.307  10.733   5.861 -1.6275  0.6893  1.2613
28868SOL     OW88610   7.901   9.088   5.774  0.1146  0.2933 -0.1338
28868SOL    HW188611   7.988   9.083   5.814 -0.5261 -0.6971  1.2203
28868SOL    HW288612   7.846   9.128   5.842 -0.4843  0.9784 -1.0007
28869SOL     OW88613   0.049   8.540   6.503 -0.1664 -0.1547 -0.5619
28869SOL    HW188614  -0.036   8.574   6.531 -0.4926  0.8813 -2.6347
28869SOL    HW288615   0.088   8.611   6.453  1.1772 -1.2524 -1.1438
28870SOL     OW88616  10.803   7.570   7.859 -0.3486 -0.3074  0.0820
28870SOL    HW188617  10.786   7.664   7.870 -0.4849 -0.0371 -1.9358
28870SOL    HW288618  10.898   7.562   7.864 -0.4061 -0.3150  1.6852
28871SOL     OW88619   7.761   1.388   9.536 -0.4476 -0.1782 -0.1784
28871SOL    HW188620   7.785   1.411   9.447  2.0484 -0.5225  0.3367
28871SOL    HW288621   7.763   1.471   9.583  2.2182 -0.4110  0.3155
28872SOL     OW88622   1.126   4.295   9.089  0.4267  0.2787  0.6966
28872SOL    HW188623   1.101   4.380   9.126 -0.3220 -0.2739  1.4979
28872SOL    HW288624   1.154   4.315   8.999 -0.3247  1.2863  0.6707
28873SOL     OW88625   4.912   2.253   0.329 -0.2545 -0.0682  0.7959
28873SOL    HW188626   4.909   2.161   0.356  1.8487 -0.4488 -0.1013
28873SOL    HW288627   4.981   2.291   0.383 -0.5424  0.7880  0.5643
28874SOL     OW88628   3.181   4.368   7.136  0.5050 -0.2143  0.0896
28874SOL    HW188629   3.171   4.405   7.224  0.5793  0.6115 -0.2413
28874SOL    HW288630   3.093   4.345   7.109  0.4322 -0.0753  0.2081
28875SOL     OW88631   4.815   0.156   0.017 -0.2232  0.4780  0.1543
28875SOL    HW188632   4.838   0.111  -0.064 -1.9428 -1.7252  0.7642
28875SOL    HW288633   4.790   0.244  -0.010  2.6851  0.9741 -1.1981
28876SOL     OW88634   8.972   4.530   3.855 -0.0648 -0.0127  0.1514
28876SOL    HW188635   9.021   4.612   3.866  0.4282 -0.2336 -0.3558
28876SOL    HW288636   8.988   4.482   3.936  0.9318 -0.2666 -0.1784
28877SOL     OW88637   9.317   8.588  10.909 -0.2075  0.2370  0.6425
28877SOL    HW188638   9.317   8.507  10.859 -0.7089  0.0012  1.0176
28877SOL    HW288639   9.236   8.633  10.882  1.0372  1.5927 -1.1122
28878SOL     OW88640   5.358   6.247   1.280  0.0400 -0.1056  0.9027
28878SOL    HW188641   5.283   6.203   1.240  0.1164 -0.7165  1.4182
28878SOL    HW288642   5.384   6.313   1.216 -1.0439  0.2309  0.8009
28879SOL     OW88643   8.343   9.720   7.038  0.5040  0.6440 -0.1396
28879SOL    HW188644   8.413   9.689   7.095 -0.8170 -0.4941  0.9328
28879SOL    HW288645   8.370   9.696   6.950  1.9966  1.3149  0.1080
28880SOL     OW88646   7.305   2.804   0.271  0.2865 -1.1438 -0.6032
28880SOL    HW188647   7.369   2.867   0.305  0.3318 -1.3913 -0.2298
28880SOL    HW288648   7.307   2.731   0.333  1.7368 -2.4558 -2.1044
28881SOL     OW88649   5.397   2.197  11.018  0.1469 -0.3416  0.1392
28881SOL    HW188650   5.325   2.140  11.045  0.7985 -1.2475  0.0235
28881SOL    HW288651   5.366   2.239  10.938 -1.7416  2.2197  2.0185
28882SOL     OW88652   7.369   9.733   6.944 -0.0069  0.1563 -0.1041
28882SOL    HW188653   7.464   9.735   6.930  0.3247  3.2382  1.6319
28882SOL    HW288654   7.339   9.656   6.896  3.3224 -0.7973 -0.9093
28883SOL     OW88655   0.636   6.398  10.275 -0.4709  0.3450 -0.3872
28883SOL    HW188656   0.689   6.380  10.353 -0.2890  3.0426  0.2147
28883SOL    HW288657   0.668   6.482  10.243 -1.5076 -0.0201 -2.5768
28884SOL     OW88658   5.351   0.121   9.322  0.1322  0.2489 -0.5944
28884SOL    HW188659   5.364   0.026   9.323  0.3518  0.2439  1.8390
28884SOL    HW288660   5.267   0.133   9.278 -0.6987 -1.2180  0.4817
28885SOL     OW88661   6.586   0.505   3.213 -0.0192  0.8705  0.5187
28885SOL    HW188662   6.629   0.532   3.131  0.6496  1.4943  1.0604
28885SOL    HW288663   6.520   0.573   3.228 -0.9539  0.1274 -0.1009
28886SOL     OW88664   6.950   7.396   3.356  0.2957 -0.2960 -0.2428
28886SOL    HW188665   6.884   7.341   3.397 -1.3986  0.7772 -1.3645
28886SOL    HW288666   6.943   7.375   3.262  1.5802 -0.1729 -0.3813
28887SOL     OW88667  10.223   2.567   1.747 -0.5493  0.0107 -0.1009
28887SOL    HW188668  10.142   2.537   1.706  0.6373 -1.8729 -1.2678
28887SOL    HW288669  10.216   2.537   1.838 -0.4247 -1.8757 -0.6526
28888SOL     OW88670   6.206   8.107   4.124 -0.6425  0.2918 -0.1713
28888SOL    HW188671   6.279   8.126   4.066 -1.3461  1.5841 -0.6734
28888SOL    HW288672   6.234   8.139   4.210 -0.3400  0.0906 -0.1926
28889SOL     OW88673   4.681  10.574   9.838  0.5239 -0.0693 -0.0163
28889SOL    HW188674   4.763  10.564   9.790  0.8583 -0.2731  0.5946
28889SOL    HW288675   4.659  10.486   9.868  0.3422  0.0636  0.2450
28890SOL     OW88676   0.341   0.309   9.212 -0.4199  0.5250 -0.2130
28890SOL    HW188677   0.316   0.258   9.135 -0.1916  1.0355 -0.6367
28890SOL    HW288678   0.284   0.386   9.208 -1.5690 -0.2084  1.0445
28891SOL     OW88679   6.176   2.436   3.087 -0.4624  0.1588  0.5537
28891SOL    HW188680   6.168   2.364   3.149  0.7393 -0.0885  0.4503
28891SOL    HW288681   6.105   2.423   3.024 -1.3532  0.1028  1.5591
28892SOL     OW88682   0.877   9.979   7.095  0.2921  0.0908  0.2354
28892SOL    HW188683   0.804   9.977   7.157  0.5021 -1.2754  0.4701
28892SOL    HW288684   0.947   9.930   7.138 -0.1993 -2.6155 -1.8334
28893SOL     OW88685   3.423   0.440   9.908 -0.2201  0.1779 -0.3958
28893SOL    HW188686   3.355   0.465   9.845  0.8919  0.2816 -1.6048
28893SOL    HW288687   3.500   0.422   9.853  0.8627  0.5399  0.9704
28894SOL     OW88688   7.991   7.868  10.081 -0.5150 -0.1911 -0.0263
28894SOL    HW188689   7.996   7.805  10.010  0.6055 -1.5097  1.1797
28894SOL    HW288690   7.906   7.851  10.122 -0.1310 -1.0951  0.4235
28895SOL     OW88691   3.928   9.517   1.256 -0.0779  0.3165 -0.4675
28895SOL    HW188692   3.952   9.424   1.259 -0.0507  0.3215 -0.5545
28895SOL    HW288693   3.921   9.542   1.348 -1.7029 -0.2024 -0.4139
28896SOL     OW88694   9.740   8.035   0.002 -0.5301 -0.1707 -0.1094
28896SOL    HW188695   9.807   8.066   0.063 -0.4552 -1.0276  0.2522
28896SOL    HW288696   9.776   7.954  -0.034 -1.3512 -0.6175  0.0517
28897SOL     OW88697   0.529  10.862   1.797  0.2653 -0.0612  0.3537
28897SOL    HW188698   0.530  10.819   1.712 -0.9070 -0.8207  0.7001
28897SOL    HW288699   0.622  10.877   1.818  0.5472  0.7268 -1.3214
28898SOL     OW88700   4.711  10.625  10.504  0.5811 -0.3737 -0.1844
28898SOL    HW188701   4.662  10.697  10.463  0.0268  0.6597  2.1170
28898SOL    HW288702   4.743  10.572  10.431  1.3560  2.4202 -1.9976
28899SOL     OW88703   6.470   7.876   3.884  0.3040  0.4420 -0.0244
28899SOL    HW188704   6.485   7.927   3.804  0.2074  4.0802  2.0379
28899SOL    HW288705   6.376   7.858   3.883  0.3908 -0.0677 -0.9448
28900SOL     OW88706   9.239   3.072   2.253 -0.1398  0.3855 -0.4957
28900SOL    HW188707   9.270   3.092   2.342  0.9248 -0.5855 -0.6328
28900SOL    HW288708   9.219   3.158   2.215  1.4675  0.9835 -0.0551
28901SOL     OW88709   5.485   8.871   7.733 -0.2977 -0.3255  0.4781
28901SOL    HW188710   5.429   8.879   7.810  0.9993  3.0596  1.2570
28901SOL    HW288711   5.425   8.881   7.659 -1.0768  0.7419  1.2170
28902SOL     OW88712   1.758   1.984   9.826 -0.0641 -0.2142 -0.2848
28902SOL    HW188713   1.772   2.074   9.798 -2.9967  0.6989  0.7443
28902SOL    HW288714   1.669   1.964   9.798 -1.4562 -0.8666  3.8705
28903SOL     OW88715   8.755   2.442   8.024 -0.0031  0.2472  0.7475
28903SOL    HW188716   8.833   2.398   8.059 -0.5058 -1.2818  0.0410
28903SOL    HW288717   8.731   2.506   8.091  1.2260 -0.0178  1.4626
28904SOL     OW88718   7.508   7.675   7.779  0.3558  0.3667 -0.3162
28904SOL    HW188719   7.574   7.608   7.762  1.3392  1.1889  0.1648
28904SOL    HW288720   7.531   7.710   7.864 -1.5319 -0.2499  0.5083
28905SOL     OW88721   9.564   9.152   4.758  0.2399  0.1535 -0.1465
28905SOL    HW188722   9.563   9.110   4.673  1.4101  1.0967 -0.6581
28905SOL    HW288723   9.634   9.218   4.752  0.4093  0.1852  1.5566
28906SOL     OW88724   3.581   0.282   6.836 -0.3456  0.2438 -0.2044
28906SOL    HW188725   3.524   0.308   6.909  0.8069  1.4292  0.3166
28906SOL    HW288726   3.565   0.188   6.826 -0.1261 -0.0934  1.9613
28907SOL     OW88727   3.634  10.386   8.127 -0.1398 -0.6431  0.3848
28907SOL    HW188728   3.578  10.339   8.189 -1.9610 -1.5275 -1.7741
28907SOL    HW288729   3.707  10.326   8.110 -0.0901 -0.7588  0.9965
28908SOL     OW88730  10.916   1.663   3.466  0.2480  0.2506  0.0082
28908SOL    HW188731  10.969   1.720   3.521  0.6725  2.4143 -2.4729
28908SOL    HW288732  10.975   1.633   3.397 -0.5903 -1.2406 -0.1000
28909SOL     OW88733  10.541   3.819   7.870 -0.2198 -0.4672 -0.1165
28909SOL    HW188734  10.488   3.828   7.950 -1.2965  0.1445 -0.8640
28909SOL    HW288735  10.544   3.908   7.834  1.5295 -0.4451  0.0084
28910SOL     OW88736   6.346   0.483   9.253  0.4532 -0.0163 -0.2144
28910SOL    HW188737   6.265   0.434   9.266 -0.0119  0.0426 -2.5316
28910SOL    HW288738   6.335   0.563   9.305  0.2107 -1.2113  1.6495
28911SOL     OW88739   4.261   2.196   3.020  0.2827  0.2187 -0.2369
28911SOL    HW188740   4.233   2.192   3.112 -1.1460 -0.6459 -0.6705
28911SOL    HW288741   4.179   2.199   2.971  1.0237  1.4032 -1.4844
28912SOL     OW88742   8.575   9.806  10.119  0.2307 -0.1968  0.2643
28912SOL    HW188743   8.658   9.767  10.148  0.3272  0.5746  1.0704
28912SOL    HW288744   8.510   9.737  10.134  0.4170 -0.1237  1.5554
28913SOL     OW88745   7.245   3.985   3.963  0.0993 -0.0926 -0.0691
28913SOL    HW188746   7.228   4.075   3.936 -0.0579 -0.5313 -1.5383
28913SOL    HW288747   7.165   3.938   3.942  0.6457 -0.8256 -0.5521
28914SOL     OW88748   0.184   0.842   2.032 -0.0309 -0.1936  0.6851
28914SOL    HW188749   0.222   0.759   2.002 -0.3638 -0.4162  0.8699
28914SOL    HW288750   0.116   0.816   2.094 -1.0300  0.1497 -0.2321
28915SOL     OW88751   3.525  10.306   5.331 -0.7555 -0.1356 -0.1652
28915SOL    HW188752   3.502  10.397   5.312 -0.7546 -0.3041 -1.0102
28915SOL    HW288753   3.518  10.261   5.247  1.5098 -0.4400 -0.2498
28916SOL     OW88754   9.490   8.389   6.873  0.5017 -0.2269  0.2718
28916SOL    HW188755   9.399   8.418   6.881 -0.3759 -1.1784 -3.7779
28916SOL    HW288756   9.489   8.298   6.902  0.2429 -0.1620  0.4747
28917SOL     OW88757   8.459   2.287  10.092  0.1365  0.0285  0.8615
28917SOL    HW188758   8.459   2.267   9.998 -2.8597  1.1398  0.5144
28917SOL    HW288759   8.549   2.270  10.120  1.0579 -0.6442 -2.1212
28918SOL     OW88760   7.609   9.342  10.880 -0.0707  0.3431 -0.3268
28918SOL    HW188761   7.638   9.330  10.790  1.9812 -2.2866  0.5469
28918SOL    HW288762   7.674   9.400  10.919 -0.1676  0.3752 -0.2104
28919SOL     OW88763   5.606  10.538   5.736 -0.1488  0.0981 -0.1735
28919SOL    HW188764   5.655  10.597   5.794 -1.3145  0.3276  0.6158
28919SOL    HW288765   5.629  10.450   5.767 -1.2942  0.2236  1.1420
28920SOL     OW88766  10.662   7.685   3.559 -0.6932 -0.2336  0.0041
28920SOL    HW188767  10.590   7.629   3.589 -1.2466  0.7146  0.5128
28920SOL    HW288768  10.645   7.699   3.466 -1.1089 -0.1132  0.0953
28921SOL     OW88769   0.522   3.837   6.905  0.8022 -0.1325  0.2026
28921SOL    HW188770   0.526   3.932   6.898 -0.6102 -0.1326 -1.0707
28921SOL    HW288771   0.495   3.820   6.995  0.9352  0.6659  0.4002
28922SOL     OW88772   4.622   3.010   7.184  0.2088 -0.3276  0.3436
28922SOL    HW188773   4.663   3.094   7.202  1.1843 -0.4278 -1.2506
28922SOL    HW288774   4.651   2.953   7.256  0.3020  0.4370  0.9225
28923SOL     OW88775   9.851  10.503   3.586  0.0627  0.1663 -0.2539
28923SOL    HW188776   9.784  10.568   3.562 -0.7573 -0.4321  0.3406
28923SOL    HW288777   9.913  10.552   3.640 -0.4757  0.5063  0.0760
28924SOL     OW88778   5.712   5.298   0.005 -0.4054  0.0412  0.0663
28924SOL    HW188779   5.797   5.334  -0.022 -0.5539  0.8878  0.6969
28924SOL    HW288780   5.717   5.206  -0.019  1.3917 -0.3499  1.6432
28925SOL     OW88781   0.755   3.633   1.446  0.9600 -0.0957 -0.3791
28925SOL    HW188782   0.789   3.722   1.432  1.0175  0.1493  1.1734
28925SOL    HW288783   0.672   3.632   1.398 -0.6119  1.8638  2.0100
28926SOL     OW88784   1.460   1.227   9.124 -0.0010 -0.0773  0.0187
28926SOL    HW188785   1.404   1.299   9.094 -0.0080  0.0814  0.4144
28926SOL    HW288786   1.407   1.182   9.190  0.9686  1.1121  1.7036
28927SOL     OW88787   6.457   4.238   3.012 -0.2403  0.5544 -0.5223
28927SOL    HW188788   6.411   4.209   3.091 -0.0569 -0.0907 -0.6492
28927SOL    HW288789   6.550   4.233   3.035 -0.2073  1.0232 -0.5534
28928SOL     OW88790   9.290   1.500   2.212 -0.2422 -0.1236 -0.6041
28928SOL    HW188791   9.350   1.574   2.220 -0.1674 -0.2466  0.0470
28928SOL    HW288792   9.347   1.427   2.186 -0.0824 -0.2696  0.1398
28929SOL     OW88793   2.627   2.518   9.709 -0.0489 -0.7337 -0.1475
28929SOL    HW188794   2.673   2.434   9.709 -0.3896 -0.9662  1.7350
28929SOL    HW288795   2.601   2.531   9.801  0.2513  1.5609 -0.3294
28930SOL     OW88796   3.279   9.516   0.894  0.3525 -0.2149  1.0051
28930SOL    HW188797   3.291   9.600   0.938  0.3148  0.8178 -0.8601
28930SOL    HW288798   3.366   9.476   0.894 -0.0458 -1.3546  3.9977
28931SOL     OW88799   6.509   7.654   6.719  0.4661  0.5913  0.1720
28931SOL    HW188800   6.523   7.739   6.679 -1.1880  0.4440 -0.8205
28931SOL    HW288801   6.433   7.666   6.777  1.5948  0.3105  1.7919
28932SOL     OW88802   1.054  10.346   1.769 -0.4862  0.3827 -0.3793
28932SOL    HW188803   0.994  10.292   1.718  0.3525 -0.6911 -0.2670
28932SOL    HW288804   1.138  10.340   1.722 -0.1643  0.8569  0.1255
28933SOL     OW88805   7.000   9.495   9.262  0.5582 -0.3281 -0.5537
28933SOL    HW188806   7.025   9.403   9.254  0.9399 -0.3563  0.7290
28933SOL    HW288807   6.906   9.496   9.247  0.4002 -1.0709  0.2833
28934SOL     OW88808   7.690   8.589   0.087 -0.1103  0.0606 -0.0389
28934SOL    HW188809   7.748   8.522   0.122 -0.0834 -0.1709 -0.5155
28934SOL    HW288810   7.749   8.655   0.051 -0.1349 -0.3382 -0.8306
28935SOL     OW88811   8.389  10.910   8.256 -0.2851 -0.0204 -0.0230
28935SOL    HW188812   8.374  10.818   8.235 -1.2969 -0.4177  2.2488
28935SOL    HW288813   8.329  10.929   8.328  1.0726  1.9763  0.6611
28936SOL     OW88814   0.986   9.188  10.235  0.7161 -0.3200  0.4138
28936SOL    HW188815   0.968   9.104  10.193 -0.5934  0.3572 -0.4370
28936SOL    HW288816   1.082   9.198  10.230  0.7630 -1.1660 -0.6376
28937SOL     OW88817   0.601   3.563   6.380  0.3613  0.4754 -0.1836
28937SOL    HW188818   0.569   3.578   6.469  3.2629  0.4922  0.9558
28937SOL    HW288819   0.612   3.651   6.343  0.5323  0.5175 -0.0306
28938SOL     OW88820   9.306  10.787   1.751 -0.3598  0.1650  0.4268
28938SOL    HW188821   9.276  10.706   1.711  1.4224  0.5035 -1.7753
28938SOL    HW288822   9.227  10.827   1.787 -1.8576 -0.8912 -1.5175
28939SOL     OW88823   8.041   4.902   8.782  0.4474  0.8398 -0.0668
28939SOL    HW188824   8.030   4.990   8.819  2.0859 -0.1568  3.1771
28939SOL    HW288825   8.134   4.897   8.758  0.8934 -0.6150  1.7699
28940SOL     OW88826   4.009   5.015   3.531 -0.1080  0.7199 -0.3701
28940SOL    HW188827   4.080   4.958   3.558  0.5554  1.7389  0.0947
28940SOL    HW288828   3.930   4.961   3.540  0.6238 -0.5453 -1.2693
28941SOL     OW88829   8.702   9.463  10.953  0.3850 -0.6664 -0.0767
28941SOL    HW188830   8.700   9.481  10.859  0.6260 -1.2262 -0.1912
28941SOL    HW288831   8.678   9.546  10.994  3.7417  0.6499 -0.5040
28942SOL     OW88832   6.434   6.151   1.642 -0.1103 -0.3996 -0.3636
28942SOL    HW188833   6.492   6.177   1.571  1.7460 -0.6609  0.9857
28942SOL    HW288834   6.405   6.234   1.680 -1.5513 -0.2462 -1.7081
28943SOL     OW88835   1.666   3.460   2.448 -0.0736  0.4945 -0.3087
28943SOL    HW188836   1.703   3.513   2.519 -0.2298 -0.0458  0.1805
28943SOL    HW288837   1.573   3.479   2.451 -0.3394 -0.8173  0.7565
28944SOL     OW88838   6.029   7.919   8.617 -0.7778  0.0758  0.5409
28944SOL    HW188839   6.076   7.836   8.615 -0.0593  0.4475  1.2651
28944SOL    HW288840   6.031   7.945   8.709 -2.0871  0.2945  0.5289
28945SOL     OW88841   7.856   1.746   8.128  0.5317 -0.1561 -0.0369
28945SOL    HW188842   7.946   1.714   8.137  0.6931  0.3483  0.1793
28945SOL    HW288843   7.858   1.802   8.050  0.8122  1.2019  0.9095
28946SOL     OW88844   6.838   9.750   6.321 -0.4149  0.0486  0.2854
28946SOL    HW188845   6.763   9.695   6.298 -0.6126 -0.0582  1.1437
28946SOL    HW288846   6.801   9.838   6.334  0.2305  1.0625 -3.5100
28947SOL     OW88847  10.463   5.850   1.920  0.1951 -0.1206 -0.6450
28947SOL    HW188848  10.482   5.942   1.905  0.4106  0.0435  0.5322
28947SOL    HW288849  10.393   5.850   1.985 -0.1560 -0.7910 -1.0053
28948SOL     OW88850   6.766   0.313   4.505  0.1862 -0.0245 -0.3909
28948SOL    HW188851   6.787   0.401   4.473  0.9596 -0.2044 -0.3836
28948SOL    HW288852   6.845   0.284   4.549 -0.0586 -0.7430 -0.4154
28949SOL     OW88853   7.148  10.141   0.727  0.3289 -0.2297 -0.0523
28949SOL    HW188854   7.104  10.094   0.656 -0.1176 -2.2535  1.4486
28949SOL    HW288855   7.228  10.091   0.744  1.0132  0.8917  0.1123
28950SOL     OW88856   6.615   9.665   8.324  0.0092  0.1667 -1.0278
28950SOL    HW188857   6.595   9.592   8.383  1.5734 -0.3705 -1.1187
28950SOL    HW288858   6.708   9.684   8.339 -0.0012  1.1715 -2.0658
28951SOL     OW88859   0.196   5.400   1.520 -0.0050 -0.0593 -0.1194
28951SOL    HW188860   0.153   5.483   1.540  0.6130  0.0237  0.9355
28951SOL    HW288861   0.285   5.412   1.551 -0.0778 -1.3394  0.6115
28952SOL     OW88862   3.170  10.921   0.673  0.3313 -0.1765 -0.5796
28952SOL    HW188863   3.185  10.995   0.614  0.7450  0.5142  0.3520
28952SOL    HW288864   3.096  10.949   0.728 -0.3259 -0.9843 -1.0465
28953SOL     OW88865   5.847   7.507   6.888 -0.0770  0.2903  0.1981
28953SOL    HW188866   5.904   7.538   6.818 -2.0452 -2.2168 -2.8039
28953SOL    HW288867   5.782   7.576   6.899  1.7315  1.8811  1.6076
28954SOL     OW88868   9.094   0.649   2.938  0.6191  0.1618 -0.5251
28954SOL    HW188869   9.145   0.631   2.859  0.1316 -0.5591 -0.6810
28954SOL    HW288870   9.034   0.575   2.945  0.3603  0.4434  0.2804
28955SOL     OW88871   3.499   0.062   7.950  0.3426  0.1050 -0.3883
28955SOL    HW188872   3.525   0.105   7.869  1.0499 -0.2412 -0.3498
28955SOL    HW288873   3.503   0.131   8.016 -1.6630  0.7555 -0.8816
28956SOL     OW88874   9.866   2.416   0.087  0.5765 -0.1051 -0.2276
28956SOL    HW188875   9.943   2.460   0.054  0.8157  0.1740  0.6749
28956SOL    HW288876   9.889   2.389   0.176 -0.2211 -0.3653 -0.0835
28957SOL     OW88877   9.954   9.207  10.483 -0.0643 -0.4562 -0.1090
28957SOL    HW188878  10.030   9.207  10.542 -1.5389 -1.8917  1.9437
28957SOL    HW288879   9.970   9.135  10.423  0.3089 -0.5822  0.1385
28958SOL     OW88880   2.708   1.973   4.611  0.8586 -0.0488  0.0722
28958SOL    HW188881   2.693   1.892   4.562 -0.5374 -0.0938  0.5311
28958SOL    HW288882   2.664   2.041   4.560  2.9060  0.6656 -0.8734
28959SOL     OW88883   8.362   2.396   1.455 -0.1242  0.1023 -0.5373
28959SOL    HW188884   8.398   2.442   1.379  2.7235 -0.8774  0.1307
28959SOL    HW288885   8.331   2.312   1.421 -0.6388  0.4238 -0.8879
28960SOL     OW88886   9.769   9.822  10.987 -0.4631 -0.5199 -0.0422
28960SOL    HW188887   9.747   9.773  10.908  0.4749 -0.8135 -0.1407
28960SOL    HW288888   9.794   9.755  11.050  3.0376 -0.1829 -0.8630
28961SOL     OW88889   5.108   7.048   7.188  0.0260 -0.4489  0.5078
28961SOL    HW188890   5.081   6.970   7.140 -1.7984  0.9478 -0.9228
28961SOL    HW288891   5.026   7.097   7.202  1.2161  1.7600  0.2287
28962SOL     OW88892   5.154   2.766  11.099  0.0487  0.3407 -0.2679
28962SOL    HW188893   5.112   2.845  11.065 -0.2620 -0.0471 -0.8056
28962SOL    HW288894   5.119   2.757  11.188  1.4024  1.7537  0.4643
28963SOL     OW88895   0.070   5.840   5.891  0.3281 -0.7166  0.4170
28963SOL    HW188896   0.113   5.910   5.842 -0.4219  0.2829  1.1233
28963SOL    HW288897  -0.003   5.884   5.935 -0.6551 -2.1127  0.2410
28964SOL     OW88898   7.488   8.978  10.572 -0.5812 -0.1737 -0.2325
28964SOL    HW188899   7.471   8.979  10.667 -3.0055  0.3244 -0.5927
28964SOL    HW288900   7.433   8.906  10.540  0.8585 -0.8729 -1.1890
28965SOL     OW88901   6.939   5.564   0.791 -0.1771  0.7396 -0.7927
28965SOL    HW188902   6.920   5.561   0.697 -2.2685 -1.2672 -0.3946
28965SOL    HW288903   6.899   5.646   0.821 -2.7116 -0.2822 -1.1284
28966SOL     OW88904   7.028   8.235   6.415 -0.4915 -0.2286 -0.2150
28966SOL    HW188905   7.094   8.192   6.362  0.8719  2.2336 -0.6645
28966SOL    HW288906   7.077   8.283   6.481 -1.8769  0.7591  0.1529
28967SOL     OW88907   4.693   2.273  10.863 -0.6073  0.1593  0.1532
28967SOL    HW188908   4.655   2.332  10.926 -1.5386 -0.0792 -0.1752
28967SOL    HW288909   4.750   2.328  10.809 -2.1909  0.9516 -0.7554
28968SOL     OW88910   7.441   3.335   4.965  0.1941 -0.0157 -0.2255
28968SOL    HW188911   7.372   3.325   4.899  1.0139  0.1715 -1.1252
28968SOL    HW288912   7.412   3.409   5.019 -2.5148 -2.5721  2.2242
28969SOL     OW88913   8.800   6.509   2.004  0.0777  0.4108  0.0980
28969SOL    HW188914   8.730   6.553   1.956  0.3307  0.9008  0.1664
28969SOL    HW288915   8.816   6.566   2.080  0.7666  0.4790 -0.0887
28970SOL     OW88916   6.139   9.665   5.487 -0.0435  0.0343  0.1853
28970SOL    HW188917   6.149   9.684   5.394  0.3885 -0.0033  0.2184
28970SOL    HW288918   6.224   9.689   5.525 -0.1441 -0.1535  0.5309
28971SOL     OW88919   5.191   1.400   0.510 -0.2822  0.3607 -0.0812
28971SOL    HW188920   5.225   1.373   0.425  1.1835  0.4273  0.4526
28971SOL    HW288921   5.132   1.473   0.490 -1.0073 -0.4912 -1.1395
28972SOL     OW88922   6.645   1.059   8.019 -0.1799  0.1758  0.6027
28972SOL    HW188923   6.552   1.080   8.014 -0.2002 -0.2065 -2.2112
28972SOL    HW288924   6.689   1.143   8.022 -0.5697  0.3861  0.4583
28973SOL     OW88925   7.375   0.558   5.346 -0.4875  0.4792 -0.2387
28973SOL    HW188926   7.344   0.635   5.393 -0.1597 -0.1488  1.0385
28973SOL    HW288927   7.317   0.487   5.373  0.9510 -0.3349  0.8565
28974SOL     OW88928   9.710   6.099   8.880  0.1345  0.4054  0.5375
28974SOL    HW188929   9.685   6.066   8.967  0.4429  0.9775  0.8505
28974SOL    HW288930   9.803   6.077   8.872 -0.2388 -0.9827 -0.2803
28975SOL     OW88931   9.193   3.636   8.912 -0.0991  0.0975 -0.0752
28975SOL    HW188932   9.285   3.648   8.937 -0.4667  0.9472  0.9448
28975SOL    HW288933   9.164   3.561   8.963  0.4060 -1.1357 -1.5212
28976SOL     OW88934   5.765   7.658   7.421  0.2586 -0.0472  0.1947
28976SOL    HW188935   5.687   7.608   7.446  0.7300  0.1684  2.2159
28976SOL    HW288936   5.730   7.742   7.392 -0.3315 -0.4273 -0.2457
28977SOL     OW88937   2.340   7.636   8.955 -0.4027  0.2183 -0.3342
28977SOL    HW188938   2.335   7.612   8.863  0.2977  0.9435 -0.5748
28977SOL    HW288939   2.249   7.647   8.982 -0.6308 -0.4810 -0.8029
28978SOL     OW88940   7.887   9.794   5.308  0.4595 -0.2034  0.2261
28978SOL    HW188941   7.952   9.851   5.347 -1.1374  2.7039 -1.0357
28978SOL    HW288942   7.924   9.769   5.223  1.0687 -0.9307  0.6920
28979SOL     OW88943   3.232   2.641   9.533  0.0343  0.1745  0.5355
28979SOL    HW188944   3.313   2.590   9.531 -0.4012 -0.5309  0.3317
28979SOL    HW288945   3.242   2.705   9.463  0.1254 -0.3828  0.0282
28980SOL     OW88946   2.638   5.254   9.957 -0.1556 -0.0129 -0.2525
28980SOL    HW188947   2.553   5.274   9.997 -0.0109 -0.6248  0.3798
28980SOL    HW288948   2.619   5.249   9.863 -0.8755 -0.3736 -0.1006
28981SOL     OW88949   1.105   3.579   1.180 -0.5197 -0.1948 -0.1272
28981SOL    HW188950   1.056   3.547   1.104 -1.0428 -0.7591  0.4445
28981SOL    HW288951   1.054   3.550   1.256 -0.5757  1.2848  0.4312
28982SOL     OW88952   6.054   8.001   2.464  0.1781 -0.4070  0.5111
28982SOL    HW188953   6.068   8.087   2.505  1.6952 -1.1255  1.6019
28982SOL    HW288954   6.141   7.972   2.438 -0.5241 -0.8765 -1.4654
28983SOL     OW88955   4.884  10.729   8.097  0.8532  0.0069 -0.2057
28983SOL    HW188956   4.888  10.636   8.123  0.1711  0.0256 -0.0226
28983SOL    HW288957   4.874  10.776   8.180  0.6988  0.2088 -0.3404
28984SOL     OW88958   0.023   3.605  10.818  0.8923 -0.1748  0.6060
28984SOL    HW188959   0.081   3.533  10.843  0.0831 -1.1813 -0.3477
28984SOL    HW288960   0.015   3.597  10.722  0.4721  0.9405  0.5361
28985SOL     OW88961   4.269   8.942   9.286 -0.0159  0.0971 -1.0238
28985SOL    HW188962   4.284   9.029   9.249 -0.6269 -0.2096 -2.0220
28985SOL    HW288963   4.198   8.905   9.234  1.0487 -1.4898 -1.4166
28986SOL     OW88964   7.364  10.485   8.509 -0.7961  0.4400 -0.4969
28986SOL    HW188965   7.310  10.436   8.572  0.8933 -1.5804 -0.5053
28986SOL    HW288966   7.435  10.522   8.562 -0.1661 -0.0516 -0.9918
28987SOL     OW88967  10.987   1.350   2.558 -0.4598  0.1984 -0.3165
28987SOL    HW188968  10.909   1.337   2.612 -0.3543 -0.6040 -0.3380
28987SOL    HW288969  11.018   1.261   2.540  0.9390  0.5275  0.3671
28988SOL     OW88970   8.547   8.867   3.434  0.4225 -0.0589 -0.2564
28988SOL    HW188971   8.621   8.918   3.467  0.9418 -0.6862 -0.4198
28988SOL    HW288972   8.585   8.813   3.365 -0.3082  0.0109 -0.7247
28989SOL     OW88973   5.821   0.258  10.601  0.1818  0.0411  0.2293
28989SOL    HW188974   5.913   0.247  10.624 -0.5404 -2.0524  2.4756
28989SOL    HW288975   5.822   0.273  10.506  2.8183  0.3677  0.2352
28990SOL     OW88976   5.358   0.193   4.094 -0.5295  0.8425 -0.0662
28990SOL    HW188977   5.447   0.198   4.061 -0.5653  1.1401 -0.1203
28990SOL    HW288978   5.368   0.178   4.188 -0.4098  1.7263  0.0725
28991SOL     OW88979   5.647  10.320   6.599 -0.2777 -0.4926 -0.1836
28991SOL    HW188980   5.603  10.403   6.586  0.4206  0.0123  0.5447
28991SOL    HW288981   5.652  10.310   6.694 -1.4320 -1.9659 -0.2405
28992SOL     OW88982   2.767   9.963   1.025 -0.0836 -0.3612 -0.1376
28992SOL    HW188983   2.691   9.908   1.008 -1.1059  1.2671 -0.9952
28992SOL    HW288984   2.832   9.935   0.960 -0.5943 -0.5426 -0.5726
28993SOL     OW88985   9.432  10.019   1.564 -0.0237  0.0319  0.7175
28993SOL    HW188986   9.429   9.958   1.638  1.2895 -0.5596  0.3033
28993SOL    HW288987   9.510   9.994   1.515  1.0474  2.5865  0.9933
28994SOL     OW88988   2.424   6.621   3.333 -0.4864  0.1628 -0.4381
28994SOL    HW188989   2.420   6.576   3.249 -0.1514 -1.3162  0.3050
28994SOL    HW288990   2.332   6.634   3.358 -0.5857  0.5932 -1.0138
28995SOL     OW88991   4.543   3.031   8.244 -0.0381 -0.0111 -0.7209
28995SOL    HW188992   4.562   2.952   8.294  0.4964  0.1047 -0.7273
28995SOL    HW288993   4.449   3.029   8.229 -0.0639 -0.5146 -0.5005
28996SOL     OW88994  10.647   6.124   2.674 -0.4163  0.3770  0.0741
28996SOL    HW188995  10.673   6.128   2.766  1.4906 -0.9813 -0.3493
28996SOL    HW288996  10.725   6.150   2.625 -0.3204 -2.0529 -1.2235
28997SOL     OW88997   7.593   3.657   3.407 -1.0520  0.0247 -0.8796
28997SOL    HW188998   7.567   3.569   3.434 -0.7720  0.3213  0.4227
28997SOL    HW288999   7.559   3.666   3.319 -1.2239 -1.3342 -0.9727
28998SOL     OW89000   1.178   3.544  11.065 -0.1855  0.0519 -0.6032
28998SOL    HW189001   1.212   3.477  11.124 -1.1593 -0.0526 -0.1438
28998SOL    HW289002   1.100   3.578  11.109 -0.8495  0.0814 -1.7577
28999SOL     OW89003   3.474   7.414   9.106  0.1300  0.4027 -0.1928
28999SOL    HW189004   3.427   7.486   9.149 -1.9660 -0.0737 -1.5419
28999SOL    HW289005   3.473   7.343   9.171  1.0211  1.1003  0.6268
29000SOL     OW89006  10.918  10.038   4.880  0.5298  0.1026 -0.3606
29000SOL    HW189007  10.888   9.957   4.838  0.6693 -0.2418  0.1999
29000SOL    HW289008  10.838  10.089   4.892  0.4866  0.2071 -1.0435
29001SOL     OW89009   2.933   8.247   9.925 -0.6053 -0.3915  0.0285
29001SOL    HW189010   2.980   8.216   9.848  0.7603 -1.4695  1.2459
29001SOL    HW289011   2.904   8.168   9.969 -2.5804  0.2354 -0.0530
29002SOL     OW89012   7.918   8.101   0.130  0.5962 -0.2269  0.2020
29002SOL    HW189013   7.955   8.046   0.062  2.3004  0.7381  0.2866
29002SOL    HW289014   7.980   8.173   0.139 -0.2740  0.3787  1.8398
29003SOL     OW89015   5.933   7.448   4.291 -0.0466 -0.3049 -0.2897
29003SOL    HW189016   5.891   7.501   4.222 -1.8757 -0.7911  0.3797
29003SOL    HW289017   5.876   7.460   4.367  1.7775 -0.0277  1.0722
29004SOL     OW89018  10.461   4.394   8.680  0.0161 -0.1729  0.2022
29004SOL    HW189019  10.453   4.461   8.748  0.1409 -0.6449  0.6873
29004SOL    HW289020  10.390   4.333   8.698  0.1223 -0.3676 -0.0226
29005SOL     OW89021   0.640   7.144   2.136 -0.5458  0.3904  0.2472
29005SOL    HW189022   0.624   7.226   2.089 -1.5227 -0.1130 -0.3309
29005SOL    HW289023   0.623   7.166   2.228 -2.1650  0.5176 -0.0534
29006SOL     OW89024   8.498   1.804   2.339 -0.4285 -0.0881 -0.3419
29006SOL    HW189025   8.498   1.724   2.286  0.3599 -0.1492 -0.2679
29006SOL    HW289026   8.562   1.861   2.296 -0.2767  0.1204  0.1569
29007SOL     OW89027   6.987   1.973   0.444 -0.1374 -0.0847  0.4797
29007SOL    HW189028   7.003   2.017   0.361 -1.1202 -0.3413  0.1376
29007SOL    HW289029   6.915   2.022   0.484 -1.4587 -1.4858 -0.0421
29008SOL     OW89030   9.633  10.878   0.968  0.0085  0.2596  0.5640
29008SOL    HW189031   9.593  10.807   1.017  2.3110 -1.9120 -0.4419
29008SOL    HW289032   9.587  10.878   0.884 -0.4515  0.4486  0.8117
29009SOL     OW89033   5.588   0.765   2.609 -0.2516  0.1729 -0.4191
29009SOL    HW189034   5.598   0.736   2.518 -0.4323  0.7142 -0.6175
29009SOL    HW289035   5.677   0.773   2.642 -0.2095 -2.2937  0.2001
29010SOL     OW89036   7.666   8.339   7.770  0.2996  0.5052  0.6874
29010SOL    HW189037   7.686   8.397   7.844  0.5684 -1.3609  2.1859
29010SOL    HW289038   7.745   8.287   7.758 -0.0251  0.2373 -0.4110
29011SOL     OW89039   2.612   9.338   1.406  0.4133 -0.5496 -0.0744
29011SOL    HW189040   2.700   9.348   1.442  0.1143  2.9557  0.0413
29011SOL    HW289041   2.558   9.315   1.481  0.7777  0.4195  0.5094
29012SOL     OW89042   0.381   4.213  11.059  0.4428  0.1718  0.6355
29012SOL    HW189043   0.429   4.283  11.015  0.0611  0.0187 -0.0328
29012SOL    HW289044   0.344   4.255  11.137 -0.8938  1.0690 -0.4328
29013SOL     OW89045  10.006   2.600   3.098  0.1273 -0.1627  0.2662
29013SOL    HW189046   9.921   2.605   3.053 -0.0489 -1.6736  0.3796
29013SOL    HW289047  10.061   2.549   3.038  1.2636  1.5377 -0.2131
29014SOL     OW89048   5.251  10.665   9.128 -0.8168 -0.0868  0.2000
29014SOL    HW189049   5.163  10.700   9.112 -0.6722  1.5349  2.4384
29014SOL    HW289050   5.309  10.740   9.114 -0.0683 -0.4545  1.2037
29015SOL     OW89051   4.160   3.471   7.668  0.0653 -0.2787  0.4055
29015SOL    HW189052   4.252   3.448   7.680  0.1107  0.0946  0.7931
29015SOL    HW289053   4.113   3.390   7.685  0.1846 -0.0017  2.2512
29016SOL     OW89054   7.220   6.057   1.615 -0.5562  0.0889  0.2144
29016SOL    HW189055   7.152   6.012   1.566 -1.1388  1.4196 -0.2376
29016SOL    HW289056   7.291   6.070   1.552  0.3770 -1.7170  0.8032
29017SOL     OW89057   7.110   9.131   6.434 -0.1842  0.4695 -0.0156
29017SOL    HW189058   7.068   9.173   6.360 -0.5858  1.9715  1.0195
29017SOL    HW289059   7.179   9.077   6.395 -0.4616  1.1273 -1.4726
29018SOL     OW89060   6.756  10.508   2.820 -0.6029  0.5716 -0.3189
29018SOL    HW189061   6.828  10.571   2.816  0.2004 -0.2677  0.3236
29018SOL    HW289062   6.754  10.469   2.732  1.4481 -1.1968  0.3351
29019SOL     OW89063   7.369   0.608   8.041 -0.7449  0.1211 -0.2810
29019SOL    HW189064   7.326   0.688   8.070 -0.2514  0.7535 -1.2615
29019SOL    HW289065   7.343   0.598   7.950  0.4048 -0.0134 -0.6094
29020SOL     OW89066   9.691   1.679   3.309  0.2555  0.2582  0.1319
29020SOL    HW189067   9.605   1.639   3.317  1.2303 -2.1554 -0.6349
29020SOL    HW289068   9.684   1.733   3.230 -1.0231  1.5238  1.0593
29021SOL     OW89069  10.609   7.135   8.656 -0.4866 -0.0583  0.1692
29021SOL    HW189070  10.661   7.103   8.583 -0.7256  0.7265 -0.3496
29021SOL    HW289071  10.672   7.180   8.713  0.1335 -2.5468  1.6341
29022SOL     OW89072   1.624   8.561   0.882 -0.0458  0.0044 -0.2816
29022SOL    HW189073   1.646   8.654   0.884 -0.2403  0.0441  0.6197
29022SOL    HW289074   1.608   8.539   0.974 -1.8558 -0.4687 -0.6884
29023SOL     OW89075   0.881   4.692  10.427 -0.1614 -0.0941 -0.1235
29023SOL    HW189076   0.945   4.763  10.436  0.1307 -0.1036 -1.7797
29023SOL    HW289077   0.903   4.651  10.343 -0.6148 -1.8704  0.6018
29024SOL     OW89078   6.407   4.754   7.494 -0.7012  0.3226 -0.2144
29024SOL    HW189079   6.417   4.757   7.399 -0.3059 -1.4674 -0.2698
29024SOL    HW289080   6.315   4.777   7.509 -0.7680  0.5997 -1.0248
29025SOL     OW89081   0.117   0.870   6.029 -0.1062  0.0030 -0.0609
29025SOL    HW189082   0.044   0.846   5.972  0.7200 -0.7170 -0.8336
29025SOL    HW289083   0.157   0.946   5.987 -0.4085  0.4132  0.3763
29026SOL     OW89084   6.391   4.226   2.580  0.3740 -0.1394  0.5052
29026SOL    HW189085   6.373   4.152   2.639 -3.3660  0.9818  1.0678
29026SOL    HW289086   6.461   4.275   2.623  0.2614 -1.3089  2.1042
29027SOL     OW89087   3.387   0.936   6.869 -0.0004 -0.0517  0.0533
29027SOL    HW189088   3.425   0.849   6.863 -0.4354 -0.3458  1.2570
29027SOL    HW289089   3.460   0.993   6.894  0.1088 -0.2193  0.1164
29028SOL     OW89090   8.464  10.310   2.425 -0.0811  0.2016  0.0322
29028SOL    HW189091   8.485  10.217   2.436 -2.5777 -0.4269  0.1270
29028SOL    HW289092   8.505  10.334   2.342 -1.1897 -1.6354 -1.1363
29029SOL     OW89093   4.677   1.364   6.793  0.7702 -0.7367  0.3536
29029SOL    HW189094   4.713   1.279   6.818  0.9447 -0.8647 -0.3222
29029SOL    HW289095   4.742   1.427   6.825  1.8068 -0.9824 -1.1447
29030SOL     OW89096   4.145   0.672  11.075 -0.3323 -0.5201  0.1546
29030SOL    HW189097   4.211   0.722  11.027  0.1612 -0.0393  1.2941
29030SOL    HW289098   4.061   0.708  11.045  0.0077  1.1276  1.0378
29031SOL     OW89099   7.194   3.569   0.373  0.2516 -0.2722 -0.1256
29031SOL    HW189100   7.249   3.544   0.299 -0.8081  1.0954 -1.4588
29031SOL    HW289101   7.253   3.570   0.448  2.8731  3.7768 -1.8690
29032SOL     OW89102   8.911   9.006   9.556 -0.2701 -0.4363 -0.1515
29032SOL    HW189103   8.846   9.000   9.626  0.4160  0.3499  0.5697
29032SOL    HW289104   8.878   8.947   9.488 -2.3607  0.7618 -0.2951
29033SOL     OW89105   8.100   2.381   1.990 -0.7363 -0.2028  0.1483
29033SOL    HW189106   8.179   2.393   2.043 -0.3899  0.6799 -0.5283
29033SOL    HW289107   8.057   2.467   1.993 -1.2836 -0.4677 -0.0964
29034SOL     OW89108   2.053   8.122  10.742  0.1902  0.1379  0.0746
29034SOL    HW189109   2.058   8.218  10.740  1.7280  0.0719  0.0439
29034SOL    HW289110   2.007   8.099  10.662  0.9865  0.7966 -0.5821
29035SOL     OW89111  10.115   9.493   7.938 -0.7761 -0.9254  0.3610
29035SOL    HW189112  10.087   9.583   7.919 -1.9198 -1.2441  0.4673
29035SOL    HW289113  10.062   9.439   7.879 -0.7277 -1.5835  0.9191
29036SOL     OW89114  10.008   9.477   6.592 -0.3072  0.2516 -0.3458
29036SOL    HW189115  10.096   9.449   6.617  0.0152  0.9295 -0.6838
29036SOL    HW289116   9.953   9.400   6.607  0.4936 -0.4624 -0.9850
29037SOL     OW89117   3.971   2.696  10.457 -0.2237 -0.1937  0.6414
29037SOL    HW189118   3.966   2.695  10.553 -1.6306 -0.5445  0.5829
29037SOL    HW289119   3.896   2.748  10.429  0.2387  0.0090 -0.2763
29038SOL     OW89120   5.104   5.822   8.649  0.3121  0.0322  0.9990
29038SOL    HW189121   5.085   5.861   8.734  1.8417  0.1080  1.3219
29038SOL    HW289122   5.194   5.791   8.656  0.4014 -0.1204 -0.5409
29039SOL     OW89123   7.161  11.022  10.395  0.3351  0.7571  0.4344
29039SOL    HW189124   7.138  11.006  10.304  0.6309  1.2721  0.2599
29039SOL    HW289125   7.104  11.095  10.421  0.8843  1.2178  0.3729
29040SOL     OW89126   9.386   6.786   2.815  0.3331  0.2125 -0.1534
29040SOL    HW189127   9.415   6.833   2.893  0.3402  1.8009 -1.0578
29040SOL    HW289128   9.466   6.769   2.765  0.0686  2.2413 -1.3875
29041SOL     OW89129   4.382  10.293   3.933 -0.2331 -0.2948  0.2693
29041SOL    HW189130   4.446  10.301   3.863  2.0555  1.2632  2.3293
29041SOL    HW289131   4.434  10.294   4.013 -2.7062 -1.7041  2.0446
29042SOL     OW89132   9.372   8.944   6.755  0.1924  0.3507 -0.0350
29042SOL    HW189133   9.433   8.960   6.827  0.5244 -1.2060  0.0589
29042SOL    HW289134   9.293   8.910   6.797  0.2482 -0.2074 -0.3815
29043SOL     OW89135   2.562  10.159   6.131  0.1885  0.2337 -0.3509
29043SOL    HW189136   2.506  10.229   6.165 -0.5547  0.4393 -1.9222
29043SOL    HW289137   2.504  10.084   6.124  0.4583  0.0526 -0.6491
29044SOL     OW89138   0.512   8.491   2.648  0.0611  0.2701  0.1138
29044SOL    HW189139   0.603   8.521   2.642  0.8064 -2.0893 -1.6211
29044SOL    HW289140   0.507   8.447   2.733  1.5401 -2.3771 -1.0690
29045SOL     OW89141   7.116   6.276   0.106  0.2755 -0.3964 -0.1673
29045SOL    HW189142   7.156   6.303   0.023  0.8601  1.3683  0.6400
29045SOL    HW289143   7.139   6.184   0.115  0.1218 -0.6536 -1.9994
29046SOL     OW89144   4.811   0.496   0.999 -0.0440  0.2535 -0.0433
29046SOL    HW189145   4.808   0.423   1.062 -1.5629  1.2055  1.0500
29046SOL    HW289146   4.784   0.457   0.916  1.0355 -0.8236  0.0858
29047SOL     OW89147   8.979   1.413   1.962  0.1985 -0.4795  0.2782
29047SOL    HW189148   8.903   1.458   2.000 -0.1020 -0.0527 -0.7970
29047SOL    HW289149   8.946   1.376   1.880  0.8622 -1.2960  0.3702
29048SOL     OW89150   2.333   1.348   0.121 -0.0321  0.2461  0.2412
29048SOL    HW189151   2.341   1.395   0.038  0.4813  1.4449  0.9332
29048SOL    HW289152   2.351   1.415   0.187  2.0346 -1.1896  1.2378
29049SOL     OW89153   6.303   9.783   1.957  0.2117 -0.2868  0.2453
29049SOL    HW189154   6.313   9.876   1.977 -0.9765 -0.1166  0.0979
29049SOL    HW289155   6.380   9.741   1.996  0.8993  0.7863  0.0691
29050SOL     OW89156   6.927   4.327   8.661  0.1487 -0.7156  0.1767
29050SOL    HW189157   7.012   4.371   8.665 -0.4136  0.5999 -1.3022
29050SOL    HW289158   6.915   4.306   8.568 -1.6245  0.1667  0.1641
29051SOL     OW89159   9.710   8.114  10.794  0.1556  0.4248  0.1080
29051SOL    HW189160   9.738   8.098  10.884  1.3304 -0.2111 -0.3544
29051SOL    HW289161   9.675   8.029  10.765  1.2875  0.1703 -0.5505
29052SOL     OW89162   8.570   8.850   6.599  0.0496  0.3984  0.3804
29052SOL    HW189163   8.652   8.898   6.593 -0.4820  1.2545 -0.3203
29052SOL    HW289164   8.505   8.916   6.625 -0.7499  0.1356 -0.8770
29053SOL     OW89165   4.718   9.961   4.102 -0.4827  0.7861  0.4496
29053SOL    HW189166   4.769   9.882   4.121  1.6715  1.7847 -0.8553
29053SOL    HW289167   4.708  10.004   4.187 -0.9530 -0.4358  1.0394
29054SOL     OW89168   8.316   2.128  10.564 -0.1059 -0.0278 -0.2212
29054SOL    HW189169   8.310   2.224  10.556 -1.3627  0.1559  2.0203
29054SOL    HW289170   8.282   2.095  10.481 -0.9784  1.4616 -0.5014
29055SOL     OW89171  10.151  10.432   4.879  0.1878  0.0983 -0.0796
29055SOL    HW189172  10.175  10.341   4.865 -2.5444 -1.0476  1.6857
29055SOL    HW289173  10.083  10.449   4.814  0.3512  0.7371 -0.0930
29056SOL     OW89174   0.528   5.981   2.514 -0.1768  0.1513 -0.0385
29056SOL    HW189175   0.570   6.053   2.467 -1.3832  1.2014  0.4192
29056SOL    HW289176   0.599   5.921   2.534  0.6076  0.4143 -1.8426
29057SOL     OW89177   5.090   3.404   3.636 -0.1117  0.5395 -0.7572
29057SOL    HW189178   5.104   3.321   3.682 -0.6274  1.1160  0.4930
29057SOL    HW289179   5.173   3.420   3.591  0.6007  0.1649  0.3555
29058SOL     OW89180   2.623   2.958   6.207 -0.0855 -0.7032  0.1350
29058SOL    HW189181   2.694   2.931   6.149 -0.6202 -0.6857 -0.5375
29058SOL    HW289182   2.648   2.922   6.293  1.0338 -0.1697  0.0497
29059SOL     OW89183  10.481   7.376   4.090 -0.4024 -0.2398 -0.5238
29059SOL    HW189184  10.446   7.381   4.179 -0.1201 -0.7209 -0.3870
29059SOL    HW289185  10.576   7.378   4.100 -0.3161  3.1867 -1.0101
29060SOL     OW89186   8.611  10.116   1.875 -0.3025 -0.3222 -0.4370
29060SOL    HW189187   8.528  10.107   1.922 -0.1142  0.9606  0.2034
29060SOL    HW289188   8.616  10.210   1.855 -0.6478 -0.8782 -3.5713
29061SOL     OW89189  10.692   0.707   4.080 -0.0052 -0.5764  0.6372
29061SOL    HW189190  10.731   0.675   3.999 -2.2445 -0.1962 -0.6985
29061SOL    HW289191  10.654   0.791   4.056 -1.4597 -0.8491  1.8420
29062SOL     OW89192   1.774   5.612   5.502 -0.4409 -0.0620  0.0381
29062SOL    HW189193   1.685   5.630   5.473 -0.0939  0.1174 -0.9425
29062SOL    HW289194   1.811   5.699   5.521 -0.3362 -0.1050  0.0326
29063SOL     OW89195   6.174   3.553   8.836  0.0401  0.9128  0.0166
29063SOL    HW189196   6.179   3.459   8.852 -0.2466  1.0618  1.0314
29063SOL    HW289197   6.260   3.586   8.860  0.3166  0.8445 -0.8523
29064SOL     OW89198   7.840   1.237   1.629 -0.2871  0.1320  0.4231
29064SOL    HW189199   7.890   1.313   1.598 -1.5808  1.3417  1.2375
29064SOL    HW289200   7.906   1.181   1.671  1.5075 -1.3618 -3.7309
29065SOL     OW89201   1.997   9.856   4.012  0.4500  0.6489  0.0720
29065SOL    HW189202   1.931   9.874   4.079  0.2186  1.3505 -0.3296
29065SOL    HW289203   1.946   9.848   3.931  0.7972  0.5919 -0.1397
29066SOL     OW89204   7.513   2.250   9.542  0.0031 -0.4990  0.0098
29066SOL    HW189205   7.454   2.207   9.480  0.2820  0.3079 -0.8428
29066SOL    HW289206   7.596   2.255   9.496  0.5281 -0.8892  0.8945
29067SOL     OW89207   1.035   0.902   0.750  0.1232 -0.5412 -0.8074
29067SOL    HW189208   1.000   0.988   0.728  2.2035  1.6735  3.4441
29067SOL    HW289209   1.011   0.889   0.842  4.1389 -2.1025  0.2068
29068SOL     OW89210   6.153   1.514   5.138 -0.2365 -0.2979 -0.0740
29068SOL    HW189211   6.230   1.464   5.165 -0.5999 -0.7956  0.0569
29068SOL    HW289212   6.132   1.481   5.050  0.2121  0.4539 -0.4788
29069SOL     OW89213   9.500   5.038   0.587  0.8486  0.0224  0.2576
29069SOL    HW189214   9.443   5.107   0.552 -1.0299 -0.4467  2.1692
29069SOL    HW289215   9.552   5.082   0.654  1.2384  0.0041 -0.0275
29070SOL     OW89216   7.987   8.342   1.794 -0.1707  0.3218 -0.4183
29070SOL    HW189217   7.931   8.284   1.846 -1.6397 -1.8528 -4.0240
29070SOL    HW289218   7.951   8.429   1.809 -2.2064 -0.5584  0.2675
29071SOL     OW89219   0.424   2.808   6.944  0.2981 -0.1829 -0.5520
29071SOL    HW189220   0.429   2.754   6.865  1.4790  0.1409 -0.7104
29071SOL    HW289221   0.473   2.759   7.010  0.1749  0.0361 -0.2937
29072SOL     OW89222   9.776   9.314   0.475  0.3202 -0.8671 -0.0316
29072SOL    HW189223   9.826   9.383   0.431  0.9376 -2.0967 -1.3347
29072SOL    HW289224   9.839   9.244   0.489 -0.5083 -1.5432  0.4274
29073SOL     OW89225   6.794   9.705   0.310 -0.2052 -0.3017  0.5992
29073SOL    HW189226   6.813   9.612   0.299 -1.1254 -0.4014 -0.2416
29073SOL    HW289227   6.699   9.711   0.311 -0.1604  0.6701  0.2375
29074SOL     OW89228   8.153  10.742   7.177 -0.2456  0.3420 -0.2718
29074SOL    HW189229   8.182  10.822   7.220 -2.9804  0.0952  2.4325
29074SOL    HW289230   8.207  10.673   7.216 -1.4480  0.3473  1.5279
29075SOL     OW89231   2.638  10.893   6.651 -0.1487 -0.4713 -0.1376
29075SOL    HW189232   2.647  10.913   6.558  1.2049 -2.7375 -0.5698
29075SOL    HW289233   2.629  10.979   6.693  0.7406  0.7100 -2.2063
29076SOL     OW89234   8.448   1.828   8.635 -0.4091 -0.3809  0.0867
29076SOL    HW189235   8.392   1.800   8.563 -0.4802 -2.1578  0.7740
29076SOL    HW289236   8.409   1.909   8.667 -1.1978 -0.3394 -0.9414
29077SOL     OW89237   4.881   3.338  11.084 -0.4766 -0.0113 -0.1570
29077SOL    HW189238   4.884   3.319  10.991 -0.1423  1.2217 -0.4210
29077SOL    HW289239   4.936   3.271  11.124 -2.6226 -2.1076 -0.5218
29078SOL     OW89240   9.129   4.890   2.913 -0.2940  0.3316  0.0699
29078SOL    HW189241   9.180   4.948   2.856  0.7735 -1.4578 -0.8798
29078SOL    HW289242   9.153   4.917   3.002  1.2356  0.4583 -0.3512
29079SOL     OW89243   0.636   8.822   4.421 -0.0696 -0.4484 -0.1871
29079SOL    HW189244   0.643   8.883   4.348  1.3756  3.0073  2.5203
29079SOL    HW289245   0.726   8.816   4.455 -1.0509  0.4279  2.8807
29080SOL     OW89246   0.922   8.037  10.140  0.0679 -0.2144  0.5335
29080SOL    HW189247   0.868   7.958  10.143 -1.5517  0.7567 -0.9805
29080SOL    HW289248   0.875   8.100  10.195  0.3702  0.2412  0.2768
29081SOL     OW89249   7.773  10.911   9.161 -0.1290  0.3324 -0.1454
29081SOL    HW189250   7.761  10.934   9.069 -0.3893 -0.5794 -0.3542
29081SOL    HW289251   7.684  10.894   9.193  0.0044  0.1120  0.1182
29082SOL     OW89252   7.436   1.668  11.028 -0.4264 -0.3242 -0.1156
29082SOL    HW189253   7.493   1.744  11.016  0.6090 -0.7829  1.5170
29082SOL    HW289254   7.401   1.679  11.117 -2.6867 -0.2220 -0.9614
29083SOL     OW89255   4.344   6.863   0.907 -0.0232  0.2656 -0.2941
29083SOL    HW189256   4.428   6.837   0.868 -0.8413 -0.0059 -1.9349
29083SOL    HW289257   4.284   6.793   0.883 -0.9767  0.9848 -0.0422
29084SOL     OW89258   4.466   1.663   5.946  0.1440 -0.3873  0.2463
29084SOL    HW189259   4.501   1.675   6.034 -0.1327  2.0285  0.0919
29084SOL    HW289260   4.542   1.671   5.888  0.1653 -0.8612  0.2078
29085SOL     OW89261   6.947   5.552   4.318  0.4354  0.5976 -0.6258
29085SOL    HW189262   6.990   5.606   4.385  1.9585 -0.2816 -0.8383
29085SOL    HW289263   6.958   5.601   4.237 -0.1727  1.0125 -0.4587
29086SOL     OW89264   4.710   0.694  10.876  0.0097  0.1494  0.2233
29086SOL    HW189265   4.747   0.779  10.899 -1.5006  1.2030 -1.0222
29086SOL    HW289266   4.773   0.656  10.815  1.8116 -0.6972  2.4735
29087SOL     OW89267   9.044   3.179   9.303  0.4180 -0.2223 -0.5059
29087SOL    HW189268   8.989   3.256   9.292  0.9193 -0.1517 -3.4771
29087SOL    HW289269   9.097   3.197   9.380 -0.2145  1.9425 -0.5145
29088SOL     OW89270   5.919   3.050   0.474 -0.3568  0.3375 -0.1474
29088SOL    HW189271   5.946   3.141   0.465  0.1144  0.2328  0.1861
29088SOL    HW289272   5.961   3.020   0.554 -0.4970 -0.1813 -0.2638
29089SOL     OW89273   3.884   7.051   4.503 -0.6608 -0.4432 -0.1787
29089SOL    HW189274   3.799   7.043   4.545  0.1775 -1.4650  1.3946
29089SOL    HW289275   3.947   7.032   4.572  0.8669  0.5528 -1.2479
29090SOL     OW89276   8.857   0.205   4.417 -0.5402  0.3513 -0.4119
29090SOL    HW189277   8.841   0.166   4.502 -0.5308  0.0919 -0.5287
29090SOL    HW289278   8.782   0.180   4.364 -1.1073  1.4471 -0.1661
29091SOL     OW89279   9.386   9.866   1.864  0.4755  0.3886 -0.0149
29091SOL    HW189280   9.351   9.828   1.945 -2.1187  0.2295 -1.1225
29091SOL    HW289281   9.401   9.958   1.886 -0.7482  0.4892  0.5313
29092SOL     OW89282  10.703   6.654   7.734  0.3894  0.1905 -0.7509
29092SOL    HW189283  10.781   6.698   7.700  0.4430  0.3138 -0.4659
29092SOL    HW289284  10.665   6.716   7.796  0.6767 -0.3154 -0.0611
29093SOL     OW89285   1.236   3.075  10.621  0.5162  0.4522  0.4543
29093SOL    HW189286   1.180   3.137  10.575  2.6357  2.6367  0.6376
29093SOL    HW289287   1.194   3.063  10.706 -1.7577 -1.1870 -0.7951
29094SOL     OW89288   6.691   2.319   4.667 -0.0496  0.2466  0.6151
29094SOL    HW189289   6.694   2.294   4.574 -1.8549  0.2169  0.5298
29094SOL    HW289290   6.678   2.413   4.666 -0.5893  0.1785  0.8161
29095SOL     OW89291   9.419   2.268   3.097 -0.0663 -0.0684  0.1106
29095SOL    HW189292   9.380   2.283   3.011  0.6362 -0.1260 -0.2277
29095SOL    HW289293   9.463   2.350   3.118  0.7767 -0.4316 -0.1439
29096SOL     OW89294  10.762   0.636   1.214  0.7609  0.1478 -0.1012
29096SOL    HW189295  10.856   0.619   1.209  0.8126  0.5904 -0.7964
29096SOL    HW289296  10.732   0.627   1.123  0.0916 -0.2190  0.1568
29097SOL     OW89297  10.086   4.128   5.143  0.0604 -0.7269  0.2852
29097SOL    HW189298  10.083   4.120   5.239 -1.0008 -1.4816  0.2062
29097SOL    HW289299  10.161   4.075   5.117  0.0463 -0.9359  0.6590
29098SOL     OW89300   4.484   3.317   3.321 -0.1733 -0.1418  0.0007
29098SOL    HW189301   4.390   3.327   3.310 -0.1563  0.9308  0.7051
29098SOL    HW289302   4.496   3.223   3.337 -0.7911 -0.7725 -2.8233
29099SOL     OW89303  10.170   2.588   2.174 -0.3263 -0.3232  0.0642
29099SOL    HW189304  10.176   2.539   2.093 -0.1060  0.8887 -0.6806
29099SOL    HW289305  10.094   2.552   2.219 -1.5672  0.1963 -1.5246
29100SOL     OW89306   9.881   8.315   2.157  0.7192 -0.4503  0.6681
29100SOL    HW189307   9.883   8.334   2.251 -1.2014  0.9305  0.5039
29100SOL    HW289308   9.820   8.241   2.149  0.8736 -0.5611  0.4974
29101SOL     OW89309   9.191  10.547   1.683 -0.6188 -0.1607 -0.1809
29101SOL    HW189310   9.097  10.557   1.666 -1.1367 -0.7594  1.9796
29101SOL    HW289311   9.227  10.515   1.601 -1.6709  3.2100 -2.1659
29102SOL     OW89312   8.208  10.913   5.774  0.1094 -0.7153  0.2623
29102SOL    HW189313   8.230  10.836   5.827  0.2764  0.7541  2.4464
29102SOL    HW289314   8.216  10.987   5.834  0.0430  1.0538 -1.7791
29103SOL     OW89315   1.165   7.000   9.133  0.0411  0.4079  0.0831
29103SOL    HW189316   1.187   6.929   9.072  0.6005  0.8937 -0.2838
29103SOL    HW289317   1.079   6.975   9.167 -0.9274  0.7930 -1.9327
29104SOL     OW89318   0.148   1.447   2.619  0.0295 -0.4658 -0.0384
29104SOL    HW189319   0.058   1.412   2.617 -0.0532 -0.2201 -0.7379
29104SOL    HW289320   0.199   1.378   2.662 -0.5002 -0.5941  0.3924
29105SOL     OW89321   7.207   0.900  11.084  0.6054  0.0247 -0.0553
29105SOL    HW189322   7.154   0.861  11.015  1.2551 -0.7602 -0.1265
29105SOL    HW289323   7.156   0.976  11.113 -0.0941 -0.1507 -0.7740
29106SOL     OW89324   8.482   1.218   0.804 -0.5446  0.0288 -0.2167
29106SOL    HW189325   8.487   1.211   0.709  0.4410  0.2071 -0.1907
29106SOL    HW289326   8.572   1.207   0.833 -0.8164  0.1376  0.6862
29107SOL     OW89327   4.458   0.713   9.525 -0.2542  0.6780 -0.2873
29107SOL    HW189328   4.393   0.698   9.594 -1.5124  1.0124 -1.3645
29107SOL    HW289329   4.503   0.793   9.552 -0.0653  0.2848  0.6194
29108SOL     OW89330   6.166   7.116   1.541 -0.1728 -0.4086 -0.6132
29108SOL    HW189331   6.206   7.147   1.460 -0.1903 -1.8560 -1.1977
29108SOL    HW289332   6.118   7.191   1.574  0.2817  0.3637 -1.6550
29109SOL     OW89333   7.470   8.088   8.204  0.3930 -0.0458  0.0552
29109SOL    HW189334   7.492   8.054   8.118 -3.2300 -1.3948 -0.4933
29109SOL    HW289335   7.384   8.128   8.193  1.3954  3.1417  2.3005
29110SOL     OW89336   6.206   0.832   8.268  0.7246 -0.0048 -0.7076
29110SOL    HW189337   6.203   0.745   8.228 -1.3401 -0.6079  0.5495
29110SOL    HW289338   6.230   0.815   8.359 -2.0323  0.3620  0.1876
29111SOL     OW89339   9.947   8.702   2.263 -0.0687 -0.7672  1.1193
29111SOL    HW189340   9.901   8.656   2.193 -0.8082  1.6195 -0.0744
29111SOL    HW289341  10.036   8.665   2.262  0.5030  0.3589 -2.3495
29112SOL     OW89342  10.328   3.413  10.827  0.3620 -0.1880  0.1711
29112SOL    HW189343  10.283   3.332  10.852  0.9189 -0.7745 -0.6955
29112SOL    HW289344  10.328   3.466  10.907 -0.3397 -0.8837  0.6431
29113SOL     OW89345  10.681   0.616   0.342  0.1958 -0.5001  0.0893
29113SOL    HW189346  10.697   0.662   0.259  1.6044 -0.0783  0.5672
29113SOL    HW289347  10.702   0.524   0.322 -0.2829 -0.5381 -0.2406
29114SOL     OW89348   0.570  10.590   2.818  0.2460  0.1948  0.3004
29114SOL    HW189349   0.587  10.643   2.896  1.2263 -1.5196  1.3199
29114SOL    HW289350   0.605  10.503   2.839 -3.1316 -1.5355 -0.4489
29115SOL     OW89351   2.569   8.886   9.712 -0.6353 -0.9315  0.7603
29115SOL    HW189352   2.604   8.853   9.630 -1.5564  1.2975 -0.6267
29115SOL    HW289353   2.625   8.849   9.779  1.9402 -0.5763 -1.0646
29116SOL     OW89354   8.136   1.697   0.143  0.0766 -0.2497  0.2109
29116SOL    HW189355   8.051   1.698   0.099 -0.1961  1.0963  0.7301
29116SOL    HW289356   8.117   1.663   0.230  0.1026 -0.1261  0.2647
29117SOL     OW89357   5.892   1.871   3.105  0.1235  0.0166  0.6850
29117SOL    HW189358   5.946   1.803   3.064 -0.2278  1.1790 -1.9194
29117SOL    HW289359   5.946   1.950   3.100 -0.9875  0.7592 -0.0550
29118SOL     OW89360   1.871   0.391   8.114 -0.5391  0.1550  0.1361
29118SOL    HW189361   1.802   0.356   8.057 -3.1072  1.8862  1.9184
29118SOL    HW289362   1.863   0.340   8.195 -1.1367  1.6606  1.0612
29119SOL     OW89363   2.261   7.730   1.189  0.3352  0.0619  0.4269
29119SOL    HW189364   2.189   7.671   1.169  0.7496 -0.1122 -0.5979
29119SOL    HW289365   2.286   7.708   1.279 -0.7108 -0.0441  0.7021
29120SOL     OW89366   5.130   9.426   6.355  0.0231 -0.4338  0.4682
29120SOL    HW189367   5.109   9.477   6.277  0.7297 -0.3824  0.3072
29120SOL    HW289368   5.048   9.421   6.403 -1.1493 -2.7226 -1.5508
29121SOL     OW89369   0.036   3.789   2.149 -0.0177  0.2787  0.6785
29121SOL    HW189370   0.034   3.773   2.055 -1.9993 -0.9674  0.8735
29121SOL    HW289371   0.025   3.884   2.158 -1.6347  0.2161 -0.3433
29122SOL     OW89372   9.931   1.295   6.851  0.0600 -0.3015  0.0300
29122SOL    HW189373   9.954   1.202   6.845  0.4044 -0.1159 -2.3486
29122SOL    HW289374   9.839   1.298   6.827  0.3500  0.0847 -1.0529
29123SOL     OW89375   3.650   4.735   1.932 -0.3302  0.2196  0.2568
29123SOL    HW189376   3.683   4.728   1.842 -1.1923  0.5856 -0.1034
29123SOL    HW289377   3.583   4.667   1.938 -2.1992  1.9259 -0.2865
29124SOL     OW89378   7.425   6.401   8.362 -0.5422  0.1186  0.1407
29124SOL    HW189379   7.422   6.496   8.369 -1.2677  0.1191 -0.1143
29124SOL    HW289380   7.468   6.372   8.443  0.4236  0.6969 -0.1467
29125SOL     OW89381   8.669   9.693   4.815  0.4622  0.0661  0.9669
29125SOL    HW189382   8.748   9.742   4.838  0.5927 -0.4324  1.6079
29125SOL    HW289383   8.655   9.711   4.722  0.0370  1.9967  1.3495
29126SOL     OW89384  10.591   2.786   9.164  0.0429  0.0663  0.0479
29126SOL    HW189385  10.516   2.829   9.204  0.4353  0.9138 -0.1182
29126SOL    HW289386  10.666   2.817   9.214  0.2757 -0.9371  0.3452
29127SOL     OW89387   8.360   1.825   1.198 -0.1061  0.1242  0.3859
29127SOL    HW189388   8.379   1.848   1.107 -1.2368 -0.5713 -0.0371
29127SOL    HW289389   8.310   1.900   1.231 -1.6203 -0.5736 -0.2466
29128SOL     OW89390   9.024   9.558   4.747  0.9847 -0.1443 -0.7864
29128SOL    HW189391   8.973   9.535   4.825 -0.6154  0.2154 -1.6842
29128SOL    HW289392   8.962   9.548   4.675  1.9438  1.2127 -1.8280
29129SOL     OW89393   4.769   9.442   4.781  0.3089  0.1584 -0.3240
29129SOL    HW189394   4.697   9.478   4.831  0.7390  0.8434 -0.1820
29129SOL    HW289395   4.731   9.419   4.697 -0.3444 -0.6774  0.1836
29130SOL     OW89396   5.164   1.964   0.699 -0.0529  0.1088  0.0738
29130SOL    HW189397   5.210   1.881   0.701 -0.9637 -0.4850 -1.3782
29130SOL    HW289398   5.078   1.945   0.736 -0.1653  0.4603  0.0025
29131SOL     OW89399  10.701   9.383   4.133  0.0788  0.4661 -0.2056
29131SOL    HW189400  10.619   9.342   4.105 -0.0674  0.2358  0.5194
29131SOL    HW289401  10.768   9.340   4.080 -0.3098  1.0313 -1.1873
29132SOL     OW89402  10.582   5.853   6.689  0.0472 -0.4105  0.0093
29132SOL    HW189403  10.653   5.894   6.641  0.6505  0.0517  1.2513
29132SOL    HW289404  10.589   5.888   6.778 -0.6376 -1.7068  0.6138
29133SOL     OW89405   5.418   3.294   0.528 -0.2211 -0.2547 -0.2223
29133SOL    HW189406   5.369   3.307   0.447  0.4951 -1.6190 -0.9051
29133SOL    HW289407   5.497   3.249   0.501  0.3629 -0.1012  1.1605
29134SOL     OW89408   2.934   5.042   4.229 -0.1179  0.2669  1.0429
29134SOL    HW189409   3.020   5.002   4.246 -0.2292 -0.2003  0.5428
29134SOL    HW289410   2.949   5.136   4.240  1.2170  0.5038 -1.9391
29135SOL     OW89411   0.445   0.778   5.566 -0.0960 -0.3130  0.1172
29135SOL    HW189412   0.359   0.735   5.565  0.1195 -0.7861 -1.7705
29135SOL    HW289413   0.425   0.870   5.553 -0.3148 -0.5246 -1.2289
29136SOL     OW89414   8.974   1.273   9.147 -0.4318  0.1031  0.9383
29136SOL    HW189415   8.889   1.255   9.106  0.6050 -0.8080 -0.8662
29136SOL    HW289416   9.018   1.189   9.152  1.1468  0.8409  0.0782
29137SOL     OW89417   2.898   9.010   9.924  0.1815  0.0271  0.3465
29137SOL    HW189418   2.823   8.952   9.917  0.5811 -0.3064 -1.8872
29137SOL    HW289419   2.967   8.956   9.963  0.1712 -0.6152 -0.5159
29138SOL     OW89420   5.286   8.390   4.124  0.4627 -0.3076 -0.0984
29138SOL    HW189421   5.252   8.311   4.083 -2.9085  1.6913 -1.5704
29138SOL    HW289422   5.268   8.460   4.060  1.6982  1.9302  1.8207
29139SOL     OW89423   0.460  10.956   0.459 -0.3541  0.2829 -0.6083
29139SOL    HW189424   0.552  10.970   0.480 -0.3818 -0.2067 -0.1260
29139SOL    HW289425   0.460  10.933   0.366  0.3394 -2.4833 -0.0167
29140SOL     OW89426   8.098  11.062  10.339 -0.1714  0.0852  0.1611
29140SOL    HW189427   8.071  10.992  10.399 -0.4625 -0.2448 -0.3508
29140SOL    HW289428   8.136  11.128  10.396 -1.0977  0.0879  0.7900
29141SOL     OW89429   2.449   0.502  10.977  0.6658 -0.4527  0.9347
29141SOL    HW189430   2.517   0.458  10.926  1.3407  0.7514  0.7618
29141SOL    HW289431   2.496   0.547  11.047  0.3205  2.0123 -0.3307
29142SOL     OW89432   6.418   2.193   3.047 -0.0681 -0.3404 -0.6712
29142SOL    HW189433   6.449   2.104   3.064 -0.2464 -0.4618 -0.9829
29142SOL    HW289434   6.385   2.190   2.957 -0.1424  0.0214 -0.6551
29143SOL     OW89435  10.738   3.928   9.357  0.3310  0.0268  0.5035
29143SOL    HW189436  10.779   3.914   9.272  1.6560  2.4132  0.6767
29143SOL    HW289437  10.669   3.991   9.341  0.5742  0.4803  1.1705
29144SOL     OW89438   0.902   4.438   4.879 -0.3807 -0.5547 -0.2268
29144SOL    HW189439   0.830   4.493   4.850  1.5269  1.6730 -1.0112
29144SOL    HW289440   0.915   4.461   4.971  0.3132  0.2511 -0.5120
29145SOL     OW89441   9.192  10.827   7.211 -0.1599 -0.0085  0.2932
29145SOL    HW189442   9.160  10.753   7.159  1.2712  1.2934 -2.6573
29145SOL    HW289443   9.126  10.895   7.199  0.5524  0.5606 -0.5571
29146SOL     OW89444  10.693   5.397  10.691  0.1802  0.1572  0.0504
29146SOL    HW189445  10.685   5.331  10.621 -0.9692  0.1527  0.1670
29146SOL    HW289446  10.740   5.351  10.761 -0.2167 -0.3962 -0.0394
29147SOL     OW89447   6.596  10.484   1.733 -0.1529 -0.9443  0.3333
29147SOL    HW189448   6.669  10.469   1.674 -1.4952  0.5387 -1.8482
29147SOL    HW289449   6.637  10.497   1.819  2.0019 -1.3799 -0.5606
29148SOL     OW89450   2.557   6.471   9.679 -0.3734  0.4081  0.4590
29148SOL    HW189451   2.651   6.471   9.662 -0.5557 -0.6112 -0.6483
29148SOL    HW289452   2.526   6.387   9.645 -1.2496 -0.5599  3.3152
29149SOL     OW89453   8.323   4.767   3.146  0.5809  0.6178 -0.3693
29149SOL    HW189454   8.235   4.796   3.167  0.1914 -1.2865  0.8367
29149SOL    HW289455   8.366   4.756   3.231  1.1717 -0.8020 -0.8283
29150SOL     OW89456  10.180   9.983   0.814 -0.0638 -1.1820  1.1769
29150SOL    HW189457  10.218   9.942   0.892  0.5923 -1.0434  0.9401
29150SOL    HW289458  10.256  10.009   0.762 -0.4894 -0.7255  0.7781
29151SOL     OW89459   8.860   4.908   2.484  0.2361  0.4169 -0.0011
29151SOL    HW189460   8.880   4.885   2.575  2.2520  2.8435  0.2678
29151SOL    HW289461   8.773   4.872   2.470  0.5251 -1.5273  2.3063
29152SOL     OW89462   3.039   0.671   2.294 -0.4227 -0.1658  0.3142
29152SOL    HW189463   3.024   0.583   2.327  2.1680 -0.4653  0.8582
29152SOL    HW289464   3.087   0.659   2.212  2.5796  0.6458  1.8062
29153SOL     OW89465   8.322   2.382   8.921  0.3862  0.6699  0.2889
29153SOL    HW189466   8.266   2.340   8.855  0.9234 -0.8329  0.7372
29153SOL    HW289467   8.277   2.366   9.004  1.5006 -0.6847  0.6726
29154SOL     OW89468   9.726   8.342  10.180  0.3280 -0.1382 -0.1162
29154SOL    HW189469   9.762   8.338  10.092  0.9660  1.9673 -0.0104
29154SOL    HW289470   9.634   8.367  10.168  0.2347 -0.5294 -0.2081
29155SOL     OW89471   7.488   0.500   2.471  0.2273 -0.0473 -0.0075
29155SOL    HW189472   7.401   0.516   2.507 -0.4007 -0.6700 -1.2186
29155SOL    HW289473   7.539   0.576   2.498 -0.6220  0.2226  0.8994
29156SOL     OW89474  11.068   5.968   1.383 -0.3617  0.3594 -0.3009
29156SOL    HW189475  10.974   5.951   1.395 -0.6025  0.7024 -1.5244
29156SOL    HW289476  11.101   5.985   1.471 -1.4601  0.2959  0.1407
29157SOL     OW89477   7.774   8.955   2.165  0.3547  0.0289  0.2696
29157SOL    HW189478   7.748   8.945   2.074 -2.3061  0.4037  0.8953
29157SOL    HW289479   7.800   9.047   2.173  1.8914 -0.3155 -0.3382
29158SOL     OW89480   1.015   4.546   7.169  0.5099 -0.2822  0.1889
29158SOL    HW189481   1.021   4.460   7.127 -0.3909 -0.8575  1.1839
29158SOL    HW289482   1.034   4.608   7.099 -0.1498 -1.2326 -0.8708
29159SOL     OW89483  10.131   7.517  10.172  0.0696  0.0693  0.0185
29159SOL    HW189484  10.190   7.541  10.101  0.5135 -0.5053  0.1803
29159SOL    HW289485  10.152   7.577  10.243  1.0196 -0.6190  0.3459
29160SOL     OW89486   4.138   0.161   3.963  0.2160 -0.0133  0.1217
29160SOL    HW189487   4.155   0.226   4.030 -1.1444  0.7055 -0.1878
29160SOL    HW289488   4.137   0.077   4.009 -1.8786  0.5693  1.2738
29161SOL     OW89489   7.945   0.824   3.239  0.3718  0.4120 -0.7548
29161SOL    HW189490   7.865   0.808   3.289  0.8481  1.1428  0.2860
29161SOL    HW289491   7.998   0.747   3.254 -0.1849 -0.1496 -1.5811
29162SOL     OW89492  10.404  10.362   6.704 -0.1147 -0.2309  0.0226
29162SOL    HW189493  10.383  10.418   6.630  1.2068  0.3264  0.0456
29162SOL    HW289494  10.413  10.421   6.779 -1.2979 -0.7694  0.6177
29163SOL     OW89495   9.977   4.914   8.833  0.1445 -0.2132  0.1164
29163SOL    HW189496   9.948   4.983   8.893  2.4472  0.9936 -0.0323
29163SOL    HW289497  10.055   4.877   8.875 -0.4298 -2.0273 -0.3379
29164SOL     OW89498   5.700   8.777   5.600 -0.2947  0.3462 -0.4798
29164SOL    HW189499   5.624   8.725   5.575  0.2678  0.4548 -2.6161
29164SOL    HW289500   5.742   8.727   5.669 -1.4338 -0.4950 -0.3670
29165SOL     OW89501   2.140   6.363   1.956  0.2318 -0.4641 -0.4177
29165SOL    HW189502   2.184   6.432   1.907  0.6020  1.2665  2.1766
29165SOL    HW289503   2.054   6.355   1.914  0.2577  1.4438 -0.8981
29166SOL     OW89504  10.208   5.207   3.096 -0.4341 -0.0592 -0.0219
29166SOL    HW189505  10.292   5.188   3.053 -0.3980  0.0184  0.0114
29166SOL    HW289506  10.177   5.123   3.129 -0.6068 -0.1662 -0.4602
29167SOL     OW89507   0.942   1.046   0.336  0.1137 -0.4670  0.3045
29167SOL    HW189508   0.965   1.087   0.419 -0.0886  0.8946 -0.2902
29167SOL    HW289509   0.969   0.955   0.346  1.0717 -0.0747  1.4653
29168SOL     OW89510   4.876   3.581   0.899  0.5432 -0.5440  0.4095
29168SOL    HW189511   4.819   3.599   0.973 -0.0463 -0.9940  0.0739
29168SOL    HW289512   4.927   3.661   0.888 -0.1107 -0.0883  0.6373
29169SOL     OW89513   0.519   0.162   1.291  0.0541 -0.3808  0.0098
29169SOL    HW189514   0.590   0.215   1.328 -0.0675  0.6872 -1.1849
29169SOL    HW289515   0.475   0.124   1.367  0.2052  1.1840  0.9266
29170SOL     OW89516   6.867   5.539   3.628  0.1644 -0.8845  0.0819
29170SOL    HW189517   6.839   5.471   3.690  0.1894 -0.3270  0.7134
29170SOL    HW289518   6.961   5.547   3.642  0.0173 -0.1013  0.6312
29171SOL     OW89519  10.779   6.491   2.634 -0.5234  0.2012 -0.4202
29171SOL    HW189520  10.750   6.488   2.726 -1.1062  1.6177 -0.5304
29171SOL    HW289521  10.742   6.573   2.600  0.3218  0.0733 -1.7130
29172SOL     OW89522  10.425   5.640   1.775 -0.2366 -0.2555 -0.1662
29172SOL    HW189523  10.338   5.610   1.801 -1.0465  0.7014 -1.6176
29172SOL    HW289524  10.433   5.727   1.814  0.1656 -0.4302  0.1455
29173SOL     OW89525   3.122   1.550   7.275 -0.0910  0.3061  0.4588
29173SOL    HW189526   3.166   1.635   7.285  1.0248  0.0123 -1.4512
29173SOL    HW289527   3.075   1.538   7.357  0.3806  2.3936  1.1062
29174SOL     OW89528  10.806   5.287   8.263 -1.0586 -0.8788  0.1563
29174SOL    HW189529  10.722   5.242   8.252 -0.4109 -1.6469 -2.1660
29174SOL    HW289530  10.868   5.217   8.286 -0.6956 -0.6126 -0.0050
29175SOL     OW89531   0.877   3.875   1.355 -0.7710 -0.0774 -0.2282
29175SOL    HW189532   0.950   3.874   1.418 -1.7827 -2.3823  1.0192
29175SOL    HW289533   0.836   3.960   1.367 -0.2236 -0.0161  1.3974
29176SOL     OW89534   6.094  10.898   8.505  0.0633 -0.5873 -0.0369
29176SOL    HW189535   6.168  10.958   8.496 -1.1585  1.1486  0.9594
29176SOL    HW289536   6.102  10.839   8.430  1.4281  0.6937 -0.9549
29177SOL     OW89537   8.229   9.481   4.849 -0.0083 -0.4850 -0.3526
29177SOL    HW189538   8.322   9.473   4.868  0.5953  1.6833 -1.9221
29177SOL    HW289539   8.224   9.556   4.789 -2.9029  0.3482  0.7725
29178SOL     OW89540  10.113   0.039   7.066 -0.2932  0.2817  0.1320
29178SOL    HW189541  10.054  -0.009   7.008 -2.4053  0.4348  2.0361
29178SOL    HW289542  10.076   0.127   7.070  0.8015  0.7515  0.4173
29179SOL     OW89543  10.768   0.111   4.202 -0.2667  0.1715  0.3645
29179SOL    HW189544  10.727   0.187   4.244  0.2602  0.7276 -0.1062
29179SOL    HW289545  10.839   0.086   4.261 -1.3486 -0.8901  1.2590
29180SOL     OW89546   8.675   2.737   3.888  0.5187 -0.0931  0.4809
29180SOL    HW189547   8.759   2.778   3.871  0.2419  0.8337  1.2360
29180SOL    HW289548   8.688   2.687   3.969  0.2521  0.3558  0.8051
29181SOL     OW89549   3.632   4.516  10.647  0.3206  0.3207  0.2975
29181SOL    HW189550   3.588   4.536  10.729 -1.7276  0.1861 -0.7154
29181SOL    HW289551   3.665   4.600  10.616 -1.1001  0.8090  0.0560
29182SOL     OW89552   1.164   6.011  10.903 -0.8806 -0.1592  0.1353
29182SOL    HW189553   1.117   6.090  10.930  0.7963  0.2654  2.0489
29182SOL    HW289554   1.255   6.038  10.895 -0.4117 -1.6876 -0.0941
29183SOL     OW89555   9.825   0.585   7.475  0.2222  0.2273  0.5879
29183SOL    HW189556   9.822   0.527   7.551  1.3198  0.7912  1.0867
29183SOL    HW289557   9.894   0.549   7.420  0.2772  0.5312  0.4543
29184SOL     OW89558   8.471   5.698   3.594 -0.2044  0.4912 -0.1461
29184SOL    HW189559   8.551   5.736   3.557  0.0245 -0.1241 -0.2802
29184SOL    HW289560   8.450   5.756   3.668  0.1231  0.8998 -0.3642
29185SOL     OW89561   4.842   6.064   8.370  0.3010  0.0345 -0.2381
29185SOL    HW189562   4.926   6.022   8.388  0.6709  0.8806  0.0464
29185SOL    HW289563   4.846   6.087   8.277 -0.7966 -2.5086 -1.0045
29186SOL     OW89564   9.992   8.275   4.834  0.5799 -0.1768  0.4908
29186SOL    HW189565  10.016   8.322   4.753 -0.7133 -0.5473 -0.1222
29186SOL    HW289566   9.899   8.257   4.825  0.5906 -0.9487  1.7183
29187SOL     OW89567   5.869  10.747   9.590 -0.4737 -0.6655 -0.4531
29187SOL    HW189568   5.886  10.698   9.510  0.6867  0.3082 -0.8357
29187SOL    HW289569   5.954  10.785   9.613 -0.4899 -1.8315  1.8821
29188SOL     OW89570   8.019   4.246   0.506 -0.8145  0.0522  0.3804
29188SOL    HW189571   7.992   4.240   0.415 -0.7961 -1.3982  0.4470
29188SOL    HW289572   8.115   4.249   0.502 -0.8238  2.0682  0.2953
29189SOL     OW89573   5.308   7.721   4.003  0.0638 -0.3249 -0.4680
29189SOL    HW189574   5.367   7.748   4.073  1.1166  3.6805 -2.6083
29189SOL    HW289575   5.224   7.761   4.026  0.2965  0.6227 -1.2268
29190SOL     OW89576   7.487   6.931  10.802  0.3330 -0.4107 -0.1326
29190SOL    HW189577   7.475   6.841  10.833 -0.9003 -0.6977 -1.3270
29190SOL    HW289578   7.448   6.932  10.715  0.3840  1.2756 -0.1782
29191SOL     OW89579   4.295   2.122   4.237 -0.3392 -0.0214 -0.5721
29191SOL    HW189580   4.353   2.195   4.258 -1.1979  0.9740 -1.5454
29191SOL    HW289581   4.304   2.109   4.143 -0.2960 -1.1052 -0.4379
29192SOL     OW89582   6.338   3.445   4.010 -0.4811  0.3620 -0.0884
29192SOL    HW189583   6.274   3.454   4.081 -1.0338  0.9145 -0.6444
29192SOL    HW289584   6.422   3.467   4.050 -0.7764  0.5695  0.4221
29193SOL     OW89585   0.004   8.187   0.494  0.2823 -0.2510 -0.0184
29193SOL    HW189586   0.038   8.255   0.436 -0.3255  0.4410  0.4113
29193SOL    HW289587   0.078   8.165   0.551 -0.0773  1.6331  1.2795
29194SOL     OW89588   5.491   2.726   6.488  0.0686 -0.1677 -0.2961
29194SOL    HW189589   5.510   2.697   6.399  0.7214  0.6964 -0.4509
29194SOL    HW289590   5.455   2.814   6.479  1.2317  0.4094  0.3319
29195SOL     OW89591   4.980   4.141   3.998  0.1900 -0.1349 -0.5534
29195SOL    HW189592   4.975   4.068   3.937  0.0527 -0.2828 -0.3681
29195SOL    HW289593   4.931   4.111   4.075  1.7220 -0.5897  0.2853
29196SOL     OW89594   1.528   3.263   1.838  0.1427 -0.3053 -0.4175
29196SOL    HW189595   1.543   3.184   1.890  1.6847 -1.0258 -1.8567
29196SOL    HW289596   1.555   3.334   1.896  1.6985 -1.0761 -0.1210
29197SOL     OW89597   7.762   3.363   9.896 -0.2004 -0.1048  0.6874
29197SOL    HW189598   7.847   3.363   9.939 -0.2331 -2.9715  0.9714
29197SOL    HW289599   7.775   3.306   9.819 -1.8054 -0.5122  0.6913
29198SOL     OW89600   5.817   2.403  10.972  0.5073 -0.2844  0.8587
29198SOL    HW189601   5.811   2.392  10.877  0.3980 -0.4851  0.8885
29198SOL    HW289602   5.867   2.327  11.002  0.0551 -0.5186  1.0268
29199SOL     OW89603  10.565   2.482   1.985 -0.5769  0.1443  0.1332
29199SOL    HW189604  10.617   2.450   1.912 -0.5407 -0.0839  0.2564
29199SOL    HW289605  10.551   2.575   1.966 -0.9014 -0.0036 -0.3584
29200SOL     OW89606   3.660   2.731   5.665  0.6197  0.8992  0.0101
29200SOL    HW189607   3.640   2.781   5.744 -1.4236  2.3899 -1.3626
29200SOL    HW289608   3.716   2.789   5.613  1.9271 -0.0628  0.2762
29201SOL     OW89609   4.352   7.627  10.360 -0.4175  0.4816  0.0808
29201SOL    HW189610   4.321   7.716  10.374 -1.2240  0.0538  1.1089
29201SOL    HW289611   4.332   7.581  10.441  0.2286 -0.5752 -0.3357
29202SOL     OW89612   4.136   2.358   3.909 -0.2028 -0.4365 -0.4124
29202SOL    HW189613   4.202   2.290   3.894 -0.7500 -0.8301 -1.0619
29202SOL    HW289614   4.091   2.367   3.826 -0.5752  0.2697 -0.1485
29203SOL     OW89615   9.647   2.716   5.566 -0.1394  0.0141 -0.1404
29203SOL    HW189616   9.566   2.670   5.586  0.7266 -1.0780  1.0347
29203SOL    HW289617   9.680   2.671   5.487 -0.3689  0.0415 -0.2517
29204SOL     OW89618   6.631  10.708   0.939 -0.6578  1.1328 -0.1789
29204SOL    HW189619   6.593  10.638   0.886 -1.4228  0.1946  1.5330
29204SOL    HW289620   6.567  10.724   1.009 -0.1721  3.0616 -0.1129
29205SOL     OW89621   1.984   0.202   6.947 -0.4681 -0.0923  0.4946
29205SOL    HW189622   2.072   0.214   6.912 -0.6658  0.7707  0.2611
29205SOL    HW289623   1.935   0.278   6.915 -1.4316 -0.8153  0.1971
29206SOL     OW89624   4.765   9.442   4.174 -0.0283  0.0522  0.0624
29206SOL    HW189625   4.852   9.455   4.138  0.1899  1.9895  1.1823
29206SOL    HW289626   4.750   9.348   4.166  1.6493 -0.1441 -1.2612
29207SOL     OW89627   6.960   6.912   5.645  0.2648 -0.0462 -0.0390
29207SOL    HW189628   6.930   6.821   5.640  0.4290 -0.1470  0.6973
29207SOL    HW289629   6.890   6.963   5.604 -0.8388 -0.2885  1.4684
29208SOL     OW89630  10.003   4.084   0.310  0.6934 -0.0635  0.1913
29208SOL    HW189631   9.924   4.039   0.278  0.4871  0.0648  0.5181
29208SOL    HW289632  10.039   4.126   0.232  0.9246 -0.8460 -0.1367
29209SOL     OW89633   5.045   1.862   7.626 -0.1713 -0.0395  0.0503
29209SOL    HW189634   5.052   1.818   7.541 -0.9225 -1.1480  0.5331
29209SOL    HW289635   5.131   1.902   7.639  0.8407 -2.0050 -0.1120
29210SOL     OW89636   8.151   6.884   2.985  0.0526 -0.1178 -0.2966
29210SOL    HW189637   8.143   6.861   3.077  0.6554  0.3947 -0.1068
29210SOL    HW289638   8.203   6.965   2.985 -1.0559  0.6144 -1.0012
29211SOL     OW89639   0.325   6.450   0.574 -0.2292  0.4723  0.2228
29211SOL    HW189640   0.289   6.539   0.577  0.4625  0.7469  0.6521
29211SOL    HW289641   0.292   6.409   0.654 -3.3235 -0.7983 -1.5348
29212SOL     OW89642   5.385   9.899   7.589  0.3370  0.1640 -0.3790
29212SOL    HW189643   5.324   9.943   7.529 -0.1370  1.4859  0.9962
29212SOL    HW289644   5.344   9.908   7.675  1.7286 -0.3179  0.3647
29213SOL     OW89645   6.786   7.568   9.288  0.1461  0.3971  0.2026
29213SOL    HW189646   6.700   7.600   9.314  0.5791  0.9917  0.9816
29213SOL    HW289647   6.828   7.643   9.246  0.2485  0.0810 -0.2674
29214SOL     OW89648   4.840   7.653   4.906  0.8122  0.6568 -0.5987
29214SOL    HW189649   4.771   7.629   4.968  0.3342 -0.3322 -1.4958
29214SOL    HW289650   4.861   7.744   4.928 -0.9488  1.0616 -0.4772
29215SOL     OW89651   1.656   0.312   9.469 -0.1059 -0.0531 -0.0971
29215SOL    HW189652   1.646   0.329   9.375 -0.6037 -0.6855 -0.1660
29215SOL    HW289653   1.568   0.324   9.505  0.2471  1.0966  0.4595
29216SOL     OW89654   8.795   1.702   3.717  0.6366  0.6878 -0.2223
29216SOL    HW189655   8.751   1.640   3.660  1.4845 -1.2559  1.1195
29216SOL    HW289656   8.865   1.739   3.663  0.1507  0.4509 -1.0337
29217SOL     OW89657   6.931   0.410   0.023  0.7068  0.0815  0.0059
29217SOL    HW189658   6.907   0.461   0.100  1.0759 -0.0452  0.2059
29217SOL    HW289659   6.930   0.319   0.053  2.0947  0.1048  0.2139
29218SOL     OW89660   2.177   0.515   9.278  0.3079 -0.1371 -0.0752
29218SOL    HW189661   2.173   0.499   9.372 -3.2422 -0.0667 -0.0698
29218SOL    HW289662   2.247   0.457   9.247  0.9679 -0.8363  2.4611
29219SOL     OW89663   4.039   2.039   9.160 -0.3138  0.2863  0.1778
29219SOL    HW189664   3.960   1.991   9.184 -1.4132  0.4181 -2.8410
29219SOL    HW289665   4.011   2.130   9.152  0.4734  0.5592  0.4218
29220SOL     OW89666   8.663   0.380   8.728 -0.1246  0.0844  0.3382
29220SOL    HW189667   8.690   0.346   8.643  0.4702 -0.2628  0.6597
29220SOL    HW289668   8.574   0.348   8.740 -0.3048  0.3385 -0.2557
29221SOL     OW89669   0.832   6.597   5.172 -0.0204 -0.0316  0.7762
29221SOL    HW189670   0.766   6.554   5.117 -0.2779  1.5439 -0.2247
29221SOL    HW289671   0.891   6.526   5.199  0.6179 -0.8151 -2.2607
29222SOL     OW89672   7.336   9.939   5.301 -0.1224  0.1062 -0.0589
29222SOL    HW189673   7.364  10.028   5.320  0.6475  0.0943 -1.0737
29222SOL    HW289674   7.243   9.938   5.322 -0.4922  1.5759 -1.4548
29223SOL     OW89675   5.695   3.852   4.801 -0.3091  0.0128 -0.0741
29223SOL    HW189676   5.705   3.934   4.848 -0.4957 -0.1054  0.1733
29223SOL    HW289677   5.688   3.878   4.709 -0.0892  0.2530 -0.0245
29224SOL     OW89678   6.839   1.455   9.869 -0.3154 -0.3396  0.7775
29224SOL    HW189679   6.743   1.449   9.876 -0.6265  1.6525 -0.7501
29224SOL    HW289680   6.861   1.535   9.916  0.6793 -0.9962  1.4510
29225SOL     OW89681   6.219   8.752   3.850 -0.1327 -0.2285  0.2285
29225SOL    HW189682   6.288   8.790   3.904  0.2252 -0.5297 -0.0134
29225SOL    HW289683   6.138   8.774   3.896 -0.1037  2.3385 -0.7527
29226SOL     OW89684   8.817   0.600   4.662 -0.5892  0.7041  0.2410
29226SOL    HW189685   8.770   0.588   4.744 -0.3001 -1.0837  0.1852
29226SOL    HW289686   8.834   0.694   4.657 -2.1105  1.0725  1.3822
29227SOL     OW89687  10.366   7.918   3.640  0.6969  0.1013  0.1150
29227SOL    HW189688  10.283   7.945   3.680  0.9543  0.6711  0.2798
29227SOL    HW289689  10.362   7.823   3.639 -0.1393  0.1303 -0.2583
29228SOL     OW89690   7.526   2.538   9.014 -0.5770  0.1226  0.0119
29228SOL    HW189691   7.499   2.446   9.015 -0.5983  0.0953 -1.1105
29228SOL    HW289692   7.507   2.567   8.925  2.3693  0.3346 -0.6474
29229SOL     OW89693   7.541  10.601   0.162  0.0516 -0.4906  0.1948
29229SOL    HW189694   7.606  10.604   0.093  1.0947 -0.9846  1.1181
29229SOL    HW289695   7.574  10.536   0.224 -0.9555 -0.2355  1.0479
29230SOL     OW89696   2.903   8.896   2.466 -0.5971  0.4935 -0.1787
29230SOL    HW189697   2.965   8.854   2.525  0.5299  0.8289 -1.0817
29230SOL    HW289698   2.958   8.947   2.406 -1.7799  1.2312 -0.6744
29231SOL     OW89699   3.503  10.564   2.725 -0.4925 -0.1186 -0.2056
29231SOL    HW189700   3.457  10.644   2.701 -0.9920 -0.5277 -0.6547
29231SOL    HW289701   3.436  10.495   2.720  0.0011 -0.6125 -0.1594
29232SOL     OW89702   1.148  10.366   7.141 -0.0806  0.1212  0.2055
29232SOL    HW189703   1.092  10.328   7.208 -1.1768 -0.3307 -0.9153
29232SOL    HW289704   1.147  10.460   7.159  0.9867 -0.1493  1.7800
29233SOL     OW89705   8.851   9.063   1.304 -0.3664 -0.5862  0.4239
29233SOL    HW189706   8.930   9.079   1.354  0.8240 -1.3519 -1.1085
29233SOL    HW289707   8.817   9.150   1.283 -0.0401 -0.2537  1.2377
29234SOL     OW89708   4.312   5.732   2.851  0.7308 -0.1446 -0.5279
29234SOL    HW189709   4.318   5.774   2.937 -0.6283 -1.8426  0.4471
29234SOL    HW289710   4.229   5.762   2.815  1.6458  1.1818 -1.6534
29235SOL     OW89711   9.790   3.061   8.943 -0.1752  0.0746 -0.3104
29235SOL    HW189712   9.783   2.987   9.004  0.6977  1.8739  2.1676
29235SOL    HW289713   9.880   3.058   8.912  0.3801  0.9820  1.1133
29236SOL     OW89714   9.245   1.333   5.009  0.1695  0.1013 -0.1402
29236SOL    HW189715   9.327   1.287   4.987  0.2286 -0.4780  1.1972
29236SOL    HW289716   9.274   1.421   5.033  0.3747 -0.0222  0.0742
29237SOL     OW89717   1.418  10.926   6.977  0.3212  0.2944  0.1862
29237SOL    HW189718   1.384  10.996   7.033 -0.0740 -0.0277  0.3579
29237SOL    HW289719   1.422  10.850   7.035 -0.2541 -0.0883 -0.2584
29238SOL     OW89720   5.467   7.353   1.200 -0.1029  0.2854 -0.0850
29238SOL    HW189721   5.556   7.374   1.229  0.7923  0.1327 -2.5303
29238SOL    HW289722   5.430   7.438   1.173 -1.5181  0.6971  2.7482
29239SOL     OW89723   8.326   4.801   1.681  0.5475 -0.4775  0.0977
29239SOL    HW189724   8.296   4.818   1.771 -0.9447  0.5782 -0.5613
29239SOL    HW289725   8.317   4.706   1.672 -0.8761 -0.4241  0.5709
29240SOL     OW89726   9.328   8.013   1.515 -0.3662 -0.7699  0.2947
29240SOL    HW189727   9.380   8.086   1.482  0.1818 -2.0163 -1.7854
29240SOL    HW289728   9.240   8.049   1.524 -0.2141  0.0322 -1.1647
29241SOL     OW89729   8.706   3.072   8.300  1.2698 -0.1834  0.4491
29241SOL    HW189730   8.779   3.102   8.356  0.5156  1.4539  0.5988
29241SOL    HW289731   8.655   3.015   8.357  2.8150 -2.0270  0.1127
29242SOL     OW89732   0.444   3.001   9.927  0.8627 -0.4021 -0.3941
29242SOL    HW189733   0.449   2.920   9.877  0.2316 -1.8442  1.7252
29242SOL    HW289734   0.512   2.994   9.993 -0.5860 -0.2805  1.2050
29243SOL     OW89735  10.815   9.194   6.095  0.0690  0.6124 -0.2209
29243SOL    HW189736  10.761   9.273   6.097  1.8237  1.8704 -0.3267
29243SOL    HW289737  10.757   9.126   6.062 -1.2992  2.0111 -0.8069
29244SOL     OW89738   6.625   6.865   2.197 -0.3709 -0.3320 -0.5796
29244SOL    HW189739   6.589   6.778   2.218 -2.2324 -0.3192 -3.3066
29244SOL    HW289740   6.559   6.926   2.229  0.7885  0.1728  1.0352
29245SOL     OW89741   0.281   5.490   5.889 -0.1104 -0.0790  0.2164
29245SOL    HW189742   0.316   5.554   5.828 -0.4373  1.0862  1.2136
29245SOL    HW289743   0.263   5.540   5.969 -1.1136 -1.2527  0.7610
29246SOL     OW89744   9.049   4.185   9.165  0.0193 -0.3733  0.1775
29246SOL    HW189745   9.037   4.121   9.235 -0.2469  0.1919  0.6590
29246SOL    HW289746   9.097   4.138   9.097 -2.2807 -1.8545 -0.5358
29247SOL     OW89747   3.103  10.101   9.076 -0.1760 -0.3093  0.3292
29247SOL    HW189748   3.138  10.188   9.097  0.0621 -0.2483 -0.2776
29247SOL    HW289749   3.070  10.111   8.986 -0.7085 -0.6799  0.4848
29248SOL     OW89750   6.563   7.123  10.011 -1.0227  0.1506  0.7968
29248SOL    HW189751   6.498   7.053  10.014 -0.2715 -0.6084  0.0896
29248SOL    HW289752   6.535   7.178   9.938 -1.0718  0.0242  0.7189
29249SOL     OW89753   7.671   2.862   7.418  0.2631  0.0988  0.0149
29249SOL    HW189754   7.638   2.923   7.353 -0.3215  1.9159  1.8983
29249SOL    HW289755   7.765   2.881   7.424 -0.1354  1.9335  1.5772
29250SOL     OW89756  10.890  10.147   2.539  0.5523 -0.0147 -0.6011
29250SOL    HW189757  10.957  10.079   2.552  0.5368 -0.0558 -0.7422
29250SOL    HW289758  10.843  10.149   2.623  0.0785 -0.6940 -0.8408
29251SOL     OW89759   0.939   9.856  10.517  0.0483  0.4364 -0.0752
29251SOL    HW189760   0.960   9.783  10.459  2.8924 -0.3138  1.6758
29251SOL    HW289761   0.889   9.816  10.588  2.6567 -0.2151  1.5228
29252SOL     OW89762   7.543   5.857   8.377  0.3134  0.8472 -0.1589
29252SOL    HW189763   7.595   5.937   8.371  0.9044  0.4630 -0.2427
29252SOL    HW289764   7.589   5.803   8.441  1.6286 -0.6519 -2.2403
29253SOL     OW89765  10.995   0.718   9.550 -0.9166 -0.0390  0.7263
29253SOL    HW189766  10.936   0.649   9.519 -0.8138  0.2620 -0.1588
29253SOL    HW289767  11.082   0.684   9.531 -0.8919  0.8960 -0.9821
29254SOL     OW89768   3.493  10.698   6.655 -0.7506 -0.4837  0.5384
29254SOL    HW189769   3.457  10.716   6.742 -1.8738 -0.5594  0.1066
29254SOL    HW289770   3.550  10.622   6.667 -1.1213 -0.6648  1.1593
29255SOL     OW89771   1.407   5.904   6.299  0.7627  0.3800 -0.6046
29255SOL    HW189772   1.346   5.902   6.372  1.2049 -2.0861 -0.2032
29255SOL    HW289773   1.476   5.842   6.324  2.7276  2.0127 -1.6450
29256SOL     OW89774   6.639   5.303   4.557  0.3655 -0.4446  0.2719
29256SOL    HW189775   6.640   5.225   4.613 -0.6531 -0.5323  0.1882
29256SOL    HW289776   6.552   5.303   4.518 -0.3307  1.7085  1.6779
29257SOL     OW89777   7.455   3.007   0.873 -0.3654  0.0140  0.1896
29257SOL    HW189778   7.455   3.059   0.953 -1.2399  0.0667  0.1710
29257SOL    HW289779   7.404   2.929   0.896  0.6762 -0.6919  0.1299
29258SOL     OW89780   2.044   2.640   0.604  1.1083 -0.1932 -0.0323
29258SOL    HW189781   2.103   2.601   0.539  0.6679 -0.3674 -0.3346
29258SOL    HW289782   2.077   2.728   0.617  0.5436  0.2475 -1.3581
29259SOL     OW89783   9.721   7.199  10.934 -0.5939 -0.0087  0.6060
29259SOL    HW189784   9.642   7.195  10.987 -1.9083  0.2635 -1.2434
29259SOL    HW289785   9.718   7.285  10.893  0.4819 -0.1361  0.2142
29260SOL     OW89786   0.690   5.650   3.125 -0.1428  0.4659 -0.2378
29260SOL    HW189787   0.686   5.745   3.114  1.6782  0.6132  0.0925
29260SOL    HW289788   0.707   5.617   3.037  0.7213  0.5708 -0.1145
29261SOL     OW89789   4.176   5.566   2.081 -0.4643  0.2600 -0.3096
29261SOL    HW189790   4.202   5.658   2.077 -2.3394  0.8227 -1.0799
29261SOL    HW289791   4.178   5.537   1.989  0.2035 -0.4968 -0.0583
29262SOL     OW89792   8.287   2.138   5.058  0.3690 -0.0565  0.6607
29262SOL    HW189793   8.244   2.170   4.979 -0.2073  1.1343  1.4301
29262SOL    HW289794   8.357   2.081   5.026  0.5481  0.8993 -0.7250
29263SOL     OW89795   0.788   8.436   5.766 -0.0633 -0.2178  0.1649
29263SOL    HW189796   0.722   8.473   5.707 -1.2394  0.9462  2.0769
29263SOL    HW289797   0.802   8.347   5.734 -0.8083  0.2868 -1.6898
29264SOL     OW89798  11.091   3.032   6.014  0.4778  0.2775 -0.0920
29264SOL    HW189799  11.135   2.987   6.086  2.6969 -0.0685 -1.5756
29264SOL    HW289800  11.123   3.122   6.017 -1.6962  1.0876  1.0696
29265SOL     OW89801  10.531   8.134   1.439  0.1549  0.0990  0.3298
29265SOL    HW189802  10.588   8.163   1.509  0.1726  1.8601 -0.3467
29265SOL    HW289803  10.514   8.214   1.388  0.5454 -1.1908 -1.9513
29266SOL     OW89804   8.278   9.222   0.142  0.1745  0.6468  0.1261
29266SOL    HW189805   8.341   9.269   0.087  0.9434  0.1320  0.5422
29266SOL    HW289806   8.314   9.230   0.231 -0.7995  1.0724  0.4991
29267SOL     OW89807   7.094  10.325   4.810 -0.3062 -0.3627 -0.4922
29267SOL    HW189808   7.148  10.364   4.742 -0.5365  0.2266 -0.3436
29267SOL    HW289809   7.040  10.397   4.843 -1.4052 -0.9945 -0.8437
29268SOL     OW89810   6.604  10.899   2.218 -0.5536 -0.8130 -0.1413
29268SOL    HW189811   6.653  10.908   2.299  0.6732  1.8574 -1.0652
29268SOL    HW289812   6.666  10.859   2.156 -1.1590 -1.9035 -0.0716
29269SOL     OW89813   8.635   3.380   1.847 -0.1748 -0.2579 -0.5317
29269SOL    HW189814   8.569   3.386   1.917  0.9640  1.5978  0.4793
29269SOL    HW289815   8.584   3.382   1.766 -1.4000  1.5295  0.1976
29270SOL     OW89816  10.218   5.541   7.310 -0.4438  0.3981  0.3201
29270SOL    HW189817  10.256   5.485   7.377 -1.7131  0.4742  1.1413
29270SOL    HW289818  10.128   5.556   7.339 -0.9578  0.6471 -1.2752
29271SOL     OW89819   9.315   5.520   1.757 -0.6092  0.1361 -0.2693
29271SOL    HW189820   9.280   5.431   1.757  2.2168 -1.1558  2.1042
29271SOL    HW289821   9.388   5.517   1.695  1.5504 -0.2918  2.1214
29272SOL     OW89822   1.624   8.829   1.657 -0.4766 -0.3276  0.3553
29272SOL    HW189823   1.550   8.770   1.645  1.1003 -2.0775 -1.3616
29272SOL    HW289824   1.642   8.863   1.569  1.1503 -0.4383  0.6245
29273SOL     OW89825   1.765   6.293   5.883 -0.9226 -0.0393 -0.6781
29273SOL    HW189826   1.828   6.354   5.920 -0.3823  0.3914 -2.2192
29273SOL    HW289827   1.699   6.281   5.951  0.4459  0.0460  0.7101
29274SOL     OW89828   4.978   1.066   5.252 -0.3644 -0.3696 -0.3562
29274SOL    HW189829   4.936   0.982   5.231 -0.0482 -0.5412 -0.3019
29274SOL    HW289830   4.942   1.127   5.188 -1.9061 -0.1517  0.6523
29275SOL     OW89831   7.688   6.351   4.859 -0.0654  0.0080  0.3285
29275SOL    HW189832   7.707   6.426   4.915  0.3219  0.7733 -0.8069
29275SOL    HW289833   7.642   6.388   4.783 -3.5632 -1.3729  1.5410
29276SOL     OW89834   9.234   4.762   9.751  0.1423  0.2385 -0.0495
29276SOL    HW189835   9.241   4.667   9.745  1.7417  0.3797 -0.9583
29276SOL    HW289836   9.271   4.783   9.837  0.9088  0.1212 -0.3452
29277SOL     OW89837  10.780   5.924   4.868  0.1289 -0.6977 -0.2419
29277SOL    HW189838  10.750   6.007   4.832 -0.5496 -0.5113  0.7175
29277SOL    HW289839  10.856   5.947   4.921 -1.2928 -0.3465  1.7238
29278SOL     OW89840   8.342  10.108   1.962  0.0601 -0.2314  0.0437
29278SOL    HW189841   8.286  10.040   1.999 -0.3795 -0.3959 -0.8871
29278SOL    HW289842   8.287  10.186   1.960  0.7393  0.3320  1.6333
29279SOL     OW89843   8.074   3.387   6.884  0.3457  0.3845 -0.1413
29279SOL    HW189844   8.072   3.441   6.805  0.7015  1.0514  0.2981
29279SOL    HW289845   8.028   3.439   6.950  1.2128  0.4345  0.4506
29280SOL     OW89846   6.704  10.078   3.798  0.4827 -0.4214  0.0705
29280SOL    HW189847   6.704  10.146   3.865  0.1403 -0.5727  0.2229
29280SOL    HW289848   6.685   9.997   3.845  0.0195 -0.4965 -0.2454
29281SOL     OW89849  10.299  10.481   0.339  0.1913 -0.1915  0.3982
29281SOL    HW189850  10.283  10.422   0.412  2.4607  0.8180  1.8198
29281SOL    HW289851  10.339  10.427   0.271 -1.3344 -1.0093  0.1236
29282SOL     OW89852   2.800   7.819   1.564  1.3369 -0.0860 -0.1217
29282SOL    HW189853   2.784   7.726   1.584  0.9761  0.1759  0.8714
29282SOL    HW289854   2.790   7.825   1.469 -2.3008 -0.4164  0.1004
29283SOL     OW89855   6.267   2.383   4.684  0.4731  0.5463 -0.1225
29283SOL    HW189856   6.242   2.415   4.597  2.3369 -1.5341 -1.5237
29283SOL    HW289857   6.214   2.305   4.697  0.4600  0.6505  0.4561
29284SOL     OW89858   0.725   7.331   7.480  0.0581 -0.1221 -0.2010
29284SOL    HW189859   0.644   7.283   7.465  0.7971 -1.5271  0.1680
29284SOL    HW289860   0.746   7.369   7.395  0.3103 -1.8273 -0.9410
29285SOL     OW89861   9.137   0.066   3.692 -0.0234  0.1491 -0.1944
29285SOL    HW189862   9.091   0.140   3.732  1.9639  1.5454 -0.3352
29285SOL    HW289863   9.159   0.008   3.765  0.5796  0.9758  0.3055
29286SOL     OW89864   0.673   4.921   3.080 -0.1534  0.1946  0.0492
29286SOL    HW189865   0.662   4.864   3.157 -0.4138 -0.9150 -0.7782
29286SOL    HW289866   0.658   4.863   3.006  1.5218  0.8968 -0.8884
29287SOL     OW89867   5.264   7.909   7.447 -0.0532 -0.1675 -0.7289
29287SOL    HW189868   5.286   8.000   7.466 -0.0369 -0.2177 -0.5057
29287SOL    HW289869   5.184   7.915   7.393  0.9692  0.0461 -2.2930
29288SOL     OW89870   7.940   6.384   2.919  0.4535  0.3107  0.5310
29288SOL    HW189871   7.977   6.384   3.008  1.8008 -0.6440 -0.0022
29288SOL    HW289872   7.850   6.354   2.932  0.5883  0.2978  1.5984
29289SOL     OW89873   6.276   0.069   8.605  0.1170 -0.4766  0.3532
29289SOL    HW189874   6.284   0.164   8.599  1.5834 -0.5306  0.8853
29289SOL    HW289875   6.321   0.036   8.527  0.5495 -0.7428  0.7079
29290SOL     OW89876   1.341   0.319   7.428 -0.2785  0.2471  0.3968
29290SOL    HW189877   1.369   0.244   7.376  0.8224  1.2549 -0.5208
29290SOL    HW289878   1.375   0.301   7.516 -1.4201 -1.0692  0.5917
29291SOL     OW89879   9.082   6.576  10.785 -0.4706  0.3165 -0.1001
29291SOL    HW189880   9.024   6.640  10.745  1.4769  1.6725 -0.9126
29291SOL    HW289881   9.168   6.596  10.749  0.7192 -0.8630  1.9172
29292SOL     OW89882   3.831   8.632   3.581  0.2948 -0.0934  0.1260
29292SOL    HW189883   3.858   8.610   3.670 -0.7742  0.0508  0.5047
29292SOL    HW289884   3.797   8.550   3.544  0.7940 -0.1675 -0.1728
29293SOL     OW89885   4.494   8.881   3.411  0.1499  0.0216 -0.2067
29293SOL    HW189886   4.588   8.895   3.399  0.2527  0.3788  0.8630
29293SOL    HW289887   4.466   8.835   3.332  0.6146  2.5201 -1.9283
29294SOL     OW89888   3.800   2.911  10.379  0.0644 -0.0456 -0.1933
29294SOL    HW189889   3.724   2.895  10.435 -0.4084  0.8460 -0.5574
29294SOL    HW289890   3.793   3.003  10.355  0.5887 -0.2643 -1.2362
29295SOL     OW89891   6.065   4.566   2.334  0.9760 -0.1469  0.0024
29295SOL    HW189892   6.098   4.556   2.423 -0.3462  0.1054  0.5340
29295SOL    HW289893   6.090   4.484   2.291 -0.4516 -1.3479  1.3078
29296SOL     OW89894   6.729  10.016   0.962 -0.4178  0.2127  0.4494
29296SOL    HW189895   6.723  10.085   0.897 -0.2403  0.0432  0.2514
29296SOL    HW289896   6.724  10.061   1.046  2.2811  0.7783  0.3929
29297SOL     OW89897   6.989  10.519   4.967  0.6331  0.0324 -0.6864
29297SOL    HW189898   7.010  10.527   5.060 -0.2867  0.3645 -0.5025
29297SOL    HW289899   6.919  10.582   4.952  0.5292 -0.2648 -1.5364
29298SOL     OW89900   3.192   1.022   8.379  0.1592 -0.2336  0.0553
29298SOL    HW189901   3.157   1.098   8.426 -1.9527 -2.2988  2.0907
29298SOL    HW289902   3.286   1.037   8.375 -0.2144  2.7297 -0.1934
29299SOL     OW89903   6.384   5.047   0.853  0.9482  0.4836 -0.1769
29299SOL    HW189904   6.293   5.019   0.855  1.5391 -1.7859 -1.2145
29299SOL    HW289905   6.390   5.115   0.920 -1.3678  0.3131  0.2791
29300SOL     OW89906   4.231   6.165   7.512 -0.2481  0.1753 -0.3961
29300SOL    HW189907   4.224   6.229   7.442  0.3016 -0.7876 -1.3678
29300SOL    HW289908   4.323   6.168   7.537  0.0027 -0.8875 -1.1200
29301SOL     OW89909  10.177   6.985   1.808 -0.1215  0.4552 -0.4368
29301SOL    HW189910  10.171   6.910   1.867  1.2456  1.0068  0.4505
29301SOL    HW289911  10.092   6.989   1.765 -1.5755  0.6754  2.2985
29302SOL     OW89912   7.623   5.987   3.436 -0.1163 -0.3561  0.0134
29302SOL    HW189913   7.573   5.908   3.415 -0.3281  0.3319 -2.3766
29302SOL    HW289914   7.572   6.030   3.505 -0.1185 -2.1334  1.1974
29303SOL     OW89915   8.393  10.942   6.150 -0.1163 -0.2453 -0.0597
29303SOL    HW189916   8.298  10.948   6.139  0.0956  3.0062 -1.2965
29303SOL    HW289917   8.407  10.928   6.243 -1.8269 -0.2112  0.2206
29304SOL     OW89918   6.293   4.856   6.313 -0.1787 -0.1457 -0.1784
29304SOL    HW189919   6.322   4.802   6.386  2.2404  1.5560  0.2611
29304SOL    HW289920   6.272   4.941   6.353  0.1936  0.5018 -1.3195
29305SOL     OW89921   8.435   0.378   7.847 -0.2120  0.4370  0.3063
29305SOL    HW189922   8.530   0.389   7.855 -0.3166  0.5601  1.5048
29305SOL    HW289923   8.409   0.329   7.924 -1.3869  2.1829  1.0875
29306SOL     OW89924   5.089   1.297   9.100  0.1768 -0.6260  0.2681
29306SOL    HW189925   5.085   1.231   9.030  0.9218  2.1398 -2.6140
29306SOL    HW289926   5.004   1.340   9.097  0.2722 -0.3721  1.0133
29307SOL     OW89927   6.115   9.992   7.988  0.6423  0.2677  0.1231
29307SOL    HW189928   6.169  10.062   7.954  0.8721 -0.1212 -0.3196
29307SOL    HW289929   6.048   9.978   7.921  1.4726 -0.9326 -0.4977
29308SOL     OW89930  10.092   5.187   4.104  0.2176  0.6556 -0.3800
29308SOL    HW189931  10.124   5.149   4.186  1.4748  0.2660 -1.0239
29308SOL    HW289932  10.008   5.143   4.090  1.9839 -2.7375 -1.5469
29309SOL     OW89933   4.378   8.996   3.029  0.3286  0.6145  0.3642
29309SOL    HW189934   4.410   9.075   2.987 -0.4055  0.3338 -0.7778
29309SOL    HW289935   4.306   9.025   3.085  1.0439  0.9374  1.1323
29310SOL     OW89936   7.123   3.984   5.591  0.8423 -0.1179  0.2047
29310SOL    HW189937   7.192   4.040   5.555  2.8718 -1.3701  1.9184
29310SOL    HW289938   7.089   3.936   5.515  3.1785 -0.8065 -0.4725
29311SOL     OW89939   6.444   3.395   4.894 -0.3792  0.0192 -0.1620
29311SOL    HW189940   6.493   3.468   4.858  1.2600 -0.6445  0.6001
29311SOL    HW289941   6.470   3.391   4.986 -0.4831 -1.4447 -0.1602
29312SOL     OW89942   2.534   2.011   2.046 -0.4456 -0.4231  0.0268
29312SOL    HW189943   2.501   1.929   2.011  0.4993 -0.5638 -0.5705
29312SOL    HW289944   2.629   1.999   2.052 -0.2160  0.8185 -0.6376
29313SOL     OW89945   7.768   1.419   6.603 -0.2298 -0.4663  0.0757
29313SOL    HW189946   7.793   1.331   6.630  0.8536 -0.1900  0.0108
29313SOL    HW289947   7.804   1.429   6.515  0.5817  0.4070  0.4862
29314SOL     OW89948   9.404   8.894   1.026 -0.3407 -0.3265 -0.8617
29314SOL    HW189949   9.361   8.973   1.060  0.8879  0.0916 -0.2422
29314SOL    HW289950   9.382   8.826   1.090  1.5349  0.3421  0.5786
29315SOL     OW89951  10.469   4.885   2.489  0.4787  0.0134  0.2144
29315SOL    HW189952  10.411   4.949   2.531 -1.6364 -0.8483 -1.1822
29315SOL    HW289953  10.499   4.928   2.409  0.0010 -0.2760 -0.1322
29316SOL     OW89954   7.695   4.323   8.602  0.0883 -0.3559  0.0493
29316SOL    HW189955   7.734   4.280   8.525  0.7103  0.2778  0.0014
29316SOL    HW289956   7.768   4.370   8.643  0.2437 -2.2057  2.1241
29317SOL     OW89957   4.195   2.307   7.615 -0.4605 -0.5224  0.5219
29317SOL    HW189958   4.150   2.384   7.648 -0.9176 -1.1881  1.4867
29317SOL    HW289959   4.282   2.338   7.591 -0.3875  0.1338  1.6082
29318SOL     OW89960   8.875   3.255   1.772 -0.6717 -0.2159  0.2741
29318SOL    HW189961   8.796   3.284   1.817 -0.8687 -0.1773 -0.0914
29318SOL    HW289962   8.930   3.217   1.841 -0.5360  0.7460  0.7166
29319SOL     OW89963   3.239   0.982   1.160 -0.2954 -0.2417  0.3379
29319SOL    HW189964   3.225   0.972   1.066  0.5525  2.3492 -0.1488
29319SOL    HW289965   3.160   1.026   1.192 -0.0244  0.0848  0.5697
29320SOL     OW89966   0.632  10.270   3.509 -0.1545 -0.5238  0.2995
29320SOL    HW189967   0.678  10.310   3.582 -0.1334 -0.5616  0.3070
29320SOL    HW289968   0.630  10.176   3.529  0.2985 -0.6015  0.0089
29321SOL     OW89969   9.684   6.042   2.624 -0.5151  0.0460 -0.0725
29321SOL    HW189970   9.601   6.010   2.588 -0.5498 -0.6295  0.6012
29321SOL    HW289971   9.743   5.966   2.621 -1.0793 -0.6413  3.0795
29322SOL     OW89972   6.637   3.517   8.700  0.0431 -0.0661  0.1236
29322SOL    HW189973   6.547   3.486   8.691 -0.4912  0.0435  3.5242
29322SOL    HW289974   6.690   3.437   8.705 -0.1070 -0.1835 -0.1881
29323SOL     OW89975  10.696   3.435   8.748 -0.1008 -0.4116  0.2304
29323SOL    HW189976  10.647   3.517   8.754 -0.8700 -0.7864 -0.6508
29323SOL    HW289977  10.782   3.455   8.785  0.8748  1.7171 -2.8743
29324SOL     OW89978  10.099   1.733   2.353 -0.2818  0.2132 -0.3375
29324SOL    HW189979  10.059   1.791   2.288  1.2694 -0.8330 -2.3497
29324SOL    HW289980  10.167   1.786   2.394 -1.1026  0.7994  0.3233
29325SOL     OW89981   6.227   9.367  10.783 -0.4860 -0.4599  0.1919
29325SOL    HW189982   6.274   9.373  10.700 -0.8805  0.7368  0.0295
29325SOL    HW289983   6.201   9.275  10.790 -0.2257 -0.6273 -0.8807
29326SOL     OW89984   7.395   7.618   6.943 -0.1311  0.3664 -0.3710
29326SOL    HW189985   7.321   7.635   7.002  0.5025 -1.2985  0.9842
29326SOL    HW289986   7.402   7.523   6.941  0.6816  0.4376 -2.1683
29327SOL     OW89987   0.555   6.689   2.799  0.2971 -0.3060  0.9292
29327SOL    HW189988   0.648   6.696   2.780  0.4894 -0.0315  1.8848
29327SOL    HW289989   0.549   6.623   2.868 -0.1539  0.0588  1.2520
29328SOL     OW89990   9.416   1.453   3.890  0.3038  0.0902 -0.3387
29328SOL    HW189991   9.349   1.403   3.937  0.3524  0.6052  0.2920
29328SOL    HW289992   9.383   1.460   3.801 -1.1422  1.4580  0.2602
29329SOL     OW89993   1.080   9.608   1.689 -0.2723  0.5764 -0.3485
29329SOL    HW189994   1.110   9.600   1.599 -0.6406  1.5977 -0.5659
29329SOL    HW289995   0.998   9.559   1.692 -0.7251  1.3113 -0.7922
29330SOL     OW89996  10.907   1.672   6.407 -0.1694 -0.1972 -0.3379
29330SOL    HW189997  10.833   1.704   6.356  0.4363  0.9878 -0.5200
29330SOL    HW289998  10.937   1.748   6.457  1.3951 -0.4270 -0.8456
29331SOL     OW89999   0.276   7.529   2.311 -0.2557  0.7158  0.2238
29331SOL    HW190000   0.349   7.468   2.297 -0.0480 -0.2734  4.1867
29331SOL    HW290001   0.220   7.518   2.235  1.3248 -2.1910 -0.6837
29332SOL     OW90002  10.287   7.863   5.170 -0.1715 -0.2381  0.3097
29332SOL    HW190003  10.208   7.902   5.207 -0.4657  0.8996 -1.3716
29332SOL    HW290004  10.358   7.921   5.199 -0.1390 -0.4409  0.6421
29333SOL     OW90005   8.017   9.222   5.493  0.6099  0.5028 -0.6348
29333SOL    HW190006   7.998   9.188   5.580  1.7143 -0.0601 -0.6024
29333SOL    HW290007   7.948   9.287   5.477 -0.2270 -0.1504  0.2099
29334SOL     OW90008  10.941   6.555   7.871 -0.3301 -0.2386 -0.5088
29334SOL    HW190009  11.008   6.610   7.832  0.1072 -0.6435 -0.3357
29334SOL    HW290010  10.858   6.599   7.849  0.0733  2.6993  2.8347
29335SOL     OW90011   1.925   5.900  10.259  0.3146 -0.3382 -0.0683
29335SOL    HW190012   1.943   5.978  10.208 -1.8039 -1.2763 -2.4893
29335SOL    HW290013   2.009   5.856  10.268  0.8265 -0.0062 -2.6355
29336SOL     OW90014   9.261  10.280   3.311  0.7624 -0.4074  0.1855
29336SOL    HW190015   9.316  10.337   3.364  0.6282 -0.0567 -0.0538
29336SOL    HW290016   9.181  10.330   3.296  1.1621 -0.1391 -1.1080
29337SOL     OW90017   5.189   9.511   7.735 -0.3743  0.2615 -0.6214
29337SOL    HW190018   5.249   9.556   7.677 -0.5579  1.5135  0.1324
29337SOL    HW290019   5.207   9.547   7.822 -2.9834  1.5894 -0.5141
29338SOL     OW90020   7.204   3.628   1.343 -0.6065 -0.6012 -0.1336
29338SOL    HW190021   7.293   3.594   1.348  0.0088  0.9737  0.4279
29338SOL    HW290022   7.201   3.698   1.408 -1.8889  0.1753 -0.9674
29339SOL     OW90023   6.605   2.790   4.261 -0.2822 -0.7164  0.5683
29339SOL    HW190024   6.660   2.835   4.325  1.0799 -0.1766 -0.9246
29339SOL    HW290025   6.519   2.832   4.270  0.6074  1.3225  0.1378
29340SOL     OW90026   7.991   8.743   6.374  0.1093 -0.0832  0.5488
29340SOL    HW190027   8.015   8.835   6.359  0.8166  0.0468  2.2454
29340SOL    HW290028   8.070   8.694   6.353 -0.0595 -0.2523  0.2964
29341SOL     OW90029  10.797   6.649   1.992  0.0984  0.2800 -0.0221
29341SOL    HW190030  10.788   6.598   2.073  1.2052  0.7555  0.4093
29341SOL    HW290031  10.882   6.623   1.957 -0.5017 -0.1485 -1.2102
29342SOL     OW90032   5.220   4.463  10.222  0.0847 -0.4034  0.3579
29342SOL    HW190033   5.240   4.423  10.138 -0.4607 -0.4690  0.2548
29342SOL    HW290034   5.305   4.492  10.256  0.0426  2.8046 -1.8110
29343SOL     OW90035   3.687   1.359   5.045 -0.4073 -0.1672  0.1199
29343SOL    HW190036   3.739   1.316   5.113  0.0620 -0.1562 -0.2258
29343SOL    HW290037   3.598   1.324   5.056  0.0046 -1.3665 -0.2745
29344SOL     OW90038   6.641  10.591   5.962 -0.0040  0.3479  0.0545
29344SOL    HW190039   6.574  10.659   5.973 -0.8259 -0.7347  2.1571
29344SOL    HW290040   6.719  10.639   5.934 -1.0688  1.8897 -0.4201
29345SOL     OW90041   5.992  10.638   7.562  0.0411 -0.0441  0.0892
29345SOL    HW190042   5.980  10.672   7.474  0.3062 -2.2995 -0.8841
29345SOL    HW290043   6.049  10.702   7.605 -2.0771  2.4168 -0.4627
29346SOL     OW90044   9.675   8.984   6.267  0.4621  0.0182 -0.0140
29346SOL    HW190045   9.740   8.974   6.336  0.2001 -0.3391  0.1844
29346SOL    HW290046   9.689   9.072   6.234 -0.5888  0.8878  1.7122
29347SOL     OW90047  10.589   4.659   8.283 -0.6429 -0.1218 -0.1050
29347SOL    HW190048  10.529   4.720   8.241 -1.4567  0.2692  1.5537
29347SOL    HW290049  10.533   4.602   8.335  0.3098 -0.6490  0.3692
29348SOL     OW90050   6.750  10.506   3.236  0.1561 -0.0394 -0.0843
29348SOL    HW190051   6.694  10.584   3.240 -2.1915 -1.4538 -1.9145
29348SOL    HW290052   6.766  10.483   3.327  0.7648  2.4307  0.5055
29349SOL     OW90053   4.552  10.836   0.067  0.0656  0.1571 -0.0304
29349SOL    HW190054   4.589  10.894  -0.001  1.8887  0.3561  1.0646
29349SOL    HW290055   4.556  10.889   0.147 -0.8504 -0.5254  0.4724
29350SOL     OW90056   0.692   8.150   2.799  0.3376  0.0462 -0.7521
29350SOL    HW190057   0.735   8.177   2.880 -0.2870 -0.4613 -0.2413
29350SOL    HW290058   0.607   8.194   2.801  0.9857  1.4422 -1.9936
29351SOL     OW90059   0.689  10.384   7.540  0.3512 -0.9571  0.0575
29351SOL    HW190060   0.696  10.289   7.555 -2.5114 -0.9390  2.2153
29351SOL    HW290061   0.676  10.421   7.627  1.4322  1.4916 -0.7474
29352SOL     OW90062   7.897  10.209   9.995 -0.0734 -0.4963  0.4675
29352SOL    HW190063   7.943  10.204   9.912  0.3497 -1.4480  0.7500
29352SOL    HW290064   7.804  10.205   9.971 -0.0307  0.9108 -0.0611
29353SOL     OW90065   7.325   1.001   3.642  0.3742  0.6843 -0.0691
29353SOL    HW190066   7.249   0.962   3.599  0.5621 -0.9717  0.9901
29353SOL    HW290067   7.323   1.093   3.616 -1.7650  0.6073 -0.3964
29354SOL     OW90068   3.108   1.854   4.232  0.1435 -0.7843 -0.1873
29354SOL    HW190069   3.195   1.815   4.244  1.1852  1.4710  0.0613
29354SOL    HW290070   3.108   1.888   4.143 -0.5460 -0.8401 -0.2198
29355SOL     OW90071   4.219   4.219   3.451  0.9187  0.1500  0.2650
29355SOL    HW190072   4.248   4.277   3.381  2.4249 -0.8147  0.0484
29355SOL    HW290073   4.222   4.273   3.530  0.6649  0.8193 -0.1730
29356SOL     OW90074   4.831   0.455  10.356  0.8490 -0.9995  0.6564
29356SOL    HW190075   4.798   0.368  10.336 -0.9333 -0.3632  0.6644
29356SOL    HW290076   4.769   0.491  10.420  1.1348  0.5420  0.1253
29357SOL     OW90077   3.560   2.342   0.892 -0.4151 -0.4267 -0.1023
29357SOL    HW190078   3.571   2.426   0.847  2.1699  0.4589  1.9555
29357SOL    HW290079   3.528   2.283   0.824  2.0637  1.0961 -2.8202
29358SOL     OW90080   9.846   1.692   8.404 -0.2414 -0.9559 -0.5052
29358SOL    HW190081   9.751   1.695   8.392 -0.1497 -1.0274 -1.3091
29358SOL    HW290082   9.860   1.727   8.492 -1.0469 -1.4107 -0.1825
29359SOL     OW90083   6.900   7.909   4.747  0.3860 -0.2033  0.0384
29359SOL    HW190084   6.864   7.969   4.682  0.6433 -0.4235 -0.3148
29359SOL    HW290085   6.994   7.928   4.747  0.3161  0.1863  0.7608
29360SOL     OW90086   8.308   2.050   7.026 -0.6518 -0.2802 -0.2034
29360SOL    HW190087   8.312   2.137   6.987 -1.1874 -0.2943 -0.3026
29360SOL    HW290088   8.234   2.054   7.087 -2.4993 -1.4139 -2.1945
29361SOL     OW90089   5.442   7.147  10.733 -0.6899  0.0154 -0.2712
29361SOL    HW190090   5.453   7.141  10.639 -1.3490 -1.8997 -0.2813
29361SOL    HW290091   5.395   7.066  10.757  1.2887 -0.5963  1.9412
29362SOL     OW90092   0.223   5.856  10.098 -0.4479  0.1360 -0.5953
29362SOL    HW190093   0.209   5.950  10.106 -0.9009 -0.0114  0.5350
29362SOL    HW290094   0.166   5.817  10.164  1.7505 -0.7881  0.8677
29363SOL     OW90095   9.946   5.717   1.372  0.4821 -0.2058  0.3676
29363SOL    HW190096   9.994   5.692   1.294 -2.0438  0.1112 -1.4286
29363SOL    HW290097   9.858   5.681   1.358 -0.6338  1.6667  2.0472
29364SOL     OW90098  10.515   9.615  10.148  0.3569  0.3280 -0.3373
29364SOL    HW190099  10.487   9.526  10.170  0.4862  0.5896  0.9872
29364SOL    HW290100  10.465   9.637  10.069 -0.2984 -0.6150 -0.2056
29365SOL     OW90101  11.055   1.288   6.052 -0.1172  0.3360 -0.4349
29365SOL    HW190102  11.019   1.374   6.072 -1.5865 -0.5598  0.9271
29365SOL    HW290103  11.143   1.306   6.017  0.2060  2.3043  1.2487
29366SOL     OW90104   2.024   2.161   3.538 -0.3361  0.2242  0.3076
29366SOL    HW190105   2.017   2.237   3.596 -0.4314 -0.9924  1.9394
29366SOL    HW290106   1.937   2.121   3.540 -0.3426  0.1524 -0.6959
29367SOL     OW90107   1.262   8.616   2.463  0.1907  0.1640 -0.6107
29367SOL    HW190108   1.294   8.551   2.526 -1.0020  0.7009  0.5913
29367SOL    HW290109   1.202   8.567   2.406 -1.6985  0.4011  1.0794
29368SOL     OW90110  10.032   4.151   2.986  0.3401 -0.3779  0.1850
29368SOL    HW190111  10.091   4.110   3.050 -0.7784 -1.4648  0.5735
29368SOL    HW290112  10.000   4.230   3.031  1.1833  0.0239  0.1113
29369SOL     OW90113   5.415   3.797   0.087 -0.1716  0.2971  0.7713
29369SOL    HW190114   5.404   3.761  -0.002 -1.8352 -0.6765  1.3211
29369SOL    HW290115   5.505   3.774   0.110  0.2323  0.3960 -0.5861
29370SOL     OW90116   7.424   0.004   4.973  0.3517 -0.5625 -0.0564
29370SOL    HW190117   7.416  -0.088   4.951 -0.5853 -0.3265 -0.7648
29370SOL    HW290118   7.398   0.050   4.893 -1.4427  0.3131  0.9739
29371SOL     OW90119   9.344   2.876   0.097 -0.4344 -0.0506 -0.2848
29371SOL    HW190120   9.250   2.858   0.102 -0.5394  0.7149  0.6457
29371SOL    HW290121   9.359   2.945   0.160  0.7683 -0.1543 -0.4316
29372SOL     OW90122   9.204   0.271   7.605  0.5926  0.0887  0.7666
29372SOL    HW190123   9.281   0.326   7.617  1.3828 -0.8664  0.1933
29372SOL    HW290124   9.181   0.242   7.693  3.0739 -2.4963  0.6961
29373SOL     OW90125   6.642   9.979   3.543 -0.2985  0.0849 -0.5702
29373SOL    HW190126   6.649  10.073   3.556  0.8125 -0.2034  1.2682
29373SOL    HW290127   6.733   9.948   3.538 -0.5876 -1.0752  0.6121
29374SOL     OW90128   3.317   8.381   4.923 -0.0383 -0.0408 -0.1244
29374SOL    HW190129   3.235   8.400   4.968  1.0720  0.8753  1.6250
29374SOL    HW290130   3.332   8.288   4.936 -0.9175 -0.2762 -0.7114
29375SOL     OW90131   6.895   1.963   3.498 -0.0126 -0.4471  0.9665
29375SOL    HW190132   6.814   2.013   3.501 -0.4048 -1.0909  3.0695
29375SOL    HW290133   6.963   2.028   3.482 -0.9169  0.0873 -0.9199
29376SOL     OW90134   6.832   8.726   2.882 -0.3628 -0.0194  0.0937
29376SOL    HW190135   6.890   8.758   2.813 -0.1267 -1.4739 -0.4082
29376SOL    HW290136   6.751   8.776   2.869  0.3516  1.1430  0.0276
29377SOL     OW90137   4.955  10.360   1.612 -0.8293  0.1001 -0.8374
29377SOL    HW190138   4.979  10.447   1.581 -2.7612  1.5422  1.3572
29377SOL    HW290139   4.885  10.332   1.553 -1.8637  1.1400 -0.1460
29378SOL     OW90140   0.463   2.744  10.603  0.6439 -0.6775 -0.0666
29378SOL    HW190141   0.431   2.834  10.613 -0.3997 -1.1158  0.6785
29378SOL    HW290142   0.436   2.720  10.515  1.1996 -0.1667 -0.3882
29379SOL     OW90143   6.717  10.836   1.402 -0.2339 -0.3962 -0.1786
29379SOL    HW190144   6.690  10.747   1.379 -0.8881 -0.6955  1.6536
29379SOL    HW290145   6.662  10.892   1.348 -0.0793 -1.0701 -1.0777
29380SOL     OW90146   6.597   9.446   4.337  0.0017 -0.7170  0.7063
29380SOL    HW190147   6.601   9.352   4.357  0.9781 -0.5931  1.1587
29380SOL    HW290148   6.599   9.489   4.422 -0.6679 -0.2855  0.5093
29381SOL     OW90149   9.351   8.293  10.878 -0.4472  0.5730  0.2650
29381SOL    HW190150   9.418   8.225  10.886 -0.7442  0.3503  0.8747
29381SOL    HW290151   9.283   8.253  10.823 -0.8167  0.2152  0.9689
29382SOL     OW90152   6.963   2.596   4.726  0.0969  0.9995 -0.0395
29382SOL    HW190153   7.002   2.541   4.794 -0.1304  0.1191 -0.6014
29382SOL    HW290154   6.871   2.603   4.750  0.2556  1.6831  0.3827
29383SOL     OW90155   0.431   7.533   1.693  0.1277 -0.1325 -0.3479
29383SOL    HW190156   0.488   7.572   1.759  0.9100 -1.3014 -0.2992
29383SOL    HW290157   0.343   7.563   1.716  0.7631  2.2426 -0.8300
29384SOL     OW90158   4.556   9.134   6.878 -0.4949  0.3441  0.4714
29384SOL    HW190159   4.537   9.052   6.833  0.4835  0.0479  0.5737
29384SOL    HW290160   4.565   9.110   6.970  0.3767  0.4488  0.4261
29385SOL     OW90161   7.721   4.314   1.382 -0.3147  0.2790 -0.1549
29385SOL    HW190162   7.749   4.244   1.323  1.3727  0.6688  0.1348
29385SOL    HW290163   7.631   4.290   1.406  0.3463 -2.0076  0.2585
29386SOL     OW90164   1.009   9.027   0.286  0.1871 -0.2289 -0.0104
29386SOL    HW190165   1.045   8.987   0.365 -1.7399  0.4184  1.2537
29386SOL    HW290166   1.011   8.956   0.220  3.1165 -0.3827  0.1080
29387SOL     OW90167   6.418   0.132   2.542 -0.5209  0.7364  0.0917
29387SOL    HW190168   6.340   0.159   2.591 -0.8249 -0.9437  0.6079
29387SOL    HW290169   6.384   0.103   2.457 -0.4464  0.1912  0.2442
29388SOL     OW90170   0.991   8.909  10.217  0.0993  0.2655  0.4300
29388SOL    HW190171   1.046   8.922  10.294  0.4076  1.3449  0.0436
29388SOL    HW290172   0.903   8.934  10.245 -0.0016 -0.4326  0.7456
29389SOL     OW90173   2.415   0.432   8.416  0.2146  0.7574  0.0558
29389SOL    HW190174   2.332   0.467   8.382  0.2040 -0.4786 -1.3301
29389SOL    HW290175   2.476   0.440   8.342  0.8238 -0.0039  0.4573
29390SOL     OW90176   2.381   0.118   3.290  0.5139  0.0263  0.1723
29390SOL    HW190177   2.312   0.083   3.233 -0.1794  0.0280  0.9942
29390SOL    HW290178   2.343   0.198   3.327  1.2708  0.4718 -0.0019
29391SOL     OW90179   3.779   1.136   1.896 -0.0362  0.3750  0.5142
29391SOL    HW190180   3.785   1.130   1.801  1.8008  0.8486  0.5592
29391SOL    HW290181   3.837   1.066   1.928  0.0783  0.7997  1.2509
29392SOL     OW90182   1.589  10.760   7.828 -0.1302 -0.3796  0.3151
29392SOL    HW190183   1.605  10.852   7.849 -1.8713  0.3045 -1.0140
29392SOL    HW290184   1.640  10.745   7.748 -0.4873 -0.2931  0.0648
29393SOL     OW90185   9.058   0.304   2.278 -0.2038  0.5271 -0.3767
29393SOL    HW190186   9.128   0.318   2.215  0.8974 -1.8032  0.2300
29393SOL    HW290187   8.981   0.282   2.225 -0.0961  1.5216 -0.9763
29394SOL     OW90188   4.736   9.148   4.280  0.7485  0.6040 -0.1922
29394SOL    HW190189   4.752   9.060   4.315 -0.4480  0.7844  0.8934
29394SOL    HW290190   4.790   9.205   4.336 -0.2823  0.7736  0.6717
29395SOL     OW90191   2.507   6.608   0.374  0.1915 -0.4190 -0.0290
29395SOL    HW190192   2.420   6.584   0.343 -0.0221 -1.0263  0.9681
29395SOL    HW290193   2.563   6.606   0.297 -0.7633  0.4664 -0.7739
29396SOL     OW90194   7.987   8.598   2.940  0.0163 -0.8410  0.1865
29396SOL    HW190195   7.897   8.580   2.913 -0.0732  0.0319 -0.1092
29396SOL    HW290196   7.983   8.600   3.036 -0.2909 -0.7391  0.1718
29397SOL     OW90197   6.187   2.738  10.717 -0.0278 -0.0798 -0.0186
29397SOL    HW190198   6.220   2.648  10.710  1.3189  0.4588 -1.1244
29397SOL    HW290199   6.146   2.741  10.803 -0.3657 -1.8307 -0.0688
29398SOL     OW90200   5.866   5.985   3.064 -0.0582  0.1868  0.7190
29398SOL    HW190201   5.895   5.920   3.128 -0.0570 -1.5074 -0.9352
29398SOL    HW290202   5.837   6.059   3.118 -2.2257 -2.0081  2.8382
29399SOL     OW90203   6.915   5.350   9.694  0.3181  0.2139 -0.6386
29399SOL    HW190204   6.870   5.359   9.778  0.3060  0.0962 -0.6323
29399SOL    HW290205   6.996   5.304   9.715  0.1444 -0.1385 -0.7486
29400SOL     OW90206   2.455   0.394   1.887 -0.0207 -0.1885  0.2871
29400SOL    HW190207   2.447   0.394   1.982 -1.4079  3.0241  0.3051
29400SOL    HW290208   2.379   0.344   1.857  0.6855 -1.6335  0.8118
29401SOL     OW90209   9.035   5.600   1.472 -0.0612 -0.1062  0.0227
29401SOL    HW190210   9.022   5.662   1.544  0.8901 -0.8958  0.9036
29401SOL    HW290211   8.954   5.549   1.471 -1.3624  1.8610 -1.4892
29402SOL     OW90212   6.985   0.659   0.621 -0.2539  0.1808 -0.0260
29402SOL    HW190213   7.032   0.728   0.575  0.4191  0.7544  1.4466
29402SOL    HW290214   7.050   0.589   0.630 -0.3503  0.1132  0.1403
29403SOL     OW90215   1.709   9.455   2.957  0.0433  0.1661 -0.1074
29403SOL    HW190216   1.672   9.368   2.969  0.4320  0.0176  0.0244
29403SOL    HW290217   1.730   9.460   2.864 -1.0953  0.5711 -0.3644
29404SOL     OW90218   9.334   1.296   1.467  0.2023 -0.8866 -0.1695
29404SOL    HW190219   9.300   1.270   1.381  0.7581 -0.8163 -0.4173
29404SOL    HW290220   9.332   1.216   1.519  2.0626 -1.5256 -0.9779
29405SOL     OW90221   4.582   9.445   6.874 -0.3097  0.6574  0.4524
29405SOL    HW190222   4.537   9.361   6.876 -1.0025  1.0342  1.3752
29405SOL    HW290223   4.515   9.507   6.842  0.2139  0.8512 -0.2929
29406SOL     OW90224   9.864   5.340   3.700 -0.2033 -0.0804 -0.0698
29406SOL    HW190225   9.773   5.311   3.708  0.0713 -0.9550 -0.0203
29406SOL    HW290226   9.908   5.269   3.653  1.4160 -1.8443  3.6491
29407SOL     OW90227   6.485   0.772   4.683  0.6288  0.5205 -0.0432
29407SOL    HW190228   6.477   0.865   4.704  0.9736  0.4417  0.4785
29407SOL    HW290229   6.547   0.738   4.749  0.1950 -0.1548  0.0316
29408SOL     OW90230   9.318   8.843  10.658  0.4256 -0.0977 -0.1134
29408SOL    HW190231   9.240   8.791  10.679 -0.4705  1.4182  0.5451
29408SOL    HW290232   9.305   8.870  10.567 -1.3333  2.4695  0.7737
29409SOL     OW90233   9.151   6.354   3.426 -0.3468  0.1417  0.1151
29409SOL    HW190234   9.244   6.352   3.448 -0.2917 -0.0337 -0.1292
29409SOL    HW290235   9.118   6.269   3.455 -0.1428 -0.3504 -1.0361
29410SOL     OW90236  10.776   9.607  10.268  0.0215 -0.2795  0.3280
29410SOL    HW190237  10.729   9.553  10.332 -1.0179  1.9054  1.5187
29410SOL    HW290238  10.707   9.647  10.216  0.6664  1.0687  0.4799
29411SOL     OW90239   5.682   4.717  11.021 -0.5838 -0.1226 -0.2804
29411SOL    HW190240   5.743   4.660  11.066 -0.8288  0.2156  0.4926
29411SOL    HW290241   5.608   4.661  10.999 -1.0981  0.0112  1.0278
29412SOL     OW90242   0.730   5.742  10.473 -0.6352 -0.1539  0.2106
29412SOL    HW190243   0.733   5.831  10.438  0.7471 -0.1785  0.2416
29412SOL    HW290244   0.704   5.687  10.399 -2.3729  0.3479  0.3957
29413SOL     OW90245   8.037  10.815   4.529  0.0911 -0.4115 -0.4311
29413SOL    HW190246   8.091  10.756   4.477  0.4192  0.0805 -0.6610
29413SOL    HW290247   8.019  10.889   4.470  0.1806 -0.0050  0.0406
29414SOL     OW90248   0.956   3.271   4.946  0.3397 -0.3028  0.3029
29414SOL    HW190249   0.863   3.254   4.932 -0.0357 -0.2895  2.4582
29414SOL    HW290250   0.997   3.185   4.945  0.0252 -0.4660  1.0459
29415SOL     OW90251   7.693  11.096   7.412 -0.1931  0.2669  0.1471
29415SOL    HW190252   7.744  11.046   7.476 -2.1880 -1.8706  0.2304
29415SOL    HW290253   7.683  11.183   7.450  1.2497 -0.0273  1.2583
29416SOL     OW90254   8.188   1.799   2.885  0.0781  0.2150  0.1079
29416SOL    HW190255   8.158   1.729   2.943 -0.9936  1.2095  0.7844
29416SOL    HW290256   8.123   1.801   2.815 -0.2707  0.9701  0.4481
29417SOL     OW90257   2.438   7.168   2.322  0.3279 -0.4177 -0.1476
29417SOL    HW190258   2.399   7.160   2.409 -0.0040  0.9373 -0.1505
29417SOL    HW290259   2.432   7.261   2.302 -0.1592 -0.7962 -1.8817
29418SOL     OW90260   4.687   9.538   7.933 -0.2835  0.0059 -0.1399
29418SOL    HW190261   4.753   9.474   7.907  1.5913  1.0936  1.6131
29418SOL    HW290262   4.727   9.623   7.914 -1.8891  0.7253 -0.5389
29419SOL     OW90263   5.863   7.897   0.818  0.2793  0.1349  0.2325
29419SOL    HW190264   5.953   7.864   0.819 -0.5188 -2.2554  0.3520
29419SOL    HW290265   5.871   7.989   0.844  2.6988  0.0996 -0.1057
29420SOL     OW90266   1.622  10.397   4.546 -0.3200  0.3971  0.2597
29420SOL    HW190267   1.574  10.471   4.508 -1.0416 -0.0343  0.3229
29420SOL    HW290268   1.577  10.379   4.629  1.2649  1.3668  1.3848
29421SOL     OW90269   8.667   4.625   0.304  0.2560 -0.2449 -0.1559
29421SOL    HW190270   8.696   4.548   0.354 -2.2309 -0.2462  1.4760
29421SOL    HW290271   8.599   4.591   0.246 -0.8833  0.6436  0.5956
29422SOL     OW90272   9.314   3.639   5.276  0.1526  0.0863 -0.0746
29422SOL    HW190273   9.279   3.604   5.194 -0.9800  1.3035 -0.1610
29422SOL    HW290274   9.289   3.575   5.342 -0.3313 -0.1316 -0.4610
29423SOL     OW90275  10.106   4.309   1.776  0.1136 -0.7333 -0.1084
29423SOL    HW190276  10.110   4.323   1.681 -1.8179 -0.0890 -0.1589
29423SOL    HW290277  10.022   4.264   1.790  0.0430 -0.2161  1.3375
29424SOL     OW90278   5.239   8.522   6.002 -0.0333 -0.2385  0.6352
29424SOL    HW190279   5.272   8.566   5.924  1.8980 -0.3725  1.3194
29424SOL    HW290280   5.267   8.578   6.074  0.9693 -1.6705  1.4141
29425SOL     OW90281   9.274   4.383   6.938 -0.7321  0.0691  0.3090
29425SOL    HW190282   9.270   4.367   6.843 -1.7174 -0.1037  0.3696
29425SOL    HW290283   9.288   4.296   6.976  1.0864  0.2975  0.2739
29426SOL     OW90284  10.723   6.394   3.150  0.2239  0.4854 -0.4536
29426SOL    HW190285  10.795   6.331   3.150  1.0312  1.3886 -1.1127
29426SOL    HW290286  10.726   6.434   3.237  0.1995  0.1669 -0.3055
29427SOL     OW90287   1.974   9.213   5.100  0.1392 -0.3087 -0.0199
29427SOL    HW190288   2.034   9.186   5.169 -0.5842 -0.8788  0.4093
29427SOL    HW290289   1.960   9.307   5.116 -0.5506 -0.5722  1.0474
29428SOL     OW90290   1.478   3.896   8.854 -0.6423  0.5307  0.2753
29428SOL    HW190291   1.526   3.817   8.827  0.6335  1.2795  0.2726
29428SOL    HW290292   1.436   3.927   8.773 -2.5643 -1.0416  0.6018
29429SOL     OW90293   9.873   1.735   4.306  0.1179  0.1373 -0.1139
29429SOL    HW190294   9.801   1.688   4.265 -0.5792  1.3922 -0.3924
29429SOL    HW290295   9.837   1.821   4.328  0.8939  0.0152  1.8397
29430SOL     OW90296   8.818  11.005   4.424 -0.2037 -0.0454 -0.3022
29430SOL    HW190297   8.854  10.968   4.504 -0.9617 -0.8539 -0.3177
29430SOL    HW290298   8.763  11.078   4.455  0.3851  0.3589 -0.1845
29431SOL     OW90299   2.316   0.838   4.097 -0.3312  0.5770  0.4078
29431SOL    HW190300   2.391   0.885   4.133  1.0708 -0.9595 -0.3371
29431SOL    HW290301   2.315   0.862   4.004 -0.2192 -0.0754  0.2341
29432SOL     OW90302   5.100   9.765   4.060  0.0534 -0.1234  0.6795
29432SOL    HW190303   5.169   9.702   4.080 -0.4400 -0.7065  0.5888
29432SOL    HW290304   5.024   9.733   4.108  0.1981  1.2832  1.9041
29433SOL     OW90305   6.600   0.161   5.735 -0.1943 -0.2354  0.4626
29433SOL    HW190306   6.629   0.157   5.826  0.8014  1.7141  0.2652
29433SOL    HW290307   6.593   0.069   5.708 -1.4727 -0.8875  2.7677
29434SOL     OW90308   0.695   3.754   9.393 -0.3467 -0.0929 -0.4867
29434SOL    HW190309   0.652   3.719   9.472  1.4647 -0.2443  0.4874
29434SOL    HW290310   0.677   3.848   9.396 -1.9737 -0.3662 -1.0042
29435SOL     OW90311   4.072  10.671   4.799  0.2598  0.0731  0.6901
29435SOL    HW190312   4.110  10.727   4.867  1.6146 -0.3271  0.2891
29435SOL    HW290313   4.075  10.724   4.719 -0.1362  0.0707  0.6687
29436SOL     OW90314   8.995   3.322   0.987  0.2264 -0.1397  0.0098
29436SOL    HW190315   8.980   3.414   0.969 -1.6271 -0.1257  1.2583
29436SOL    HW290316   9.058   3.321   1.059  1.5658  0.0607 -1.1286
29437SOL     OW90317   1.930   4.915   6.920  0.1587  0.0348 -0.0905
29437SOL    HW190318   2.008   4.897   6.971 -0.0610 -2.6483 -0.5417
29437SOL    HW290319   1.952   4.991   6.867  0.6720  2.4420  3.2803
29438SOL     OW90320  10.830   3.906   7.454 -0.1005 -0.9814  0.6076
29438SOL    HW190321  10.834   3.812   7.469  2.7218 -0.8878  0.8813
29438SOL    HW290322  10.755   3.918   7.395 -0.0641 -3.4734 -0.0412
29439SOL     OW90323   9.754   4.245   9.683  0.0966  0.6942 -0.5433
29439SOL    HW190324   9.821   4.280   9.625  2.1263  1.0865  1.8788
29439SOL    HW290325   9.739   4.315   9.747 -1.7001  0.1027 -0.2667
29440SOL     OW90326   0.544   2.174   4.347 -0.4683  0.0761 -0.0808
29440SOL    HW190327   0.604   2.241   4.314  0.0897 -0.2012  0.3672
29440SOL    HW290328   0.470   2.224   4.382 -0.2418  0.4430 -0.1165
29441SOL     OW90329   8.983  11.031   7.148 -0.6109  0.5069  0.0371
29441SOL    HW190330   8.930  10.982   7.211  0.8601  2.9058  3.5270
29441SOL    HW290331   8.966  11.123   7.169  0.9901  1.4258 -2.2495
29442SOL     OW90332   6.592  10.443   2.353  0.0496 -0.0517  0.2937
29442SOL    HW190333   6.592  10.365   2.297  0.5640  0.7165 -0.8169
29442SOL    HW290334   6.506  10.443   2.394 -0.4880 -0.4551 -0.7909
29443SOL     OW90335   9.625   9.603   3.276 -0.1318 -0.1205 -0.1717
29443SOL    HW190336   9.616   9.691   3.312 -1.7904 -1.4701  3.1629
29443SOL    HW290337   9.699   9.565   3.324 -0.8102 -1.2089  0.0368
29444SOL     OW90338   6.181   3.191   5.929  0.4196  0.1367 -0.1741
29444SOL    HW190339   6.255   3.252   5.932  0.0546  0.5440  1.3330
29444SOL    HW290340   6.211   3.114   5.976 -0.0011  0.1951  0.1996
29445SOL     OW90341   2.496   2.294   1.853 -0.9540  0.3653  0.3322
29445SOL    HW190342   2.522   2.377   1.893  1.7511  0.2709 -1.0084
29445SOL    HW290343   2.522   2.228   1.917  1.2672  0.3561 -0.4732
29446SOL     OW90344   2.440   4.963   6.195  0.1588  0.4914 -0.0811
29446SOL    HW190345   2.424   4.886   6.250 -1.0409 -0.3466 -1.5321
29446SOL    HW290346   2.489   4.929   6.120  0.1846  1.2690 -0.4267
29447SOL     OW90347   7.221   1.686   4.776 -0.5220 -0.0682 -0.0281
29447SOL    HW190348   7.241   1.759   4.717  0.7899  0.8155  1.4382
29447SOL    HW290349   7.277   1.701   4.852 -1.2711 -1.8478  0.9182
29448SOL     OW90350   8.145   3.224   3.235 -0.3588  0.0635  0.2838
29448SOL    HW190351   8.187   3.248   3.152 -1.3817 -0.3208 -0.3678
29448SOL    HW290352   8.164   3.297   3.294  0.5661  0.2388 -0.2186
29449SOL     OW90353   1.868   8.291   0.733  0.4803  0.3254  0.2317
29449SOL    HW190354   1.950   8.329   0.763  0.0857  0.0267  1.7970
29449SOL    HW290355   1.872   8.200   0.762 -0.0686  0.0903 -0.3985
29450SOL     OW90356   7.412  10.352   5.199 -0.0906 -0.3600  0.0065
29450SOL    HW190357   7.418  10.375   5.106  0.1022 -1.1586 -0.1817
29450SOL    HW290358   7.321  10.373   5.223  0.2859  1.3888  0.0699
29451SOL     OW90359   0.510   2.718   5.298 -0.1154  0.4836 -0.0880
29451SOL    HW190360   0.495   2.775   5.374 -0.1612  2.8695 -1.7848
29451SOL    HW290361   0.423   2.704   5.261  0.0947  0.8882 -0.7488
29452SOL     OW90362   6.941   0.425   1.170  0.7581  0.0603 -0.6396
29452SOL    HW190363   6.883   0.499   1.152  2.2146  1.0777 -1.3097
29452SOL    HW290364   6.886   0.347   1.157 -0.8531  0.9977  0.2678
29453SOL     OW90365   7.151   0.894   0.872  0.5250  0.5714 -0.3815
29453SOL    HW190366   7.141   0.864   0.962  1.6111 -0.1348 -0.4855
29453SOL    HW290367   7.062   0.894   0.836  0.1361  0.4875  0.5626
29454SOL     OW90368   6.656   0.149   3.423  0.5310  0.1133  0.4477
29454SOL    HW190369   6.626   0.060   3.406 -1.3473  0.8732 -0.5462
29454SOL    HW290370   6.581   0.192   3.464  1.1603  1.4313  0.2726
29455SOL     OW90371   0.877   2.015   4.130 -0.2720  0.7305  0.0991
29455SOL    HW190372   0.884   1.933   4.080 -0.5328  1.3967 -1.0579
29455SOL    HW290373   0.847   1.988   4.216  1.3673 -0.5894  0.3090
29456SOL     OW90374   1.190   8.150   9.110  0.2632  0.3482  0.4220
29456SOL    HW190375   1.259   8.107   9.059 -0.1191  1.7165 -1.3797
29456SOL    HW290376   1.193   8.241   9.081 -1.4818  0.7018  1.2278
29457SOL     OW90377   7.920   2.639   3.901  0.1275 -0.1164  0.2559
29457SOL    HW190378   7.899   2.700   3.972 -1.0299 -0.8298  0.5537
29457SOL    HW290379   7.952   2.695   3.831  1.0339  0.6336  1.2318
29458SOL     OW90380   1.206   0.612   6.238 -0.1983 -0.2110 -0.1583
29458SOL    HW190381   1.211   0.584   6.329 -2.1275  0.6649  0.2609
29458SOL    HW290382   1.195   0.530   6.189 -1.7007 -0.5233  0.6497
29459SOL     OW90383   1.457   3.323   9.609 -0.1489 -0.3106 -0.3782
29459SOL    HW190384   1.399   3.375   9.664  0.4548 -0.3854  0.3500
29459SOL    HW290385   1.439   3.232   9.635 -0.1608 -0.3712 -0.6002
29460SOL     OW90386   7.677   8.921   1.870 -0.2876  0.1989  0.4511
29460SOL    HW190387   7.759   8.907   1.822 -0.5475 -1.2780  0.3707
29460SOL    HW290388   7.659   8.836   1.910 -2.0684  0.3360  0.0074
29461SOL     OW90389   7.580   9.649   1.193  0.4261 -0.1402 -0.2361
29461SOL    HW190390   7.554   9.618   1.106  0.4567  3.0157 -1.4685
29461SOL    HW290391   7.664   9.606   1.209  0.0234 -1.4236 -1.3561
29462SOL     OW90392   0.940   2.647  10.337  0.0378  0.0100 -0.0793
29462SOL    HW190393   0.875   2.718  10.338  0.2301  0.1870  0.4657
29462SOL    HW290394   1.017   2.686  10.379  0.6811 -0.0293 -1.1678
29463SOL     OW90395   2.468  10.526   9.718 -0.2738  0.4962  0.4260
29463SOL    HW190396   2.379  10.513   9.686  0.1906  0.4908 -0.9501
29463SOL    HW290397   2.500  10.438   9.737 -0.3670  0.4468  0.3566
29464SOL     OW90398   5.509   0.103   5.601 -0.2453  0.0454  0.2600
29464SOL    HW190399   5.523   0.010   5.584 -1.1183 -0.1089  0.3310
29464SOL    HW290400   5.589   0.145   5.572 -0.2935 -0.6097 -0.8811
29465SOL     OW90401   8.955   3.961  10.830 -0.2178 -0.3012 -0.2685
29465SOL    HW190402   8.996   3.906  10.763 -0.2229 -1.5142  0.6753
29465SOL    HW290403   9.026   4.013  10.866 -0.4478  1.4278 -2.1398
29466SOL     OW90404   7.074   6.965   2.994 -0.6743 -0.2718 -0.2556
29466SOL    HW190405   7.124   6.957   3.076  0.6849  0.1619 -1.0126
29466SOL    HW290406   7.068   6.876   2.961 -1.4019 -0.4776  0.4002
29467SOL     OW90407   8.817   5.752   0.835  0.0949  0.0253 -0.0328
29467SOL    HW190408   8.725   5.731   0.849 -0.3586  1.9939  0.2151
29467SOL    HW290409   8.825   5.766   0.740  0.9607 -3.4540 -0.6176
29468SOL     OW90410   8.349   0.958   8.933 -0.6122  0.4781  0.2501
29468SOL    HW190411   8.385   0.873   8.910 -0.7961  0.5398 -0.2900
29468SOL    HW290412   8.270   0.938   8.983  0.0046  0.3422  1.1954
29469SOL     OW90413   9.271   4.457   4.866  0.3134  0.3463  0.3240
29469SOL    HW190414   9.191   4.456   4.815  0.6741  1.6640 -0.3400
29469SOL    HW290415   9.258   4.393   4.935 -0.8687 -0.2309 -0.4210
29470SOL     OW90416   5.613   3.856   7.235 -0.2651  0.0106 -0.0195
29470SOL    HW190417   5.581   3.812   7.156  1.7258 -0.5706 -0.5591
29470SOL    HW290418   5.577   3.945   7.229 -1.2686 -0.4371 -0.8585
29471SOL     OW90419   7.804   8.436   4.489 -0.6618 -0.4968  0.1624
29471SOL    HW190420   7.793   8.350   4.530 -0.5503 -0.5262  0.1307
29471SOL    HW290421   7.835   8.492   4.559 -1.6568 -0.2491  0.4208
29472SOL     OW90422   3.119   9.690   4.877  0.2479  0.0496  0.1583
29472SOL    HW190423   3.198   9.691   4.930 -0.0210  0.2525  0.5587
29472SOL    HW290424   3.066   9.619   4.914 -0.4172  0.8982  0.8818
29473SOL     OW90425   5.160   3.356   2.869  0.1533 -0.0471  0.1930
29473SOL    HW190426   5.134   3.332   2.958  2.1111  0.8363  1.0753
29473SOL    HW290427   5.101   3.307   2.812 -1.4409 -0.3159  1.9657
29474SOL     OW90428   1.739   5.837   2.958 -0.5639  0.0503 -0.7712
29474SOL    HW190429   1.658   5.842   3.008 -1.8626 -1.0477 -2.6413
29474SOL    HW290430   1.803   5.886   3.010 -2.0544 -0.2131  1.4205
29475SOL     OW90431   5.881   1.511   0.866  0.2617  0.3122  0.0469
29475SOL    HW190432   5.919   1.526   0.779  0.8497 -1.0672  0.0393
29475SOL    HW290433   5.788   1.531   0.856  0.0193 -1.3033 -1.3330
29476SOL     OW90434   5.585   9.058  10.316  0.4707 -0.3591  0.5178
29476SOL    HW190435   5.675   9.077  10.289  0.7901  0.2649  1.9258
29476SOL    HW290436   5.544   9.144  10.324 -0.2201 -0.6322  0.0373
29477SOL     OW90437   0.006   1.675  10.786 -0.2582  0.4167  0.1981
29477SOL    HW190438   0.059   1.615  10.734  0.6648  0.8586  0.6017
29477SOL    HW290439   0.069   1.739  10.820 -0.9443  0.5256  1.3008
29478SOL     OW90440   0.315   6.529   0.085 -0.1686  0.0614  0.5524
29478SOL    HW190441   0.270   6.613   0.075 -1.5814 -0.9374 -2.4720
29478SOL    HW290442   0.391   6.535   0.027 -1.1466 -1.2449 -0.9276
29479SOL     OW90443   7.649   0.686   8.094  0.3301  0.4135  0.7548
29479SOL    HW190444   7.623   0.734   8.173 -0.5993 -1.2903  1.5622
29479SOL    HW290445   7.572   0.633   8.073  1.1447 -0.3627 -0.3606
29480SOL     OW90446   5.962   9.011   3.728  0.0462 -0.0310  0.1437
29480SOL    HW190447   5.904   9.083   3.751 -0.5313 -0.3177 -0.3813
29480SOL    HW290448   6.005   9.039   3.647 -0.1903 -0.2735 -0.0697
29481SOL     OW90449   3.879  10.108   4.787 -0.3792 -0.9023  0.0329
29481SOL    HW190450   3.894  10.148   4.702  0.4032  0.0871  0.6061
29481SOL    HW290451   3.909  10.018   4.777 -0.1184 -0.7412 -0.6843
29482SOL     OW90452   4.193   7.245   8.488 -0.0887 -0.1173  0.0471
29482SOL    HW190453   4.143   7.186   8.432 -1.5941  0.8130  0.3688
29482SOL    HW290454   4.281   7.206   8.491 -0.1701 -0.6478 -2.2851
29483SOL     OW90455   2.280  10.167   4.500  0.2673 -0.1923 -0.2084
29483SOL    HW190456   2.237  10.223   4.435  1.3455 -0.9702 -1.6336
29483SOL    HW290457   2.371  10.161   4.471  1.4652  1.4451  2.7489
29484SOL     OW90458  10.970   2.092   5.672 -0.0968 -0.2775  0.7008
29484SOL    HW190459  10.938   2.070   5.760  0.1558  1.0360  1.1389
29484SOL    HW290460  10.997   2.183   5.678 -0.6686  0.0443 -0.9171
29485SOL     OW90461   3.810  11.054   6.681  0.3252 -0.2091  0.5848
29485SOL    HW190462   3.883  11.081   6.737 -0.0448  0.3057  0.8296
29485SOL    HW290463   3.845  10.982   6.630  0.6861 -0.6731  1.4541
29486SOL     OW90464   9.337   6.253   3.819 -0.3035  0.1649  0.5004
29486SOL    HW190465   9.358   6.187   3.885  1.9759  0.2279 -0.0614
29486SOL    HW290466   9.313   6.203   3.741 -0.3010  0.0321  0.5841
29487SOL     OW90467   1.365   0.442   1.648 -0.4148  0.0725  0.4354
29487SOL    HW190468   1.456   0.412   1.646 -0.9660 -1.8817 -2.9013
29487SOL    HW290469   1.313   0.361   1.640 -2.4747  1.1476  1.9513
29488SOL     OW90470  10.470   1.692   5.767  0.3265  0.2231  0.5060
29488SOL    HW190471  10.430   1.772   5.802  0.4055  0.3248  0.3691
29488SOL    HW290472  10.487   1.713   5.675 -0.5611 -0.2925  0.2080
29489SOL     OW90473   8.615   2.705   7.833 -0.5827  0.0351 -0.3205
29489SOL    HW190474   8.605   2.679   7.924  0.9817 -0.4755 -0.2520
29489SOL    HW290475   8.564   2.641   7.783 -2.2862  0.9212  0.2202
29490SOL     OW90476   7.019   8.508   5.673 -0.5119 -0.0576  0.3338
29490SOL    HW190477   7.014   8.603   5.662 -0.4368  0.5657  4.1730
29490SOL    HW290478   6.938   8.485   5.719  1.0736 -1.1336  2.8080
29491SOL     OW90479   1.600   1.930   6.344  0.5443  0.4882 -0.4890
29491SOL    HW190480   1.660   2.004   6.333  1.3491 -0.0796 -0.0357
29491SOL    HW290481   1.604   1.883   6.260  0.0107  0.9605 -0.7872
29492SOL     OW90482   7.761   2.646  10.560 -0.1944  0.2098 -0.8096
29492SOL    HW190483   7.821   2.620  10.630 -1.1321 -1.1722 -0.4974
29492SOL    HW290484   7.728   2.564  10.524 -1.5957  0.9362 -1.2538
29493SOL     OW90485   7.819   6.904   1.379  0.1767  0.0367  0.0201
29493SOL    HW190486   7.807   6.998   1.392  1.1113  0.1508  0.1101
29493SOL    HW290487   7.779   6.864   1.456 -1.3002  0.2747 -0.5794
29494SOL     OW90488   8.390   1.519   4.848 -0.8583 -0.1308 -0.5298
29494SOL    HW190489   8.360   1.476   4.768 -1.0410  1.6716 -1.4801
29494SOL    HW290490   8.455   1.583   4.818  1.0710 -1.2290  1.0744
29495SOL     OW90491   4.487   0.447   7.583  0.6674 -0.2243  0.1144
29495SOL    HW190492   4.547   0.522   7.591  0.0388  0.1843  1.1816
29495SOL    HW290493   4.419   0.477   7.523 -0.1594  0.4810  1.3554
29496SOL     OW90494   9.276   8.815   5.719 -0.0916 -0.4594  0.0446
29496SOL    HW190495   9.194   8.766   5.711 -0.6856  0.7534 -1.8046
29496SOL    HW290496   9.251   8.894   5.767 -0.6519  1.1500 -2.7268
29497SOL     OW90497  10.287  10.357   3.947 -0.0385 -0.2462 -0.7570
29497SOL    HW190498  10.197  10.360   3.916  0.0760  0.9850 -1.0108
29497SOL    HW290499  10.315  10.266   3.932 -1.2490 -0.6561 -0.6019
29498SOL     OW90500   4.653   7.854   2.309 -0.1313 -0.6395 -0.0773
29498SOL    HW190501   4.592   7.901   2.253 -0.3456 -0.5337  0.2403
29498SOL    HW290502   4.620   7.867   2.398  0.1000 -0.9556  0.0614
29499SOL     OW90503   6.788   4.858   7.993  0.4186  0.9520  0.2823
29499SOL    HW190504   6.829   4.938   7.960 -0.1350  0.9019 -0.5485
29499SOL    HW290505   6.715   4.842   7.934 -2.2637  2.2836  2.9866
29500SOL     OW90506   0.203   1.947   0.596 -0.3486  0.0523 -0.0157
29500SOL    HW190507   0.214   2.006   0.670 -1.1496  1.4582 -0.9612
29500SOL    HW290508   0.163   1.868   0.633 -1.3644  0.9920  0.9611
29501SOL     OW90509   5.816   2.063   7.418 -0.1662  0.4586  0.5569
29501SOL    HW190510   5.850   2.135   7.366  0.2414  0.6392  1.0518
29501SOL    HW290511   5.854   1.985   7.378 -0.5282  0.5279  0.0805
29502SOL     OW90512   8.050   1.807   5.688 -0.0096  0.3168 -0.1329
29502SOL    HW190513   8.030   1.807   5.594 -1.8830  0.1489  0.2464
29502SOL    HW290514   7.997   1.878   5.724  1.5486  1.1307  0.6612
29503SOL     OW90515   3.073   0.147   5.513  0.0473  0.2509 -0.3639
29503SOL    HW190516   3.048   0.161   5.604  0.5522 -0.1007 -0.1707
29503SOL    HW290517   3.036   0.223   5.467 -2.3744 -0.7782 -0.3016
29504SOL     OW90518   6.877   5.421   8.359 -0.0233 -0.7104  0.1322
29504SOL    HW190519   6.966   5.387   8.364  0.0974 -0.2349  2.6509
29504SOL    HW290520   6.844   5.415   8.449 -1.4725  1.9096 -0.1149
29505SOL     OW90521   8.705  10.774   4.356  0.0235 -0.2354  0.0955
29505SOL    HW190522   8.769  10.717   4.312  0.9318  1.5537 -1.0078
29505SOL    HW290523   8.747  10.860   4.359 -2.2581  0.9827 -0.5350
29506SOL     OW90524   6.665   9.371   9.821  0.0748 -0.9330  0.1581
29506SOL    HW190525   6.704   9.370   9.734 -0.2626 -0.6846  0.0010
29506SOL    HW290526   6.699   9.293   9.864  0.8666 -0.6378  0.0831
29507SOL     OW90527   0.258   1.101   4.040 -0.3260  0.0269 -0.2658
29507SOL    HW190528   0.190   1.157   4.076  0.2654  0.1455  0.6901
29507SOL    HW290529   0.340   1.138   4.073  0.2649  0.2858 -1.9321
29508SOL     OW90530   3.736   3.757   7.116 -0.6250  0.5539 -0.5587
29508SOL    HW190531   3.815   3.707   7.093  1.2479  2.2513  1.6389
29508SOL    HW290532   3.667   3.691   7.124  1.2142 -1.4114  0.0618
29509SOL     OW90533   7.241   5.244   2.794 -0.0800  0.3435 -0.1009
29509SOL    HW190534   7.173   5.206   2.849 -0.6075  0.8283 -0.4196
29509SOL    HW290535   7.207   5.237   2.705 -0.4128  2.0286 -0.1313
29510SOL     OW90536   1.246   6.595   2.524  0.2332  0.3126 -0.3144
29510SOL    HW190537   1.228   6.646   2.445  0.9488  0.9220 -0.0975
29510SOL    HW290538   1.249   6.504   2.494  1.6118  0.6212 -1.2089
29511SOL     OW90539   6.366   8.467   0.179 -0.3214  0.3260  0.1983
29511SOL    HW190540   6.301   8.458   0.248 -0.8389 -0.7814 -0.4066
29511SOL    HW290541   6.447   8.431   0.216 -0.0761  1.5334  0.8844
29512SOL     OW90542   7.509   0.012   8.641  0.4932  0.5761  0.0821
29512SOL    HW190543   7.538  -0.078   8.628  3.4401  0.9914  2.7411
29512SOL    HW290544   7.567   0.065   8.586 -0.5178  0.9797 -0.6330
29513SOL     OW90545   8.278   9.538   1.281  0.4077 -0.0905 -0.7288
29513SOL    HW190546   8.308   9.628   1.292  0.3994 -0.2554  0.8566
29513SOL    HW290547   8.314   9.511   1.196  1.1874  1.0871 -0.7982
29514SOL     OW90548   6.864   6.449   7.257 -0.7252 -0.0310  0.3070
29514SOL    HW190549   6.873   6.455   7.162 -0.9753  2.2047  0.3622
29514SOL    HW290550   6.806   6.522   7.280  0.1559  0.1227  2.2735
29515SOL     OW90551   8.914   3.327   3.279 -0.4994  0.1183  0.5105
29515SOL    HW190552   8.905   3.418   3.251  1.1530  0.4920  1.0668
29515SOL    HW290553   8.844   3.315   3.343 -1.4263  0.6404 -0.3764
29516SOL     OW90554   8.079   0.988   3.067 -0.1510 -0.1147 -0.1474
29516SOL    HW190555   8.032   1.044   3.129  1.8401  0.3024  1.0787
29516SOL    HW290556   8.093   0.906   3.115  1.8004  0.3709  0.1759
29517SOL     OW90557   4.189   6.944   2.634  0.0256  0.0176  0.0437
29517SOL    HW190558   4.214   6.991   2.714  2.1019  0.3245 -0.7303
29517SOL    HW290559   4.272   6.913   2.598 -0.6641  1.1370 -2.7661
29518SOL     OW90560   4.515   1.240   7.658 -0.4912  0.2656 -0.4973
29518SOL    HW190561   4.527   1.199   7.744  0.6751  0.1300 -0.7142
29518SOL    HW290562   4.524   1.167   7.596 -2.3600  0.1744 -0.7071
29519SOL     OW90563  10.516  10.523   6.219 -0.5400 -0.0825 -0.4998
29519SOL    HW190564  10.496  10.430   6.224 -1.9438  0.2404  0.6350
29519SOL    HW290565  10.431  10.567   6.223  0.1128  1.2653 -0.6127
29520SOL     OW90566   0.272   9.341   6.937  0.4430 -0.1346 -0.3638
29520SOL    HW190567   0.211   9.269   6.922  0.2691 -0.1213  0.2279
29520SOL    HW290568   0.303   9.365   6.850 -0.8828  0.2935 -0.7410
29521SOL     OW90569   5.796   8.442   3.028  0.0558  0.1806 -0.6694
29521SOL    HW190570   5.780   8.394   2.947  2.8785 -0.0793 -1.1706
29521SOL    HW290571   5.789   8.534   3.003 -0.2676  0.0921 -0.9079
29522SOL     OW90572   3.342   9.743   7.506 -0.3591 -0.1778 -0.1889
29522SOL    HW190573   3.316   9.662   7.462 -1.6293  1.1262 -1.9809
29522SOL    HW290574   3.391   9.792   7.439  0.0765  0.6895  0.7372
29523SOL     OW90575  11.032   6.156   6.560 -0.0323  0.1132  0.0434
29523SOL    HW190576  11.058   6.202   6.480 -1.7200  3.0831  1.0497
29523SOL    HW290577  11.091   6.081   6.565  1.1668  0.7090 -3.1252
29524SOL     OW90578  10.051   9.621   6.350  0.1255 -0.1599 -0.0320
29524SOL    HW190579  10.010   9.546   6.307 -0.8107  1.1581 -1.5637
29524SOL    HW290580  10.034   9.609   6.443 -1.9677 -0.7227 -0.4444
29525SOL     OW90581  10.738   3.298   9.229  0.6117  0.1370 -0.2468
29525SOL    HW190582  10.712   3.238   9.159 -0.1336 -1.0208  0.9698
29525SOL    HW290583  10.685   3.376   9.215 -1.8912 -1.2800  0.7922
29526SOL     OW90584   6.949   2.301   6.745 -0.2885  0.6776 -0.1320
29526SOL    HW190585   6.929   2.225   6.690  2.9870 -1.8463  1.7686
29526SOL    HW290586   7.014   2.350   6.695 -1.2888  1.4370 -0.7169
29527SOL     OW90587   6.005   1.840   7.389  0.2736 -0.1139 -0.4240
29527SOL    HW190588   6.016   1.801   7.476 -1.7467  1.4689  0.6450
29527SOL    HW290589   6.076   1.903   7.382 -0.2592  0.6568  0.6809
29528SOL     OW90590   6.551   5.569   0.724  0.0149  0.2184 -0.7371
29528SOL    HW190591   6.523   5.607   0.807  1.7073 -1.4973  0.7227
29528SOL    HW290592   6.504   5.619   0.657 -1.0010  2.0101  1.2061
29529SOL     OW90593   1.051   9.748   3.842 -0.5375 -0.2028 -0.5406
29529SOL    HW190594   1.059   9.710   3.755 -0.7032 -0.5461 -0.4073
29529SOL    HW290595   1.050   9.842   3.827 -0.2851 -0.2555 -0.8858
29530SOL     OW90596   6.660   1.403   0.226 -0.3174  1.0453 -0.1419
29530SOL    HW190597   6.620   1.330   0.179  0.1334  1.1960 -0.7668
29530SOL    HW290598   6.636   1.480   0.174  0.9084  1.1215 -0.6111
29531SOL     OW90599   7.192   8.306   0.820  0.1572  0.2222 -0.3081
29531SOL    HW190600   7.168   8.285   0.911 -0.9376  2.3193 -0.0535
29531SOL    HW290601   7.109   8.305   0.773  0.6570 -0.3338 -1.2055
29532SOL     OW90602   5.007   9.260   5.279 -0.7228 -0.9914 -0.0610
29532SOL    HW190603   4.920   9.223   5.261 -1.5753  0.9025  0.0052
29532SOL    HW290604   5.017   9.254   5.374  0.1904 -3.1877 -0.2294
29533SOL     OW90605   6.364   5.824   5.410 -0.3564 -0.3955 -0.3205
29533SOL    HW190606   6.369   5.914   5.377  0.5508 -0.6315 -0.8680
29533SOL    HW290607   6.276   5.794   5.387 -1.0110  0.6587  0.7052
29534SOL     OW90608  10.957   2.557   2.746  0.0595 -0.6041 -0.3322
29534SOL    HW190609  11.015   2.482   2.758  0.1604 -0.7682 -1.6528
29534SOL    HW290610  10.868   2.521   2.755  0.0896 -1.0210 -1.5369
29535SOL     OW90611  10.630   9.117   7.235 -0.4331 -0.3200  0.1655
29535SOL    HW190612  10.556   9.117   7.296  0.7382 -0.7017  1.6363
29535SOL    HW290613  10.614   9.192   7.178 -1.3669  0.2925  1.1870
29536SOL     OW90614   1.483  10.612   4.095 -0.3260  0.2405  0.2576
29536SOL    HW190615   1.482  10.673   4.021  0.1776  1.1737  0.9957
29536SOL    HW290616   1.392  10.587   4.107 -0.3584 -0.2771 -0.9620
29537SOL     OW90617   2.561   9.785   3.437 -0.7094 -0.4724  0.6160
29537SOL    HW190618   2.543   9.700   3.476 -2.3068 -0.0851  0.7981
29537SOL    HW290619   2.474   9.825   3.425  0.0601  1.9288  2.3217
29538SOL     OW90620   8.036   7.086   6.564 -0.2627  0.2158 -0.0397
29538SOL    HW190621   7.966   7.071   6.626 -0.7530 -1.5552 -0.9508
29538SOL    HW290622   8.007   7.160   6.511  0.1470  1.7191  1.7408
29539SOL     OW90623   8.302   0.810   6.326  0.8490 -0.4813  0.6357
29539SOL    HW190624   8.242   0.742   6.356  1.9444 -0.8731  2.0783
29539SOL    HW290625   8.266   0.839   6.243 -0.4269 -1.8355  0.6725
29540SOL     OW90626  11.053  10.797   8.141  0.8012  0.1719  0.6173
29540SOL    HW190627  11.085  10.717   8.101 -3.2888 -1.3620  0.0060
29540SOL    HW290628  11.069  10.865   8.075  0.0412 -1.0884 -0.9282
29541SOL     OW90629   9.415   0.113   5.383 -0.4410  0.5511 -0.0270
29541SOL    HW190630   9.498   0.140   5.423 -0.2782  1.8675 -1.1501
29541SOL    HW290631   9.374   0.196   5.355 -0.9165 -0.2228 -1.7916
29542SOL     OW90632   5.532   8.092   3.500 -0.2785  0.5020 -0.1744
29542SOL    HW190633   5.599   8.098   3.569 -0.8025  2.2742  0.2435
29542SOL    HW290634   5.579   8.112   3.419  0.0608 -0.1684 -0.1472
29543SOL     OW90635   7.485   8.453   3.877 -0.2345 -0.6178  0.0269
29543SOL    HW190636   7.428   8.463   3.953  1.0125 -0.1775  0.9388
29543SOL    HW290637   7.447   8.380   3.828 -1.4323 -0.4875  0.7224
29544SOL     OW90638   5.875  10.895   7.724 -0.6796 -0.3605 -0.1702
29544SOL    HW190639   5.970  10.897   7.727 -0.6188  1.5762 -1.6373
29544SOL    HW290640   5.853  10.801   7.723  1.2369 -0.8441 -0.7869
29545SOL     OW90641   1.142   8.165   5.929  0.3517  0.3926  0.1090
29545SOL    HW190642   1.148   8.101   5.858  0.8807  1.8476 -1.2184
29545SOL    HW290643   1.091   8.120   5.997  0.6532 -1.4009 -0.7743
29546SOL     OW90644   6.912   5.813   2.410  0.1918 -0.4486 -0.6362
29546SOL    HW190645   6.984   5.828   2.348 -0.3815  0.0168 -1.1973
29546SOL    HW290646   6.863   5.895   2.411 -0.1033 -0.6210  0.0567
29547SOL     OW90647   2.913   1.831   2.529  0.5364  0.3490 -0.4215
29547SOL    HW190648   2.910   1.896   2.459 -0.8381 -0.2398 -0.9541
29547SOL    HW290649   2.827   1.788   2.525  1.4279 -1.5664 -0.1579
29548SOL     OW90650   4.060   1.202   4.139 -0.2587  0.0539 -0.2664
29548SOL    HW190651   4.043   1.236   4.227 -3.0889  0.6992 -0.9638
29548SOL    HW290652   4.098   1.116   4.154 -2.4719 -0.6922  1.6567
29549SOL     OW90653   6.101  10.527   1.666 -0.3129  0.0395 -0.3830
29549SOL    HW190654   6.036  10.570   1.722  0.9447  0.7936  0.5582
29549SOL    HW290655   6.149  10.599   1.625 -0.8526 -0.5069 -2.0644
29550SOL     OW90656   9.499   0.583   0.991  0.2006 -0.2481 -0.4538
29550SOL    HW190657   9.433   0.567   0.924  0.0532 -0.6646 -0.2159
29550SOL    HW290658   9.450   0.609   1.069  0.3886  0.4898 -0.5774
29551SOL     OW90659   4.779   0.515   7.153  0.0274  0.1780  0.2761
29551SOL    HW190660   4.741   0.428   7.160 -0.7080  0.4450 -0.3021
29551SOL    HW290661   4.864   0.500   7.111 -0.9593 -0.0776 -1.7509
29552SOL     OW90662   2.313   0.455   6.419 -0.8768 -0.1979 -0.4832
29552SOL    HW190663   2.275   0.516   6.483 -0.2136 -0.5460  0.2589
29552SOL    HW290664   2.249   0.383   6.415 -0.6352 -0.4702  0.2718
29553SOL     OW90665   0.155   2.726   4.374  0.4092 -0.5101  0.0753
29553SOL    HW190666   0.083   2.719   4.437 -0.5032  0.1344 -0.8604
29553SOL    HW290667   0.203   2.804   4.401  1.3691 -1.4668  1.2733
29554SOL     OW90668   6.421   2.291   8.153 -0.0463  0.6419 -0.0279
29554SOL    HW190669   6.432   2.270   8.246 -1.0272 -0.3954 -0.1264
29554SOL    HW290670   6.441   2.385   8.147  3.0322  0.1431  0.6984
29555SOL     OW90671   6.662   7.288   2.179 -0.1455  0.1299  0.4144
29555SOL    HW190672   6.621   7.201   2.186  1.8612 -0.9001  0.1517
29555SOL    HW290673   6.692   7.293   2.088 -0.8493  1.4106  0.2413
29556SOL     OW90674   6.778   6.032   8.799 -0.2709  0.2332  0.2981
29556SOL    HW190675   6.873   6.043   8.810 -0.0246 -1.1056 -0.3408
29556SOL    HW290676   6.743   6.121   8.805  1.1477  0.8819 -0.5738
29557SOL     OW90677   6.912   8.287   9.347 -0.0104 -0.3782  0.1172
29557SOL    HW190678   6.863   8.368   9.333 -0.3300 -0.6842 -0.5653
29557SOL    HW290679   6.848   8.217   9.338  0.6023 -0.8033 -1.1667
29558SOL     OW90680  10.362   4.532  11.007  0.1675  0.3412 -0.0350
29558SOL    HW190681  10.421   4.576  10.946  1.7717 -1.6391 -0.0297
29558SOL    HW290682  10.381   4.571  11.092  1.9716 -0.6439  0.0669
29559SOL     OW90683   7.958   3.706   8.483 -0.0826  0.0762 -0.3655
29559SOL    HW190684   7.864   3.709   8.503 -0.1393 -0.4234 -0.5356
29559SOL    HW290685   7.996   3.775   8.537 -0.4853 -0.0253  0.0568
29560SOL     OW90686   6.403   7.990   3.091  0.3978 -0.3303 -0.4675
29560SOL    HW190687   6.395   7.996   2.996  2.3651  1.7513 -0.5736
29560SOL    HW290688   6.409   7.896   3.108  0.2295 -0.7411 -2.4204
29561SOL     OW90689   3.651   3.713   8.769  0.1726 -0.6972 -0.0005
29561SOL    HW190690   3.566   3.699   8.727 -0.5183  0.5799  0.8768
29561SOL    HW290691   3.712   3.662   8.717 -0.4815  1.3007 -3.0165
29562SOL     OW90692  10.535   6.785   1.921  0.2497  0.2606 -0.1002
29562SOL    HW190693  10.604   6.741   1.971 -1.7517  0.3265  3.0502
29562SOL    HW290694  10.524   6.869   1.966 -2.4802 -0.1636  0.1545
29563SOL     OW90695   9.259  10.542   4.074  0.4305 -0.1366  0.3615
29563SOL    HW190696   9.330  10.494   4.115  0.0606  0.5975  1.9611
29563SOL    HW290697   9.183  10.484   4.080  1.2445 -1.8911 -3.3963
29564SOL     OW90698  10.598   1.889   0.552 -0.8319 -0.1926 -0.3055
29564SOL    HW190699  10.685   1.849   0.556 -0.3239  0.6353 -1.9640
29564SOL    HW290700  10.604   1.966   0.609 -0.8002 -0.6750  0.3518
29565SOL     OW90701   8.805   0.938   2.600 -0.5414 -0.5575  0.1180
29565SOL    HW190702   8.829   0.900   2.684  0.1313  0.1304  0.2505
29565SOL    HW290703   8.854   0.887   2.536 -0.0826 -0.2929  0.2503
29566SOL     OW90704   2.035   6.882   0.648  0.1825 -0.2314  0.2805
29566SOL    HW190705   2.094   6.905   0.576  1.9972  1.1264  2.0680
29566SOL    HW290706   2.044   6.788   0.658 -1.4354 -0.7590 -2.2764
29567SOL     OW90707   6.568   0.795   6.411 -0.9043  0.0441 -0.5741
29567SOL    HW190708   6.540   0.868   6.356 -0.9579  0.3778 -0.1056
29567SOL    HW290709   6.499   0.729   6.401 -1.1192  0.2707 -0.5811
29568SOL     OW90710   1.032   1.045   7.404  0.1228  0.2489 -0.2644
29568SOL    HW190711   0.941   1.057   7.430  0.5811 -0.3450  1.8278
29568SOL    HW290712   1.038   1.086   7.318 -2.3858 -0.7454 -0.9941
29569SOL     OW90713   2.839   3.665   6.439 -0.1178 -0.1530 -0.6860
29569SOL    HW190714   2.866   3.574   6.441  0.7922  0.0491  2.5042
29569SOL    HW290715   2.920   3.715   6.449 -0.7846  0.8688 -0.1632
29570SOL     OW90716   7.706   5.047   2.071 -0.7184 -0.4776  0.2538
29570SOL    HW190717   7.665   4.970   2.032  0.8572 -0.8237 -0.8385
29570SOL    HW290718   7.681   5.120   2.014 -1.2666 -0.3744  0.6224
29571SOL     OW90719   9.128   3.781   3.960  0.0549  0.1588 -0.1613
29571SOL    HW190720   9.192   3.846   3.988  1.8425 -1.2560 -0.7354
29571SOL    HW290721   9.166   3.743   3.880 -1.8636 -0.2470 -0.9337
29572SOL     OW90722   8.928   2.944   6.579 -0.4092 -0.4047 -0.0033
29572SOL    HW190723   8.981   2.873   6.616 -0.8287 -0.3943  0.6329
29572SOL    HW290724   8.838   2.914   6.590 -0.5406 -0.7744 -1.7818
29573SOL     OW90725   9.556   6.186   4.990  0.0638  0.8029 -0.6253
29573SOL    HW190726   9.553   6.132   4.912  1.2116  1.3015 -1.0441
29573SOL    HW290727   9.480   6.159   5.042  0.7558 -1.4159 -0.6684
29574SOL     OW90728   8.413   8.376   2.022  0.6282  0.8341 -0.0946
29574SOL    HW190729   8.366   8.381   1.939  2.4996 -0.5740 -1.3190
29574SOL    HW290730   8.374   8.445   2.076 -5.2591 -2.2614  0.3738
29575SOL     OW90731   7.773   9.854   1.382 -0.1749  0.6904 -0.9498
29575SOL    HW190732   7.742   9.813   1.302 -0.2612 -1.2381  0.0101
29575SOL    HW290733   7.696   9.857   1.439  0.0570  1.3205 -0.6583
29576SOL     OW90734   5.638   0.445   7.427  0.5597 -0.3198 -0.4079
29576SOL    HW190735   5.681   0.464   7.344  2.2150 -1.7486  0.0511
29576SOL    HW290736   5.689   0.373   7.464 -0.2411  0.1473  1.7584
29577SOL     OW90737   5.028   0.679   4.157 -0.0025 -0.9155 -0.3809
29577SOL    HW190738   5.008   0.657   4.248 -1.3736 -0.4582 -0.5517
29577SOL    HW290739   4.981   0.613   4.106 -0.7051 -0.1093 -0.7918
29578SOL     OW90740   8.802  11.080   5.984  0.0573 -0.2036  0.2411
29578SOL    HW190741   8.818  11.158   6.037  0.2921 -1.6833  2.4484
29578SOL    HW290742   8.794  11.009   6.047 -0.4894 -1.9405 -1.6842
29579SOL     OW90743   9.195   4.117   4.134 -0.2958 -0.4210  0.6324
29579SOL    HW190744   9.203   4.030   4.172 -1.0161 -0.0994  1.5450
29579SOL    HW290745   9.158   4.171   4.204  0.7609  0.7828  0.2979
29580SOL     OW90746   6.642   5.957   1.461  0.0930 -0.1635  0.2614
29580SOL    HW190747   6.630   5.970   1.367 -0.9430  0.5325  0.4723
29580SOL    HW290748   6.555   5.933   1.493  0.9552 -3.1712  0.6442
29581SOL     OW90749   7.609   2.302   4.678  0.7408  0.2521 -0.0377
29581SOL    HW190750   7.560   2.356   4.740 -1.1469 -2.9442  1.5632
29581SOL    HW290751   7.551   2.293   4.603 -0.6038 -2.1248  1.1422
29582SOL     OW90752   6.447   3.523   8.032  0.0537  0.2955 -0.2348
29582SOL    HW190753   6.467   3.431   8.049  1.7749  1.0110  2.0932
29582SOL    HW290754   6.529   3.561   8.001  0.3108  1.6536  1.8654
29583SOL     OW90755   1.649   9.070   3.947  0.7203 -0.0508 -0.0537
29583SOL    HW190756   1.670   9.156   3.985 -0.0497 -0.1785  0.7191
29583SOL    HW290757   1.697   9.008   4.002 -1.1937 -0.3105  1.4491
29584SOL     OW90758   8.286  10.701   5.270 -0.5310  0.0954  0.0013
29584SOL    HW190759   8.338  10.768   5.225 -1.9855  0.4653 -1.2173
29584SOL    HW290760   8.237  10.749   5.337  0.2133 -0.1598  0.7492
29585SOL     OW90761   1.753   0.850   6.252 -0.1045 -0.3622  0.4174
29585SOL    HW190762   1.733   0.864   6.344  0.5274  0.8036  0.4072
29585SOL    HW290763   1.679   0.801   6.218 -0.9708  0.3275  1.2591
29586SOL     OW90764   2.275  10.980   8.548 -0.0338 -0.3523  0.3320
29586SOL    HW190765   2.196  11.033   8.532 -0.0765 -0.8184 -1.1196
29586SOL    HW290766   2.330  10.996   8.472  0.9340 -0.6592  0.9581
29587SOL     OW90767   4.239   7.678   2.065 -0.1748 -0.2756  0.4549
29587SOL    HW190768   4.284   7.722   1.993 -1.5468 -0.8267 -0.7937
29587SOL    HW290769   4.242   7.741   2.137  1.3096  0.2529 -0.0388
29588SOL     OW90770   7.924  10.951   5.715  0.2952  0.0615  0.2302
29588SOL    HW190771   8.019  10.969   5.713  0.2213  0.5109 -1.5947
29588SOL    HW290772   7.903  10.943   5.808  2.0894  0.1531  0.6895
29589SOL     OW90773   9.947   6.530   5.649 -0.3191 -0.0225 -1.2248
29589SOL    HW190774   9.936   6.537   5.743  1.7373 -0.9462 -0.8608
29589SOL    HW290775   9.962   6.620   5.620  1.5462  0.0188 -0.2637
29590SOL     OW90776   9.976   4.504   6.810 -0.0671  0.3300  0.3271
29590SOL    HW190777  10.011   4.541   6.729 -1.2663  0.9283  0.0582
29590SOL    HW290778   9.952   4.414   6.787  0.1779  0.2988  0.1895
29591SOL     OW90779   3.085   8.657   4.063 -0.1721 -0.4792  0.8679
29591SOL    HW190780   3.035   8.596   4.009  1.2357  0.1900 -1.3669
29591SOL    HW290781   3.104   8.609   4.143 -0.7618 -2.2740 -0.0156
29592SOL     OW90782  10.317   3.893   4.805  0.0418 -0.2379  0.3428
29592SOL    HW190783  10.277   3.903   4.892  0.9656  2.2949  0.5642
29592SOL    HW290784  10.244   3.903   4.744 -0.3127  0.0597  0.8072
29593SOL     OW90785   5.472   1.259   1.455 -0.4322  0.0927 -0.4358
29593SOL    HW190786   5.404   1.295   1.511 -1.0895  0.6354 -1.5366
29593SOL    HW290787   5.553   1.302   1.483 -1.1252  2.1714 -1.4220
29594SOL     OW90788  11.037   8.933   0.988  0.3873 -0.4507 -0.0104
29594SOL    HW190789  11.008   9.024   0.994  1.0602 -0.1863 -0.5613
29594SOL    HW290790  11.055   8.908   1.079  0.4301  0.0470  0.1229
29595SOL     OW90791   2.727   9.373   4.310  0.0938  0.3320  0.0347
29595SOL    HW190792   2.789   9.446   4.313 -1.2183  1.4675  0.4568
29595SOL    HW290793   2.779   9.296   4.332  1.2559  1.3091  0.7980
29596SOL     OW90794   1.741   3.738   8.463 -0.3179  0.1152  0.3154
29596SOL    HW190795   1.691   3.664   8.430  0.9475 -0.4183 -0.4777
29596SOL    HW290796   1.786   3.704   8.540  0.8222 -0.1825 -0.4550
29597SOL     OW90797   6.238   3.337   8.237 -0.3408  0.0244  0.1052
29597SOL    HW190798   6.333   3.347   8.237 -0.3699  0.6989 -2.2111
29597SOL    HW290799   6.223   3.247   8.207 -0.4457  0.3502 -0.8321
29598SOL     OW90800   9.071   0.064   2.426 -0.5177 -0.0413  0.1795
29598SOL    HW190801   9.152   0.014   2.432  0.2224  1.2897  1.6841
29598SOL    HW290802   9.097   0.150   2.395 -1.5882 -0.0722 -0.8990
29599SOL     OW90803   5.753   2.565   5.166  0.2545  0.2120  0.1321
29599SOL    HW190804   5.749   2.563   5.070 -0.9644  0.1992  0.1676
29599SOL    HW290805   5.724   2.653   5.189 -0.4210 -0.1092  0.5229
29600SOL     OW90806   1.972   9.899   9.712 -0.0602 -0.7753  0.4033
29600SOL    HW190807   1.885   9.931   9.690  0.2470  0.5302  0.9632
29600SOL    HW290808   2.030   9.945   9.651  0.2764 -1.3327  0.3003
29601SOL     OW90809   9.524   1.684   2.748  0.2649  0.3007 -0.0602
29601SOL    HW190810   9.483   1.757   2.701  0.5565  1.3346  1.2115
29601SOL    HW290811   9.481   1.606   2.714 -0.3279  1.0889 -1.1975
29602SOL     OW90812   8.209   2.744   2.847  0.0834  0.3019 -0.3195
29602SOL    HW190813   8.124   2.702   2.835 -0.7732  1.9074 -0.0620
29602SOL    HW290814   8.247   2.700   2.924 -1.2387  0.7001  0.5828
29603SOL     OW90815   4.107   3.310   6.614 -0.1573  0.3947  0.0284
29603SOL    HW190816   4.140   3.227   6.649 -0.5304  1.0003  1.9324
29603SOL    HW290817   4.026   3.326   6.662  0.5307  2.4464  0.6186
29604SOL     OW90818   7.488   9.293   3.304 -0.4212  0.3615 -0.0884
29604SOL    HW190819   7.487   9.377   3.258 -0.9669 -0.8511 -2.4204
29604SOL    HW290820   7.433   9.235   3.251  1.3340 -1.9674  0.4557
29605SOL     OW90821   1.614   4.295   0.691  0.6852 -0.5663 -0.3421
29605SOL    HW190822   1.549   4.302   0.762  0.3584 -0.2491 -0.6659
29605SOL    HW290823   1.573   4.236   0.628  0.0589  0.7499 -1.2265
29606SOL     OW90824   4.916   2.045   3.512 -0.3843  0.3429 -0.0860
29606SOL    HW190825   4.954   1.979   3.570 -0.8213  0.6615  0.5734
29606SOL    HW290826   4.896   1.997   3.431  1.6336  0.2338 -0.5538
29607SOL     OW90827   0.440  10.306   6.628 -0.8470 -0.2683 -0.7549
29607SOL    HW190828   0.509  10.371   6.636 -1.5089  0.4274 -0.6178
29607SOL    HW290829   0.367  10.352   6.586 -0.6637 -1.4238 -2.4546
29608SOL     OW90830   7.172   0.397  10.610  0.1080  0.4356 -0.0412
29608SOL    HW190831   7.259   0.380  10.575 -0.4999 -0.9299 -0.9910
29608SOL    HW290832   7.187   0.431  10.698  1.6279  2.0308 -0.8779
29609SOL     OW90833  10.976   6.233   9.492 -0.5095 -0.0301  0.6597
29609SOL    HW190834  10.958   6.326   9.483 -0.0247 -0.0475 -0.6878
29609SOL    HW290835  10.915   6.190   9.431  1.2765 -0.3514 -1.0001
29610SOL     OW90836   5.696   0.566   3.666  0.0201 -0.1781  0.3116
29610SOL    HW190837   5.622   0.526   3.620  0.1150  0.6718 -0.6032
29610SOL    HW290838   5.770   0.557   3.606  0.1940  0.7390  0.3642
29611SOL     OW90839   2.471   5.685   4.326  0.0081 -0.0438 -0.5863
29611SOL    HW190840   2.473   5.618   4.394  1.1624  0.0071 -0.5400
29611SOL    HW290841   2.558   5.726   4.331 -0.5857  1.2913 -0.7641
29612SOL     OW90842   6.457   8.757   3.636  0.0517 -0.1903 -0.6383
29612SOL    HW190843   6.437   8.671   3.599  0.3957 -0.2558 -0.6803
29612SOL    HW290844   6.455   8.744   3.731 -0.4536 -0.1103 -0.6361
29613SOL     OW90845   9.770   2.259   8.651 -0.3940 -0.2790 -0.3974
29613SOL    HW190846   9.719   2.187   8.686  0.1073 -0.1640  0.5905
29613SOL    HW290847   9.705   2.327   8.632 -0.5099  0.4128  2.1816
29614SOL     OW90848  10.673   8.586   3.556 -0.3697 -0.0413  0.2517
29614SOL    HW190849  10.748   8.639   3.582 -0.0836 -0.1698 -0.3011
29614SOL    HW290850  10.711   8.511   3.510 -0.9110  1.8762 -3.7517
29615SOL     OW90851   5.957   6.976   6.677  0.0243 -0.6705 -0.5056
29615SOL    HW190852   5.952   6.963   6.772 -1.1093 -0.3710 -0.5190
29615SOL    HW290853   5.902   6.906   6.641 -0.2725 -0.2312 -0.9005
29616SOL     OW90854   5.584   7.013   4.551  0.1509  0.1451 -0.4993
29616SOL    HW190855   5.537   6.951   4.607 -1.4376  1.5042 -0.2577
29616SOL    HW290856   5.556   6.991   4.462  1.2784 -0.8421 -0.6407
29617SOL     OW90857  10.156   7.481   6.440 -0.6623 -0.1884 -0.0883
29617SOL    HW190858  10.093   7.441   6.379 -2.0484  1.2689  0.3073
29617SOL    HW290859  10.164   7.418   6.511 -0.4075 -1.1132 -0.9134
29618SOL     OW90860   6.590   2.108   8.558 -0.0510 -0.1411 -0.3851
29618SOL    HW190861   6.587   2.113   8.654  2.4401 -0.3193 -0.2196
29618SOL    HW290862   6.669   2.056   8.540 -0.5611 -0.2324 -2.5386
29619SOL     OW90863   6.182   6.461  10.475  0.6487 -0.8164 -0.7265
29619SOL    HW190864   6.140   6.504  10.549 -0.3278 -1.2776 -0.9987
29619SOL    HW290865   6.149   6.509  10.398 -0.7972 -2.2737 -1.0649
29620SOL     OW90866   7.381   9.934  10.065  0.6358  0.5591 -0.1604
29620SOL    HW190867   7.463   9.889  10.086  0.8546  1.5140  1.1636
29620SOL    HW290868   7.406  10.003  10.004  0.4295 -0.5121 -1.5222
29621SOL     OW90869   6.474  10.599   2.816 -0.5917 -0.2170  0.0679
29621SOL    HW190870   6.426  10.527   2.858  1.4286 -1.0684  1.0062
29621SOL    HW290871   6.564  10.589   2.846  0.2309  1.2700 -1.7387
29622SOL     OW90872   5.981   9.016   8.031 -0.0091 -0.6418  0.6976
29622SOL    HW190873   5.979   9.005   7.935  2.5438  1.2722  0.3174
29622SOL    HW290874   5.973   8.927   8.065 -1.1577 -1.3687 -1.2734
29623SOL     OW90875  10.844   7.621   3.133  0.3387  0.2902  0.1929
29623SOL    HW190876  10.837   7.673   3.053 -0.1993  0.3086  0.2481
29623SOL    HW290877  10.838   7.530   3.104  0.8109  0.2746  0.1442
29624SOL     OW90878   8.432   5.066   8.549 -0.0222  0.1311 -0.4238
29624SOL    HW190879   8.353   5.102   8.589 -0.3884 -1.4625  0.3210
29624SOL    HW290880   8.504   5.113   8.591 -0.5175  0.6510 -0.1482
29625SOL     OW90881   5.061   1.396   5.416 -0.1042 -0.1513 -0.0280
29625SOL    HW190882   5.119   1.353   5.479  0.2848  0.7760  0.2578
29625SOL    HW290883   5.108   1.474   5.388 -0.2588 -0.5641 -1.5154
29626SOL     OW90884   8.451   2.421   2.614 -0.3095  0.0534  0.2770
29626SOL    HW190885   8.379   2.390   2.559  0.5556 -0.9421 -0.3468
29626SOL    HW290886   8.408   2.452   2.694 -1.4901  0.3063 -0.4242
29627SOL     OW90887   7.820   3.256   8.029 -0.2996  0.6004  0.0647
29627SOL    HW190888   7.894   3.243   8.088  1.2431  0.8064 -1.7535
29627SOL    HW290889   7.836   3.340   7.988 -1.4584  0.5624 -0.5125
29628SOL     OW90890   6.516   1.506   1.604  0.6351 -0.3203 -0.1017
29628SOL    HW190891   6.599   1.555   1.604  0.4773 -0.0007  1.6023
29628SOL    HW290892   6.450   1.572   1.580  0.7712 -0.3803 -0.6449
29629SOL     OW90893   7.485   1.170   7.561  0.2566 -0.3893 -0.2126
29629SOL    HW190894   7.521   1.082   7.553  0.4360 -0.1609 -2.5896
29629SOL    HW290895   7.562   1.227   7.553  0.2568  0.0278  2.1459
29630SOL     OW90896   8.824   2.756   0.071 -0.7772  0.8868  0.4209
29630SOL    HW190897   8.747   2.785   0.022 -0.9839  0.1823  0.3058
29630SOL    HW290898   8.798   2.672   0.108  0.4976 -0.2511 -1.0958
29631SOL     OW90899   4.635   4.865   4.682 -0.0058  0.1853 -0.6669
29631SOL    HW190900   4.720   4.836   4.712 -0.0354 -1.6790 -2.2160
29631SOL    HW290901   4.630   4.837   4.590 -2.2194  0.3344 -0.6632
29632SOL     OW90902   3.576  10.414   4.249  0.2153 -0.1198 -0.2128
29632SOL    HW190903   3.482  10.424   4.266  0.1686 -1.7491  0.6600
29632SOL    HW290904   3.585  10.434   4.156 -0.7357  1.5139 -0.0083
29633SOL     OW90905   8.702   0.069   9.423  0.6892 -0.2001 -0.1060
29633SOL    HW190906   8.675   0.066   9.515  0.7832 -1.3099 -0.0950
29633SOL    HW290907   8.621   0.085   9.375  0.6641  0.5538  0.1725
29634SOL     OW90908   7.259  10.354   1.358 -0.8756 -0.0331  0.0540
29634SOL    HW190909   7.286  10.310   1.278 -0.2515  1.2297 -0.4549
29634SOL    HW290910   7.341  10.385   1.397 -1.2553  0.2635  0.6349
29635SOL     OW90911   1.222  10.455   9.923 -0.1063 -0.3952  0.4586
29635SOL    HW190912   1.191  10.545   9.936 -0.6948 -0.5495  0.1522
29635SOL    HW290913   1.150  10.400   9.952  0.9156 -0.8162  2.3773
29636SOL     OW90914   7.771  10.965   4.524 -0.1860 -0.4518 -0.2085
29636SOL    HW190915   7.772  10.913   4.444  0.4221  0.3079 -0.7143
29636SOL    HW290916   7.812  10.909   4.590  0.0571 -0.7728 -0.6299
29637SOL     OW90917  10.118   9.020   3.611  0.3293 -0.5754 -0.5241
29637SOL    HW190918  10.084   9.110   3.604  0.3536 -0.5897 -0.8332
29637SOL    HW290919  10.069   8.971   3.546  1.6463 -0.3813 -1.7014
29638SOL     OW90920   4.082  11.058   2.200 -0.3884  0.3563 -0.9162
29638SOL    HW190921   4.072  11.115   2.276  1.6445 -1.7463  1.0636
29638SOL    HW290922   4.039  10.976   2.226  1.7531 -0.9518 -1.2993
29639SOL     OW90923  10.203   0.610   2.335  0.0318 -0.2724  0.0974
29639SOL    HW190924  10.230   0.519   2.349 -0.3546 -0.2782  0.8593
29639SOL    HW290925  10.282   0.655   2.305  0.8620 -0.3239  2.1082
29640SOL     OW90926   4.242   1.084   1.911 -0.6451  0.5766  0.3454
29640SOL    HW190927   4.204   0.997   1.921  0.9353 -0.2343 -0.3258
29640SOL    HW290928   4.255   1.094   1.817  1.2888  0.5694  0.5801
29641SOL     OW90929   8.279   9.447   6.109 -0.4027 -0.2462  0.1096
29641SOL    HW190930   8.309   9.537   6.105  1.2574 -0.5988  2.3219
29641SOL    HW290931   8.327   9.403   6.038  0.9594  0.1055  0.7684
29642SOL     OW90932   3.329  10.523   0.153 -0.4418  0.3254 -0.0612
29642SOL    HW190933   3.353  10.494   0.241  2.2843 -0.0388 -0.8446
29642SOL    HW290934   3.337  10.445   0.098  1.1689  1.2128 -1.1742
29643SOL     OW90935   0.807   3.986   5.247 -0.0170  0.1161  0.1717
29643SOL    HW190936   0.732   4.006   5.302 -0.8784 -0.0015 -0.9305
29643SOL    HW290937   0.788   3.901   5.209  1.4571 -0.6905  1.1520
29644SOL     OW90938   8.828   0.151   2.546 -0.1797  0.3350  0.0564
29644SOL    HW190939   8.788   0.173   2.461 -1.4341  0.1261  0.5731
29644SOL    HW290940   8.909   0.106   2.523 -0.9650 -0.5746 -1.0674
29645SOL     OW90941   9.263   8.845   6.122  0.1863  0.1670 -0.1776
29645SOL    HW190942   9.274   8.936   6.096 -0.5418  0.0315 -0.9990
29645SOL    HW290943   9.176   8.841   6.161  0.3667 -0.1116  0.2095
29646SOL     OW90944  10.027   2.769   4.743 -0.4335  0.2920 -0.1383
29646SOL    HW190945  10.023   2.806   4.831 -0.2915  1.3306 -0.5490
29646SOL    HW290946   9.936   2.749   4.721 -0.5451  0.6394  0.0033
29647SOL     OW90947   4.285   8.241   8.723  0.3181  0.2659  0.4510
29647SOL    HW190948   4.289   8.181   8.648 -0.5033 -0.7729  1.2011
29647SOL    HW290949   4.195   8.275   8.721  0.2120  0.0345  1.0951
29648SOL     OW90950   3.478   3.599   2.190  0.4697 -0.0106 -0.4470
29648SOL    HW190951   3.505   3.615   2.100  1.3284  1.4331  0.0353
29648SOL    HW290952   3.404   3.659   2.204 -0.3069 -0.9384 -0.4717
29649SOL     OW90953   3.014   2.652   4.751 -0.6194  0.3429  0.5218
29649SOL    HW190954   2.960   2.574   4.767  0.5072 -0.2464  1.5777
29649SOL    HW290955   2.985   2.715   4.816 -1.3418  0.7345 -0.1576
29650SOL     OW90956   0.491   2.795   8.173  0.6525 -0.5060 -0.0627
29650SOL    HW190957   0.501   2.866   8.110 -2.1336  0.6250  0.6415
29650SOL    HW290958   0.419   2.742   8.137  1.5063 -1.9930  0.3313
29651SOL     OW90959   9.815   4.226   8.420 -0.0824 -0.2100 -0.0966
29651SOL    HW190960   9.813   4.130   8.414 -1.0435 -0.1904 -0.1267
29651SOL    HW290961   9.785   4.245   8.509  0.4451  0.0596  0.0297
29652SOL     OW90962   8.665   2.783   3.256 -0.0664  0.1830 -0.0319
29652SOL    HW190963   8.659   2.688   3.265 -0.6604  0.1801 -0.4041
29652SOL    HW290964   8.576   2.815   3.272 -0.1067  0.5805 -0.9587
29653SOL     OW90965   8.602   3.774   5.987 -0.4058  0.0731  0.2792
29653SOL    HW190966   8.534   3.830   6.023 -1.7057 -1.7893  0.8617
29653SOL    HW290967   8.556   3.698   5.952  1.2704 -0.6794 -0.4472
29654SOL     OW90968   4.358   8.920   6.404  0.5158 -0.1405  0.2181
29654SOL    HW190969   4.445   8.898   6.372  0.3032  0.6680 -0.9915
29654SOL    HW290970   4.304   8.926   6.325 -1.2105 -2.8266  1.0701
29655SOL     OW90971   8.661   9.276   1.183  0.3922 -0.8284  0.0265
29655SOL    HW190972   8.592   9.215   1.206  0.2004 -0.2530  1.0283
29655SOL    HW290973   8.647   9.352   1.240 -0.0365  0.6359 -1.9407
29656SOL     OW90974   5.652   8.439   4.830  0.0313  1.0079 -0.1296
29656SOL    HW190975   5.661   8.346   4.810 -0.6895  0.9379 -0.1610
29656SOL    HW290976   5.631   8.443   4.923 -2.4963  0.9498 -0.6220
29657SOL     OW90977   6.936   0.097   3.451  0.5387 -0.3349  0.2153
29657SOL    HW190978   6.997   0.055   3.513  0.7140 -3.2013 -1.7166
29657SOL    HW290979   6.850   0.065   3.478  0.2863  0.6280  0.5953
29658SOL     OW90980   6.753   0.881   8.247  0.0726  0.7237 -0.1798
29658SOL    HW190981   6.708   0.952   8.201 -0.8029  0.1368 -0.2595
29658SOL    HW290982   6.738   0.804   8.192 -1.0735 -0.0076  1.1060
29659SOL     OW90983   8.672   1.897   8.504  0.5710 -0.1621  0.1478
29659SOL    HW190984   8.741   1.845   8.545 -0.6849  0.1624  2.9405
29659SOL    HW290985   8.595   1.880   8.558 -1.0390  1.0548 -1.6370
29660SOL     OW90986   4.791   4.050  10.135 -0.4217  0.3827  0.3741
29660SOL    HW190987   4.775   4.085  10.047 -1.5328 -1.4684 -0.2148
29660SOL    HW290988   4.794   3.955  10.123 -0.3675  0.1015  2.3129
29661SOL     OW90989   8.256   7.972   2.504  0.0295  0.3714 -0.1375
29661SOL    HW190990   8.197   7.921   2.559  0.5812 -0.0907  0.0265
29661SOL    HW290991   8.343   7.953   2.537  0.2885  0.9249 -0.4877
29662SOL     OW90992  10.411   6.186   1.409  0.0421  0.2582  0.3613
29662SOL    HW190993  10.360   6.195   1.329  0.1714  0.8860  0.3479
29662SOL    HW290994  10.402   6.270   1.454 -0.5745 -0.2969  1.3268
29663SOL     OW90995   3.238   3.624  10.998  0.0088 -0.1440 -0.1464
29663SOL    HW190996   3.215   3.714  10.978  0.2158  0.1815  1.0182
29663SOL    HW290997   3.257   3.585  10.913 -0.6333  0.7447 -0.7145
29664SOL     OW90998   0.348   0.588   6.279  0.0594  0.2823  0.3473
29664SOL    HW190999   0.387   0.670   6.248  1.6580 -0.4316  0.3897
29664SOL    HW291000   0.255   0.597   6.258  0.1824  2.1094  0.3642
29665SOL     OW91001   6.696   4.406   2.929 -0.4671  0.1444  0.1530
29665SOL    HW191002   6.759   4.471   2.958  1.4891 -0.9061 -1.4702
29665SOL    HW291003   6.735   4.322   2.955 -1.6231 -0.4980 -0.1191
29666SOL     OW91004   2.112   8.305   2.181 -0.0317  0.4605 -0.3472
29666SOL    HW191005   2.186   8.321   2.122  0.1935 -0.0743 -0.2178
29666SOL    HW291006   2.050   8.254   2.128  0.2934 -0.2630 -0.0450
29667SOL     OW91007  10.258   0.256   5.351  0.2641 -0.0473  0.0368
29667SOL    HW191008  10.202   0.281   5.424 -0.9421 -1.8600 -0.1924
29667SOL    HW291009  10.346   0.280   5.378 -0.3010  0.3735  1.5944
29668SOL     OW91010   1.185   5.283  10.287 -0.1731 -0.2737  0.1021
29668SOL    HW191011   1.113   5.248  10.340 -1.2634  1.2402 -0.2997
29668SOL    HW291012   1.167   5.376  10.281  1.4146  0.0142 -0.6938
29669SOL     OW91013   9.155   5.971   8.443 -0.7044 -0.2960 -0.2427
29669SOL    HW191014   9.074   5.978   8.393  0.1021  1.2393 -1.4318
29669SOL    HW291015   9.147   6.038   8.511 -0.9158 -0.9474  0.3832
29670SOL     OW91016   5.352   3.411   6.944 -0.2024 -0.3086  0.0143
29670SOL    HW191017   5.346   3.484   6.882  0.7606  0.7612  1.1141
29670SOL    HW291018   5.286   3.431   7.011  1.9252  1.1577  1.8315
29671SOL     OW91019  10.242   6.632   0.126 -0.0480  0.3602 -0.0548
29671SOL    HW191020  10.161   6.612   0.173  0.4530  0.6702  0.9929
29671SOL    HW291021  10.310   6.590   0.178  0.3960 -0.7940 -1.4992
29672SOL     OW91022   7.540   1.143   7.885 -0.1298  0.2622  0.4656
29672SOL    HW191023   7.464   1.189   7.850 -1.3324 -0.5974  1.8006
29672SOL    HW291024   7.615   1.185   7.844 -1.3422  0.4804 -1.6761
29673SOL     OW91025   2.637   1.283   0.879  0.1566 -0.1181 -0.6140
29673SOL    HW191026   2.544   1.262   0.874  0.2938 -1.5878  1.6170
29673SOL    HW291027   2.640   1.377   0.893 -1.0490 -0.1705  0.1020
29674SOL     OW91028   5.247   2.549   2.652  0.8026  0.0624 -0.2015
29674SOL    HW191029   5.210   2.477   2.702  0.7983  0.2315  0.0432
29674SOL    HW291030   5.342   2.539   2.663  0.8734 -0.8027 -1.4354
29675SOL     OW91031   6.001   5.169   7.591 -0.7409  0.4267  0.0963
29675SOL    HW191032   5.999   5.235   7.522 -1.5759 -0.5528 -0.8601
29675SOL    HW291033   6.086   5.126   7.579 -1.3377 -0.4872 -1.0939
29676SOL     OW91034   5.938   0.548  10.057  0.0587 -0.1702 -0.2117
29676SOL    HW191035   5.848   0.543  10.023  0.0180 -1.3301  0.0299
29676SOL    HW291036   5.993   0.537   9.980 -0.0344 -1.7288 -0.0986
29677SOL     OW91037   5.856   5.208   8.144 -0.1219 -0.5495 -0.0182
29677SOL    HW191038   5.944   5.172   8.143 -0.1571 -0.6283 -0.5052
29677SOL    HW291039   5.798   5.132   8.141 -0.2057 -0.4920  0.1179
29678SOL     OW91040   5.454   7.823   3.639 -0.0524  0.2189 -0.2420
29678SOL    HW191041   5.500   7.896   3.599  2.1982 -1.3493 -0.7010
29678SOL    HW291042   5.508   7.746   3.619 -1.7332 -1.4277  1.1361
29679SOL     OW91043  10.480   2.093   5.052 -0.0586  0.0991 -0.1279
29679SOL    HW191044  10.570   2.090   5.085 -0.1881 -1.7830  0.1669
29679SOL    HW291045  10.483   2.047   4.969 -0.7143  0.1933 -0.2136
29680SOL     OW91046   0.150   8.680   8.017  0.1587 -0.0556 -0.0560
29680SOL    HW191047   0.240   8.681   7.986  0.4786  0.7291  0.8363
29680SOL    HW291048   0.133   8.589   8.041 -0.0288 -0.6410 -2.2306
29681SOL     OW91049   8.870   9.557   0.065 -0.2469  0.2824  0.0729
29681SOL    HW191050   8.947   9.600   0.026 -0.9120  1.1173 -0.3462
29681SOL    HW291051   8.830   9.508  -0.008 -1.0345  1.1894 -0.1171
29682SOL     OW91052   5.169   2.693   2.375 -0.2873  0.2923  0.4935
29682SOL    HW191053   5.087   2.734   2.350 -0.8211 -0.7691  0.4577
29682SOL    HW291054   5.161   2.602   2.346  0.7357  0.0714  0.8482
29683SOL     OW91055   6.919   0.210   0.469  0.7325 -0.0478  0.3788
29683SOL    HW191056   7.001   0.258   0.481  1.2440 -0.7157 -0.3369
29683SOL    HW291057   6.943   0.118   0.477 -0.0153 -0.2432  0.4902
29684SOL     OW91058   3.779   3.105   4.286 -0.0553 -0.2276 -0.1507
29684SOL    HW191059   3.822   3.019   4.284 -0.5363 -0.5651  1.8622
29684SOL    HW291060   3.727   3.108   4.206  2.5110 -0.3935 -1.9728
29685SOL     OW91061   8.022   2.310   0.540  0.2967  0.0333 -0.6950
29685SOL    HW191062   8.109   2.344   0.559  0.0445  0.0149  0.5724
29685SOL    HW291063   7.962   2.374   0.577 -0.2149 -0.4885 -0.5993
29686SOL     OW91064   4.063   2.572   4.481  0.0094  0.5484 -0.2297
29686SOL    HW191065   4.147   2.545   4.519  0.0144  1.5500  0.5254
29686SOL    HW291066   4.084   2.601   4.393  0.0179 -1.7310 -1.0388
29687SOL     OW91067   6.304   2.684   4.410 -0.4772  0.1928  0.4241
29687SOL    HW191068   6.231   2.715   4.463 -0.9167  0.2314 -0.1986
29687SOL    HW291069   6.353   2.763   4.388  0.8155  0.0007  2.3554
29688SOL     OW91070   9.714   1.731  10.929  0.1194  0.3816 -0.2218
29688SOL    HW191071   9.676   1.667  10.868  0.1813  0.2583 -0.1316
29688SOL    HW291072   9.714   1.813  10.880 -2.9435  1.0792  0.6907
29689SOL     OW91073   2.803   0.437   4.517  0.4648  0.3882 -0.1936
29689SOL    HW191074   2.787   0.531   4.508 -1.7161  0.1148  0.0377
29689SOL    HW291075   2.777   0.400   4.433 -0.6395 -0.1761  0.3706
29690SOL     OW91076  10.996   9.398   2.454 -0.2876 -0.3670  0.7832
29690SOL    HW191077  10.941   9.455   2.507 -0.3520  0.8466 -0.5347
29690SOL    HW291078  10.935   9.359   2.391 -0.0999 -1.2698  1.1409
29691SOL     OW91079   9.831   1.179   1.681  0.2262 -0.4508  0.0320
29691SOL    HW191080   9.756   1.213   1.730  0.1022 -0.1302 -0.3763
29691SOL    HW291081   9.873   1.119   1.741  0.4751  0.4564  0.7954
29692SOL     OW91082   2.169  10.179   8.668 -0.2458 -0.1110  0.3965
29692SOL    HW191083   2.183  10.090   8.701 -2.4965 -0.1081  1.5800
29692SOL    HW291084   2.159  10.233   8.747 -1.0208  0.7977 -0.2940
29693SOL     OW91085   5.546   9.907   9.239 -0.1187 -0.1023  0.0600
29693SOL    HW191086   5.613   9.971   9.214  0.2363 -0.9478 -1.2615
29693SOL    HW291087   5.525   9.861   9.157 -0.6911 -1.3746  0.8892
29694SOL     OW91088   7.795   8.357   0.220  0.1273 -0.0117 -0.5880
29694SOL    HW191089   7.767   8.326   0.306 -0.1067 -0.7870 -0.9444
29694SOL    HW291090   7.794   8.280   0.164 -1.2949  0.7634 -1.7006
29695SOL     OW91091   4.873   1.866   9.914  1.0053 -0.2668  0.6948
29695SOL    HW191092   4.940   1.910   9.861 -0.2437 -0.2311 -0.9205
29695SOL    HW291093   4.804   1.931   9.924  1.6514  0.1320  3.4205
29696SOL     OW91094  10.139   7.878   5.520  0.5608  0.2852  0.2349
29696SOL    HW191095  10.199   7.944   5.486 -0.4841  0.9605 -0.3318
29696SOL    HW291096  10.069   7.873   5.456 -0.5669  0.3323  1.4125
29697SOL     OW91097   7.817  10.593   5.678 -0.3119 -0.4637 -0.4436
29697SOL    HW191098   7.864  10.609   5.760 -3.0247  1.6798  0.8436
29697SOL    HW291099   7.872  10.636   5.612 -0.0880  1.5441  0.9223
29698SOL     OW91100   1.020   0.016   8.473  0.0686 -0.0703 -0.3724
29698SOL    HW191101   0.974  -0.040   8.411  0.5647  0.0298 -0.8441
29698SOL    HW291102   0.952   0.051   8.530 -0.4654  0.2652 -1.2056
29699SOL     OW91103  10.448   1.803   9.202  0.3355 -0.3357 -0.2097
29699SOL    HW191104  10.453   1.711   9.176  0.2189 -0.1950 -0.7402
29699SOL    HW291105  10.514   1.847   9.148 -0.5906  0.1192 -1.0034
29700SOL     OW91106   0.218   1.276   3.120 -0.1638  0.2019  0.6164
29700SOL    HW191107   0.184   1.239   3.201  0.7362  0.1636  0.9879
29700SOL    HW291108   0.283   1.341   3.148  0.9731 -0.6068 -0.0779
29701SOL     OW91109   9.609  10.301   4.487  0.2973 -0.0164  0.2736
29701SOL    HW191110   9.601  10.389   4.524  1.1914 -0.8256  2.5931
29701SOL    HW291111   9.549  10.301   4.412  2.0787  3.3024 -1.4065
29702SOL     OW91112  10.914   4.368   6.131  0.6570 -0.0703  0.2903
29702SOL    HW191113  10.931   4.340   6.041  0.2273  0.1939  0.1263
29702SOL    HW291114  10.945   4.458   6.134  0.1576  0.1074  0.2470
29703SOL     OW91115   0.884   6.368   2.817 -0.1348  0.2795  0.2301
29703SOL    HW191116   0.817   6.411   2.871 -0.8375 -0.4520 -0.0327
29703SOL    HW291117   0.878   6.412   2.733 -0.4979  0.0157  0.1163
29704SOL     OW91118  10.672   1.908   2.757 -0.1846  0.1590 -0.4716
29704SOL    HW191119  10.710   1.994   2.742  1.8292 -0.6040 -0.0400
29704SOL    HW291120  10.692   1.859   2.677  0.8516 -0.6193  0.2417
29705SOL     OW91121   8.242   9.285  10.743  0.4364 -0.3582  0.0066
29705SOL    HW191122   8.269   9.313  10.831  1.4191 -0.0659 -0.3705
29705SOL    HW291123   8.242   9.189  10.748  2.7589 -0.4477 -0.2653
29706SOL     OW91124   4.071   6.618   3.444 -0.0603  0.4741 -0.3104
29706SOL    HW191125   4.062   6.558   3.371  0.7643 -1.0412  0.7719
29706SOL    HW291126   3.981   6.645   3.465 -0.6916 -1.8667  0.3188
29707SOL     OW91127   7.633   8.988   0.347 -0.2741 -0.2596 -0.0111
29707SOL    HW191128   7.720   8.950   0.346 -0.7766 -1.4746 -1.2939
29707SOL    HW291129   7.606   8.986   0.439  0.5654 -1.0239  0.2231
29708SOL     OW91130   7.570   9.493   5.266  0.6219  0.8158  0.0858
29708SOL    HW191131   7.538   9.493   5.176  0.5640  0.1199  0.1037
29708SOL    HW291132   7.514   9.556   5.311 -2.3414 -1.9675  0.6627
29709SOL     OW91133   8.638   9.830   2.939  0.2429 -0.6089  0.7405
29709SOL    HW191134   8.563   9.883   2.967  0.4856 -0.6547  1.5085
29709SOL    HW291135   8.602   9.742   2.926  0.1318 -0.6001  0.9749
29710SOL     OW91136   8.614   5.817   4.330  0.0246  0.2842  0.5344
29710SOL    HW191137   8.640   5.752   4.395  0.5528 -0.0172  0.0339
29710SOL    HW291138   8.519   5.820   4.336 -0.0852 -1.2066 -0.0529
29711SOL     OW91139   1.848   6.703   4.332 -0.0160 -0.9048 -0.2647
29711SOL    HW191140   1.937   6.694   4.296  0.4680  0.1531  0.6337
29711SOL    HW291141   1.791   6.678   4.259  0.9689  0.0962 -1.4338
29712SOL     OW91142   0.232   1.889  10.249 -0.3468 -0.2934 -0.6548
29712SOL    HW191143   0.173   1.816  10.228 -1.6036  0.9794 -1.7804
29712SOL    HW291144   0.174   1.964  10.260  0.9865  0.7506 -0.4546
29713SOL     OW91145   9.310   4.554   5.834 -0.0517 -0.0543 -0.4311
29713SOL    HW191146   9.350   4.640   5.843  0.4949 -0.3225 -0.2633
29713SOL    HW291147   9.216   4.572   5.829 -0.3966  0.3216  3.9189
29714SOL     OW91148   4.025   2.219   4.153  0.6071 -0.9745  0.3632
29714SOL    HW191149   4.110   2.193   4.190  1.6411  1.1180 -0.3741
29714SOL    HW291150   4.045   2.296   4.099 -1.5894 -1.1469 -0.8100
29715SOL     OW91151   7.792   0.451   7.832 -0.1236 -0.2441 -0.1888
29715SOL    HW191152   7.778   0.384   7.900  1.3624  0.2395  0.6419
29715SOL    HW291153   7.884   0.441   7.808 -0.2062  0.7069 -0.9329
29716SOL     OW91154   1.463   2.149   8.088  0.2872 -0.3892 -0.0830
29716SOL    HW191155   1.427   2.068   8.123  0.0350 -0.0813  0.3800
29716SOL    HW291156   1.529   2.176   8.152 -1.1060  0.8774  0.8840
29717SOL     OW91157   5.900   1.233   5.177  0.4417 -0.2002  0.0323
29717SOL    HW191158   5.988   1.244   5.212  0.7400 -0.1391 -0.7299
29717SOL    HW291159   5.859   1.168   5.235  1.4543 -1.3067 -0.4549
29718SOL     OW91160  10.607   7.513   7.233  0.4565  0.4384  0.0001
29718SOL    HW191161  10.639   7.603   7.238  0.9250  0.2879 -0.2753
29718SOL    HW291162  10.642   7.480   7.151 -0.0912  0.1460 -0.1219
29719SOL     OW91163   3.397   1.756   1.100  0.2857  0.1891 -0.0054
29719SOL    HW191164   3.361   1.699   1.032  1.2886 -0.7899  0.2628
29719SOL    HW291165   3.481   1.784   1.065  0.2693  0.6602  0.3253
29720SOL     OW91166   0.332  10.690   6.741  0.1351 -0.4283  0.8326
29720SOL    HW191167   0.253  10.636   6.741  0.4020 -0.8439 -0.6731
29720SOL    HW291168   0.307  10.771   6.696  0.2584 -0.0553  1.4120
29721SOL     OW91169  10.177   2.351   7.080  0.5592  0.4550  0.0269
29721SOL    HW191170  10.157   2.294   7.154  1.3816  0.5335  0.3163
29721SOL    HW291171  10.098   2.405   7.070  1.1528  1.8284  2.1099
29722SOL     OW91172   5.018   0.268   7.215  0.0949  0.0982  0.1960
29722SOL    HW191173   4.927   0.283   7.191 -0.1191 -1.1564  0.1555
29722SOL    HW291174   5.024   0.174   7.229  1.3868  0.1641  0.2083
29723SOL     OW91175   7.095  10.040   8.999  0.1794  0.0929 -0.0080
29723SOL    HW191176   7.071   9.992   9.079 -0.5039  0.1759 -0.1584
29723SOL    HW291177   7.145  10.114   9.031 -0.2844  0.2516  0.3713
29724SOL     OW91178   3.876   7.921   4.065  0.4511 -0.2438 -0.2261
29724SOL    HW191179   3.795   7.966   4.087  0.4737 -1.1414  1.9813
29724SOL    HW291180   3.859   7.882   3.979 -0.7301  1.1639 -0.6720
29725SOL     OW91181   3.025   5.723   3.709  0.0840  0.1535  0.0116
29725SOL    HW191182   3.110   5.727   3.752  0.2171 -0.2804 -0.1987
29725SOL    HW291183   2.984   5.808   3.726  0.4707  0.2818  0.2938
29726SOL     OW91184   4.696   2.631   2.102 -0.1120  0.1661 -0.4498
29726SOL    HW191185   4.652   2.667   2.179  1.5911  1.9833 -0.2567
29726SOL    HW291186   4.632   2.641   2.031 -0.6905  1.0174  0.1695
29727SOL     OW91187   4.994   1.778   2.359 -0.3656  0.0194 -0.0327
29727SOL    HW191188   4.939   1.772   2.437  0.4999  0.2020  0.6082
29727SOL    HW291189   5.034   1.691   2.351 -0.9455 -0.2020 -0.6631
29728SOL     OW91190   9.084   1.391   4.084 -0.4273  0.1126 -0.6176
29728SOL    HW191191   9.029   1.314   4.073 -1.9268  0.8924  1.0238
29728SOL    HW291192   9.067   1.444   4.005 -0.2240 -0.7020 -1.2204
29729SOL     OW91193   5.023  10.696   2.565 -0.4109  0.5680  0.1526
29729SOL    HW191194   5.052  10.611   2.532 -1.2226  0.3180  0.0765
29729SOL    HW291195   5.104  10.740   2.591 -0.0456 -0.5933  1.0757
29730SOL     OW91196   9.724   7.389   0.455  0.3136 -0.2556  0.0738
29730SOL    HW191197   9.689   7.308   0.417 -0.1290 -0.4625  0.9126
29730SOL    HW291198   9.816   7.369   0.472  0.4209 -0.2909 -0.5166
29731SOL     OW91199   0.284   7.825   6.310 -0.2668 -0.2178  0.0846
29731SOL    HW191200   0.232   7.808   6.232 -0.3973 -0.9970  0.3264
29731SOL    HW291201   0.263   7.752   6.369  0.2922  0.0285  0.6027
29732SOL     OW91202   1.261   5.027   7.230  0.2172  0.4846  0.1132
29732SOL    HW191203   1.222   4.974   7.300 -0.7714  1.7237  0.5216
29732SOL    HW291204   1.349   4.989   7.218 -0.4600 -1.2503  0.3623
29733SOL     OW91205   8.514   7.618   4.429  0.4014  0.0926  0.1048
29733SOL    HW191206   8.531   7.525   4.438  2.0520  0.1607 -1.7289
29733SOL    HW291207   8.451   7.625   4.357  0.9895  0.4245 -0.3869
29734SOL     OW91208   4.962   8.092   8.203 -0.2220 -0.4407  0.5554
29734SOL    HW191209   4.884   8.125   8.249 -1.1690 -0.0090 -1.2712
29734SOL    HW291210   4.993   8.168   8.153  0.7128 -0.9214  0.3952
29735SOL     OW91211   4.027   9.627   0.810  0.4176  0.6014  0.8759
29735SOL    HW191212   4.044   9.706   0.759 -1.2374  0.5001  0.1016
29735SOL    HW291213   3.975   9.658   0.885 -2.1786  0.0677 -0.5610
29736SOL     OW91214  10.732  10.690   8.582  0.2492 -0.0589  0.2390
29736SOL    HW191215  10.774  10.675   8.667  1.0635  1.1793  0.0939
29736SOL    HW291216  10.765  10.621   8.526  0.1460 -0.5596  0.7891
29737SOL     OW91217   9.801   7.821   2.800  0.5065 -0.6458  0.2996
29737SOL    HW191218   9.849   7.771   2.733  3.1491  2.2342 -0.2159
29737SOL    HW291219   9.714   7.834   2.762  1.5566 -0.1151 -2.1362
29738SOL     OW91220   7.338   0.228   7.360 -0.4001  0.3231 -0.9166
29738SOL    HW191221   7.344   0.316   7.321  1.2538  0.2517 -0.9141
29738SOL    HW291222   7.350   0.169   7.286  1.8306  0.1780 -0.5299
29739SOL     OW91223   0.176   2.149  10.029  0.6305  0.1947  0.0800
29739SOL    HW191224   0.230   2.193   9.963  0.4259  0.0392 -0.1909
29739SOL    HW291225   0.182   2.056  10.007  1.1234  0.0774  0.6983
29740SOL     OW91226   0.462   8.755   4.613  0.5264  0.1156 -0.5668
29740SOL    HW191227   0.503   8.770   4.698  0.1701  1.6265 -0.6365
29740SOL    HW291228   0.528   8.784   4.550  0.3046  0.2039 -0.7591
29741SOL     OW91229  10.314   4.356   3.436  0.3251  0.3349 -0.3140
29741SOL    HW191230  10.342   4.429   3.492  2.0025 -1.5021  1.4110
29741SOL    HW291231  10.222   4.343   3.459  0.8090  0.0348  1.6085
29742SOL     OW91232   0.314   4.097   4.764 -0.4505  0.0825  0.7864
29742SOL    HW191233   0.258   4.020   4.775 -0.7090  0.1604  0.0485
29742SOL    HW291234   0.374   4.093   4.838 -0.4154 -0.8689  0.7191
29743SOL     OW91235   2.342   6.129  10.265 -0.4332 -0.0282  0.6309
29743SOL    HW191236   2.259   6.138  10.219  0.0976  1.4265 -0.1018
29743SOL    HW291237   2.351   6.211  10.315  0.8894  0.1757  0.1109
29744SOL     OW91238   3.480   7.961   7.701 -0.0227  0.2960  0.0263
29744SOL    HW191239   3.393   7.920   7.704 -0.7418  1.7784  0.2433
29744SOL    HW291240   3.518   7.931   7.618 -0.3928 -1.0088  0.2985
29745SOL     OW91241   8.685   8.343   6.217  0.0727 -0.5668  0.4936
29745SOL    HW191242   8.613   8.362   6.277  1.2821  0.6309  1.6329
29745SOL    HW291243   8.686   8.417   6.157  0.9629 -0.0658  1.1110
29746SOL     OW91244   7.764   7.439   7.090  0.4185 -0.1190  0.2673
29746SOL    HW191245   7.791   7.453   7.000  0.8067  0.2148  0.4359
29746SOL    HW291246   7.831   7.381   7.126  0.5041  0.1025  0.4672
29747SOL     OW91247   2.163   1.346   5.827 -0.5369 -0.1751  0.1824
29747SOL    HW191248   2.090   1.393   5.788 -1.4561 -0.6228  1.2886
29747SOL    HW291249   2.176   1.388   5.913 -0.0494 -0.6500  0.3494
29748SOL     OW91250  10.731   0.395   6.541  0.2035  0.0867  0.4005
29748SOL    HW191251  10.759   0.443   6.619  2.5896  0.1264 -0.4040
29748SOL    HW291252  10.643   0.427   6.524 -0.4446 -0.0102  3.1158
29749SOL     OW91253  10.417   0.525   3.500  0.4562  0.1963  0.2886
29749SOL    HW191254  10.424   0.492   3.410 -0.4257 -1.2593  0.7208
29749SOL    HW291255  10.480   0.473   3.550  0.3003  0.3748  0.6732
29750SOL     OW91256   6.492   0.881   7.340  0.5043  0.0288 -0.6658
29750SOL    HW191257   6.469   0.902   7.430  1.6668 -2.5781  0.3646
29750SOL    HW291258   6.532   0.961   7.305  1.2319  0.7073  1.5835
29751SOL     OW91259   6.739   4.852   5.726  0.5613  0.5723 -0.2750
29751SOL    HW191260   6.809   4.791   5.703  1.1330  1.1379 -0.0407
29751SOL    HW291261   6.681   4.801   5.783  0.7936  0.1101 -0.4478
29752SOL     OW91262   8.939  10.270   8.574 -0.0218  0.3386 -0.3998
29752SOL    HW191263   8.940  10.358   8.612  1.6740  0.2242 -0.1139
29752SOL    HW291264   9.031  10.245   8.568 -0.4158 -0.9650 -1.5696
29753SOL     OW91265   2.541   1.271   3.530 -0.1503 -0.2993 -0.0284
29753SOL    HW191266   2.589   1.193   3.559  0.7794  0.4969  0.6776
29753SOL    HW291267   2.569   1.284   3.439  0.7764 -0.0157  0.2843
29754SOL     OW91268   1.282   2.957  10.983  0.2390  0.2021  0.4699
29754SOL    HW191269   1.199   3.002  10.998  0.1804  0.3779 -0.3413
29754SOL    HW291270   1.313   2.934  11.071 -0.8595 -0.2274  0.7623
29755SOL     OW91271   2.568   1.874   5.662  0.3497  0.2056  0.3513
29755SOL    HW191272   2.484   1.846   5.624 -0.0059 -0.9990  1.9215
29755SOL    HW291273   2.624   1.797   5.657  0.6624  0.3656  1.2019
29756SOL     OW91274   6.049   2.055   2.492 -0.1815 -0.0786 -0.5690
29756SOL    HW191275   6.085   2.088   2.410  0.3349 -0.1532 -0.3791
29756SOL    HW291276   5.967   2.012   2.468 -0.4637  0.6486 -0.9247
29757SOL     OW91277   8.583   1.247   8.520  0.6085 -0.0919  0.5841
29757SOL    HW191278   8.520   1.229   8.589  1.5613 -1.3165  1.1770
29757SOL    HW291279   8.575   1.172   8.461  1.1587 -0.0133  0.4084
29758SOL     OW91280   7.620   8.687   4.624  0.3728  0.4397 -0.2569
29758SOL    HW191281   7.630   8.704   4.530  0.7758  0.9879 -0.1196
29758SOL    HW291282   7.623   8.591   4.631 -0.7221  0.3376 -0.9170
29759SOL     OW91283   8.887  11.044   1.504 -0.2477  0.0529 -0.4177
29759SOL    HW191284   8.945  11.023   1.430  0.5673  0.6943  0.0165
29759SOL    HW291285   8.824  10.973   1.506  0.2801 -0.4555 -1.1720
29760SOL     OW91286   3.282  11.046   4.589 -0.2810 -0.2007  0.2269
29760SOL    HW191287   3.206  11.031   4.532  0.9112 -2.1132 -0.9614
29760SOL    HW291288   3.327  11.120   4.548 -1.2897  0.7365  0.7577
29761SOL     OW91289   5.694   2.510   4.900 -0.3753  0.3187 -0.5627
29761SOL    HW191290   5.625   2.573   4.880  0.3866  0.4697 -3.1292
29761SOL    HW291291   5.767   2.536   4.844  1.3506 -0.5764  1.1508
29762SOL     OW91292   1.408   1.910   0.580 -0.0923 -0.5052 -0.6642
29762SOL    HW191293   1.470   1.968   0.536 -0.8482  0.4786 -0.4519
29762SOL    HW291294   1.374   1.854   0.510 -1.4681  1.2073 -1.4609
29763SOL     OW91295   8.325   1.279   8.143  0.1413  0.2899  0.0280
29763SOL    HW191296   8.242   1.252   8.103  1.4009  1.0791 -3.4865
29763SOL    HW291297   8.306   1.284   8.237 -3.4750 -0.5433 -0.5105
29764SOL     OW91298   0.384   4.850   8.101  0.1949  0.0794  0.0979
29764SOL    HW191299   0.411   4.801   8.179 -1.9320 -0.1863  0.7355
29764SOL    HW291300   0.315   4.797   8.062 -0.6806  1.5333 -0.4035
29765SOL     OW91301   6.672   2.082   4.453  0.2226 -0.1111 -0.2750
29765SOL    HW191302   6.682   2.157   4.394  0.2333  0.4292  0.4065
29765SOL    HW291303   6.578   2.069   4.459  0.2033  0.1284 -0.0461
29766SOL     OW91304   8.471   0.650   7.365 -0.4877  0.1067  0.0102
29766SOL    HW191305   8.386   0.691   7.348  0.0378  0.9583 -0.6542
29766SOL    HW291306   8.454   0.589   7.437 -1.6842  0.1651 -0.2002
29767SOL     OW91307   8.329   1.664   3.104 -0.5574  0.1851  0.3436
29767SOL    HW191308   8.402   1.702   3.054 -1.3265  1.0298 -0.1511
29767SOL    HW291309   8.278   1.616   3.038 -1.0444  0.4978  0.4918
29768SOL     OW91310   7.627   0.869   4.249  0.2606 -0.0763  0.1808
29768SOL    HW191311   7.625   0.927   4.325 -0.3824 -0.4854  0.4840
29768SOL    HW291312   7.711   0.888   4.207  1.2128 -0.7176  1.6825
29769SOL     OW91313   5.527  10.209   5.697 -0.0027  0.0791 -0.0977
29769SOL    HW191314   5.449  10.211   5.752 -1.0335  0.3294 -1.5111
29769SOL    HW291315   5.594  10.252   5.749 -0.9991  0.5119  0.8687
29770SOL     OW91316   8.707   6.390   0.587 -0.0111 -0.6907  0.5111
29770SOL    HW191317   8.766   6.320   0.616 -1.8853 -2.7264 -0.3450
29770SOL    HW291318   8.711   6.387   0.491  1.2567  1.6711  0.4181
29771SOL     OW91319   9.886   0.666   5.492 -0.6046 -0.1110 -0.0451
29771SOL    HW191320   9.971   0.638   5.457 -1.3276 -0.3533 -1.7435
29771SOL    HW291321   9.872   0.611   5.569 -0.8386 -2.7423 -1.8405
29772SOL     OW91322   8.230   6.133   3.958 -0.2491  0.1270 -0.0498
29772SOL    HW191323   8.279   6.113   4.037  0.7120 -2.3354 -1.1647
29772SOL    HW291324   8.282   6.094   3.887 -1.9572  0.6822 -1.6830
29773SOL     OW91325   5.005   9.308   0.736  0.5414  0.0772  0.4345
29773SOL    HW191326   5.032   9.345   0.820  0.9104 -0.0880  0.3916
29773SOL    HW291327   4.949   9.234   0.760  2.3375 -1.2971  0.6037
29774SOL     OW91328   9.736   3.414   9.628 -0.0351 -0.1270 -0.3287
29774SOL    HW191329   9.831   3.413   9.638 -0.1699 -2.5183  1.5447
29774SOL    HW291330   9.703   3.458   9.706 -0.5038 -1.7525  0.4347
29775SOL     OW91331   4.409   3.459   9.334  0.1069 -0.0803 -0.3506
29775SOL    HW191332   4.479   3.469   9.399  0.7282 -0.2045 -0.9894
29775SOL    HW291333   4.329   3.486   9.381  0.4583 -0.6608  0.6140
29776SOL     OW91334   6.406   2.416   0.266  0.0519  0.0129 -0.0627
29776SOL    HW191335   6.367   2.415   0.178 -0.8536  0.6322  0.3117
29776SOL    HW291336   6.455   2.498   0.269 -0.8065  0.5346  0.3551
29777SOL     OW91337  10.984   2.446   4.589  0.1068  0.4378  0.3921
29777SOL    HW191338  10.932   2.474   4.515 -0.5509  2.2200  1.4718
29777SOL    HW291339  11.066   2.415   4.550 -0.5030  0.6217 -1.1013
29778SOL     OW91340   7.608   0.443   6.504  0.4313 -0.6010 -0.0452
29778SOL    HW191341   7.703   0.445   6.502  0.4421  0.8894  0.1935
29778SOL    HW291342   7.582   0.527   6.466 -0.6093  1.2763  4.2423
29779SOL     OW91343   9.400   8.678   3.568  0.1061  0.2176 -0.8809
29779SOL    HW191344   9.436   8.675   3.480  0.8546 -0.5347 -0.5588
29779SOL    HW291345   9.457   8.738   3.616 -0.0309  0.2732 -0.7848
29780SOL     OW91346   4.185   1.891   6.884  0.3086  0.0966 -0.1593
29780SOL    HW191347   4.135   1.972   6.891 -1.2436 -0.7342 -1.0391
29780SOL    HW291348   4.258   1.902   6.944 -1.9445  0.6323  2.6734
29781SOL     OW91349   5.916   8.295   8.053 -0.9213  0.4086  0.0178
29781SOL    HW191350   5.940   8.312   8.144  2.0412 -0.8543 -0.4288
29781SOL    HW291351   5.966   8.359   8.002  1.5272 -2.0467 -0.9285
29782SOL     OW91352   6.817   3.038   7.752  0.0876  0.0967  0.0395
29782SOL    HW191353   6.797   3.129   7.733  1.8210  0.3518 -0.7468
29782SOL    HW291354   6.828   2.997   7.666 -2.9680 -1.4750  0.2740
29783SOL     OW91355   0.713   2.850   0.539  0.2494  0.3214 -0.6667
29783SOL    HW191356   0.733   2.890   0.454  0.9528 -1.0702 -1.1889
29783SOL    HW291357   0.795   2.808   0.565  0.0398  0.7487  0.7269
29784SOL     OW91358   5.371   0.401  10.113  0.1224  0.1548  0.2925
29784SOL    HW191359   5.374   0.305  10.109  0.1677  0.1902 -1.0818
29784SOL    HW291360   5.317   0.426  10.038 -0.4262  1.1860  1.0078
29785SOL     OW91361   7.116   3.467   6.651  0.1005 -0.4877  0.1079
29785SOL    HW191362   7.130   3.381   6.612  1.7301 -0.3611  0.3130
29785SOL    HW291363   7.073   3.518   6.582 -0.1357 -1.2289 -0.2964
29786SOL     OW91364   7.505  10.204   6.794 -0.5668  0.6041 -1.1312
29786SOL    HW191365   7.487  10.171   6.882 -2.8422 -0.2524 -1.8569
29786SOL    HW291366   7.563  10.279   6.808  2.4772 -1.8558  0.7809
29787SOL     OW91367   4.854   6.553   9.424  0.2870 -0.0717 -0.1978
29787SOL    HW191368   4.849   6.554   9.519  0.0691 -0.0067 -0.2098
29787SOL    HW291369   4.850   6.460   9.400  1.9494 -0.1990 -0.0645
29788SOL     OW91370   7.029   4.818   1.972  0.0446 -0.4925 -0.4805
29788SOL    HW191371   7.064   4.776   2.050  1.1986 -0.2485 -0.8490
29788SOL    HW291372   7.000   4.904   2.002  0.3441 -0.4568 -0.2949
29789SOL     OW91373   2.623  10.598   1.983  0.5085 -0.0786  0.1769
29789SOL    HW191374   2.660  10.659   2.045 -3.1196  1.6568  0.8868
29789SOL    HW291375   2.584  10.529   2.037 -1.3723  0.6674 -0.1515
29790SOL     OW91376   3.916   2.143   3.390 -0.0557  0.0113 -0.0677
29790SOL    HW191377   3.872   2.118   3.308  0.0404  0.3905 -0.2376
29790SOL    HW291378   4.007   2.119   3.376  0.4110  2.0921 -0.9530
29791SOL     OW91379   6.514   9.850   3.773  0.5013  0.0898  0.3631
29791SOL    HW191380   6.538   9.919   3.712 -1.6169 -0.2633 -0.9899
29791SOL    HW291381   6.562   9.773   3.744 -0.4212 -0.0497 -0.8565
29792SOL     OW91382   1.984   0.455  10.499 -0.1811 -0.3628 -0.3946
29792SOL    HW191383   2.079   0.438  10.498 -0.2832 -1.3039  1.4384
29792SOL    HW291384   1.952   0.410  10.421  0.7370 -1.1022 -0.3738
29793SOL     OW91385   2.146   3.159   3.888 -0.1933 -0.2369  0.1530
29793SOL    HW191386   2.086   3.110   3.945 -1.4171 -0.2300 -1.0720
29793SOL    HW291387   2.125   3.128   3.800  0.4281  1.0159 -0.4510
29794SOL     OW91388   4.189   0.960   4.195  0.5326  0.4845 -0.1080
29794SOL    HW191389   4.149   0.883   4.154 -0.7523  0.7198  0.6608
29794SOL    HW291390   4.216   0.930   4.281  2.2084  0.2927 -0.6635
29795SOL     OW91391   7.185   1.038  10.232  0.8684 -0.8323  0.2379
29795SOL    HW191392   7.121   1.050  10.302  1.2624 -0.0547  0.4765
29795SOL    HW291393   7.165   1.108  10.169  1.4901 -0.5736  0.3240
29796SOL     OW91394   7.716   9.457   0.962  0.7105 -0.0312  0.1443
29796SOL    HW191395   7.723   9.547   0.931 -2.0315  1.0090  2.1354
29796SOL    HW291396   7.757   9.458   1.048 -1.7267  0.1218  1.3879
29797SOL     OW91397   3.819   0.902   8.947  0.1681 -0.1711  0.3441
29797SOL    HW191398   3.862   0.883   8.863 -0.6391  0.3337 -0.1948
29797SOL    HW291399   3.890   0.900   9.011  0.6718 -1.4303 -0.2112
29798SOL     OW91400   6.727   3.409   9.480 -0.7560 -0.2246  0.0358
29798SOL    HW191401   6.726   3.458   9.397 -1.3751  0.5448  0.4835
29798SOL    HW291402   6.811   3.363   9.479 -0.4113  0.3819 -0.6755
29799SOL     OW91403   4.639   9.854   4.652 -0.4117 -0.2373  0.1424
29799SOL    HW191404   4.670   9.822   4.737  2.3456  0.9056 -0.3256
29799SOL    HW291405   4.640   9.949   4.661 -1.2777 -0.1259 -0.8192
29800SOL     OW91406   7.811   0.380   9.501 -0.0328 -0.2417 -0.3523
29800SOL    HW191407   7.730   0.409   9.543  0.0867 -1.5726  0.8816
29800SOL    HW291408   7.787   0.366   9.409 -0.9839  0.1994 -0.1835
29801SOL     OW91409  10.478   9.631   0.922 -0.2250 -0.1994  0.1886
29801SOL    HW191410  10.429   9.638   0.840  1.4133 -0.0863 -0.8225
29801SOL    HW291411  10.471   9.718   0.962 -3.0614 -0.8919  1.4590
29802SOL     OW91412   6.840   5.231   2.896 -0.4306 -0.2817 -0.3160
29802SOL    HW191413   6.930   5.201   2.906 -0.4012  0.1812  0.8898
29802SOL    HW291414   6.794   5.195   2.972 -0.7221  1.4593  0.3620
29803SOL     OW91415   2.685   0.417   9.637  0.1012 -0.4022 -0.3074
29803SOL    HW191416   2.741   0.472   9.583 -0.2989  0.0966 -0.2255
29803SOL    HW291417   2.631   0.369   9.574 -0.9021  0.7410 -0.3758
29804SOL     OW91418   6.320  10.620   4.655 -0.1520  0.1964  0.2106
29804SOL    HW191419   6.257  10.665   4.710  0.7880  2.5253 -0.4957
29804SOL    HW291420   6.270  10.594   4.577 -0.5586  0.6978  0.3038
29805SOL     OW91421   7.133   7.819   7.514  0.0227  0.2420  0.4184
29805SOL    HW191422   7.157   7.909   7.491  0.7980  0.3647  1.6522
29805SOL    HW291423   7.208   7.785   7.561 -1.5901  0.1366  3.1337
29806SOL     OW91424   8.943   3.390   6.125 -0.5560 -0.5493  0.3109
29806SOL    HW191425   8.934   3.484   6.137 -0.8401 -0.3298 -1.2889
29806SOL    HW291426   8.937   3.353   6.213  0.2720  0.9631  1.0498
29807SOL     OW91427   2.410   1.095   4.346  0.0859  1.0922  0.6416
29807SOL    HW191428   2.332   1.094   4.402  0.3761 -0.4604  1.0471
29807SOL    HW291429   2.476   1.140   4.397 -0.0891  1.0165  0.9374
29808SOL     OW91430   8.891   2.565  10.268 -0.5527  0.1499 -0.0116
29808SOL    HW191431   8.959   2.515  10.313 -0.5408  0.7794  0.7016
29808SOL    HW291432   8.902   2.543  10.176  1.1422  0.8392 -0.0139
29809SOL     OW91433   4.850   0.099   8.506 -0.0115 -0.0074 -0.8272
29809SOL    HW191434   4.841   0.171   8.444 -0.6678  0.2756 -0.4114
29809SOL    HW291435   4.841   0.140   8.592 -0.0131 -0.5302 -0.5733
29810SOL     OW91436   7.579   1.995   5.663 -0.2700  0.8324  0.2978
29810SOL    HW191437   7.587   1.903   5.637 -0.7259  1.2633 -1.4843
29810SOL    HW291438   7.537   1.992   5.750 -1.8255 -0.6149 -0.4450
29811SOL     OW91439   6.971  10.077   5.149  0.2987 -0.2470  0.1271
29811SOL    HW191440   7.055  10.124   5.148  1.3005 -1.9631 -0.3875
29811SOL    HW291441   6.944  10.075   5.057 -0.5866  0.7052  0.3425
29812SOL     OW91442   4.813  10.844   3.528  0.0793 -0.4736  0.1003
29812SOL    HW191443   4.822  10.804   3.442  0.0978 -0.9105  0.3025
29812SOL    HW291444   4.733  10.897   3.522  0.4249  0.0030 -0.3768
29813SOL     OW91445   7.870   8.166   7.771  0.2598  0.5708  0.2644
29813SOL    HW191446   7.876   8.181   7.676 -0.5933 -1.3305 -0.1613
29813SOL    HW291447   7.958   8.141   7.797  0.0427 -1.2744 -0.5740
29814SOL     OW91448   5.808   6.245   6.865 -1.1420 -0.7333  0.0472
29814SOL    HW191449   5.791   6.160   6.825  0.6271 -1.9022  1.6576
29814SOL    HW291450   5.794   6.232   6.958 -2.3870  1.1930  0.1902
29815SOL     OW91451   9.357   1.016   9.033  0.3449  0.5456  0.0565
29815SOL    HW191452   9.393   0.929   9.017  0.4030  0.3834  0.9999
29815SOL    HW291453   9.339   1.051   8.946  1.1626 -0.0542 -0.3720
29816SOL     OW91454   9.085   9.259   3.875 -0.2304  0.4379 -0.1914
29816SOL    HW191455   9.033   9.186   3.908  0.4526  0.4657  0.9942
29816SOL    HW291456   9.033   9.293   3.801 -1.7771  0.3285  0.7903
29817SOL     OW91457   8.408   8.822   4.396 -0.2920 -0.1586  0.7113
29817SOL    HW191458   8.362   8.893   4.350 -0.6106 -1.0731 -0.4277
29817SOL    HW291459   8.460   8.779   4.328  3.3982  1.6264  2.1678
29818SOL     OW91460   4.826   3.059   6.495  0.3089  0.3306  0.0538
29818SOL    HW191461   4.832   3.041   6.402 -0.6593  0.5857 -0.0739
29818SOL    HW291462   4.917   3.065   6.525  0.7201  2.6245 -1.3488
29819SOL     OW91463   3.788  10.663   8.935 -0.2764  0.3643  0.1781
29819SOL    HW191464   3.790  10.697   8.845  1.2031  1.2391  0.5188
29819SOL    HW291465   3.792  10.741   8.990 -1.4153 -0.1515  1.0359
29820SOL     OW91466   4.301   0.478   6.260 -0.5822  0.1232  0.1468
29820SOL    HW191467   4.333   0.481   6.170  0.2811 -0.4318  0.4113
29820SOL    HW291468   4.381   0.474   6.313 -1.0732 -1.4437  0.8424
29821SOL     OW91469   2.607   1.730   3.985  0.1967 -0.6304 -0.1306
29821SOL    HW191470   2.624   1.665   4.053 -1.4552  0.9737  1.9751
29821SOL    HW291471   2.549   1.794   4.027 -0.0473  1.0358 -2.7567
29822SOL     OW91472   8.369   2.332   9.241  0.0447  0.8237 -0.2935
29822SOL    HW191473   8.434   2.347   9.310 -1.8849 -0.5276  1.9750
29822SOL    HW291474   8.286   2.326   9.288 -1.6357  1.5262 -2.9718
29823SOL     OW91475   5.073   0.811   3.915  0.1271  0.3616  0.1391
29823SOL    HW191476   5.158   0.778   3.887  0.8006  1.7870  0.4557
29823SOL    HW291477   5.068   0.787   4.008  1.6862  3.1266  1.0472
29824SOL     OW91478   7.557  10.496   8.255 -0.2880  0.3609  0.3469
29824SOL    HW191479   7.587  10.409   8.280  1.4928  0.8682  0.1351
29824SOL    HW291480   7.579  10.551   8.330  0.4540  0.9698 -0.2924
29825SOL     OW91481   9.111   6.962   7.093  0.0577  0.1153 -0.0583
29825SOL    HW191482   9.037   6.908   7.119 -1.2195  1.7841 -0.0741
29825SOL    HW291483   9.182   6.935   7.151 -0.3110 -2.0112 -0.5089
29826SOL     OW91484   9.854   9.699   6.596  0.0163 -0.2995  0.2871
29826SOL    HW191485   9.764   9.695   6.564  0.7705 -0.7568 -1.9775
29826SOL    HW291486   9.889   9.611   6.580  1.3389  0.3359 -0.4148
29827SOL     OW91487   8.421   1.586   5.770 -0.1233 -0.0303 -0.5642
29827SOL    HW191488   8.447   1.541   5.690 -0.2436  0.2775 -0.7796
29827SOL    HW291489   8.327   1.573   5.776 -0.0545 -0.3936 -0.2568
29828SOL     OW91490   6.214   4.127   4.650 -0.3893 -0.7554 -0.2212
29828SOL    HW191491   6.265   4.188   4.704  0.7430 -0.9538 -1.0182
29828SOL    HW291492   6.205   4.049   4.705  0.0339 -0.6562 -0.0059
29829SOL     OW91493   4.369   5.759   0.635 -0.0342  0.4004  0.1269
29829SOL    HW191494   4.364   5.689   0.701 -1.1082 -0.5381 -0.9085
29829SOL    HW291495   4.277   5.779   0.615  0.2767  1.0628 -0.6856
29830SOL     OW91496   5.809   3.012   1.062 -0.0215  0.1491 -0.3664
29830SOL    HW191497   5.868   3.085   1.040 -1.6161  1.7422  0.4022
29830SOL    HW291498   5.750   3.005   0.987  0.8651 -1.2034 -0.9749
29831SOL     OW91499   5.239   6.226   3.139  0.0783 -0.3208  0.4340
29831SOL    HW191500   5.324   6.248   3.177  0.4309 -1.1675  0.1583
29831SOL    HW291501   5.175   6.254   3.205  0.6753 -1.7670  1.6685
29832SOL     OW91502  10.507   0.582  10.044  0.0814 -0.0575  0.0868
29832SOL    HW191503  10.518   0.631  10.126  1.8735  2.3034 -1.4198
29832SOL    HW291504  10.440   0.630   9.996  0.9949  0.2612 -0.9158
29833SOL     OW91505   7.602   1.237   0.375 -0.4516 -0.2888  0.4136
29833SOL    HW191506   7.619   1.278   0.290 -0.5890  0.9121  0.9555
29833SOL    HW291507   7.508   1.248   0.389 -0.2964  0.2084  1.0771
29834SOL     OW91508   8.419  10.928   3.114 -0.5724 -0.3782  0.3347
29834SOL    HW191509   8.505  10.922   3.072  0.2965  2.4021  1.4606
29834SOL    HW291510   8.391  10.837   3.125  1.8259 -1.3447 -0.8192
29835SOL     OW91511   5.842   1.034  10.192  0.0772  0.1003 -0.5313
29835SOL    HW191512   5.914   1.095  10.208 -0.7549  0.6788  1.2683
29835SOL    HW291513   5.884   0.948  10.189  0.9422  0.4982 -0.2898
29836SOL     OW91514   5.650   2.613   0.371  0.2135  0.1719  0.4173
29836SOL    HW191515   5.582   2.583   0.432  1.1736 -0.0309  1.4388
29836SOL    HW291516   5.614   2.596   0.284 -0.7729 -0.5355  0.9401
29837SOL     OW91517   3.236   3.795   9.116  0.3668 -0.6479  0.1602
29837SOL    HW191518   3.322   3.836   9.113  0.1683 -0.0366  1.8963
29837SOL    HW291519   3.223   3.771   9.207 -2.0369  0.9346  0.3389
29838SOL     OW91520   8.055   1.717  10.268 -0.5804 -0.5907 -0.4917
29838SOL    HW191521   8.079   1.630  10.234 -0.0819 -0.2457 -1.0340
29838SOL    HW291522   7.961   1.723  10.252 -0.4717 -0.7044 -1.2167
29839SOL     OW91523  10.812   2.125   7.319  0.0952 -0.2169  0.0950
29839SOL    HW191524  10.740   2.086   7.368 -0.8228  0.6349 -0.5343
29839SOL    HW291525  10.792   2.106   7.227  0.1360  0.8718 -0.1517
29840SOL     OW91526   4.201   7.114   7.735  0.0339  0.1870 -0.2328
29840SOL    HW191527   4.227   7.022   7.726  0.0335  0.2286 -0.6800
29840SOL    HW291528   4.167   7.138   7.649  0.1638  0.6484 -0.1588
29841SOL     OW91529   7.777   0.044  10.527  0.8919  0.1520  0.4195
29841SOL    HW191530   7.725   0.067  10.603 -2.2503 -0.6927 -1.2976
29841SOL    HW291531   7.746  -0.043  10.502  1.2328  0.6930 -2.2129
29842SOL     OW91532   0.657   2.774   3.976  0.8831  0.0992  0.1119
29842SOL    HW191533   0.717   2.761   4.049  0.8704  0.2062  0.1416
29842SOL    HW291534   0.570   2.764   4.014  0.8473  1.0425  0.2960
29843SOL     OW91535   4.465   1.756   2.894  0.1342  0.3846  0.3329
29843SOL    HW191536   4.479   1.847   2.921  0.3064  0.9461 -1.5083
29843SOL    HW291537   4.465   1.759   2.798  0.6328 -1.6324  0.2213
29844SOL     OW91538   7.273   8.301   7.076 -0.7436  0.3399  1.0859
29844SOL    HW191539   7.312   8.316   6.990 -1.3653  1.8673  1.0364
29844SOL    HW291540   7.343   8.320   7.138  0.0460 -1.8259  0.9622
29845SOL     OW91541  10.449   0.501   5.960  0.3344 -0.0553 -0.2529
29845SOL    HW191542  10.437   0.559   6.035 -1.3182  0.0843 -0.5917
29845SOL    HW291543  10.522   0.539   5.911  2.6948 -1.1525  2.1675
29846SOL     OW91544   1.218   0.383   0.225  0.8829 -0.0265 -0.3273
29846SOL    HW191545   1.210   0.324   0.300 -0.3602  1.2660  0.6099
29846SOL    HW291546   1.136   0.372   0.177  1.4136 -0.3825 -1.1820
29847SOL     OW91547   7.000   2.841   7.873 -0.2301  0.0093 -0.2303
29847SOL    HW191548   6.953   2.899   7.813 -0.6054 -1.3924 -1.3318
29847SOL    HW291549   7.089   2.837   7.837  0.0110  0.4820  0.2887
29848SOL     OW91550   0.470  10.423   5.516 -0.5666 -0.2963  0.1728
29848SOL    HW191551   0.538  10.422   5.449 -1.1462  0.6918 -0.4738
29848SOL    HW291552   0.454  10.331   5.536  1.2223 -0.5431  0.6423
29849SOL     OW91553   4.660   3.316   7.301  0.4784 -0.2057  0.4719
29849SOL    HW191554   4.585   3.346   7.353  1.1530 -0.1131  1.4136
29849SOL    HW291555   4.663   3.377   7.226 -0.4162 -0.2527  0.3838
29850SOL     OW91556   8.983  10.901   4.629 -0.2772  0.3836 -0.0464
29850SOL    HW191557   8.934  10.819   4.618  1.1906 -0.5283 -0.0093
29850SOL    HW291558   9.001  10.906   4.723 -1.9755  1.7508  0.2555
29851SOL     OW91559   2.989   9.291   6.417  0.0003 -0.0577 -0.2110
29851SOL    HW191560   3.073   9.254   6.390  0.1619 -0.8994  1.3176
29851SOL    HW291561   2.923   9.240   6.369  0.3374  1.0499 -1.9351
29852SOL     OW91562   8.806   9.732   6.820  0.3217 -0.1604 -0.5434
29852SOL    HW191563   8.722   9.764   6.788  0.6866  2.1047  0.5682
29852SOL    HW291564   8.784   9.677   6.895 -0.2155  0.0510 -0.5414
29853SOL     OW91565  10.232   7.769   9.502  0.2017  0.4560  0.4275
29853SOL    HW191566  10.217   7.712   9.576  0.6894  0.6707  0.6963
29853SOL    HW291567  10.268   7.849   9.540  0.6454  0.4927 -0.0544
29854SOL     OW91568   3.582   1.597   4.638  0.2125 -0.0087  0.2895
29854SOL    HW191569   3.560   1.683   4.673 -0.3343 -0.3230  0.7358
29854SOL    HW291570   3.672   1.582   4.667  0.8403  1.0171 -1.0226
29855SOL     OW91571   2.515   2.042   0.303  0.1573  0.4918  0.6278
29855SOL    HW191572   2.471   2.061   0.386 -0.3580 -0.6623  0.6379
29855SOL    HW291573   2.445   2.039   0.238  0.5476  1.3146  0.1439
29856SOL     OW91574   3.392   8.421   1.549 -0.2069 -0.6556  0.2754
29856SOL    HW191575   3.394   8.481   1.474  3.2353 -1.4953 -0.4910
29856SOL    HW291576   3.363   8.475   1.622  0.0109  1.2086 -0.9488
29857SOL     OW91577   5.297   3.664   5.556  0.4259  0.1992  0.2130
29857SOL    HW191578   5.281   3.727   5.626 -2.2241 -0.4557  0.3193
29857SOL    HW291579   5.283   3.713   5.475 -1.8036 -0.1999  0.2978
29858SOL     OW91580   9.178   3.375   5.750 -0.8050  0.3762  0.0931
29858SOL    HW191581   9.090   3.384   5.714 -0.7827 -0.0328 -0.0669
29858SOL    HW291582   9.173   3.419   5.836 -0.5587  2.3340 -0.8411
29859SOL     OW91583   8.724   2.159   8.854 -0.0180 -0.0650 -0.1390
29859SOL    HW191584   8.664   2.193   8.788  2.0567  0.7799 -1.6980
29859SOL    HW291585   8.671   2.153   8.934 -1.7821  2.1348 -1.0237
29860SOL     OW91586   6.700   4.110   9.770  0.9758  0.0552  0.0406
29860SOL    HW191587   6.639   4.140   9.837  0.5220 -0.2352 -0.2309
29860SOL    HW291588   6.657   4.133   9.687  1.4337  0.2260 -0.1484
29861SOL     OW91589   9.984   4.684   2.450  0.5727  0.6404  0.4031
29861SOL    HW191590   9.948   4.770   2.428  0.5368 -0.0676 -2.7215
29861SOL    HW291591  10.069   4.682   2.406  0.1696 -1.2362 -0.3699
29862SOL     OW91592  10.317   4.077   6.369 -0.3220 -0.5331 -0.0809
29862SOL    HW191593  10.288   4.084   6.460  1.2825 -0.9411  0.4946
29862SOL    HW291594  10.412   4.091   6.373 -0.2956 -0.0085 -1.7721
29863SOL     OW91595   9.542   0.592   3.190  0.8522 -0.0523 -0.7756
29863SOL    HW191596   9.475   0.548   3.137  0.2803  1.3942 -1.2854
29863SOL    HW291597   9.547   0.680   3.154  0.1745  1.1146  1.8119
29864SOL     OW91598  10.726   2.719   7.703 -0.3575 -0.0045  0.9355
29864SOL    HW191599  10.700   2.639   7.658 -1.5070 -0.0597  1.6645
29864SOL    HW291600  10.730   2.786   7.634  1.8601 -0.9052  0.0947
29865SOL     OW91601  10.071   0.254   8.460  0.2125  0.1821  0.0206
29865SOL    HW191602  10.061   0.262   8.366 -1.5985 -0.0400  0.1504
29865SOL    HW291603  10.073   0.160   8.477 -1.0420  0.1851  0.3024
29866SOL     OW91604   7.977   1.826   9.619 -0.1906 -0.0442  0.1221
29866SOL    HW191605   7.938   1.906   9.584 -0.4742 -0.3273 -0.2203
29866SOL    HW291606   8.071   1.837   9.605 -0.3296 -0.3939 -1.2865
29867SOL     OW91607   7.644   3.138   2.464  0.2549  0.3802 -0.0332
29867SOL    HW191608   7.644   3.104   2.374 -0.1497 -0.0014  0.1105
29867SOL    HW291609   7.623   3.063   2.519 -0.6057  0.8399  0.2917
29868SOL     OW91610  10.151   3.556   0.865  0.1746  0.0103 -0.2548
29868SOL    HW191611  10.143   3.467   0.831  0.7316 -1.5435  3.2124
29868SOL    HW291612  10.245   3.574   0.864  0.2610 -0.2979  0.8755
29869SOL     OW91613   7.085   3.589   2.310 -0.0057  0.5098  0.1007
29869SOL    HW191614   7.059   3.630   2.227 -1.9532  1.8322  1.2920
29869SOL    HW291615   7.164   3.636   2.337  0.2302  0.5536 -0.6313
29870SOL     OW91616   5.734   9.578   1.316 -0.2587  0.5944 -0.1065
29870SOL    HW191617   5.806   9.640   1.320  0.4598 -0.2381  2.5264
29870SOL    HW291618   5.683   9.595   1.395 -0.4437 -1.5991  0.3376
29871SOL     OW91619  10.039   6.407   8.322 -0.0614 -0.2153  0.1103
29871SOL    HW191620   9.965   6.400   8.262  0.7093 -0.2448 -0.8434
29871SOL    HW291621  10.049   6.501   8.337 -1.2714 -0.2624  1.5128
29872SOL     OW91622  10.982   5.470   3.566 -0.2759  0.2022 -0.4186
29872SOL    HW191623  11.053   5.478   3.630  0.2465 -1.6536 -0.7181
29872SOL    HW291624  10.925   5.544   3.585  0.8004  0.7154  1.0111
29873SOL     OW91625   4.728   1.634   7.665 -0.4134  0.2701  0.1303
29873SOL    HW191626   4.799   1.643   7.729 -0.7323  0.4456  0.4582
29873SOL    HW291627   4.720   1.722   7.627  0.1490  0.0396 -0.5551
29874SOL     OW91628   8.741   1.104   1.149  0.0194 -0.2692  0.0433
29874SOL    HW191629   8.828   1.134   1.120 -0.9623 -0.0346 -3.0600
29874SOL    HW291630   8.753   1.011   1.166  1.0980 -0.0330  0.6937
29875SOL     OW91631  10.718   4.260   3.273 -0.1449  0.0427 -0.1068
29875SOL    HW191632  10.739   4.338   3.223  1.9031  0.5123  1.3317
29875SOL    HW291633  10.770   4.191   3.233  0.9343  0.2646  0.8557
29876SOL     OW91634   9.098   9.320   0.082  0.3270  0.2482 -0.0982
29876SOL    HW191635   9.080   9.347  -0.008 -1.4139  0.5999  0.3066
29876SOL    HW291636   9.123   9.401   0.126  2.8680 -0.1928 -0.5925
29877SOL     OW91637   1.423   3.268   7.992  0.7539  0.3037  0.1557
29877SOL    HW191638   1.460   3.316   8.066 -2.0100 -1.2350  2.7586
29877SOL    HW291639   1.496   3.219   7.956  2.4012  1.9043  1.1466
29878SOL     OW91640   1.573   4.452   8.177 -0.0924 -0.4152 -0.9004
29878SOL    HW191641   1.498   4.437   8.118  0.9485 -0.0442 -2.3853
29878SOL    HW291642   1.603   4.540   8.154  0.2329 -0.1754  0.3629
29879SOL     OW91643   6.666  10.736   8.697  0.1284 -1.1046 -0.2380
29879SOL    HW191644   6.722  10.715   8.772 -0.3676  0.1455  0.5220
29879SOL    HW291645   6.727  10.762   8.628  0.5896 -2.2410 -0.2780
29880SOL     OW91646   6.033   1.538   0.294  0.0933 -0.0113  0.7286
29880SOL    HW191647   6.032   1.633   0.311  1.8530  0.1246  0.2420
29880SOL    HW291648   5.959   1.524   0.236  1.2084  1.5118 -1.2062
29881SOL     OW91649   9.548   1.114   9.212 -0.0105 -0.2545  0.0885
29881SOL    HW191650   9.511   1.080   9.131  0.2549 -1.6011  0.4983
29881SOL    HW291651   9.473   1.141   9.264 -0.2799 -0.9049  0.0381
29882SOL     OW91652   6.038   6.897  10.755 -0.0555 -0.1254  0.5927
29882SOL    HW191653   6.003   6.928  10.672  1.5775 -1.1222 -0.5155
29882SOL    HW291654   6.066   6.977  10.800 -1.6562  0.4846  0.5470
29883SOL     OW91655   5.422   2.354   4.892 -0.4639  0.4526 -0.3704
29883SOL    HW191656   5.515   2.359   4.911 -0.7938  0.7992  1.3535
29883SOL    HW291657   5.417   2.343   4.797  1.3180  0.2861 -0.4753
29884SOL     OW91658   5.712   3.565  10.227 -0.3885  0.6288  0.2713
29884SOL    HW191659   5.797   3.571  10.183 -0.1676  1.5464  0.8028
29884SOL    HW291660   5.691   3.471  10.224  0.1189  0.5275 -0.8202
29885SOL     OW91661   6.584   4.883   7.691 -0.2995  0.4864  0.0130
29885SOL    HW191662   6.573   4.896   7.597  0.8602  0.3746 -0.1527
29885SOL    HW291663   6.555   4.793   7.706 -0.6039  0.5439 -0.2151
29886SOL     OW91664   2.523   1.622   8.191  0.2228 -0.1852 -0.0269
29886SOL    HW191665   2.559   1.689   8.249  1.3042 -0.9179  0.1935
29886SOL    HW291666   2.520   1.543   8.245 -2.6526  0.0191  0.2423
29887SOL     OW91667   4.576   0.993   5.092  0.0607 -0.1339 -0.1491
29887SOL    HW191668   4.636   0.952   5.155  0.0885 -1.5650 -1.0618
29887SOL    HW291669   4.593   1.086   5.100  0.1950 -0.2869  1.8207
29888SOL     OW91670   4.056   8.602   9.107  0.5049 -0.6355 -0.2036
29888SOL    HW191671   4.135   8.654   9.093  0.3140 -0.4556 -0.6121
29888SOL    HW291672   4.084   8.511   9.094  0.8128 -0.6303  0.4061
29889SOL     OW91673   5.576   1.695   4.847  0.4497  0.0275  0.1289
29889SOL    HW191674   5.670   1.708   4.856  0.5774 -0.6873 -0.1238
29889SOL    HW291675   5.562   1.602   4.865 -0.4528  0.4927  2.1134
29890SOL     OW91676   2.010   1.173   7.599  0.8506  0.0977 -0.5610
29890SOL    HW191677   2.007   1.170   7.695  1.5298 -0.0573 -0.5427
29890SOL    HW291678   2.102   1.159   7.577  0.4314 -1.8690 -1.3053
29891SOL     OW91679   7.345   6.770   4.286  0.2925  0.0728  0.0185
29891SOL    HW191680   7.365   6.833   4.216 -0.4890  1.9178  1.3713
29891SOL    HW291681   7.278   6.713   4.249 -0.0292  0.9373 -0.7760
29892SOL     OW91682   8.997   6.946   8.371  0.5983  0.6391  0.2470
29892SOL    HW191683   8.914   6.935   8.416  1.2471 -0.2932  1.2779
29892SOL    HW291684   8.993   7.033   8.332 -1.0698  0.3821 -0.2088
29893SOL     OW91685   3.408   5.927  11.004 -0.3883 -0.3085  0.3346
29893SOL    HW191686   3.438   5.919  10.913 -1.4726 -0.5060 -0.0315
29893SOL    HW291687   3.485   5.909  11.057  1.1819  3.0861 -0.4964
29894SOL     OW91688   7.616   0.229   5.112  0.1304 -0.8201 -0.2682
29894SOL    HW191689   7.530   0.216   5.072 -0.6058 -1.0228  1.3074
29894SOL    HW291690   7.611   0.181   5.194  2.6740 -3.0138 -1.2675
29895SOL     OW91691   2.239   2.175   7.351  0.2036  0.6007  0.2354
29895SOL    HW191692   2.333   2.171   7.370  0.2461  2.8528  0.7394
29895SOL    HW291693   2.233   2.200   7.259  0.1332  1.8202  0.5600
29896SOL     OW91694   9.766   8.975   8.556  0.0449 -0.5169  0.6391
29896SOL    HW191695   9.835   8.987   8.491  0.0161 -0.3725  0.6362
29896SOL    HW291696   9.807   8.919   8.623  0.0712 -0.6687  0.4949
29897SOL     OW91697   7.262   3.982  10.739 -0.0347 -0.4241  0.7755
29897SOL    HW191698   7.287   4.016  10.653 -0.8511 -1.1842  0.2195
29897SOL    HW291699   7.300   3.894  10.742  0.9887  0.0286  1.6853
29898SOL     OW91700  10.859  10.674   5.497  0.9731  0.5966 -0.5211
29898SOL    HW191701  10.906  10.624   5.430  0.7613  1.0752 -1.0356
29898SOL    HW291702  10.898  10.645   5.580  1.1692 -0.0748 -0.8379
29899SOL     OW91703   7.463   8.122   1.675  0.4493 -0.3832 -0.1861
29899SOL    HW191704   7.484   8.065   1.749  0.3409 -1.3292 -0.8596
29899SOL    HW291705   7.433   8.062   1.607  0.9111  0.4258 -1.1307
29900SOL     OW91706   9.729   1.330   4.798  0.5928  0.5070 -0.4343
29900SOL    HW191707   9.697   1.404   4.746 -0.1946  1.0853  0.8241
29900SOL    HW291708   9.818   1.355   4.824  0.6871  0.5713 -0.8124
29901SOL     OW91709   6.993   4.150   0.965  0.0410 -0.4433  0.1081
29901SOL    HW191710   6.898   4.140   0.955  0.2835 -1.9083 -1.2383
29901SOL    HW291711   7.028   4.135   0.877  1.4104  2.3435  0.0957
29902SOL     OW91712   3.858   5.253   8.149 -0.0176  0.0803  0.1434
29902SOL    HW191713   3.790   5.262   8.216 -0.5793  0.2122 -0.4417
29902SOL    HW291714   3.881   5.343   8.126 -1.1417  0.0725 -1.1553
29903SOL     OW91715   4.998   2.473   9.955  0.1575 -0.3371  0.3104
29903SOL    HW191716   5.056   2.485  10.031 -0.2241  0.8405  0.4292
29903SOL    HW291717   5.058   2.467   9.881  0.5023 -0.6932  0.6104
29904SOL     OW91718   7.926   9.195   3.731  0.1667  0.0022 -0.3088
29904SOL    HW191719   8.013   9.234   3.744  0.9571 -1.9486  0.7310
29904SOL    HW291720   7.945   9.104   3.709 -1.5761  0.1485 -2.8563
29905SOL     OW91721   8.476  10.288   6.945 -0.2364 -0.3545 -0.1019
29905SOL    HW191722   8.557  10.332   6.971 -0.2492  0.5655 -1.5065
29905SOL    HW291723   8.448  10.333   6.865 -2.6702  0.0276  0.8576
29906SOL     OW91724   8.455   4.345   6.900 -0.4250 -1.0769 -0.1612
29906SOL    HW191725   8.529   4.290   6.926 -0.8243 -1.1563  0.8649
29906SOL    HW291726   8.381   4.311   6.950 -0.9939 -0.5310 -0.6181
29907SOL     OW91727   6.071   0.088   7.654  0.3051 -0.1025  0.8525
29907SOL    HW191728   6.018   0.151   7.703 -0.6859 -0.0818 -0.2036
29907SOL    HW291729   6.149   0.074   7.709 -0.9902 -0.4924  2.6745
29908SOL     OW91730   8.130   4.215   8.040  0.2606 -0.7822 -0.1354
29908SOL    HW191731   8.198   4.237   8.103  0.9960 -3.1465 -0.0056
29908SOL    HW291732   8.145   4.275   7.966  1.4320 -0.1756  0.5731
29909SOL     OW91733   7.082   9.632   9.873 -0.0610  0.3396  0.1189
29909SOL    HW191734   7.075   9.721   9.908  2.1738  0.4842  0.3319
29909SOL    HW291735   7.164   9.632   9.825 -0.2885 -1.4848 -0.3409
29910SOL     OW91736   0.506   0.446   1.923 -0.4627  0.3175  0.3654
29910SOL    HW191737   0.458   0.378   1.874 -0.1830  0.2056  0.2438
29910SOL    HW291738   0.445   0.474   1.991 -0.3846 -0.4454  0.7668
29911SOL     OW91739   6.247   7.521   0.069 -1.0149  0.6435  0.2672
29911SOL    HW191740   6.238   7.521   0.165 -0.7070  0.7091  0.2971
29911SOL    HW291741   6.329   7.568   0.053 -1.5760  1.5200 -0.0793
29912SOL     OW91742  10.283   1.947   6.994  0.9068  0.6869  0.3116
29912SOL    HW191743  10.331   1.954   7.077  1.5943  0.4135 -0.0517
29912SOL    HW291744  10.195   1.921   7.020  1.5880 -1.2308  0.8799
29913SOL     OW91745   0.606   6.729   9.003  0.3037 -0.1253  0.0352
29913SOL    HW191746   0.662   6.702   9.076  0.7734  0.3218 -0.1581
29913SOL    HW291747   0.629   6.820   8.988  1.4539 -0.6736 -1.7970
29914SOL     OW91748  11.013  10.528   6.108 -0.0552  0.2866 -0.2277
29914SOL    HW191749  10.937  10.542   6.052 -0.5747  0.7028  0.5610
29914SOL    HW291750  11.008  10.598   6.174  0.2671 -0.4605  0.6184
29915SOL     OW91751  10.853   9.588   3.560  0.2924  0.1384  0.6571
29915SOL    HW191752  10.812   9.504   3.538  0.3380 -0.0696  1.3238
29915SOL    HW291753  10.807   9.617   3.639  0.2499  0.7690  0.4066
29916SOL     OW91754   7.946   8.037   0.689  0.2075 -0.7305  0.4555
29916SOL    HW191755   7.967   8.030   0.596  0.2921 -3.2184  0.5985
29916SOL    HW291756   7.921   8.128   0.701 -0.6434 -0.5356 -2.1843
29917SOL     OW91757  10.105   8.040   0.928  0.2980 -0.4504  0.7137
29917SOL    HW191758  10.055   7.976   0.877  0.4084 -0.3388  0.4648
29917SOL    HW291759  10.074   8.028   1.018 -0.2146 -0.3445  0.5525
29918SOL     OW91760   0.459   9.934   4.742  0.0448 -0.3007  0.5943
29918SOL    HW191761   0.441   9.976   4.658  1.3992  0.8665  0.8483
29918SOL    HW291762   0.384   9.959   4.797 -0.0672  0.2617  0.1956
29919SOL     OW91763   5.886   7.749   5.592 -0.1278  0.9265  0.4000
29919SOL    HW191764   5.858   7.665   5.555 -0.6972  0.6822  1.3502
29919SOL    HW291765   5.887   7.808   5.517  2.0604 -0.3121 -0.6554
29920SOL     OW91766  10.052  10.217   0.742 -0.3820  0.2473  0.7259
29920SOL    HW191767  10.103  10.146   0.780  0.8457 -0.1070 -1.4387
29920SOL    HW291768  10.097  10.240   0.661 -1.5140  2.5896  0.6476
29921SOL     OW91769   3.903   2.371   8.537 -0.3421  0.4091  0.0261
29921SOL    HW191770   3.834   2.390   8.475 -0.2970 -1.2809 -0.5943
29921SOL    HW291771   3.945   2.455   8.553 -1.2911  1.1199 -1.0909
29922SOL     OW91772   9.578   3.803   9.731 -0.6309  0.4588  0.3712
29922SOL    HW191773   9.601   3.879   9.785 -0.5892  0.5508  0.2217
29922SOL    HW291774   9.662   3.765   9.706 -0.6127  1.1640 -0.7094
29923SOL     OW91775   0.893   1.558   9.711 -0.1100 -0.3840 -0.1545
29923SOL    HW191776   0.856   1.470   9.719 -0.1793 -0.4890 -1.5263
29923SOL    HW291777   0.845   1.609   9.777 -2.1473 -0.7225 -1.2893
29924SOL     OW91778   0.828   3.015   9.525  0.4660  0.2947  0.2359
29924SOL    HW191779   0.903   2.958   9.512  0.1500  0.0825 -0.7320
29924SOL    HW291780   0.767   2.964   9.578  0.2862 -0.1951 -0.4237
29925SOL     OW91781   3.996   2.575   8.787  0.6335 -0.2788 -0.0252
29925SOL    HW191782   4.046   2.596   8.708  0.4896 -0.7563 -0.2429
29925SOL    HW291783   4.044   2.619   8.858 -0.1877  1.5776 -0.5777
29926SOL     OW91784   0.831   0.918   9.614  0.2559 -0.4624 -0.3789
29926SOL    HW191785   0.829   0.824   9.633  1.3634 -1.2569 -3.5557
29926SOL    HW291786   0.806   0.924   9.521  0.3301  2.3924 -0.2981
29927SOL     OW91787   3.228   0.015   4.204 -0.1550 -0.7732 -0.2103
29927SOL    HW191788   3.175   0.056   4.136  0.0825  1.1852  0.7150
29927SOL    HW291789   3.306  -0.016   4.157  0.9407  2.2857 -0.6511
29928SOL     OW91790   5.593   5.748   0.764 -0.6559 -0.5353  0.0002
29928SOL    HW191791   5.574   5.719   0.853  0.2840 -1.2794 -0.0344
29928SOL    HW291792   5.570   5.674   0.709  1.2916 -1.0908 -0.1297
29929SOL     OW91793   8.637   9.896   1.464  0.0005  0.2273  0.0415
29929SOL    HW191794   8.664   9.832   1.529  0.3078 -0.1037 -0.4058
29929SOL    HW291795   8.718   9.943   1.441  0.1989 -0.6588 -1.1846
29930SOL     OW91796   3.055   1.273   2.675  0.0881 -0.0742  0.0727
29930SOL    HW191797   2.996   1.243   2.607  0.4115  0.0894 -0.2807
29930SOL    HW291798   3.049   1.368   2.673 -0.6226 -0.0893  0.9165
29931SOL     OW91799   9.641   4.593   7.557  0.0174 -0.2038 -0.4089
29931SOL    HW191800   9.678   4.675   7.589  1.8835 -0.8164 -0.8903
29931SOL    HW291801   9.674   4.526   7.617 -1.9789 -0.5978  0.3505
29932SOL     OW91802   0.563   8.053   5.772 -0.3162  0.0627  0.2383
29932SOL    HW191803   0.554   8.091   5.859  0.4011 -0.1107  0.3877
29932SOL    HW291804   0.503   7.979   5.772  0.3516 -0.4960  0.9035
29933SOL     OW91805   2.028   0.674   6.842 -0.0844  0.0342  0.6741
29933SOL    HW191806   2.041   0.645   6.932  1.2854 -0.7647  0.2560
29933SOL    HW291807   1.936   0.700   6.838  0.0671  1.0017  2.5377
29934SOL     OW91808   9.362   9.482   1.971 -0.1430  0.0326 -0.3748
29934SOL    HW191809   9.407   9.463   1.889  0.2804 -2.9758  0.4485
29934SOL    HW291810   9.427   9.464   2.039 -1.2572 -0.0040  0.7145
29935SOL     OW91811   3.404  10.582   3.327  0.0476 -0.1183  0.2585
29935SOL    HW191812   3.362  10.556   3.409 -0.7073 -1.2583 -0.4521
29935SOL    HW291813   3.487  10.622   3.354  0.2646 -1.3440  1.5410
29936SOL     OW91814   6.872   8.502   3.995 -0.4786  0.0402  0.1959
29936SOL    HW191815   6.950   8.547   3.963  0.0314 -1.2177 -0.3835
29936SOL    HW291816   6.808   8.512   3.924 -1.0176  1.4192  0.8357
29937SOL     OW91817   6.251   0.587   5.803 -0.3973  0.5450  0.5449
29937SOL    HW191818   6.259   0.494   5.780 -2.5840  0.7817 -1.5110
29937SOL    HW291819   6.254   0.588   5.898 -1.2967 -1.7560  0.6647
29938SOL     OW91820   7.873  10.167   7.406  0.1215 -0.0803  0.2980
29938SOL    HW191821   7.906  10.158   7.316  0.3343 -1.3168  0.4864
29938SOL    HW291822   7.916  10.246   7.439  0.2633  0.2289 -0.5853
29939SOL     OW91823   8.687   8.852   0.495 -0.8258 -0.0691 -0.0088
29939SOL    HW191824   8.646   8.777   0.537  1.4482 -1.5666 -0.2804
29939SOL    HW291825   8.645   8.857   0.409 -2.6527  0.4974  0.8746
29940SOL     OW91826   2.916   2.179   6.401  0.0418 -0.8595 -0.2805
29940SOL    HW191827   2.963   2.097   6.385  0.4624 -0.5506 -0.6445
29940SOL    HW291828   2.984   2.242   6.424 -0.2918 -0.6363  0.0964
29941SOL     OW91829   0.674  10.473   6.607 -0.1241 -0.3753  0.4498
29941SOL    HW191830   0.714  10.551   6.645 -0.5734 -0.0178  0.2131
29941SOL    HW291831   0.747  10.422   6.572  0.0951  0.4057 -0.2472
29942SOL     OW91832   7.803   3.242   0.806  0.2601  0.2768 -0.5289
29942SOL    HW191833   7.799   3.215   0.898  1.6593  0.4548 -0.3827
29942SOL    HW291834   7.869   3.312   0.806  0.2363  0.3036 -1.6613
29943SOL     OW91835   8.512   3.333   5.139 -0.0982 -0.2730  0.2071
29943SOL    HW191836   8.430   3.347   5.186  0.0880 -1.3903  0.9161
29943SOL    HW291837   8.575   3.307   5.206  0.2098 -1.7935 -0.5989
29944SOL     OW91838  10.191   0.108   2.868  0.0669 -0.3622 -0.0888
29944SOL    HW191839  10.223   0.131   2.781 -0.1261  2.2505  0.4601
29944SOL    HW291840  10.097   0.090   2.855  0.0959 -0.2508 -0.4654
29945SOL     OW91841  10.050   7.080   4.558 -0.2359  0.1726 -0.6219
29945SOL    HW191842  10.055   7.101   4.465 -0.0690 -0.8889 -0.8598
29945SOL    HW291843  10.015   6.991   4.561 -0.1139  0.1465  0.3295
29946SOL     OW91844   8.674   7.404   8.719  0.4197  0.3175 -0.0391
29946SOL    HW191845   8.708   7.412   8.809 -0.7102 -0.5624  0.4928
29946SOL    HW291846   8.606   7.472   8.714 -0.0638 -0.1508  0.0519
29947SOL     OW91847  10.575   9.719   4.428  0.2372  0.5948 -0.3230
29947SOL    HW191848  10.547   9.810   4.438  1.0506  0.7381  0.9632
29947SOL    HW291849  10.496   9.667   4.441 -0.5756  1.1320 -2.7223
29948SOL     OW91850   4.628   8.136   3.716 -0.0481 -0.0749  0.3485
29948SOL    HW191851   4.604   8.121   3.808  0.3319 -0.6009  0.3659
29948SOL    HW291852   4.552   8.105   3.667 -0.0923 -0.1678  0.4733
29949SOL     OW91853   9.371   1.945   4.629  0.5997  0.3769  0.0033
29949SOL    HW191854   9.348   1.909   4.715 -1.4517  1.1994 -0.1515
29949SOL    HW291855   9.432   2.016   4.648  0.5473  0.2302  0.7440
29950SOL     OW91856   9.469   2.925   0.460  0.1200 -0.0107 -0.5250
29950SOL    HW191857   9.502   2.897   0.374 -1.4161  0.5428 -1.3386
29950SOL    HW291858   9.458   2.844   0.509 -0.4673 -0.4918 -1.4233
29951SOL     OW91859   1.581   5.532   1.421  0.3102 -0.0649 -0.1687
29951SOL    HW191860   1.493   5.539   1.456 -0.2364 -0.8528 -1.3246
29951SOL    HW291861   1.624   5.613   1.448 -1.1540  0.9157 -0.6792
29952SOL     OW91862   9.387  10.740   6.981  0.4724  0.2080  0.0587
29952SOL    HW191863   9.343  10.788   6.911  2.1782  0.7325 -0.7160
29952SOL    HW291864   9.363  10.786   7.061  1.0453  1.6028 -0.5383
29953SOL     OW91865   7.273   9.196   5.197 -0.4875 -0.0638  0.5022
29953SOL    HW191866   7.263   9.221   5.105  0.5267  0.6313  0.5580
29953SOL    HW291867   7.298   9.104   5.194  3.1810  0.7547 -0.2303
29954SOL     OW91868   7.336   0.707  10.619  0.9340 -0.6402 -0.2243
29954SOL    HW191869   7.336   0.630  10.675  1.5617 -2.0039 -2.0059
29954SOL    HW291870   7.428   0.726  10.603  0.7737 -0.0113 -0.4390
29955SOL     OW91871   1.607   5.558   4.748 -0.1494 -0.3916 -0.2725
29955SOL    HW191872   1.627   5.632   4.805 -1.4265 -0.5366  0.3939
29955SOL    HW291873   1.607   5.482   4.807 -3.1648 -0.3305 -0.0812
29956SOL     OW91874   6.798   1.236   1.553 -0.0556  0.8978 -0.4398
29956SOL    HW191875   6.857   1.202   1.486  1.2158  0.9512  0.6159
29956SOL    HW291876   6.851   1.298   1.603 -0.7140  0.2601  1.1202
29957SOL     OW91877   0.424   0.031   1.576 -0.8099 -0.7566 -0.0795
29957SOL    HW191878   0.509  -0.004   1.603 -0.8001 -1.4350 -0.9608
29957SOL    HW291879   0.435   0.126   1.580  0.4199 -0.8147 -1.4563
29958SOL     OW91880   6.352   6.139   6.773  0.1102  0.1830 -0.0476
29958SOL    HW191881   6.376   6.175   6.688 -0.7721 -1.2009 -0.9301
29958SOL    HW291882   6.261   6.111   6.763  0.9042 -2.9602  0.2478
29959SOL     OW91883   8.558   4.525  10.132  0.1154 -0.0098 -0.4761
29959SOL    HW191884   8.601   4.490  10.055 -0.5275 -1.3144 -0.2791
29959SOL    HW291885   8.575   4.461  10.201 -1.3371 -0.1043 -0.1658
29960SOL     OW91886   7.563   5.081   0.808  0.3872  0.4042  0.4410
29960SOL    HW191887   7.629   5.033   0.859  0.0186 -0.8038 -0.1728
29960SOL    HW291888   7.544   5.023   0.734  0.0449  1.5976 -0.4330
29961SOL     OW91889   9.053   4.614   7.494 -0.2019  0.5901  0.0429
29961SOL    HW191890   9.066   4.520   7.488 -0.2120  0.5006  1.2047
29961SOL    HW291891   9.004   4.637   7.415  0.6564 -0.2146 -0.7340
29962SOL     OW91892   7.392   2.500   9.261  0.4275 -0.2321 -0.0010
29962SOL    HW191893   7.371   2.407   9.266 -2.1911  0.2902  0.1547
29962SOL    HW291894   7.419   2.514   9.170  1.6582 -1.2468  0.1782
29963SOL     OW91895   9.107   2.794   1.340 -0.5442  0.4530 -0.1703
29963SOL    HW191896   9.050   2.790   1.263  0.0375  1.0952 -0.6461
29963SOL    HW291897   9.149   2.708   1.343 -0.5259  0.4452 -0.6059
29964SOL     OW91898  10.414   2.191   7.173  0.5608  0.3042 -0.5468
29964SOL    HW191899  10.416   2.218   7.264  1.3271  0.8459 -0.7209
29964SOL    HW291900  10.378   2.266   7.126  2.9337  1.1822 -1.0677
29965SOL     OW91901   9.305   2.428   9.611  0.6893 -0.8445  0.3640
29965SOL    HW191902   9.333   2.356   9.554  0.6531 -0.9035  0.4219
29965SOL    HW291903   9.337   2.507   9.566 -0.5366 -0.7932 -0.4565
29966SOL     OW91904   8.145   0.375   4.107  0.0020  0.2763 -0.3327
29966SOL    HW191905   8.159   0.372   4.202 -2.4109  1.2607  0.1367
29966SOL    HW291906   8.146   0.468   4.085 -1.2202  0.1749 -0.9285
29967SOL     OW91907   0.103   2.371   5.114  0.0497  0.0595  0.3942
29967SOL    HW191908   0.018   2.374   5.158  0.1216 -0.4046  0.5666
29967SOL    HW291909   0.157   2.314   5.168 -0.5459 -2.4055 -1.4271
29968SOL     OW91910   5.612  10.798   3.188  0.4077  0.5127 -0.1267
29968SOL    HW191911   5.659  10.873   3.151 -1.7550  1.0063 -2.1255
29968SOL    HW291912   5.640  10.724   3.135  0.4305  0.4442 -0.0195
29969SOL     OW91913   6.058   2.773   5.864 -0.3107 -0.5179 -0.0713
29969SOL    HW191914   6.074   2.709   5.934 -0.5455 -1.5708 -0.9514
29969SOL    HW291915   6.001   2.838   5.904 -2.7103 -2.5219  0.0291
29970SOL     OW91916   8.578   4.256   3.532 -0.5748 -0.2945  0.1073
29970SOL    HW191917   8.673   4.246   3.543 -0.1961  1.7118 -0.8727
29970SOL    HW291918   8.544   4.257   3.622  0.4889  0.1920  0.5256
29971SOL     OW91919   1.564   1.620   5.947  0.0834 -0.3756 -0.3569
29971SOL    HW191920   1.530   1.668   5.871 -0.1116  0.3315  0.1734
29971SOL    HW291921   1.571   1.529   5.916  2.4138  0.3036 -2.0198
29972SOL     OW91922   9.653   7.857   7.522 -0.0754 -0.2841  0.0049
29972SOL    HW191923   9.589   7.794   7.556 -0.0229  0.6032  1.9018
29972SOL    HW291924   9.733   7.805   7.510 -0.2180 -0.7451  0.8913
29973SOL     OW91925   6.037   2.029   2.051 -0.1384  0.6755 -0.0425
29973SOL    HW191926   5.949   2.006   2.082 -0.1678  0.2483 -0.4216
29973SOL    HW291927   6.052   1.970   1.977  1.1238 -0.3943  1.0135
29974SOL     OW91928   1.079  10.780   6.972  0.2045 -1.0153 -0.1015
29974SOL    HW191929   0.984  10.783   6.972  0.2098 -0.6365  0.3909
29974SOL    HW291930   1.102  10.728   7.050  0.4188  0.3349  0.7637
29975SOL     OW91931   0.411   1.841   0.017  0.3509  0.2287 -0.5542
29975SOL    HW191932   0.320   1.867   0.007  0.3507  1.1067  1.2249
29975SOL    HW291933   0.446   1.902   0.082  2.0681 -0.4237 -0.8071
29976SOL     OW91934   4.004   2.652   9.125 -0.6517 -0.4152 -0.3132
29976SOL    HW191935   3.914   2.677   9.105 -0.3437  0.2785 -0.8972
29976SOL    HW291936   4.020   2.687   9.213  0.0690  2.4032 -1.4625
29977SOL     OW91937  10.307  10.062   7.469  0.4422  0.2930  0.3447
29977SOL    HW191938  10.398  10.077   7.492  0.8094 -0.7930 -0.3249
29977SOL    HW291939  10.290  10.122   7.396  0.9836 -0.3113 -0.2968
29978SOL     OW91940   9.974   3.872  10.831  0.0595 -0.2965  0.2156
29978SOL    HW191941   9.960   3.959  10.794  1.0694 -0.2778 -0.1609
29978SOL    HW291942   9.977   3.814  10.755  2.1330 -0.2652  0.2229
29979SOL     OW91943   9.150   5.777   6.435  0.2727  0.5653  0.1719
29979SOL    HW191944   9.166   5.835   6.510 -0.1740 -3.4413  3.7391
29979SOL    HW291945   9.231   5.727   6.426  0.9079  1.9107 -3.2634
29980SOL     OW91946   3.417   1.018   7.950 -0.4654  0.0515  0.0740
29980SOL    HW191947   3.409   0.924   7.963 -0.3104 -0.0716 -0.6657
29980SOL    HW291948   3.481   1.046   8.015  0.7380 -0.6299 -0.7940
29981SOL     OW91949  10.564   7.878   9.145 -0.0050  0.4214  0.5787
29981SOL    HW191950  10.486   7.822   9.141  0.3153 -0.0245  0.5218
29981SOL    HW291951  10.615   7.843   9.218  1.2774 -0.8080 -0.8255
29982SOL     OW91952   8.640   2.166   1.418 -0.6774 -0.0447 -0.3119
29982SOL    HW191953   8.583   2.171   1.342  0.2717 -1.2000 -1.1389
29982SOL    HW291954   8.726   2.194   1.385 -0.0180 -1.5626  0.0347
29983SOL     OW91955   8.811   4.621   5.761 -0.1391 -0.5544  0.8373
29983SOL    HW191956   8.872   4.554   5.729  0.7102  0.2733  0.6511
29983SOL    HW291957   8.745   4.628   5.693  0.2870 -0.5564  0.4147
29984SOL     OW91958   9.538   0.271   0.673 -0.5459  0.0834  0.0143
29984SOL    HW191959   9.478   0.199   0.654 -0.1211 -0.3434  0.2614
29984SOL    HW291960   9.495   0.320   0.743 -0.8681  0.1147 -0.2009
29985SOL     OW91961   7.453   8.008   7.307  0.3661 -0.1004 -0.4517
29985SOL    HW191962   7.537   7.962   7.300  0.7617  0.8484 -2.9292
29985SOL    HW291963   7.415   8.001   7.220 -1.2711  1.1005  0.1273
29986SOL     OW91964   2.569   8.098   8.382 -0.0464  0.1265  0.3716
29986SOL    HW191965   2.628   8.063   8.449 -0.7096  1.4697  1.6936
29986SOL    HW291966   2.565   8.028   8.317  1.9756 -0.5336  0.8508
29987SOL     OW91967  10.490   4.280   8.285 -0.0430 -0.4123  0.1015
29987SOL    HW191968  10.578   4.254   8.313  0.3636  0.4426 -0.3470
29987SOL    HW291969  10.482   4.371   8.314 -2.1464 -1.4299  3.3623
29988SOL     OW91970   0.173   2.746   3.744  0.2380 -0.5991 -0.2230
29988SOL    HW191971   0.140   2.835   3.757  1.5247  0.1078 -1.5048
29988SOL    HW291972   0.104   2.690   3.779 -0.7591  0.8824  0.3093
29989SOL     OW91973   6.106   0.048   7.117  0.0096  0.2785 -0.3869
29989SOL    HW191974   6.119  -0.046   7.123 -1.5054  0.1152  1.4645
29989SOL    HW291975   6.063   0.072   7.200 -1.4167  2.2743 -1.5979
29990SOL     OW91976   0.193   7.283   7.863 -0.0695 -0.0892  0.0570
29990SOL    HW191977   0.269   7.320   7.818 -0.0753 -1.4799 -1.1682
29990SOL    HW291978   0.199   7.318   7.952  2.4157 -0.7095  0.2114
29991SOL     OW91979   5.166   0.445   4.766  0.5599 -0.5802  0.4365
29991SOL    HW191980   5.141   0.529   4.805  0.4912 -0.9427  1.1746
29991SOL    HW291981   5.218   0.469   4.689  0.5908  0.1371  0.6773
29992SOL     OW91982   0.649   4.025   2.002 -0.7306  0.1032 -0.2945
29992SOL    HW191983   0.580   3.984   2.053 -0.9056  0.2130 -0.4387
29992SOL    HW291984   0.713   4.056   2.066 -0.9666  0.2737 -0.1393
29993SOL     OW91985  10.639  10.731   1.218 -0.3018 -0.0237 -0.0527
29993SOL    HW191986  10.633  10.667   1.289 -5.5237 -2.0691 -1.7973
29993SOL    HW291987  10.628  10.816   1.261 -0.1154 -0.9073  1.8407
29994SOL     OW91988   0.276   4.037   6.138  0.0762  0.0891  0.1086
29994SOL    HW191989   0.215   4.103   6.171 -0.3466  0.1090 -0.6965
29994SOL    HW291990   0.287   4.058   6.045  0.4146 -0.6071 -0.0173
29995SOL     OW91991   7.987   8.196   6.101 -0.2126 -0.1110  0.1651
29995SOL    HW191992   7.973   8.229   6.189 -0.0759 -2.1542  1.0002
29995SOL    HW291993   8.072   8.232   6.075  0.3897 -0.5950  1.4072
29996SOL     OW91994   2.296   4.872  10.798 -0.2891  0.7635 -0.1031
29996SOL    HW191995   2.350   4.938  10.843 -1.3372  2.0724 -0.6975
29996SOL    HW291996   2.229   4.923  10.752 -0.0223 -0.5805 -2.1374
29997SOL     OW91997   4.541   1.478   0.904 -0.3333  0.2047 -0.1031
29997SOL    HW191998   4.630   1.452   0.928 -1.0565 -0.7435  1.7774
29997SOL    HW291999   4.552   1.559   0.854  1.7255 -1.2295 -2.1663
29998SOL     OW92000   7.360   4.980   5.926 -0.7425 -0.0016 -0.2578
29998SOL    HW192001   7.366   5.066   5.885 -0.4510  0.3404  0.4898
29998SOL    HW292002   7.279   4.943   5.892  0.0437 -0.2169 -2.0487
29999SOL     OW92003   6.086   1.735   8.874  0.2773 -0.3278 -0.8692
29999SOL    HW192004   6.069   1.645   8.904  1.5411 -0.1643  0.4651
29999SOL    HW292005   6.161   1.764   8.927  0.4004  1.2365 -1.8437
30000SOL     OW92006   7.976   8.128   9.910 -0.0631  0.2511  0.3448
30000SOL    HW192007   7.976   8.036   9.937  1.0921 -0.2911 -1.3308
30000SOL    HW292008   7.889   8.141   9.872 -0.6141  0.1792  1.5365
30001SOL     OW92009   8.952   9.578   8.599 -0.0620 -0.1788 -0.1878
30001SOL    HW192010   8.945   9.642   8.528 -2.1969 -1.2632 -1.0285
30001SOL    HW292011   8.956   9.631   8.678  2.5885  1.0788 -1.0355
30002SOL     OW92012   6.259   1.427   6.621  0.2191  0.1166 -0.0734
30002SOL    HW192013   6.340   1.477   6.612 -0.3741  1.1379  0.0859
30002SOL    HW292014   6.194   1.477   6.572 -0.3462 -0.6339 -0.1096
30003SOL     OW92015   0.126   0.157   6.617  0.6134 -0.0173  0.2234
30003SOL    HW192016   0.196   0.104   6.579  0.8672 -1.1291  2.1219
30003SOL    HW292017   0.160   0.183   6.702 -1.0837 -0.1733  0.9786
30004SOL     OW92018   4.044   5.057   2.059 -0.1477  0.0740 -0.3239
30004SOL    HW192019   3.956   5.086   2.081 -0.1084 -0.5706  0.7778
30004SOL    HW292020   4.066   5.103   1.978 -0.6877  1.8402  0.4984
30005SOL     OW92021   4.825   9.435   8.344  0.1884 -0.1229 -0.8014
30005SOL    HW192022   4.807   9.476   8.260 -0.5284  0.0511 -0.5721
30005SOL    HW292023   4.865   9.505   8.396 -0.3672  0.0858 -0.6478
30006SOL     OW92024   9.258   2.396   8.911  0.5231  0.0560 -0.4365
30006SOL    HW192025   9.312   2.398   8.990 -1.5217 -0.0202  1.0499
30006SOL    HW292026   9.295   2.325   8.859  1.7107 -0.1380  0.6181
30007SOL     OW92027   2.493   2.718   5.275 -0.2624 -0.3818 -0.1743
30007SOL    HW192028   2.400   2.740   5.273 -0.2846  0.5934  3.7523
30007SOL    HW292029   2.497   2.634   5.322  0.8339 -0.8232 -1.0021
30008SOL     OW92030  10.549   7.309   4.925 -0.6408  0.3238  0.3590
30008SOL    HW192031  10.630   7.260   4.936 -0.1121  1.2345  0.6392
30008SOL    HW292032  10.492   7.277   4.995 -1.2950 -1.7467 -1.0205
30009SOL     OW92033   4.752  10.945   6.127  0.4386  0.4011  0.4288
30009SOL    HW192034   4.665  10.942   6.089  0.6101  0.7437  0.0080
30009SOL    HW292035   4.751  10.876   6.194  0.3342 -0.6251 -0.5998
30010SOL     OW92036   0.834   6.530   6.553 -0.3846  0.1846 -0.2298
30010SOL    HW192037   0.863   6.552   6.642 -0.2445 -0.5951 -0.0725
30010SOL    HW292038   0.914   6.499   6.509 -0.9619 -2.1197  0.2490
30011SOL     OW92039   6.596   1.279   2.703  0.9808 -0.3732 -0.1678
30011SOL    HW192040   6.555   1.208   2.753  1.1074 -1.1318 -1.1015
30011SOL    HW292041   6.614   1.347   2.768 -1.2436 -0.2252  0.3800
30012SOL     OW92042   9.465   5.700  10.225 -0.0738  0.0092 -0.0178
30012SOL    HW192043   9.548   5.682  10.268  0.2076 -0.2695 -0.6622
30012SOL    HW292044   9.399   5.688  10.293  0.5390  2.3620  1.1008
30013SOL     OW92045  10.634   0.486  10.535  0.3107  0.0264  0.0257
30013SOL    HW192046  10.602   0.570  10.501 -0.7773 -0.8286 -1.1590
30013SOL    HW292047  10.566   0.458  10.596  0.6165 -0.0519  0.3315
30014SOL     OW92048   4.784   7.944   6.865 -0.3953 -0.3707  0.0733
30014SOL    HW192049   4.794   7.953   6.770  4.4530 -0.1395  0.3492
30014SOL    HW292050   4.749   7.855   6.876 -0.2901 -0.7180 -1.9044
30015SOL     OW92051   5.296   7.308   7.526  0.1199 -0.1680 -0.2430
30015SOL    HW192052   5.245   7.365   7.584 -0.0545 -1.3658  0.8426
30015SOL    HW292053   5.246   7.305   7.445 -0.1225  0.8140 -0.1444
30016SOL     OW92054   3.575   4.056   6.146  0.4331  0.1431  0.8142
30016SOL    HW192055   3.490   4.100   6.138 -0.3251 -1.4604 -0.8767
30016SOL    HW292056   3.554   3.963   6.137  2.1245 -0.5111  2.8334
30017SOL     OW92057   0.977   3.016   7.728  0.2469 -0.2586 -0.2671
30017SOL    HW192058   1.064   2.976   7.734 -0.4031 -1.5850  3.3416
30017SOL    HW292059   0.993   3.109   7.741  1.1596 -0.4321 -0.0317
30018SOL     OW92060   2.825   9.462   2.952  0.5545 -0.0318  0.3050
30018SOL    HW192061   2.878   9.486   2.876 -0.1683  1.7137  0.2913
30018SOL    HW292062   2.786   9.378   2.929  1.2137 -0.0648 -0.7760
30019SOL     OW92063   6.261   6.986   1.081 -0.1443 -0.4244 -0.1611
30019SOL    HW192064   6.192   6.989   1.015  1.6886 -0.6134 -2.2087
30019SOL    HW292065   6.301   7.073   1.079 -0.2338 -0.3469  0.9125
30020SOL     OW92066   4.551   2.997   0.966 -0.1566  0.3054  0.0258
30020SOL    HW192067   4.530   3.088   0.947  0.6716  0.5138  0.1031
30020SOL    HW292068   4.593   2.965   0.886  0.6840  0.3497  0.4464
30021SOL     OW92069   3.203   6.099   8.105 -0.1634  0.3772 -0.6615
30021SOL    HW192070   3.270   6.124   8.169 -0.3072  0.3395 -0.4968
30021SOL    HW292071   3.139   6.049   8.155 -1.0151  1.5526 -0.5402
30022SOL     OW92072   0.914   3.415  10.404  0.4079  0.0080 -0.6046
30022SOL    HW192073   0.933   3.379  10.318 -3.1630 -0.8377 -1.2246
30022SOL    HW292074   0.818   3.425  10.405  0.2930  0.1147  3.2251
30023SOL     OW92075  10.906   7.278   6.899 -0.3635  0.3221 -0.1456
30023SOL    HW192076  10.962   7.273   6.822 -1.6505 -0.7577 -1.0713
30023SOL    HW292077  10.839   7.342   6.875 -1.1688 -0.5282 -0.2259
30024SOL     OW92078   8.001   0.768   3.544 -0.5482 -0.4260 -0.2148
30024SOL    HW192079   8.093   0.779   3.517 -1.1447 -0.2317 -2.3135
30024SOL    HW292080   8.005   0.705   3.616  1.2401 -0.2850 -0.1379
30025SOL     OW92081   7.843   5.426   9.450  0.0391  0.4341 -0.4476
30025SOL    HW192082   7.841   5.423   9.546 -0.7545 -0.0922 -0.4735
30025SOL    HW292083   7.935   5.439   9.429  1.2004 -4.5222  0.2526
30026SOL     OW92084   5.290   4.618   9.751  0.4446  0.5756  0.5626
30026SOL    HW192085   5.209   4.599   9.704  1.3479 -1.4018 -0.2788
30026SOL    HW292086   5.337   4.535   9.753  2.7878  1.8240  0.4259
30027SOL     OW92087   7.314   5.766   8.636 -0.5854 -0.6014  0.3717
30027SOL    HW192088   7.300   5.860   8.627  0.6947 -0.5292 -1.2191
30027SOL    HW292089   7.268   5.728   8.561 -0.2529 -1.1559  0.4423
30028SOL     OW92090   6.018   2.903  10.052 -0.9015 -0.6590  0.0206
30028SOL    HW192091   5.964   2.896  10.130 -0.3182 -2.2375  0.3059
30028SOL    HW292092   6.098   2.855  10.073 -0.8803 -1.4234 -1.6446
30029SOL     OW92093   8.458   2.764   8.471 -0.4586 -0.5323  0.3515
30029SOL    HW192094   8.399   2.838   8.485 -2.1446 -1.8628  0.5556
30029SOL    HW292095   8.431   2.727   8.386  2.1653  0.6527 -1.1153
30030SOL     OW92096   1.894   0.220   0.689 -0.2864 -0.4219 -0.0996
30030SOL    HW192097   1.830   0.291   0.694  0.6730  0.6110 -1.5676
30030SOL    HW292098   1.936   0.219   0.775  0.1333  1.2630 -0.2561
30031SOL     OW92099   7.898   9.583   8.939  0.1118  0.1832 -0.4205
30031SOL    HW192100   7.837   9.625   8.879 -0.6195  0.3809  0.4369
30031SOL    HW292101   7.983   9.623   8.919  0.1683 -0.7697 -2.2617
30032SOL     OW92102   9.287   9.502   4.705  0.0227  0.7482 -0.1558
30032SOL    HW192103   9.330   9.585   4.727 -1.0855  1.0977  0.7858
30032SOL    HW292104   9.194   9.521   4.711 -0.3348 -1.2278  3.0103
30033SOL     OW92105   6.824   1.162   0.949 -0.0521 -0.3805  0.3140
30033SOL    HW192106   6.885   1.106   0.997  2.4499  1.0606 -0.9390
30033SOL    HW292107   6.850   1.153   0.857 -2.8423 -0.9095 -0.5094
30034SOL     OW92108   8.129   0.247   1.256 -0.8004 -0.4586  0.6431
30034SOL    HW192109   8.053   0.193   1.278 -1.1949 -0.1421  0.0855
30034SOL    HW292110   8.125   0.255   1.161 -0.9242  0.8248  0.7465
30035SOL     OW92111   9.304  10.482   9.698  0.3571 -0.4816 -0.1843
30035SOL    HW192112   9.211  10.486   9.720  0.0123 -1.0558 -1.4356
30035SOL    HW292113   9.308  10.430   9.618  1.5269  1.3245 -1.3939
30036SOL     OW92114   7.755   1.420  10.796  1.1278  0.2866 -0.3140
30036SOL    HW192115   7.661   1.415  10.809  1.2573 -0.9880  0.2786
30036SOL    HW292116   7.766   1.481  10.723 -0.1745  0.0790 -0.7016
30037SOL     OW92117  10.059  10.284   6.626 -0.2647 -0.4578 -0.0678
30037SOL    HW192118  10.047  10.376   6.602  1.9273 -0.0875  0.1185
30037SOL    HW292119   9.983  10.264   6.682 -0.9283  1.1382 -0.3490
30038SOL     OW92120   8.925   4.232   4.247  0.0603  0.2313  0.0708
30038SOL    HW192121   8.872   4.225   4.327 -1.8306  0.2293 -1.1270
30038SOL    HW292122   8.876   4.181   4.182  1.0015  1.1101 -1.3657
30039SOL     OW92123  11.044   9.037   7.889 -0.3561  0.1070  0.0307
30039SOL    HW192124  11.091   9.005   7.812  0.0623  0.2027  0.2398
30039SOL    HW292125  11.046   9.132   7.879 -3.0703  0.1005 -1.4659
30040SOL     OW92126   2.661   6.749   1.703 -0.7427 -0.2598  0.6026
30040SOL    HW192127   2.746   6.711   1.681  0.4951  1.2411  2.4819
30040SOL    HW292128   2.648   6.816   1.637 -1.3334 -1.5926 -0.7019
30041SOL     OW92129  10.180   2.111  10.826 -0.5214  0.0707 -0.3569
30041SOL    HW192130  10.101   2.056  10.825 -0.2284 -0.3902  0.4377
30041SOL    HW292131  10.248   2.056  10.788 -0.5176  0.3672 -0.7821
30042SOL     OW92132   8.890   2.279   5.150 -0.2362 -0.4527  0.8107
30042SOL    HW192133   8.935   2.206   5.107  1.6575 -0.0713  2.0240
30042SOL    HW292134   8.857   2.242   5.232 -0.8955 -0.3753  0.5859
30043SOL     OW92135   0.694   2.509   8.056  0.7608  0.0366 -0.3664
30043SOL    HW192136   0.775   2.558   8.041 -0.1528  0.9472 -2.7182
30043SOL    HW292137   0.669   2.531   8.146  1.9804  1.4394 -0.3412
30044SOL     OW92138   8.239   7.905   6.564 -0.7998  0.0155 -0.6389
30044SOL    HW192139   8.230   7.998   6.547 -2.8033 -0.1225 -0.5967
30044SOL    HW292140   8.279   7.869   6.485  2.7943  1.2563  0.4499
30045SOL     OW92141   3.353   1.873   8.868 -0.8737  0.3748  0.3109
30045SOL    HW192142   3.416   1.912   8.928 -1.3548 -0.4103  1.3495
30045SOL    HW292143   3.286   1.941   8.856  0.3515  1.3965 -1.1727
30046SOL     OW92144   0.616  10.425   8.960  0.0042 -0.1947 -0.4372
30046SOL    HW192145   0.643  10.495   9.020  0.3119  0.8295 -1.7251
30046SOL    HW292146   0.589  10.471   8.880  1.5370 -1.5957 -1.8287
30047SOL     OW92147   8.507   3.463   0.581  0.5245 -0.2865  0.2865
30047SOL    HW192148   8.579   3.520   0.554 -1.1897  1.4807 -0.8413
30047SOL    HW292149   8.488   3.489   0.671  1.0770 -0.5628  0.4901
30048SOL     OW92150  11.083   3.765   0.518  0.6446 -0.4494  0.2088
30048SOL    HW192151  11.134   3.799   0.445  0.1191  0.0955  0.0923
30048SOL    HW292152  11.005   3.727   0.478 -0.7636  1.8636  0.6094
30049SOL     OW92153   5.113   9.518   5.245  0.5082  0.0825 -0.7163
30049SOL    HW192154   5.085   9.429   5.224 -2.2963  0.9418 -1.0519
30049SOL    HW292155   5.118   9.519   5.341 -1.4041  0.0010 -0.5637
30050SOL     OW92156   4.213   9.409   6.415 -0.1097 -0.2565 -0.0149
30050SOL    HW192157   4.158   9.487   6.409  0.1639 -0.1250 -1.0193
30050SOL    HW292158   4.163   9.342   6.368 -0.3337 -0.6909  0.8252
30051SOL     OW92159   3.963   4.829   1.737 -0.8542 -0.0730  0.3362
30051SOL    HW192160   3.915   4.898   1.782  1.1996  1.9935 -0.4674
30051SOL    HW292161   4.040   4.814   1.791  0.0038  0.1349 -0.7919
30052SOL     OW92162  10.656   1.221   4.044 -0.5813  0.2032 -0.3564
30052SOL    HW192163  10.683   1.211   4.135 -1.2144  0.9515 -0.0691
30052SOL    HW292164  10.588   1.288   4.047 -0.1396  0.7207 -1.4734
30053SOL     OW92165   8.779   6.081   0.019  1.0666 -0.5998 -0.2831
30053SOL    HW192166   8.749   6.105  -0.068 -0.1214  1.0646  0.5346
30053SOL    HW292167   8.800   6.164   0.061  1.5214 -1.3615  1.0687
30054SOL     OW92168   2.196   1.482   1.532 -0.2053  0.2207  0.4068
30054SOL    HW192169   2.109   1.506   1.564 -0.9334 -1.3308 -0.3385
30054SOL    HW292170   2.181   1.443   1.446  1.1202 -0.9728  0.6840
30055SOL     OW92171   1.942   5.512   0.522 -0.4787 -0.2783  0.2156
30055SOL    HW192172   1.883   5.459   0.468 -2.4838  0.5700  1.4571
30055SOL    HW292173   1.883   5.564   0.577  1.4619  0.4377  1.7095
30056SOL     OW92174   0.542  10.897  10.493  0.2482  0.2668  0.1057
30056SOL    HW192175   0.555  10.991  10.485 -1.0299  0.5914  1.4512
30056SOL    HW292176   0.614  10.868  10.550 -0.0413  0.6495  0.6803
30057SOL     OW92177   8.435   2.667   1.588 -0.0764  0.0610 -0.7563
30057SOL    HW192178   8.525   2.674   1.621 -0.4128  0.7226  0.0797
30057SOL    HW292179   8.426   2.576   1.560  1.0832  0.1718 -1.5510
30058SOL     OW92180   5.220   8.775   9.498  0.0078 -0.2897 -0.6387
30058SOL    HW192181   5.295   8.803   9.549  1.3777 -1.0622 -2.1509
30058SOL    HW292182   5.202   8.848   9.438  1.8891 -1.4124 -2.7317
30059SOL     OW92183  10.264   0.130   1.946 -0.4168 -0.4859 -0.1702
30059SOL    HW192184  10.297   0.220   1.944 -1.7533  0.0406 -0.2493
30059SOL    HW292185  10.342   0.075   1.953  0.4522  0.6634 -0.5019
30060SOL     OW92186   4.099   0.968   0.351  0.5059  0.3026  0.0666
30060SOL    HW192187   4.113   0.892   0.294 -1.8499 -0.5753  0.5283
30060SOL    HW292188   4.097   1.043   0.291  1.2892 -0.1792 -0.5905
30061SOL     OW92189   9.771  11.015   1.577 -0.4734 -0.2624  0.1654
30061SOL    HW192190   9.682  11.005   1.542  0.4966 -1.2621 -2.2640
30061SOL    HW292191   9.827  10.979   1.508  1.8684  1.0534  1.2907
30062SOL     OW92192  10.320  10.705   7.075  0.0692  0.2576 -0.0162
30062SOL    HW192193  10.227  10.730   7.072  0.0816  0.4182  0.6185
30062SOL    HW292194  10.321  10.625   7.128  0.3848  0.7991  0.8254
30063SOL     OW92195  10.365   3.093   6.554  0.0774  0.5371 -0.0396
30063SOL    HW192196  10.407   3.076   6.638  2.5420  0.2717 -1.2358
30063SOL    HW292197  10.272   3.102   6.575  0.4733 -0.5197  2.5508
30064SOL     OW92198   0.695   8.865   0.015 -0.2269  0.7877 -0.1777
30064SOL    HW192199   0.616   8.885   0.064 -0.8776 -0.1359 -0.8105
30064SOL    HW292200   0.766   8.873   0.078 -0.9402  0.6320  0.6550
30065SOL     OW92201   7.975   8.796   5.192  0.1528 -0.0927 -0.2968
30065SOL    HW192202   8.064   8.773   5.167  0.0783  0.3707 -0.9946
30065SOL    HW292203   7.921   8.770   5.118 -0.3903 -1.0201  0.4059
30066SOL     OW92204   3.153   5.686   1.728 -0.2523 -0.2603  0.1219
30066SOL    HW192205   3.184   5.770   1.762  0.1391  0.2674 -1.4637
30066SOL    HW292206   3.060   5.700   1.712 -0.7987 -0.9730  2.2301
30067SOL     OW92207   3.765   6.934  11.056 -0.0636  0.7858 -0.0088
30067SOL    HW192208   3.795   7.014  11.099  0.8730  0.8712 -0.7979
30067SOL    HW292209   3.731   6.880  11.127 -0.1928  1.6549  0.6029
30068SOL     OW92210   3.460   3.555   9.359  0.2791  0.4967 -0.0700
30068SOL    HW192211   3.527   3.494   9.328  0.6709  1.8000 -1.9431
30068SOL    HW292212   3.377   3.509   9.343  0.6249 -0.4458  0.7092
30069SOL     OW92213   8.813  10.002   1.207  0.2313 -0.1641  0.4759
30069SOL    HW192214   8.908  10.005   1.194  0.1719 -1.6436 -0.6245
30069SOL    HW292215   8.776  10.038   1.127 -0.1157 -1.8275 -0.1607
30070SOL     OW92216   8.320   3.026   9.877  0.1047 -0.3121 -0.1137
30070SOL    HW192217   8.390   3.068   9.827  1.1256 -0.9219  0.7870
30070SOL    HW292218   8.316   3.075   9.959 -0.4861 -0.3220 -0.1324
30071SOL     OW92219   8.604   1.003   1.882 -0.4440  0.0056 -1.0803
30071SOL    HW192220   8.644   0.932   1.932 -1.5294  1.7861  2.7233
30071SOL    HW292221   8.537   0.960   1.828 -0.2205 -1.9827  0.1373
30072SOL     OW92222  10.498   6.619   8.836 -0.3736 -0.5371 -0.2054
30072SOL    HW192223  10.508   6.573   8.753 -0.3620  2.0823 -1.7853
30072SOL    HW292224  10.414   6.665   8.827  1.0614  2.3212 -0.2298
30073SOL     OW92225   7.714  10.445   3.752 -0.1473 -0.4443 -0.5040
30073SOL    HW192226   7.669  10.529   3.744  0.4961 -0.0287  0.1088
30073SOL    HW292227   7.670  10.401   3.825  1.8829  0.9677  1.7516
30074SOL     OW92228   6.785   5.206   6.944  0.0723  0.1968 -0.2909
30074SOL    HW192229   6.793   5.300   6.925  2.1662 -0.0873 -1.0489
30074SOL    HW292230   6.691   5.192   6.955 -0.6568  1.7758 -3.4254
30075SOL     OW92231   4.286   2.757   6.358  0.1790 -0.2327  0.2401
30075SOL    HW192232   4.243   2.815   6.420 -1.3660 -0.2263 -0.7743
30075SOL    HW292233   4.240   2.673   6.368  2.1584 -1.2320  1.4524
30076SOL     OW92234   6.365   1.147   8.836  0.0810 -0.2975 -0.4497
30076SOL    HW192235   6.383   1.220   8.896 -0.5496  0.5378 -1.2650
30076SOL    HW292236   6.451   1.125   8.800  0.1260  0.8689 -1.1207
30077SOL     OW92237   2.192   5.790   9.349  0.1302 -0.9158  0.0683
30077SOL    HW192238   2.206   5.844   9.427 -0.7161  1.5286 -1.3761
30077SOL    HW292239   2.263   5.725   9.352  1.0092  0.0522  2.0577
30078SOL     OW92240   1.203   2.443  10.867  0.0146 -0.8451 -0.5090
30078SOL    HW192241   1.188   2.493  10.947 -3.5809 -0.1252 -1.4911
30078SOL    HW292242   1.142   2.370  10.871  1.4197 -2.1633 -1.5868
30079SOL     OW92243   3.041   6.472   8.740  0.0927  0.2887  0.5066
30079SOL    HW192244   3.014   6.383   8.761  0.2019 -0.2433 -1.3642
30079SOL    HW292245   2.961   6.524   8.746 -0.9322 -0.7620 -2.3508
30080SOL     OW92246   8.818   3.921   3.058  0.3456  0.0284  0.3954
30080SOL    HW192247   8.901   3.880   3.083  0.4455  0.6938  1.1957
30080SOL    HW292248   8.803   3.988   3.125 -0.7640  0.0216  0.1750
30081SOL     OW92249   2.495   3.515   9.521  0.1314 -0.0663  0.1004
30081SOL    HW192250   2.416   3.541   9.474 -0.2931 -1.9681 -0.3220
30081SOL    HW292251   2.555   3.486   9.453  0.0873 -1.3700  0.5775
30082SOL     OW92252   9.434   1.589   4.173  0.0490  0.6379  0.2253
30082SOL    HW192253   9.526   1.609   4.154 -0.1417  1.3954  0.0748
30082SOL    HW292254   9.428   1.494   4.165  0.5767  0.6755 -0.8853
30083SOL     OW92255   6.749   5.604   7.797  0.3902  0.4551 -0.2668
30083SOL    HW192256   6.775   5.694   7.815 -0.9577  0.4535  2.1260
30083SOL    HW292257   6.688   5.609   7.723  1.3790  1.3002 -1.0452
30084SOL     OW92258  10.338   1.093   0.407 -0.0011 -0.0180  0.2312
30084SOL    HW192259  10.290   1.093   0.324  0.8671  0.2203 -0.2740
30084SOL    HW292260  10.423   1.054   0.386  0.4375  0.5759  0.8790
30085SOL     OW92261   9.283  10.000  10.581  0.1871  0.5518 -0.1521
30085SOL    HW192262   9.360   9.959  10.541 -0.0982  1.7189 -2.0264
30085SOL    HW292263   9.311  10.088  10.603 -0.8614  1.4010 -1.9485
30086SOL     OW92264   5.078   1.590  10.602  0.1407  0.2559  0.3336
30086SOL    HW192265   5.039   1.673  10.574  1.6622  0.9773  0.2634
30086SOL    HW292266   5.122   1.556  10.524 -1.0488 -1.0118  0.1645
30087SOL     OW92267   5.543   8.329  10.458  0.6663  0.1042  0.2155
30087SOL    HW192268   5.595   8.368  10.388 -0.5565 -1.6581 -1.8039
30087SOL    HW292269   5.482   8.397  10.485  0.7867  0.6430 -0.8524
30088SOL     OW92270   8.333   3.564  10.442  0.4198 -0.6169  0.2137
30088SOL    HW192271   8.400   3.620  10.482  0.0522 -0.5628  0.7757
30088SOL    HW292272   8.281   3.624  10.389  1.9223 -0.9547 -1.7748
30089SOL     OW92273   6.701   1.776   2.951  0.0672 -0.2661  0.5504
30089SOL    HW192274   6.769   1.810   3.010  3.0609  0.9620 -3.1712
30089SOL    HW292275   6.649   1.852   2.927 -0.4255 -0.5464  0.7128
30090SOL     OW92276   6.871   8.407   1.921 -0.5479  0.7430 -0.0577
30090SOL    HW192277   6.918   8.333   1.882 -1.4861 -1.9135  3.2857
30090SOL    HW292278   6.802   8.428   1.859  1.6682  1.1578 -2.6038
30091SOL     OW92279   4.371   4.527   9.103 -0.4543  0.5439 -0.5076
30091SOL    HW192280   4.443   4.589   9.091 -0.8075  0.8946 -0.8341
30091SOL    HW292281   4.298   4.565   9.054 -0.2459 -0.8580 -1.9888
30092SOL     OW92282   6.689   1.396  10.269 -0.4279 -0.3925 -0.1211
30092SOL    HW192283   6.715   1.335  10.337 -1.0570  0.3031  0.7735
30092SOL    HW292284   6.768   1.447  10.250  0.1903 -1.6544 -1.1069
30093SOL     OW92285   2.421   7.473   2.597 -0.4391  0.7397 -0.2284
30093SOL    HW192286   2.376   7.526   2.663 -1.0136 -0.0755  0.0507
30093SOL    HW292287   2.506   7.516   2.586 -0.0243  0.5119  1.5881
30094SOL     OW92288   2.842   9.690   8.102 -0.1343  0.3052  0.5883
30094SOL    HW192289   2.784   9.664   8.031  1.2463 -0.4751 -0.3045
30094SOL    HW292290   2.798   9.662   8.181 -1.0489 -0.0934 -0.0499
30095SOL     OW92291   9.801   5.796   0.662 -0.0208 -0.0488 -0.1588
30095SOL    HW192292   9.774   5.876   0.708 -0.5248  0.1271 -0.7509
30095SOL    HW292293   9.869   5.757   0.719 -0.7140  0.0979  0.7897
30096SOL     OW92294   1.524   8.118   8.359 -0.2592 -0.2396 -0.1240
30096SOL    HW192295   1.610   8.105   8.398  0.2249 -0.2573 -1.1681
30096SOL    HW292296   1.463   8.074   8.419  0.6123 -1.4689 -0.1097
30097SOL     OW92297   8.477   4.945   0.697  0.5923  0.3687  0.2898
30097SOL    HW192298   8.500   4.885   0.768 -1.4110  1.4696  2.0031
30097SOL    HW292299   8.488   4.893   0.617 -0.2197 -2.0115  1.6227
30098SOL     OW92300   8.586   8.477   5.966 -0.4789  0.5374  0.4248
30098SOL    HW192301   8.660   8.534   5.989  1.0176 -1.0448 -0.1870
30098SOL    HW292302   8.573   8.492   5.872 -0.2342  0.0742  0.3123
30099SOL     OW92303   7.948   5.699   0.478 -0.2323  0.0451 -0.4615
30099SOL    HW192304   7.898   5.742   0.548  0.1452 -0.5515  0.1758
30099SOL    HW292305   7.883   5.645   0.433  0.1506 -2.3080  1.5978
30100SOL     OW92306   0.896   7.895   7.123 -0.5165  0.3977 -0.1763
30100SOL    HW192307   0.808   7.865   7.143 -0.5089  0.3021 -0.2837
30100SOL    HW292308   0.932   7.828   7.065 -0.8073  1.0282 -1.1147
30101SOL     OW92309   0.393   1.767   6.080  0.8619 -0.2163  0.0370
30101SOL    HW192310   0.325   1.717   6.126  2.1584  0.9748  3.5291
30101SOL    HW292311   0.423   1.707   6.011 -1.6267 -1.9163  0.2862
30102SOL     OW92312   8.135   1.716   4.180 -0.1576  0.0495  0.0178
30102SOL    HW192313   8.145   1.627   4.145  0.3379  0.2906 -0.4617
30102SOL    HW292314   8.040   1.726   4.190 -0.2024 -0.6311  0.3374
30103SOL     OW92315  10.660   3.546   1.010  0.3577 -0.6748  0.4939
30103SOL    HW192316  10.715   3.475   0.977  1.0749 -0.3626  1.0064
30103SOL    HW292317  10.635   3.518   1.098 -0.7619 -1.0625  0.0727
30104SOL     OW92318   9.144   7.639   7.801  0.0119  0.7362 -0.0759
30104SOL    HW192319   9.114   7.722   7.764 -0.3652  0.2341 -0.9146
30104SOL    HW292320   9.217   7.663   7.858 -1.3777  1.8788  1.3198
30105SOL     OW92321  10.827   2.561   3.229 -0.1046 -0.2280 -0.0044
30105SOL    HW192322  10.864   2.607   3.304  1.3197 -0.7528 -0.3501
30105SOL    HW292323  10.782   2.629   3.179  1.4614  0.7110 -0.1980
30106SOL     OW92324   8.798   8.277  10.419  0.1521  0.4138  0.9737
30106SOL    HW192325   8.884   8.316  10.437  1.0898  0.2263 -2.3068
30106SOL    HW292326   8.803   8.251  10.327 -3.2985 -0.0445  0.7825
30107SOL     OW92327  10.349  10.710   8.791  0.6758 -0.0087 -0.2560
30107SOL    HW192328  10.362  10.629   8.743  0.6214 -0.8510  1.0976
30107SOL    HW292329  10.429  10.721   8.843  0.4953  0.5642 -0.0832
30108SOL     OW92330   2.608   8.927   9.437 -0.2986 -0.3810  0.5193
30108SOL    HW192331   2.568   8.844   9.410  2.4994 -1.3989 -0.8281
30108SOL    HW292332   2.569   8.992   9.378  0.6902 -1.5214 -1.5192
30109SOL     OW92333   5.867   0.047   2.654 -0.0979 -0.1961  0.6783
30109SOL    HW192334   5.889  -0.019   2.588  2.4254 -2.1836  3.2465
30109SOL    HW292335   5.841   0.124   2.603  1.3942 -1.6463 -2.5913
30110SOL     OW92336   9.496   2.981   5.435  0.1776  0.3228 -0.4108
30110SOL    HW192337   9.441   2.909   5.405 -0.3633  0.5407  0.0354
30110SOL    HW292338   9.455   3.059   5.400  0.9504  0.4043 -1.1736
30111SOL     OW92339   7.915  10.057   0.280 -0.2883  0.2449  0.4235
30111SOL    HW192340   7.993  10.101   0.314 -0.5079  1.0372 -0.0766
30111SOL    HW292341   7.874  10.019   0.357  1.0704 -0.9803  0.5874
30112SOL     OW92342   7.323   9.752   0.161  0.6870 -0.2157 -0.6189
30112SOL    HW192343   7.228   9.748   0.172  0.6377  1.3731 -0.2238
30112SOL    HW292344   7.358   9.736   0.248  0.6406  1.9744 -0.1238
30113SOL     OW92345   7.869  10.075   5.101 -0.5339 -0.8558 -0.2824
30113SOL    HW192346   7.815  10.001   5.127 -0.9493 -0.5534 -0.2708
30113SOL    HW292347   7.869  10.132   5.178 -0.4714 -0.7001 -0.3974
30114SOL     OW92348   1.922   5.855   5.290 -0.0990  0.1137  0.1581
30114SOL    HW192349   1.906   5.866   5.384  1.1488  1.7596  0.2074
30114SOL    HW292350   2.017   5.846   5.283 -0.1943 -0.0948 -0.9548
30115SOL     OW92351   2.570   3.924   0.894  0.0863 -0.3989  0.1164
30115SOL    HW192352   2.629   3.922   0.969  0.7102  1.3888 -0.2637
30115SOL    HW292353   2.621   3.886   0.822  0.7610  0.9956 -0.1726
30116SOL     OW92354   2.878   2.678   1.765 -0.1557 -0.1640 -0.4420
30116SOL    HW192355   2.886   2.768   1.796 -0.9656 -0.0160 -0.6551
30116SOL    HW292356   2.966   2.655   1.734  0.8916 -0.5097  2.4600
30117SOL     OW92357   3.745   7.269   2.979  0.2454 -0.1190  0.1035
30117SOL    HW192358   3.665   7.314   2.952  0.3084 -1.0277 -1.7445
30117SOL    HW292359   3.718   7.216   3.054 -0.2497  1.5541  1.1450
30118SOL     OW92360  10.929  10.793   7.538 -0.0325 -0.7665 -0.4718
30118SOL    HW192361  10.869  10.771   7.610  0.7680  1.7129  1.0916
30118SOL    HW292362  10.872  10.835   7.473 -0.4002 -0.7383 -0.1427
30119SOL     OW92363   5.086   2.595   5.027 -0.2085 -0.0654 -0.4610
30119SOL    HW192364   5.063   2.516   5.076  1.5411  0.9390  2.2110
30119SOL    HW292365   5.044   2.667   5.075  0.4960  0.8897 -1.2170
30120SOL     OW92366   1.440   3.548   1.717  0.4094 -0.1509  0.4849
30120SOL    HW192367   1.363   3.588   1.756  0.3127  1.5235 -1.2629
30120SOL    HW292368   1.511   3.565   1.780 -0.1238  0.6699  0.8837
30121SOL     OW92369   7.082   2.718   8.710  0.8172 -0.6141  0.0398
30121SOL    HW192370   7.157   2.737   8.767 -0.2031 -0.3021  1.3465
30121SOL    HW292371   7.117   2.725   8.621  3.0655 -3.4504  0.5501
30122SOL     OW92372   8.239   8.135  10.900 -0.5891  0.0099  0.0413
30122SOL    HW192373   8.319   8.109  10.855  0.4249 -1.1357  2.3313
30122SOL    HW292374   8.177   8.155  10.830  1.0296 -1.1570 -1.8214
30123SOL     OW92375   4.624   5.198   8.925  0.1143 -0.5655  0.0414
30123SOL    HW192376   4.586   5.270   8.875  0.4381  0.3005  1.0047
30123SOL    HW292377   4.550   5.162   8.973 -0.2840 -1.6845 -1.3516
30124SOL     OW92378   1.921   3.392   5.383  0.3184 -0.0111 -0.5517
30124SOL    HW192379   1.902   3.476   5.424 -0.0380 -0.1537 -0.4237
30124SOL    HW292380   1.905   3.407   5.289  2.4022  0.6885 -0.8466
30125SOL     OW92381   7.722  10.572  10.603 -0.0437 -0.5999  0.0947
30125SOL    HW192382   7.802  10.535  10.639 -0.5325 -0.5763  1.2591
30125SOL    HW292383   7.699  10.642  10.664 -1.0607 -0.7413 -0.1076
30126SOL     OW92384  10.164  10.881   8.674  0.0754 -0.2471 -0.1050
30126SOL    HW192385  10.245  10.831   8.681  0.1827 -0.4864 -2.4991
30126SOL    HW292386  10.095  10.815   8.672  0.0267 -0.1815 -0.7132
30127SOL     OW92387   9.028   2.116   6.528 -0.0893 -0.0248  0.1972
30127SOL    HW192388   8.948   2.097   6.577  0.3911 -2.8764  0.0659
30127SOL    HW292389   9.082   2.167   6.588 -1.6264  1.1819  0.6030
30128SOL     OW92390  10.942   5.409   6.399 -0.1936  0.1084  0.9611
30128SOL    HW192391  10.864   5.401   6.343 -0.4102  0.3556  1.2238
30128SOL    HW292392  11.014   5.425   6.338 -0.5232  0.9932  0.7896
30129SOL     OW92393   1.294   1.325   3.680  0.2874 -0.2475  0.1196
30129SOL    HW192394   1.367   1.349   3.622 -0.4167 -1.0036 -1.1013
30129SOL    HW292395   1.215   1.345   3.630 -0.4213  1.6239  1.8511
30130SOL     OW92396   5.246   0.197   1.533  0.2047  0.4192  0.4908
30130SOL    HW192397   5.240   0.196   1.629 -0.8182 -1.7644  0.4439
30130SOL    HW292398   5.205   0.280   1.508  0.7388  1.1643  1.9280
30131SOL     OW92399   0.170   9.065   6.960  0.7778  0.0742 -0.1158
30131SOL    HW192400   0.116   9.053   7.039 -1.8672  0.5440 -1.7211
30131SOL    HW292401   0.185   8.976   6.928 -1.6577 -0.0089 -1.2140
30132SOL     OW92402   9.363  10.725   5.838  0.1966  0.1731  0.0178
30132SOL    HW192403   9.418  10.648   5.849  0.5450  0.5347  0.9924
30132SOL    HW292404   9.312  10.730   5.919  0.3761  1.1131  0.0827
30133SOL     OW92405   9.483   7.092   3.432  0.2442  0.2601 -0.1408
30133SOL    HW192406   9.569   7.126   3.409  0.7297 -0.3635  0.7101
30133SOL    HW292407   9.433   7.170   3.457 -0.0481  0.8502 -2.3999
30134SOL     OW92408   0.991   9.127   7.020  0.2720  0.5710  0.4569
30134SOL    HW192409   1.041   9.079   7.087 -0.4568  1.0228  1.3495
30134SOL    HW292410   0.900   9.109   7.042  0.0113  1.4119  0.0855
30135SOL     OW92411   3.115   3.904   7.383  0.2874 -0.0079 -0.5428
30135SOL    HW192412   3.119   3.976   7.446  0.7045 -1.1979  0.8495
30135SOL    HW292413   3.081   3.830   7.434  0.9666 -1.1045 -1.6284
30136SOL     OW92414   5.698  10.262   4.745 -0.2095 -0.0204 -0.0685
30136SOL    HW192415   5.605  10.246   4.729  0.0616 -1.2446 -0.5008
30136SOL    HW292416   5.700  10.344   4.794 -1.5488 -0.2469  0.4044
30137SOL     OW92417   9.518   0.872   8.307 -0.1791 -0.3787 -0.3742
30137SOL    HW192418   9.579   0.922   8.360  0.5135 -1.1027 -0.4732
30137SOL    HW292419   9.433   0.886   8.348  0.2378 -0.3424  0.4930
30138SOL     OW92420   6.712   8.061  10.916  0.3064 -0.5004 -0.7279
30138SOL    HW192421   6.631   8.089  10.959  0.4862 -1.8820  0.6363
30138SOL    HW292422   6.779   8.119  10.951  0.2256 -0.7392 -0.1525
30139SOL     OW92423   9.777   4.661   9.345 -0.6536 -0.0497  0.1932
30139SOL    HW192424   9.698   4.646   9.295 -0.5069 -2.0440  0.4860
30139SOL    HW292425   9.832   4.584   9.328  2.1135  2.1371 -1.5887
30140SOL     OW92426   0.744   0.422   3.060 -0.0399 -0.5644  0.2219
30140SOL    HW192427   0.741   0.477   2.982  4.5074 -0.3717 -0.0724
30140SOL    HW292428   0.783   0.340   3.030 -1.6539 -1.9506  1.6811
30141SOL     OW92429   2.435   3.061   2.597 -0.0386 -0.0994 -0.5095
30141SOL    HW192430   2.349   3.103   2.594 -0.7463 -1.5215 -2.3816
30141SOL    HW292431   2.427   2.986   2.538  2.2427 -0.7702 -0.0683
30142SOL     OW92432   0.448   8.714   8.899 -0.1844 -0.4858  0.1182
30142SOL    HW192433   0.509   8.692   8.828  0.4394 -0.1683  0.5553
30142SOL    HW292434   0.459   8.644   8.963  0.1241 -0.1335  0.4517
30143SOL     OW92435   5.936   9.510   7.107 -0.0636  0.2085 -0.4297
30143SOL    HW192436   5.899   9.558   7.033 -1.7068  1.4142  1.0837
30143SOL    HW292437   6.031   9.517   7.095 -0.2711 -0.3704 -2.8309
30144SOL     OW92438   8.774   3.296   8.979  0.4431  0.0125  0.4602
30144SOL    HW192439   8.705   3.257   9.032  0.3981 -1.8644 -0.9217
30144SOL    HW292440   8.850   3.239   8.992  0.6054 -0.1317 -1.0008
30145SOL     OW92441   2.325  10.228  10.302 -0.4320  0.1116 -0.3475
30145SOL    HW192442   2.413  10.242  10.267  0.4577  0.4120  1.8517
30145SOL    HW292443   2.270  10.289  10.253  1.0649  1.9009  0.0828
30146SOL     OW92444   6.801   0.573   1.421  0.1214  0.2124 -0.5055
30146SOL    HW192445   6.773   0.641   1.482  1.8476  1.9457 -1.5370
30146SOL    HW292446   6.733   0.571   1.354  0.6984  2.0014 -1.2147
30147SOL     OW92447   5.065   0.993   5.701 -0.5158  0.5853 -0.4473
30147SOL    HW192448   5.029   0.925   5.756  1.6491  0.9316  1.5829
30147SOL    HW292449   5.018   0.986   5.618  0.3884 -4.1573 -0.8050
30148SOL     OW92450   8.641   4.260   0.403  0.4180 -0.0350  0.1201
30148SOL    HW192451   8.717   4.315   0.422 -0.3356  0.8710  0.5876
30148SOL    HW292452   8.633   4.203   0.480 -0.2356  0.8870  0.7647
30149SOL     OW92453   6.941   0.718   0.202  0.2819  0.5042 -0.0153
30149SOL    HW192454   6.942   0.814   0.210  1.1104  0.3858  1.7777
30149SOL    HW292455   7.031   0.692   0.219  0.5949 -0.5151 -2.6871
30150SOL     OW92456   9.235   4.043  10.910  0.0951 -0.1128  0.2873
30150SOL    HW192457   9.304   4.109  10.905 -0.5001  0.4536 -0.6721
30150SOL    HW292458   9.180   4.071  10.984  0.4656 -0.1536  0.5796
30151SOL     OW92459   6.362   1.941   8.646 -0.8775 -0.2964 -0.8647
30151SOL    HW192460   6.415   1.990   8.582 -0.4137  1.3400  0.6839
30151SOL    HW292461   6.423   1.921   8.717 -1.5494 -1.4495 -0.6047
30152SOL     OW92462   8.896  10.559   3.655  0.1369  0.9354  0.2637
30152SOL    HW192463   8.838  10.493   3.692 -1.3485  2.2060  0.3127
30152SOL    HW292464   8.955  10.510   3.598 -1.7316 -0.2915 -0.7017
30153SOL     OW92465   6.796   3.134   1.499 -0.4529  0.3541 -0.6889
30153SOL    HW192466   6.734   3.125   1.572  0.2920 -0.0465 -0.0906
30153SOL    HW292467   6.867   3.187   1.535 -0.9766  1.8323 -1.7335
30154SOL     OW92468   0.569   2.160   8.813 -0.3415 -0.4109 -0.1687
30154SOL    HW192469   0.581   2.249   8.845  0.7979 -0.2295 -1.0267
30154SOL    HW292470   0.606   2.162   8.724 -0.3657 -1.7116 -0.2206
30155SOL     OW92471   3.888   9.243   0.977  0.4073 -0.0594  0.5644
30155SOL    HW192472   3.794   9.231   0.992  0.4175  0.8301  1.4750
30155SOL    HW292473   3.894   9.326   0.931  0.7819  0.1924  1.0612
30156SOL     OW92474   3.396   2.570   4.434 -0.3050 -0.2693 -0.3556
30156SOL    HW192475   3.412   2.494   4.378 -1.6238 -0.8471 -0.0079
30156SOL    HW292476   3.305   2.560   4.462  0.3595 -0.1790  2.1104
30157SOL     OW92477  10.913   0.597   9.017  0.1099  0.3648  0.2553
30157SOL    HW192478  10.887   0.513   8.978 -0.3711 -0.3194  1.9322
30157SOL    HW292479  10.853   0.661   8.978 -0.6655 -0.3590  0.2217
30158SOL     OW92480   2.033   3.047   7.608  0.3368 -0.5815 -0.2555
30158SOL    HW192481   1.962   3.078   7.553  0.4567 -0.6227 -0.4339
30158SOL    HW292482   2.014   3.083   7.695 -0.4608 -1.4541 -0.0581
30159SOL     OW92483   3.808   2.434   3.263  0.7712 -0.3547 -0.0836
30159SOL    HW192484   3.803   2.517   3.216 -1.9384  0.1525  0.9391
30159SOL    HW292485   3.888   2.393   3.231  2.8763  3.1479  0.2666
30160SOL     OW92486   3.527   0.449   0.338  0.0964 -0.1873 -0.1457
30160SOL    HW192487   3.451   0.391   0.342  1.3729 -1.9397 -0.1114
30160SOL    HW292488   3.548   0.455   0.245  1.6546 -2.1802  0.0101
30161SOL     OW92489   6.385   8.968   4.788  0.2045  0.4475 -0.1470
30161SOL    HW192490   6.367   8.881   4.753  2.1887 -0.0264 -0.0605
30161SOL    HW292491   6.407   8.954   4.880 -0.5300  1.1967  0.1692
30162SOL     OW92492  10.037   2.034  10.194 -0.7262 -0.0021  0.0973
30162SOL    HW192493  10.009   1.957  10.244 -0.9844 -0.5157 -0.8234
30162SOL    HW292494   9.963   2.054  10.137 -0.1029  0.0461 -0.6992
30163SOL     OW92495   5.403   3.747   7.029  0.3266 -0.8814 -0.3240
30163SOL    HW192496   5.356   3.738   7.112  0.5529 -1.1873 -0.2295
30163SOL    HW292497   5.358   3.820   6.985 -0.5508 -1.4843 -0.4523
30164SOL     OW92498  10.620   2.303   2.166 -0.7705  0.2713  0.4940
30164SOL    HW192499  10.689   2.352   2.211  1.0871 -1.2067 -0.5732
30164SOL    HW292500  10.587   2.364   2.100 -0.5083  1.0217  1.0370
30165SOL     OW92501   8.748   3.521   7.842 -0.4356  0.2798  0.3092
30165SOL    HW192502   8.821   3.547   7.787 -0.2399  0.6586  0.7416
30165SOL    HW292503   8.706   3.450   7.794  0.7550 -0.5666  0.4817
30166SOL     OW92504   6.470   4.130   1.473 -0.5594 -0.1717 -0.2881
30166SOL    HW192505   6.506   4.130   1.384 -0.8594 -2.0731 -0.4436
30166SOL    HW292506   6.410   4.056   1.475  0.0125 -0.6402  1.7194
30167SOL     OW92507   0.588   2.475   2.111 -0.2715 -0.2542 -0.3794
30167SOL    HW192508   0.647   2.432   2.173  0.8359  0.1189 -1.1503
30167SOL    HW292509   0.578   2.564   2.145 -0.5359 -0.3724 -0.1482
30168SOL     OW92510   8.533   9.119   2.785 -0.1268 -0.2605 -0.1390
30168SOL    HW192511   8.629   9.121   2.777 -0.2737  0.4423 -2.5026
30168SOL    HW292512   8.502   9.156   2.703 -2.4665 -1.2609  0.2280
30169SOL     OW92513   2.297   3.855   2.404  0.2151 -0.0970  0.2469
30169SOL    HW192514   2.263   3.906   2.478  1.1550  0.5261  0.2739
30169SOL    HW292515   2.316   3.769   2.440 -0.7564 -0.2589  0.3693
30170SOL     OW92516   1.067   5.176   1.849 -0.3743  0.1773 -0.0528
30170SOL    HW192517   1.010   5.243   1.887  0.3936  0.4964  0.5640
30170SOL    HW292518   1.011   5.130   1.787 -1.2684  0.5674  0.4404
30171SOL     OW92519   8.591   8.988   0.889 -0.0882  0.4092 -0.1394
30171SOL    HW192520   8.529   8.926   0.926  0.2235 -0.4401 -0.9984
30171SOL    HW292521   8.538   9.043   0.831 -0.0515 -0.3383 -0.9001
30172SOL     OW92522   9.203   6.436   6.555  0.0741 -0.1095 -0.4419
30172SOL    HW192523   9.243   6.447   6.469  3.4389  0.7935  1.0850
30172SOL    HW292524   9.153   6.517   6.569 -0.3866 -0.2080 -1.4703
30173SOL     OW92525   3.999   3.057  10.654 -0.2191 -0.0167 -0.0252
30173SOL    HW192526   3.984   3.110  10.575 -0.5846 -0.2316 -0.1050
30173SOL    HW292527   4.086   3.081  10.683 -0.7443  1.3289  0.4816
30174SOL     OW92528   0.711   3.754   5.148  0.5898 -0.2433  1.0426
30174SOL    HW192529   0.648   3.696   5.104 -1.0307  0.1431  2.7046
30174SOL    HW292530   0.716   3.720   5.237  1.7401  0.5495  1.3016
30175SOL     OW92531   8.555   7.183   6.584 -0.4111 -0.3714 -0.1604
30175SOL    HW192532   8.462   7.179   6.562 -0.3074  0.6667 -0.8421
30175SOL    HW292533   8.589   7.097   6.558 -0.9474 -0.3279 -1.0590
30176SOL     OW92534  10.839   0.544   5.875 -0.4575  0.0337 -0.2439
30176SOL    HW192535  10.859   0.479   5.943 -1.4345  0.4383  0.4585
30176SOL    HW292536  10.896   0.618   5.896  0.2722 -0.3795 -0.7282
30177SOL     OW92537   3.473   2.740   3.668  0.0786 -0.5066 -0.3984
30177SOL    HW192538   3.466   2.738   3.764 -0.9502  2.5136 -0.3128
30177SOL    HW292539   3.553   2.788   3.650  1.6052 -3.1386 -1.1874
30178SOL     OW92540   4.449   2.090   3.709 -0.0512  0.2556 -0.1983
30178SOL    HW192541   4.385   2.142   3.661  0.1782  0.1537 -0.6183
30178SOL    HW292542   4.532   2.105   3.663  0.0058 -0.5308 -0.3652
30179SOL     OW92543   6.663   0.960   9.686 -0.4985  0.0916  0.6032
30179SOL    HW192544   6.669   0.933   9.594  0.0361  1.4258  0.2213
30179SOL    HW292545   6.753   0.962   9.716 -0.7078 -0.9083  1.3587
30180SOL     OW92546   9.859   3.512   6.911 -0.2022  0.0742 -0.0703
30180SOL    HW192547   9.913   3.589   6.923 -0.3922  0.1790  0.1068
30180SOL    HW292548   9.894   3.448   6.972 -0.1992  0.0993 -0.0458
30181SOL     OW92549   5.522   9.716   0.869 -0.2109  0.0377 -0.0882
30181SOL    HW192550   5.468   9.640   0.846  0.9099 -0.1573 -2.4544
30181SOL    HW292551   5.550   9.700   0.959 -0.5835 -2.0073 -0.2939
30182SOL     OW92552   5.526   7.330   4.455 -0.3666  0.3532 -0.0346
30182SOL    HW192553   5.461   7.382   4.502 -2.2184 -0.2283 -1.8152
30182SOL    HW292554   5.576   7.286   4.524 -1.4768  1.2709  1.4033
30183SOL     OW92555   5.351   4.614   7.693 -0.3348 -0.0641 -0.4397
30183SOL    HW192556   5.425   4.647   7.641  0.7954 -0.0200  1.1339
30183SOL    HW292557   5.316   4.691   7.737  1.0612 -0.5555  1.6908
30184SOL     OW92558   3.223   3.718   4.254 -0.4453 -0.1886 -0.5824
30184SOL    HW192559   3.159   3.748   4.318  2.2061  0.3453  1.9821
30184SOL    HW292560   3.204   3.625   4.242 -1.0546 -0.2684  0.9056
30185SOL     OW92561   8.659  10.671   1.018 -0.4815  0.0683  0.1038
30185SOL    HW192562   8.728  10.643   1.078  0.5038 -0.4362 -1.2413
30185SOL    HW292563   8.651  10.600   0.955 -0.9341  0.9310 -0.8419
30186SOL     OW92564   6.534   6.782   3.915  0.1055  0.5193 -0.0329
30186SOL    HW192565   6.497   6.870   3.917  1.0954  0.9332  1.8441
30186SOL    HW292566   6.628   6.796   3.906  0.4169 -0.2505  1.6170
30187SOL     OW92567   3.575   6.656  10.501  0.3106 -0.1719  0.0847
30187SOL    HW192568   3.525   6.584  10.541  0.0135  1.0308  1.9835
30187SOL    HW292569   3.667   6.631  10.514  0.2260 -0.9604 -0.7320
30188SOL     OW92570   1.754   5.600  10.285  0.1368 -0.3377  0.2972
30188SOL    HW192571   1.757   5.630  10.375  1.0885  0.2110  0.0909
30188SOL    HW292572   1.808   5.663  10.236 -1.3539  0.1097 -0.8655
30189SOL     OW92573   5.799   2.321   4.294 -0.0112  0.4197  0.1458
30189SOL    HW192574   5.834   2.396   4.248  2.1891  0.5008  1.7888
30189SOL    HW292575   5.842   2.245   4.255 -0.1957  0.2443  0.2757
30190SOL     OW92576   8.987  11.074   8.473 -0.2490  0.3215  0.5362
30190SOL    HW192577   9.017  11.161   8.446  0.4445  0.4193  1.5628
30190SOL    HW292578   8.918  11.053   8.411  0.7139  0.8782 -0.7825
30191SOL     OW92579   7.239   1.050   0.303  0.0163 -0.2995  0.1645
30191SOL    HW192580   7.324   1.011   0.283 -0.0893 -0.3408 -0.2018
30191SOL    HW292581   7.258   1.144   0.314 -0.1458 -0.0285 -1.5843
30192SOL     OW92582   7.348   1.863   5.331 -0.5073 -0.0041 -0.1970
30192SOL    HW192583   7.411   1.894   5.396 -1.1097 -0.7478  0.7870
30192SOL    HW292584   7.392   1.790   5.288 -1.3982 -2.0087  2.0241
30193SOL     OW92585   3.601   4.905   0.814  0.2093 -0.0420  0.1724
30193SOL    HW192586   3.549   4.835   0.774 -0.9558  0.5663  0.5436
30193SOL    HW292587   3.565   4.913   0.903  0.6523  0.6885  0.2936
30194SOL     OW92588   7.533   2.087   8.414 -0.2004 -0.1151 -0.4658
30194SOL    HW192589   7.453   2.036   8.396 -0.1524 -0.6152  0.6548
30194SOL    HW292590   7.509   2.177   8.393 -1.1177 -0.2382  0.0011
30195SOL     OW92591   7.160   2.379   0.516  0.6676 -0.2348 -0.6800
30195SOL    HW192592   7.103   2.411   0.585  0.7607 -0.4152 -0.5191
30195SOL    HW292593   7.215   2.313   0.558  0.2160 -0.8897 -1.0921
30196SOL     OW92594   5.335   0.663   4.278 -0.2804  0.3136 -0.6493
30196SOL    HW192595   5.284   0.600   4.228 -0.3631 -0.1441  0.0066
30196SOL    HW292596   5.418   0.618   4.296  0.4276  1.1023 -1.8355
30197SOL     OW92597   7.614   0.143   1.781  0.1062 -0.1732  0.7104
30197SOL    HW192598   7.590   0.109   1.695  0.2891 -0.7648  0.8932
30197SOL    HW292599   7.602   0.238   1.773 -0.4685 -0.2801  0.2213
30198SOL     OW92600   9.980   6.526   9.627 -0.5541 -0.3564  0.1548
30198SOL    HW192601  10.074   6.525   9.643 -0.7646 -0.2140  1.4748
30198SOL    HW292602   9.970   6.486   9.540  0.8468  1.0638 -0.7311
30199SOL     OW92603  10.052   0.504  10.295 -0.3383 -0.0988 -0.4788
30199SOL    HW192604  10.095   0.435  10.244 -1.4448 -1.3034  0.1788
30199SOL    HW292605   9.961   0.503  10.265 -0.1664  1.7524 -1.1460
30200SOL     OW92606  10.166   6.397  11.055  0.2261  0.0150 -0.6776
30200SOL    HW192607  10.195   6.487  11.075 -2.1274  0.9088 -1.0265
30200SOL    HW292608  10.112   6.406  10.977 -0.9442 -1.5473 -0.0923
30201SOL     OW92609   8.024   9.324   1.118 -0.4446 -0.4106  0.0386
30201SOL    HW192610   8.105   9.275   1.105  0.3431  0.2466  2.0194
30201SOL    HW292611   8.028   9.395   1.054 -0.9661 -2.0940 -1.9464
30202SOL     OW92612   7.130  10.755   4.311 -0.0213 -0.1094 -0.2396
30202SOL    HW192613   7.062  10.757   4.244  0.8422 -0.0521 -1.1394
30202SOL    HW292614   7.096  10.810   4.382 -0.8957 -0.0817 -0.6684
30203SOL     OW92615  10.351   8.927   9.221 -0.2582 -0.5533  0.0989
30203SOL    HW192616  10.444   8.948   9.227 -0.3209 -0.4032  0.5720
30203SOL    HW292617  10.307   9.012   9.227 -0.3842 -0.4860 -1.4319
30204SOL     OW92618   0.480   4.491   8.407  0.7957 -0.4001  0.3168
30204SOL    HW192619   0.430   4.440   8.470 -0.2790  0.6209  0.3191
30204SOL    HW292620   0.434   4.478   8.324  2.5877 -2.2952 -0.4876
30205SOL     OW92621   0.635   5.399   8.788  0.7781 -0.0018 -0.4105
30205SOL    HW192622   0.665   5.442   8.708 -0.0867  2.4456  0.4937
30205SOL    HW292623   0.654   5.461   8.857 -0.1626 -1.2904  1.0732
30206SOL     OW92624   2.656   0.216   8.458  0.2873 -0.9386  0.0740
30206SOL    HW192625   2.604   0.265   8.393 -0.7093 -1.0335  0.7869
30206SOL    HW292626   2.596   0.152   8.494  1.4096 -2.3113 -0.3836
30207SOL     OW92627   0.288   2.162   1.212 -0.6440 -0.2398 -0.0995
30207SOL    HW192628   0.228   2.235   1.226 -0.8993 -0.2201 -1.2162
30207SOL    HW292629   0.297   2.122   1.299 -1.1022  0.6430  0.3739
30208SOL     OW92630   3.837   4.570   7.357  0.4134 -0.0409  0.1176
30208SOL    HW192631   3.791   4.653   7.361 -0.5726 -0.5049 -0.9899
30208SOL    HW292632   3.863   4.561   7.266 -1.1296 -1.7737 -0.2034
30209SOL     OW92633   1.657   1.710   1.904 -0.0563  0.2328  0.5376
30209SOL    HW192634   1.670   1.797   1.867 -3.5071  0.3098 -0.8215
30209SOL    HW292635   1.649   1.726   1.999 -0.7823  1.4562  0.2983
30210SOL     OW92636   7.285   1.411   3.173  0.7169  0.0193  0.3451
30210SOL    HW192637   7.318   1.485   3.223  1.1008 -0.3034  0.5771
30210SOL    HW292638   7.192   1.408   3.193  0.9015 -0.2292  1.2158
30211SOL     OW92639   8.109   0.917   2.312 -0.2593 -0.0674 -0.4401
30211SOL    HW192640   8.132   0.827   2.288 -2.6933 -1.4988  2.0473
30211SOL    HW292641   8.014   0.921   2.304 -0.3031  1.9582  0.4945
30212SOL     OW92642   0.353   7.706   2.745 -0.4568  0.4943 -0.1419
30212SOL    HW192643   0.310   7.718   2.829 -0.5232 -2.0257  0.2742
30212SOL    HW292644   0.446   7.707   2.765 -0.4771 -0.5375  0.0818
30213SOL     OW92645   6.313   5.728   8.424  0.3479 -0.0103 -0.1600
30213SOL    HW192646   6.392   5.741   8.371 -0.3919 -0.2635 -1.3598
30213SOL    HW292647   6.254   5.799   8.398 -0.1427 -0.3156  0.1054
30214SOL     OW92648   9.818   1.542   8.664 -0.0081  0.3929  0.7126
30214SOL    HW192649   9.887   1.604   8.640 -1.1898  0.9426 -1.5344
30214SOL    HW292650   9.860   1.483   8.726  3.0278 -0.2566 -1.7119
30215SOL     OW92651   6.838   0.953  10.964  0.4494  0.7833 -0.8753
30215SOL    HW192652   6.894   0.957  10.887  1.5621  1.9619 -0.0529
30215SOL    HW292653   6.851   0.865  10.999 -0.5440  0.0037 -2.3132
30216SOL     OW92654   9.996   6.215   6.592 -0.2608  0.3829 -0.6581
30216SOL    HW192655  10.088   6.210   6.620 -0.0731 -0.8366 -1.3782
30216SOL    HW292656   9.945   6.207   6.672  0.2730 -1.1235 -0.4254
30217SOL     OW92657   7.748   4.659   1.883 -0.0956 -0.2676  0.1956
30217SOL    HW192658   7.747   4.696   1.972 -1.6197  2.8755 -0.9913
30217SOL    HW292659   7.830   4.691   1.845 -0.4290  0.1503 -0.1755
30218SOL     OW92660   8.350   7.560   9.743  0.5983  0.4409  0.5762
30218SOL    HW192661   8.417   7.511   9.694  0.2336  0.1188  0.3958
30218SOL    HW292662   8.379   7.651   9.738  2.0316  0.1180  2.1033
30219SOL     OW92663   5.049   0.264   9.878 -0.5967 -0.4743 -0.0244
30219SOL    HW192664   5.003   0.202   9.936  2.9271 -1.4280  2.0954
30219SOL    HW292665   5.108   0.208   9.827 -0.3990  0.8174 -1.2509
30220SOL     OW92666   2.267   3.931   4.552 -0.7162  0.1955  0.5925
30220SOL    HW192667   2.345   3.948   4.605 -0.1718  1.1997 -0.4765
30220SOL    HW292668   2.227   4.018   4.540 -2.2520 -0.3545  1.4752
30221SOL     OW92669   8.255   9.641   9.473 -0.0475 -0.5806  0.3866
30221SOL    HW192670   8.307   9.652   9.393 -0.1214 -2.0566  0.1126
30221SOL    HW292671   8.165   9.655   9.445 -0.1405 -1.7718  0.0449
30222SOL     OW92672   9.826   8.520   2.813  0.7884 -0.0398  0.2267
30222SOL    HW192673   9.802   8.429   2.795  0.5628  0.1732 -0.5616
30222SOL    HW292674   9.877   8.548   2.738 -0.1142  0.8359 -0.0880
30223SOL     OW92675   2.949   1.582   1.786 -1.2937 -0.0787  0.2334
30223SOL    HW192676   2.861   1.545   1.784 -1.2220 -0.3504  1.2627
30223SOL    HW292677   2.987   1.559   1.702 -2.4951  0.7931 -0.5795
30224SOL     OW92678  10.720   7.850   6.657  0.2033  1.1349 -0.3022
30224SOL    HW192679  10.639   7.891   6.625 -0.1108 -0.3209 -1.4906
30224SOL    HW292680  10.696   7.813   6.742 -0.3978  0.6757 -0.6651
30225SOL     OW92681   5.795  10.984   1.513  0.0194 -0.0224 -0.4848
30225SOL    HW192682   5.831  10.940   1.436  0.6879 -0.6125  0.1443
30225SOL    HW292683   5.705  10.954   1.519 -0.1391  0.2873 -1.2186
30226SOL     OW92684   6.386   7.514   9.047 -0.3722  0.2364 -0.1558
30226SOL    HW192685   6.453   7.496   9.113  0.3775 -1.8666 -1.3658
30226SOL    HW292686   6.425   7.579   8.990  0.0118  0.1869  0.0456
30227SOL     OW92687   7.503   6.416   2.089 -0.0723  0.8542 -0.2886
30227SOL    HW192688   7.587   6.376   2.111  0.5105  1.4970 -1.2519
30227SOL    HW292689   7.455   6.419   2.172  0.7675  0.2814  0.2316
30228SOL     OW92690   8.615   1.425   0.562  0.4767  0.9724 -0.0063
30228SOL    HW192691   8.622   1.482   0.486  1.2243  0.1588 -0.5612
30228SOL    HW292692   8.606   1.337   0.526 -1.4400  0.7773  0.8209
30229SOL     OW92693   2.122   4.082   6.491  0.1767 -0.5241 -0.2694
30229SOL    HW192694   2.057   4.138   6.534 -0.3922  0.7429 -2.5745
30229SOL    HW292695   2.101   3.993   6.520 -0.6729  0.1709  1.3463
30230SOL     OW92696   5.976   4.201   0.306  0.3672 -0.1305  0.1795
30230SOL    HW192697   6.063   4.179   0.273  0.6368 -0.7371  1.2568
30230SOL    HW292698   5.968   4.295   0.291  1.8576  0.2398  1.5085
30231SOL     OW92699   5.761   0.824   3.204 -0.2454 -0.4748 -0.0194
30231SOL    HW192700   5.751   0.782   3.119  1.0183 -1.7754  0.4356
30231SOL    HW292701   5.771   0.752   3.266  0.8860  0.4748  0.9588
30232SOL     OW92702   5.074   1.952   1.327  0.6635 -0.5734  0.0880
30232SOL    HW192703   4.983   1.923   1.329  0.3748  0.0852 -1.3502
30232SOL    HW292704   5.072   2.039   1.368  0.1776  0.4024 -1.8342
30233SOL     OW92705   0.434   3.782  10.465  0.5125  0.1368  0.3912
30233SOL    HW192706   0.480   3.799  10.382 -0.3530  0.7421  0.0251
30233SOL    HW292707   0.490   3.823  10.531  0.3114  1.2315 -0.0964
30234SOL     OW92708   8.558   1.972   6.348  0.1325 -0.2564  0.5268
30234SOL    HW192709   8.568   1.911   6.420 -0.6165 -0.4753  0.4500
30234SOL    HW292710   8.494   1.931   6.290  0.0797  0.3171  0.1699
30235SOL     OW92711   6.485   2.094  11.065  0.3716 -0.7770  0.6558
30235SOL    HW192712   6.553   2.154  11.033  0.0111 -1.1176 -0.7884
30235SOL    HW292713   6.435   2.071  10.988 -1.1227 -0.9098  1.6246
30236SOL     OW92714   4.721   8.982   6.668 -0.2505 -0.2755  1.1403
30236SOL    HW192715   4.758   8.937   6.592 -1.5133  0.5894 -0.0452
30236SOL    HW292716   4.792   9.037   6.700 -0.2971  0.9834 -0.7823
30237SOL     OW92717   1.880   0.573  10.088  0.4776  0.7071  0.5520
30237SOL    HW192718   1.853   0.644  10.147  0.6848  2.3521 -1.2643
30237SOL    HW292719   1.828   0.586  10.009 -0.7950 -2.2754  0.7723
30238SOL     OW92720   5.217   4.283   4.889  0.4618 -0.4664  0.3069
30238SOL    HW192721   5.152   4.283   4.960  0.6741  0.3844  0.5117
30238SOL    HW292722   5.251   4.373   4.888  1.5099 -0.8559  0.0863
30239SOL     OW92723   6.638   8.970   2.573 -0.7528 -0.0127 -0.2135
30239SOL    HW192724   6.667   8.959   2.482 -1.4221  0.0084 -0.4411
30239SOL    HW292725   6.546   8.942   2.572 -0.5320 -0.8407  0.6425
30240SOL     OW92726   4.818   3.646   1.153  0.0413  0.7781  0.5664
30240SOL    HW192727   4.745   3.705   1.173 -0.9157 -0.3203  0.3509
30240SOL    HW292728   4.861   3.632   1.238 -0.1930  1.1492  0.7501
30241SOL     OW92729   6.828   3.992   6.333  0.0422  0.1916  0.7035
30241SOL    HW192730   6.875   4.013   6.252  1.0316 -0.7502  1.0027
30241SOL    HW292731   6.763   4.061   6.341 -1.3215 -0.6592 -1.8644
30242SOL     OW92732   7.053  10.607   8.592  1.0946  0.7775 -0.0594
30242SOL    HW192733   7.098  10.545   8.535 -0.4196  0.0230 -0.5013
30242SOL    HW292734   7.051  10.565   8.678 -0.4272 -0.1149 -0.4839
30243SOL     OW92735   8.558   8.274   3.128  0.1152 -0.0413  0.1809
30243SOL    HW192736   8.572   8.223   3.207  0.2936  1.3065  1.0587
30243SOL    HW292737   8.463   8.282   3.120  0.0953  1.4748  1.4203
30244SOL     OW92738   6.782   8.349   3.217  0.3452  0.4609  0.1932
30244SOL    HW192739   6.754   8.419   3.158  0.9465  1.8426  1.4722
30244SOL    HW292740   6.709   8.287   3.218 -0.7983  1.7748  0.1031
30245SOL     OW92741   0.674   3.197   8.381  0.3059 -0.1271 -0.0233
30245SOL    HW192742   0.741   3.205   8.448  0.7285  1.2141 -0.5712
30245SOL    HW292743   0.613   3.132   8.415  2.0767 -1.7073  0.3143
30246SOL     OW92744   1.746  10.679   6.701 -0.0702 -0.7402  0.0412
30246SOL    HW192745   1.781  10.702   6.615 -0.2912 -1.4004 -0.2277
30246SOL    HW292746   1.745  10.762   6.749 -0.2051 -0.3121 -0.6806
30247SOL     OW92747   3.233  10.722   5.735 -0.0823 -0.1739  0.2913
30247SOL    HW192748   3.326  10.709   5.718 -0.5471 -2.0319 -1.0702
30247SOL    HW292749   3.207  10.646   5.787 -0.9224  0.1971  0.4378
30248SOL     OW92750   1.138   0.321   5.064 -0.0718  0.2954  0.0988
30248SOL    HW192751   1.065   0.354   5.012 -0.4217 -1.0200 -0.2700
30248SOL    HW292752   1.197   0.396   5.073 -0.8518  1.0193 -0.6803
30249SOL     OW92753   9.988   5.317   8.036  0.7072 -0.6857  0.1636
30249SOL    HW192754  10.025   5.404   8.021  0.5416 -0.4547  1.0561
30249SOL    HW292755  10.064   5.261   8.051  0.7937 -0.6234 -0.0389
30250SOL     OW92756   4.422   4.918   1.949 -0.4337 -0.0271 -0.1662
30250SOL    HW192757   4.334   4.888   1.972 -0.4625  0.1537 -0.0300
30250SOL    HW292758   4.462   4.845   1.903 -0.3323 -0.4403  0.5766
30251SOL     OW92759   8.557   1.518   1.105  0.5448 -0.3880 -0.2302
30251SOL    HW192760   8.546   1.545   1.014  0.6456 -1.7509 -0.6594
30251SOL    HW292761   8.471   1.533   1.145  0.1424 -0.9667 -0.8740
30252SOL     OW92762   8.886   5.648   4.463  0.0852  0.1940  0.0616
30252SOL    HW192763   8.792   5.637   4.480 -0.3956  0.1987 -2.2315
30252SOL    HW292764   8.904   5.738   4.491 -0.7509  0.4169 -0.0666
30253SOL     OW92765   7.833   4.996  10.540 -0.2480 -0.1991  0.3564
30253SOL    HW192766   7.787   4.920  10.507 -0.7268  0.7267 -1.1927
30253SOL    HW292767   7.889   5.024  10.468  1.7872 -0.5035  1.7461
30254SOL     OW92768   7.284  10.369   2.324  0.5010  0.3654  0.0268
30254SOL    HW192769   7.294  10.382   2.418  1.8903  0.6213 -0.1311
30254SOL    HW292770   7.191  10.350   2.312  0.3538  0.0437  1.4779
30255SOL     OW92771   2.828   1.936   2.279 -0.1824  0.4082  0.3782
30255SOL    HW192772   2.894   1.978   2.225 -0.5120  0.3641 -0.0628
30255SOL    HW292773   2.776   1.884   2.218 -1.2791  1.2561  0.5469
30256SOL     OW92774   5.325   3.104   8.818  0.5512 -0.0271  0.6406
30256SOL    HW192775   5.386   3.145   8.757  1.6521 -1.3959  0.7997
30256SOL    HW292776   5.241   3.106   8.772  1.7082 -2.9602 -1.9509
30257SOL     OW92777   6.895   9.087   3.530  0.2461 -0.2753  0.4900
30257SOL    HW192778   6.935   9.166   3.566  1.5868  0.0461 -1.5174
30257SOL    HW292779   6.892   9.026   3.603  0.0793  1.2927  1.8525
30258SOL     OW92780   0.616   9.348   3.878 -0.1856  0.2141  0.7039
30258SOL    HW192781   0.671   9.275   3.907 -0.2750 -0.4848 -0.7593
30258SOL    HW292782   0.679   9.414   3.848 -0.0553 -0.7443 -1.3491
30259SOL     OW92783   9.424   6.959   0.504  0.4031  0.1129  0.2209
30259SOL    HW192784   9.435   6.940   0.597 -0.9791  1.5559  0.7167
30259SOL    HW292785   9.485   7.031   0.486 -0.5677  1.0186  0.4590
30260SOL     OW92786   2.145   2.835   3.609 -0.2259  0.0025 -0.4717
30260SOL    HW192787   2.171   2.923   3.636  0.5179 -0.0678 -0.9368
30260SOL    HW292788   2.200   2.816   3.533 -0.3627 -0.8741 -0.3604
30261SOL     OW92789   6.177   6.474   1.997 -0.4034 -0.3505 -0.1683
30261SOL    HW192790   6.082   6.480   1.993 -0.5434 -1.4908  0.7669
30261SOL    HW292791   6.199   6.488   2.089  0.4898  1.4494 -0.6217
30262SOL     OW92792   3.598   4.028   4.590 -0.3165  0.4375 -0.8491
30262SOL    HW192793   3.517   3.978   4.596 -0.1170  0.1566 -0.4377
30262SOL    HW292794   3.589   4.095   4.658  0.2364 -0.2425 -0.0929
30263SOL     OW92795   7.380   6.347  10.951  0.4218  0.6193  0.0531
30263SOL    HW192796   7.342   6.403  10.883 -2.7372  0.0608  1.1954
30263SOL    HW292797   7.351   6.259  10.928  0.6755  0.2101  1.2349
30264SOL     OW92798   9.843   6.420   7.956 -0.1593 -0.4607  0.3388
30264SOL    HW192799   9.823   6.429   8.050 -0.3958 -0.1073  0.2529
30264SOL    HW292800   9.882   6.503   7.931 -1.4308 -0.0151 -0.2137
30265SOL     OW92801   8.272   0.809   1.616  0.0335  1.1619  0.1515
30265SOL    HW192802   8.258   0.868   1.690  0.1879 -0.5231  1.5854
30265SOL    HW292803   8.367   0.797   1.613  0.0220  1.1745 -0.2764
30266SOL     OW92804   0.085   6.730   1.591 -0.4631 -0.2107  0.0344
30266SOL    HW192805   0.178   6.732   1.613 -0.2017  0.1629 -1.0205
30266SOL    HW292806   0.040   6.755   1.671  0.2745 -1.5164  0.8856
30267SOL     OW92807   7.328   2.593   4.081 -0.4325  0.0411  0.0553
30267SOL    HW192808   7.347   2.656   4.151  0.7584  0.2363 -0.4245
30267SOL    HW292809   7.233   2.589   4.078 -0.5128 -0.1546  1.8488
30268SOL     OW92810   1.216   6.947   0.792 -0.2932 -0.6137  0.1529
30268SOL    HW192811   1.178   6.859   0.796 -2.2382  0.1273 -0.8147
30268SOL    HW292812   1.258   6.950   0.706 -1.1194 -0.2714 -0.2454
30269SOL     OW92813   6.371   7.238   9.744 -0.0587  0.6049  0.1448
30269SOL    HW192814   6.378   7.155   9.696 -0.3050  0.7565 -0.1541
30269SOL    HW292815   6.388   7.305   9.678 -0.2608  0.8081  0.3001
30270SOL     OW92816   6.718   9.008   8.345 -0.2347  0.4285  0.3562
30270SOL    HW192817   6.774   9.076   8.382 -0.2544 -0.3151  1.8386
30270SOL    HW292818   6.686   9.045   8.263  2.0952  1.0213 -0.3534
30271SOL     OW92819   8.351   5.551   4.444  0.1042 -0.3804  0.1239
30271SOL    HW192820   8.269   5.582   4.405 -0.7636 -0.3604  1.8391
30271SOL    HW292821   8.323   5.507   4.525  1.8008 -0.2834  0.7987
30272SOL     OW92822   5.718   6.011   2.797 -0.1195  0.1323 -0.1130
30272SOL    HW192823   5.746   5.948   2.731 -0.3384  0.7307 -0.7802
30272SOL    HW292824   5.760   5.981   2.878  0.9399 -0.0473 -0.7200
30273SOL     OW92825   9.090   0.129   4.038  0.6646  0.0323  0.3517
30273SOL    HW192826   9.099   0.198   3.972  2.1344  0.9628  1.4418
30273SOL    HW292827   9.166   0.073   4.024 -1.1173 -2.1572 -1.2834
30274SOL     OW92828   6.587   0.471   9.514  0.7758  0.0748 -1.1423
30274SOL    HW192829   6.620   0.430   9.434  1.6053  0.5911 -1.0741
30274SOL    HW292830   6.651   0.539   9.534 -0.6500  1.5340 -1.3422
30275SOL     OW92831   6.865  10.238   5.526 -0.3822  0.3228  0.0631
30275SOL    HW192832   6.859  10.325   5.566  0.2639  0.9322 -1.1380
30275SOL    HW292833   6.856  10.253   5.432 -1.4809 -1.0490 -0.0899
30276SOL     OW92834   0.678   6.204   5.763 -0.5562 -0.4859 -0.1660
30276SOL    HW192835   0.654   6.275   5.704 -0.7987  0.3280  0.8878
30276SOL    HW292836   0.616   6.134   5.743 -0.7611 -0.1521 -0.7344
30277SOL     OW92837   7.803   8.310   9.350 -0.2115 -0.2533  0.4997
30277SOL    HW192838   7.886   8.264   9.360 -0.3983 -0.4456  1.1959
30277SOL    HW292839   7.743   8.243   9.317 -0.6352 -0.6813  2.0847
30278SOL     OW92840   0.714   2.784   8.731  0.5306 -0.4830  0.0389
30278SOL    HW192841   0.645   2.719   8.720 -0.6761  0.7703  0.0371
30278SOL    HW292842   0.766   2.751   8.805  1.6469 -2.8523 -1.6590
30279SOL     OW92843   9.868   7.248   2.559 -0.0758 -0.6907 -0.3675
30279SOL    HW192844   9.844   7.241   2.466 -1.0144  0.2624 -0.2071
30279SOL    HW292845   9.785   7.239   2.606  0.1233  0.7385  0.2863
30280SOL     OW92846   6.774   5.783   0.886  0.1480  0.3849 -0.3362
30280SOL    HW192847   6.695   5.783   0.831  0.1858  2.0509 -0.4287
30280SOL    HW292848   6.778   5.871   0.923  1.1975 -0.1177  0.8085
30281SOL     OW92849   2.897   0.775   2.816  0.2080 -0.3080 -0.2907
30281SOL    HW192850   2.801   0.766   2.812  0.2399 -2.1287  1.4801
30281SOL    HW292851   2.912   0.862   2.852 -0.8282 -0.3277  0.2230
30282SOL     OW92852   1.569   5.521   2.531  0.1208 -0.1208  0.1527
30282SOL    HW192853   1.509   5.535   2.457  1.0693  2.9711 -0.1525
30282SOL    HW292854   1.519   5.548   2.608  0.6844  1.4138  0.0182
30283SOL     OW92855   5.029   1.757   9.462  0.4517  0.0671  0.6983
30283SOL    HW192856   4.933   1.760   9.470  0.4804  0.7173  0.8482
30283SOL    HW292857   5.052   1.666   9.482 -0.3659 -0.7918 -1.8025
30284SOL     OW92858   4.109   8.594   7.871  0.2121 -0.3090  0.6389
30284SOL    HW192859   4.093   8.633   7.957  3.6805 -1.2512  1.8657
30284SOL    HW292860   4.079   8.503   7.880  0.5468 -0.3999  0.8380
30285SOL     OW92861   6.068   3.542  10.314  0.3620  0.3586 -0.0977
30285SOL    HW192862   6.080   3.454  10.277  0.8822  0.8262 -1.0710
30285SOL    HW292863   6.059   3.599  10.238  1.7341  1.3974  0.4818
30286SOL     OW92864   3.990   3.457   1.288 -0.0237 -0.1175  0.3702
30286SOL    HW192865   3.991   3.429   1.380 -1.4772 -1.9055 -0.0958
30286SOL    HW292866   3.899   3.445   1.261  0.8803 -2.2473 -2.0604
30287SOL     OW92867   3.091   5.202   0.962 -0.2729  0.5631 -0.1323
30287SOL    HW192868   3.070   5.285   0.920  2.2418  1.0882 -0.4955
30287SOL    HW292869   3.070   5.216   1.055  0.4672  1.7427 -0.1310
30288SOL     OW92870  10.332   4.906   3.177  0.2026  0.1089  0.6316
30288SOL    HW192871  10.338   4.828   3.231  0.5409  0.6124  1.3474
30288SOL    HW292872  10.377   4.974   3.228 -0.5363  0.8963  0.2586
30289SOL     OW92873   5.071   0.696   2.025  0.1026  0.1172  0.0989
30289SOL    HW192874   5.119   0.697   1.942 -1.1840 -2.0594 -0.7663
30289SOL    HW292875   4.993   0.748   2.008  1.1766  2.1005  0.9242
30290SOL     OW92876   7.661   6.663   9.994  0.4217 -0.2561  0.3168
30290SOL    HW192877   7.695   6.726   9.930  2.2547 -0.6487  0.8380
30290SOL    HW292878   7.691   6.696  10.078 -0.0935 -0.9055  0.7600
30291SOL     OW92879   9.611   1.364   0.049  0.2076 -0.1157  0.6620
30291SOL    HW192880   9.704   1.352   0.027  0.3917  0.2238  1.2384
30291SOL    HW292881   9.610   1.375   0.144 -0.3882  0.2241  0.6219
30292SOL     OW92882   2.917   6.391   1.468 -0.1054  0.4213  0.1039
30292SOL    HW192883   2.853   6.329   1.503  0.9410 -0.4972  0.4688
30292SOL    HW292884   2.922   6.369   1.375 -1.5508  1.6508 -0.3074
30293SOL     OW92885   3.699   1.316   9.758  0.1717 -0.2063  0.5104
30293SOL    HW192886   3.627   1.259   9.784  1.4721 -1.9359  0.5092
30293SOL    HW292887   3.692   1.392   9.817 -0.8947 -0.9249  1.3376
30294SOL     OW92888   7.517   9.681   9.163 -0.7292 -0.5958 -0.6366
30294SOL    HW192889   7.541   9.763   9.121  1.0138 -0.4897  0.4518
30294SOL    HW292890   7.480   9.707   9.247  1.4841 -0.8760  0.5132
30295SOL     OW92891   5.557   6.528   7.214  0.7268  0.1919 -0.0886
30295SOL    HW192892   5.521   6.589   7.279 -0.5445 -0.2176 -0.3905
30295SOL    HW292893   5.496   6.533   7.140  1.6936  0.0155 -0.9200
30296SOL     OW92894   5.286   7.267   0.755  0.0789  0.2973 -0.2755
30296SOL    HW192895   5.201   7.229   0.733  1.1011 -0.5818 -3.1021
30296SOL    HW292896   5.289   7.351   0.708  1.1215 -0.1482 -1.0537
30297SOL     OW92897   9.458   1.038   8.035 -0.0240 -0.3049  0.2471
30297SOL    HW192898   9.516   1.027   7.960 -1.5023  0.5144 -1.0586
30297SOL    HW292899   9.370   1.024   8.001 -0.6562 -1.2305  2.1227
30298SOL     OW92900   7.363   9.792   4.749  0.1414  0.4509  0.2610
30298SOL    HW192901   7.356   9.734   4.825  0.1570 -0.8722 -0.7028
30298SOL    HW292902   7.273   9.802   4.718  0.2528  0.0204 -0.2207
30299SOL     OW92903  10.777   6.257   0.597 -0.2860  0.2866  0.3503
30299SOL    HW192904  10.850   6.310   0.629 -0.7543  0.9847  0.2714
30299SOL    HW292905  10.769   6.186   0.661  2.0919 -1.2875 -0.9575
30300SOL     OW92906   7.299   7.791   0.129 -0.0814  0.5509  0.1728
30300SOL    HW192907   7.372   7.784   0.190 -0.1659  1.0497  0.3407
30300SOL    HW292908   7.314   7.873   0.083 -0.1101  0.2586 -0.3647
30301SOL     OW92909   6.844   3.420   4.731 -0.2402  0.3260 -0.3775
30301SOL    HW192910   6.760   3.457   4.759  0.4490  1.5123  0.2306
30301SOL    HW292911   6.903   3.436   4.805  0.7352  0.2751 -1.1165
30302SOL     OW92912   5.283   4.541   0.981 -0.1958  0.3869 -0.5026
30302SOL    HW192913   5.244   4.551   0.894  0.2385  2.4955 -0.5063
30302SOL    HW292914   5.261   4.623   1.026  0.6280 -0.1620  0.9479
30303SOL     OW92915  10.068   3.545   3.122  0.0616 -0.4778 -0.3777
30303SOL    HW192916  10.112   3.626   3.096 -2.0297  0.9244  0.2221
30303SOL    HW292917  10.022   3.567   3.203  0.3389 -2.6230  0.4264
30304SOL     OW92918   1.569   3.466   6.361  0.1620 -0.1044 -0.2058
30304SOL    HW192919   1.555   3.542   6.304  0.2218  1.4789  1.7880
30304SOL    HW292920   1.661   3.472   6.387  0.0131 -0.5095  0.4348
30305SOL     OW92921   8.300   6.591   3.807  0.5379  0.1117 -0.2969
30305SOL    HW192922   8.263   6.662   3.859  0.8609  0.3355 -0.3729
30305SOL    HW292923   8.297   6.623   3.717 -0.0601 -0.2919 -0.4266
30306SOL     OW92924  10.319   1.705   8.905  0.8513 -0.0862 -0.0028
30306SOL    HW192925  10.250   1.767   8.929  2.6927  0.9649  3.0301
30306SOL    HW292926  10.378   1.754   8.849  0.0512 -0.5142 -1.2721
30307SOL     OW92927   7.702   5.066   5.804 -0.4875  0.0355  0.2858
30307SOL    HW192928   7.792   5.087   5.776 -0.4195 -0.3648  0.1906
30307SOL    HW292929   7.713   4.995   5.868 -0.5178  2.0390  2.6434
30308SOL     OW92930   7.790   6.520  10.720 -0.1894  1.2431  0.0662
30308SOL    HW192931   7.868   6.469  10.740 -0.6914  0.9941  1.5538
30308SOL    HW292932   7.736   6.463  10.666 -0.4977  0.3716  1.2536
30309SOL     OW92933   2.442   1.843  11.004 -0.0838  0.7289  0.2802
30309SOL    HW192934   2.529   1.869  10.973  1.3616 -1.6245  2.0018
30309SOL    HW292935   2.387   1.847  10.926  2.0692  0.3686 -1.3629
30310SOL     OW92936   5.771  11.005   0.301  0.2851  0.6743  0.2386
30310SOL    HW192937   5.716  11.065   0.251  1.8327  1.8571 -0.1105
30310SOL    HW292938   5.834  10.971   0.238  0.9901  0.6243  0.9524
30311SOL     OW92939   1.748   7.084   7.033 -0.1877  0.0563  0.3210
30311SOL    HW192940   1.703   7.161   7.069 -0.0046  0.0226  0.6257
30311SOL    HW292941   1.678   7.022   7.014 -0.2240 -0.2585  1.4272
30312SOL     OW92942   7.676   1.555   4.262  0.1389  0.9187  0.2141
30312SOL    HW192943   7.690   1.479   4.319  0.2683  0.8958  0.1515
30312SOL    HW292944   7.726   1.536   4.183  0.2093  1.0897  0.2159
30313SOL     OW92945   4.830   1.542   0.360 -0.1840  0.3758  0.0823
30313SOL    HW192946   4.755   1.589   0.398 -0.2018 -0.5466  1.2557
30313SOL    HW292947   4.808   1.449   0.370  0.6556  0.0974 -0.5259
30314SOL     OW92948   2.413   3.361   2.422  0.1716 -0.1430 -0.2293
30314SOL    HW192949   2.343   3.340   2.360  0.5743 -1.9110 -0.1363
30314SOL    HW292950   2.485   3.304   2.397  1.3200  1.0646  0.1939
30315SOL     OW92951   3.180   5.346   0.503  0.3010 -0.3486 -0.5410
30315SOL    HW192952   3.144   5.279   0.562 -1.2207  0.0523 -0.9790
30315SOL    HW292953   3.270   5.359   0.534 -0.6183  0.3313  2.1464
30316SOL     OW92954   0.765   0.537   7.566 -0.2386 -0.2661 -0.7405
30316SOL    HW192955   0.694   0.543   7.629  1.2578  0.8331  0.9159
30316SOL    HW292956   0.793   0.627   7.551 -0.1721 -0.5448 -2.5651
30317SOL     OW92957   2.464   8.517   6.910 -0.3842 -0.6749 -0.1420
30317SOL    HW192958   2.546   8.554   6.878 -0.4731 -0.0068  0.3897
30317SOL    HW292959   2.486   8.478   6.994 -0.8850  0.7400  0.6735
30318SOL     OW92960   1.700   3.363   1.169 -0.1635  0.1452 -0.2819
30318SOL    HW192961   1.629   3.423   1.144  0.4878  0.5769 -1.1554
30318SOL    HW292962   1.752   3.411   1.232 -0.4535 -0.0474  0.1076
30319SOL     OW92963   9.563   4.362  10.033  0.1534  0.1035 -0.1760
30319SOL    HW192964   9.485   4.306  10.042  0.3140 -0.0582  0.2093
30319SOL    HW292965   9.528   4.449  10.015 -0.2396  0.6256  2.6819
30320SOL     OW92966   7.947   2.947  11.023 -0.2179  0.4943  0.0943
30320SOL    HW192967   7.925   2.893  10.947  0.9126 -0.4103  0.3842
30320SOL    HW292968   7.886   3.020  11.018 -0.6731  0.0618 -1.2572
30321SOL     OW92969   9.596   5.074   0.168  0.3713 -0.5388 -0.7054
30321SOL    HW192970   9.555   4.995   0.203  0.7286 -1.1699 -1.6674
30321SOL    HW292971   9.690   5.058   0.174  0.4482 -0.1598 -0.8348
30322SOL     OW92972   0.469   3.010   1.040  0.3028 -0.1170  0.1130
30322SOL    HW192973   0.466   3.104   1.062  0.8863 -0.0649 -0.0187
30322SOL    HW292974   0.540   3.003   0.977 -0.8999 -0.3649 -1.2792
30323SOL     OW92975   9.724   9.405   8.123  0.0772  0.5753  0.1888
30323SOL    HW192976   9.665   9.467   8.081  0.7195  1.3175  0.3711
30323SOL    HW292977   9.798   9.457   8.152 -0.1319  0.0078  1.8435
30324SOL     OW92978   4.594  10.300   0.713  0.5146  0.5607  0.5892
30324SOL    HW192979   4.608  10.390   0.742 -1.9339  0.7938  1.2732
30324SOL    HW292980   4.543  10.308   0.632 -0.1072 -0.2096  0.8917
30325SOL     OW92981   6.894   3.802   2.739 -0.1643 -0.1152 -0.1428
30325SOL    HW192982   6.946   3.845   2.807 -1.4388 -0.2543  0.9583
30325SOL    HW292983   6.818   3.859   2.728 -0.8351 -0.9922 -0.1752
30326SOL     OW92984  10.673   2.369   7.746 -0.0076 -0.3231  0.3872
30326SOL    HW192985  10.765   2.344   7.739  0.1673 -0.3926  2.2680
30326SOL    HW292986  10.657   2.428   7.672  1.4217 -0.6551 -0.2013
30327SOL     OW92987   8.374   2.919   0.833 -0.4734  0.6799  0.1017
30327SOL    HW192988   8.415   2.862   0.899 -0.6989  0.7380  0.2937
30327SOL    HW292989   8.381   3.007   0.869 -3.3898  0.4349  1.5814
30328SOL     OW92990   1.358  10.974   3.700  0.3326 -0.0566 -0.0291
30328SOL    HW192991   1.441  10.926   3.691  0.3321 -0.1914  0.6379
30328SOL    HW292992   1.377  11.060   3.662  0.3613 -0.5305 -1.1468
30329SOL     OW92993   5.982   9.926   2.894 -0.3603 -0.1642  0.0722
30329SOL    HW192994   6.000   9.979   2.817 -0.8835  0.0530  0.0898
30329SOL    HW292995   6.025   9.972   2.966  0.3920 -0.5335 -0.1309
30330SOL     OW92996   4.765   4.930   1.254 -0.4087 -0.0435  0.1606
30330SOL    HW192997   4.761   4.888   1.339 -2.6629  0.9297  0.6187
30330SOL    HW292998   4.702   4.881   1.200  0.9862 -0.6539 -0.9874
30331SOL     OW92999   3.651  10.998   8.762  0.3876  0.6279  0.0032
30331SOL    HW193000   3.675  10.929   8.700  1.5480  0.0735  1.0287
30331SOL    HW293001   3.607  11.065   8.709 -1.0843 -1.0343 -0.9590
30332SOL     OW93002   8.022   1.607   7.540 -0.2197 -0.1164  0.3072
30332SOL    HW193003   8.019   1.514   7.522 -0.9222 -0.1330  0.5022
30332SOL    HW293004   8.011   1.649   7.454 -3.0126 -0.1992  0.5517
30333SOL     OW93005   8.730   8.726   0.840 -0.3648  0.0601  0.1248
30333SOL    HW193006   8.747   8.820   0.827  0.7744 -0.2269 -0.5861
30333SOL    HW293007   8.815   8.684   0.827 -1.0217 -1.1592 -0.3958
30334SOL     OW93008  10.612   4.192   6.362  0.4599  0.1783 -0.5432
30334SOL    HW193009  10.649   4.208   6.449  0.9901 -1.3611 -0.4383
30334SOL    HW293010  10.683   4.149   6.314 -0.6918 -1.5292 -0.8176
30335SOL     OW93011   9.618   4.568   1.115 -0.4181 -0.3840 -0.1276
30335SOL    HW193012   9.683   4.505   1.086  0.2797 -0.0237  0.6042
30335SOL    HW293013   9.621   4.638   1.049  0.5308  0.0180  0.3290
30336SOL     OW93014   5.971   4.370   4.345 -0.5643  0.3478  0.4872
30336SOL    HW193015   6.027   4.415   4.281 -0.5266  1.0938  1.0400
30336SOL    HW293016   5.894   4.426   4.354 -0.8627 -0.0752  0.6330
30337SOL     OW93017   0.076   9.783   1.258  0.0236 -0.2302  0.0382
30337SOL    HW193018   0.021   9.733   1.319  0.6857 -0.8478  0.1387
30337SOL    HW293019   0.132   9.836   1.315  1.4233 -1.6298  0.0370
30338SOL     OW93020   8.803  10.156   2.716  0.3085  0.0351  0.3046
30338SOL    HW193021   8.804  10.100   2.793 -1.4065  1.2839  1.3235
30338SOL    HW293022   8.845  10.237   2.744  3.7298 -0.9467 -1.4574
30339SOL     OW93023   9.373   6.980   9.305 -0.1280  0.3263 -0.0888
30339SOL    HW193024   9.404   6.897   9.340  1.7796  0.7200 -0.7392
30339SOL    HW293025   9.446   7.041   9.318 -0.8768  1.4898 -1.0572
30340SOL     OW93026   2.279   9.672   0.383 -0.3370 -0.1930 -0.1774
30340SOL    HW193027   2.211   9.680   0.316 -1.6347  1.1813  1.2441
30340SOL    HW293028   2.353   9.721   0.347 -0.9581  0.3837 -0.7039
30341SOL     OW93029  10.632   6.213   8.889  0.0711  0.5363  0.0615
30341SOL    HW193030  10.702   6.223   8.825  1.2456 -0.3858  1.1508
30341SOL    HW293031  10.607   6.120   8.883 -0.8826  0.7873 -0.1141
30342SOL     OW93032   2.712   2.867   2.979 -0.1541 -0.3930 -0.1053
30342SOL    HW193033   2.784   2.826   3.028  1.4035  1.6392 -0.5818
30342SOL    HW293034   2.662   2.914   3.046 -0.4552 -0.9713  0.0830
30343SOL     OW93035   6.338   3.597   1.679  0.3762  0.1031 -0.4145
30343SOL    HW193036   6.317   3.506   1.661  1.0376  0.2448 -2.0935
30343SOL    HW293037   6.318   3.609   1.772 -2.3594 -0.9981 -0.7748
30344SOL     OW93038  10.565   4.296   1.100 -0.6993 -0.5062 -0.0826
30344SOL    HW193039  10.558   4.254   1.186  1.5340  0.3235  0.5479
30344SOL    HW293040  10.617   4.235   1.048  3.4045  1.6238  1.1163
30345SOL     OW93041   9.052   6.548   2.991 -0.1063 -0.3924  0.5611
30345SOL    HW193042   9.053   6.482   2.922  0.5843 -2.3778  2.3504
30345SOL    HW293043   9.112   6.514   3.058 -1.1785  1.1106  2.3981
30346SOL     OW93044   0.716   1.492  10.667 -0.1516  0.3548  0.4067
30346SOL    HW193045   0.784   1.553  10.638 -0.2031  0.7167  1.0242
30346SOL    HW293046   0.745   1.465  10.754 -0.8633  0.6190  0.7318
30347SOL     OW93047   3.716   2.858   3.640  0.4249  0.4349  1.1079
30347SOL    HW193048   3.740   2.929   3.700  1.4103  0.9392  0.1551
30347SOL    HW293049   3.783   2.791   3.654  1.6382  1.2449 -0.5579
30348SOL     OW93050   9.661   1.812   3.082 -0.3697  0.4804  0.1570
30348SOL    HW193051   9.684   1.899   3.048 -0.4202  1.5961  2.7206
30348SOL    HW293052   9.574   1.795   3.047  0.0816  0.9409 -1.2598
30349SOL     OW93053   4.556   0.965  10.843  0.0086  0.4178 -0.4175
30349SOL    HW193054   4.584   1.050  10.810 -0.5722  1.5996  1.9184
30349SOL    HW293055   4.585   0.964  10.934 -1.6884 -1.0786  0.1744
30350SOL     OW93056   3.751  10.034   8.534 -0.1153  0.8298 -1.1212
30350SOL    HW193057   3.688  10.038   8.606 -0.0512  0.1283 -1.0158
30350SOL    HW293058   3.804   9.956   8.553  1.0829  1.6557 -0.9592
30351SOL     OW93059   9.109   0.879   4.596  0.1391  0.0501  0.3192
30351SOL    HW193060   9.128   0.795   4.555  3.8207  1.6040 -1.5871
30351SOL    HW293061   9.078   0.935   4.525 -1.1816  0.6783  1.3361
30352SOL     OW93062   5.590  10.750   2.524  0.1685  0.5761  0.0100
30352SOL    HW193063   5.683  10.764   2.543  0.3192 -0.7567  0.3379
30352SOL    HW293064   5.558  10.701   2.599 -0.7095  0.6739 -0.2968
30353SOL     OW93065   4.476   4.363   2.084 -0.2974 -0.0910  0.3952
30353SOL    HW193066   4.483   4.458   2.079 -0.9328 -0.0734 -0.3093
30353SOL    HW293067   4.564   4.334   2.110  0.2558  0.5927 -0.6365
30354SOL     OW93068   4.657  10.565   1.241  0.3859  0.4208 -0.1672
30354SOL    HW193069   4.697  10.647   1.213  1.9537 -0.2210  0.0994
30354SOL    HW293070   4.581  10.591   1.293 -0.3091  1.6626 -1.7329
30355SOL     OW93071   3.044   5.185   5.691  0.4516  0.0811 -0.1094
30355SOL    HW193072   2.992   5.231   5.757 -1.3922 -0.3509 -1.2175
30355SOL    HW293073   3.117   5.148   5.741 -1.3815 -1.0366  1.9000
30356SOL     OW93074  10.273  10.502  10.334 -0.1987  0.2956 -0.7058
30356SOL    HW193075  10.241  10.580  10.379  2.4721  1.2369 -0.2776
30356SOL    HW293076  10.239  10.429  10.385  0.6231  1.2859  1.3763
30357SOL     OW93077   6.167  10.861   0.248  0.7141  0.4488 -0.1379
30357SOL    HW193078   6.217  10.881   0.327  2.8594 -0.4538 -1.2086
30357SOL    HW293079   6.182  10.936   0.190  1.6406 -0.2377 -0.8160
30358SOL     OW93080   3.461   2.134   3.939 -0.4414 -0.0357  0.0504
30358SOL    HW193081   3.456   2.165   3.849 -0.5980 -0.3887 -0.0660
30358SOL    HW293082   3.405   2.193   3.989 -1.7439 -0.8725 -0.3780
30359SOL     OW93083   7.827   0.863   2.996  0.3266 -0.4568  0.1920
30359SOL    HW193084   7.841   0.926   2.925  0.8885 -1.5406 -0.6938
30359SOL    HW293085   7.885   0.892   3.066  1.3646 -0.5558 -0.5972
30360SOL     OW93086   7.903   9.506   3.660 -0.7189  0.2761  0.3380
30360SOL    HW193087   7.951   9.517   3.578 -0.5440 -0.6398  0.3074
30360SOL    HW293088   7.963   9.537   3.728  0.4032 -1.9079  0.4122
30361SOL     OW93089   9.814   1.440   7.899  0.2982 -0.3651  0.5188
30361SOL    HW193090   9.824   1.520   7.952  0.7248 -0.3834  0.4721
30361SOL    HW293091   9.759   1.383   7.953  2.6783 -1.3464  2.0765
30362SOL     OW93092   8.774   3.850   3.433  0.7292 -0.1008  0.3142
30362SOL    HW193093   8.740   3.786   3.370 -0.2753 -0.3000  1.0472
30362SOL    HW293094   8.772   3.934   3.386 -1.0080 -0.0634  0.3926
30363SOL     OW93095   0.941   7.650   9.644 -0.3018 -0.0446 -0.1837
30363SOL    HW193096   0.911   7.714   9.709  0.8146 -0.0542  0.3629
30363SOL    HW293097   0.978   7.702   9.573  1.6051 -0.0510  0.7463
30364SOL     OW93098   7.089   2.741   1.578 -0.3550  0.3010  0.3313
30364SOL    HW193099   7.044   2.658   1.564 -1.5153  1.0524 -0.4691
30364SOL    HW293100   7.071   2.763   1.670  1.2231 -1.0365  1.0239
30365SOL     OW93101   9.622   8.979  10.110  0.4694  0.0274  0.0414
30365SOL    HW193102   9.680   8.947  10.041  1.0727 -0.3826  0.7260
30365SOL    HW293103   9.568   8.903  10.132  0.5109  0.0652  0.2667
30366SOL     OW93104   1.037   0.118   2.347 -0.5491  0.0220 -0.0825
30366SOL    HW193105   0.961   0.059   2.349  0.2524 -1.0459  2.0920
30366SOL    HW293106   1.078   0.102   2.262 -1.1625 -1.4783 -0.1214
30367SOL     OW93107   6.088   0.552   3.075 -0.1070  0.1313 -0.2487
30367SOL    HW193108   6.167   0.523   3.029 -1.1561  1.1499 -2.9076
30367SOL    HW293109   6.113   0.635   3.115  0.5440 -0.2407  0.1336
30368SOL     OW93110  10.497   1.836   4.538  0.0700 -0.0483  0.1309
30368SOL    HW193111  10.512   1.752   4.495 -1.2811  0.0822 -0.6451
30368SOL    HW293112  10.582   1.880   4.535  1.0484 -1.7288  1.3902
30369SOL     OW93113   1.134   3.871   8.905  0.4381 -0.0360  0.1532
30369SOL    HW193114   1.184   3.792   8.928  1.0623 -1.1910 -4.2160
30369SOL    HW293115   1.195   3.924   8.854 -0.8720  1.9098  0.4936
30370SOL     OW93116   9.790   6.915   1.914  0.2639  0.2897 -0.1259
30370SOL    HW193117   9.824   6.955   1.994  0.3782  0.6812 -0.3696
30370SOL    HW293118   9.841   6.834   1.905  2.5989  1.7775 -1.5409
30371SOL     OW93119   9.790   1.856  10.377  0.0928 -0.4772 -0.1714
30371SOL    HW193120   9.810   1.832  10.286 -1.7599 -0.4637 -0.6211
30371SOL    HW293121   9.713   1.913  10.370  0.9281  0.8999  1.3046
30372SOL     OW93122   7.039   1.784   1.127  0.0932  0.4895  0.4423
30372SOL    HW193123   6.961   1.756   1.079  0.5996  2.7485 -1.9718
30372SOL    HW293124   7.010   1.859   1.178  0.5617  1.1312 -0.2068
30373SOL     OW93125   4.475   6.626   0.129 -0.2215  0.9548  0.5832
30373SOL    HW193126   4.396   6.613   0.182 -0.8695  1.8811 -0.1260
30373SOL    HW293127   4.453   6.698   0.070  0.9036  0.7360 -0.1348
30374SOL     OW93128   7.941   2.447   0.300  0.1297 -0.2753 -0.5216
30374SOL    HW193129   7.934   2.392   0.378 -1.8937 -1.3610 -1.3908
30374SOL    HW293130   7.961   2.386   0.229  2.1453  0.7219 -0.8871
30375SOL     OW93131   7.119  10.865   3.112 -0.7006  0.8707  0.4309
30375SOL    HW193132   7.072  10.789   3.145 -1.0307  0.1388 -1.6080
30375SOL    HW293133   7.209  10.834   3.101 -0.9925  0.4751 -1.1430
30376SOL     OW93134   1.040   3.924   4.881 -0.3735  0.1329  0.0113
30376SOL    HW193135   0.945   3.934   4.881 -0.4067 -0.1501  0.6543
30376SOL    HW293136   1.054   3.829   4.880 -0.0816  0.1312 -2.3990
30377SOL     OW93137   5.940   4.382   1.098 -0.4032 -0.1247 -0.0033
30377SOL    HW193138   5.931   4.446   1.027 -0.3259 -0.6464 -0.4933
30377SOL    HW293139   5.859   4.391   1.148  0.8326  2.4388  1.7225
30378SOL     OW93140   2.107   6.965   3.785 -0.2347 -0.3922 -0.0856
30378SOL    HW193141   2.119   6.939   3.877  1.2215 -0.2576 -0.2172
30378SOL    HW293142   2.185   6.932   3.740  0.4003  1.8265 -0.7636
30379SOL     OW93143   5.967   7.940   3.109  0.5346 -0.1040  0.4089
30379SOL    HW193144   5.991   7.992   3.186  0.9437  0.8300 -0.3234
30379SOL    HW293145   5.932   8.005   3.048 -0.2754 -0.9107  0.0030
30380SOL     OW93146   9.896   5.221   4.457 -0.3372  0.4672 -0.1639
30380SOL    HW193147   9.942   5.300   4.483 -2.2572  1.1778  1.2725
30380SOL    HW293148   9.964   5.154   4.453  1.3026  2.0789 -1.2038
30381SOL     OW93149   7.907   3.522   5.358 -0.0021  0.5434  0.4664
30381SOL    HW193150   7.944   3.480   5.436  1.6789 -0.1045 -0.6277
30381SOL    HW293151   7.817   3.544   5.383 -0.6850 -2.8507  1.4545
30382SOL     OW93152   7.943   0.320   2.039 -0.3797 -0.0170 -0.6548
30382SOL    HW193153   7.916   0.269   2.116 -1.0922  1.1371 -0.1065
30382SOL    HW293154   7.900   0.405   2.050  1.0031  0.8237 -1.3790
30383SOL     OW93155   4.001   5.166   0.274  0.1930 -0.6002 -0.1311
30383SOL    HW193156   3.922   5.187   0.323 -0.7714  1.5472 -2.3609
30383SOL    HW293157   3.969   5.134   0.189  1.6268  1.0676 -1.3868
30384SOL     OW93158   8.059   4.591   5.759  0.3007  0.1413  0.2408
30384SOL    HW193159   8.089   4.651   5.691  0.6022  0.1880  0.4139
30384SOL    HW293160   8.014   4.648   5.822 -1.4591 -0.0995 -0.7325
30385SOL     OW93161  10.433   6.662  11.018  0.0338 -0.0174 -0.0421
30385SOL    HW193162  10.387   6.675  11.101  0.1195  3.0992 -0.3517
30385SOL    HW293163  10.364   6.657  10.952 -0.0658  3.1456 -0.3286
30386SOL     OW93164  10.722   4.574   4.364  0.0005 -0.4050  0.5840
30386SOL    HW193165  10.669   4.536   4.295  1.5992 -2.2286  0.3020
30386SOL    HW293166  10.792   4.511   4.379  0.3609  0.4746  3.0740
30387SOL     OW93167   6.020   7.258   6.497 -0.2822  0.9384  0.6301
30387SOL    HW193168   5.948   7.228   6.553  0.6143 -1.3417  0.6709
30387SOL    HW293169   6.085   7.187   6.501  2.6419  3.4827  1.7187
30388SOL     OW93170   4.423   1.407   4.083 -0.1580 -0.1464 -0.0027
30388SOL    HW193171   4.472   1.420   4.001 -0.7808  0.8547 -0.2332
30388SOL    HW293172   4.448   1.319   4.112 -0.0486 -0.5863 -1.3501
30389SOL     OW93173   5.704   3.093   1.888 -0.3887  0.6257 -0.3040
30389SOL    HW193174   5.685   3.152   1.961 -0.8241  1.3301 -0.9723
30389SOL    HW293175   5.704   3.149   1.811  1.8762  0.2170 -0.6704
30390SOL     OW93176   6.597   5.377   5.335 -0.1766  0.1101 -0.2407
30390SOL    HW193177   6.662   5.380   5.405 -1.3092  2.8941  0.8473
30390SOL    HW293178   6.551   5.294   5.348  1.7862 -0.9458  0.2145
30391SOL     OW93179   6.739  10.094   3.038 -0.1094 -0.0749  0.2224
30391SOL    HW193180   6.782  10.076   3.122  0.4229  2.5029  0.5691
30391SOL    HW293181   6.712  10.186   3.044  1.3950  0.7018 -3.0410
30392SOL     OW93182  10.707   9.500   0.974  0.1231  0.5808 -0.5962
30392SOL    HW193183  10.636   9.562   0.956 -0.6681  0.3863  1.6216
30392SOL    HW293184  10.772   9.519   0.906 -0.2259  3.6071 -0.2475
30393SOL     OW93185   7.121   9.287   2.204 -0.0263 -0.0804 -0.0915
30393SOL    HW193186   7.038   9.293   2.156 -0.3505 -0.7681  0.3682
30393SOL    HW293187   7.188   9.284   2.135 -0.3523  0.7852 -0.4594
30394SOL     OW93188   7.483   3.586   0.235  0.1358 -0.1495  0.4095
30394SOL    HW193189   7.430   3.552   0.163 -1.3663 -1.6649  2.1125
30394SOL    HW293190   7.511   3.673   0.206 -1.4526 -0.2059 -1.4759
30395SOL     OW93191   8.007   6.054   4.552  0.0051 -0.3266  1.4575
30395SOL    HW193192   7.968   5.994   4.489  1.9884  0.4371 -0.6172
30395SOL    HW293193   7.933   6.085   4.604 -2.0184  0.2595 -1.5462
30396SOL     OW93194   4.651  10.193   9.148 -0.1099 -0.4220  0.4695
30396SOL    HW193195   4.652  10.186   9.053  0.0951  1.3433  0.3223
30396SOL    HW293196   4.600  10.116   9.177 -2.2274  0.2654 -1.1842
30397SOL     OW93197   9.267   9.203   2.767  0.3314  0.5248 -0.8280
30397SOL    HW193198   9.301   9.131   2.822 -2.5239  0.5547  1.1978
30397SOL    HW293199   9.215   9.159   2.700 -2.5223  0.5146  1.1878
30398SOL     OW93200   8.752   3.207   8.715 -0.7101 -0.4602  0.1215
30398SOL    HW193201   8.685   3.255   8.668  0.8094  0.0767 -1.6338
30398SOL    HW293202   8.762   3.255   8.798 -0.1901  1.4973 -1.0006
30399SOL     OW93203   5.920   1.546   1.906 -0.4767 -0.3347 -0.2097
30399SOL    HW193204   5.865   1.625   1.912 -2.3520 -1.7074  2.8075
30399SOL    HW293205   5.967   1.543   1.989  1.4099 -1.2016 -1.2507
30400SOL     OW93206   9.193   3.626   7.531  0.5750  0.1172  0.0962
30400SOL    HW193207   9.194   3.683   7.454  0.4455  0.8830  0.6580
30400SOL    HW293208   9.285   3.606   7.547  0.6034 -0.0402 -0.2440
30401SOL     OW93209   6.596   1.608  11.063  0.6474 -0.0838 -0.0245
30401SOL    HW193210   6.640   1.542  11.009  0.9858 -0.6893  0.9789
30401SOL    HW293211   6.615   1.691  11.019 -0.0901 -0.6614 -1.5067
30402SOL     OW93212   3.491   2.520   9.537 -0.0764  0.0186 -0.3370
30402SOL    HW193213   3.535   2.601   9.509 -1.4440  1.1966  0.7500
30402SOL    HW293214   3.546   2.487   9.608  0.3390  0.1453 -0.5953
30403SOL     OW93215   9.313   3.605   4.117  0.9284 -0.0877 -0.1870
30403SOL    HW193216   9.273   3.684   4.152  0.1615 -0.0449 -1.1548
30403SOL    HW293217   9.243   3.560   4.071  1.6150 -0.7970 -0.5683
30404SOL     OW93218  10.152   1.726   7.386  0.0132 -0.3618 -0.4347
30404SOL    HW193219  10.078   1.779   7.417  1.2263  0.3658  1.3453
30404SOL    HW293220  10.111   1.658   7.332 -1.6551  2.0593 -2.4563
30405SOL     OW93221   5.029   2.985   4.865  0.5962 -0.4331  0.9313
30405SOL    HW193222   4.948   3.028   4.837  1.3548  1.0777  0.9572
30405SOL    HW293223   5.049   2.924   4.794 -0.3028 -0.4608  0.6895
30406SOL     OW93224  10.999   0.730  10.671 -0.3923 -0.4796 -0.5141
30406SOL    HW193225  10.921   0.777  10.697  0.3535  0.8596 -0.6124
30406SOL    HW293226  10.968   0.643  10.645 -1.4485 -1.2052  2.7036
30407SOL     OW93227   4.163   4.898  11.041  0.0317 -0.3262 -0.2105
30407SOL    HW193228   4.118   4.837  11.099 -0.2449  0.5195  0.4698
30407SOL    HW293229   4.109   4.976  11.041  0.4403 -0.0282 -1.0008
30408SOL     OW93230   9.197   6.243   0.090  0.3201 -0.2782 -0.4451
30408SOL    HW193231   9.180   6.333   0.063 -3.1039 -0.4819  0.6232
30408SOL    HW293232   9.259   6.251   0.163  0.5737  1.1382 -0.7989
30409SOL     OW93233   7.710   7.787   8.249  0.5542 -0.2841  0.0165
30409SOL    HW193234   7.804   7.799   8.263  0.6647  2.3073 -2.2628
30409SOL    HW293235   7.669   7.850   8.308  0.3329 -0.2650 -0.1561
30410SOL     OW93236   7.149   5.407   8.357  0.5609  0.0049 -0.0496
30410SOL    HW193237   7.181   5.436   8.272 -0.5850 -2.4049 -1.3917
30410SOL    HW293238   7.204   5.333   8.380 -0.8830 -1.1441 -0.0986
30411SOL     OW93239   6.084   2.445   1.197 -0.4818 -0.1943  0.0913
30411SOL    HW193240   6.120   2.356   1.199  0.2013  0.0537 -0.8466
30411SOL    HW293241   6.002   2.438   1.247  0.2024 -1.0515  1.1430
30412SOL     OW93242   5.177   6.458   0.320 -0.1595 -0.0743  0.1232
30412SOL    HW193243   5.271   6.459   0.304 -0.0631  1.5722  0.5893
30412SOL    HW293244   5.166   6.509   0.400 -1.4711 -0.1182 -0.0077
30413SOL     OW93245   6.773   5.416  11.054 -0.3661 -0.7346  0.1365
30413SOL    HW193246   6.705   5.483  11.049  0.1825 -0.2233 -0.6965
30413SOL    HW293247   6.851   5.459  11.021 -0.1033 -1.9160 -0.8316
30414SOL     OW93248   8.400   1.799  10.960 -0.2805  0.3058 -0.0949
30414SOL    HW193249   8.343   1.739  11.008  0.1976  0.4246  0.6391
30414SOL    HW293250   8.360   1.806  10.873  0.2207 -1.8695 -0.5606
30415SOL     OW93251   8.524   3.371   7.206  0.4554  0.0029 -0.1043
30415SOL    HW193252   8.511   3.276   7.207  0.4915  0.0020  0.1491
30415SOL    HW293253   8.455   3.404   7.148  0.8939 -0.2478 -0.7895
30416SOL     OW93254   3.618   5.975   9.222  0.3981  0.5889  0.1486
30416SOL    HW193255   3.648   6.022   9.144 -0.7486 -0.7543 -1.1794
30416SOL    HW293256   3.694   5.922   9.249  0.9548  1.4303  0.2522
30417SOL     OW93257   8.570   0.714   3.440  0.0146  0.4994  0.0805
30417SOL    HW193258   8.600   0.625   3.417  1.1682  0.9556 -0.2648
30417SOL    HW293259   8.480   0.702   3.471 -2.0006 -0.2411 -5.0029
30418SOL     OW93260   1.980   5.661   0.043  0.8159  0.7216 -0.3243
30418SOL    HW193261   1.996   5.689  -0.047  0.1788  0.7422 -0.4352
30418SOL    HW293262   2.063   5.678   0.089  1.6237 -0.5888 -1.2196
30419SOL     OW93263   7.970  10.957   3.191 -0.0920 -0.0474 -0.4880
30419SOL    HW193264   8.050  10.965   3.138  1.6804 -3.6462  1.2530
30419SOL    HW293265   7.971  11.032   3.250  2.1832 -0.1332 -0.3523
30420SOL     OW93266   7.034   9.551   6.852 -0.0195  0.8895  0.5119
30420SOL    HW193267   6.971   9.518   6.788  0.2360 -0.5916  0.9805
30420SOL    HW293268   7.118   9.514   6.824  0.3392  1.4312  0.8634
30421SOL     OW93269   4.722   7.132  10.695  0.3080 -0.1637  0.6701
30421SOL    HW193270   4.702   7.115  10.787  0.1149  0.5353  0.7658
30421SOL    HW293271   4.642   7.107  10.648  0.1419  0.1574  0.7760
30422SOL     OW93272  10.860   1.950   2.184  0.2982  0.2179 -0.5797
30422SOL    HW193273  10.934   1.984   2.233 -0.4148  0.5943  0.2635
30422SOL    HW293274  10.858   2.004   2.104  0.9034  0.2265 -0.5903
30423SOL     OW93275   3.393   3.691   3.512  0.7731  0.0230  0.6145
30423SOL    HW193276   3.365   3.600   3.506 -0.4024  0.3469  0.7859
30423SOL    HW293277   3.333   3.730   3.577  1.4690  0.8331  0.7863
30424SOL     OW93278  10.356   3.323   8.734 -0.1429 -0.1991 -0.6094
30424SOL    HW193279  10.288   3.256   8.739  1.6979 -2.0606  2.1181
30424SOL    HW293280  10.438   3.274   8.738  1.3199  2.1316 -0.4755
30425SOL     OW93281   8.987   5.756   0.338  0.3732 -0.0687  0.1254
30425SOL    HW193282   9.069   5.732   0.380  0.6703  1.7698  0.6616
30425SOL    HW293283   9.003   5.842   0.300 -1.4606  0.5984  0.7464
30426SOL     OW93284   4.181  10.885   9.062 -0.5436  0.4430  0.3913
30426SOL    HW193285   4.107  10.837   9.099 -0.7674  0.5678  0.1050
30426SOL    HW293286   4.230  10.915   9.139  0.4545 -1.5260  0.5858
30427SOL     OW93287   5.357   0.045   9.864 -0.3029 -0.5024  0.1784
30427SOL    HW193288   5.267   0.016   9.845  0.1967 -1.3269 -1.0670
30427SOL    HW293289   5.406   0.024   9.785  0.5493  2.0109 -0.0282
30428SOL     OW93290   1.469   3.365   0.077  0.7823  0.5624 -0.3148
30428SOL    HW193291   1.480   3.446   0.127  0.4046 -0.9480  2.4106
30428SOL    HW293292   1.379   3.339   0.094  1.8988 -2.2943  2.0823
30429SOL     OW93293  11.069   9.529   0.068 -0.7454  0.0077  0.4009
30429SOL    HW193294  10.987   9.562   0.032 -0.3875 -0.5777 -1.0293
30429SOL    HW293295  11.118   9.607   0.092 -1.0381  0.4317 -0.3440
30430SOL     OW93296   9.206   6.269   4.790  0.0064 -0.0033  0.2662
30430SOL    HW193297   9.181   6.178   4.808 -0.2505 -0.1549 -0.8363
30430SOL    HW293298   9.164   6.290   4.707  0.8597  0.8090  0.0239
30431SOL     OW93299   2.681   1.489   1.687 -0.6540 -0.2834 -0.5177
30431SOL    HW193300   2.692   1.508   1.594  0.0648  1.9155 -0.0369
30431SOL    HW293301   2.683   1.394   1.692  1.1884 -0.4289 -2.5357
30432SOL     OW93302   4.616   8.112   5.638 -0.1594  0.3794  0.2122
30432SOL    HW193303   4.555   8.171   5.595 -1.5822 -0.0798  1.5312
30432SOL    HW293304   4.638   8.155   5.720  1.1896  0.4489 -0.1549
30433SOL     OW93305   4.071   0.070  10.288 -0.6053  0.3081  0.0091
30433SOL    HW193306   4.003   0.008  10.260 -0.2474  0.3480 -0.9648
30433SOL    HW293307   4.078   0.132  10.216  1.8919 -0.8465 -0.8429
30434SOL     OW93308  10.289   1.356   0.213 -0.1256  0.0129 -0.3400
30434SOL    HW193309  10.227   1.289   0.241 -0.2382 -0.2558 -1.1992
30434SOL    HW293310  10.234   1.432   0.194 -0.1189 -0.0044 -0.4299
30435SOL     OW93311   3.418   6.291   1.354 -0.5059  0.1694 -0.0488
30435SOL    HW193312   3.459   6.377   1.356 -0.3463  0.0768  1.4990
30435SOL    HW293313   3.463   6.245   1.283  0.5130  0.8180  0.1630
30436SOL     OW93314   8.113   1.410  10.173  0.1496  0.3022 -0.0211
30436SOL    HW193315   8.139   1.330  10.218 -1.0902 -0.1952 -0.1415
30436SOL    HW293316   8.097   1.383  10.082 -0.7614  0.5573  0.0465
30437SOL     OW93317   9.326   0.999   2.986 -0.2624  0.1564  0.2374
30437SOL    HW193318   9.295   1.029   3.071 -0.2113  0.0892  0.2788
30437SOL    HW293319   9.359   1.079   2.944 -2.1280  0.6006 -0.5262
30438SOL     OW93320   0.323   8.573   6.891 -0.3064 -0.6077 -0.5664
30438SOL    HW193321   0.392   8.534   6.837 -1.4561 -1.0939 -1.7540
30438SOL    HW293322   0.275   8.498   6.926 -0.0334 -0.2802  0.5469
30439SOL     OW93323   2.638   5.513   4.668  0.6149 -0.1059  0.4712
30439SOL    HW193324   2.611   5.476   4.752  1.6725  2.2613  1.9701
30439SOL    HW293325   2.562   5.563   4.638 -0.2591 -2.0650 -0.7662
30440SOL     OW93326   6.864   5.233   0.713  0.3921  0.0001  0.2936
30440SOL    HW193327   6.874   5.299   0.644  0.0028  0.6522  0.8454
30440SOL    HW293328   6.800   5.271   0.773  0.1352 -0.9030  0.6086
30441SOL     OW93329   1.523   8.208   6.517 -0.0515  0.1997 -0.5807
30441SOL    HW193330   1.488   8.296   6.532  0.9814  0.7962 -1.5717
30441SOL    HW293331   1.454   8.163   6.468 -0.9364  0.1569  0.6408
30442SOL     OW93332   2.622   2.345   0.479 -0.3403  0.3492  0.4924
30442SOL    HW193333   2.594   2.351   0.571 -2.2674  1.4071 -0.1091
30442SOL    HW293334   2.639   2.436   0.454 -0.0421  0.0871 -0.2710
30443SOL     OW93335   8.281   8.231   3.101  0.0725 -0.2824 -0.1543
30443SOL    HW193336   8.236   8.163   3.051  0.9321 -0.7387 -0.3360
30443SOL    HW293337   8.213   8.270   3.156 -0.8441  0.0531 -1.4741
30444SOL     OW93338   7.240   2.797   9.122  0.0830  0.5723  0.0432
30444SOL    HW193339   7.175   2.737   9.087 -0.0732 -0.3543  1.8149
30444SOL    HW293340   7.314   2.790   9.061 -0.0021 -1.2830  0.1002
30445SOL     OW93341   2.772   1.254   4.194 -0.1601 -0.0675  0.2758
30445SOL    HW193342   2.806   1.266   4.105 -1.3263 -0.0973 -0.1864
30445SOL    HW293343   2.838   1.199   4.237  1.0637  1.0026 -0.1583
30446SOL     OW93344   6.360   4.790   0.388  0.2983 -0.1913 -0.2382
30446SOL    HW193345   6.375   4.728   0.316 -1.4901 -0.3234 -0.5330
30446SOL    HW293346   6.311   4.862   0.349  0.1572  0.2083  0.6416
30447SOL     OW93347   3.285   4.116   0.658  0.5241 -0.3635  0.8876
30447SOL    HW193348   3.246   4.035   0.626  0.2792  0.0554  0.1083
30447SOL    HW293349   3.233   4.139   0.735 -1.1664  0.5052 -0.4809
30448SOL     OW93350   8.541  10.217   2.963 -0.1482  0.0480 -0.0250
30448SOL    HW193351   8.509  10.128   2.951 -1.6984  0.5547  0.1411
30448SOL    HW293352   8.499  10.267   2.893 -0.7363  0.9628  0.9501
30449SOL     OW93353   7.248   7.155   2.122 -0.1507  0.0661  0.0036
30449SOL    HW193354   7.221   7.107   2.043  0.0926  1.3642 -0.8866
30449SOL    HW293355   7.323   7.105   2.155  0.3654  0.0284 -1.1503
30450SOL     OW93356   1.833   4.732  11.084  0.0974 -0.5584 -0.0585
30450SOL    HW193357   1.808   4.820  11.055  0.7136 -0.9466 -1.8866
30450SOL    HW293358   1.874   4.746  11.170 -2.0628  0.6145  0.8507
30451SOL     OW93359   6.378   0.525   1.767  0.4091 -0.1380  0.3683
30451SOL    HW193360   6.336   0.579   1.834  0.9666 -0.0278  0.6373
30451SOL    HW293361   6.328   0.542   1.687 -0.7988 -0.9059  0.9267
30452SOL     OW93362  10.646   4.107   8.905  0.2486 -0.3002 -0.1814
30452SOL    HW193363  10.614   4.177   8.962  1.8220 -1.4843  2.3341
30452SOL    HW293364  10.692   4.153   8.834  0.7064  1.2428  1.0482
30453SOL     OW93365   8.442  10.977   7.567 -0.2313 -0.0368 -0.5962
30453SOL    HW193366   8.461  10.926   7.489 -0.2696  1.6938 -1.7903
30453SOL    HW293367   8.347  10.986   7.568 -0.1235  1.3832 -1.3374
30454SOL     OW93368   2.849   4.722   9.177 -0.0187 -0.7744  0.3909
30454SOL    HW193369   2.788   4.694   9.246  1.0270 -2.0158  0.8462
30454SOL    HW293370   2.920   4.766   9.225 -0.8856  1.3804 -0.1947
30455SOL     OW93371   1.300   3.548   4.705 -0.2683 -0.1876  0.7669
30455SOL    HW193372   1.213   3.578   4.733 -0.7015 -0.4968 -0.1973
30455SOL    HW293373   1.300   3.454   4.726 -1.0321 -0.6896 -1.1642
30456SOL     OW93374   8.529   8.681   2.147  0.2091  0.4305 -0.1252
30456SOL    HW193375   8.486   8.726   2.074  0.5188  2.0659  0.6588
30456SOL    HW293376   8.485   8.714   2.225 -0.2577 -1.4413  0.4746
30457SOL     OW93377  10.746   6.958   0.685 -0.0306  0.1715  0.3406
30457SOL    HW193378  10.686   6.961   0.760  0.6594 -1.6260  1.0101
30457SOL    HW293379  10.716   6.883   0.634 -0.6753  1.5426 -1.3996
30458SOL     OW93380   5.574   2.217   8.136  0.2495  0.0581 -0.5199
30458SOL    HW193381   5.580   2.208   8.231 -0.0704  1.9906 -0.2811
30458SOL    HW293382   5.632   2.148   8.102  0.5800 -0.4924  1.0694
30459SOL     OW93383   1.766   4.434   2.165  0.3421  0.2228 -0.5435
30459SOL    HW193384   1.791   4.374   2.236  0.9636  0.7999 -0.2571
30459SOL    HW293385   1.850   4.460   2.126 -0.0277 -0.8057 -2.1131
30460SOL     OW93386   2.029   6.089   5.625  0.6444  0.2757  0.0623
30460SOL    HW193387   1.997   6.177   5.644  0.9658  0.2864  0.5785
30460SOL    HW293388   2.048   6.051   5.711 -0.6352 -0.7455 -0.0798
30461SOL     OW93389   7.994   5.395   6.433  0.3800 -0.1455 -0.3872
30461SOL    HW193390   7.988   5.483   6.396 -2.6329 -0.2052 -0.2917
30461SOL    HW293391   7.907   5.378   6.468  1.4618 -2.3998  1.4723
30462SOL     OW93392   8.066   2.243   8.295  0.0362  0.8626 -0.3584
30462SOL    HW193393   7.974   2.225   8.315  0.1813  1.8652  1.3839
30462SOL    HW293394   8.110   2.158   8.307 -0.2539  0.9390  1.6224
30463SOL     OW93395   8.732   4.054   1.004 -0.3750 -0.1014  0.6529
30463SOL    HW193396   8.795   4.012   1.062 -0.0269 -1.7374 -0.8042
30463SOL    HW293397   8.649   4.048   1.051 -0.4223 -2.8719  0.4212
30464SOL     OW93398   8.092   7.080   7.896 -0.0197  0.0774  0.2126
30464SOL    HW193399   8.050   7.009   7.848  2.2039 -1.1553 -0.0062
30464SOL    HW293400   8.020   7.122   7.944 -1.7410 -0.8496 -1.4168
30465SOL     OW93401   8.903   6.569   7.933  0.2150 -0.1618 -0.0492
30465SOL    HW193402   8.979   6.569   7.992  0.9842  1.9551 -0.9372
30465SOL    HW293403   8.894   6.661   7.906 -1.3048 -0.7489 -1.7085
30466SOL     OW93404   2.268   3.954   6.278  0.1469 -0.1911 -0.4146
30466SOL    HW193405   2.256   3.962   6.372  0.2430  0.7908 -0.4730
30466SOL    HW293406   2.244   4.040   6.243 -0.6870 -0.7814 -1.3698
30467SOL     OW93407   9.545  10.409   4.997  0.1214  0.0680  0.5611
30467SOL    HW193408   9.458  10.392   4.961  0.5468 -0.3115 -0.3443
30467SOL    HW293409   9.536  10.491   5.045 -0.6911  0.1253  0.3273
30468SOL     OW93410   9.392   1.829   5.160  0.0349 -1.0339  0.0555
30468SOL    HW193411   9.349   1.830   5.245  0.7960 -3.0274  0.5369
30468SOL    HW293412   9.476   1.873   5.175 -0.6150  0.3390 -0.1838
30469SOL     OW93413   4.127   4.983   2.331 -0.0124 -0.0577 -0.1117
30469SOL    HW193414   4.042   4.979   2.375  0.5127 -1.3194  0.8394
30469SOL    HW293415   4.105   4.989   2.238 -1.1418 -0.5185  0.1045
30470SOL     OW93416  10.037   7.507   5.303  0.3276  0.3294 -0.1290
30470SOL    HW193417  10.061   7.512   5.210 -0.9375 -0.5937 -0.5296
30470SOL    HW293418   9.942   7.498   5.303  0.2451  0.9377  1.2934
30471SOL     OW93419   6.206   0.554   3.831  0.4761  0.1877  0.0191
30471SOL    HW193420   6.276   0.619   3.838  1.4987 -1.0723  4.1725
30471SOL    HW293421   6.129   0.605   3.804  1.5353  2.8986  1.7029
30472SOL     OW93422   6.268   5.053   7.565  0.3061  0.1292 -0.0232
30472SOL    HW193423   6.315   5.070   7.646  2.6831 -1.3207 -1.0266
30472SOL    HW293424   6.325   5.086   7.496 -1.1464  0.2976 -1.2064
30473SOL     OW93425   7.115   6.122   9.887 -0.2876 -0.1656 -0.0941
30473SOL    HW193426   7.165   6.042   9.904 -0.4863 -0.5513 -1.2172
30473SOL    HW293427   7.163   6.165   9.816 -1.4823 -0.5088 -1.1512
30474SOL     OW93428  10.329   2.781   2.731 -0.5250  0.3148 -0.3045
30474SOL    HW193429  10.243   2.759   2.694 -1.1557 -1.2316  1.8475
30474SOL    HW293430  10.392   2.753   2.664 -1.6565  1.4179 -1.8879
30475SOL     OW93431   4.616   1.245  10.867  0.3506 -0.5771 -0.1403
30475SOL    HW193432   4.582   1.323  10.824  0.5235 -0.8272 -0.7404
30475SOL    HW293433   4.681   1.278  10.930 -0.1499 -0.1892  0.1765
30476SOL     OW93434   1.256   3.621   8.952 -0.0785  0.5784  0.0674
30476SOL    HW193435   1.333   3.573   8.921 -0.2893 -0.6341  1.3241
30476SOL    HW293436   1.251   3.601   9.045 -1.2420  1.6123  0.2512
30477SOL     OW93437   6.930   4.885   3.194 -0.0926  0.5068  0.6210
30477SOL    HW193438   6.898   4.852   3.278 -3.5848  0.9223 -0.3732
30477SOL    HW293439   6.912   4.814   3.133  0.6957  0.9116 -0.0984
30478SOL     OW93440   7.834   4.979  10.046  0.1513  0.0746  0.4256
30478SOL    HW193441   7.895   5.052  10.037  0.1464  0.1222  0.7515
30478SOL    HW293442   7.874   4.923  10.113 -0.9129  0.8860  1.7888
30479SOL     OW93443   9.478   3.365   9.499 -0.8224  0.4743  0.2897
30479SOL    HW193444   9.528   3.415   9.563 -0.6228 -1.5429  1.8040
30479SOL    HW293445   9.502   3.274   9.515  0.8281 -0.0900 -4.0564
30480SOL     OW93446   3.478   0.395   4.344 -0.3256 -0.0138  0.0783
30480SOL    HW193447   3.424   0.330   4.388 -1.9218  1.4323  0.3603
30480SOL    HW293448   3.452   0.390   4.252  0.8008 -0.9289 -0.2102
30481SOL     OW93449   8.445  10.687   7.655 -0.2627  0.0591 -0.0136
30481SOL    HW193450   8.435  10.751   7.726  1.3963 -0.1576  0.4700
30481SOL    HW293451   8.362  10.689   7.609 -0.4483  2.1951  0.3078
30482SOL     OW93452   5.302   5.962   4.313  0.5453 -0.3854  0.5292
30482SOL    HW193453   5.380   6.003   4.350 -0.6310  0.8812  1.7166
30482SOL    HW293454   5.334   5.881   4.273  2.2706 -0.6129  2.2227
30483SOL     OW93455  10.606   4.338   7.482  0.1050  0.1713 -0.2219
30483SOL    HW193456  10.513   4.341   7.457 -0.0991  0.7132  0.5569
30483SOL    HW293457  10.647   4.285   7.414 -1.0469 -1.4424  0.2703
30484SOL     OW93458   4.127   6.112   4.385 -0.1830 -0.0882  0.2581
30484SOL    HW193459   4.128   6.207   4.376 -1.6156 -0.0142  0.7013
30484SOL    HW293460   4.175   6.096   4.467  0.4447  0.2038 -0.0423
30485SOL     OW93461   7.518   2.711   2.484 -0.2819  0.6778  0.1420
30485SOL    HW193462   7.561   2.785   2.527  3.0925  0.4502 -2.3953
30485SOL    HW293463   7.575   2.636   2.502  0.1957  0.1930 -2.8741
30486SOL     OW93464   0.184   5.306   1.009  0.1939 -0.1060  0.2175
30486SOL    HW193465   0.249   5.330   1.075  1.0424 -0.0561 -0.6194
30486SOL    HW293466   0.168   5.212   1.024 -2.0769  0.5313  2.5725
30487SOL     OW93467   4.085   5.749   4.398  0.5523  0.3418 -0.0281
30487SOL    HW193468   4.155   5.807   4.429 -0.8586  1.3923  1.4026
30487SOL    HW293469   4.063   5.696   4.475 -1.3338  1.2349  0.0960
30488SOL     OW93470   6.669   0.133   5.416 -0.9883  0.1400  0.5465
30488SOL    HW193471   6.721   0.141   5.336 -0.3555  0.8492  1.0184
30488SOL    HW293472   6.734   0.124   5.486 -1.5268 -0.1224  1.0257
30489SOL     OW93473   7.702   2.368   5.387 -1.0426 -0.0451 -0.4278
30489SOL    HW193474   7.650   2.373   5.307 -1.4490 -1.6220 -0.3148
30489SOL    HW293475   7.640   2.337   5.454 -0.9059  1.9825  0.7149
30490SOL     OW93476   7.057   3.802   0.274  0.0867  0.3667 -0.4019
30490SOL    HW193477   7.008   3.782   0.194  2.0237  0.5662 -1.7038
30490SOL    HW293478   7.093   3.718   0.302  1.7510  0.6987 -1.4089
30491SOL     OW93479   1.020   2.634   4.689 -0.7447  0.0285  0.4075
30491SOL    HW193480   1.091   2.689   4.724  0.2969 -0.8498 -0.2403
30491SOL    HW293481   1.051   2.544   4.703 -1.2195 -0.3550 -0.9111
30492SOL     OW93482   8.682   4.789   6.390  0.5235  0.3860 -0.2030
30492SOL    HW193483   8.663   4.795   6.296  0.8196 -0.9908 -0.3707
30492SOL    HW293484   8.754   4.726   6.396  1.0459  1.0598  0.8927
30493SOL     OW93485   3.902  11.034   7.658  0.3323 -0.3095 -0.3450
30493SOL    HW193486   3.921  11.023   7.751  1.1813 -0.3149 -0.5025
30493SOL    HW293487   3.941  10.956   7.617  0.7658  0.1311 -0.7926
30494SOL     OW93488   6.141   1.744   1.927  0.1211  0.6670  0.1091
30494SOL    HW193489   6.149   1.676   1.995  0.0849  1.2854  0.7436
30494SOL    HW293490   6.064   1.718   1.877 -0.5183  0.7867  0.9983
30495SOL     OW93491   5.593   7.385   5.579  0.2456 -0.0823 -0.0588
30495SOL    HW193492   5.551   7.350   5.501 -0.0172 -1.1717  0.5417
30495SOL    HW293493   5.679   7.415   5.549  0.4412 -1.1722 -0.6511
30496SOL     OW93494   1.386   9.194   9.986  0.0240  0.2030 -0.4558
30496SOL    HW193495   1.366   9.100   9.985 -2.0454  0.5971 -1.5320
30496SOL    HW293496   1.386   9.218  10.078  1.7671 -1.0313 -0.0695
30497SOL     OW93497   0.242   0.474   8.139  0.2003  0.0728  0.1675
30497SOL    HW193498   0.288   0.390   8.142 -1.9323 -1.2246 -0.9501
30497SOL    HW293499   0.150   0.450   8.126 -0.3699  2.5959 -1.0247
30498SOL     OW93500   3.755   3.740   2.848  0.3076 -0.1960  0.1541
30498SOL    HW193501   3.721   3.697   2.927 -0.5908 -0.4532 -0.3513
30498SOL    HW293502   3.848   3.754   2.866 -0.1899  1.2860  1.9489
30499SOL     OW93503   8.601   1.169   3.101 -0.3589  0.6764 -0.0036
30499SOL    HW193504   8.527   1.131   3.053 -0.2892 -0.4154  0.7074
30499SOL    HW293505   8.569   1.180   3.190  0.8631 -1.6788  0.8299
30500SOL     OW93506   3.119   4.100   7.605 -0.3603 -0.0683  0.0040
30500SOL    HW193507   3.121   4.179   7.658 -1.3272 -0.6894  1.0174
30500SOL    HW293508   3.096   4.030   7.667  0.7554 -1.1937 -0.8071
30501SOL     OW93509   0.136   2.624   8.371 -0.2432 -0.2021  0.1822
30501SOL    HW193510   0.201   2.571   8.324 -1.6551 -0.9769 -0.9619
30501SOL    HW293511   0.152   2.713   8.341 -0.0186 -0.4540 -0.4689
30502SOL     OW93512   7.584   3.337   1.324  0.5721 -0.5444 -0.6043
30502SOL    HW193513   7.543   3.286   1.394  1.7648  0.0654  0.6010
30502SOL    HW293514   7.575   3.428   1.353  1.1344 -0.2862 -1.2218
30503SOL     OW93515   3.629   4.392   5.640 -0.3141  0.3853 -0.3954
30503SOL    HW193516   3.606   4.485   5.648 -1.0657  0.2080 -0.3545
30503SOL    HW293517   3.587   4.351   5.716  1.9290  0.3214  0.9042
30504SOL     OW93518   2.200   6.059   1.864 -0.2891  0.6192  0.1209
30504SOL    HW193519   2.211   6.139   1.915  0.0815 -0.0258  1.0735
30504SOL    HW293520   2.252   5.994   1.910  2.0046  0.5329 -2.3558
30505SOL     OW93521   3.956   7.081   9.304 -0.0702  0.6764  0.0206
30505SOL    HW193522   3.975   7.113   9.216  1.9553  1.5099  0.7120
30505SOL    HW293523   3.991   7.148   9.363 -0.2983 -0.4310  1.4814
30506SOL     OW93524  10.471  10.747   6.631 -0.0036 -0.1379  0.0167
30506SOL    HW193525  10.456  10.839   6.652  1.1687  0.0700 -0.0043
30506SOL    HW293526  10.412  10.730   6.557 -1.0210  0.2818  0.7033
30507SOL     OW93527   8.570   8.153   0.962  0.2376 -0.6072 -0.2460
30507SOL    HW193528   8.623   8.199   0.897  0.5720 -0.4587  0.1236
30507SOL    HW293529   8.482   8.187   0.950  1.1044  3.9583  3.1399
30508SOL     OW93530   4.235  10.845   2.512  0.3059 -0.4640 -0.2557
30508SOL    HW193531   4.172  10.893   2.566  0.1107  0.9245 -1.6576
30508SOL    HW293532   4.181  10.791   2.454  0.4332  0.0739 -0.8751
30509SOL     OW93533   1.442   3.305   7.516  0.0486 -0.1390 -0.1497
30509SOL    HW193534   1.430   3.217   7.551 -1.4181  0.2400  0.3304
30509SOL    HW293535   1.354   3.334   7.492  0.3799  1.5345  0.5281
30510SOL     OW93536   2.448   8.064   9.472 -0.5327 -0.2753  0.6010
30510SOL    HW193537   2.505   8.112   9.531  1.1205 -0.0781 -1.0697
30510SOL    HW293538   2.455   8.110   9.388 -1.2793 -1.6428 -0.2624
30511SOL     OW93539   5.179   4.685   3.274  0.6924  0.1486 -0.3312
30511SOL    HW193540   5.162   4.770   3.314 -1.7031 -0.5596  0.3428
30511SOL    HW293541   5.202   4.629   3.348  0.1345 -0.2509 -0.4492
30512SOL     OW93542   4.937   3.890   3.856 -0.3329 -0.8045  0.4208
30512SOL    HW193543   4.844   3.872   3.872 -0.1327 -0.7887  1.7243
30512SOL    HW293544   4.977   3.803   3.853 -0.6119 -0.9181 -1.9149
30513SOL     OW93545   3.999  11.101   3.309  0.2579  0.1737  0.4535
30513SOL    HW193546   4.045  11.035   3.257  1.7162  1.5228 -0.0492
30513SOL    HW293547   3.997  11.179   3.253  2.6368  1.9545  2.6067
30514SOL     OW93548   5.042  11.042   4.204  0.3666  0.6039  0.0976
30514SOL    HW193549   5.135  11.060   4.218  0.4103  1.1529 -0.7972
30514SOL    HW293550   5.025  10.964   4.256  1.2729  0.6324  0.4638
30515SOL     OW93551   8.028  10.282   4.048  0.3631 -0.0040  0.2056
30515SOL    HW193552   8.051  10.297   4.140 -0.9371  2.6769  0.1873
30515SOL    HW293553   8.013  10.188   4.042  2.6035 -0.5890  2.1880
30516SOL     OW93554   9.574   3.657   5.338  0.1594 -0.0947 -0.3597
30516SOL    HW193555   9.637   3.659   5.266  0.7810 -0.0042  0.1788
30516SOL    HW293556   9.489   3.645   5.295  0.3295  1.5366 -1.2306
30517SOL     OW93557   9.670   1.276   8.997  0.4480 -0.0810 -0.3521
30517SOL    HW193558   9.629   1.240   9.075  0.9356  0.7183  0.2868
30517SOL    HW293559   9.723   1.204   8.963  0.9624 -0.1726  0.5895
30518SOL     OW93560   5.390   0.606   1.269 -0.0381  0.1447  0.1444
30518SOL    HW193561   5.315   0.548   1.280 -0.7864  1.2622  1.1691
30518SOL    HW293562   5.353   0.694   1.272  1.1287  0.7062 -0.9196
30519SOL     OW93563   3.701   4.192   4.972  0.6202  0.2366 -0.4860
30519SOL    HW193564   3.776   4.245   4.999 -0.9277  2.0713  0.4366
30519SOL    HW293565   3.662   4.239   4.899  0.4107 -0.7543 -1.0371
30520SOL     OW93566   0.623   7.764   6.077  0.5119  0.1516 -0.0320
30520SOL    HW193567   0.556   7.715   6.124 -0.0129  0.7552 -0.1329
30520SOL    HW293568   0.589   7.853   6.073  0.0151 -0.0744 -2.4606
30521SOL     OW93569   5.893   4.106   8.510 -0.9211  0.9482  0.5286
30521SOL    HW193570   5.914   4.199   8.506 -1.1088  1.0506  1.6345
30521SOL    HW293571   5.904   4.083   8.602 -0.2612 -0.2783  0.1554
30522SOL     OW93572   5.382   1.766   8.806 -0.2757  0.2768 -0.4471
30522SOL    HW193573   5.419   1.689   8.763 -0.3057  0.5219 -0.9178
30522SOL    HW293574   5.457   1.809   8.847 -0.2209  0.1285 -0.3933
30523SOL     OW93575   9.499   6.653   7.258  0.1367  0.3395  0.6600
30523SOL    HW193576   9.432   6.620   7.198  2.7310 -2.0144 -1.2454
30523SOL    HW293577   9.481   6.747   7.266 -2.0698  0.1925 -1.4534
30524SOL     OW93578  10.084   1.692   0.455 -0.4964  0.0708  0.1914
30524SOL    HW193579  10.015   1.755   0.435  0.1037  0.5720 -0.3274
30524SOL    HW293580  10.163   1.727   0.413  0.1561 -0.3315  1.0309
30525SOL     OW93581   1.224   0.921   2.321 -0.3421 -0.6606 -0.0556
30525SOL    HW193582   1.170   0.882   2.253  1.1525 -1.3315 -0.9149
30525SOL    HW293583   1.313   0.920   2.285 -0.1907  4.0904 -0.4341
30526SOL     OW93584   2.811   1.858   6.171 -0.1781 -0.4439 -0.0241
30526SOL    HW193585   2.882   1.891   6.226  0.5016 -0.9076 -0.6027
30526SOL    HW293586   2.775   1.936   6.129  2.1190 -0.4428 -2.2221
30527SOL     OW93587   6.885   7.433   5.267 -0.0827 -0.3191 -0.0698
30527SOL    HW193588   6.964   7.382   5.248  0.4252  0.6841 -0.7039
30527SOL    HW293589   6.825   7.409   5.196  0.1053 -0.1424 -0.2905
30528SOL     OW93590   8.135   7.539   0.314  0.2545 -0.0797 -0.0232
30528SOL    HW193591   8.183   7.495   0.384  1.0476  0.2880 -0.3211
30528SOL    HW293592   8.056   7.487   0.303  2.2128 -2.9389 -2.0294
30529SOL     OW93593   2.767   0.182   5.188  0.3900  0.1158  0.1737
30529SOL    HW193594   2.770   0.196   5.282 -0.4376  1.2514  0.0451
30529SOL    HW293595   2.675   0.167   5.169  0.2682  1.7172 -0.6850
30530SOL     OW93596   8.063   8.060   0.413  0.5818  0.2012  0.3798
30530SOL    HW193597   8.080   7.972   0.379  0.3591  0.6281 -0.8874
30530SOL    HW293598   8.124   8.116   0.365  0.2431  0.8287  0.6743
30531SOL     OW93599   0.038  11.017   7.271 -0.2024 -0.6872  0.2870
30531SOL    HW193600   0.046  11.021   7.366  2.2297 -0.3903  0.1131
30531SOL    HW293601   0.078  10.934   7.246  1.0645  0.1474 -0.5992
30532SOL     OW93602   7.637  10.406   2.083 -0.2530 -0.7454 -0.0107
30532SOL    HW193603   7.684  10.391   2.001 -2.0024 -0.1597 -1.1724
30532SOL    HW293604   7.705  10.427   2.147  1.0847 -0.3516 -1.5169
30533SOL     OW93605   1.004   0.127   0.559 -0.3848  0.4641 -0.3520
30533SOL    HW193606   0.979   0.036   0.572 -1.5485  0.8706  0.4002
30533SOL    HW293607   0.998   0.140   0.465 -1.0739 -0.0030 -0.3785
30534SOL     OW93608   6.667   8.391   1.699 -0.1544  0.1284 -0.3735
30534SOL    HW193609   6.693   8.477   1.666 -0.1130  0.3748  0.2820
30534SOL    HW293610   6.668   8.335   1.622  0.6952  0.5064 -0.6533
30535SOL     OW93611   7.847   4.498   1.195  0.3554  0.3397 -0.2986
30535SOL    HW193612   7.831   4.408   1.167 -0.2761  0.4018 -0.1457
30535SOL    HW293613   7.789   4.551   1.141  0.0823  0.5774  0.2219
30536SOL     OW93614   6.562   3.867  10.450 -0.3262 -0.0686  0.8302
30536SOL    HW193615   6.649   3.851  10.486 -1.1770 -2.3833  2.0919
30536SOL    HW293616   6.517   3.919  10.516  0.1373  1.3320  0.0717
30537SOL     OW93617   0.868  10.744   4.873 -0.0857 -0.2082 -0.2072
30537SOL    HW193618   0.885  10.804   4.945  0.8506 -2.0854  1.2305
30537SOL    HW293619   0.902  10.788   4.796 -0.8263  1.7312  0.5156
30538SOL     OW93620   1.832   0.297   8.590 -0.7955  0.1921  0.0285
30538SOL    HW193621   1.904   0.353   8.559  0.1363 -1.6715 -1.3432
30538SOL    HW293622   1.867   0.254   8.668 -0.2176 -1.0611 -0.9004
30539SOL     OW93623   8.676   3.764   9.118  0.2002 -0.1600 -0.1175
30539SOL    HW193624   8.697   3.675   9.091 -1.2167 -0.6005  0.1810
30539SOL    HW293625   8.732   3.780   9.193  1.2842 -0.3673 -0.8547
30540SOL     OW93626   1.053   4.560   9.844  0.3773  0.3339  0.0905
30540SOL    HW193627   1.141   4.537   9.812  0.2787 -0.5905  0.4543
30540SOL    HW293628   0.996   4.542   9.770 -0.1070 -3.6227  1.2092
30541SOL     OW93629   7.866   9.485   2.237  0.1092  0.4845  0.0466
30541SOL    HW193630   7.890   9.467   2.328 -1.6328  0.1766  0.4768
30541SOL    HW293631   7.933   9.441   2.185  1.9311  1.8384  1.1692
30542SOL     OW93632   1.289   3.032   1.669 -0.1713 -0.1177 -0.5928
30542SOL    HW193633   1.210   2.986   1.699 -0.5604  0.5457 -0.5769
30542SOL    HW293634   1.337   2.967   1.619 -0.3951 -0.7310 -0.0298
30543SOL     OW93635   9.014  10.500   5.151 -0.1187 -0.4347  0.3958
30543SOL    HW193636   8.942  10.479   5.092  0.7921 -0.3799 -0.7583
30543SOL    HW293637   8.975  10.556   5.218 -1.3661 -1.2508  0.3867
30544SOL     OW93638   1.750   2.346   5.130 -0.2574  0.1938 -0.3061
30544SOL    HW193639   1.742   2.415   5.064 -0.5395 -0.7531 -1.2863
30544SOL    HW293640   1.765   2.266   5.080  0.0966 -0.4633  0.8144
30545SOL     OW93641   3.879   0.646   9.207  0.2526  0.1522 -0.1126
30545SOL    HW193642   3.821   0.628   9.133 -0.9926 -0.8929  1.0774
30545SOL    HW293643   3.829   0.705   9.264  0.6293 -0.1929  0.5900
30546SOL     OW93644   5.900   2.511   0.821  0.0767  0.3741  0.0800
30546SOL    HW193645   5.846   2.437   0.849  0.8273 -0.1280  0.2438
30546SOL    HW293646   5.922   2.556   0.903  0.4653  0.1728  0.0920
30547SOL     OW93647   0.786   9.648   1.725 -0.1324 -0.3759  0.0712
30547SOL    HW193648   0.739   9.616   1.648 -0.8712  1.0814 -0.1099
30547SOL    HW293649   0.805   9.569   1.776 -1.2388 -1.1736 -0.7065
30548SOL     OW93650  10.702   0.368   2.016 -0.2803  0.0713  0.4115
30548SOL    HW193651  10.666   0.454   2.036 -0.2261 -0.3053  2.2292
30548SOL    HW293652  10.767   0.384   1.947 -1.7375  1.1657 -0.7582
30549SOL     OW93653   7.307  11.052   1.213 -0.2520  0.3231  0.4765
30549SOL    HW193654   7.274  11.124   1.267  0.0608 -0.3083  1.5297
30549SOL    HW293655   7.370  11.094   1.153 -1.4933  1.2157 -0.2391
30550SOL     OW93656   8.148   7.742   1.859  0.1629 -0.2320  0.3403
30550SOL    HW193657   8.091   7.685   1.807 -0.3510  0.0578  0.5792
30550SOL    HW293658   8.158   7.695   1.942 -1.8261  0.8786  1.2713
30551SOL     OW93659   3.967   0.349   2.918 -0.8065  0.0695  0.2240
30551SOL    HW193660   3.901   0.391   2.973 -0.4008 -0.2112  0.9372
30551SOL    HW293661   3.964   0.397   2.835 -1.0679  0.8361  0.6696
30552SOL     OW93662  10.296   4.478   6.243  0.2409 -0.4189 -0.2780
30552SOL    HW193663  10.362   4.548   6.248 -0.1382 -0.0800  0.0611
30552SOL    HW293664  10.293   4.442   6.331 -0.4539 -0.0280 -0.1299
30553SOL     OW93665   8.124   6.885   8.730 -0.2306 -0.0858  0.0886
30553SOL    HW193666   8.181   6.960   8.743 -1.8244  1.4131 -1.2668
30553SOL    HW293667   8.176   6.823   8.679  1.2450 -0.1608  1.5901
30554SOL     OW93668   3.063   2.651   8.443 -0.1185 -0.0793 -0.5913
30554SOL    HW193669   3.120   2.622   8.372  1.6628 -0.5241  0.9389
30554SOL    HW293670   3.087   2.743   8.457  0.6981 -0.4266  0.4374
30555SOL     OW93671   9.615   4.134   4.324  0.4955  0.3278  0.4657
30555SOL    HW193672   9.655   4.050   4.300 -1.1952 -0.4909  0.3291
30555SOL    HW293673   9.677   4.174   4.385  2.2437 -0.1165 -0.9669
30556SOL     OW93674  10.594   2.593   4.613  0.1877  0.3607  0.3142
30556SOL    HW193675  10.521   2.625   4.560  0.8403 -0.3574 -1.0598
30556SOL    HW293676  10.578   2.499   4.621  2.0071 -0.1795 -1.7641
30557SOL     OW93677   4.652   5.884   2.240  0.0838 -0.1062  0.2517
30557SOL    HW193678   4.611   5.968   2.258 -0.8341 -0.4832 -0.0157
30557SOL    HW293679   4.591   5.819   2.275  0.2021 -0.6981 -0.6107
30558SOL     OW93680   4.527   2.416   3.648 -0.0130 -0.1155  0.3924
30558SOL    HW193681   4.511   2.425   3.554 -1.9937  0.0630  0.6925
30558SOL    HW293682   4.563   2.328   3.659 -1.3190 -0.7727 -0.3851
30559SOL     OW93683   8.198   0.034   6.333  0.0681  0.1718 -0.4016
30559SOL    HW193684   8.265  -0.027   6.365  1.4938  0.9211 -1.7939
30559SOL    HW293685   8.239   0.076   6.257 -2.4102 -0.1437 -2.0260
30560SOL     OW93686   9.837  10.711   2.799  0.8379 -0.1948 -1.1943
30560SOL    HW193687   9.914  10.733   2.851  0.4854 -0.6693 -0.4632
30560SOL    HW293688   9.796  10.639   2.846 -0.5487  0.6320 -1.0874
30561SOL     OW93689   5.392   3.892   9.670  0.4921 -0.2587 -0.1956
30561SOL    HW193690   5.442   3.836   9.611  0.5374  0.0720 -0.4762
30561SOL    HW293691   5.446   3.898   9.749  1.6053  1.2745 -1.0343
30562SOL     OW93692   1.680   4.711  10.231  0.3930  0.0140  0.6503
30562SOL    HW193693   1.667   4.798  10.195 -1.4874 -1.1615 -1.8013
30562SOL    HW293694   1.773   4.694  10.221  0.5737  1.2865  0.0359
30563SOL     OW93695   3.665   3.241   6.257  0.2847  0.2754 -0.3470
30563SOL    HW193696   3.639   3.278   6.173  0.7754  1.6419  0.0739
30563SOL    HW293697   3.642   3.308   6.321 -0.2312 -0.8061  0.6453
30564SOL     OW93698   0.148   0.335   3.933  0.0577  0.0805 -0.3459
30564SOL    HW193699   0.078   0.284   3.977  0.0020 -0.8504 -1.4674
30564SOL    HW293700   0.165   0.287   3.852  0.3568  1.6158 -1.2227
30565SOL     OW93701   6.077   2.896   8.426 -0.0078 -0.0678  0.3085
30565SOL    HW193702   6.018   2.921   8.355 -1.4492  0.8987  1.8013
30565SOL    HW293703   6.144   2.964   8.426 -0.2863  0.2113  0.1997
30566SOL     OW93704  10.838   6.361  10.556 -0.1411 -0.2899 -0.0951
30566SOL    HW193705  10.900   6.395  10.621 -1.1706  1.2793  0.1144
30566SOL    HW293706  10.841   6.424  10.484 -2.5259  0.6806  0.5550
30567SOL     OW93707   2.540   1.144   7.271 -0.1882  0.2332  0.5518
30567SOL    HW193708   2.598   1.119   7.199  0.6387  0.9556  0.9515
30567SOL    HW293709   2.583   1.219   7.312  0.1794 -1.0673  2.7530
30568SOL     OW93710   8.166   9.806   7.931 -0.4259  0.2051  0.0713
30568SOL    HW193711   8.141   9.714   7.925 -1.1447  0.4249 -0.3692
30568SOL    HW293712   8.246   9.805   7.984 -0.3326 -0.6830 -0.0656
30569SOL     OW93713   2.494   4.197   0.932  0.1991  0.0887 -0.3100
30569SOL    HW193714   2.532   4.116   0.898 -0.6425  0.3994 -2.0590
30569SOL    HW293715   2.552   4.266   0.901 -0.8180  0.4147 -1.5526
30570SOL     OW93716   6.924   3.258   8.196  0.1725 -0.0971 -0.4150
30570SOL    HW193717   6.952   3.266   8.105 -1.5869  0.3390 -0.9569
30570SOL    HW293718   6.917   3.348   8.227  1.5275 -0.2533  0.4370
30571SOL     OW93719  10.908   0.774   4.935  0.3559  0.2324 -0.0256
30571SOL    HW193720  10.887   0.843   4.998  0.8564  0.8128 -0.4837
30571SOL    HW293721  10.910   0.819   4.851  1.4371 -0.1969 -0.2399
30572SOL     OW93722   9.882   1.179   5.128  0.1448 -0.1017  0.0102
30572SOL    HW193723   9.825   1.118   5.080 -0.3828 -0.4806  1.0831
30572SOL    HW293724   9.829   1.208   5.203  1.2636 -0.2811  0.9038
30573SOL     OW93725   8.925   8.184   3.951 -0.3804 -0.3214  0.0742
30573SOL    HW193726   8.893   8.269   3.921 -2.2679 -0.9448  0.1690
30573SOL    HW293727   8.943   8.197   4.044 -0.2581  0.0815 -0.0044
30574SOL     OW93728  10.416   5.044   8.023 -0.0442  0.4929 -0.3591
30574SOL    HW193729  10.414   5.124   7.970  1.1394  1.5003  1.0348
30574SOL    HW293730  10.428   4.974   7.959 -1.0442  1.3966 -1.6189
30575SOL     OW93731   1.482   4.157   7.416 -0.2454  0.0999  0.0673
30575SOL    HW193732   1.440   4.075   7.444 -1.8573  1.6269  2.4176
30575SOL    HW293733   1.574   4.133   7.404 -0.0536 -1.5282  3.5125
30576SOL     OW93734   3.280   2.395   0.061  0.4982  0.0391  0.1416
30576SOL    HW193735   3.371   2.368   0.054  0.7467  1.0022 -0.5304
30576SOL    HW293736   3.248   2.395  -0.030 -0.3085 -0.7318  0.4093
30577SOL     OW93737   1.211   3.334   1.796  0.3016 -0.0531  0.0779
30577SOL    HW193738   1.131   3.379   1.771  2.1451  3.0762 -0.7608
30577SOL    HW293739   1.213   3.340   1.892  0.6351  2.1123 -0.0144
30578SOL     OW93740   4.012  10.372   5.792  0.1215  0.2765  0.3521
30578SOL    HW193741   3.926  10.334   5.776  0.5206 -0.2941 -0.5721
30578SOL    HW293742   3.997  10.441   5.856 -0.9769  0.0048  0.4029
30579SOL     OW93743   9.601   8.307   7.533  0.3047  0.2359  0.0061
30579SOL    HW193744   9.527   8.328   7.476 -0.6577  1.2426  1.5544
30579SOL    HW293745   9.635   8.224   7.500 -1.4074 -0.1493 -0.8476
30580SOL     OW93746   5.771   0.066   0.698 -0.2126  0.4182  0.2427
30580SOL    HW193747   5.740   0.139   0.751  0.4544  0.8946 -0.0071
30580SOL    HW293748   5.786   0.103   0.611 -1.0125 -0.2896 -0.2104
30581SOL     OW93749   4.542   5.231   4.589 -0.3595  1.1766 -0.6056
30581SOL    HW193750   4.484   5.291   4.540 -0.6201  1.5125  0.0961
30581SOL    HW293751   4.483   5.162   4.620 -0.4360  1.6356  0.2971
30582SOL     OW93752   2.584   3.335   1.700 -0.1711  0.0800  0.5207
30582SOL    HW193753   2.546   3.346   1.787  0.3369 -0.4937  0.8246
30582SOL    HW293754   2.666   3.385   1.704  0.7276 -1.3680  0.9709
30583SOL     OW93755   6.379   0.295   3.175  0.2858 -0.1739 -0.3116
30583SOL    HW193756   6.324   0.355   3.226  1.0217 -0.4266  0.7885
30583SOL    HW293757   6.468   0.330   3.184  0.3017  0.5341 -2.5082
30584SOL     OW93758   5.978   0.890   9.876 -0.5116 -0.0958 -0.2531
30584SOL    HW193759   6.047   0.840   9.919 -0.6540  1.5060  2.0494
30584SOL    HW293760   6.018   0.975   9.858 -1.3727  0.2812 -0.4586
30585SOL     OW93761   5.186   9.241   4.960 -0.0495 -0.3671 -0.0329
30585SOL    HW193762   5.101   9.280   4.985 -0.3747 -0.2446 -1.2775
30585SOL    HW293763   5.204   9.177   5.029 -1.2991 -0.6022  0.0962
30586SOL     OW93764   2.862   4.291   2.706 -0.5345 -0.4120 -0.0499
30586SOL    HW193765   2.849   4.284   2.801  1.4782  0.2381  0.3247
30586SOL    HW293766   2.807   4.222   2.669 -1.2510 -0.7750  1.5964
30587SOL     OW93767   5.769   4.519   4.266  0.0794  0.1088  0.1384
30587SOL    HW193768   5.725   4.599   4.295 -0.8842 -0.2449 -0.3045
30587SOL    HW293769   5.700   4.469   4.222  0.8485 -0.6291 -0.2423
30588SOL     OW93770   6.743   1.139  10.692 -0.2383 -0.5012 -0.5407
30588SOL    HW193771   6.773   1.228  10.713 -0.9583 -0.5841  0.9748
30588SOL    HW293772   6.813   1.083  10.726 -1.0062 -0.5964  0.9856
30589SOL     OW93773   9.361   9.808  10.167  0.0172 -0.0983 -0.1644
30589SOL    HW193774   9.451   9.840  10.155  0.0778 -0.8046 -1.8922
30589SOL    HW293775   9.363   9.758  10.248  1.0275  0.4495  0.1565
30590SOL     OW93776   5.545   0.871   1.730  0.2511 -0.0859  0.0956
30590SOL    HW193777   5.614   0.805   1.739 -0.3478 -0.6277  0.8820
30590SOL    HW293778   5.497   0.867   1.813 -1.9999 -1.2012 -1.1482
30591SOL     OW93779   2.303   8.772   2.741  0.0497 -0.7308 -0.0958
30591SOL    HW193780   2.275   8.690   2.782 -0.5731 -1.0553 -1.1319
30591SOL    HW293781   2.381   8.748   2.691 -0.9799 -1.0602 -1.6140
30592SOL     OW93782   1.334   1.451   3.965  0.2316 -0.1330  0.3838
30592SOL    HW193783   1.424   1.421   3.969  0.6220  0.9301 -0.1294
30592SOL    HW293784   1.308   1.439   3.874 -0.1073 -0.3086  0.4989
30593SOL     OW93785   7.808   2.545   1.006  0.3824  0.0102  0.0478
30593SOL    HW193786   7.815   2.519   1.098  0.0219 -1.8204 -0.3902
30593SOL    HW293787   7.894   2.524   0.970  0.0859 -0.6255 -0.3151
30594SOL     OW93788   5.128   1.785   2.115 -0.0582  0.1326  0.2863
30594SOL    HW193789   5.180   1.844   2.169 -0.4068 -0.3769  1.2157
30594SOL    HW293790   5.066   1.745   2.177 -0.2352 -0.7317 -0.4276
30595SOL     OW93791   0.770   9.323   7.657 -0.2150 -0.0346  0.2583
30595SOL    HW193792   0.821   9.242   7.651 -0.3723 -0.2110  1.2199
30595SOL    HW293793   0.682   9.298   7.630 -0.5031 -0.4284  1.4867
30596SOL     OW93794   6.061   1.613   1.102 -0.6531 -0.0771  0.3238
30596SOL    HW193795   5.973   1.580   1.117 -0.4432 -0.3941  0.8644
30596SOL    HW293796   6.072   1.684   1.164 -0.2839 -0.4843  0.7309
30597SOL     OW93797   8.197   3.188   2.628 -0.2083  0.1155  0.5974
30597SOL    HW193798   8.238   3.142   2.701 -0.8042 -0.8139  0.3665
30597SOL    HW293799   8.180   3.120   2.563  0.3206  0.9286 -0.4237
30598SOL     OW93800   1.779   4.961   1.210  0.1697  0.6294 -0.0371
30598SOL    HW193801   1.727   5.036   1.182  0.5831  0.9808  0.1206
30598SOL    HW293802   1.749   4.943   1.299 -1.7989 -1.0684 -0.9808
30599SOL     OW93803   9.502   0.705   0.200  0.8280  0.3883  0.2098
30599SOL    HW193804   9.537   0.741   0.118 -1.1306  0.7713 -0.5136
30599SOL    HW293805   9.423   0.658   0.174  1.1863 -1.1175  1.6754
30600SOL     OW93806   9.989   2.667   9.134  0.4741  0.1375 -0.4760
30600SOL    HW193807  10.005   2.684   9.227 -0.1454  1.5380 -0.5919
30600SOL    HW293808   9.898   2.695   9.120 -0.1964 -2.1506 -1.0393
30601SOL     OW93809   9.054   3.367   0.357  0.1499 -0.3260  0.3379
30601SOL    HW193810   8.989   3.310   0.398 -0.1055  0.3618  0.8950
30601SOL    HW293811   9.023   3.378   0.267 -0.2041 -0.4557  0.4427
30602SOL     OW93812   4.525   6.509   9.681  0.4811 -0.0914 -0.4673
30602SOL    HW193813   4.516   6.553   9.765 -0.3955  0.9332 -1.0628
30602SOL    HW293814   4.612   6.535   9.650  0.7421 -0.3430  0.0485
30603SOL     OW93815   7.254   4.234   2.354 -0.1247  0.6065  0.1519
30603SOL    HW193816   7.253   4.320   2.396 -0.4310  0.2018  0.9843
30603SOL    HW293817   7.336   4.195   2.383 -0.3622  0.3037  0.4141
30604SOL     OW93818   3.629   1.442   4.148 -0.0889  0.0530 -0.0241
30604SOL    HW193819   3.601   1.449   4.057  1.4632  0.5839 -0.4845
30604SOL    HW293820   3.550   1.461   4.199 -1.2967 -1.5079 -1.2204
30605SOL     OW93821   2.288   4.722   5.247  0.1265 -0.2748 -0.5294
30605SOL    HW193822   2.233   4.800   5.249 -0.8943 -0.9596  1.2653
30605SOL    HW293823   2.240   4.661   5.190 -0.3065 -0.3915 -0.0527
30606SOL     OW93824   0.420   2.384   3.247  0.7227 -0.0069 -0.0046
30606SOL    HW193825   0.471   2.452   3.291  0.8518 -0.5327  0.6730
30606SOL    HW293826   0.330   2.398   3.277  0.6994  0.0402 -0.0943
30607SOL     OW93827   0.747   8.824   3.266 -0.2246 -0.3049 -0.4046
30607SOL    HW193828   0.664   8.849   3.227 -0.4717  0.0783  0.3417
30607SOL    HW293829   0.801   8.795   3.193 -0.5160  0.8121 -1.0814
30608SOL     OW93830   7.292  10.833   3.575 -0.1898  0.0381  0.2737
30608SOL    HW193831   7.303  10.792   3.660  0.4855 -1.0611 -0.3329
30608SOL    HW293832   7.379  10.834   3.536 -0.7050 -0.7193 -0.9610
30609SOL     OW93833   6.680   1.040  10.185 -0.5002  0.3924 -0.2272
30609SOL    HW193834   6.733   0.963  10.206 -1.7516 -1.2403 -2.5900
30609SOL    HW293835   6.722   1.078  10.108 -1.1655  0.7355 -0.4266
30610SOL     OW93836   6.698   0.758   5.509  0.0779  0.0131  0.2115
30610SOL    HW193837   6.763   0.749   5.578 -1.3744  0.7278  1.7457
30610SOL    HW293838   6.662   0.669   5.498 -0.3725  0.0697  1.1182
30611SOL     OW93839   9.152   9.152   9.485 -0.2990  0.2815  0.6505
30611SOL    HW193840   9.071   9.146   9.535 -0.4974  0.6985  0.3865
30611SOL    HW293841   9.125   9.138   9.394  0.4859 -4.0098  0.8458
30612SOL     OW93842   1.489   2.899   7.150  0.0986  0.2248 -0.5628
30612SOL    HW193843   1.499   2.805   7.168 -0.3423  0.0191 -1.3686
30612SOL    HW293844   1.556   2.918   7.084 -1.1756  0.0011 -1.9803
30613SOL     OW93845  10.454   0.377   7.966  0.0930  0.2191 -0.2531
30613SOL    HW193846  10.519   0.307   7.967  2.2705  2.0378 -1.8918
30613SOL    HW293847  10.409   0.368   7.882  1.6439  1.6876 -1.3372
30614SOL     OW93848   0.154   4.262  10.850  0.0411 -0.2190  0.4081
30614SOL    HW193849   0.093   4.264  10.776 -0.5192  2.0312  0.8541
30614SOL    HW293850   0.101   4.231  10.923  0.2285 -1.0547  0.2084
30615SOL     OW93851   5.248   6.912   0.977  0.0414  0.1151 -0.3368
30615SOL    HW193852   5.205   6.951   1.053  0.0859  2.9816 -1.6543
30615SOL    HW293853   5.332   6.958   0.970  1.6806 -2.6403 -0.1051
30616SOL     OW93854   1.082   2.624   7.331 -0.1879 -0.1048  0.2484
30616SOL    HW193855   1.067   2.667   7.247 -2.4684  2.3687  1.7438
30616SOL    HW293856   1.167   2.656   7.360 -0.6775  1.4030  0.1268
30617SOL     OW93857   2.636   2.971   8.667  0.0678 -0.4759  0.2379
30617SOL    HW193858   2.608   2.941   8.754  0.1528 -0.0437  0.4206
30617SOL    HW293859   2.600   2.907   8.606 -1.3869  0.0920  0.4601
30618SOL     OW93860   8.973   3.368  10.305  0.3451  0.1414 -0.6376
30618SOL    HW193861   8.878   3.377  10.320  0.4936  0.7283 -0.0101
30618SOL    HW293862   8.983   3.280  10.269 -0.2085 -0.6959  1.1741
30619SOL     OW93863   5.552   5.560   1.633  0.0548 -0.0217 -0.0302
30619SOL    HW193864   5.483   5.612   1.675 -0.1502  0.3732 -0.8329
30619SOL    HW293865   5.570   5.490   1.695 -0.4340  0.3898  0.5915
30620SOL     OW93866   3.805  10.645   5.576 -0.2646 -0.7012  0.2460
30620SOL    HW193867   3.713  10.617   5.578 -0.3340 -0.4361  1.0863
30620SOL    HW293868   3.849  10.579   5.523 -0.9569 -0.7761 -0.2543
30621SOL     OW93869   7.926   5.962  10.711 -0.2332  0.0287  0.2761
30621SOL    HW193870   7.887   5.925  10.632 -0.5978  0.3260  0.3168
30621SOL    HW293871   7.928   5.889  10.773 -0.6817  0.0007  0.2567
30622SOL     OW93872   7.309   3.805   6.664  0.6542 -0.2504  0.2333
30622SOL    HW193873   7.314   3.715   6.631  0.9233  0.4885 -1.8906
30622SOL    HW293874   7.386   3.849   6.626 -1.0193  1.5918 -1.2633
30623SOL     OW93875  10.291   2.836   0.446  0.0447  0.4283 -0.7452
30623SOL    HW193876  10.361   2.837   0.511 -2.1378 -1.2685  1.8466
30623SOL    HW293877  10.268   2.744   0.438 -1.8967  0.9429 -1.4804
30624SOL     OW93878   4.147   2.424   5.357 -0.7098  0.4280  0.1883
30624SOL    HW193879   4.155   2.430   5.452  1.1515  0.0073  0.0943
30624SOL    HW293880   4.134   2.330   5.340  1.4302  0.1329 -0.0715
30625SOL     OW93881   9.311   4.131   7.771 -0.3260 -0.3948  0.0533
30625SOL    HW193882   9.236   4.169   7.725 -1.0760  1.2930  2.4554
30625SOL    HW293883   9.288   4.039   7.782 -2.6401  0.2957  1.6831
30626SOL     OW93884   4.440  10.622   5.554  0.4146  0.5554  0.1866
30626SOL    HW193885   4.528  10.588   5.572 -0.3136 -1.8799 -0.4119
30626SOL    HW293886   4.384  10.544   5.557 -1.6755  1.9947  0.2115
30627SOL     OW93887   9.903   3.538   4.802 -0.5200 -0.3135 -0.3770
30627SOL    HW193888   9.940   3.495   4.726  1.7532  1.4947 -0.4144
30627SOL    HW293889   9.904   3.472   4.871  0.7981 -0.9678 -0.9923
30628SOL     OW93890   8.134  10.456   2.613 -0.3901 -0.6332 -0.3468
30628SOL    HW193891   8.118  10.452   2.519  0.1616  1.8259 -0.6200
30628SOL    HW293892   8.201  10.524   2.622  0.2347 -1.4662  1.7683
30629SOL     OW93893   1.745  10.765   5.643  0.4335 -0.4670 -0.0753
30629SOL    HW193894   1.734  10.859   5.632  0.8687 -0.1708  1.6832
30629SOL    HW293895   1.811  10.757   5.712  0.9228 -2.0698 -0.6900
30630SOL     OW93896   5.384   1.165   4.711 -0.0496  0.1136  0.3254
30630SOL    HW193897   5.346   1.203   4.789 -1.1574 -1.8130  0.7859
30630SOL    HW293898   5.391   1.071   4.730 -0.6104 -0.4703 -1.9535
30631SOL     OW93899   4.495  10.168   7.756  0.3107 -0.4492 -0.8317
30631SOL    HW193900   4.539  10.101   7.703 -1.6350 -0.9626 -1.8931
30631SOL    HW293901   4.407  10.134   7.770  0.2299  0.4856  1.3297
30632SOL     OW93902   3.793   2.107   3.612  0.2747 -0.0975  0.1707
30632SOL    HW193903   3.839   2.024   3.624 -0.7069 -0.8926 -1.2777
30632SOL    HW293904   3.831   2.144   3.532  0.7299  0.8798  0.8258
30633SOL     OW93905   3.888   3.685   5.144  0.2275  0.0152  0.4417
30633SOL    HW193906   3.824   3.755   5.159  1.7202  1.4469  0.4360
30633SOL    HW293907   3.883   3.668   5.050 -0.7241 -0.4975  0.5708
30634SOL     OW93908   7.784  11.044   2.444  0.2151 -0.5234  0.3412
30634SOL    HW193909   7.767  11.109   2.513  1.6755  0.1200  0.1327
30634SOL    HW293910   7.721  11.066   2.375  1.6405  1.6541 -0.3442
30635SOL     OW93911   5.443   0.288   1.903 -0.1304 -0.8429 -0.5280
30635SOL    HW193912   5.479   0.211   1.860  0.2722 -1.0812  0.1997
30635SOL    HW293913   5.499   0.360   1.874 -0.6296 -0.7845 -1.3632
30636SOL     OW93914   7.315   2.619   2.614 -0.0847  0.0458  0.0123
30636SOL    HW193915   7.266   2.664   2.545 -0.1220  0.9560  0.6231
30636SOL    HW293916   7.406   2.621   2.584 -0.0413  0.8264  0.1913
30637SOL     OW93917   8.452   4.320   2.714  0.4322  0.2104  0.1277
30637SOL    HW193918   8.463   4.247   2.653 -0.0957  0.8333 -0.7353
30637SOL    HW293919   8.525   4.311   2.776  0.0840 -1.3219  0.3417
30638SOL     OW93920   3.164   8.092   3.746  0.8408  0.1022 -0.1470
30638SOL    HW193921   3.102   8.116   3.815  2.0129  0.0170  0.9644
30638SOL    HW293922   3.248   8.086   3.790  1.3615 -1.5455 -1.2724
30639SOL     OW93923   8.998   9.282   1.113  0.3087 -0.3396  0.0667
30639SOL    HW193924   9.004   9.376   1.099 -0.1253 -0.4010 -0.5914
30639SOL    HW293925   8.972   9.272   1.205  2.8212  0.1065  0.9046
30640SOL     OW93926   3.962   0.575   7.077  0.4282  0.3788 -0.1504
30640SOL    HW193927   3.934   0.605   6.991  0.1508 -0.2342 -0.2807
30640SOL    HW293928   3.926   0.486   7.084  0.9408  0.2082  0.3592
30641SOL     OW93929   0.774   3.462   6.163 -0.3113  0.0632 -0.2011
30641SOL    HW193930   0.685   3.496   6.176  0.0877  1.4917 -1.0757
30641SOL    HW293931   0.822   3.491   6.240 -0.5919 -0.7722  0.3088
30642SOL     OW93932   4.058   3.462   6.169  0.1434  0.1459 -0.1392
30642SOL    HW193933   4.123   3.437   6.103 -2.1009 -2.0153 -1.7289
30642SOL    HW293934   3.977   3.475   6.119 -1.0627  1.0701  1.9282
30643SOL     OW93935   9.925   2.066   7.193 -0.4441 -1.2492  0.2616
30643SOL    HW193936   9.962   1.985   7.159  1.1696 -0.4028 -0.1000
30643SOL    HW293937   9.874   2.102   7.120 -0.1085 -1.3107 -0.0051
30644SOL     OW93938   2.988  10.546   3.572 -0.5843  0.4694 -0.6421
30644SOL    HW193939   2.972  10.546   3.477 -3.4497  0.3603 -0.2602
30644SOL    HW293940   2.998  10.638   3.594  2.1543  0.4009 -1.2460
30645SOL     OW93941   6.678   1.635   0.661 -0.1019  0.2065 -0.2059
30645SOL    HW193942   6.721   1.568   0.715 -2.1651  0.3161  1.7134
30645SOL    HW293943   6.641   1.585   0.588  1.8793 -0.0949 -1.0617
30646SOL     OW93944   2.964   0.384   2.299  0.2316 -0.6036  0.0894
30646SOL    HW193945   2.912   0.338   2.234  1.2635 -0.3165 -0.9736
30646SOL    HW293946   2.955   0.332   2.379 -0.7943 -1.1379 -0.3580
30647SOL     OW93947   8.620   1.096   3.698 -0.1056 -0.4487 -0.2565
30647SOL    HW193948   8.659   1.100   3.785  0.2410 -2.9455 -0.2191
30647SOL    HW293949   8.668   1.026   3.653 -0.0643  0.9656 -2.5915
30648SOL     OW93950   5.345   5.536   0.243 -0.3315  0.0458 -0.0009
30648SOL    HW193951   5.262   5.541   0.197 -0.2443  1.3300 -0.0576
30648SOL    HW293952   5.394   5.468   0.197 -0.7151  0.4413 -1.0230
30649SOL     OW93953   3.964   9.262   4.350  0.1290  0.3768 -0.0733
30649SOL    HW193954   4.011   9.192   4.396 -0.4320 -0.2495 -0.4315
30649SOL    HW293955   4.032   9.314   4.309  0.6246  0.7495  1.1756
30650SOL     OW93956   0.293   1.179  10.874  0.3725  0.4693 -0.0830
30650SOL    HW193957   0.361   1.189  10.806 -1.2064 -0.7044 -1.9469
30650SOL    HW293958   0.297   1.087  10.898  0.8883  0.8640  1.4816
30651SOL     OW93959   5.108   1.980   9.303 -0.7516 -0.0454  0.4243
30651SOL    HW193960   5.136   1.897   9.264 -2.7130 -0.7033  0.3014
30651SOL    HW293961   5.077   1.957   9.391 -2.4032  0.2999 -0.0183
30652SOL     OW93962   9.931   0.285   0.060  0.3283 -0.6711 -0.0080
30652SOL    HW193963  10.004   0.303   0.119 -0.1924 -0.4078  0.5642
30652SOL    HW293964   9.861   0.343   0.090  0.4395  0.3587 -1.6420
30653SOL     OW93965  10.858   0.949   4.716  0.3546  0.5184 -0.2069
30653SOL    HW193966  10.782   0.972   4.663  0.8637  0.6417 -0.8949
30653SOL    HW293967  10.931   0.996   4.675  0.8040  0.3851  0.4307
30654SOL     OW93968   4.271   2.319   6.406 -0.2236 -0.0777  0.1361
30654SOL    HW193969   4.269   2.324   6.311  0.8328 -0.1172  0.1002
30654SOL    HW293970   4.252   2.228   6.426  2.3905 -0.7821 -0.1931
30655SOL     OW93971   8.021   0.174   3.957  0.6254 -0.4412 -0.7239
30655SOL    HW193972   8.061   0.230   4.023 -1.0722 -1.2211  1.0847
30655SOL    HW293973   7.927   0.181   3.973  0.3145 -4.2991  0.1536
30656SOL     OW93974   7.585   7.593   5.359 -0.1817  0.5959  0.2398
30656SOL    HW193975   7.566   7.532   5.431 -2.3577  0.7892 -0.0966
30656SOL    HW293976   7.621   7.671   5.402  0.9081 -0.2108  0.8451
30657SOL     OW93977   8.642   4.710   9.441  0.1023  0.0028  0.1254
30657SOL    HW193978   8.562   4.685   9.395 -0.1910  2.1024 -0.6288
30657SOL    HW293979   8.695   4.753   9.374 -0.5108  3.5458  1.6914
30658SOL     OW93980   6.781   2.220   5.661  0.0523  0.0860  0.2800
30658SOL    HW193981   6.692   2.231   5.693  0.2603 -0.0076  0.9085
30658SOL    HW293982   6.830   2.293   5.700  0.1597  0.4184 -0.4440
30659SOL     OW93983   7.147   9.236   4.943 -0.1312  0.1252 -0.4378
30659SOL    HW193984   7.068   9.186   4.958 -0.3020  0.1435 -1.2500
30659SOL    HW293985   7.139   9.311   5.001 -0.3183 -0.2956  0.0856
30660SOL     OW93986   3.470   0.527   1.899  0.4214 -0.0165 -0.1844
30660SOL    HW193987   3.553   0.483   1.917  0.3771 -0.1653 -0.3478
30660SOL    HW293988   3.492   0.621   1.904  0.6581 -0.0516 -0.4817
30661SOL     OW93989   9.728   5.532   3.856 -0.0413 -0.1048 -0.5395
30661SOL    HW193990   9.798   5.593   3.832  0.1848 -0.8993 -1.9741
30661SOL    HW293991   9.765   5.445   3.843 -1.1109 -0.5445 -0.7695
30662SOL     OW93992   9.602   9.954   1.350  0.8810  0.4884 -0.1061
30662SOL    HW193993   9.674  10.001   1.391 -0.1283  2.2502 -0.2315
30662SOL    HW293994   9.586  10.001   1.268  0.1714 -0.4192 -0.5031
30663SOL     OW93995   3.461   3.328  10.945 -0.7871  0.1771  0.7159
30663SOL    HW193996   3.486   3.275  10.870  0.0579 -0.7408  1.6015
30663SOL    HW293997   3.386   3.379  10.916  0.6891  1.3167 -1.3625
30664SOL     OW93998   9.973   5.485   8.733 -0.2081  0.3098  0.0303
30664SOL    HW193999  10.050   5.488   8.676  1.1205 -1.3264  1.6177
30664SOL    HW294000   9.930   5.402   8.712 -1.6183  1.2101 -0.8494
30665SOL     OW94001   7.742   5.913   6.289 -0.9390  0.3133  0.3717
30665SOL    HW194002   7.710   6.003   6.298  0.9286  1.2088 -1.0367
30665SOL    HW294003   7.685   5.873   6.224 -2.3913  0.1042  1.7092
30666SOL     OW94004   4.835   1.114   4.161  0.2212 -0.1962 -0.3725
30666SOL    HW194005   4.872   1.202   4.162  0.1699 -0.1760  0.2957
30666SOL    HW294006   4.819   1.096   4.069  1.7262 -0.1318 -0.6778
30667SOL     OW94007   1.802   9.498   7.526  0.6865  0.2464  0.5690
30667SOL    HW194008   1.761   9.523   7.609  0.4976  0.6702  0.3482
30667SOL    HW294009   1.833   9.408   7.541  1.9295  0.8038  1.5692
30668SOL     OW94010  10.549   0.819   0.916 -0.9801  0.0052 -0.4275
30668SOL    HW194011  10.570   0.729   0.889 -2.3720  0.2101 -2.4262
30668SOL    HW294012  10.463   0.836   0.876 -1.3551  1.7834  1.0243
30669SOL     OW94013   0.984  10.316   9.268 -0.3337 -0.0951  0.1615
30669SOL    HW194014   1.054  10.346   9.326 -0.5648  3.8321 -1.2733
30669SOL    HW294015   0.904  10.342   9.313 -0.7411 -1.3030  0.1605
30670SOL     OW94016   7.523   7.792   8.037 -0.0760  0.6615 -1.0044
30670SOL    HW194017   7.602   7.820   8.084 -0.1660  0.4506 -0.7294
30670SOL    HW294018   7.476   7.737   8.099 -0.1433  0.2969 -1.3776
30671SOL     OW94019   4.146   1.217   3.204 -0.4474 -0.1112 -0.1606
30671SOL    HW194020   4.063   1.182   3.234 -0.8454  1.2867  0.4505
30671SOL    HW294021   4.168   1.285   3.268  2.3984 -2.0486  1.1126
30672SOL     OW94022   0.548   6.092   4.653  0.2391  0.8051 -0.1351
30672SOL    HW194023   0.522   6.037   4.579  2.1620  0.7463 -0.8204
30672SOL    HW294024   0.575   6.030   4.720  0.6958  0.8838 -0.2440
30673SOL     OW94025   3.593   0.986   5.096 -0.4727  0.2137 -1.1673
30673SOL    HW194026   3.505   1.021   5.086  0.8008  3.3844 -2.5466
30673SOL    HW294027   3.624   0.971   5.007  0.9222  0.6845 -0.7952
30674SOL     OW94028   1.754   6.972   3.821 -0.0614  0.4761  0.3001
30674SOL    HW194029   1.800   6.952   3.903  0.7436  1.4351  0.0914
30674SOL    HW294030   1.809   6.935   3.753 -1.6209 -1.9780  0.2126
30675SOL     OW94031   1.786   7.825   8.378 -0.0347  0.1385  0.2499
30675SOL    HW194032   1.780   7.888   8.450  1.4744  0.4022  0.1722
30675SOL    HW294033   1.831   7.873   8.309  0.7590 -0.8925  0.0370
30676SOL     OW94034   5.162   2.002   6.188 -0.1715  0.1548 -0.5344
30676SOL    HW194035   5.118   1.965   6.111  3.7511 -0.8742 -2.5305
30676SOL    HW294036   5.204   2.082   6.156  0.6715  0.3020  0.8431
30677SOL     OW94037  10.025   5.296   3.324  0.0748  0.0721 -0.1304
30677SOL    HW194038  10.098   5.236   3.318 -0.2702 -0.6402  1.9289
30677SOL    HW294039  10.056   5.376   3.281  0.7423 -1.3144 -2.4076
30678SOL     OW94040   2.900   7.045   3.394  0.1798  0.1513 -0.7107
30678SOL    HW194041   2.923   7.037   3.487  0.2099 -0.4820 -0.7632
30678SOL    HW294042   2.943   6.969   3.353 -0.0678  0.2697 -1.1933
30679SOL     OW94043   4.753   3.064   7.997  0.1372 -0.2266  0.1534
30679SOL    HW194044   4.731   2.983   7.950  1.4626 -1.8384  2.1080
30679SOL    HW294045   4.698   3.061   8.076  0.2723  0.7411  0.2957
30680SOL     OW94046   3.986   4.041   5.087  0.1905 -0.2381 -0.2416
30680SOL    HW194047   3.948   4.030   4.999  2.6478  0.8807 -1.5546
30680SOL    HW294048   3.921   4.092   5.135 -1.2610 -0.9572 -1.3542
30681SOL     OW94049   7.002   2.172   4.092  0.3585 -0.4371  0.1706
30681SOL    HW194050   6.946   2.136   4.161  0.5661  0.7848  1.0067
30681SOL    HW294051   7.088   2.180   4.132  0.4487  0.4209 -0.1677
30682SOL     OW94052   0.604   2.280  10.408  0.7093 -0.0183  0.1969
30682SOL    HW194053   0.698   2.298  10.401  0.5540  1.4360  1.4294
30682SOL    HW294054   0.579   2.317  10.493 -1.4700  1.9025 -1.1848
30683SOL     OW94055  10.601   2.406   2.584 -0.3698  0.0249 -0.1183
30683SOL    HW194056  10.565   2.493   2.565  0.4411  0.3528 -0.1904
30683SOL    HW294057  10.530   2.345   2.560 -0.5878  0.6063 -1.0161
30684SOL     OW94058   5.104   2.535   6.692 -0.2899  0.1657  0.0131
30684SOL    HW194059   5.185   2.558   6.737 -1.2584  2.0355  0.9010
30684SOL    HW294060   5.127   2.533   6.599  1.2258 -1.4772  0.3764
30685SOL     OW94061   2.933   3.122   3.240  0.1933 -0.0064 -0.3240
30685SOL    HW194062   2.844   3.109   3.206  0.7633  0.4942 -2.1292
30685SOL    HW294063   2.920   3.147   3.331 -1.4619 -0.9308 -0.2702
30686SOL     OW94064   7.642   2.339   8.091  0.4346 -0.1251  0.2784
30686SOL    HW194065   7.640   2.425   8.134 -1.3083 -0.3243  0.6882
30686SOL    HW294066   7.549   2.316   8.080  0.8531 -1.2481 -1.2723
30687SOL     OW94067   5.688   8.824   7.162 -0.6254  0.2780  0.3440
30687SOL    HW194068   5.710   8.763   7.092  0.0260  0.1390  0.6668
30687SOL    HW294069   5.699   8.911   7.122  2.2919  0.2919  0.9484
30688SOL     OW94070   8.991  10.734   7.985  0.0637  0.2696  0.1036
30688SOL    HW194071   9.001  10.814   7.932  1.4196  0.1910  0.2016
30688SOL    HW294072   8.937  10.676   7.931  1.2163  0.2792 -1.1090
30689SOL     OW94073   6.881   9.953  10.694 -0.5508  0.0487 -0.4024
30689SOL    HW194074   6.791   9.983  10.677 -1.0696 -0.6199  1.0187
30689SOL    HW294075   6.891   9.874  10.641 -0.9039 -0.0438 -0.3316
30690SOL     OW94076   0.204   4.027   6.641  0.0115  0.1538  0.1191
30690SOL    HW194077   0.127   4.079   6.619  0.5976  0.7237 -0.6495
30690SOL    HW294078   0.190   4.000   6.732 -0.1807  1.8840  0.6399
30691SOL     OW94079   3.011   3.678   9.997 -0.2878  0.1935 -0.2397
30691SOL    HW194080   3.083   3.617  10.012 -1.6848 -1.4334  0.0568
30691SOL    HW294081   2.934   3.634  10.032 -1.4962  1.7690 -0.8056
30692SOL     OW94082   8.217   4.587   0.118  0.2479 -0.4397  0.0374
30692SOL    HW194083   8.242   4.663   0.066  2.9362 -1.9217 -1.0336
30692SOL    HW294084   8.147   4.545   0.067 -0.4695  0.6838  0.0753
30693SOL     OW94085   6.083   3.570   2.069 -0.2998 -0.2628 -0.7575
30693SOL    HW194086   6.041   3.602   1.988  0.0589 -0.7840 -1.1577
30693SOL    HW294087   6.020   3.590   2.138  0.2071  1.9451 -0.8844
30694SOL     OW94088   2.087   8.183   3.993  0.0377 -0.7217  0.0653
30694SOL    HW194089   2.102   8.276   4.003 -0.2863 -0.8585  2.4563
30694SOL    HW294090   2.163   8.141   4.034  0.7849 -1.5670 -2.0521
30695SOL     OW94091   1.497   5.245   0.234  0.5501  0.4629 -0.3194
30695SOL    HW194092   1.533   5.318   0.286  0.2224  1.3924 -1.3566
30695SOL    HW294093   1.489   5.280   0.145  0.5355 -0.9080 -0.8835
30696SOL     OW94094   6.015   4.349   8.575 -0.5039 -0.1750 -0.6631
30696SOL    HW194095   6.054   4.388   8.653  0.9279 -1.1165 -0.8653
30696SOL    HW294096   6.024   4.416   8.507 -0.9040  0.2941 -0.2607
30697SOL     OW94097   9.258   1.815   7.078  0.3729  0.2517  0.3482
30697SOL    HW194098   9.235   1.897   7.035 -0.6643 -0.5487 -0.6909
30697SOL    HW294099   9.340   1.833   7.123 -0.2207  2.0678  0.7648
30698SOL     OW94100   5.806   4.998   7.478 -0.5502  0.7262  0.9314
30698SOL    HW194101   5.872   5.053   7.521  1.4272 -3.4009  3.8225
30698SOL    HW294102   5.855   4.924   7.444 -3.2429 -0.2262 -1.2361
30699SOL     OW94103   4.940   6.046   5.269  0.3040  0.2642 -0.5053
30699SOL    HW194104   5.020   6.032   5.320  0.6354 -0.0285 -1.1025
30699SOL    HW294105   4.936   6.140   5.255 -0.7670  0.6081  1.6321
30700SOL     OW94106   0.780   0.911  11.063  0.2041  0.1288 -0.1390
30700SOL    HW194107   0.727   0.832  11.067 -0.2193  0.3946 -0.4439
30700SOL    HW294108   0.858   0.885  11.013  1.0340 -0.6281  1.4864
30701SOL     OW94109   6.573   2.184   6.039  0.7935  0.5251 -0.5350
30701SOL    HW194110   6.505   2.151   5.980  0.6475 -0.1525  0.0033
30701SOL    HW294111   6.533   2.262   6.080  1.3817  1.8277 -2.3044
30702SOL     OW94112   1.414  10.348   2.012 -0.1039 -0.0999 -0.0950
30702SOL    HW194113   1.387  10.265   1.974 -2.2582 -0.1356  1.3584
30702SOL    HW294114   1.471  10.387   1.946 -1.8005 -1.1818 -2.3242
30703SOL     OW94115  10.768   0.776   6.499 -0.2391 -0.0692 -0.1363
30703SOL    HW194116  10.794   0.772   6.408 -0.4687 -1.3799 -0.1568
30703SOL    HW294117  10.837   0.828   6.542  0.9208 -1.1100 -0.6888
30704SOL     OW94118   7.100   9.229   6.155 -0.1715  0.5174  0.2534
30704SOL    HW194119   7.156   9.200   6.082 -0.8836 -0.1447 -0.0480
30704SOL    HW294120   7.071   9.316   6.129 -0.2797  0.3576 -0.1773
30705SOL     OW94121   9.600   6.063   5.711 -0.4751  0.3121  0.0013
30705SOL    HW194122   9.518   6.030   5.675  0.1336 -0.3102 -0.8691
30705SOL    HW294123   9.639   6.112   5.638 -0.1279  0.6961  0.4403
30706SOL     OW94124   7.054   5.030  10.565 -0.4077  0.0799 -0.3101
30706SOL    HW194125   6.971   5.017  10.610  0.8041 -0.1456  1.9792
30706SOL    HW294126   7.090   4.942  10.554  0.3350  0.2800  0.3874
30707SOL     OW94127   8.438   2.902   5.871  0.0582 -0.5883  0.0501
30707SOL    HW194128   8.522   2.945   5.886  1.1154 -1.4893 -2.5519
30707SOL    HW294129   8.448   2.815   5.909  0.0487 -0.4601  0.3443
30708SOL     OW94130   3.982   4.555  10.225  0.2577 -0.3941 -0.2958
30708SOL    HW194131   4.025   4.583  10.144  0.5047  0.9466  0.2729
30708SOL    HW294132   3.889   4.568  10.209  0.2122 -1.1441 -0.7190
30709SOL     OW94133   1.845   7.060   0.731  0.0485 -0.2149 -0.4288
30709SOL    HW194134   1.754   7.032   0.737  0.1076 -0.6052 -1.2745
30709SOL    HW294135   1.891   6.985   0.692  0.7924 -0.1475  0.2882
30710SOL     OW94136   0.648   7.027  10.396  0.2309  0.1883 -0.2568
30710SOL    HW194137   0.583   7.067  10.454 -0.4565  0.4342 -1.1766
30710SOL    HW294138   0.724   7.086  10.401  0.3445 -0.0242  0.7091
30711SOL     OW94139   7.443  11.093   4.103 -0.2486  0.5567  0.1669
30711SOL    HW194140   7.359  11.070   4.142 -0.8543  1.9895 -0.2140
30711SOL    HW294141   7.449  11.188   4.113  1.3873  0.4729  0.2838
30712SOL     OW94142   7.636   1.239   3.045 -0.0924 -0.2463  0.5744
30712SOL    HW194143   7.571   1.180   3.008  1.1266 -1.3130  0.0263
30712SOL    HW294144   7.638   1.217   3.138  0.3425 -1.0923  0.3759
30713SOL     OW94145  10.805   5.731   4.655  0.0376  0.6739  0.0001
30713SOL    HW194146  10.821   5.793   4.726 -1.2371  0.3749  0.5739
30713SOL    HW294147  10.744   5.668   4.691  0.9174 -0.6538 -0.7443
30714SOL     OW94148  10.527   5.992   0.471 -0.0632 -0.5932  0.3284
30714SOL    HW194149  10.570   5.987   0.386 -0.8317 -0.2453 -0.0893
30714SOL    HW294150  10.450   6.047   0.457 -2.3017 -3.4688  0.3247
30715SOL     OW94151   5.541   9.783   8.683  0.1585 -0.7086 -0.0302
30715SOL    HW194152   5.616   9.819   8.730  0.5076 -1.0207 -0.3457
30715SOL    HW294153   5.537   9.692   8.711 -0.1315 -0.6808  0.0201
30716SOL     OW94154   1.759   9.598   5.271  0.2977  0.4504 -0.3228
30716SOL    HW194155   1.684   9.546   5.240  1.4544 -0.9483 -0.9084
30716SOL    HW294156   1.832   9.568   5.217  1.6385  0.5279  1.3713
30717SOL     OW94157   9.272   7.484   1.458 -0.1153 -0.2942 -0.8383
30717SOL    HW194158   9.320   7.413   1.501 -0.4622 -0.4088 -0.6315
30717SOL    HW294159   9.192   7.442   1.425 -0.3565  0.0105 -0.6506
30718SOL     OW94160   8.566   2.380   3.655 -0.9715 -0.0744 -0.2151
30718SOL    HW194161   8.612   2.303   3.689 -1.2853 -0.9281 -1.6693
30718SOL    HW294162   8.635   2.438   3.625 -0.7775 -0.4485 -0.4975
30719SOL     OW94163   1.182   5.677   1.831  0.3384  0.6801 -0.1712
30719SOL    HW194164   1.264   5.721   1.805  0.4442  0.4819 -0.1743
30719SOL    HW294165   1.135   5.665   1.748  0.4143  0.5757 -0.1995
30720SOL     OW94166   9.204   2.270   5.595  0.3244 -0.2280 -0.0612
30720SOL    HW194167   9.296   2.297   5.585 -0.2599  1.4516 -1.3930
30720SOL    HW294168   9.154   2.341   5.555 -1.4861 -1.9857 -1.0739
30721SOL     OW94169   2.707   2.988   6.808  0.3689  0.2800 -0.2121
30721SOL    HW194170   2.637   3.003   6.745  0.1671 -0.4554 -0.1791
30721SOL    HW294171   2.748   3.073   6.820 -0.6300  0.7598 -0.1006
30722SOL     OW94172   3.455   4.162   1.463  0.4121  0.2107 -0.2439
30722SOL    HW194173   3.450   4.118   1.548 -0.0617  0.0981 -0.3297
30722SOL    HW294174   3.546   4.193   1.458  0.2040  1.0302  0.7000
30723SOL     OW94175   9.454   8.410  10.150  0.7118  0.1903 -0.5045
30723SOL    HW194176   9.384   8.429  10.088 -0.0656 -1.3541 -0.1539
30723SOL    HW294177   9.412   8.419  10.236  0.6677 -1.6516 -0.3119
30724SOL     OW94178   9.111   8.184   1.525 -0.0168  0.5940  0.2477
30724SOL    HW194179   9.136   8.239   1.451  1.6590  1.7641  1.6119
30724SOL    HW294180   9.046   8.234   1.572  0.1109  0.5657  0.4550
30725SOL     OW94181   3.655   2.029   8.313  0.0770 -0.7650 -0.2854
30725SOL    HW194182   3.570   2.072   8.301  0.0317 -1.2639 -2.1386
30725SOL    HW294183   3.712   2.070   8.248  1.5088  0.1177  1.4692
30726SOL     OW94184   0.120   4.454   7.659 -0.4471  0.1889 -0.4561
30726SOL    HW194185   0.122   4.391   7.731  0.3914 -1.0052 -1.4800
30726SOL    HW294186   0.041   4.506   7.674 -0.8398 -0.7261  0.7485
30727SOL     OW94187   9.763   3.175   5.238 -0.2790 -0.2727 -0.3591
30727SOL    HW194188   9.755   3.098   5.294 -2.3080  1.0974  1.3924
30727SOL    HW294189   9.856   3.196   5.241  0.1020 -1.8667  0.2111
30728SOL     OW94190   9.349   4.300  10.997 -0.0548 -0.1006  0.0527
30728SOL    HW194191   9.339   4.311  11.092  1.9358  1.0781  0.1899
30728SOL    HW294192   9.442   4.282  10.985 -0.5404 -1.7904 -1.5907
30729SOL     OW94193   4.012   4.260   1.353  0.0983 -0.2519 -0.0325
30729SOL    HW194194   4.078   4.262   1.423  0.1775  0.9598 -0.1226
30729SOL    HW294195   3.929   4.277   1.397 -0.1634 -1.6157  0.0561
30730SOL     OW94196   6.497   6.920   9.726  0.6032 -0.0441 -0.5964
30730SOL    HW194197   6.524   6.828   9.728  2.2975  0.4214  0.1943
30730SOL    HW294198   6.408   6.920   9.762  0.7771 -1.3144 -0.1080
30731SOL     OW94199   1.256  10.188   3.341  0.4656  0.0860 -0.6901
30731SOL    HW194200   1.343  10.164   3.374  0.3588  0.3433 -0.2108
30731SOL    HW294201   1.196  10.131   3.389  0.4672 -1.1727 -2.1108
30732SOL     OW94202   7.265   5.074   3.671  0.5354 -0.0167 -0.1003
30732SOL    HW194203   7.181   5.057   3.628 -1.3188  0.8947  2.8495
30732SOL    HW294204   7.265   5.168   3.685  1.0916 -0.2523  1.6712
30733SOL     OW94205   3.314  10.327   7.998  0.0276 -0.0512  0.0380
30733SOL    HW194206   3.279  10.405   8.042 -1.8820 -0.6924 -0.2834
30733SOL    HW294207   3.237  10.278   7.970  1.1928 -1.0629 -1.5587
30734SOL     OW94208   3.394   9.804   0.064 -0.1681  0.3750 -0.2045
30734SOL    HW194209   3.310   9.839   0.095 -0.7859 -0.6232 -0.7315
30734SOL    HW294210   3.439   9.775   0.143  0.0783  1.7236  0.1768
30735SOL     OW94211  10.236   4.077   9.729  0.1003 -0.3635  0.0557
30735SOL    HW194212  10.242   3.982   9.726  0.6605 -0.3576  0.7262
30735SOL    HW294213  10.158   4.098   9.677 -1.4211 -1.3474  1.8106
30736SOL     OW94214   9.501   9.707   1.271 -0.0340 -0.0637  0.3208
30736SOL    HW194215   9.506   9.690   1.177  0.0299 -0.9756  0.4872
30736SOL    HW294216   9.535   9.797   1.280  2.1146 -0.7516 -0.2755
30737SOL     OW94217   4.614   2.557   2.539  0.0138  0.2331  0.4392
30737SOL    HW194218   4.567   2.565   2.623 -1.2056 -1.6785  0.0111
30737SOL    HW294219   4.706   2.543   2.564 -0.4817 -1.3976  1.5676
30738SOL     OW94220   8.685   8.861   4.582 -0.3586  0.2884  0.6229
30738SOL    HW194221   8.701   8.918   4.507 -0.0322  1.3301  1.4452
30738SOL    HW294222   8.590   8.852   4.585 -0.3256 -0.6737 -0.5430
30739SOL     OW94223   9.394   2.962   3.830 -0.1291 -0.1041 -0.0274
30739SOL    HW194224   9.419   3.052   3.849  0.2951 -0.1148 -0.5041
30739SOL    HW294225   9.319   2.945   3.887 -1.1545  1.0262 -0.9803
30740SOL     OW94226   8.703  10.539   5.609  0.2538  0.0200 -0.6556
30740SOL    HW194227   8.640  10.600   5.571  0.2308  0.9007  0.7246
30740SOL    HW294228   8.733  10.582   5.689  1.4388 -1.0838 -0.4744
30741SOL     OW94229   2.061   0.478   7.383  0.0811 -0.0285  0.1483
30741SOL    HW194230   2.130   0.447   7.441  0.1888 -1.3943 -0.6558
30741SOL    HW294231   2.104   0.488   7.298 -0.4763  0.1043 -0.1207
30742SOL     OW94232   5.253   2.187   6.462  0.1434 -0.5149  0.3470
30742SOL    HW194233   5.159   2.177   6.479  0.1956 -0.3760  0.7438
30742SOL    HW294234   5.270   2.281   6.475  0.1854 -0.3929 -0.5379
30743SOL     OW94235   4.176   3.128   1.149 -0.1465 -0.4871  0.1313
30743SOL    HW194236   4.202   3.215   1.179  1.6486 -1.1809  0.7163
30743SOL    HW294237   4.082   3.135   1.134  0.3581  2.4474 -2.8571
30744SOL     OW94238   9.607   1.286   3.749 -0.2368  0.1652  0.2525
30744SOL    HW194239   9.549   1.249   3.683 -0.1188  3.9052 -2.2868
30744SOL    HW294240   9.549   1.339   3.804  0.2203  0.9786 -0.0175
30745SOL     OW94241   4.700   4.662   4.926 -0.1602  0.0028 -0.2910
30745SOL    HW194242   4.605   4.659   4.918 -0.2801  0.3687  0.7963
30745SOL    HW294243   4.728   4.571   4.917 -0.6218 -0.1233 -0.4845
30746SOL     OW94244  10.468   4.348   0.531  0.0524  0.7355  0.1045
30746SOL    HW194245  10.467   4.355   0.626  0.3545 -0.5406  0.2225
30746SOL    HW294246  10.419   4.267   0.512  1.9387 -0.3125 -0.6580
30747SOL     OW94247   4.122   9.439   8.540  0.1720 -0.7934 -0.7313
30747SOL    HW194248   4.120   9.401   8.452 -1.0442  0.9550 -1.5114
30747SOL    HW294249   4.056   9.508   8.539  1.9667  1.1011  0.7111
30748SOL     OW94250   9.075   8.099   6.030 -0.1147 -0.2582  0.0321
30748SOL    HW194251   9.036   8.156   6.096 -1.0521  0.1224 -0.8173
30748SOL    HW294252   9.001   8.071   5.976  0.6872 -0.0893 -1.1921
30749SOL     OW94253  10.574   3.450   6.466  0.2879 -0.3191  0.4001
30749SOL    HW194254  10.491   3.408   6.445  1.1429 -1.6766 -0.3592
30749SOL    HW294255  10.575   3.529   6.413 -0.0798 -0.8187 -0.3568
30750SOL     OW94256   1.072   9.998   7.391 -0.6225  0.0198  0.4001
30750SOL    HW194257   1.098  10.077   7.344  0.5703 -1.7783 -2.1990
30750SOL    HW294258   1.152   9.970   7.436 -0.6894 -0.3539  0.2910
30751SOL     OW94259   3.891   4.370   5.057  0.3660  0.1693 -0.4682
30751SOL    HW194260   3.952   4.415   4.999  2.3888 -0.5489  0.9892
30751SOL    HW294261   3.921   4.393   5.145 -1.4361 -0.3084  0.3029
30752SOL     OW94262   8.469   4.960   8.880  0.4030 -0.0237  0.0611
30752SOL    HW194263   8.440   5.039   8.926 -0.9415 -0.6432  0.3085
30752SOL    HW294264   8.411   4.891   8.910  0.4071 -0.7537 -1.4950
30753SOL     OW94265  10.686   2.053   5.518  0.3314  0.0658 -0.6669
30753SOL    HW194266  10.736   1.972   5.504 -0.5694 -0.8322  1.0293
30753SOL    HW294267  10.598   2.023   5.539 -0.9664  1.6077 -3.3601
30754SOL     OW94268  11.005   7.278   8.151  0.2653 -0.4513 -0.2033
30754SOL    HW194269  11.074   7.308   8.211  0.1131 -1.2258  0.3797
30754SOL    HW294270  11.017   7.183   8.146 -1.1077 -0.6837  0.3850
30755SOL     OW94271   3.649   1.392   7.012 -0.0062 -0.0745 -0.7028
30755SOL    HW194272   3.596   1.350   7.079  0.3464 -0.6134 -0.7520
30755SOL    HW294273   3.588   1.447   6.963 -0.8042 -1.7074 -1.6196
30756SOL     OW94274   6.745   8.463   2.923  0.0927 -0.1867 -0.2418
30756SOL    HW194275   6.742   8.414   2.841  0.3878  0.6970 -0.7878
30756SOL    HW294276   6.791   8.544   2.902  0.4824 -0.0936  0.8786
30757SOL     OW94277   6.657   1.933   0.651  0.0696  0.6780  0.3791
30757SOL    HW194278   6.622   1.918   0.564  0.5170 -0.0270  0.3113
30757SOL    HW294279   6.652   1.848   0.695  3.0761  0.0885 -0.1591
30758SOL     OW94280   8.256   8.977   2.214  0.6556 -0.6320  0.6968
30758SOL    HW194281   8.224   8.949   2.128  0.1241 -0.6412  0.8892
30758SOL    HW294282   8.350   8.964   2.211  0.6179 -0.7804  0.1673
30759SOL     OW94283   7.957   7.253   4.089 -0.5725  0.2102  0.2069
30759SOL    HW194284   7.915   7.249   4.003  1.3652  2.8870 -1.0010
30759SOL    HW294285   7.950   7.344   4.115  2.6258  0.3825  0.8209
30760SOL     OW94286   8.390   4.438   6.630 -0.3893  0.5314 -0.3470
30760SOL    HW194287   8.455   4.432   6.560 -1.2985  1.9268 -1.3596
30760SOL    HW294288   8.430   4.391   6.703  0.3224 -1.5459 -1.9759
30761SOL     OW94289   6.243   7.621   2.583 -0.0430  0.2151  0.0699
30761SOL    HW194290   6.156   7.617   2.543  0.3525 -0.0556 -0.7877
30761SOL    HW294291   6.259   7.532   2.614 -0.6561  0.5881  1.5395
30762SOL     OW94292   9.095   3.912   4.880  0.0721 -0.0539  0.4704
30762SOL    HW194293   9.131   3.882   4.797  0.7572 -0.5361  0.9302
30762SOL    HW294294   9.012   3.864   4.888  0.1277 -0.2039  0.1860
30763SOL     OW94295   4.228   6.122   2.959 -0.3383 -0.1450 -0.2777
30763SOL    HW194296   4.245   6.187   3.027  0.1733  0.2667 -0.7847
30763SOL    HW294297   4.211   6.174   2.880  0.0291 -0.6243 -0.6795
30764SOL     OW94298   0.226   8.411   9.481 -0.0516 -0.1946  0.0349
30764SOL    HW194299   0.201   8.474   9.548 -1.3859 -0.1797 -0.4459
30764SOL    HW294300   0.320   8.425   9.468 -0.0673  0.7591  0.8852
30765SOL     OW94301   8.174   0.032   6.763  0.3918  0.4012 -0.3123
30765SOL    HW194302   8.211   0.121   6.767  0.5020  0.3978 -1.1470
30765SOL    HW294303   8.221  -0.016   6.831  0.8092  0.8071 -0.3066
30766SOL     OW94304   0.285  10.000   3.514  0.6636 -0.5102  0.1960
30766SOL    HW194305   0.335   9.986   3.595  1.2502  0.7514  0.0888
30766SOL    HW294306   0.257  10.091   3.520 -2.6284 -1.4475  0.7514
30767SOL     OW94307   5.980   9.295   7.260 -0.0900 -0.3025 -0.2380
30767SOL    HW194308   5.950   9.373   7.213  0.4484 -0.4915 -0.9184
30767SOL    HW294309   6.073   9.288   7.238  0.1898 -0.3655  0.9205
30768SOL     OW94310   0.521   1.341   6.847  0.8586  0.1966  0.0958
30768SOL    HW194311   0.470   1.329   6.767  1.3190  0.6744 -0.2723
30768SOL    HW294312   0.612   1.331   6.820  1.0237  0.4196  0.5518
30769SOL     OW94313   9.314   0.337   8.803 -0.2653  0.2670  0.1154
30769SOL    HW194314   9.309   0.419   8.853  3.4925  2.0500 -1.9849
30769SOL    HW294315   9.307   0.365   8.712 -2.2017 -2.2939 -0.6309
30770SOL     OW94316   1.206   1.568   8.223 -0.4013  0.2691  0.3515
30770SOL    HW194317   1.174   1.624   8.294  1.3062  1.6443  0.1036
30770SOL    HW294318   1.149   1.589   8.149  0.4194  2.0354  0.1613
30771SOL     OW94319   7.232   8.122   7.491  0.0261  0.2467  0.4189
30771SOL    HW194320   7.302   8.078   7.443  0.0965  0.0529  0.6914
30771SOL    HW294321   7.275   8.197   7.532 -0.4082  1.4615 -1.2803
30772SOL     OW94322   8.133   6.587   9.741 -0.4016 -0.1630  0.4071
30772SOL    HW194323   8.184   6.666   9.724 -0.3945 -0.5630 -1.6406
30772SOL    HW294324   8.060   6.617   9.795 -1.1945  1.5876 -1.5070
30773SOL     OW94325   5.133   4.239   3.649 -0.2979  0.3782 -0.4516
30773SOL    HW194326   5.205   4.192   3.606 -0.8265  0.8911 -1.9628
30773SOL    HW294327   5.057   4.225   3.592 -1.5625 -0.5881  1.3770
30774SOL     OW94328   9.463   3.506  10.374 -0.0343 -0.3329 -0.3741
30774SOL    HW194329   9.448   3.468  10.288  0.0504 -0.5157 -0.3086
30774SOL    HW294330   9.412   3.451  10.434 -0.1890 -0.1342 -0.3214
30775SOL     OW94331   7.025   5.816   2.661 -0.0899  0.0642  0.4178
30775SOL    HW194332   7.064   5.894   2.622 -0.4744  0.0918  0.0910
30775SOL    HW294333   6.952   5.793   2.603  0.1205 -0.6334  0.4195
30776SOL     OW94334   4.518   2.294   1.518 -0.5392  0.2031 -0.3373
30776SOL    HW194335   4.484   2.382   1.508 -0.1674  0.6733  1.9013
30776SOL    HW294336   4.597   2.305   1.571  0.0230 -1.3861 -0.7901
30777SOL     OW94337  10.342   6.933   2.326 -0.1672 -0.4088 -0.0937
30777SOL    HW194338  10.259   6.974   2.351 -0.1664  0.7275 -1.7641
30777SOL    HW294339  10.369   6.981   2.247  1.5813 -1.4154 -0.1497
30778SOL     OW94340   7.555   8.281  10.800  0.3523  0.3546  0.4961
30778SOL    HW194341   7.562   8.192  10.768 -2.3327  0.2811 -0.1140
30778SOL    HW294342   7.569   8.274  10.894 -3.3932 -1.4127  1.0878
30779SOL     OW94343   9.647   4.630   0.039 -0.2796  0.2064 -0.2387
30779SOL    HW194344   9.664   4.714   0.080  0.7969 -0.4358  0.6811
30779SOL    HW294345   9.596   4.651  -0.040 -2.1050  1.4924  1.2121
30780SOL     OW94346   1.206   6.255   8.398  0.1047 -0.0391 -0.1096
30780SOL    HW194347   1.290   6.210   8.391 -0.8020 -2.0263  0.9119
30780SOL    HW294348   1.150   6.212   8.333 -0.5132  0.2918  0.1956
30781SOL     OW94349   8.453   2.531   7.722  0.0654 -0.5249 -0.3058
30781SOL    HW194350   8.378   2.577   7.685  0.3851  0.0856 -0.2015
30781SOL    HW294351   8.420   2.443   7.741 -1.6668  0.6663  2.9987
30782SOL     OW94352  10.819   9.867   4.683 -0.3721 -0.5753  0.3521
30782SOL    HW194353  10.848   9.875   4.593  0.2739 -0.3426  0.5761
30782SOL    HW294354  10.758   9.793   4.683  1.0364 -1.7767  0.0669
30783SOL     OW94355   7.763   0.145   9.688 -0.2975 -0.2129  0.2968
30783SOL    HW194356   7.855   0.155   9.664 -0.2290  0.7233  0.8960
30783SOL    HW294357   7.720   0.117   9.607  0.5066 -0.6517  0.0119
30784SOL     OW94358   2.235   2.163   2.458  0.5008 -0.4626 -0.2225
30784SOL    HW194359   2.284   2.168   2.375 -2.5251  1.4009 -2.1005
30784SOL    HW294360   2.190   2.248   2.464 -0.7848 -1.2266  2.4613
30785SOL     OW94361   2.354   0.334   4.006 -0.1255  0.1414 -0.5270
30785SOL    HW194362   2.321   0.421   3.986  0.0054  0.5799  0.9836
30785SOL    HW294363   2.285   0.293   4.058  0.6969  0.2061  0.6720
30786SOL     OW94364   9.502   4.407   5.696 -0.4586  0.0912  0.1433
30786SOL    HW194365   9.581   4.460   5.685 -0.2267 -0.2503  0.1728
30786SOL    HW294366   9.447   4.460   5.754 -0.6125  0.7144 -0.5606
30787SOL     OW94367   9.944   3.774   4.920  0.0270  0.1937  0.1271
30787SOL    HW194368   9.944   3.696   4.864  1.6057  1.0349 -1.0879
30787SOL    HW294369  10.035   3.785   4.947 -0.2478  1.3914  0.6406
30788SOL     OW94370   5.892   4.000  10.434 -0.2785 -0.7194 -0.0787
30788SOL    HW194371   5.859   3.910  10.434 -1.8906 -0.1760  0.5275
30788SOL    HW294372   5.813   4.054  10.426  0.7403  0.6395 -1.7807
30789SOL     OW94373   9.249   2.655   4.041 -0.2584 -0.4066  0.1227
30789SOL    HW194374   9.278   2.585   3.982  0.5043 -0.5156  0.6105
30789SOL    HW294375   9.156   2.666   4.021 -0.4258 -1.6473  0.1247
30790SOL     OW94376   1.049   2.669   2.410 -0.7008  0.2252 -0.4398
30790SOL    HW194377   1.040   2.662   2.505  1.7945  0.3183 -0.1315
30790SOL    HW294378   1.014   2.586   2.376 -0.6314 -0.2634  0.6556
30791SOL     OW94379   0.101   7.187   4.030  0.1579  0.2778 -0.4937
30791SOL    HW194380   0.142   7.263   4.072 -1.4382  0.5307  0.6740
30791SOL    HW294381   0.136   7.112   4.078 -0.7595  0.4946  0.5350
30792SOL     OW94382   7.960   2.289   7.235  0.0192  0.7310 -0.2778
30792SOL    HW194383   7.932   2.340   7.311 -0.4212 -1.1179  0.8702
30792SOL    HW294384   7.907   2.210   7.239 -0.5154  0.8686 -2.9475
30793SOL     OW94385   1.788   1.412   5.426 -0.2410  0.4659 -0.0115
30793SOL    HW194386   1.850   1.365   5.370 -0.0131  1.5086 -0.6738
30793SOL    HW294387   1.709   1.420   5.372 -0.1832  1.0651 -0.0189
30794SOL     OW94388   9.788   1.394   2.852  0.2675  0.0493 -0.4830
30794SOL    HW194389   9.857   1.355   2.907 -1.1568 -0.6878  0.8544
30794SOL    HW294390   9.816   1.484   2.839  1.7447 -0.3694 -0.4206
30795SOL     OW94391   8.463   1.043   6.227  0.3687  0.1847  0.7434
30795SOL    HW194392   8.410   0.970   6.194  0.7607  0.6334 -0.9864
30795SOL    HW294393   8.426   1.120   6.185  2.5585  0.4719 -0.8513
30796SOL     OW94394   8.921   1.514   5.522 -0.0862  0.3611 -0.0878
30796SOL    HW194395   8.979   1.540   5.593  0.4056  0.2748 -0.4485
30796SOL    HW294396   8.887   1.428   5.548 -0.1477  0.4647  0.1783
30797SOL     OW94397   8.640   5.647   9.331  0.2712  0.5877 -0.3053
30797SOL    HW194398   8.633   5.694   9.247  0.1334  0.7278 -0.2163
30797SOL    HW294399   8.691   5.569   9.310  0.0210  0.4931 -0.5749
30798SOL     OW94400   4.871   4.603   3.377 -0.1039  0.1051  0.0646
30798SOL    HW194401   4.841   4.667   3.312  0.7433  0.7339  0.2713
30798SOL    HW294402   4.860   4.648   3.461 -0.5404 -0.4458  0.3136
30799SOL     OW94403   8.069   3.971   7.506  0.5057 -0.3513  0.5875
30799SOL    HW194404   8.135   3.949   7.440  0.3294 -0.3876  0.4223
30799SOL    HW294405   8.119   4.008   7.579  0.6332  0.4310  0.1141
30800SOL     OW94406   1.945   2.357   8.756  0.5383  0.2175  0.2400
30800SOL    HW194407   1.877   2.306   8.711  1.3787 -0.3365 -0.4309
30800SOL    HW294408   1.947   2.322   8.845  2.3256 -2.2311 -0.6688
30801SOL     OW94409   7.394   3.949   7.689  0.2247 -0.1254 -0.5494
30801SOL    HW194410   7.352   4.035   7.683  3.2902  1.4435 -1.5958
30801SOL    HW294411   7.372   3.906   7.606  0.6910  0.6801 -1.1011
30802SOL     OW94412   1.536   8.933   2.528 -0.1666  0.3106  0.2686
30802SOL    HW194413   1.575   9.018   2.548 -3.1666  2.1612 -1.0356
30802SOL    HW294414   1.457   8.930   2.582 -1.6491 -0.2760 -1.8075
30803SOL     OW94415   9.881   0.533   7.750  0.2180 -0.1444  0.5786
30803SOL    HW194416   9.818   0.471   7.788  1.4949 -2.1360 -0.3343
30803SOL    HW294417   9.964   0.485   7.751  1.9200  2.6120  2.3572
30804SOL     OW94418   7.099   2.533   7.046 -0.7858  0.8481  0.0729
30804SOL    HW194419   7.064   2.532   7.135 -1.9071 -1.2526 -0.3166
30804SOL    HW294420   7.093   2.442   7.017  1.0290  1.1996 -1.6069
30805SOL     OW94421   6.594   4.483   5.644 -0.5706 -0.1422 -0.3602
30805SOL    HW194422   6.626   4.549   5.582  0.4543 -1.0062 -0.7706
30805SOL    HW294423   6.525   4.437   5.597 -1.6546  0.9387  0.1070
30806SOL     OW94424  10.702  10.319   5.868 -0.0818 -0.6368  0.0225
30806SOL    HW194425  10.653  10.237   5.862 -1.9661  0.3504  1.0214
30806SOL    HW294426  10.636  10.386   5.885  1.2968  1.2655 -1.6444
30807SOL     OW94427   2.470   2.162   3.807  0.2080  0.1475  0.2392
30807SOL    HW194428   2.540   2.110   3.766  0.7268  0.5836  0.5616
30807SOL    HW294429   2.419   2.195   3.733  0.6078  0.1866 -0.0243
30808SOL     OW94430   0.216   7.898   8.450  0.1004 -1.0092  0.0465
30808SOL    HW194431   0.190   7.958   8.380  1.5611 -1.4345 -0.9124
30808SOL    HW294432   0.261   7.953   8.514 -2.4309 -0.3831  1.3907
30809SOL     OW94433   4.886   0.236   1.132  0.4655 -0.6728 -0.1653
30809SOL    HW194434   4.976   0.252   1.159  0.0704 -1.6175  1.8524
30809SOL    HW294435   4.865   0.150   1.168 -0.9304 -0.9211 -1.4801
30810SOL     OW94436   0.833   6.006   5.553  0.2774 -0.3875  0.5245
30810SOL    HW194437   0.756   5.979   5.602  1.1552 -0.2874  2.0278
30810SOL    HW294438   0.799   6.058   5.480 -1.1046 -1.1382  0.6010
30811SOL     OW94439   5.288   2.434   4.162 -0.0090 -0.1642 -0.7665
30811SOL    HW194440   5.381   2.446   4.180 -0.3147  1.2834  0.0763
30811SOL    HW294441   5.284   2.360   4.103  1.6407 -0.5834 -0.4098
30812SOL     OW94442   8.383   0.379   5.980 -0.4685  0.7900  0.1358
30812SOL    HW194443   8.384   0.455   6.038  1.3814  0.0887  1.1215
30812SOL    HW294444   8.475   0.360   5.964 -0.9115 -0.4931 -1.1151
30813SOL     OW94445   3.111   0.198   3.653 -0.2250  0.2778 -0.0101
30813SOL    HW194446   3.026   0.238   3.634 -0.2802  0.1956  0.0619
30813SOL    HW294447   3.172   0.272   3.656 -0.0239  0.1979 -1.5337
30814SOL     OW94448   6.812   2.510   0.340  0.1859  0.3063  0.1837
30814SOL    HW194449   6.719   2.531   0.338 -0.0568 -0.6580  0.7497
30814SOL    HW294450   6.856   2.594   0.353 -0.5520  0.8598 -0.7640
30815SOL     OW94451   2.882   4.355   5.747 -0.5928  0.1828  0.0543
30815SOL    HW194452   2.967   4.399   5.752 -1.4822  2.3199 -2.0909
30815SOL    HW294453   2.818   4.426   5.745 -2.4566 -1.3624  1.1572
30816SOL     OW94454   4.762   1.331  11.065 -1.1680 -0.0051  0.3891
30816SOL    HW194455   4.808   1.411  11.042  0.7608 -0.3371  2.6812
30816SOL    HW294456   4.717   1.352  11.147 -0.0563 -1.4026  1.4136
30817SOL     OW94457   7.999   0.211   8.551  0.7271  0.2561 -0.0770
30817SOL    HW194458   8.079   0.164   8.574  0.3139  0.1109  1.1292
30817SOL    HW294459   8.029   0.296   8.520  1.3485  0.1498  0.2177
30818SOL     OW94460   2.148   9.263   1.976 -0.4843  0.2425  0.3211
30818SOL    HW194461   2.139   9.201   1.903  2.7117 -0.0604  0.0816
30818SOL    HW294462   2.134   9.209   2.054 -0.9611 -0.0616  0.0332
30819SOL     OW94463   5.946   4.022   8.780 -0.3394 -0.6536 -0.8320
30819SOL    HW194464   6.014   3.956   8.767  1.5287  1.1376 -0.6326
30819SOL    HW294465   5.986   4.087   8.837 -2.2066  0.5117 -0.7749
30820SOL     OW94466   6.990   0.990   3.142  0.0221 -1.0017 -0.1426
30820SOL    HW194467   6.925   1.049   3.106  1.3863  2.0656  1.9745
30820SOL    HW294468   6.943   0.941   3.209 -0.7944 -1.1944 -0.8405
30821SOL     OW94469   0.506   5.124   8.757  0.4747  0.0483 -0.0349
30821SOL    HW194470   0.542   5.211   8.775  1.0042 -0.2475  0.3695
30821SOL    HW294471   0.579   5.075   8.719  0.2479 -0.2924 -0.0317
30822SOL     OW94472   1.810   0.669   2.703  0.1864 -0.6146  0.3684
30822SOL    HW194473   1.755   0.613   2.758 -0.4849 -1.0113 -0.6739
30822SOL    HW294474   1.771   0.662   2.616  2.9517 -2.3974 -0.8673
30823SOL     OW94475   4.413   5.440   3.190 -0.1747 -0.7267 -0.0639
30823SOL    HW194476   4.427   5.533   3.207 -1.7420 -0.2780 -1.0242
30823SOL    HW294477   4.378   5.406   3.272  1.6268 -0.7861  0.7167
30824SOL     OW94478  10.811   8.095   7.809  0.3224 -0.0379 -0.2215
30824SOL    HW194479  10.804   8.131   7.720 -0.2685 -0.2796 -0.2739
30824SOL    HW294480  10.773   8.163   7.865 -1.7670 -0.9835 -0.4215
30825SOL     OW94481   2.917   2.254   4.155 -0.3397 -0.5592  0.4247
30825SOL    HW194482   2.852   2.232   4.088  1.1142 -0.4324 -1.1148
30825SOL    HW294483   2.915   2.180   4.215  0.6625 -2.4130 -1.6675
30826SOL     OW94484   9.134   5.269   6.449  0.2642  0.3725 -0.0547
30826SOL    HW194485   9.091   5.353   6.438  0.5875  1.0058  2.7433
30826SOL    HW294486   9.226   5.290   6.463  0.5602 -0.5525 -0.5118
30827SOL     OW94487   6.649   1.523   2.016 -0.0967 -0.1042 -0.0023
30827SOL    HW194488   6.617   1.532   2.106  0.0828 -0.4220  0.0932
30827SOL    HW294489   6.581   1.565   1.962  0.0417  0.5386  0.3200
30828SOL     OW94490   2.033   4.684  10.077  0.5421  0.0622  0.0215
30828SOL    HW194491   2.112   4.644  10.113  0.6032 -0.6240 -0.8264
30828SOL    HW294492   2.065   4.750  10.015  0.4434  1.6957  1.6318
30829SOL     OW94493   4.133   7.226   1.253  0.3097 -0.7484 -0.1230
30829SOL    HW194494   4.053   7.275   1.271 -1.0585 -2.0646 -2.2246
30829SOL    HW294495   4.193   7.292   1.218 -0.9436 -0.2435 -1.4155
30830SOL     OW94496   7.217   1.822   8.921  0.4334 -0.2004 -0.8264
30830SOL    HW194497   7.266   1.806   8.840  2.1789 -0.3246  0.2002
30830SOL    HW294498   7.209   1.735   8.961 -0.2065 -0.1031 -0.7422
30831SOL     OW94499   4.556   7.998   1.308 -0.2525  0.0710 -0.4540
30831SOL    HW194500   4.478   8.049   1.285 -0.5230 -0.2198 -0.2017
30831SOL    HW294501   4.569   7.938   1.234 -0.9302 -0.6423 -0.0136
30832SOL     OW94502   5.235   5.200   4.996 -0.1063  0.1042  0.2963
30832SOL    HW194503   5.316   5.250   4.990  0.2627 -0.4600  0.4829
30832SOL    HW294504   5.229   5.177   5.089  0.1290 -0.8415  0.0890
30833SOL     OW94505   5.601   3.935   3.580 -0.2422 -0.0597  0.0074
30833SOL    HW194506   5.599   3.921   3.486 -1.7370 -0.9692  0.1395
30833SOL    HW294507   5.663   3.871   3.613 -0.6354 -0.5824 -0.2544
30834SOL     OW94508  10.029   2.739   7.998 -0.1682  0.2869 -0.0079
30834SOL    HW194509  10.054   2.679   7.928  0.9680  0.9186 -0.1636
30834SOL    HW294510  10.062   2.698   8.078 -1.7390 -0.5888  0.2271
30835SOL     OW94511   0.256  10.810   2.651  0.0887  0.2097 -0.4879
30835SOL    HW194512   0.270  10.718   2.673 -1.5827 -0.0067 -0.1847
30835SOL    HW294513   0.339  10.853   2.674  0.3918 -0.9789  0.7898
30836SOL     OW94514   2.956   8.910   3.199 -0.5227  0.1509  0.1687
30836SOL    HW194515   2.972   8.995   3.158 -0.0941  0.6117  1.2560
30836SOL    HW294516   3.038   8.862   3.189 -1.0722 -0.5439 -1.3261
30837SOL     OW94517   5.771   5.327   7.245 -0.5648 -0.3805 -0.5344
30837SOL    HW194518   5.854   5.291   7.214  0.0805  0.9461 -0.3940
30837SOL    HW294519   5.722   5.345   7.165 -0.4249 -0.4841 -0.6444
30838SOL     OW94520   5.491   0.799   5.626  0.2081  0.6031 -0.2789
30838SOL    HW194521   5.573   0.847   5.617  0.6266  0.4444  1.9914
30838SOL    HW294522   5.442   0.847   5.693 -0.1861 -1.0168  0.6633
30839SOL     OW94523   2.356   1.493   7.497 -0.4322  0.3649  0.7623
30839SOL    HW194524   2.297   1.450   7.435 -0.6647  2.1884 -0.3766
30839SOL    HW294525   2.306   1.569   7.528  0.7325  1.0731  0.9731
30840SOL     OW94526   7.900   8.760   7.982  0.3815 -1.0600 -0.6333
30840SOL    HW194527   7.978   8.799   7.945 -0.3112  0.9910 -0.0704
30840SOL    HW294528   7.911   8.769   8.077 -0.7435 -0.2552 -0.5605
30841SOL     OW94529   6.710   9.587   3.200 -0.3559  0.5752 -0.3926
30841SOL    HW194530   6.629   9.546   3.229  0.2004 -0.5091 -0.2762
30841SOL    HW294531   6.683   9.654   3.137 -1.3332  0.1840 -0.4061
30842SOL     OW94532  10.550   3.132   8.632  0.4113 -0.4700  0.0576
30842SOL    HW194533  10.580   3.171   8.550  0.5404 -1.0618 -0.1812
30842SOL    HW294534  10.602   3.052   8.641 -1.9202 -2.2051 -0.9998
30843SOL     OW94535   9.237   1.785   5.491 -0.0468 -0.0765 -0.0658
30843SOL    HW194536   9.293   1.806   5.566  1.4344  0.1778 -1.1976
30843SOL    HW294537   9.285   1.716   5.443 -0.6017  0.2678 -1.1576
30844SOL     OW94538   8.530   2.965   5.368  0.2034 -0.0579  0.3723
30844SOL    HW194539   8.508   2.920   5.449  0.5398 -0.8853  0.0137
30844SOL    HW294540   8.445   2.986   5.329  0.0336  0.6785  1.1060
30845SOL     OW94541   0.208   1.357   6.267 -0.7897  0.0182 -0.3043
30845SOL    HW194542   0.208   1.330   6.175  0.4154 -2.7108  0.3949
30845SOL    HW294543   0.284   1.415   6.275  0.3341 -1.3242 -0.6972
30846SOL     OW94544   1.474   1.666   9.132  0.2905 -0.0734 -0.1247
30846SOL    HW194545   1.485   1.747   9.183 -0.8236 -0.7679  1.2937
30846SOL    HW294546   1.429   1.694   9.053 -0.0392  0.7211  0.3246
30847SOL     OW94547   7.711   6.315   7.559 -0.4398 -0.9606 -0.2596
30847SOL    HW194548   7.677   6.375   7.492  0.3924 -0.6950 -0.4617
30847SOL    HW294549   7.636   6.261   7.584 -0.9678 -0.4815 -0.7805
30848SOL     OW94550   6.252   3.173   3.364  0.0435 -0.5799 -0.2237
30848SOL    HW194551   6.329   3.159   3.310 -0.8893 -1.4835 -1.3660
30848SOL    HW294552   6.197   3.096   3.349 -0.9558 -0.1051  0.7925
30849SOL     OW94553   8.303   0.096   5.229 -0.0152  0.5995  0.6580
30849SOL    HW194554   8.385   0.115   5.274  0.9262 -1.6764  0.0769
30849SOL    HW294555   8.238   0.092   5.298  0.7416  0.5219  1.3829
30850SOL     OW94556   4.993   4.350   1.368 -0.4151  0.3071  0.1065
30850SOL    HW194557   4.957   4.300   1.441  1.7571  1.0022  1.7705
30850SOL    HW294558   4.917   4.379   1.319 -1.8545 -2.2690  0.6362
30851SOL     OW94559   8.002   2.783   2.593 -0.2667 -0.3082  0.0343
30851SOL    HW194560   8.042   2.866   2.566 -1.9706  0.3252 -0.6750
30851SOL    HW294561   7.936   2.808   2.657 -0.0427 -1.2413  0.6395
30852SOL     OW94562   9.493   0.589   2.792  0.4739 -0.0246  0.1374
30852SOL    HW194563   9.431   0.663   2.789 -0.0725 -0.4782  0.0391
30852SOL    HW294564   9.574   0.627   2.824  0.2116  0.6362  0.0329
30853SOL     OW94565   6.411   2.853   3.029 -0.0245  0.1944  0.2772
30853SOL    HW194566   6.486   2.802   3.001 -0.9347 -0.3961 -1.2211
30853SOL    HW294567   6.345   2.788   3.055  0.2403  0.7039  2.4645
30854SOL     OW94568   3.014   4.773   8.770  0.3542 -0.5027 -0.1664
30854SOL    HW194569   3.061   4.796   8.850  1.5489 -0.0471 -0.9584
30854SOL    HW294570   3.050   4.833   8.704 -3.2420  1.8075 -0.3291
30855SOL     OW94571   6.680   9.054  10.232 -0.4425  0.1441 -0.2694
30855SOL    HW194572   6.766   9.074  10.194 -1.0515  0.8845 -1.3471
30855SOL    HW294573   6.681   9.096  10.318  0.2995  0.1005 -0.2558
30856SOL     OW94574   9.325   6.694   2.357  0.1863  0.0861  0.5185
30856SOL    HW194575   9.292   6.670   2.444  0.4860  1.9649  1.1952
30856SOL    HW294576   9.278   6.774   2.335  1.6652  0.8200 -0.0936
30857SOL     OW94577   9.408   3.855   1.836  0.2282  0.1484 -0.7416
30857SOL    HW194578   9.494   3.833   1.800  0.7377 -0.2694  0.6797
30857SOL    HW294579   9.427   3.898   1.919 -0.8939  1.7639 -1.2703
30858SOL     OW94580   5.198   9.277   3.018 -0.4335  0.1856  0.4709
30858SOL    HW194581   5.278   9.310   2.978  0.1646 -0.2118  1.3323
30858SOL    HW294582   5.195   9.318   3.104 -0.4544 -0.8321  0.9701
30859SOL     OW94583   6.824   7.805   4.243  0.2492 -0.2817  0.3205
30859SOL    HW194584   6.837   7.889   4.200  2.7472 -0.1665  1.0808
30859SOL    HW294585   6.738   7.775   4.214 -0.5870  2.3669 -0.2058
30860SOL     OW94586   7.715   0.851   2.203  0.3248  0.4311  0.4419
30860SOL    HW194587   7.763   0.918   2.251  1.7987  1.0895 -1.7843
30860SOL    HW294588   7.675   0.898   2.130 -1.0413 -0.6663  0.4484
30861SOL     OW94589  10.653   9.871   2.979  0.2961 -0.1704  0.4107
30861SOL    HW194590  10.597   9.948   2.988 -2.1312 -2.0133  2.3106
30861SOL    HW294591  10.676   9.847   3.069  0.1759 -2.2063 -0.0589
30862SOL     OW94592   0.208   0.539   4.703  0.4210  0.9100 -0.4870
30862SOL    HW194593   0.222   0.457   4.656  1.5270  2.7365 -3.7085
30862SOL    HW294594   0.262   0.532   4.782  1.3589 -1.0267 -1.2538
30863SOL     OW94595   5.700  10.852   2.285  0.6748 -0.1763 -0.1259
30863SOL    HW194596   5.640  10.868   2.213  1.0239  0.0309 -0.3746
30863SOL    HW294597   5.644  10.823   2.357  0.3851 -0.9130 -0.6423
30864SOL     OW94598   8.459   1.920   0.714 -0.6448 -0.0893  0.1626
30864SOL    HW194599   8.394   1.882   0.773  1.1152 -2.8221  0.5204
30864SOL    HW294600   8.463   1.859   0.641  1.6940 -0.1891  0.3092
30865SOL     OW94601   9.939   6.000   2.908 -0.2993  0.3876  0.9694
30865SOL    HW194602   9.904   6.042   2.830  0.4753  0.2723  0.5594
30865SOL    HW294603   9.949   5.908   2.883 -1.6077 -0.0037  1.7323
30866SOL     OW94604   9.042   0.789   5.270  0.1967  0.4962 -0.3143
30866SOL    HW194605   9.135   0.793   5.246  1.1308 -0.5677  2.6442
30866SOL    HW294606   9.014   0.702   5.240  0.6859  0.1122  0.3042
30867SOL     OW94607   5.990  10.250   8.075  0.2276  0.7327 -0.1298
30867SOL    HW194608   6.014  10.233   7.984  0.9551 -1.1688  0.3674
30867SOL    HW294609   5.948  10.169   8.104 -0.3115  1.4312  1.1464
30868SOL     OW94610   1.090  10.633   7.201 -0.4970 -0.4404 -0.2833
30868SOL    HW194611   1.004  10.620   7.243 -0.0869 -1.6059  0.2235
30868SOL    HW294612   1.130  10.705   7.251 -0.3999 -1.1832  0.7514
30869SOL     OW94613   2.294  10.984   7.886 -0.4232  0.1259  0.5007
30869SOL    HW194614   2.292  10.993   7.981  2.0549 -0.4895  0.6646
30869SOL    HW294615   2.254  10.899   7.869  2.0760 -1.3428  1.3566
30870SOL     OW94616   1.380  10.782   2.668  0.0068 -0.4708 -0.3408
30870SOL    HW194617   1.406  10.711   2.728  0.6220 -1.4551 -1.7075
30870SOL    HW294618   1.291  10.759   2.641 -0.2881 -0.0029  0.2072
30871SOL     OW94619   6.889   2.717   8.082  0.2050 -0.1960  0.4437
30871SOL    HW194620   6.874   2.796   8.134  0.1370 -0.2119  0.4483
30871SOL    HW294621   6.939   2.746   8.006  0.5540 -0.2200  0.6641
30872SOL     OW94622  10.997   5.720  10.611  0.4946 -0.4121  0.0395
30872SOL    HW194623  11.008   5.627  10.591  0.8139 -0.3796  0.0672
30872SOL    HW294624  10.945   5.753  10.538  1.0932 -0.4360 -0.4020
30873SOL     OW94625   5.940   2.567   9.015  0.0884  0.1199  0.2675
30873SOL    HW194626   5.974   2.630   9.079  2.1532 -0.1798 -0.4690
30873SOL    HW294627   5.849   2.593   9.003  1.0960  3.7914 -0.8936
30874SOL     OW94628   4.797   4.497   0.535  1.1538 -0.2311 -0.0720
30874SOL    HW194629   4.865   4.513   0.600 -0.4813  0.6853  1.4988
30874SOL    HW294630   4.764   4.409   0.555  0.8209 -0.0507  0.1747
30875SOL     OW94631   8.987   1.481   0.136 -0.8379 -0.1993  0.0554
30875SOL    HW194632   9.061   1.537   0.112 -1.4745  0.5907 -0.0823
30875SOL    HW294633   8.960   1.511   0.223 -2.3274  0.9644 -0.7584
30876SOL     OW94634   1.105   4.192   7.693  0.3038  0.2822  0.0699
30876SOL    HW194635   1.071   4.257   7.631  0.5627  0.0810 -0.2850
30876SOL    HW294636   1.029   4.167   7.745  0.0112  0.2271 -0.3718
30877SOL     OW94637   0.745   2.117   9.852  0.4492  0.1747  0.4263
30877SOL    HW194638   0.798   2.192   9.877  0.5495  0.1856  0.1840
30877SOL    HW294639   0.779   2.045   9.905  0.5707  0.2282  0.4210
30878SOL     OW94640   0.029   8.210   3.901  1.2201  0.2166  0.0645
30878SOL    HW194641   0.112   8.172   3.872  1.0891  0.6955 -0.9631
30878SOL    HW294642   0.002   8.267   3.830  0.6779  1.1250  0.9752
30879SOL     OW94643   2.285   0.401   0.418 -0.1161 -0.0517 -0.1230
30879SOL    HW194644   2.292   0.330   0.353  1.3918 -0.5409  0.5249
30879SOL    HW294645   2.244   0.360   0.494  0.5806 -0.1855  0.1840
30880SOL     OW94646   2.536  10.620   7.756  1.0788  0.3167  0.0292
30880SOL    HW194647   2.603  10.552   7.743  0.4595  0.1140 -2.4123
30880SOL    HW294648   2.477  10.582   7.821  2.1243 -0.3923  0.6159
30881SOL     OW94649   0.583   1.920   7.150 -0.8658  0.2396  0.0832
30881SOL    HW194650   0.672   1.920   7.186 -0.8045  1.1404 -0.0498
30881SOL    HW294651   0.527   1.913   7.228 -0.6776 -1.8005  0.0820
30882SOL     OW94652   7.833   8.297   0.697 -0.2084  0.6823 -0.6156
30882SOL    HW194653   7.874   8.380   0.723 -0.2839  1.0401 -1.5799
30882SOL    HW294654   7.742   8.305   0.726 -0.1398  0.8158 -0.4372
30883SOL     OW94655   9.445   0.034   0.931 -0.5871  0.3402  0.9237
30883SOL    HW194656   9.401   0.115   0.957  0.1964  1.1052 -0.0550
30883SOL    HW294657   9.415  -0.031   0.994  0.1780  1.7889  2.8683
30884SOL     OW94658   5.056   5.918   8.241 -0.1679 -0.0928 -0.6784
30884SOL    HW194659   4.992   5.931   8.170  1.1329  1.9670 -1.5556
30884SOL    HW294660   5.131   5.972   8.216  0.7759 -0.1513  1.7659
30885SOL     OW94661   8.541   2.860   9.306  0.2227  0.1518 -0.5974
30885SOL    HW194662   8.532   2.819   9.220 -0.6957  0.0410 -0.4594
30885SOL    HW294663   8.633   2.886   9.310  0.4006 -0.2957 -1.4046
30886SOL     OW94664   9.932   0.215   7.932  0.7114  0.6100 -0.4335
30886SOL    HW194665   9.962   0.256   7.850  2.2862  1.8663  0.7178
30886SOL    HW294666   9.958   0.123   7.924 -0.4059  0.3810 -1.8990
30887SOL     OW94667   5.344   1.430   6.313 -0.1877  0.5554 -0.1316
30887SOL    HW194668   5.259   1.411   6.273 -0.2105 -0.2391  0.2796
30887SOL    HW294669   5.400   1.359   6.283  0.1186  0.6286  0.2724
30888SOL     OW94670   6.338   5.438   9.912 -0.6995  0.5614 -0.1929
30888SOL    HW194671   6.376   5.399   9.991  0.6258 -1.3722 -1.6749
30888SOL    HW294672   6.261   5.383   9.894 -2.5415  2.5793  1.0961
30889SOL     OW94673   7.038   3.289   9.082  0.1127  0.4111 -0.3281
30889SOL    HW194674   7.061   3.198   9.062  0.8209  0.8260 -1.5087
30889SOL    HW294675   7.060   3.300   9.175  2.9124  0.1930 -0.8698
30890SOL     OW94676   8.899   5.001   6.235  0.0896  0.0980  0.2373
30890SOL    HW194677   8.974   5.035   6.187 -0.6246  2.6419  0.7716
30890SOL    HW294678   8.937   4.948   6.305  1.1768 -2.5440 -2.1799
30891SOL     OW94679   9.168   5.009   8.877 -0.1621 -0.2403  0.1111
30891SOL    HW194680   9.187   5.004   8.783  1.1169  0.3528  0.3154
30891SOL    HW294681   9.177   4.919   8.908 -2.2195 -0.7528 -0.5821
30892SOL     OW94682   7.918   1.831   6.440  0.1492  0.3501  0.7591
30892SOL    HW194683   7.892   1.764   6.503  1.3674  0.6355  1.5994
30892SOL    HW294684   8.013   1.841   6.453  0.4015  0.5687 -0.9771
30893SOL     OW94685   4.561   3.976   4.941  0.2710  0.1765 -0.1515
30893SOL    HW194686   4.497   4.037   4.905 -0.1549 -0.4170 -0.4120
30893SOL    HW294687   4.624   4.032   4.987 -2.0000  0.6731  2.6755
30894SOL     OW94688   6.344   9.936   9.325  0.3440 -0.3057 -0.1079
30894SOL    HW194689   6.315  10.027   9.331  0.5567 -0.2238 -0.2934
30894SOL    HW294690   6.406   9.926   9.398  1.6906  0.2204 -1.1359
30895SOL     OW94691   5.080   1.730   7.380 -0.4388  0.3714 -0.0593
30895SOL    HW194692   5.152   1.671   7.404 -0.5349  0.5138  0.5982
30895SOL    HW294693   5.122   1.797   7.326  0.6352  2.2564  2.8179
30896SOL     OW94694   8.235   2.858   6.827  0.0115  0.1707  0.0196
30896SOL    HW194695   8.228   2.920   6.899  1.0461 -0.4064  0.6539
30896SOL    HW294696   8.295   2.900   6.765 -0.3835  0.4004 -0.2039
30897SOL     OW94697   6.827   1.997   6.973  0.8529 -0.5743 -0.0192
30897SOL    HW194698   6.806   1.937   6.901  0.3500 -0.4777  0.0422
30897SOL    HW294699   6.917   1.974   6.998  0.8325 -0.9816 -0.3076
30898SOL     OW94700   7.017   0.845   8.207 -0.0118  0.0704  0.4904
30898SOL    HW194701   6.949   0.909   8.227  0.5462  0.7279  0.3198
30898SOL    HW294702   7.020   0.789   8.285  1.8542  2.3531  2.2531
30899SOL     OW94703   0.676   7.088   8.641  0.3653 -0.5375  0.0888
30899SOL    HW194704   0.771   7.100   8.645  0.3575 -0.0147 -1.0831
30899SOL    HW294705   0.658   7.027   8.712  1.7768 -1.8151 -0.5775
30900SOL     OW94706   7.018   1.724   1.526  0.0772 -0.2266 -0.1961
30900SOL    HW194707   6.995   1.649   1.472 -1.1035  0.2868 -0.4320
30900SOL    HW294708   7.100   1.699   1.569  0.4787 -1.0546 -1.4031
30901SOL     OW94709   0.727   0.829   5.519  0.3483  0.4104  0.1535
30901SOL    HW194710   0.637   0.804   5.538  0.8133 -1.1028  0.5258
30901SOL    HW294711   0.776   0.746   5.524  1.6898  1.1477 -0.3960
30902SOL     OW94712   9.614   4.352   0.562 -0.6099 -0.1124 -0.2190
30902SOL    HW194713   9.695   4.402   0.551  0.0449 -0.6755  1.7128
30902SOL    HW294714   9.549   4.419   0.583 -0.2581  0.1563  0.0295
30903SOL     OW94715   5.406   1.157   9.847 -0.1294  0.5794  0.1055
30903SOL    HW194716   5.424   1.136   9.938  0.6188 -0.2851 -0.2274
30903SOL    HW294717   5.468   1.104   9.797 -1.0481  0.4532 -0.9432
30904SOL     OW94718   0.051   3.730   3.916  0.3039  0.6195 -0.8694
30904SOL    HW194719  -0.038   3.761   3.899  0.0404  0.7166  0.5941
30904SOL    HW294720   0.106   3.808   3.907  0.0386  0.8809 -0.2454
30905SOL     OW94721   5.211   0.507   9.905 -0.0620 -0.3406 -0.4344
30905SOL    HW194722   5.158   0.461   9.840  0.1507 -1.4741  0.1806
30905SOL    HW294723   5.150   0.567   9.948 -1.1940 -2.4712  1.0910
30906SOL     OW94724   8.307   2.719  10.076 -0.4827  0.4909 -0.1982
30906SOL    HW194725   8.399   2.742  10.065 -0.2878 -0.5788 -1.0162
30906SOL    HW294726   8.266   2.741   9.992 -0.6107 -0.5688 -0.4338
30907SOL     OW94727   9.049   2.677   8.747 -0.6568  0.6219  0.0380
30907SOL    HW194728   9.030   2.583   8.748  1.1385  0.2000  0.9383
30907SOL    HW294729   9.143   2.681   8.726 -0.6040  2.1797  0.4910
30908SOL     OW94730   3.419  10.074  10.835  0.5339  0.2905  0.3018
30908SOL    HW194731   3.410   9.981  10.815 -0.5596  0.0527  1.6864
30908SOL    HW294732   3.510  10.085  10.863  1.7721  0.4085 -3.2648
30909SOL     OW94733   8.886   1.402   4.773 -0.0995  0.3676 -0.2119
30909SOL    HW194734   8.973   1.439   4.784 -0.4472  1.1971 -0.2254
30909SOL    HW294735   8.902   1.310   4.750  0.7840  0.6675 -0.8448
30910SOL     OW94736   5.899   6.924   8.401 -0.3924  0.2046 -0.0122
30910SOL    HW194737   5.888   6.987   8.330 -0.0346  0.5727  0.2619
30910SOL    HW294738   5.849   6.847   8.372 -1.5169  0.9051  0.0304
30911SOL     OW94739   8.563   9.667   6.340 -0.4492 -0.1395  0.1737
30911SOL    HW194740   8.501   9.597   6.362  0.6026 -0.7943  1.1415
30911SOL    HW294741   8.642   9.621   6.311  0.0655  0.6524  0.2946
30912SOL     OW94742   8.250   3.333   4.876 -0.0708 -0.7963 -0.1142
30912SOL    HW194743   8.163   3.355   4.910  0.9176  0.4273  1.7887
30912SOL    HW294744   8.285   3.270   4.939  0.4629 -1.2329 -0.8263
30913SOL     OW94745   6.611   6.836   4.214  0.3899 -0.6106 -0.0369
30913SOL    HW194746   6.584   6.911   4.161 -1.6434 -1.3878 -0.1773
30913SOL    HW294747   6.624   6.765   4.150  0.0444 -0.9836  0.3058
30914SOL     OW94748   9.731   3.669   6.695 -0.0760 -0.1717  0.0431
30914SOL    HW194749   9.734   3.627   6.781 -0.9128  0.6588  0.4939
30914SOL    HW294750   9.800   3.735   6.698 -2.2210  2.1346  1.3411
30915SOL     OW94751   2.761   3.776   7.311 -0.0926  0.3129  0.0401
30915SOL    HW194752   2.805   3.759   7.227  0.2435 -1.7245  0.5705
30915SOL    HW294753   2.674   3.738   7.301  0.7062 -2.0984  1.2981
30916SOL     OW94754   7.021   1.587   3.053 -0.4036  0.4674  0.9251
30916SOL    HW194755   7.044   1.631   3.135  2.8506 -0.6482  0.7594
30916SOL    HW294756   6.958   1.520   3.079  1.0371 -0.2955  2.6846
30917SOL     OW94757   6.527   5.105   8.049 -0.5566 -0.1004  0.0204
30917SOL    HW194758   6.486   5.064   8.125  0.2432  0.5685  0.8408
30917SOL    HW294759   6.594   5.163   8.086  0.7515 -0.7313 -1.2380
30918SOL     OW94760   5.490   1.469  10.335 -0.0767  0.1267  0.2072
30918SOL    HW194761   5.528   1.519  10.263 -1.1170 -0.6823 -0.9476
30918SOL    HW294762   5.533   1.384  10.330 -2.0780 -0.8935 -1.2845
30919SOL     OW94763   9.239   8.275   4.202  0.5661  0.3401  0.2756
30919SOL    HW194764   9.220   8.191   4.243  1.5639 -1.5862 -2.9127
30919SOL    HW294765   9.153   8.317   4.194  0.2314  0.4961  3.3478
30920SOL     OW94766   6.656   1.684  10.312  0.0920  0.3324  0.3792
30920SOL    HW194767   6.622   1.598  10.287  0.6366  0.0327  0.6432
30920SOL    HW294768   6.593   1.716  10.376 -1.2287  1.0415 -1.1980
30921SOL     OW94769   9.914   3.269   8.575 -0.0262 -0.1399 -0.3204
30921SOL    HW194770   9.841   3.219   8.539 -0.5581  0.2797  0.1420
30921SOL    HW294771   9.991   3.215   8.560 -0.5488 -0.9627 -0.0775
30922SOL     OW94772   7.116   2.995   0.837 -0.2240  0.4555 -0.4200
30922SOL    HW194773   7.123   3.077   0.788  1.6638  1.4359  1.3295
30922SOL    HW294774   7.063   3.017   0.913 -0.1756 -0.1062 -0.2180
30923SOL     OW94775   5.512   0.248   9.476 -0.2229  0.4624 -0.0522
30923SOL    HW194776   5.602   0.221   9.459 -0.1154  0.8683 -0.1306
30923SOL    HW294777   5.459   0.188   9.424 -0.0401 -0.3123  0.6428
30924SOL     OW94778  11.001   0.896   0.787 -0.1789 -0.2260  0.0036
30924SOL    HW194779  10.985   0.852   0.871 -0.8225 -0.9528 -0.4864
30924SOL    HW294780  11.048   0.832   0.734  0.8615  0.4835  0.0380
30925SOL     OW94781   3.762   6.491   0.590  0.2766 -0.0201 -0.5487
30925SOL    HW194782   3.707   6.413   0.583 -1.1262  0.6786  1.7157
30925SOL    HW294783   3.732   6.548   0.519 -0.1753 -0.6579 -0.8822
30926SOL     OW94784   7.449   2.630   6.324 -0.1266  0.5134 -0.3601
30926SOL    HW194785   7.371   2.577   6.305  1.3616 -1.2475 -2.0847
30926SOL    HW294786   7.502   2.624   6.244  1.7151  1.7492  0.6868
30927SOL     OW94787   9.916   1.924   3.690  0.4741 -0.3062  0.0798
30927SOL    HW194788   9.868   1.909   3.609  0.2694 -1.3973  0.3831
30927SOL    HW294789   9.876   2.002   3.728  0.3590  0.0255 -0.6991
30928SOL     OW94790   7.488   5.832   7.615  0.0103  0.8646 -0.9450
30928SOL    HW194791   7.451   5.867   7.697  2.2858  0.4398  0.3543
30928SOL    HW294792   7.444   5.748   7.603  0.2192  0.5489  0.3258
30929SOL     OW94793   9.412   4.373   8.714 -0.1161  0.0786 -0.2961
30929SOL    HW194794   9.352   4.298   8.709  2.0993 -1.7380 -2.8966
30929SOL    HW294795   9.379   4.434   8.649 -0.4874  0.2239  0.0212
30930SOL     OW94796   6.660   7.985   5.752  0.3004  0.5625 -0.2016
30930SOL    HW194797   6.703   8.015   5.832 -2.2693  0.9050  1.1541
30930SOL    HW294798   6.652   7.891   5.764 -1.6654  0.8043  0.8830
30931SOL     OW94799   8.703   9.738   1.125 -0.5711  0.2940 -0.5250
30931SOL    HW194800   8.729   9.815   1.176  0.9884  0.0626 -0.9306
30931SOL    HW294801   8.624   9.767   1.079 -0.0326  1.6623 -0.6520
30932SOL     OW94802   0.392   5.445   0.868  0.2317 -0.6216 -0.9087
30932SOL    HW194803   0.359   5.526   0.828  0.5799 -0.1239 -0.2090
30932SOL    HW294804   0.329   5.378   0.842 -1.9583  0.4720  1.2009
30933SOL     OW94805  10.638  10.517   9.846  0.3651 -0.5255  0.1166
30933SOL    HW194806  10.608  10.559   9.766 -0.5753 -2.0869 -0.3858
30933SOL    HW294807  10.649  10.589   9.908  0.9457  0.6934 -1.3391
30934SOL     OW94808   5.995   2.288   1.694 -0.2500 -0.4456  1.1110
30934SOL    HW194809   5.934   2.305   1.622  1.5490 -1.1339 -0.6697
30934SOL    HW294810   5.994   2.369   1.745 -0.2293  0.7734 -0.7287
30935SOL     OW94811   6.072   4.183   8.943 -0.6135  0.3712  0.7420
30935SOL    HW194812   6.140   4.249   8.952  0.2624 -0.5447  1.1035
30935SOL    HW294813   6.007   4.206   9.010 -1.9910  2.7064 -1.2183
30936SOL     OW94814   8.486   3.082   2.693 -0.0450 -0.1775 -0.0611
30936SOL    HW194815   8.438   3.005   2.663  0.6638 -0.4698 -0.4702
30936SOL    HW294816   8.513   3.060   2.782 -0.2822 -0.1993  0.0047
30937SOL     OW94817   6.675   9.352   2.790  0.8167 -0.2298  0.2948
30937SOL    HW194818   6.590   9.321   2.821  0.2176  0.3397 -0.7355
30937SOL    HW294819   6.687   9.436   2.834  1.9772 -1.3540  2.2970
30938SOL     OW94820   6.595   6.419   1.754  0.1118  0.1964 -0.5405
30938SOL    HW194821   6.620   6.326   1.755 -0.3328  0.0719  0.4360
30938SOL    HW294822   6.607   6.448   1.845  0.1343  1.0649 -0.8152
30939SOL     OW94823   7.261   0.929   2.156  0.1255  0.2540 -0.4044
30939SOL    HW194824   7.216   0.939   2.072  0.9457  1.1957 -0.7543
30939SOL    HW294825   7.210   0.982   2.217  1.0964  1.8764 -0.9481
30940SOL     OW94826   9.845   6.864   8.528  0.4866  0.0211 -0.4116
30940SOL    HW194827   9.753   6.840   8.536  0.6604 -1.5014 -2.2599
30940SOL    HW294828   9.844   6.959   8.522 -0.7162  0.2367  1.9407
30941SOL     OW94829   7.597   1.529   6.779 -0.0963  0.0054  0.4732
30941SOL    HW194830   7.593   1.625   6.774 -0.1754 -0.0325 -0.5615
30941SOL    HW294831   7.653   1.505   6.705 -0.5416 -0.7782  0.3833
30942SOL     OW94832   5.900   2.280   6.018  0.3743  0.1167 -0.8187
30942SOL    HW194833   5.970   2.305   6.078 -0.3475 -0.3060  0.2418
30942SOL    HW294834   5.937   2.293   5.931  2.5358 -2.0826 -0.3429
30943SOL     OW94835   9.981   1.692   6.393  0.2771 -0.3566 -0.2639
30943SOL    HW194836  10.073   1.675   6.372  0.3904  0.3783 -0.3754
30943SOL    HW294837   9.983   1.765   6.455 -0.2902  0.4562 -1.1911
30944SOL     OW94838  10.395  10.788   0.801 -0.6858 -1.0464 -0.3022
30944SOL    HW194839  10.365  10.758   0.886  1.8485 -0.9242  0.7129
30944SOL    HW294840  10.412  10.708   0.752  0.9062 -1.2110  0.4797
30945SOL     OW94841   5.982   2.179  11.021 -0.0059  0.2346  0.5401
30945SOL    HW194842   6.043   2.176  10.947 -0.1023  0.7901  0.4318
30945SOL    HW294843   6.020   2.120  11.086 -0.6277 -1.3318 -0.4746
30946SOL     OW94844   9.654   2.459   7.055 -0.4289 -0.5866  0.0946
30946SOL    HW194845   9.671   2.381   7.108 -0.1958 -0.7921 -0.2813
30946SOL    HW294846   9.596   2.429   6.985 -1.3630 -0.1501  0.6678
30947SOL     OW94847   6.084   7.547   3.118  0.0421  0.1541 -0.0646
30947SOL    HW194848   6.073   7.475   3.180 -0.6169 -0.2226 -0.6016
30947SOL    HW294849   6.140   7.511   3.049  1.2550  0.7511  0.5730
30948SOL     OW94850   7.481   1.561   4.566  0.6870  0.1643  0.0548
30948SOL    HW194851   7.533   1.585   4.642 -1.2244  1.8622  0.9378
30948SOL    HW294852   7.412   1.504   4.601  1.6772 -1.8142 -1.0349
30949SOL     OW94853   8.354   6.458  10.880 -0.2114  0.5552  0.0482
30949SOL    HW194854   8.375   6.393  10.947  2.8486  0.7519 -0.5392
30949SOL    HW294855   8.348   6.407  10.799 -2.0811  0.5424  0.1576
30950SOL     OW94856   4.689   2.817   0.782  0.0216  0.2682  0.0927
30950SOL    HW194857   4.770   2.767   0.771  0.1049  0.3340  0.4014
30950SOL    HW294858   4.667   2.846   0.693  0.2081  0.0520 -0.0251
30951SOL     OW94859   4.346   6.990   0.561  0.2475 -0.4502  0.3207
30951SOL    HW194860   4.403   7.041   0.619  1.5773 -1.2029 -0.2941
30951SOL    HW294861   4.301   6.929   0.619 -0.6370  0.7394  0.9335
30952SOL     OW94862   1.157   0.786   4.095 -0.3691  0.2764 -0.2797
30952SOL    HW194863   1.137   0.800   4.188  0.6486 -0.7729  0.1223
30952SOL    HW294864   1.122   0.699   4.076  2.6772 -1.1648  0.1780
30953SOL     OW94865   6.387   9.542   6.669  0.3092 -0.4008 -0.0961
30953SOL    HW194866   6.358   9.517   6.581  1.3007 -0.8993 -0.2920
30953SOL    HW294867   6.472   9.584   6.655  0.8345 -1.1751  0.6952
30954SOL     OW94868   8.944   9.760   7.158  0.0263  0.0046 -0.1879
30954SOL    HW194869   8.853   9.791   7.157 -0.5266 -1.5146 -1.0235
30954SOL    HW294870   8.936   9.664   7.154  1.6652 -0.1667  0.0567
30955SOL     OW94871   0.491   5.805   6.264  0.4881 -0.0221 -0.1898
30955SOL    HW194872   0.460   5.847   6.183  1.1251 -0.0973 -0.4796
30955SOL    HW294873   0.584   5.829   6.269  0.3297  0.4087  0.7960
30956SOL     OW94874   1.120   1.161   5.297 -0.1581  0.6921  0.3765
30956SOL    HW194875   1.055   1.230   5.281  1.0916  1.7323 -0.4114
30956SOL    HW294876   1.080   1.082   5.261 -1.1789  1.2139  0.3276
30957SOL     OW94877   4.219   7.345   4.279  0.1135 -0.8104  0.2725
30957SOL    HW194878   4.258   7.278   4.337  0.0027  0.1067  1.4449
30957SOL    HW294879   4.127   7.320   4.272 -0.0717 -0.4227  1.2459
30958SOL     OW94880  10.101   2.565   5.586  0.2073 -0.1261 -0.2279
30958SOL    HW194881  10.159   2.508   5.637 -0.8484 -1.7075 -0.7079
30958SOL    HW294882  10.106   2.530   5.497 -0.3021  0.6752 -0.5744
30959SOL     OW94883   7.334   3.274   7.013 -0.1964 -0.4929 -0.3809
30959SOL    HW194884   7.308   3.184   6.994 -0.1200 -0.5352 -0.2891
30959SOL    HW294885   7.267   3.328   6.973 -0.4356 -0.6019 -0.1328
30960SOL     OW94886   0.441   3.895   9.080  0.0931  0.5918 -0.2503
30960SOL    HW194887   0.356   3.929   9.107  0.7259  0.9877  1.3861
30960SOL    HW294888   0.438   3.802   9.104 -0.2714  0.3347 -1.2471
30961SOL     OW94889   8.434   5.976   8.584 -0.1792  0.5340  0.4292
30961SOL    HW194890   8.405   5.886   8.595 -0.6598  0.8162  1.6281
30961SOL    HW294891   8.526   5.968   8.558 -1.3271 -0.3837 -4.0247
30962SOL     OW94892   7.628   4.212   0.106 -0.4709  0.2425 -0.1065
30962SOL    HW194893   7.641   4.132   0.056  0.6538  1.5604 -2.0996
30962SOL    HW294894   7.536   4.210   0.132 -0.7418 -1.1486 -1.0832
30963SOL     OW94895   4.891  10.193  10.058  1.2296  0.2978 -0.6953
30963SOL    HW194896   4.799  10.186  10.082  1.7179  1.4593  1.8202
30963SOL    HW294897   4.905  10.121   9.996 -1.2029 -0.2691 -0.6851
30964SOL     OW94898   8.580  10.649   7.193  0.0235  0.1083  0.8839
30964SOL    HW194899   8.658  10.633   7.140  0.1210 -0.5707  1.2166
30964SOL    HW294900   8.594  10.596   7.272 -1.7624 -1.7846  0.0075
30965SOL     OW94901   4.952   5.187   0.646  0.1643  0.6251  0.4010
30965SOL    HW194902   4.932   5.110   0.593  0.6742  0.0405  1.0504
30965SOL    HW294903   5.045   5.179   0.667  0.0726  1.0848  1.0180
30966SOL     OW94904   0.304   4.055   8.584  0.2516 -0.3620 -0.0858
30966SOL    HW194905   0.383   4.000   8.582 -0.4992 -1.4491 -0.4492
30966SOL    HW294906   0.232   3.993   8.574 -0.6416  0.6533 -0.0035
30967SOL     OW94907   6.269   0.169  11.065  0.0307  0.4007  0.0123
30967SOL    HW194908   6.296   0.209  11.148 -1.3972  0.0059  0.6966
30967SOL    HW294909   6.237   0.242  11.013  1.3514  0.7149 -0.3838
30968SOL     OW94910   1.466   1.323   3.211  0.1326  0.1457  0.3836
30968SOL    HW194911   1.558   1.348   3.203  0.4774 -1.4291 -1.3557
30968SOL    HW294912   1.466   1.251   3.274  0.2905 -0.6267 -0.4771
30969SOL     OW94913   4.015   5.601   2.687 -0.6039 -0.3417 -0.1952
30969SOL    HW194914   3.985   5.514   2.714  0.4887 -0.8830 -0.6834
30969SOL    HW294915   3.995   5.658   2.762  1.3358 -1.5932  1.3485
30970SOL     OW94916   0.855   2.009   1.847 -0.5331  0.0765 -0.1729
30970SOL    HW194917   0.861   2.088   1.901  1.7812 -1.1271  1.5315
30970SOL    HW294918   0.945   1.976   1.844 -1.3175 -2.1418 -1.3898
30971SOL     OW94919   0.144   2.580   0.170 -0.1041  0.1645 -0.0981
30971SOL    HW194920   0.087   2.649   0.201  1.1879  1.1935  0.0672
30971SOL    HW294921   0.211   2.571   0.238 -0.0805 -1.0377 -0.2573
30972SOL     OW94922  10.694   5.696  10.666 -0.5310 -0.4178  0.0138
30972SOL    HW194923  10.697   5.602  10.682 -2.7659 -0.6087 -0.2567
30972SOL    HW294924  10.667   5.703  10.574  1.1247  0.5221 -0.4250
30973SOL     OW94925   3.711   5.012   8.448 -0.4385 -0.5058 -0.6452
30973SOL    HW194926   3.678   4.993   8.360 -3.4808 -1.4548  0.5641
30973SOL    HW294927   3.663   4.951   8.505 -0.4842  1.7726  1.9526
30974SOL     OW94928   8.042   0.866   9.405  0.0983 -0.5535 -0.0502
30974SOL    HW194929   8.112   0.845   9.342  0.4135  2.3097 -0.7817
30974SOL    HW294930   7.961   0.852   9.356  0.2479 -0.7141 -0.2552
30975SOL     OW94931   2.688   5.915   0.227  0.2902 -0.0613  0.4732
30975SOL    HW194932   2.713   5.993   0.276  0.1401  0.3215 -0.0578
30975SOL    HW294933   2.748   5.912   0.153  0.4701 -0.6035  0.6318
30976SOL     OW94934   0.989   1.402  10.360 -0.3051  0.0899  0.8811
30976SOL    HW194935   1.028   1.380  10.275 -2.0508  0.9209 -0.1979
30976SOL    HW294936   1.002   1.324  10.413  0.8340 -0.4490 -0.1401
30977SOL     OW94937   7.560   3.474   9.659  0.4158 -0.3197  0.1356
30977SOL    HW194938   7.653   3.472   9.683  0.3737 -0.5892  0.2727
30977SOL    HW294939   7.557   3.536   9.586  0.8079 -0.7845 -0.2911
30978SOL     OW94940   8.051   4.068   9.016  0.1004  0.2565  0.2074
30978SOL    HW194941   8.038   4.133   8.947  0.0950  0.6283  0.5496
30978SOL    HW294942   7.967   4.067   9.063  0.4463  0.7848  0.8520
30979SOL     OW94943   6.179   0.053   1.083 -0.4197 -0.0703  0.0537
30979SOL    HW194944   6.142  -0.035   1.072  1.1628 -0.6881 -0.6687
30979SOL    HW294945   6.116   0.111   1.040 -1.3136 -0.8970  0.2310
30980SOL     OW94946   2.128   8.934   1.501 -1.3303  0.5032 -0.0667
30980SOL    HW194947   2.109   9.002   1.436 -2.0724  1.8704  1.5083
30980SOL    HW294948   2.220   8.946   1.522 -1.4141  0.9205  0.0778
30981SOL     OW94949   9.162   9.686   5.873 -0.0450 -0.1529 -0.2472
30981SOL    HW194950   9.179   9.734   5.954 -0.7059 -0.5673  0.1522
30981SOL    HW294951   9.243   9.692   5.823  0.2961  0.2936  0.3532
30982SOL     OW94952  10.198   7.312   9.910  0.0357 -0.3853  0.4475
30982SOL    HW194953  10.248   7.235   9.938 -0.8560 -0.5886  1.5242
30982SOL    HW294954  10.108   7.293   9.935 -0.4667  0.3137 -0.7678
30983SOL     OW94955   6.828   0.881   8.857 -0.3694 -0.6689  0.1736
30983SOL    HW194956   6.900   0.883   8.795 -0.0496  1.1438  0.5200
30983SOL    HW294957   6.870   0.892   8.943 -0.9666 -0.8455  0.4944
30984SOL     OW94958  10.649   4.317   1.829 -0.5007 -0.3289  0.3264
30984SOL    HW194959  10.600   4.386   1.785 -0.7327 -1.1457 -0.7344
30984SOL    HW294960  10.588   4.243   1.832  0.5740 -1.3024 -0.8645
30985SOL     OW94961  10.853   2.755  10.109  0.3406 -0.5442  0.8458
30985SOL    HW194962  10.919   2.744  10.041  1.0418 -0.9245  1.5794
30985SOL    HW294963  10.771   2.729  10.067  1.1051 -3.1576  0.8190
30986SOL     OW94964   9.021   1.846   6.851  0.1273 -0.1861 -0.0056
30986SOL    HW194965   9.108   1.879   6.827 -0.1511  0.1087 -0.6312
30986SOL    HW294966   8.981   1.918   6.900  0.3683 -0.4626  0.6133
30987SOL     OW94967   1.993  10.306   7.444 -0.0496  0.0351  0.5318
30987SOL    HW194968   1.951  10.386   7.413  1.2575  0.6356  0.2338
30987SOL    HW294969   1.957  10.237   7.388 -0.2237  0.6088 -0.0730
30988SOL     OW94970   4.309   6.932   0.295 -0.6568  0.1041 -1.3171
30988SOL    HW194971   4.262   6.851   0.273 -2.0871  0.4918  0.1061
30988SOL    HW294972   4.315   6.931   0.391 -1.5103  2.0926 -1.1983
30989SOL     OW94973   6.978   3.804   5.385 -0.6913 -0.5001 -0.5871
30989SOL    HW194974   7.030   3.783   5.308 -0.5150  0.2438 -0.6704
30989SOL    HW294975   6.947   3.893   5.371  1.9020  0.8827  1.5452
30990SOL     OW94976   1.926   5.440   5.912 -0.1749 -0.1805 -0.5943
30990SOL    HW194977   1.881   5.359   5.888 -1.1286  0.1580 -0.0326
30990SOL    HW294978   1.859   5.508   5.901  0.0555  0.2789  0.7086
30991SOL     OW94979   6.142   8.280   2.466 -0.7385  0.0588 -0.3787
30991SOL    HW194980   6.236   8.260   2.461 -0.4212  1.5288 -0.9993
30991SOL    HW294981   6.122   8.319   2.381 -1.6596  0.7416  0.1355
30992SOL     OW94982   1.420   4.787   0.130  0.2649 -0.2307 -0.2653
30992SOL    HW194983   1.337   4.800   0.083  0.9292  1.1098 -1.1234
30992SOL    HW294984   1.484   4.768   0.062  1.1443  1.1898  0.1306
30993SOL     OW94985   3.940   1.484   9.771  0.0212  0.7080 -0.0522
30993SOL    HW194986   3.915   1.504   9.861 -2.6193  1.4345 -0.8763
30993SOL    HW294987   3.962   1.390   9.773 -1.2163  0.4137  1.1074
30994SOL     OW94988   9.284   3.436   1.940  0.6262  0.1180 -0.6097
30994SOL    HW194989   9.282   3.463   1.848  1.4567  0.7585 -0.4584
30994SOL    HW294990   9.340   3.359   1.941  1.8813  1.0007 -0.4523
30995SOL     OW94991   5.680   0.256   4.190 -0.5622  0.5274 -0.2710
30995SOL    HW194992   5.701   0.230   4.100  0.3353 -0.8215  0.3060
30995SOL    HW294993   5.745   0.212   4.244 -1.4555  0.8299  1.1046
30996SOL     OW94994   5.499   5.405   3.266  0.1690  0.9618  0.2513
30996SOL    HW194995   5.499   5.328   3.208 -1.6558  1.4215 -0.4371
30996SOL    HW294996   5.532   5.372   3.349  0.2889 -0.3663 -0.2942
30997SOL     OW94997   8.815   5.385   0.535  0.0384  0.3266  0.0887
30997SOL    HW194998   8.820   5.302   0.582  2.3296  0.0159 -0.5466
30997SOL    HW294999   8.832   5.361   0.444 -2.0655  1.1886 -0.5850
30998SOL     OW95000   1.911   8.826   5.887 -0.2711  0.3651  0.1775
30998SOL    HW195001   1.955   8.887   5.828 -0.0062  0.4527  0.4621
30998SOL    HW295002   1.847   8.879   5.933  0.5650  0.6234  1.0661
30999SOL     OW95003   4.920   1.755   5.800  0.2675  0.0200 -0.0345
30999SOL    HW195004   4.870   1.680   5.767  0.4903 -0.2594  0.2549
30999SOL    HW295005   4.922   1.817   5.727 -1.5516  0.5823  0.3585
31000SOL     OW95006   0.565   2.889   6.447 -0.4513 -0.1308  0.5016
31000SOL    HW195007   0.534   2.891   6.357  0.3523 -0.1520  0.2165
31000SOL    HW295008   0.629   2.818   6.449 -1.1411 -0.7545  1.3197
31001SOL     OW95009   2.864   2.496   4.910  0.1149  0.0160  0.1851
31001SOL    HW195010   2.929   2.468   4.974  0.2552  1.0662  0.5273
31001SOL    HW295011   2.796   2.538   4.962 -0.2878 -0.0586 -0.2717
31002SOL     OW95012   7.743   4.734   2.164  0.6893 -0.0529  0.0044
31002SOL    HW195013   7.672   4.706   2.222  0.6055  1.4850  0.6828
31002SOL    HW295014   7.788   4.804   2.212  2.0982 -0.3548 -0.8053
31003SOL     OW95015   7.746   6.229  10.798 -0.5719 -0.0559 -0.1284
31003SOL    HW195016   7.824   6.174  10.786 -1.3958 -2.0659  2.7739
31003SOL    HW295017   7.684   6.196  10.733 -0.0052 -0.4188 -0.5033
31004SOL     OW95018   5.277   1.888   3.777 -0.0065 -0.2050  0.2299
31004SOL    HW195019   5.220   1.925   3.843 -0.3073  0.0339 -0.1593
31004SOL    HW295020   5.352   1.947   3.773  0.0594 -0.2765  0.4295
31005SOL     OW95021   8.771   1.693   7.988  0.2113  0.4425  0.0815
31005SOL    HW195022   8.811   1.666   7.905 -0.8045  1.5780 -0.8262
31005SOL    HW295023   8.773   1.615   8.043  1.0832 -0.2778 -0.9430
31006SOL     OW95024   3.339   8.173   4.258 -0.4717  0.1237 -0.5090
31006SOL    HW195025   3.245   8.155   4.259 -0.4714  0.0298 -1.6225
31006SOL    HW295026   3.378   8.095   4.298 -0.9755  1.1202  2.1873
31007SOL     OW95027   9.408   6.509   6.131  0.0836  0.1919 -0.5414
31007SOL    HW195028   9.471   6.578   6.154 -0.3434  0.6649 -0.7669
31007SOL    HW295029   9.388   6.525   6.039 -0.6418  0.2792 -0.3749
31008SOL     OW95030   0.032   0.430   6.127 -0.0029 -0.0308  0.1853
31008SOL    HW195031   0.042   0.346   6.172  0.8838  0.4547  0.9082
31008SOL    HW295032  -0.054   0.424   6.085 -2.1895  0.4754  4.1231
31009SOL     OW95033  10.460   5.452  10.834  0.5903  0.0571 -0.0694
31009SOL    HW195034  10.551   5.454  10.804  1.1607 -2.4908  1.1872
31009SOL    HW295035  10.448   5.364  10.869 -1.0221  1.5714  3.8802
31010SOL     OW95036   8.228   2.584   7.544 -0.1841  0.1312  0.5666
31010SOL    HW195037   8.202   2.577   7.452 -0.3178  0.5937  0.5646
31010SOL    HW295038   8.183   2.663   7.575 -0.2996 -0.1369  1.0835
31011SOL     OW95039   4.703   3.597   4.686 -0.0869 -0.5392 -0.3355
31011SOL    HW195040   4.611   3.595   4.660 -0.0597  0.4064 -0.5499
31011SOL    HW295041   4.705   3.558   4.773 -0.5479 -1.4379 -0.7158
31012SOL     OW95042   4.297   2.102   3.934 -0.2814  0.1831  0.1390
31012SOL    HW195043   4.376   2.094   3.881  0.1738  1.7691  0.5253
31012SOL    HW295044   4.231   2.051   3.887  1.3032 -2.4136  0.5725
31013SOL     OW95045   8.440   6.817   2.999 -0.2834  0.1572  0.4836
31013SOL    HW195046   8.479   6.739   3.038 -2.9213  0.1906  3.6874
31013SOL    HW295047   8.412   6.869   3.074 -2.2852  2.2070 -1.5420
31014SOL     OW95048   8.342   9.971   8.176  0.6507  0.5233 -0.0069
31014SOL    HW195049   8.281  10.020   8.121 -0.0251  0.6098  0.7948
31014SOL    HW295050   8.380   9.906   8.118 -1.7107 -0.8642 -0.1053
31015SOL     OW95051   8.465   1.996   7.916 -0.8883  0.4573  0.4034
31015SOL    HW195052   8.516   2.075   7.934  0.9932 -0.8265  0.9592
31015SOL    HW295053   8.506   1.960   7.837 -1.8701  0.1323  0.0343
31016SOL     OW95054   4.979   5.607   9.241 -0.1496 -0.0517 -0.2506
31016SOL    HW195055   5.008   5.664   9.312 -1.4926 -0.5669  0.7658
31016SOL    HW295056   4.886   5.627   9.231 -0.9544 -2.7167  0.8531
31017SOL     OW95057   2.097   2.210   1.869 -0.1543 -0.1525 -0.1004
31017SOL    HW195058   2.033   2.260   1.920  0.3432 -0.7199  1.1259
31017SOL    HW295059   2.149   2.164   1.935  0.0135 -1.5374 -1.1577
31018SOL     OW95060   9.902   1.502   7.341  0.4868 -0.0635  0.3968
31018SOL    HW195061   9.980   1.450   7.322  1.2186  1.0176  0.3535
31018SOL    HW295062   9.879   1.478   7.431  1.8378  0.7918  0.9935
31019SOL     OW95063   7.915   2.621   8.493 -0.2620 -0.6034 -0.8424
31019SOL    HW195064   7.950   2.536   8.517 -0.6528 -1.0502 -1.7814
31019SOL    HW295065   7.852   2.642   8.562  1.4370 -0.0074  0.6009
31020SOL     OW95066   8.395   8.412   9.990  0.5408 -0.1595  0.0542
31020SOL    HW195067   8.337   8.467   9.937  1.0100  0.0242 -0.2770
31020SOL    HW295068   8.457   8.375   9.927 -0.2220 -1.6871  0.1561
31021SOL     OW95069   4.750   2.678   7.110  0.2899 -0.0287  0.7513
31021SOL    HW195070   4.668   2.655   7.156 -0.0890  2.0213  1.1759
31021SOL    HW295071   4.725   2.683   7.018 -0.6821  2.8118  1.0850
31022SOL     OW95072   7.423   1.847   6.910  0.6107 -0.2555  0.1896
31022SOL    HW195073   7.448   1.849   6.818  0.1914 -0.0375  0.0777
31022SOL    HW295074   7.391   1.935   6.929 -3.2340 -1.2653 -0.5956
31023SOL     OW95075   2.131   3.153   8.787  0.0635  0.4592  0.0723
31023SOL    HW195076   2.085   3.090   8.842  0.9657 -1.3992 -1.1762
31023SOL    HW295077   2.194   3.196   8.845  0.4577 -0.8854  0.6613
31024SOL     OW95078   2.305   9.831   2.018 -0.6488 -0.5073 -0.1570
31024SOL    HW195079   2.295   9.736   2.026  1.2296 -0.6516  0.7805
31024SOL    HW295080   2.316   9.862   2.107 -2.2750  0.7774 -0.3406
31025SOL     OW95081   9.708   1.301   7.169 -0.0083  0.1200  0.5447
31025SOL    HW195082   9.797   1.266   7.177  0.2183  0.3686 -0.7374
31025SOL    HW295083   9.704   1.338   7.081 -1.4689 -0.1169  0.4803
31026SOL     OW95084  10.356   4.892   6.024 -0.1897  0.2064  0.1559
31026SOL    HW195085  10.287   4.874   5.961  0.2334  0.7866 -0.4804
31026SOL    HW295086  10.367   4.987   6.022  2.0607 -0.0167 -1.3090
31027SOL     OW95087   4.750   1.571   5.146 -0.4171 -0.0631 -0.2377
31027SOL    HW195088   4.665   1.534   5.123 -0.7265  0.5468 -0.1048
31027SOL    HW295089   4.805   1.496   5.168 -0.8819 -0.4685 -0.4586
31028SOL     OW95090   4.955   3.149   5.485  0.3077  0.0945  0.0728
31028SOL    HW195091   4.922   3.070   5.528  0.4227  0.2221  0.3975
31028SOL    HW295092   4.877   3.203   5.472  0.4590  0.6553  1.3862
31029SOL     OW95093   7.303   1.452   5.563  0.2123 -0.5270 -0.2061
31029SOL    HW195094   7.302   1.467   5.658 -1.3525  0.8421 -0.3809
31029SOL    HW295095   7.395   1.458   5.539  0.5783 -0.2441  1.1373
31030SOL     OW95096   0.857   5.282   2.243  0.1732  0.1170 -0.1406
31030SOL    HW195097   0.845   5.200   2.292 -0.6017  0.4940  0.3062
31030SOL    HW295098   0.771   5.301   2.206 -0.1829  1.7920  1.4435
31031SOL     OW95099   1.880   5.435   5.227  0.2814  0.0159 -0.4642
31031SOL    HW195100   1.882   5.490   5.305 -1.8053 -1.0351  0.4104
31031SOL    HW295101   1.917   5.352   5.255 -0.1849 -0.2639 -0.6514
31032SOL     OW95102   2.002   4.714   7.604 -0.2852 -0.1151  0.3079
31032SOL    HW195103   1.983   4.789   7.662  0.4963  0.7528 -0.5150
31032SOL    HW295104   2.084   4.678   7.639  0.9422  1.2485 -0.9868
31033SOL     OW95105   5.857   2.645   0.593  0.0701 -0.4143  0.2825
31033SOL    HW195106   5.882   2.596   0.671 -1.0791 -1.2304  0.1689
31033SOL    HW295107   5.767   2.672   0.610 -0.4424 -1.1961 -1.0306
31034SOL     OW95108   3.695   1.590   8.563  0.1001 -0.1555 -0.7298
31034SOL    HW195109   3.644   1.600   8.643  2.1239 -0.7119  0.7048
31034SOL    HW295110   3.762   1.659   8.567 -0.3315  0.4316 -2.4485
31035SOL     OW95111   7.267   9.756   3.619  0.3072  0.2218  0.2830
31035SOL    HW195112   7.329   9.805   3.672  0.3521  1.8741 -1.2231
31035SOL    HW295113   7.290   9.778   3.528  0.8078 -3.1648 -0.5546
31036SOL     OW95114   5.660  10.219   8.996 -0.1025 -0.1772  0.6697
31036SOL    HW195115   5.701  10.143   9.038  0.9647  0.0423  0.0824
31036SOL    HW295116   5.566  10.208   9.011  0.1494 -0.7925  1.9324
31037SOL     OW95117   9.367   0.278   0.977 -0.2233 -0.0230  0.2133
31037SOL    HW195118   9.300   0.278   1.045 -0.4469 -3.1648  0.1627
31037SOL    HW295119   9.318   0.282   0.895 -0.1846  0.1932  0.2006
31038SOL     OW95120   0.761   3.857   7.145  0.5136 -0.3580 -0.1241
31038SOL    HW195121   0.769   3.947   7.114 -0.6231  0.0193  0.6208
31038SOL    HW295122   0.670   3.848   7.171  0.7827 -1.5065  0.5215
31039SOL     OW95123   6.256  10.369   6.265 -0.3634 -0.0342  0.1447
31039SOL    HW195124   6.271  10.321   6.346  2.5708 -2.2877 -1.5439
31039SOL    HW295125   6.299  10.453   6.279  2.4782 -1.3740  0.1583
31040SOL     OW95126   5.967   5.755   9.019 -0.4455 -0.5340  0.1005
31040SOL    HW195127   6.003   5.824   8.962 -0.4587 -1.7030 -1.3764
31040SOL    HW295128   6.043   5.723   9.068 -0.5420  0.9162  1.2584
31041SOL     OW95129   5.554   8.015   4.682 -0.5402 -0.0777  0.3265
31041SOL    HW195130   5.523   7.950   4.619  1.5955 -1.7102  0.8624
31041SOL    HW295131   5.536   7.976   4.768 -0.7286  0.7898  0.6936
31042SOL     OW95132   8.486   8.849   8.403 -0.3057  0.3490 -0.3159
31042SOL    HW195133   8.392   8.853   8.386 -0.2065 -1.4708 -1.5329
31042SOL    HW295134   8.521   8.930   8.366 -0.8863 -0.8640 -3.8375
31043SOL     OW95135   9.454   1.422   7.126 -0.2172 -0.3999  0.1431
31043SOL    HW195136   9.512   1.453   7.056 -0.3868  0.0928  0.2140
31043SOL    HW295137   9.503   1.351   7.168  0.0424 -0.4531 -0.2378
31044SOL     OW95138   0.419   7.364   8.243 -0.5751  0.6402 -0.5848
31044SOL    HW195139   0.470   7.313   8.306 -1.4847  0.1212 -0.2518
31044SOL    HW295140   0.459   7.451   8.245 -0.0065  0.3796  0.0160
31045SOL     OW95141   4.202   1.694   6.721 -0.2056 -0.3504  0.2341
31045SOL    HW195142   4.168   1.621   6.772 -0.3138  0.1916  0.9632
31045SOL    HW295143   4.197   1.769   6.781 -1.6306  0.6133 -1.0161
31046SOL     OW95144   8.249   6.742   1.579 -0.1656  0.5666  0.4647
31046SOL    HW195145   8.254   6.650   1.554  1.0330  0.9559 -0.8635
31046SOL    HW295146   8.296   6.788   1.509 -0.3345  2.1378  1.3510
31047SOL     OW95147   1.754   4.404   6.517 -0.6634 -0.0094  0.0803
31047SOL    HW195148   1.822   4.471   6.519  0.0584 -0.7137  2.5100
31047SOL    HW295149   1.681   4.443   6.564 -0.8834 -0.3050 -0.0149
31048SOL     OW95150   2.911   6.056   5.486  0.5544  0.1600  0.3780
31048SOL    HW195151   2.963   6.125   5.527 -1.0810  1.3600  0.5558
31048SOL    HW295152   2.835   6.046   5.544 -0.8805  0.5722 -1.3392
31049SOL     OW95153   8.452   1.551   6.310  0.1828  0.2116  0.2904
31049SOL    HW195154   8.469   1.592   6.225  0.6261 -0.4734  0.0446
31049SOL    HW295155   8.373   1.499   6.296  0.7953 -0.6634  0.0256
31050SOL     OW95156   6.256   9.526   6.059  0.1749  0.9723 -0.0128
31050SOL    HW195157   6.171   9.489   6.083  0.7042  1.1400  2.3642
31050SOL    HW295158   6.266   9.503   5.966 -1.3233 -1.2838  0.2871
31051SOL     OW95159   0.677   9.415   5.908 -0.3697 -0.1131  0.4298
31051SOL    HW195160   0.689   9.507   5.883  0.3865 -0.1728  0.5445
31051SOL    HW295161   0.634   9.418   5.993 -0.1197  0.1371  0.5472
31052SOL     OW95162   4.617   4.206   3.678  0.3622  0.2046  0.2048
31052SOL    HW195163   4.680   4.150   3.633  2.3741  1.6976  1.0399
31052SOL    HW295164   4.669   4.255   3.742 -1.8968  0.3897  2.0326
31053SOL     OW95165   6.701   2.000   7.449  0.2415 -0.5518  0.2594
31053SOL    HW195166   6.616   2.000   7.494 -0.2713  0.2951 -0.6395
31053SOL    HW295167   6.681   2.037   7.362  1.4761 -0.6445 -0.0787
31054SOL     OW95168   4.770   0.513   5.708  0.3263 -0.3464 -1.0948
31054SOL    HW195169   4.778   0.420   5.686 -0.4828 -1.1208  1.4667
31054SOL    HW295170   4.683   0.538   5.676  0.7942 -0.2721 -2.3420
31055SOL     OW95171  10.172   6.680   9.441  0.0948  0.1756  0.1261
31055SOL    HW195172  10.188   6.634   9.359 -1.8018  0.7122 -0.5935
31055SOL    HW295173  10.090   6.727   9.427  1.2888  2.7849  1.2723
31056SOL     OW95174   2.965   4.938   4.955  0.3363  0.1187 -0.5480
31056SOL    HW195175   2.894   4.940   4.890  0.3256 -1.4244 -0.6148
31056SOL    HW295176   2.972   5.028   4.985  0.2068  0.8571 -2.5528
31057SOL     OW95177   1.485   6.287   5.279 -0.3880  0.4769  0.0445
31057SOL    HW195178   1.539   6.241   5.343  0.1681  2.1525  0.8349
31057SOL    HW295179   1.490   6.234   5.200 -0.1596 -1.0419  1.0486
31058SOL     OW95180  10.190   3.964   6.925  0.4153  0.4526  0.4167
31058SOL    HW195181  10.285   3.960   6.931  0.5822 -0.4956 -1.6576
31058SOL    HW295182  10.167   4.051   6.957  2.1097  1.1329 -0.0878
31059SOL     OW95183  10.779   1.616  10.526 -0.2134 -0.5827  0.2056
31059SOL    HW195184  10.693   1.643  10.492  1.2979  4.8934 -0.2250
31059SOL    HW295185  10.766   1.607  10.620 -1.3980 -0.5795  0.0586
31060SOL     OW95186   0.307   3.760   7.393 -0.1428  0.1567  0.8224
31060SOL    HW195187   0.218   3.755   7.358  1.3964 -0.7217 -3.5075
31060SOL    HW295188   0.327   3.671   7.420  0.7776 -0.7542 -2.4445
31061SOL     OW95189   1.918   9.552   7.811  1.1143  0.5259 -0.3847
31061SOL    HW195190   2.007   9.574   7.785  0.8440  0.9552 -0.9568
31061SOL    HW295191   1.862   9.605   7.755  0.4812 -0.1382 -0.4035
31062SOL     OW95192   9.147   1.135   0.484 -0.2604  0.0824 -0.3634
31062SOL    HW195193   9.069   1.081   0.474 -0.7627  0.8303 -0.5605
31062SOL    HW295194   9.220   1.076   0.466 -0.7913 -0.5670 -0.4012
31063SOL     OW95195   5.145   0.474   9.027  0.0814  0.2991  0.7054
31063SOL    HW195196   5.239   0.466   9.012  0.1350  1.6053  0.1854
31063SOL    HW295197   5.107   0.467   8.940 -0.3438 -0.6366  0.9620
31064SOL     OW95198   8.608   0.710   1.866  0.2482  0.4966  0.4804
31064SOL    HW195199   8.570   0.660   1.794  1.5928  0.6639 -0.3905
31064SOL    HW295200   8.536   0.763   1.900 -0.9755 -1.3281  0.8233
31065SOL     OW95201   4.088   0.595   8.972 -0.5454 -0.0922 -0.3585
31065SOL    HW195202   4.049   0.581   9.059 -0.3693  0.6492 -0.1585
31065SOL    HW295203   4.163   0.536   8.970  0.1142  0.7001  0.4275
31066SOL     OW95204   8.843   6.318   7.216  0.0214  0.1392 -0.1201
31066SOL    HW195205   8.832   6.224   7.231 -1.7794  0.5848  1.9103
31066SOL    HW295206   8.922   6.341   7.266 -0.3342 -0.0811  0.5577
31067SOL     OW95207   3.947   3.567   7.107 -0.2207  0.0315  0.9989
31067SOL    HW195208   4.028   3.614   7.128 -0.4918 -0.4076  3.2532
31067SOL    HW295209   3.957   3.482   7.150 -1.4560 -0.4287  0.4185
31068SOL     OW95210  10.464   2.432   9.102 -0.5229  0.4993  0.1669
31068SOL    HW195211  10.430   2.411   9.015 -1.1888  0.8661  0.3289
31068SOL    HW295212  10.412   2.378   9.162  0.0589  0.1081  0.3318
31069SOL     OW95213   8.949   1.164   2.136  0.3921 -0.2398 -0.3504
31069SOL    HW195214   9.039   1.193   2.150  0.3111  0.2617 -0.7901
31069SOL    HW295215   8.914   1.148   2.223  1.6037 -2.6873 -0.2373
31070SOL     OW95216   8.745   7.449   2.623  0.1737 -0.5353 -0.1447
31070SOL    HW195217   8.733   7.523   2.564  0.1121 -1.4510 -1.3142
31070SOL    HW295218   8.814   7.397   2.583 -0.8134 -1.8861 -0.1479
31071SOL     OW95219   2.789   1.432   4.539 -0.3598 -0.1178 -0.3337
31071SOL    HW195220   2.867   1.434   4.484 -0.1716 -1.0845 -0.1271
31071SOL    HW295221   2.750   1.518   4.529  0.1816  0.0352 -1.2447
31072SOL     OW95222   6.426   1.658   6.753 -0.4867  0.7492 -0.3134
31072SOL    HW195223   6.362   1.729   6.761  0.7799  1.9035  0.0078
31072SOL    HW295224   6.420   1.610   6.835 -0.4751  1.2652 -0.0097
31073SOL     OW95225   8.323   1.198   8.432 -0.3291  0.0498 -0.0583
31073SOL    HW195226   8.278   1.118   8.460  0.7916  0.1072  2.1437
31073SOL    HW295227   8.253   1.264   8.428 -1.0707 -0.7483 -0.7523
31074SOL     OW95228   6.998  10.785  10.640 -0.2456 -0.6663  0.1057
31074SOL    HW195229   7.049  10.861  10.665 -0.5231  0.0331 -1.3093
31074SOL    HW295230   7.050  10.710  10.669  1.1395  0.0301 -0.4816
31075SOL     OW95231   7.700   5.622   7.105 -0.3367 -0.3775  0.2659
31075SOL    HW195232   7.681   5.666   7.022 -0.0740 -2.2033 -0.8205
31075SOL    HW295233   7.729   5.693   7.163 -1.3129  1.0711 -0.9160
31076SOL     OW95234  10.680   0.579   8.119 -0.1062 -0.0282  0.1296
31076SOL    HW195235  10.644   0.564   8.032  0.2052 -1.7548  0.2756
31076SOL    HW295236  10.627   0.650   8.155  0.4786  1.5145 -1.8543
31077SOL     OW95237   0.861   9.166   0.065 -0.2336 -0.2819  0.2509
31077SOL    HW195238   0.883   9.133   0.152  0.1882 -0.6242  0.0175
31077SOL    HW295239   0.781   9.217   0.078  0.7136  1.0751  1.1497
31078SOL     OW95240   7.688   2.263   6.074  0.2130  0.1604  0.7739
31078SOL    HW195241   7.612   2.271   6.017  0.2576  0.3989  0.7445
31078SOL    HW295242   7.728   2.179   6.051 -0.9010 -0.6870  1.8449
31079SOL     OW95243   0.567   0.293   4.934 -0.1201  0.1360  0.3378
31079SOL    HW195244   0.484   0.249   4.914  0.3215 -0.1247 -0.9719
31079SOL    HW295245   0.593   0.334   4.852  0.4385  1.2634  1.0523
31080SOL     OW95246   6.412   9.794   7.818  0.0784  0.2185  0.2126
31080SOL    HW195247   6.431   9.847   7.895 -2.0061  0.4962  0.5925
31080SOL    HW295248   6.401   9.857   7.747  0.3780  0.0810  0.0422
31081SOL     OW95249   5.618   1.137   4.127 -0.0267 -0.5290  0.2001
31081SOL    HW195250   5.542   1.106   4.078  0.5619  0.4282 -1.3835
31081SOL    HW295251   5.633   1.068   4.192 -1.6972 -1.1574 -0.0073
31082SOL     OW95252   7.653   0.256   1.060  0.1422 -0.0781  0.3975
31082SOL    HW195253   7.645   0.221   0.971 -3.7556 -1.0325  0.9270
31082SOL    HW295254   7.666   0.179   1.115 -2.1410 -0.1309  0.9791
31083SOL     OW95255   6.281   2.484   5.667 -0.0672 -0.6531 -0.1220
31083SOL    HW195256   6.189   2.469   5.690 -0.2425 -0.6784 -0.8077
31083SOL    HW295257   6.294   2.577   5.685 -0.6181 -0.3357 -1.2730
31084SOL     OW95258   8.644  10.721   3.620 -0.3831 -0.6237  0.3222
31084SOL    HW195259   8.683  10.796   3.666  1.3835 -2.0252  1.2415
31084SOL    HW295260   8.709  10.651   3.629 -1.2566 -1.8184 -1.9037
31085SOL     OW95261   4.886   4.400   8.287 -0.0574  0.1486  0.1628
31085SOL    HW195262   4.843   4.424   8.369  0.1991  2.4692 -0.3345
31085SOL    HW295263   4.900   4.482   8.241  1.6337 -0.8870 -1.3356
31086SOL     OW95264   7.138   8.204   8.119  0.3171  0.4931 -0.2272
31086SOL    HW195265   7.165   8.213   8.028  0.3946 -0.4326 -0.3011
31086SOL    HW295266   7.045   8.184   8.115  0.6912 -1.4777 -0.2194
31087SOL     OW95267   8.230   3.668   3.743 -0.0751 -0.3037  0.3656
31087SOL    HW195268   8.231   3.577   3.714 -0.1681 -0.1681 -0.0837
31087SOL    HW295269   8.215   3.664   3.837 -4.3290 -0.6593 -0.1306
31088SOL     OW95270   5.916   4.190   9.821 -0.4641  0.4059  0.1305
31088SOL    HW195271   5.824   4.165   9.816 -0.6772  1.2354 -0.2852
31088SOL    HW295272   5.928   4.221   9.910 -0.8689  1.3174 -0.1216
31089SOL     OW95273   5.772   2.270   0.836 -0.2715 -0.2266  0.5053
31089SOL    HW195274   5.740   2.247   0.748  1.7335 -0.1070 -0.3210
31089SOL    HW295275   5.851   2.218   0.846  1.0884  1.8396  1.0491
31090SOL     OW95276  10.103  10.431   7.401  0.1477  0.3918  0.0128
31090SOL    HW195277  10.013  10.457   7.418 -0.0491  0.3466 -0.9234
31090SOL    HW295278  10.157  10.499   7.442 -0.2828 -0.0005  1.2744
31091SOL     OW95279   4.313   9.204   6.105 -0.8585  0.3839 -0.3558
31091SOL    HW195280   4.408   9.196   6.117 -0.7803  1.6160 -0.0080
31091SOL    HW295281   4.303   9.228   6.013 -0.6958  1.8999 -0.0061
31092SOL     OW95282   7.223   6.879  10.963  0.0891  0.1044 -0.3837
31092SOL    HW195283   7.276   6.913  11.035  0.5163  0.3906 -0.8245
31092SOL    HW295284   7.146   6.936  10.961 -0.1319 -0.1725  0.1145
31093SOL     OW95285   7.383   0.193   8.054  0.2786 -0.5555  0.2319
31093SOL    HW195286   7.310   0.131   8.061 -1.5528  1.5141  0.4726
31093SOL    HW295287   7.375   0.230   7.966  1.3579 -0.6486  0.0804
31094SOL     OW95288  10.348   6.565  10.615 -0.5131  0.0465  0.4283
31094SOL    HW195289  10.435   6.555  10.577 -0.3091 -1.3599  1.2151
31094SOL    HW295290  10.288   6.559  10.541  0.0489  1.1045 -0.1298
31095SOL     OW95291  10.196   0.099   5.751 -0.1430 -0.2744  0.0296
31095SOL    HW195292  10.261   0.163   5.779 -1.2469  0.5659  0.7195
31095SOL    HW295293  10.111   0.139   5.770 -0.9268 -0.8035 -1.9945
31096SOL     OW95294   0.488   4.770   9.563 -0.3854  0.1478 -0.6222
31096SOL    HW195295   0.532   4.690   9.533 -1.5843 -0.1685 -1.6029
31096SOL    HW295296   0.556   4.817   9.612  0.5119 -1.1874 -0.5092
31097SOL     OW95297   9.296   7.860   2.907 -0.5592 -0.3958 -0.6773
31097SOL    HW195298   9.219   7.897   2.865  0.4474  0.7984 -1.5748
31097SOL    HW295299   9.304   7.772   2.870 -0.5484  0.0885 -1.8806
31098SOL     OW95300   9.431   2.083   3.852  0.3748  0.0496  0.4893
31098SOL    HW195301   9.396   2.111   3.768  0.7374  0.2021  0.3902
31098SOL    HW295302   9.475   2.000   3.834 -0.5129 -0.4937  0.7418
31099SOL     OW95303   7.413   8.025  10.127 -0.2338  0.0313  0.2150
31099SOL    HW195304   7.378   8.081  10.058 -0.1281 -0.4646 -0.2556
31099SOL    HW295305   7.482   8.077  10.168 -0.0453  0.1969 -0.3046
31100SOL     OW95306  10.644   0.838   8.609  0.0873 -0.1902  0.2207
31100SOL    HW195307  10.683   0.780   8.674 -0.5810 -0.3338  0.5121
31100SOL    HW295308  10.559   0.798   8.589  0.4561 -0.3666 -1.0535
31101SOL     OW95309   8.397   0.332   8.828  0.2950 -0.7482 -0.0070
31101SOL    HW195310   8.307   0.364   8.817  0.2201 -0.4351  1.2755
31101SOL    HW295311   8.387   0.248   8.872  0.6405 -0.2014  1.1694
31102SOL     OW95312   9.294   7.670   8.033 -0.0337 -0.2579  0.3582
31102SOL    HW195313   9.241   7.737   8.076  1.6887  0.5986  1.2433
31102SOL    HW295314   9.383   7.703   8.037  0.8633 -2.5274  0.6574
31103SOL     OW95315   9.257   6.751  10.665  0.6600  0.1051  0.4255
31103SOL    HW195316   9.350   6.738  10.647  0.4634 -1.0803  0.2355
31103SOL    HW295317   9.220   6.778  10.581  0.3487 -2.1565 -0.2180
31104SOL     OW95318   8.489  10.919   7.225 -0.4826  0.7668  0.0142
31104SOL    HW195319   8.507  10.827   7.209  0.4893  1.4298 -3.8309
31104SOL    HW295320   8.399  10.921   7.259  0.1532 -1.6028  2.1018
31105SOL     OW95321   4.619   1.469   9.882  0.5382 -0.0421 -0.0101
31105SOL    HW195322   4.565   1.485   9.805  0.5459 -1.3983 -0.3328
31105SOL    HW295323   4.688   1.534   9.878 -0.6439  1.2624  0.0124
31106SOL     OW95324   7.976   0.981   0.157 -0.0977 -0.1611  0.7589
31106SOL    HW195325   8.002   0.905   0.209 -1.0617  2.1249  5.0501
31106SOL    HW295326   7.882   0.971   0.145 -0.1241  0.0345  0.7926
31107SOL     OW95327   5.836   4.469   7.983  0.9263 -0.2608  0.2055
31107SOL    HW195328   5.792   4.436   7.904  1.1231 -1.1169  0.4457
31107SOL    HW295329   5.764   4.494   8.041  0.7273  2.3573 -0.9840
31108SOL     OW95330   8.659   2.424   1.004  0.3077  0.2024 -0.0982
31108SOL    HW195331   8.663   2.391   0.915  0.4962  0.3723 -0.1546
31108SOL    HW295332   8.737   2.388   1.046  0.5919  0.6889 -0.2014
31109SOL     OW95333   9.737   3.135   8.403  0.0373  0.1365 -0.6671
31109SOL    HW195334   9.678   3.067   8.434 -0.1090 -0.2368 -1.7130
31109SOL    HW295335   9.766   3.104   8.317  1.5823  0.4212 -0.2814
31110SOL     OW95336   0.907   2.327  10.827  0.0330 -0.2845  0.0768
31110SOL    HW195337   0.824   2.283  10.808  1.2363 -1.6163 -2.5934
31110SOL    HW295338   0.925   2.305  10.918 -0.9278 -2.8423 -0.2512
31111SOL     OW95339   0.141   4.049   1.055  0.1307 -0.3225 -0.0169
31111SOL    HW195340   0.201   4.105   1.006 -0.2715  0.9855  0.9460
31111SOL    HW295341   0.196   4.008   1.122  0.0256  0.6183  0.6552
31112SOL     OW95342   1.160   1.526   8.869 -0.3269 -0.2742 -0.1835
31112SOL    HW195343   1.068   1.520   8.845 -0.1385 -2.2634 -0.6209
31112SOL    HW295344   1.207   1.513   8.786  0.3138 -3.8216  0.5487
31113SOL     OW95345   1.476   2.954   5.842  0.3218 -0.3075  0.3420
31113SOL    HW195346   1.474   3.050   5.837 -1.5525 -0.0620  3.3261
31113SOL    HW295347   1.567   2.933   5.863  0.7034  0.8186 -0.1138
31114SOL     OW95348   8.226   1.859   9.512 -0.0595  0.9795  0.4072
31114SOL    HW195349   8.291   1.875   9.580  0.6401 -1.9364  0.5632
31114SOL    HW295350   8.259   1.783   9.464 -1.6605  1.5526 -1.7718
31115SOL     OW95351   9.815   1.921   0.003 -0.1806  0.1226 -0.0825
31115SOL    HW195352   9.766   1.860  -0.053  0.5340 -0.3080 -0.2539
31115SOL    HW295353   9.865   1.974  -0.059 -1.0618  1.1468  0.0448
31116SOL     OW95354   8.911   9.551   2.847  0.0720  0.1502  0.4674
31116SOL    HW195355   8.920   9.493   2.922  0.8997  1.1001  1.1268
31116SOL    HW295356   9.001   9.573   2.822 -0.1687  2.9283  1.6719
31117SOL     OW95357   9.908   9.342   7.851 -0.5278  0.3314  0.1834
31117SOL    HW195358   9.881   9.297   7.931 -1.6292 -2.2302 -1.5069
31117SOL    HW295359   9.841   9.409   7.837 -0.8553  0.1537  0.8629
31118SOL     OW95360   9.674   9.192   5.829  0.2571 -0.1191  0.0460
31118SOL    HW195361   9.721   9.274   5.812  1.2419 -0.8449 -0.8562
31118SOL    HW295362   9.627   9.208   5.911 -0.0668  1.5559 -0.4306
31119SOL     OW95363   6.182   0.108   3.376  0.4252 -0.2153 -0.1836
31119SOL    HW195364   6.161   0.155   3.296  1.8109  0.3657 -0.2386
31119SOL    HW295365   6.197   0.018   3.347  2.3149  0.2559 -0.8693
31120SOL     OW95366   8.847   9.002   2.511 -0.1881  0.7372 -0.6496
31120SOL    HW195367   8.866   8.986   2.418 -0.3849  1.0933 -0.7504
31120SOL    HW295368   8.765   8.955   2.527  1.8641 -2.9566  0.3956
31121SOL     OW95369   6.685   4.565   6.714 -0.6061  0.3630 -0.1087
31121SOL    HW195370   6.752   4.524   6.659 -2.4087 -2.2709 -0.5158
31121SOL    HW295371   6.637   4.622   6.654 -0.5421 -0.0043 -0.5143
31122SOL     OW95372   5.962   2.560   1.843  0.6993  0.3142  0.2930
31122SOL    HW195373   5.872   2.570   1.812  0.6097  0.7175  0.6745
31122SOL    HW295374   5.967   2.615   1.920  1.1936  0.0616  0.4459
31123SOL     OW95375   5.968   3.609   7.101 -0.3411 -0.4858 -0.3506
31123SOL    HW195376   5.924   3.534   7.141  1.5114 -0.8571  1.1343
31123SOL    HW295377   6.013   3.572   7.024 -0.8282 -0.5313 -0.6189
31124SOL     OW95378   4.221   7.953   9.502 -0.3238 -0.4230 -0.3987
31124SOL    HW195379   4.250   7.881   9.558 -2.1114 -2.4212 -1.8966
31124SOL    HW295380   4.251   7.929   9.415 -1.0682  0.5896 -0.9552
31125SOL     OW95381   8.073   6.904   3.285  0.2050 -0.0427  0.8350
31125SOL    HW195382   8.003   6.969   3.273  0.4162  0.0335 -0.0518
31125SOL    HW295383   8.117   6.931   3.365 -0.3412  0.3254  1.0153
31126SOL     OW95384   6.625   3.064  10.070 -0.0334  0.1060  0.5063
31126SOL    HW195385   6.534   3.037  10.078 -0.5521  1.3331 -0.8185
31126SOL    HW295386   6.667   2.994  10.020 -1.3643  1.5499 -2.9415
31127SOL     OW95387   7.200   3.653   8.379 -0.8482  0.1305  0.0424
31127SOL    HW195388   7.208   3.648   8.474  0.5711 -2.8071 -0.1186
31127SOL    HW295389   7.128   3.594   8.358 -1.1315  0.7330 -0.7205
31128SOL     OW95390   2.812  10.284   1.420 -0.1701 -0.8167  0.2645
31128SOL    HW195391   2.826  10.280   1.326 -1.7670 -1.5938  0.0236
31128SOL    HW295392   2.875  10.349   1.451 -1.6436  1.8119 -1.7784
31129SOL     OW95393  10.653   6.723   3.137  0.5322 -0.1536 -0.4572
31129SOL    HW195394  10.696   6.807   3.154 -1.0635  0.9246 -1.3733
31129SOL    HW295395  10.724   6.660   3.130  1.6574  0.3750  3.7291
31130SOL     OW95396  10.789   5.224   6.964 -0.4340 -0.2907 -0.4120
31130SOL    HW195397  10.806   5.317   6.977 -0.2778 -0.4384  0.5112
31130SOL    HW295398  10.875   5.183   6.973 -0.1931 -0.3675 -2.5881
31131SOL     OW95399   7.354   1.716   9.962 -0.5960  0.2325 -0.3426
31131SOL    HW195400   7.302   1.668   9.898  2.3108 -1.5329 -1.5761
31131SOL    HW295401   7.381   1.650  10.026  1.7969  0.5608 -0.9254
31132SOL     OW95402   5.439  10.142   7.345 -0.1288 -0.0295  0.9357
31132SOL    HW195403   5.347  10.146   7.370 -0.0862  0.1413  1.0701
31132SOL    HW295404   5.448  10.204   7.273 -0.4789 -1.3110 -0.2629
31133SOL     OW95405   8.774   3.562   8.992  0.3925  0.1724 -0.1883
31133SOL    HW195406   8.778   3.466   8.991 -2.3890 -0.0679  1.8807
31133SOL    HW295407   8.842   3.589   8.929  1.4491 -3.0991 -0.6455
31134SOL     OW95408   8.261   7.755   7.565 -0.1548  0.4982 -0.2254
31134SOL    HW195409   8.216   7.762   7.481 -0.6042 -0.2194 -0.0562
31134SOL    HW295410   8.354   7.754   7.542 -0.2878 -0.5134 -0.7937
31135SOL     OW95411  10.393   4.287  10.896 -0.0577  0.2920 -0.1856
31135SOL    HW195412  10.403   4.353  10.964 -1.1320  0.9973 -0.6914
31135SOL    HW295413  10.345   4.331  10.826  1.4001 -0.2717 -1.6100
31136SOL     OW95414   0.790   4.811   4.986  0.0866 -0.3900  0.2925
31136SOL    HW195415   0.822   4.863   4.913 -0.6143 -1.7762 -1.0692
31136SOL    HW295416   0.867   4.797   5.041  0.8607 -0.1061 -0.6884
31137SOL     OW95417   3.984   1.681   3.932 -0.2081 -0.1674 -0.5079
31137SOL    HW195418   3.911   1.638   3.887 -0.2463  0.1545 -0.7567
31137SOL    HW295419   4.022   1.613   3.987 -0.6213 -0.3691 -0.4707
31138SOL     OW95420   7.376   8.115   4.744  0.4257  0.4651  0.5142
31138SOL    HW195421   7.438   8.077   4.806  1.1285  4.2750  2.4451
31138SOL    HW295422   7.418   8.104   4.658  1.4343 -1.2757  1.1888
31139SOL     OW95423   4.109   9.307   5.121 -0.6507  0.3498 -0.1506
31139SOL    HW195424   4.038   9.339   5.065 -0.2967  1.4173 -0.0156
31139SOL    HW295425   4.080   9.220   5.150 -1.4580  0.3697 -0.8713
31140SOL     OW95426   1.525  11.092   5.360 -0.2327 -0.0041 -0.0281
31140SOL    HW195427   1.507  11.125   5.272 -0.6180  3.8566  1.2709
31140SOL    HW295428   1.439  11.087   5.402  0.0116 -1.0658  0.3782
31141SOL     OW95429   6.814   4.680   9.600  0.1124  0.3169  0.1873
31141SOL    HW195430   6.874   4.608   9.620  0.5023  0.6073  0.0677
31141SOL    HW295431   6.821   4.739   9.674  0.4487  0.6599 -0.1129
31142SOL     OW95432   7.251   8.809   6.692  0.4842 -0.2471  0.0932
31142SOL    HW195433   7.307   8.806   6.769 -2.3064 -1.7776  2.2784
31142SOL    HW295434   7.270   8.728   6.645 -0.9200 -1.5963  1.7255
31143SOL     OW95435   4.548   2.695   2.313  0.1437 -0.2908 -0.5450
31143SOL    HW195436   4.556   2.641   2.392  0.2661  0.1277 -0.2704
31143SOL    HW295437   4.454   2.691   2.291 -0.0927  0.4630  0.2527
31144SOL     OW95438   8.362   1.357  10.629 -0.3265 -0.5962 -0.2729
31144SOL    HW195439   8.443   1.399  10.600 -0.8892  3.5033  3.1614
31144SOL    HW295440   8.386   1.310  10.708 -0.9154 -1.5535 -0.6378
31145SOL     OW95441   0.075   0.880   0.127  0.5815  0.7256  0.2277
31145SOL    HW195442   0.033   0.794   0.132 -0.0353  1.0430  0.6758
31145SOL    HW295443   0.095   0.902   0.218  0.3038  1.2560  0.1684
31146SOL     OW95444   8.841  10.627   3.385  0.0094 -0.0287  0.5600
31146SOL    HW195445   8.852  10.595   3.474 -2.1498  0.1210  0.9452
31146SOL    HW295446   8.898  10.704   3.380  2.3956 -1.6709  0.8108
31147SOL     OW95447   5.080  10.925   3.582 -0.3308  0.1190 -0.0053
31147SOL    HW195448   5.093  10.926   3.676 -1.8718  2.6192  0.2697
31147SOL    HW295449   4.987  10.909   3.570 -0.6469  2.3797 -0.9561
31148SOL     OW95450   9.860   6.306   7.614 -0.6479 -0.3521  0.0830
31148SOL    HW195451   9.845   6.400   7.606  0.4228 -0.1075  0.8082
31148SOL    HW295452   9.779   6.272   7.652 -0.4377  0.5386  1.3978
31149SOL     OW95453   9.401   1.150   3.883 -0.3793 -0.3074  0.0952
31149SOL    HW195454   9.447   1.081   3.835 -0.0608  0.0019 -0.0584
31149SOL    HW295455   9.464   1.179   3.949 -0.0770  0.5935 -0.5618
31150SOL     OW95456   6.394   4.028   3.201 -0.1517  0.0251 -0.5329
31150SOL    HW195457   6.302   4.001   3.207 -0.3883  0.8958 -0.0334
31150SOL    HW295458   6.443   3.946   3.200 -0.7161 -0.5381  3.0206
31151SOL     OW95459   6.845   9.247   9.176  0.7642 -0.5504 -0.3098
31151SOL    HW195460   6.940   9.239   9.169  0.8531  0.2519 -0.1431
31151SOL    HW295461   6.811   9.195   9.104  1.3677  0.0613 -1.0471
31152SOL     OW95462   2.032  10.338   8.452  0.4388  0.0260 -0.0319
31152SOL    HW195463   1.999  10.269   8.394 -1.1026  0.8073 -0.1268
31152SOL    HW295464   2.081  10.290   8.520 -2.7493 -1.5118  1.4228
31153SOL     OW95465   8.799   0.501   4.407 -0.1993 -0.0493 -0.2634
31153SOL    HW195466   8.809   0.536   4.496  1.6370  0.1759 -0.5243
31153SOL    HW295467   8.887   0.475   4.381 -0.4246  1.1823 -2.5463
31154SOL     OW95468   4.021   4.185   0.103 -0.6015 -0.5044 -0.5491
31154SOL    HW195469   4.050   4.275   0.085 -1.4899 -0.5068 -2.1765
31154SOL    HW295470   4.083   4.153   0.169  0.6233  0.8078 -1.0029
31155SOL     OW95471   8.427   1.491   8.509  0.3282  0.2317  0.9265
31155SOL    HW195472   8.472   1.503   8.593  1.5519  0.6282  0.2307
31155SOL    HW295473   8.433   1.397   8.492 -2.5464 -0.4104  2.6673
31156SOL     OW95474   2.635   4.766   8.976  0.0861 -0.1035 -0.5277
31156SOL    HW195475   2.692   4.718   9.036 -1.1578 -0.0196  0.7732
31156SOL    HW295476   2.684   4.846   8.956 -0.2090  0.7796  1.9154
31157SOL     OW95477  10.446   3.544   8.939 -0.0184  0.1790  0.1734
31157SOL    HW195478  10.495   3.598   8.877 -0.3927 -0.4406 -0.6625
31157SOL    HW295479  10.398   3.482   8.885 -1.2030  0.3283  1.0163
31158SOL     OW95480   2.919   4.547  10.387  0.0877 -0.0624  0.0059
31158SOL    HW195481   2.933   4.452  10.380 -0.3914 -0.2399  1.2180
31158SOL    HW295482   2.954   4.582  10.306  2.7917 -0.9983  0.6584
31159SOL     OW95483   8.686   7.064   9.756 -0.6486 -0.4269 -0.0322
31159SOL    HW195484   8.601   7.098   9.787 -0.0069  0.9125  0.3580
31159SOL    HW295485   8.738   7.055   9.835 -0.3049 -0.8801 -0.3092
31160SOL     OW95486   8.780   3.035   7.600 -0.1362 -0.2763  0.0689
31160SOL    HW195487   8.851   3.096   7.617  2.5167 -2.7891 -1.0804
31160SOL    HW295488   8.741   3.065   7.518  0.4561  0.4499  0.0485
31161SOL     OW95489   7.560   3.601   0.535 -0.4652 -0.8473 -0.0313
31161SOL    HW195490   7.554   3.614   0.440 -0.8820 -1.7554 -0.1346
31161SOL    HW295491   7.653   3.605   0.554 -0.2396 -2.2303 -0.7174
31162SOL     OW95492   2.143   0.119   3.150 -0.3739  0.1973 -0.1003
31162SOL    HW195493   2.051   0.146   3.147 -0.1094  1.1408 -0.0546
31162SOL    HW295494   2.166   0.101   3.059 -0.4674  0.4531 -0.1757
31163SOL     OW95495   6.280   1.929   4.921  0.3982 -0.1126  0.2292
31163SOL    HW195496   6.352   1.990   4.904  0.3977  0.5364  2.1880
31163SOL    HW295497   6.205   1.966   4.874  0.7680  0.5821  0.1721
31164SOL     OW95498   6.499   0.511   9.035 -0.5898  0.3921  0.2771
31164SOL    HW195499   6.444   0.581   9.001 -2.0765 -0.3559  1.0797
31164SOL    HW295500   6.454   0.480   9.113  1.1561 -0.0191  1.1763
31165SOL     OW95501   6.612   8.451   4.269  0.0890  0.0226  0.0388
31165SOL    HW195502   6.629   8.420   4.358 -0.1889  1.1419  0.4924
31165SOL    HW295503   6.659   8.534   4.262 -0.2354  0.1569 -0.7174
31166SOL     OW95504   7.918   8.624   2.524 -0.2042  0.1823  1.1119
31166SOL    HW195505   7.901   8.566   2.598 -0.7564 -0.8102  0.2429
31166SOL    HW295506   7.970   8.572   2.463 -2.4889 -0.2256 -0.6431
31167SOL     OW95507   7.972   3.831  10.356 -0.2698 -0.5104  0.2430
31167SOL    HW195508   8.027   3.804  10.283 -0.4753 -1.5042  0.4509
31167SOL    HW295509   8.015   3.794  10.433 -0.9443 -0.8414  0.4587
31168SOL     OW95510   0.144   3.364   7.665 -0.0136  0.4122 -0.1607
31168SOL    HW195511   0.165   3.372   7.758  0.0879  0.4766 -0.1885
31168SOL    HW295512   0.068   3.306   7.662  0.0123  0.3726 -0.0415
31169SOL     OW95513   0.657   5.146   4.264  0.2959  0.0049  0.1897
31169SOL    HW195514   0.732   5.183   4.311  0.3941  0.5411 -0.3852
31169SOL    HW295515   0.695   5.078   4.208  0.3863  0.4605 -0.3006
31170SOL     OW95516  10.221   0.681   1.131  0.5579  0.9019 -0.5112
31170SOL    HW195517  10.240   0.775   1.133  2.2088  0.6422 -1.8425
31170SOL    HW295518  10.277   0.647   1.061 -1.4991 -0.7735 -1.4251
31171SOL     OW95519   2.021   2.705  10.030 -0.2263 -0.2653 -0.2682
31171SOL    HW195520   2.013   2.779   9.970 -2.4675 -0.2524 -0.0370
31171SOL    HW295521   1.966   2.729  10.104  0.2411 -1.5235  0.5052
31172SOL     OW95522   6.273   2.768   2.587 -0.0856  0.4447 -0.0744
31172SOL    HW195523   6.272   2.714   2.666  2.7820  1.7397  0.9624
31172SOL    HW295524   6.191   2.745   2.542 -1.0308 -1.5507  2.4037
31173SOL     OW95525   1.141   2.182   1.362  0.1869 -0.8381 -0.0628
31173SOL    HW195526   1.057   2.228   1.364  1.2370  1.2002 -0.0501
31173SOL    HW295527   1.129   2.109   1.422 -1.7790 -1.0225 -0.5818
31174SOL     OW95528  10.535   0.632   6.593 -0.2451  0.8704  0.8160
31174SOL    HW195529  10.517   0.629   6.687  0.0458  0.0404  0.8478
31174SOL    HW295530  10.608   0.694   6.586 -1.0032  1.8136  1.0059
31175SOL     OW95531   6.880   7.013   2.213  0.1675  0.1576  0.2654
31175SOL    HW195532   6.955   6.960   2.240  0.4166  0.0392 -0.6116
31175SOL    HW295533   6.808   6.950   2.208  0.5003 -0.1580 -0.9367
31176SOL     OW95534   7.671   3.969  11.049 -0.7122 -0.1794  0.4359
31176SOL    HW195535   7.722   3.914  10.990  0.7378  0.4773  1.0210
31176SOL    HW295536   7.618   3.907  11.099  0.2150 -0.9873  0.4530
31177SOL     OW95537   9.104   1.331   5.910  0.0422 -0.0248  0.0769
31177SOL    HW195538   9.191   1.295   5.929 -0.3182 -1.1918 -0.4237
31177SOL    HW295539   9.076   1.370   5.993 -0.2249 -2.3281  1.1403
31178SOL     OW95540   8.294   9.453  10.996  0.2024 -0.5010 -0.1191
31178SOL    HW195541   8.347   9.473  11.072 -1.6261 -0.5047  1.2382
31178SOL    HW295542   8.318   9.519  10.931  1.7980 -0.5039  0.4288
31179SOL     OW95543   8.564  11.010   1.804 -0.5550 -0.2309  0.4305
31179SOL    HW195544   8.541  10.917   1.802 -2.6189  0.2458 -1.2503
31179SOL    HW295545   8.546  11.037   1.894 -1.8444 -1.0322  0.4418
31180SOL     OW95546   7.174   0.945   8.959 -0.3106 -0.1629  0.6729
31180SOL    HW195547   7.170   0.925   8.866 -1.8976 -1.3215  0.9556
31180SOL    HW295548   7.087   0.923   8.993 -0.4524  2.1555  2.0660
31181SOL     OW95549   6.308   5.615   8.071  0.0125  0.1109  0.1947
31181SOL    HW195550   6.386   5.563   8.051 -0.3209  0.2444 -1.6202
31181SOL    HW295551   6.264   5.627   7.986 -1.1304  1.4089  0.9194
31182SOL     OW95552   9.897   1.467   0.414 -0.5547  0.0032  0.3704
31182SOL    HW195553   9.962   1.528   0.448 -1.8089  0.0078  3.0097
31182SOL    HW295554   9.937   1.380   0.424 -0.0529  0.1530 -0.2807
31183SOL     OW95555   1.027   6.697   0.645 -0.0648 -0.1532  0.7446
31183SOL    HW195556   1.037   6.623   0.586  0.3596 -0.5689  1.3322
31183SOL    HW295557   1.086   6.679   0.718 -2.2188 -0.7698  2.4411
31184SOL     OW95558   7.447   0.846   0.398 -0.4034  0.7953 -0.3548
31184SOL    HW195559   7.526   0.883   0.437 -0.6048  0.7389  0.1108
31184SOL    HW295560   7.479   0.792   0.326  0.0346  0.1943  0.2822
31185SOL     OW95561   8.629   5.793   9.095  0.3455 -0.3787  0.1012
31185SOL    HW195562   8.691   5.863   9.075 -0.0233  0.2423  1.0619
31185SOL    HW295563   8.584   5.777   9.012  0.6570  0.3041 -0.2117
31186SOL     OW95564   3.800   4.062   8.002  0.3991  0.4307  0.5372
31186SOL    HW195565   3.796   4.158   8.011  0.7462  0.5808 -0.6506
31186SOL    HW295566   3.861   4.048   7.929  1.7400 -0.7712  1.8141
31187SOL     OW95567   5.269   1.027  10.401 -0.1778  0.1392 -0.6071
31187SOL    HW195568   5.211   1.056  10.471  0.2468  3.1356 -1.3281
31187SOL    HW295569   5.346   0.993  10.447 -0.1082  1.5831  0.4534
31188SOL     OW95570   9.735   2.633  10.091  0.0744  0.2032  0.4585
31188SOL    HW195571   9.717   2.627  10.185  0.7246 -0.7560  0.5333
31188SOL    HW295572   9.672   2.573  10.050  0.8500 -0.5977  0.4276
31189SOL     OW95573   4.513   0.346   8.651  0.2403 -0.3761  0.2484
31189SOL    HW195574   4.439   0.398   8.682  0.7996  0.2224  0.6114
31189SOL    HW295575   4.478   0.293   8.579 -1.3754 -2.5654  2.4732
31190SOL     OW95576   2.427   1.243   9.315  0.3705 -0.0260 -0.0011
31190SOL    HW195577   2.502   1.219   9.370  0.9876  0.1964 -0.7342
31190SOL    HW295578   2.362   1.175   9.332 -0.1758  0.9895  2.3796
31191SOL     OW95579   4.015   2.284  11.056  0.0766 -0.0901  0.6877
31191SOL    HW195580   3.933   2.268  11.104 -0.1054 -1.2632  0.0098
31191SOL    HW295581   4.075   2.319  11.123 -1.4008  2.3024  0.8821
31192SOL     OW95582   8.020   6.307   0.971  0.3263  0.3147  0.0872
31192SOL    HW195583   7.932   6.268   0.970  0.2778  0.4263 -0.1063
31192SOL    HW295584   8.014   6.381   0.912  1.2869 -1.3083 -2.1990
31193SOL     OW95585  11.019   4.246   7.790 -0.2277  0.5422  0.1750
31193SOL    HW195586  10.958   4.194   7.737 -0.5249  0.7774  0.2827
31193SOL    HW295587  10.968   4.322   7.818 -0.7485 -0.5949  2.5628
31194SOL     OW95588  10.389   0.038   7.105 -0.1713  0.2741  0.3054
31194SOL    HW195589  10.399   0.082   7.190 -1.2508 -0.3172  0.7576
31194SOL    HW295590  10.294   0.039   7.089 -0.0690 -0.5595 -0.3879
31195SOL     OW95591   9.833   1.843   6.198 -0.1467 -0.1052  0.4466
31195SOL    HW195592   9.904   1.806   6.251 -1.0840 -0.6138  1.3763
31195SOL    HW295593   9.824   1.933   6.230  1.1365  0.5008 -0.7932
31196SOL     OW95594   5.654   2.549   6.591 -0.6892  0.4068 -0.1133
31196SOL    HW195595   5.735   2.599   6.590 -0.8904  0.7365  0.0533
31196SOL    HW295596   5.584   2.615   6.594 -0.9310  0.1201  1.3781
31197SOL     OW95597   7.519   5.165   8.549 -0.3029 -0.6815  0.2877
31197SOL    HW195598   7.506   5.075   8.580 -1.5861 -0.2128  1.1762
31197SOL    HW295599   7.562   5.209   8.622 -0.7629 -0.2862  0.3262
31198SOL     OW95600   8.478   4.283   3.781  0.1494 -0.0968  0.1199
31198SOL    HW195601   8.520   4.361   3.818 -1.7242  0.7829  0.5397
31198SOL    HW295602   8.400   4.270   3.835 -0.5942 -1.1098 -1.1488
31199SOL     OW95603   6.943   3.227   5.874 -0.5040 -0.0964  0.0698
31199SOL    HW195604   6.929   3.305   5.821 -0.4957 -0.9423 -1.2317
31199SOL    HW295605   6.887   3.160   5.833 -0.7223 -0.7081  1.3153
31200SOL     OW95606   4.507   0.173   7.456 -0.2535  0.3208 -0.5037
31200SOL    HW195607   4.503   0.267   7.471  1.0538  0.5944 -1.6623
31200SOL    HW295608   4.597   0.149   7.479 -0.6450 -0.7010  0.0299
31201SOL     OW95609   6.974   3.267  10.079 -0.5376  0.0412  0.5862
31201SOL    HW195610   6.897   3.322  10.071  0.4422  1.3487 -0.3640
31201SOL    HW295611   7.002   3.252   9.988 -0.1495 -1.1076  0.8809
31202SOL     OW95612   9.544   1.222   5.053  0.1178 -0.2966  0.4035
31202SOL    HW195613   9.582   1.283   4.990  0.3707  0.0082  0.8470
31202SOL    HW295614   9.533   1.141   5.004 -0.4448  0.1663 -0.2650
31203SOL     OW95615   2.586   4.140   3.089 -0.1842  0.5131  0.4564
31203SOL    HW195616   2.644   4.216   3.085  0.4462  0.0173 -0.0997
31203SOL    HW295617   2.633   4.076   3.143  1.1377 -0.9555 -2.2339
31204SOL     OW95618   7.506   4.438   1.149 -0.2556 -0.4078 -0.9250
31204SOL    HW195619   7.498   4.496   1.225  0.2971 -0.3002 -0.9464
31204SOL    HW295620   7.517   4.498   1.075 -0.6354 -0.5164 -1.0700
31205SOL     OW95621   0.058   4.825   3.991  0.1426  0.4687 -0.1607
31205SOL    HW195622  -0.029   4.787   3.988 -0.0711  0.9405 -0.0600
31205SOL    HW295623   0.084   4.819   4.083 -0.5491  1.9961  0.1648
31206SOL     OW95624   5.599   4.418   4.058  0.3265 -0.0923  0.7214
31206SOL    HW195625   5.522   4.474   4.043 -0.8765 -1.5071  1.4051
31206SOL    HW295626   5.638   4.410   3.971 -1.1411 -0.5082  0.0551
31207SOL     OW95627   6.185   7.515   7.304  0.1040 -0.0666  0.2246
31207SOL    HW195628   6.100   7.528   7.262  0.2488 -0.4867 -0.2007
31207SOL    HW295629   6.165   7.470   7.385 -0.3915  2.4119  1.5950
31208SOL     OW95630   6.340   9.952   2.821  0.1141  0.2611 -0.3921
31208SOL    HW195631   6.275  10.017   2.793  0.4819  0.8725  0.1504
31208SOL    HW295632   6.423   9.985   2.787  0.3756  0.3349  0.3005
31209SOL     OW95633   1.694   9.435   3.645  0.2279  0.5268  0.2303
31209SOL    HW195634   1.668   9.343   3.652  0.4354  0.6009  3.6861
31209SOL    HW295635   1.629   9.474   3.587 -0.9953 -1.4126  0.1961
31210SOL     OW95636   9.143   2.574   8.409  0.0218 -0.5315  0.7381
31210SOL    HW195637   9.165   2.653   8.460  0.7086 -0.2266 -0.0109
31210SOL    HW295638   9.147   2.603   8.318 -0.8682 -1.1550  0.4922
31211SOL     OW95639   4.711   6.296   7.734 -0.7357  0.3344 -0.2922
31211SOL    HW195640   4.708   6.389   7.711 -2.1820  0.4342  0.2180
31211SOL    HW295641   4.624   6.262   7.712  0.2717 -1.3102 -2.0177
31212SOL     OW95642   8.445  10.835   4.991 -0.1206 -0.0735 -0.1284
31212SOL    HW195643   8.382  10.890   4.945  2.2138  1.5586 -1.6071
31212SOL    HW295644   8.490  10.895   5.051  0.8389 -0.9055  0.0025
31213SOL     OW95645  10.801   9.662   8.757  0.0090 -0.2993 -0.6826
31213SOL    HW195646  10.788   9.590   8.696  1.0434  1.0327 -2.5555
31213SOL    HW295647  10.789   9.741   8.704 -1.5676  0.9689  1.3986
31214SOL     OW95648   6.791   2.710   3.920 -0.4976  0.6365 -0.0353
31214SOL    HW195649   6.809   2.691   4.012 -0.9010  0.3069 -0.0217
31214SOL    HW295650   6.832   2.638   3.872  1.8640  2.0671 -0.2973
31215SOL     OW95651   9.391   2.789   4.974  0.0819  0.3557  0.2645
31215SOL    HW195652   9.357   2.710   4.933  1.8928  0.5267 -1.8097
31215SOL    HW295653   9.433   2.759   5.055  0.7655 -0.8324 -0.5064
31216SOL     OW95654   8.664   3.063   5.954 -0.4397  0.0747  0.0337
31216SOL    HW195655   8.749   3.099   5.979 -1.3378  0.8690  2.2542
31216SOL    HW295656   8.607   3.140   5.948 -1.3138 -0.5620  0.0564
31217SOL     OW95657   8.332   6.712   9.173 -0.1240 -0.2731  0.6020
31217SOL    HW195658   8.364   6.764   9.246  0.1518 -0.6204  0.7329
31217SOL    HW295659   8.269   6.768   9.128  0.7690  0.4787  0.2572
31218SOL     OW95660   8.235  10.653   0.314  0.0180 -0.2661 -0.6049
31218SOL    HW195661   8.162  10.620   0.366  0.1107  0.5715  0.0814
31218SOL    HW295662   8.221  10.748   0.309  2.2520  0.2797  1.5553
31219SOL     OW95663   0.050   7.004   7.325  0.4835  0.4402 -0.0088
31219SOL    HW195664  -0.008   6.928   7.326 -0.8226  1.3840 -0.7038
31219SOL    HW295665   0.129   6.975   7.370  0.1734 -1.4480 -0.6007
31220SOL     OW95666   6.389   8.719   4.410  0.5197  0.6582  0.0583
31220SOL    HW195667   6.394   8.666   4.489  1.9972 -0.0151 -0.4562
31220SOL    HW295668   6.329   8.671   4.352  2.2498 -0.7805 -0.6102
31221SOL     OW95669   8.957  10.647   5.389  0.0221  0.3529  0.7192
31221SOL    HW195670   8.879  10.637   5.444  0.1542  0.0670  0.8573
31221SOL    HW295671   9.030  10.622   5.446  0.1686  0.1463  0.4425
31222SOL     OW95672   1.060   4.543  10.208  0.3450 -0.0430 -0.2839
31222SOL    HW195673   1.047   4.450  10.225  0.9213  0.1125  1.1478
31222SOL    HW295674   1.149   4.548  10.172  0.5628  0.0110  0.2522
31223SOL     OW95675   5.948   3.501   8.645  0.2316 -0.3187  0.1848
31223SOL    HW195676   5.999   3.544   8.713 -0.7764 -1.2565  1.5993
31223SOL    HW295677   5.920   3.572   8.587  1.0589  0.5149  0.7843
31224SOL     OW95678   2.065   9.205   5.510 -0.3843 -0.3224 -0.1170
31224SOL    HW195679   1.988   9.162   5.470  0.4156 -0.1976 -1.8962
31224SOL    HW295680   2.133   9.197   5.443  1.3471 -0.9302  1.6468
31225SOL     OW95681   8.540   5.322   9.991 -0.3795  0.7556 -0.1297
31225SOL    HW195682   8.526   5.291  10.081  0.9959  0.6839  0.0738
31225SOL    HW295683   8.489   5.260   9.937  0.7188 -0.7004  0.4261
31226SOL     OW95684   0.678   2.176   8.550  0.4243 -0.5008  0.3846
31226SOL    HW195685   0.628   2.155   8.471  0.8404  0.3209 -0.1123
31226SOL    HW295686   0.732   2.251   8.525  1.4370 -0.9635  1.0976
31227SOL     OW95687   5.821   3.795   3.578  0.3273 -0.2755 -0.2500
31227SOL    HW195688   5.828   3.709   3.536  0.0419  0.1434 -1.1829
31227SOL    HW295689   5.894   3.798   3.640  1.5404 -0.4182 -1.6282
31228SOL     OW95690   5.687   3.268   0.769  0.1652 -0.3539 -0.6967
31228SOL    HW195691   5.668   3.360   0.747 -1.5122 -0.2013  1.0986
31228SOL    HW295692   5.617   3.219   0.727 -0.2452 -0.5569  0.2069
31229SOL     OW95693   6.152   1.246   5.303  0.2351  0.0968 -0.0261
31229SOL    HW195694   6.222   1.298   5.262 -2.0480  1.8485 -2.0345
31229SOL    HW295695   6.131   1.294   5.383  2.8499 -1.8199  1.9884
31230SOL     OW95696  10.143   1.645   7.942  0.2706 -0.0797 -0.8618
31230SOL    HW195697  10.233   1.665   7.969  0.6194 -1.8157 -0.6609
31230SOL    HW295698  10.091   1.715   7.982  1.2888 -0.1618  0.7039
31231SOL     OW95699   3.025   2.806   6.247  0.1747 -0.1815 -0.3653
31231SOL    HW195700   3.037   2.843   6.160  0.3535 -2.3179 -1.3004
31231SOL    HW295701   3.111   2.772   6.271  0.0151 -0.0325  0.4594
31232SOL     OW95702   8.089   9.164  11.053  0.3935  0.2057 -0.3474
31232SOL    HW195703   8.158   9.183  11.116 -0.0145  1.1741 -0.1745
31232SOL    HW295704   8.035   9.243  11.052 -0.5734 -0.4475 -0.6593
31233SOL     OW95705   5.778   1.061   6.049 -0.0888 -0.2675 -0.3470
31233SOL    HW195706   5.696   1.089   6.008  0.4741  1.7568 -0.2193
31233SOL    HW295707   5.812   0.993   5.991  0.1808  1.7846 -2.7971
31234SOL     OW95708  10.728   4.796  11.062 -0.4207  0.2698  0.2030
31234SOL    HW195709  10.790   4.745  11.010 -0.2949  1.1005 -0.4874
31234SOL    HW295710  10.727   4.753  11.147  1.0161  0.1648  0.1906
31235SOL     OW95711  10.299   3.040   2.518 -0.0884 -0.8681  0.1061
31235SOL    HW195712  10.265   3.029   2.606  1.8801 -1.3727  0.8556
31235SOL    HW295713  10.268   2.963   2.470 -3.4104  0.6602 -0.5111
31236SOL     OW95714   4.167   1.484   5.953  0.3238 -0.1886  0.4390
31236SOL    HW195715   4.226   1.438   5.893 -1.3709  1.3224 -2.6168
31236SOL    HW295716   4.206   1.571   5.961 -1.6341  1.0905 -2.2397
31237SOL     OW95717  10.243   5.327   8.323  0.3357 -0.4731 -0.5263
31237SOL    HW195718  10.309   5.353   8.259  2.2670 -1.7180  0.8441
31237SOL    HW295719  10.204   5.247   8.286  1.3519 -1.1165 -0.2554
31238SOL     OW95720   5.377   6.585   8.325  0.2579 -0.2095  0.2040
31238SOL    HW195721   5.339   6.581   8.237  2.1552 -2.0159 -0.6181
31238SOL    HW295722   5.302   6.603   8.382 -1.0414  0.9414 -1.7409
31239SOL     OW95723   7.153   4.486   0.010  0.0651  0.0248 -0.0209
31239SOL    HW195724   7.159   4.419   0.077  1.2582 -0.8989 -0.9965
31239SOL    HW295725   7.065   4.476  -0.027  0.8663 -2.4144 -1.4994
31240SOL     OW95726  10.654   1.806   3.001 -0.3247  0.2700  0.2378
31240SOL    HW195727  10.649   1.851   2.916  0.5226  1.1310  0.6201
31240SOL    HW295728  10.662   1.714   2.978 -0.4192  0.4616 -0.6200
31241SOL     OW95729   0.474   3.782   8.486 -0.2457 -0.7759 -0.2355
31241SOL    HW195730   0.519   3.834   8.552  0.7553 -1.6250 -0.2303
31241SOL    HW295731   0.395   3.751   8.530 -0.6677  0.4005 -0.1223
31242SOL     OW95732   1.007   8.679   1.489 -0.1303 -0.2395 -0.2990
31242SOL    HW195733   0.935   8.701   1.430 -1.4847 -1.2755  0.9038
31242SOL    HW295734   0.968   8.684   1.576  1.9075  1.5993  0.5963
31243SOL     OW95735   7.899   4.533   6.533  0.2202 -0.2003 -0.0203
31243SOL    HW195736   7.984   4.568   6.508 -0.1822 -0.0214 -1.1591
31243SOL    HW295737   7.913   4.438   6.537  0.1750 -0.2848 -1.4501
31244SOL     OW95738   5.500   5.027   7.890  0.0082  0.2767 -0.3939
31244SOL    HW195739   5.520   4.936   7.868 -1.5682 -0.9754  2.6851
31244SOL    HW295740   5.489   5.070   7.805  0.8578 -2.3611 -1.9730
31245SOL     OW95741   9.385   8.928   3.031 -0.1509 -0.4143 -0.2214
31245SOL    HW195742   9.356   8.855   3.085  0.4236  0.9221  2.0431
31245SOL    HW295743   9.308   8.954   2.981 -1.1024 -0.8942  0.9548
31246SOL     OW95744   5.479   0.416   4.778  0.4211 -0.2496  0.1672
31246SOL    HW195745   5.536   0.370   4.840 -0.6779 -0.3083  1.1686
31246SOL    HW295746   5.459   0.351   4.711  0.2365 -0.7219  0.6704
31247SOL     OW95747   6.851   1.568   8.583  0.0379  0.0456 -0.1693
31247SOL    HW195748   6.928   1.517   8.609  0.8046  0.3868 -1.6260
31247SOL    HW295749   6.781   1.504   8.576  0.2451 -0.3212  0.8802
31248SOL     OW95750   9.127   0.728  10.359  0.5328 -0.1136 -0.2865
31248SOL    HW195751   9.038   0.730  10.392 -0.1420  1.2707 -2.0278
31248SOL    HW295752   9.120   0.685  10.273  0.8703  2.8593 -1.9525
31249SOL     OW95753   3.988   9.306   8.747  0.1051 -0.2417  0.1870
31249SOL    HW195754   4.045   9.349   8.683 -0.0087  0.0520  0.2837
31249SOL    HW295755   3.917   9.268   8.694 -1.5023  2.3219  0.3366
31250SOL     OW95756   8.797  10.156   5.698 -0.0348 -0.2387 -0.1424
31250SOL    HW195757   8.756  10.219   5.639  0.3760 -0.5886 -0.8103
31250SOL    HW295758   8.841  10.094   5.640 -2.1399 -2.3658  0.3821
31251SOL     OW95759   6.725   0.629   9.220 -0.0594 -0.0329 -0.0188
31251SOL    HW195760   6.644   0.598   9.179  0.9369 -0.0591 -2.0582
31251SOL    HW295761   6.785   0.645   9.147  0.6683  3.3981  1.1352
31252SOL     OW95762   8.015   1.319   8.065  0.4090 -0.3159  0.2297
31252SOL    HW195763   7.956   1.292   8.135  0.3509  0.1561  0.3662
31252SOL    HW295764   7.992   1.263   7.991  0.0013 -0.3452  0.3757
31253SOL     OW95765   0.753  10.031   3.297  0.2169  0.4688 -0.2636
31253SOL    HW195766   0.760  10.094   3.226 -1.6118  0.5403 -0.4464
31253SOL    HW295767   0.664   9.996   3.289  0.4442 -0.5402  1.1545
31254SOL     OW95768   8.867   6.874   4.868  0.4464  0.1578 -0.3254
31254SOL    HW195769   8.933   6.812   4.840  0.1498 -0.5714  0.5514
31254SOL    HW295770   8.784   6.826   4.862  0.4114 -0.3126  2.3772
31255SOL     OW95771   6.187   6.596   5.962  0.5240 -0.1762  0.3272
31255SOL    HW195772   6.254   6.568   5.900 -0.5254 -0.6945 -0.6155
31255SOL    HW295773   6.106   6.593   5.912 -0.8091 -3.2770  2.3485
31256SOL     OW95774   6.978   8.656   0.901  0.1366 -0.5537 -0.8226
31256SOL    HW195775   7.027   8.697   0.830  0.0868  0.5736 -0.2228
31256SOL    HW295776   7.045   8.616   0.957  0.2746 -0.2486 -0.7682
31257SOL     OW95777   9.368   8.414   4.449  0.0798 -0.0323  0.7344
31257SOL    HW195778   9.322   8.381   4.372 -1.0842  1.5332  0.7013
31257SOL    HW295779   9.415   8.492   4.418  0.2576  0.1466  1.4293
31258SOL     OW95780   6.629   5.382   7.327 -0.0424 -0.2972 -0.5384
31258SOL    HW195781   6.708   5.358   7.278 -0.1166 -1.8575  0.0540
31258SOL    HW295782   6.599   5.462   7.285  1.1415 -0.3680 -1.6008
31259SOL     OW95783   7.881  10.829   7.322  0.5039 -0.2951 -0.3998
31259SOL    HW195784   7.963  10.857   7.281  0.8040 -0.0484  0.3455
31259SOL    HW295785   7.817  10.830   7.251  1.0278  0.0245 -0.8786
31260SOL     OW95786   6.778   2.533   6.704  0.4098 -0.0580  0.4203
31260SOL    HW195787   6.791   2.440   6.724  0.4064 -0.1328  0.0716
31260SOL    HW295788   6.683   2.544   6.708  0.3748 -0.1826 -0.0412
31261SOL     OW95789   9.672   8.311   3.923 -0.0298 -0.4261 -0.1436
31261SOL    HW195790   9.664   8.405   3.932 -0.2900 -0.5572  1.2972
31261SOL    HW295791   9.624   8.290   3.843 -1.4734  0.4731  0.4477
31262SOL     OW95792   3.973  10.491   3.212 -0.0573  0.0004 -0.1335
31262SOL    HW195793   3.948  10.583   3.206 -1.6356 -0.2588  1.3789
31262SOL    HW295794   4.017  10.472   3.129 -0.4259  1.8897 -0.8145
31263SOL     OW95795   6.576   5.306   0.809  0.4833 -0.0960 -0.1538
31263SOL    HW195796   6.547   5.288   0.898  2.8719 -2.2847  0.2629
31263SOL    HW295797   6.541   5.393   0.790 -1.0591 -0.0538  2.4543
31264SOL     OW95798   1.287   5.929   8.857 -0.4931 -0.7176 -0.5041
31264SOL    HW195799   1.213   5.889   8.811 -1.5292  0.3854  0.1216
31264SOL    HW295800   1.247   5.968   8.935  0.8115 -0.3565 -0.0035
31265SOL     OW95801   5.117   6.776   4.748 -0.4789 -0.0980 -0.0284
31265SOL    HW195802   5.163   6.715   4.806  1.6648  1.1070 -0.3476
31265SOL    HW295803   5.181   6.798   4.681 -2.2522  0.0884 -1.7538
31266SOL     OW95804   8.167  10.420   6.248  0.4359  0.1273 -0.1142
31266SOL    HW195805   8.162  10.383   6.336  2.0070 -1.4637 -0.6336
31266SOL    HW295806   8.192  10.347   6.192 -3.5024  0.2868 -2.4901
31267SOL     OW95807   7.147  10.390   6.294  0.7543 -0.1737 -0.4707
31267SOL    HW195808   7.229  10.378   6.247  1.5970 -3.7595  1.5617
31267SOL    HW295809   7.080  10.350   6.238  0.7028  0.7231 -1.0873
31268SOL     OW95810   8.381   6.398  10.095  0.5149 -0.3878  0.5143
31268SOL    HW195811   8.341   6.485  10.101 -0.6396 -0.8855  0.1684
31268SOL    HW295812   8.355   6.354  10.176  1.2451 -0.3724  0.7704
31269SOL     OW95813   2.310   7.830   8.470  0.3281 -0.9222 -0.4474
31269SOL    HW195814   2.307   7.754   8.412  0.0884 -0.9873 -0.3499
31269SOL    HW295815   2.270   7.901   8.420  0.6404 -0.8330 -0.5756
31270SOL     OW95816   7.095   2.802   2.802  0.2475  0.6721  0.2431
31270SOL    HW195817   7.028   2.744   2.840  2.0956 -1.3685  0.5803
31270SOL    HW295818   7.123   2.757   2.723  0.2846  2.2026 -0.6556
31271SOL     OW95819  10.508   3.007   7.358 -0.0057  0.0325 -0.6900
31271SOL    HW195820  10.528   3.072   7.425  1.7408 -0.6490 -0.4907
31271SOL    HW295821  10.560   3.035   7.282 -0.3653 -0.3288 -1.0712
31272SOL     OW95822   7.249   0.266   6.867 -0.4082  0.3674 -0.3721
31272SOL    HW195823   7.204   0.242   6.786 -1.4422  2.1562 -0.3709
31272SOL    HW295824   7.221   0.355   6.885  0.5708  0.3598  1.4519
31273SOL     OW95825   7.180   4.824   2.409 -0.8436 -0.0943 -0.5470
31273SOL    HW195826   7.188   4.919   2.412  0.2277 -0.1709 -0.4284
31273SOL    HW295827   7.119   4.802   2.479  0.7056  0.3435  0.9942
31274SOL     OW95828   5.223   0.530   2.491  0.3226 -0.1819 -0.8141
31274SOL    HW195829   5.144   0.566   2.451 -1.3902 -2.0501  0.6355
31274SOL    HW295830   5.281   0.605   2.503 -1.6350  1.4500 -1.0228
31275SOL     OW95831   4.800   4.303   3.866  0.8435  0.6695 -0.1917
31275SOL    HW195832   4.760   4.371   3.920  0.4182  0.7825 -0.6351
31275SOL    HW295833   4.845   4.246   3.928 -1.1236 -0.2327  0.5119
31276SOL     OW95834   7.365   2.335   4.001 -0.0349 -0.4035  0.2999
31276SOL    HW195835   7.426   2.348   4.073  2.0084 -0.2474 -1.3366
31276SOL    HW295836   7.307   2.411   4.004  1.4402  0.7701  0.4769
31277SOL     OW95837  10.159   4.473   8.997  0.6937  0.2405  0.4445
31277SOL    HW195838  10.126   4.520   9.074  0.6049  1.8693 -0.5559
31277SOL    HW295839  10.253   4.487   8.999  0.5783  1.1948 -0.3095
31278SOL     OW95840   0.510   8.898   7.993  0.2484 -0.3351  0.7805
31278SOL    HW195841   0.504   8.839   8.068  1.6036 -0.8464  0.4996
31278SOL    HW295842   0.565   8.970   8.023 -0.0780 -0.0036  0.5999
31279SOL     OW95843   6.365   3.860   8.851 -0.1761 -0.6528 -0.5080
31279SOL    HW195844   6.396   3.942   8.890  0.3449 -0.1666 -1.8825
31279SOL    HW295845   6.439   3.800   8.861 -0.4217 -0.8631  0.1549
31280SOL     OW95846   6.076   0.968   5.644 -0.5143 -0.1654 -0.2192
31280SOL    HW195847   6.049   1.040   5.700 -1.4463 -0.1236 -0.7018
31280SOL    HW295848   6.122   1.009   5.571 -1.6114  0.0135 -0.8286
31281SOL     OW95849   6.928   0.280   4.170  0.2713 -0.4682 -0.1922
31281SOL    HW195850   7.007   0.229   4.155  1.4882  1.1656  0.3539
31281SOL    HW295851   6.954   0.370   4.150 -1.1422  0.2566  1.0404
31282SOL     OW95852   8.264   7.223   5.773 -0.7830  0.0711  0.0455
31282SOL    HW195853   8.277   7.148   5.715  2.6750 -0.0211  0.7289
31282SOL    HW295854   8.318   7.204   5.849 -1.4520  2.3430  1.1779
31283SOL     OW95855   1.234   0.201   1.648  0.4022  0.1176 -0.1783
31283SOL    HW195856   1.309   0.166   1.695 -0.5715  1.2378  2.4411
31283SOL    HW295857   1.176   0.126   1.634 -0.0296 -0.0192  2.0409
31284SOL     OW95858   7.932  10.575   7.104 -0.0089 -0.0679  0.2074
31284SOL    HW195859   8.007  10.634   7.107  0.8681 -1.0641 -0.8047
31284SOL    HW295860   7.887  10.588   7.187  1.4212  0.3904  0.9411
31285SOL     OW95861   7.538   9.797   9.787 -0.0579 -0.4668 -0.4369
31285SOL    HW195862   7.456   9.769   9.746 -0.5930  1.6298 -0.9171
31285SOL    HW295863   7.548   9.740   9.863 -1.9149 -0.8459 -0.4316
31286SOL     OW95864   1.511   2.304  10.299  0.4982 -0.4363  0.2824
31286SOL    HW195865   1.431   2.283  10.347 -0.2742 -2.1644 -1.6069
31286SOL    HW295866   1.556   2.369  10.354 -2.5047  1.1401  1.0784
31287SOL     OW95867   5.014   9.150   0.506 -0.3638 -0.5453 -0.0779
31287SOL    HW195868   5.043   9.207   0.577  2.1380 -1.9289  0.1276
31287SOL    HW295869   4.919   9.145   0.516 -0.3590  1.3872  1.5067
31288SOL     OW95870   5.321   6.895   2.119 -0.2508 -0.1155 -0.0075
31288SOL    HW195871   5.374   6.861   2.191 -1.6380 -0.1426  1.0610
31288SOL    HW295872   5.361   6.859   2.040  0.1715 -1.7097  0.8820
31289SOL     OW95873   2.952   5.897   0.027 -0.6724  0.2385  0.2606
31289SOL    HW195874   3.014   5.873   0.096 -1.7502 -2.4670  0.3837
31289SOL    HW295875   3.005   5.946  -0.036  0.8510  0.7360  1.8418
31290SOL     OW95876   2.141   7.374   3.527 -0.5861 -0.1289  0.0578
31290SOL    HW195877   2.171   7.432   3.457  1.5562  0.5681  1.4781
31290SOL    HW295878   2.050   7.354   3.504 -0.7386  2.1115 -1.5858
31291SOL     OW95879   2.404   0.006   4.423  0.1252  0.5377 -0.0226
31291SOL    HW195880   2.434   0.028   4.335  0.8809 -1.0366 -0.1823
31291SOL    HW295881   2.479   0.024   4.479 -0.1827  1.0205  0.2508
31292SOL     OW95882   5.859   7.538   1.876 -0.3083  0.0915 -0.9822
31292SOL    HW195883   5.941   7.562   1.917 -1.1360 -0.2524  0.9876
31292SOL    HW295884   5.876   7.453   1.835 -0.4994 -1.7983  2.4705
31293SOL     OW95885   2.211   2.737   1.847 -0.5344 -0.5490  0.8657
31293SOL    HW195886   2.192   2.645   1.829  0.2746 -1.0355  2.3150
31293SOL    HW295887   2.230   2.739   1.941 -2.4230  1.4372  1.2761
31294SOL     OW95888   0.291   2.065   8.011 -0.1792  0.4626  0.0710
31294SOL    HW195889   0.360   2.008   8.045 -0.2375  0.9455  1.0431
31294SOL    HW295890   0.210   2.019   8.032 -0.1689 -0.1408 -1.1383
31295SOL     OW95891   7.786   2.109   1.464 -0.2536  0.3687  0.3095
31295SOL    HW195892   7.713   2.171   1.473  1.4542  2.8403 -1.6200
31295SOL    HW295893   7.830   2.113   1.549 -0.5715  1.2774  0.4465
31296SOL     OW95894   5.491   1.818   0.989  0.6859 -0.1112  0.5440
31296SOL    HW195895   5.460   1.840   1.077  0.7913  0.3370  0.4747
31296SOL    HW295896   5.428   1.754   0.957 -1.6489  2.4635 -0.4924
31297SOL     OW95897   3.987   1.946   0.579  0.1958  0.2274 -0.2082
31297SOL    HW195898   4.011   1.968   0.489 -0.6693 -1.2657 -0.8508
31297SOL    HW295899   4.030   1.862   0.595 -1.0760 -0.3858  0.1267
31298SOL     OW95900   6.430   3.941   8.309 -0.0913  0.0985 -0.0614
31298SOL    HW195901   6.402   3.861   8.266 -0.3030  0.7289 -1.1437
31298SOL    HW295902   6.406   4.011   8.248 -0.8883  1.0890  1.3290
31299SOL     OW95903   0.530   2.788   1.434  0.3026 -0.2275 -0.3383
31299SOL    HW195904   0.585   2.854   1.476  0.7171 -0.0895 -1.0722
31299SOL    HW295905   0.509   2.826   1.348 -0.3422 -0.5944 -0.3535
31300SOL     OW95906   5.792   7.181   6.165 -0.5586  0.0616  0.4662
31300SOL    HW195907   5.707   7.206   6.202 -0.6000  0.1361  0.3247
31300SOL    HW295908   5.834   7.265   6.143 -0.0831  0.0574  1.3283
31301SOL     OW95909   4.243   3.870  10.115 -0.6637  0.1311  0.1987
31301SOL    HW195910   4.210   3.822  10.039 -0.6528 -1.1652  0.9775
31301SOL    HW295911   4.338   3.864  10.108 -0.6456  0.6902 -0.0904
31302SOL     OW95912   6.917  10.723   8.235  0.5762  0.2846 -0.4264
31302SOL    HW195913   6.955  10.802   8.273  1.1456  0.1340 -0.6694
31302SOL    HW295914   6.992  10.674   8.202  0.2418 -0.4263 -0.1569
31303SOL     OW95915   9.521  10.577   4.355 -0.1982 -0.3327 -0.1127
31303SOL    HW195916   9.484  10.664   4.342 -1.0986 -0.7416 -0.3593
31303SOL    HW295917   9.542  10.574   4.449 -0.9522 -0.1347  0.0758
31304SOL     OW95918   4.509   3.261   0.924 -0.5136 -0.2739 -0.2219
31304SOL    HW195919   4.515   3.325   0.995  2.3489 -1.1458  0.4725
31304SOL    HW295920   4.529   3.311   0.845  1.0675 -0.1011  0.2400
31305SOL     OW95921   8.070   4.890   0.421  0.0790 -0.5126 -0.1424
31305SOL    HW195922   8.161   4.861   0.414  0.5862  1.2427 -1.9520
31305SOL    HW295923   8.040   4.896   0.331 -2.1305 -1.7391  0.4365
31306SOL     OW95924   8.848   6.612   5.955  0.1336  0.0878 -0.4012
31306SOL    HW195925   8.867   6.651   5.870  1.5774 -1.6638 -0.9595
31306SOL    HW295926   8.757   6.581   5.947  0.1585  0.1910 -1.2167
31307SOL     OW95927   3.776   9.288   9.614 -0.1300 -0.1526 -0.3856
31307SOL    HW195928   3.808   9.377   9.623  0.9706 -0.6667  1.2298
31307SOL    HW295929   3.799   9.262   9.525 -0.8013  1.2706 -1.0019
31308SOL     OW95930   2.816   3.300   0.791  0.0679  0.4524  0.2172
31308SOL    HW195931   2.891   3.335   0.743 -0.0188  0.2213 -0.0885
31308SOL    HW295932   2.774   3.378   0.829  0.4652  0.5779  0.3951
31309SOL     OW95933   8.291   4.379   9.597 -0.3007 -0.1254 -0.0658
31309SOL    HW195934   8.203   4.414   9.584 -0.6512 -1.1749 -0.7072
31309SOL    HW295935   8.336   4.396   9.514 -0.3362 -0.7707 -0.2252
31310SOL     OW95936   7.709   5.346   7.696 -0.5737  0.4779  0.4096
31310SOL    HW195937   7.674   5.428   7.662  0.7522  1.9634  2.3947
31310SOL    HW295938   7.661   5.278   7.649 -0.9413  2.3451 -2.1343
31311SOL     OW95939   8.163   5.512  10.163 -0.1577  0.4718 -0.0792
31311SOL    HW195940   8.192   5.603  10.173  1.0799  0.1744 -0.8863
31311SOL    HW295941   8.222   5.474  10.098 -0.7819 -0.8652  0.1027
31312SOL     OW95942   5.084   2.224   0.135  1.2040  0.7505  0.5683
31312SOL    HW195943   5.140   2.296   0.163  1.1276  0.7614  0.6909
31312SOL    HW295944   5.006   2.230   0.190  0.5727  1.4321 -0.3568
31313SOL     OW95945   4.745  10.928   0.958  0.4304  0.5080  0.3909
31313SOL    HW195946   4.706  10.871   0.892  2.2749 -1.3842  0.8284
31313SOL    HW295947   4.778  11.004   0.909 -1.2354  0.7951 -0.3363
31314SOL     OW95948   9.037   1.019   6.196  0.1191 -0.1784  0.6806
31314SOL    HW195949   9.038   0.938   6.146  2.4756  0.5377 -0.6298
31314SOL    HW295950   9.130   1.043   6.203 -0.5043  2.5707  0.6701
31315SOL     OW95951  10.086   0.826   2.771  0.8267 -0.8023 -0.1817
31315SOL    HW195952  10.023   0.857   2.705  1.9365  0.2337 -0.7848
31315SOL    HW295953  10.117   0.742   2.737 -0.7382 -1.7114  0.4933
31316SOL     OW95954   4.519   5.769  10.494 -0.4198 -0.6033  0.1068
31316SOL    HW195955   4.468   5.701  10.451 -0.0904  0.3198 -1.8690
31316SOL    HW295956   4.457   5.840  10.509 -0.3549 -0.6100  0.4059
31317SOL     OW95957   6.454   5.391   5.817  0.7408  0.6544 -0.0210
31317SOL    HW195958   6.405   5.326   5.868  1.4681 -1.0854 -1.3986
31317SOL    HW295959   6.516   5.339   5.767  1.5982  2.4912 -0.9544
31318SOL     OW95960   9.029   1.452   2.221 -0.3918 -0.1687  0.7817
31318SOL    HW195961   9.123   1.470   2.216 -0.1456 -0.9705  2.0793
31318SOL    HW295962   9.008   1.407   2.140  0.3457 -0.0162  0.5010
31319SOL     OW95963   9.645   7.619   0.549  0.3316 -0.1769  0.2889
31319SOL    HW195964   9.663   7.526   0.533  0.7070 -0.0801  0.1329
31319SOL    HW295965   9.564   7.620   0.599 -1.2277 -0.4961 -2.0488
31320SOL     OW95966   6.501   2.095   6.956 -0.0594  0.3045  0.0636
31320SOL    HW195967   6.429   2.035   6.974  0.3213  0.2527  1.5292
31320SOL    HW295968   6.523   2.133   7.041  0.9116  1.1575 -0.5377
31321SOL     OW95969   7.327   5.734   0.154 -0.7127  0.5583  0.0503
31321SOL    HW195970   7.358   5.647   0.175 -1.7290  0.4400  1.1773
31321SOL    HW295971   7.406   5.786   0.141 -0.0982 -0.5463 -0.7852
31322SOL     OW95972   7.258   0.649   1.845 -0.4212 -0.0652 -0.5356
31322SOL    HW195973   7.327   0.713   1.826 -0.6018  0.3817  0.3003
31322SOL    HW295974   7.274   0.622   1.935 -1.5937  0.3660 -0.1803
31323SOL     OW95975   8.436   4.359  10.514 -0.2766  0.7570 -0.2427
31323SOL    HW195976   8.472   4.271  10.528 -3.1844 -0.3371  1.3189
31323SOL    HW295977   8.493   4.417  10.565  1.7113 -0.1543 -1.3157
31324SOL     OW95978   9.090   2.927  10.488  0.6661  0.3800 -0.0404
31324SOL    HW195979   9.182   2.949  10.480  0.8993 -0.6033 -0.1673
31324SOL    HW295980   9.082   2.890  10.576  0.4152  0.3794 -0.0623
31325SOL     OW95981   9.141   8.375   5.261  0.1950  0.1876  0.5903
31325SOL    HW195982   9.189   8.293   5.275 -0.2648 -0.5656 -1.8758
31325SOL    HW295983   9.196   8.425   5.202  0.5878  1.8496  2.2623
31326SOL     OW95984   4.243   4.796   9.349  0.2849  0.3548  0.0834
31326SOL    HW195985   4.187   4.733   9.304 -0.4956  1.3185 -0.3163
31326SOL    HW295986   4.274   4.749   9.427  2.1718 -1.5839 -1.6870
31327SOL     OW95987   7.987   7.516   5.536 -0.3502 -0.4329  0.0930
31327SOL    HW195988   8.052   7.583   5.553  0.4986 -0.7599 -1.6129
31327SOL    HW295989   7.943   7.502   5.620 -0.0871  1.7409  0.6314
31328SOL     OW95990   8.616   9.128   0.483  0.2605  0.0532 -0.5757
31328SOL    HW195991   8.602   9.045   0.528 -1.7056  1.5102  1.7672
31328SOL    HW295992   8.681   9.174   0.536  0.7318  0.3568 -1.3930
31329SOL     OW95993   6.010  10.347   3.528  0.3580 -0.0122 -0.4485
31329SOL    HW195994   6.065  10.274   3.557 -0.5960 -0.2932  0.7238
31329SOL    HW295995   5.925  10.330   3.567  0.1992  1.9052  0.1330
31330SOL     OW95996   7.308   7.899  10.371  0.7423 -0.5104 -0.0289
31330SOL    HW195997   7.360   7.880  10.293  0.0485 -0.8468 -0.4161
31330SOL    HW295998   7.295   7.814  10.412  0.7326 -0.3905  0.2163
31331SOL     OW95999   6.593   3.484   4.126  0.4834 -0.3590  0.3307
31331SOL    HW196000   6.614   3.397   4.091  0.1630 -0.1053 -0.5069
31331SOL    HW296001   6.677   3.522   4.149  0.6602 -0.7124  0.2797
31332SOL     OW96002   2.417  10.458  10.069 -0.0671  0.0853 -0.8860
31332SOL    HW196003   2.505  10.420  10.072  0.2077  0.6344 -1.5045
31332SOL    HW296004   2.422  10.535  10.125 -0.6401 -0.8059  0.4145
31333SOL     OW96005  10.507   5.871   5.647 -0.0463 -0.1359 -0.0308
31333SOL    HW196006  10.597   5.881   5.616  0.4739 -0.0710  1.3832
31333SOL    HW296007  10.502   5.780   5.676 -0.3416 -0.0656  0.1435
31334SOL     OW96008   9.640   4.498   3.527  0.1070  0.2255  0.3224
31334SOL    HW196009   9.561   4.543   3.556  0.7107  0.4118  1.7762
31334SOL    HW296010   9.625   4.407   3.549 -0.1845  0.0599 -0.5260
31335SOL     OW96011   0.360   7.327   5.538  0.0278  0.0431  0.4687
31335SOL    HW196012   0.269   7.319   5.566 -0.7403  1.2492 -1.4810
31335SOL    HW296013   0.400   7.384   5.603 -0.7500 -0.0222  1.0283
31336SOL     OW96014   8.388   1.167   2.781  0.1706  0.2583  0.2219
31336SOL    HW196015   8.421   1.104   2.717 -1.2260  0.6098 -0.8746
31336SOL    HW296016   8.396   1.121   2.865 -2.6727 -2.2749 -0.7009
31337SOL     OW96017   7.162   5.708   6.700  0.6081  0.1872  0.0775
31337SOL    HW196018   7.237   5.685   6.755  0.0525  0.7621  1.1005
31337SOL    HW296019   7.155   5.636   6.637  0.8356 -0.8258  1.1898
31338SOL     OW96020   4.153   1.256   3.859  0.3955  0.1655  0.1529
31338SOL    HW196021   4.134   1.266   3.953  0.5025 -2.3429  0.4925
31338SOL    HW296022   4.074   1.217   3.822  1.4284 -1.7039 -0.1846
31339SOL     OW96023  10.412   5.660   9.917  0.1316 -0.3932  0.2900
31339SOL    HW196024  10.358   5.657   9.996 -0.8629  0.6738 -0.3104
31339SOL    HW296025  10.495   5.619   9.943 -0.4642 -0.8196  1.6337
31340SOL     OW96026   9.000   1.217   0.163  0.1166  0.0686  0.4612
31340SOL    HW196027   8.987   1.311   0.161  0.9004  0.1808 -0.9735
31340SOL    HW296028   9.095   1.205   0.163  0.0279 -0.7127  0.5817
31341SOL     OW96029   3.541   0.980   9.423  0.4076 -0.1571  0.4601
31341SOL    HW196030   3.507   0.916   9.485 -2.4897  1.1715  0.4067
31341SOL    HW296031   3.536   1.063   9.470 -0.1393  0.6131 -0.9146
31342SOL     OW96032   9.826  11.052  10.400 -0.1732 -0.1259 -0.2008
31342SOL    HW196033   9.771  10.978  10.372  1.1707 -0.8131 -1.1435
31342SOL    HW296034   9.765  11.113  10.440 -1.4069 -1.5394  0.1846
31343SOL     OW96035   3.564   0.829   9.113  0.2861 -0.2819 -0.8815
31343SOL    HW196036   3.633   0.895   9.111  0.1687 -0.1179 -0.0063
31343SOL    HW296037   3.484   0.878   9.093 -0.2551  0.4940  2.5952
31344SOL     OW96038   8.295   3.588   1.755 -0.0468 -0.3201  0.0300
31344SOL    HW196039   8.267   3.504   1.720  0.3330 -0.6907  0.6109
31344SOL    HW296040   8.240   3.601   1.833  0.2049 -0.2381  0.1938
31345SOL     OW96041   7.325   4.212   7.637 -0.1317  0.4012 -0.2789
31345SOL    HW196042   7.268   4.286   7.614  0.4817  1.2304  0.7774
31345SOL    HW296043   7.412   4.250   7.647  0.2507 -0.5163  0.0140
31346SOL     OW96044   5.895   5.075   9.233  0.3577  0.0314  0.1454
31346SOL    HW196045   5.976   5.040   9.269  0.7882 -1.0322 -1.7222
31346SOL    HW296046   5.837   5.087   9.308  1.9870  0.1312  1.4200
31347SOL     OW96047   0.270   7.797   2.382  0.0826  0.3565 -0.0286
31347SOL    HW196048   0.269   7.748   2.300 -4.6248  0.3459 -0.2103
31347SOL    HW296049   0.290   7.887   2.355 -0.5817  0.2029 -1.1260
31348SOL     OW96050   7.888   8.955   0.030 -0.5923 -0.0693  0.3762
31348SOL    HW196051   7.808   8.976  -0.019 -0.4296 -1.6975 -0.6662
31348SOL    HW296052   7.959   8.980  -0.029 -0.3732 -0.7140  0.3616
31349SOL     OW96053   0.474   7.553   8.921  0.3709 -0.0135  0.0843
31349SOL    HW196054   0.556   7.591   8.890  0.4722  0.5063  0.9659
31349SOL    HW296055   0.457   7.597   9.004 -0.4959 -0.5442  0.1985
31350SOL     OW96056   7.498   3.828   6.264  0.5478 -0.1217  0.0990
31350SOL    HW196057   7.582   3.782   6.254 -0.3296 -2.2737  1.8343
31350SOL    HW296058   7.514   3.914   6.226  3.3723 -0.6384 -0.1343
31351SOL     OW96059  10.070  10.731   9.647 -0.6716 -0.1034  0.8564
31351SOL    HW196060  10.057  10.768   9.560  0.7398  0.1399  0.7186
31351SOL    HW296061  10.036  10.642   9.640 -0.0261 -0.2866 -0.1352
31352SOL     OW96062   8.260   6.293   0.239  0.3126  0.2084 -0.4222
31352SOL    HW196063   8.292   6.206   0.261 -0.8796 -0.5400 -1.5429
31352SOL    HW296064   8.192   6.279   0.173 -0.4136  1.9277 -0.1189
31353SOL     OW96065   7.915   5.116   1.200 -0.3822 -0.5089  0.2037
31353SOL    HW196066   7.889   5.122   1.108  0.0189 -0.6233  0.0794
31353SOL    HW296067   7.965   5.034   1.205 -0.8417 -0.7639  0.6317
31354SOL     OW96068   1.420   5.739   7.883 -0.2544  0.2280  0.2902
31354SOL    HW196069   1.456   5.707   7.800 -2.5959 -0.3840 -0.5626
31354SOL    HW296070   1.400   5.660   7.932  0.1508  0.5726  1.0251
31355SOL     OW96071   8.558   0.350   9.075  0.2409 -0.0345  0.1702
31355SOL    HW196072   8.501   0.369   9.001  0.5491 -0.2012 -0.1096
31355SOL    HW296073   8.638   0.315   9.036  0.0896 -0.8979  0.6227
31356SOL     OW96074   5.108   3.366   1.698 -0.5152 -0.5885  0.7504
31356SOL    HW196075   5.171   3.294   1.705 -2.2048 -2.2614 -0.1652
31356SOL    HW296076   5.022   3.323   1.701 -1.6484  1.5851  1.8240
31357SOL     OW96077   5.138   4.076   3.016  0.5011 -0.1457  0.4527
31357SOL    HW196078   5.129   4.114   2.928 -0.7494 -1.2478  0.0594
31357SOL    HW296079   5.096   4.139   3.074 -2.3596 -1.1876 -0.2970
31358SOL     OW96080  10.105   4.741   2.038  0.2961  0.0782  0.0733
31358SOL    HW196081  10.077   4.651   2.050 -0.2472  0.4634  2.0848
31358SOL    HW296082  10.027   4.787   2.007  0.4546 -0.0591 -0.5315
31359SOL     OW96083  10.868   3.003   4.510 -0.1221  0.0287  0.3952
31359SOL    HW196084  10.931   3.063   4.469 -1.0296  1.3079  0.8180
31359SOL    HW296085  10.792   3.004   4.451  0.2170 -1.5245 -0.1262
31360SOL     OW96086   7.586   1.154  10.154 -0.1415  0.0945 -0.3651
31360SOL    HW196087   7.640   1.232  10.142 -1.4881  0.9900 -0.8180
31360SOL    HW296088   7.555   1.160  10.245  0.5707 -0.4733 -0.0718
31361SOL     OW96089   5.161   3.721   0.177 -0.0705  0.3079 -0.4897
31361SOL    HW196090   5.195   3.674   0.253 -0.9190 -0.0018 -0.2848
31361SOL    HW296091   5.224   3.792   0.162  0.9767 -0.6102 -0.5205
31362SOL     OW96092   5.583   0.351   9.193  0.7260 -0.8462 -0.1099
31362SOL    HW196093   5.494   0.314   9.195  0.4790 -0.2769 -0.2770
31362SOL    HW296094   5.569   0.445   9.178  1.2829 -0.4781  1.4673
31363SOL     OW96095   4.096   5.760   9.301 -0.6621 -0.2514  0.2179
31363SOL    HW196096   4.111   5.829   9.366 -0.4840 -0.3255  0.2549
31363SOL    HW296097   4.018   5.789   9.253 -1.0142 -0.3744  0.7068
31364SOL     OW96098   5.578   6.429   8.364 -0.1449 -0.2745  0.2997
31364SOL    HW196099   5.556   6.386   8.447 -0.9244  2.1271  1.4078
31364SOL    HW296100   5.525   6.508   8.363  1.5424  0.9159 -1.4505
31365SOL     OW96101   0.519   1.738   6.452 -0.3684  0.1866  0.1764
31365SOL    HW196102   0.567   1.737   6.535  0.2094 -0.4958 -0.1559
31365SOL    HW296103   0.427   1.744   6.478 -0.2050 -0.1636  0.8809
31366SOL     OW96104   5.423   4.246   9.734  0.6731  0.1858  0.0852
31366SOL    HW196105   5.512   4.278   9.746  1.4754 -1.7143 -0.4339
31366SOL    HW296106   5.420   4.216   9.643 -0.3141 -0.2960  0.2573
31367SOL     OW96107   3.346   8.600   9.206  0.5203 -0.0611  0.1602
31367SOL    HW196108   3.334   8.686   9.167 -0.0160 -0.6436 -1.0142
31367SOL    HW296109   3.320   8.611   9.298  2.5546  1.5325  0.6115
31368SOL     OW96110   9.499   8.625   8.863  0.8288 -0.4622  0.0101
31368SOL    HW196111   9.425   8.599   8.917 -0.5125  0.1601 -1.4460
31368SOL    HW296112   9.526   8.544   8.819  0.2709 -0.4753 -0.3126
31369SOL     OW96113   7.407  10.294   0.767 -0.0396  0.1815 -0.0990
31369SOL    HW196114   7.484  10.327   0.813 -0.3554  0.9816 -0.1138
31369SOL    HW296115   7.442  10.248   0.691  0.4123  1.9418 -1.0121
31370SOL     OW96116  10.080   5.585   6.040 -0.8912 -0.0998  0.6425
31370SOL    HW196117  10.145   5.529   5.997 -0.3277  0.7269  0.3945
31370SOL    HW296118  10.034   5.628   5.969 -0.1386  1.0651  0.8299
31371SOL     OW96119   4.153   1.380   7.912 -0.0867  0.0159 -0.2011
31371SOL    HW196120   4.066   1.350   7.885 -0.5385 -0.0175  1.2013
31371SOL    HW296121   4.200   1.300   7.935  0.4806 -0.0034 -1.3307
31372SOL     OW96122   9.541   9.827   3.894 -0.5043  0.2542  0.1894
31372SOL    HW196123   9.606   9.885   3.933  0.3113 -1.8285  2.2150
31372SOL    HW296124   9.491   9.882   3.834  1.5260  2.4966  0.4364
31373SOL     OW96125   9.152   9.156   0.310 -0.3915 -0.5259  0.2927
31373SOL    HW196126   9.096   9.117   0.377  0.1063 -2.4401 -0.3141
31373SOL    HW296127   9.104   9.232   0.279 -1.9417 -1.2271  0.8600
31374SOL     OW96128   7.761   0.178   7.899 -0.4772 -0.2947 -0.3073
31374SOL    HW196129   7.675   0.188   7.858 -0.0854 -2.6395 -1.9068
31374SOL    HW296130   7.769   0.084   7.916  1.8413 -0.1745 -0.3772
31375SOL     OW96131   0.117   4.771   1.528  0.1281 -0.1677 -0.5261
31375SOL    HW196132   0.207   4.799   1.548 -0.4777  0.9111  0.8484
31375SOL    HW296133   0.068   4.788   1.609 -1.8286  1.4929 -1.9682
31376SOL     OW96134   1.202   7.289   7.555  0.3057 -0.2290  0.2534
31376SOL    HW196135   1.208   7.207   7.506  4.0785 -0.3156  0.5713
31376SOL    HW296136   1.230   7.267   7.644 -1.8852  0.8464  1.3058
31377SOL     OW96137   4.117   9.693   1.221 -0.1869  0.7313  0.5825
31377SOL    HW196138   4.033   9.651   1.237  0.3524 -0.0720  1.4767
31377SOL    HW296139   4.150   9.652   1.141  0.9657 -1.7166  2.1779
31378SOL     OW96140   0.051   2.879   6.757 -0.9064 -0.1842 -0.0715
31378SOL    HW196141   0.075   2.838   6.840  1.1836 -0.5535 -0.7990
31378SOL    HW296142  -0.010   2.948   6.781 -1.9121 -1.5675  1.5372
31379SOL     OW96143   3.922   2.264   5.712  0.6284 -0.3676 -0.4536
31379SOL    HW196144   4.009   2.257   5.751  0.7810 -2.1414 -1.0504
31379SOL    HW296145   3.894   2.354   5.733  1.0433 -0.8825  3.0139
31380SOL     OW96146   9.094   6.635   6.977 -0.0982 -0.3809 -0.1587
31380SOL    HW196147   9.068   6.606   7.064 -1.2592 -0.7375 -0.6022
31380SOL    HW296148   9.049   6.574   6.917 -1.9556  1.8126 -1.1154
31381SOL     OW96149   3.808   9.491   8.307  0.0012 -0.2490 -0.1547
31381SOL    HW196150   3.880   9.431   8.327  0.3337 -0.4179 -1.7371
31381SOL    HW296151   3.851   9.574   8.286 -0.3026 -0.1544 -0.4097
31382SOL     OW96152   6.099   7.399   8.591  0.3499 -0.5184  0.3890
31382SOL    HW196153   6.038   7.444   8.533  1.4177  0.3249 -0.1161
31382SOL    HW296154   6.051   7.388   8.673  0.3039  2.3349  0.8311
31383SOL     OW96155   7.187   8.833   9.758  0.2089 -0.0451  0.3845
31383SOL    HW196156   7.253   8.789   9.704 -1.1691 -3.1220  1.0161
31383SOL    HW296157   7.234   8.859   9.837  1.2424  0.3288 -0.3320
31384SOL     OW96158   2.282   4.181   8.246 -0.0763  0.2001  0.0521
31384SOL    HW196159   2.227   4.249   8.207 -0.1301 -0.4928 -1.1404
31384SOL    HW296160   2.231   4.148   8.320 -1.8038 -1.1096 -1.5995
31385SOL     OW96161   9.261   0.900   8.415  0.1182 -0.0314  0.0315
31385SOL    HW196162   9.166   0.915   8.410  0.5746  3.5412 -0.3047
31385SOL    HW296163   9.284   0.928   8.504  1.0305  0.5185 -0.3686
31386SOL     OW96164   0.282  10.171  10.553  0.1402 -0.3624 -0.2814
31386SOL    HW196165   0.331  10.196  10.474  1.4487 -0.1693  0.5524
31386SOL    HW296166   0.306  10.080  10.568  0.7905 -0.0789  0.4954
31387SOL     OW96167   3.784   1.864   2.156 -0.5768  0.4899 -0.0603
31387SOL    HW196168   3.837   1.907   2.224 -0.4020  1.5504 -0.8389
31387SOL    HW296169   3.848   1.813   2.106 -0.5616  0.4372  0.0117
31388SOL     OW96170   5.623   6.016   2.422 -0.0781  0.4334  0.5590
31388SOL    HW196171   5.625   6.003   2.327 -0.1853  0.3175  0.5722
31388SOL    HW296172   5.713   6.003   2.450 -0.1016  0.1698  0.5124
31389SOL     OW96173   4.681   6.359   4.590 -0.1866  0.2840 -0.1477
31389SOL    HW196174   4.606   6.417   4.579  0.3881  0.7957 -1.7057
31389SOL    HW296175   4.733   6.400   4.660  0.2056  1.6993 -1.2110
31390SOL     OW96176  10.632   5.071   0.070  0.0857  0.0729  0.2104
31390SOL    HW196177  10.718   5.035   0.047 -0.4327 -1.9528  1.1806
31390SOL    HW296178  10.648   5.122   0.149  0.3123 -0.8861  0.8005
31391SOL     OW96179   8.005   7.742   0.699  0.1203  0.2735 -0.1617
31391SOL    HW196180   8.096   7.713   0.705 -0.8179 -2.8241  1.0436
31391SOL    HW296181   7.992   7.761   0.605  2.3575  2.4531 -0.1278
31392SOL     OW96182   4.033   4.347   9.266 -0.5022 -0.5083 -0.5009
31392SOL    HW196183   4.129   4.349   9.273 -0.5069 -0.2680 -0.4958
31392SOL    HW296184   4.017   4.336   9.173 -0.4752  0.8456 -0.6903
31393SOL     OW96185   0.858   3.365   0.135  0.9280 -0.6324 -0.6624
31393SOL    HW196186   0.831   3.315   0.058 -2.1024  1.5047 -1.1669
31393SOL    HW296187   0.896   3.445   0.099  1.3353 -0.4730  0.0955
31394SOL     OW96188   6.503   9.967   2.513 -0.5050 -0.2528 -0.4634
31394SOL    HW196189   6.514  10.019   2.592  0.1164 -0.7023 -0.2483
31394SOL    HW296190   6.578   9.990   2.458 -0.1193 -1.0396 -0.2879
31395SOL     OW96191   1.507   1.949   1.270 -0.3414  0.0339  0.1869
31395SOL    HW196192   1.471   1.861   1.283 -2.0404  0.8381  1.3647
31395SOL    HW296193   1.480   1.997   1.348  0.8133  1.5401 -0.2925
31396SOL     OW96194  11.032   4.543   8.039 -0.3976  0.3890  0.5751
31396SOL    HW196195  11.114   4.589   8.022 -0.7551  0.4051 -1.3875
31396SOL    HW296196  11.053   4.481   8.109  1.1505  0.7272  0.4352
31397SOL     OW96197   2.744   7.465   9.288  0.2495  0.1810  0.7104
31397SOL    HW196198   2.787   7.454   9.373  0.8212  1.2456  0.5754
31397SOL    HW296199   2.697   7.548   9.295 -2.0156 -1.0305  0.9266
31398SOL     OW96200   5.660  10.976   4.295 -0.0337  0.5353  0.0301
31398SOL    HW196201   5.726  10.921   4.338  0.6390 -0.3172 -1.9707
31398SOL    HW296202   5.626  11.032   4.365  0.9549 -0.7948  1.6479
31399SOL     OW96203   9.429   0.219   3.994 -1.1880  0.0106 -0.0784
31399SOL    HW196204   9.453   0.142   3.943 -1.9467 -0.5772  0.4333
31399SOL    HW296205   9.434   0.292   3.931 -1.0784 -0.5397 -0.7180
31400SOL     OW96206   4.829  10.442   8.155 -0.6651  0.2765 -0.0382
31400SOL    HW196207   4.833  10.360   8.204  1.5415  0.0466 -0.4952
31400SOL    HW296208   4.748  10.484   8.185 -1.2073 -1.4723  1.1261
31401SOL     OW96209   1.565   8.437   5.632  0.5430 -0.1160  0.0629
31401SOL    HW196210   1.525   8.491   5.701  0.4989  0.1244 -0.1520
31401SOL    HW296211   1.659   8.443   5.649  0.4703 -2.3972  1.8915
31402SOL     OW96212   8.305   2.628   0.611  0.3817 -0.1724  0.4791
31402SOL    HW196213   8.375   2.564   0.601  0.6001  0.0020  0.8665
31402SOL    HW296214   8.344   2.711   0.582 -0.3889 -0.4804 -1.5853
31403SOL     OW96215  11.027   0.903   6.876 -0.1879  0.3866  0.3444
31403SOL    HW196216  11.118   0.912   6.848 -0.5679 -0.5056 -1.3606
31403SOL    HW296217  11.032   0.873   6.966  1.1780  1.3857  0.6405
31404SOL     OW96218   5.943   4.179   7.190 -0.1453  0.1384  0.3649
31404SOL    HW196219   5.899   4.101   7.223 -0.4795  0.6759  1.2124
31404SOL    HW296220   6.031   4.175   7.227 -0.0895  0.0573  0.2276
31405SOL     OW96221   7.813   9.858  10.207 -0.2281 -0.3152  0.0334
31405SOL    HW196222   7.779   9.874  10.295 -0.5702  0.9036 -0.3140
31405SOL    HW296223   7.881   9.924  10.194 -0.2039 -0.4604 -0.6406
31406SOL     OW96224   6.355   3.613   1.980 -0.1141  0.2233  0.0972
31406SOL    HW196225   6.276   3.596   2.032 -0.3884  1.0451 -0.0407
31406SOL    HW296226   6.390   3.695   2.016  0.7556 -0.2071  0.2500
31407SOL     OW96227   1.287   0.752   2.061 -0.2839  0.2967 -0.3236
31407SOL    HW196228   1.340   0.675   2.043 -2.2711 -1.9462  2.5162
31407SOL    HW296229   1.350   0.823   2.072  1.8767 -1.5401 -0.1258
31408SOL     OW96230   6.815   5.173   0.039  0.1758 -0.3769 -0.0989
31408SOL    HW196231   6.798   5.263   0.013  0.4623 -0.4919 -0.7288
31408SOL    HW296232   6.902   5.154   0.002  0.3981 -0.7066  0.5764
31409SOL     OW96233   5.096   0.968   9.191 -0.0390 -0.4659 -0.5035
31409SOL    HW196234   5.063   1.012   9.113  0.8330 -1.2539 -1.3489
31409SOL    HW296235   5.154   0.899   9.157  2.1389  0.5602  0.8583
31410SOL     OW96236   0.064   5.638   1.554  0.1424 -0.4267 -0.6801
31410SOL    HW196237   0.075   5.732   1.541  1.0516 -0.9047 -4.7081
31410SOL    HW296238  -0.001   5.631   1.625  0.5036  3.1455  0.2053
31411SOL     OW96239  10.151   2.890   9.064  0.0201 -0.2701  0.1521
31411SOL    HW196240  10.140   2.803   9.101  1.2376 -0.7544 -0.5727
31411SOL    HW296241  10.098   2.947   9.120 -1.4414 -1.5740  0.1613
31412SOL     OW96242   6.137   0.302   0.684  0.2638 -0.0543 -0.4429
31412SOL    HW196243   6.151   0.213   0.652  0.8694 -0.0672 -0.1519
31412SOL    HW296244   6.047   0.322   0.659 -0.2376 -1.1237  0.3879
31413SOL     OW96245   8.585  10.737   1.762  0.3220 -0.2178  0.0059
31413SOL    HW196246   8.680  10.721   1.760  0.4280 -0.0499  2.0778
31413SOL    HW296247   8.559  10.734   1.670  2.2366 -0.8502 -0.5661
31414SOL     OW96248   6.713   4.924  11.051  0.5285 -0.3324 -0.2437
31414SOL    HW196249   6.685   5.010  11.080 -1.3106 -0.2468 -2.1046
31414SOL    HW296250   6.807   4.934  11.034  0.3746  1.2565 -0.3026
31415SOL     OW96251   5.955   2.361   2.072 -0.9158  0.2680  0.0805
31415SOL    HW196252   5.969   2.418   1.996 -3.0959 -0.4700 -0.9658
31415SOL    HW296253   5.988   2.411   2.146  0.0142  1.5983 -1.1700
31416SOL     OW96254   3.772   0.723   0.733  0.1720 -0.3765 -0.4471
31416SOL    HW196255   3.853   0.714   0.783 -0.2547 -0.7615  0.1898
31416SOL    HW296256   3.750   0.816   0.740  0.7258 -0.2098 -0.8904
31417SOL     OW96257   3.481   7.611   1.124 -0.6593  0.1332 -0.0576
31417SOL    HW196258   3.465   7.636   1.033  0.7131 -2.1728 -1.0206
31417SOL    HW296259   3.576   7.617   1.135 -0.7543 -0.1022  1.0811
31418SOL     OW96260   9.223   1.170   2.161  0.5582 -0.1399 -0.2207
31418SOL    HW196261   9.240   1.228   2.086  1.9991  0.0886  0.2639
31418SOL    HW296262   9.272   1.091   2.141  0.0149 -0.5317 -0.0365
31419SOL     OW96263   9.118   7.619   1.985  0.1488 -0.3166  1.1581
31419SOL    HW196264   9.163   7.551   1.934  0.8961 -0.6178  2.2045
31419SOL    HW296265   9.184   7.686   2.000 -0.6460  0.7918 -0.0650
31420SOL     OW96266   9.165   5.397   0.440  0.5551  0.0870  0.1868
31420SOL    HW196267   9.100   5.328   0.424  0.3251  0.0758  1.1284
31420SOL    HW296268   9.210   5.406   0.356 -0.7839  0.2346 -0.5531
31421SOL     OW96269   5.859   3.213   5.446  0.0809  0.1976  0.3187
31421SOL    HW196270   5.891   3.298   5.417  1.0054 -0.2614 -0.0503
31421SOL    HW296271   5.788   3.192   5.385 -0.5404  0.9545  0.7699
31422SOL     OW96272   6.833   6.101  10.639  0.3186 -0.0777 -0.1627
31422SOL    HW196273   6.773   6.031  10.615  1.1107 -0.8570  0.0453
31422SOL    HW296274   6.871   6.130  10.556 -1.1788  1.2430 -0.4341
31423SOL     OW96275   1.983   7.041   7.307 -0.2037  0.0900 -0.0016
31423SOL    HW196276   1.930   6.973   7.347  2.6223 -0.6450  2.9881
31423SOL    HW296277   2.003   7.009   7.219  1.1455 -3.1603  1.3280
31424SOL     OW96278   6.445   0.097   0.306 -0.1684  0.3436  0.0341
31424SOL    HW196279   6.503   0.076   0.380 -0.2976  3.1362  1.0352
31424SOL    HW296280   6.505   0.119   0.235 -0.0231  0.7204  0.2715
31425SOL     OW96281   8.439   8.645   9.237 -0.8681  0.3438 -0.1851
31425SOL    HW196282   8.437   8.737   9.262 -2.2071  0.3049 -0.1157
31425SOL    HW296283   8.504   8.641   9.166  0.7281  0.9598  1.1914
31426SOL     OW96284  10.040   3.512   2.862  0.1128 -0.3606 -0.4020
31426SOL    HW196285  10.011   3.545   2.947  0.7365  1.3783 -0.8205
31426SOL    HW296286  10.134   3.496   2.874 -0.1833 -2.1777 -0.1842
31427SOL     OW96287   6.005   0.536   6.942 -0.5471  0.5590 -0.1927
31427SOL    HW196288   5.973   0.625   6.952  0.7333  0.8799  1.4961
31427SOL    HW296289   6.071   0.526   7.011  0.5068 -1.1596 -1.3618
31428SOL     OW96290  10.179   1.990   8.659 -0.5658  0.0378 -0.1362
31428SOL    HW196291  10.272   2.011   8.653 -0.3725 -0.6197  0.3187
31428SOL    HW296292  10.138   2.070   8.694  0.2448 -0.4861  2.2363
31429SOL     OW96293   5.309   4.550   3.998  0.1158 -0.2304 -0.0537
31429SOL    HW196294   5.257   4.503   3.933 -0.9525  0.1879  0.4645
31429SOL    HW296295   5.281   4.513   4.082 -1.9322  2.2829  0.5190
31430SOL     OW96296   9.000   4.761   0.633 -0.5108  0.0611 -0.1951
31430SOL    HW196297   8.929   4.794   0.688  1.4807 -0.4514  2.9502
31430SOL    HW296298   9.009   4.826   0.563 -1.9483  1.8344  1.1790
31431SOL     OW96299   7.919   8.935   3.147 -0.3122 -0.3454 -0.2221
31431SOL    HW196300   7.882   9.003   3.203  0.2358 -0.6765  0.5631
31431SOL    HW296301   7.860   8.930   3.072 -1.7197 -0.7127  0.8788
31432SOL     OW96302   6.336   2.122   9.835  0.6568 -0.3429  0.1864
31432SOL    HW196303   6.359   2.166   9.753 -1.3141 -1.9675 -1.3362
31432SOL    HW296304   6.282   2.186   9.881  1.4177  0.4202  0.0674
31433SOL     OW96305   6.734   1.288   8.971  0.1799  0.0888  0.3499
31433SOL    HW196306   6.746   1.372   9.016 -0.8668  0.3599  0.1334
31433SOL    HW296307   6.810   1.281   8.913  0.1873  0.9654  0.2438
31434SOL     OW96308   5.219   3.840   3.726 -0.5566  0.0806  0.2214
31434SOL    HW196309   5.277   3.818   3.799 -2.7016  0.8392  2.2831
31434SOL    HW296310   5.133   3.809   3.753 -1.3291 -0.2255 -2.3302
31435SOL     OW96311   7.798   3.736  10.956  0.1900  0.3455  0.5012
31435SOL    HW196312   7.818   3.730  10.863  1.5843 -0.1898  0.8061
31435SOL    HW296313   7.751   3.655  10.976 -0.2055  0.5104  0.2501
31436SOL     OW96314   7.031   5.348  10.216 -0.1335  0.4904 -0.3469
31436SOL    HW196315   7.125   5.360  10.201  0.1779 -1.0224  0.2252
31436SOL    HW296316   6.991   5.368  10.131  0.6731  1.3638 -0.5371
31437SOL     OW96317   8.057   1.874  10.044  0.2314  0.0272  0.1545
31437SOL    HW196318   8.066   1.802   9.982  0.3505 -0.0197  0.2243
31437SOL    HW296319   8.095   1.840  10.125  0.0936  0.0952  0.2471
31438SOL     OW96320   5.408   4.924   7.288  0.9101 -0.4754 -0.0170
31438SOL    HW196321   5.479   4.984   7.307  1.3787 -0.8374 -0.6155
31438SOL    HW296322   5.387   4.938   7.196  0.5372 -0.7198  0.0264
31439SOL     OW96323   6.342  10.609   8.434  0.4666 -0.3281 -0.2204
31439SOL    HW196324   6.386  10.686   8.470  1.6194 -0.2669 -1.6500
31439SOL    HW296325   6.312  10.560   8.511 -0.2416  1.4875  0.7206
31440SOL     OW96326   6.439   7.671   9.611  0.1199 -0.2845  0.0370
31440SOL    HW196327   6.372   7.658   9.678  0.3744 -1.2254  0.1196
31440SOL    HW296328   6.508   7.721   9.655  0.5247 -1.3519  0.6447
31441SOL     OW96329   6.136   8.295  10.453  0.4000 -0.5044 -0.3865
31441SOL    HW196330   6.128   8.349  10.531 -0.4163 -0.6182 -0.3792
31441SOL    HW296331   6.116   8.206  10.484 -0.5311 -0.4654 -0.8186
31442SOL     OW96332   8.532   1.567   8.801  0.1757  0.3244  0.6093
31442SOL    HW196333   8.503   1.654   8.776 -0.0506 -0.1821 -0.9948
31442SOL    HW296334   8.626   1.576   8.816  0.2380  0.7336 -0.0488
31443SOL     OW96335   9.648   4.607  10.197  0.4376  0.4464 -0.0936
31443SOL    HW196336   9.629   4.515  10.214  0.5127  0.9561  3.3414
31443SOL    HW296337   9.744   4.611  10.192  0.4217  0.3106 -0.5358
31444SOL     OW96338   1.283   1.339   6.550  0.0241 -0.0197 -0.2142
31444SOL    HW196339   1.228   1.396   6.496  2.6265  1.3274 -1.6180
31444SOL    HW296340   1.324   1.279   6.488  0.6533 -0.5255  0.6692
31445SOL     OW96341   5.414   1.109  10.120 -0.0078  0.3620 -0.0937
31445SOL    HW196342   5.480   1.149  10.176  0.7427  0.2314 -0.8800
31445SOL    HW296343   5.336   1.104  10.176  1.3909 -2.1489  1.8601
31446SOL     OW96344   5.625   2.130   5.024  0.1092 -0.2659  1.0906
31446SOL    HW196345   5.588   2.125   5.112 -0.3045 -0.3262  0.9152
31446SOL    HW296346   5.580   2.204   4.983  0.3315 -0.2110  0.9428
31447SOL     OW96347   6.372   2.960   4.300 -0.0509  0.1007  0.1986
31447SOL    HW196348   6.332   2.979   4.216  0.1177 -0.6051 -0.0455
31447SOL    HW296349   6.354   3.038   4.353 -0.1055  0.5723 -0.5005
31448SOL     OW96350   2.282   5.589   6.175  0.1213  0.6002  0.2048
31448SOL    HW196351   2.323   5.540   6.247 -0.0528  1.2297  0.7417
31448SOL    HW296352   2.284   5.529   6.101  0.7587  0.1191  0.6017
31449SOL     OW96353   3.950   8.335   1.691 -0.5055 -0.1262  0.0392
31449SOL    HW196354   3.875   8.278   1.709 -0.7954  0.2969  0.1772
31449SOL    HW296355   3.982   8.361   1.778  0.3333 -0.9859  0.0085
31450SOL     OW96356   3.989   2.658   1.430  0.0215  0.4883 -0.0703
31450SOL    HW196357   3.918   2.716   1.401 -2.5382 -0.8540  2.8334
31450SOL    HW296358   4.026   2.703   1.506 -0.1786 -0.3838  0.5665
31451SOL     OW96359   9.259   3.225   4.168  0.7082 -0.2207  0.3460
31451SOL    HW196360   9.196   3.288   4.202  0.5073  0.7515 -1.6891
31451SOL    HW296361   9.344   3.268   4.178  0.5294  0.6022 -1.4382
31452SOL     OW96362   9.812   5.366   0.430 -0.2652  0.2105 -0.7061
31452SOL    HW196363   9.727   5.322   0.425  0.1388 -0.7592  0.4789
31452SOL    HW296364   9.818   5.416   0.348 -0.9684 -1.5219 -1.8818
31453SOL     OW96365   7.688   1.577  10.536 -0.2282 -0.0548  0.1571
31453SOL    HW196366   7.671   1.575  10.442 -0.6040 -0.3046  0.2278
31453SOL    HW296367   7.652   1.660  10.565  0.4441  0.3080 -0.0189
31454SOL     OW96368  10.225   0.661   7.802 -0.7853  0.4117 -0.6470
31454SOL    HW196369  10.210   0.725   7.871 -1.6152 -1.0564  0.6108
31454SOL    HW296370  10.317   0.672   7.779  0.2431 -0.5569  2.4094
31455SOL     OW96371  10.097  10.019   5.983  0.0395 -0.1139  0.7083
31455SOL    HW196372  10.028  10.053   5.925  1.0395 -2.0718 -1.8404
31455SOL    HW296373  10.052   9.957   6.040 -0.7412  0.8251  1.1646
31456SOL     OW96374   3.422   1.111   7.500 -0.1839  0.0081  0.1832
31456SOL    HW196375   3.485   1.050   7.539  0.1617  1.1795  1.5438
31456SOL    HW296376   3.336   1.076   7.524 -0.0617 -0.9584 -0.6911
31457SOL     OW96377   4.716   1.728   5.351 -0.4710 -0.5980  0.0442
31457SOL    HW196378   4.730   1.655   5.290 -0.8720 -0.4146 -0.2756
31457SOL    HW296379   4.794   1.728   5.407  0.9915  0.5945 -1.8550
31458SOL     OW96380   2.917   5.301   8.001  0.0662 -0.1601 -0.2060
31458SOL    HW196381   2.840   5.320   8.055  0.2806  0.2338 -0.0375
31458SOL    HW296382   2.970   5.380   8.006  1.2736 -1.0210  1.0066
31459SOL     OW96383   7.433   4.749   1.460 -0.0100  0.0685 -0.7912
31459SOL    HW196384   7.517   4.704   1.446  0.6769  1.4312 -1.2732
31459SOL    HW296385   7.371   4.701   1.406  0.8279  0.0719 -1.7978
31460SOL     OW96386   0.913   5.311   5.579  0.8125 -0.3153 -0.3476
31460SOL    HW196387   0.954   5.360   5.651  3.8410 -0.8953 -1.5223
31460SOL    HW296388   0.838   5.268   5.620  1.6152  0.4395  2.1610
31461SOL     OW96389   7.372   1.898   1.358 -0.3667  0.3161  0.1946
31461SOL    HW196390   7.286   1.939   1.371 -0.9925 -1.1042  0.8453
31461SOL    HW296391   7.352   1.809   1.329  0.9474  0.5331 -1.5443
31462SOL     OW96392   9.123   9.002   0.650  0.0082 -0.1736 -0.1090
31462SOL    HW196393   9.212   9.019   0.619 -0.2418 -0.6242 -1.0962
31462SOL    HW296394   9.134   8.942   0.723  0.4567 -1.0965 -0.9161
31463SOL     OW96395   0.497   7.930  10.739  0.6149  0.0346 -0.0127
31463SOL    HW196396   0.448   7.876  10.677 -0.8601 -1.8734  2.6158
31463SOL    HW296397   0.588   7.919  10.714  0.4171 -3.8595  0.3592
31464SOL     OW96398   8.143   8.793   9.484 -0.4872 -0.3406 -0.4251
31464SOL    HW196399   8.107   8.718   9.435 -1.7958 -0.9796  1.4279
31464SOL    HW296400   8.079   8.863   9.470 -0.4242 -0.2618 -0.3093
31465SOL     OW96401   8.794   5.155   0.687 -0.8283  0.2924  0.5437
31465SOL    HW196402   8.746   5.073   0.676  1.0368 -0.8687  0.7762
31465SOL    HW296403   8.747   5.201   0.756 -1.7931 -0.6566  0.5468
31466SOL     OW96404   5.117   5.714   4.333  0.0142 -0.6963  0.2142
31466SOL    HW196405   5.138   5.645   4.396  0.8126 -1.5037 -0.8860
31466SOL    HW296406   5.199   5.761   4.320 -0.6006  0.6898  1.1871
31467SOL     OW96407   6.123   5.878  10.114  0.5035  0.2471  0.2032
31467SOL    HW196408   6.135   5.819  10.040  0.4113 -1.1371  1.2651
31467SOL    HW296409   6.035   5.860  10.146  0.6393  0.6433  0.8180
31468SOL     OW96410   3.338   1.582   7.647 -0.3827  0.3800  0.5427
31468SOL    HW196411   3.386   1.665   7.649 -0.6990  0.6781 -1.6198
31468SOL    HW296412   3.393   1.524   7.594  1.0858 -1.7194  4.0385
31469SOL     OW96413   9.826   4.626  10.914  0.1763 -0.3335 -0.2668
31469SOL    HW196414   9.765   4.561  10.948  1.4483 -1.4092  0.0401
31469SOL    HW296415   9.905   4.577  10.894  1.2641  1.1479  0.1891
31470SOL     OW96416   8.351   2.957   4.877  0.0445 -0.4443  0.3832
31470SOL    HW196417   8.319   2.931   4.963 -0.9527 -2.6135 -0.5649
31470SOL    HW296418   8.416   2.890   4.855 -0.5928 -0.6222 -1.0355
31471SOL     OW96419   9.018   3.670   6.165  0.2935 -0.0874 -0.1845
31471SOL    HW196420   9.049   3.695   6.252  0.6527  1.7909 -0.8200
31471SOL    HW296421   9.053   3.736   6.106 -0.8457 -0.6997 -1.6340
31472SOL     OW96422   9.737   6.002   9.818 -0.4290  0.3205  0.2260
31472SOL    HW196423   9.814   5.998   9.761  0.0255 -0.7279  0.8763
31472SOL    HW296424   9.717   6.095   9.826 -0.4453  0.5055 -1.5382
31473SOL     OW96425   8.331   7.202   0.270 -0.0800 -0.2472 -0.2734
31473SOL    HW196426   8.392   7.187   0.198  0.2715  0.2966 -0.0934
31473SOL    HW296427   8.294   7.289   0.253 -1.4527 -0.9167 -0.8424
31474SOL     OW96428  10.277   8.366   6.311  0.4143  0.2329  0.6773
31474SOL    HW196429  10.325   8.449   6.303  0.5931  0.0133 -0.7441
31474SOL    HW296430  10.189   8.386   6.279  0.9959 -0.5517 -1.6243
31475SOL     OW96431   4.977   5.571   9.827  0.4492 -0.4082  0.3173
31475SOL    HW196432   4.935   5.616   9.900  0.2153 -0.3568  0.1536
31475SOL    HW296433   5.053   5.625   9.805  0.0513  0.0292 -0.0173
31476SOL     OW96434   4.139   2.573   7.663  0.0588 -0.1399  0.3210
31476SOL    HW196435   4.138   2.577   7.759 -2.6837 -2.3801  0.5061
31476SOL    HW296436   4.077   2.640   7.636 -0.6426 -0.7948  0.2623
31477SOL     OW96437   6.325   5.749   7.461  0.0473  0.3566 -0.1502
31477SOL    HW196438   6.400   5.796   7.425 -0.9641  2.2558  0.0486
31477SOL    HW296439   6.271   5.728   7.385  0.6563 -0.8306 -0.2728
31478SOL     OW96440   8.158   0.427  10.115 -0.2893 -0.5112 -0.0344
31478SOL    HW196441   8.243   0.395  10.144 -0.6995 -0.8402  0.8152
31478SOL    HW296442   8.094   0.367  10.153 -0.8517 -1.0531 -1.7192
31479SOL     OW96443   5.255  10.267   2.345 -0.0307 -0.3984 -0.0888
31479SOL    HW196444   5.203  10.187   2.335 -0.9190  0.2731 -1.0200
31479SOL    HW296445   5.344  10.240   2.322 -0.0690 -1.3931  0.8107
31480SOL     OW96446   7.675   6.636  10.389 -0.2835  0.1446 -0.3381
31480SOL    HW196447   7.637   6.633  10.477 -0.0185 -3.7000 -0.1736
31480SOL    HW296448   7.766   6.611  10.402  0.0004  0.4586 -1.6481
31481SOL     OW96449   7.773   9.154   4.862  0.5508  0.2806  0.0264
31481SOL    HW196450   7.857   9.111   4.843 -0.3342 -2.6087  1.9031
31481SOL    HW296451   7.787   9.201   4.944  0.6224  0.7479 -0.2516
31482SOL     OW96452  10.660   7.867   9.965  0.0711  0.3607  0.6870
31482SOL    HW196453  10.742   7.916   9.955  0.3727 -0.6243 -2.8580
31482SOL    HW296454  10.686   7.784  10.004  0.9439 -0.2137 -1.0339
31483SOL     OW96455   6.991  10.945   4.468 -0.8397  0.4934 -0.2473
31483SOL    HW196456   7.013  11.038   4.469  0.4568  0.2404  1.7220
31483SOL    HW296457   6.897  10.943   4.452 -1.1751  2.2675  1.1166
31484SOL     OW96458   5.967  11.040   2.438 -0.2114  0.0554  0.6028
31484SOL    HW196459   6.045  11.092   2.459  0.5204 -0.3041 -1.0621
31484SOL    HW296460   5.978  11.017   2.346 -1.5948 -1.2304  0.7283
31485SOL     OW96461   5.089   6.248   2.914  0.2637  0.7310 -0.1664
31485SOL    HW196462   5.135   6.251   2.998  1.1807  0.4343 -0.6461
31485SOL    HW296463   5.080   6.339   2.888 -0.4203  0.8522  0.4537
31486SOL     OW96464   3.461   6.825   4.627  0.1164  0.5200 -0.8462
31486SOL    HW196465   3.414   6.886   4.569 -0.6807  2.2638  1.4492
31486SOL    HW296466   3.391   6.778   4.672  0.5770  1.2180  0.6657
31487SOL     OW96467   6.592   4.088   1.705 -0.0884  0.1180  0.3055
31487SOL    HW196468   6.562   4.091   1.614  1.7935  1.0406 -0.3517
31487SOL    HW296469   6.565   4.172   1.742 -0.6634 -0.1683  0.5466
31488SOL     OW96470   5.919   2.538   4.168  0.3797 -0.3284  0.1970
31488SOL    HW196471   5.970   2.494   4.100 -1.9503  0.0007 -1.9262
31488SOL    HW296472   5.978   2.603   4.206  2.4182 -2.0183  0.0808
31489SOL     OW96473   4.845  11.007   6.999  0.2663  0.0559 -0.4958
31489SOL    HW196474   4.903  11.028   7.072 -0.0451  0.0980 -0.2587
31489SOL    HW296475   4.878  11.059   6.925 -0.8814  1.9049  0.2279
31490SOL     OW96476  10.329   4.470  10.702 -0.4896  0.2717 -0.1707
31490SOL    HW196477  10.289   4.515  10.628  0.1519  1.0460 -0.0571
31490SOL    HW296478  10.409   4.519  10.720  1.5489 -2.2624 -1.5615
31491SOL     OW96479   0.441   2.670  10.238 -0.4406 -0.6829  0.5221
31491SOL    HW196480   0.373   2.682  10.172  0.3443  0.4206 -0.1282
31491SOL    HW296481   0.456   2.575  10.241 -1.2868 -0.8373 -0.0541
31492SOL     OW96482   8.510  10.812   0.239  0.6502  0.1461 -0.3569
31492SOL    HW196483   8.439  10.852   0.288  0.7780 -1.3399  1.1311
31492SOL    HW296484   8.589  10.833   0.289  1.0323  0.1442 -0.9371
31493SOL     OW96485  10.393   9.698   7.409 -0.3686  0.4648  0.5103
31493SOL    HW196486  10.317   9.661   7.363  0.4216 -0.6898  0.0629
31493SOL    HW296487  10.455   9.624   7.415  1.5353  1.8479 -0.9371
31494SOL     OW96488   4.522   3.015   2.482 -0.2913  0.2498  0.1520
31494SOL    HW196489   4.565   3.019   2.397  1.0639  0.9788  0.8418
31494SOL    HW296490   4.476   3.099   2.490  1.9626  1.4540  1.3035
31495SOL     OW96491   9.373   3.550   3.484 -0.0931 -0.4754  0.4343
31495SOL    HW196492   9.449   3.509   3.444  0.3687  0.7849  0.0001
31495SOL    HW296493   9.330   3.597   3.413  0.3812  1.2706  1.2663
31496SOL     OW96494   0.107   8.852   9.958 -0.6127  0.2003 -0.3047
31496SOL    HW196495   0.162   8.929   9.947 -1.7979  0.8868 -1.7666
31496SOL    HW296496   0.017   8.884   9.946 -1.3046 -1.0166  1.2663
31497SOL     OW96497   6.549   8.652  10.146 -0.3694 -0.2066 -0.3089
31497SOL    HW196498   6.469   8.599  10.148 -1.3103  1.1023 -1.3785
31497SOL    HW296499   6.529   8.728  10.201  0.7436 -0.6131  0.7078
31498SOL     OW96500   1.749   7.295   6.763 -0.0206  0.7045  0.5100
31498SOL    HW196501   1.668   7.320   6.718 -0.6738 -3.0791 -0.7780
31498SOL    HW296502   1.725   7.292   6.855 -2.4500 -3.0142 -0.0075
31499SOL     OW96503  10.463   4.111   1.874 -0.6892 -0.2311  0.2820
31499SOL    HW196504  10.505   4.119   1.959 -0.5718 -2.0008  0.4301
31499SOL    HW296505  10.381   4.064   1.892 -0.5463 -0.8458 -0.5990
31500SOL     OW96506   8.341   1.662   6.564  0.1678 -0.1584  0.1524
31500SOL    HW196507   8.265   1.604   6.573  0.7318 -0.7998  1.0812
31500SOL    HW296508   8.385   1.632   6.484 -0.7967  0.5297 -0.6514
31501SOL     OW96509   6.872   8.116   2.300  0.6479  0.1504 -0.0806
31501SOL    HW196510   6.781   8.086   2.295  1.2342 -1.5173 -2.6609
31501SOL    HW296511   6.922   8.038   2.322  1.7544  0.2344 -2.1085
31502SOL     OW96512   4.089   1.819   1.118 -0.2548  0.0415 -0.3436
31502SOL    HW196513   4.030   1.884   1.155  1.3728  1.4463 -0.1077
31502SOL    HW296514   4.096   1.751   1.186  3.2723  2.9087  2.5899
31503SOL     OW96515   4.350   2.290   4.761  0.1164  0.7503  0.1562
31503SOL    HW196516   4.406   2.291   4.839 -0.1068  1.9106  0.3197
31503SOL    HW296517   4.377   2.367   4.712 -1.4185  1.4155  0.3045
31504SOL     OW96518   6.014   5.823   5.365  0.1834 -0.2127  0.2552
31504SOL    HW196519   6.013   5.788   5.455  0.7418 -0.2182  0.2614
31504SOL    HW296520   5.983   5.750   5.311 -2.1075  0.3926  0.6356
31505SOL     OW96521  10.832   9.478   6.238 -0.1692  0.2247 -0.4863
31505SOL    HW196522  10.915   9.468   6.193  0.0348  0.4174 -0.1616
31505SOL    HW296523  10.766   9.479   6.168  0.0528 -0.4569 -0.7063
31506SOL     OW96524   6.790   6.649   3.168  0.4623 -0.2963 -1.1488
31506SOL    HW196525   6.857   6.636   3.102  2.0794  0.4309  0.2710
31506SOL    HW296526   6.805   6.579   3.232 -0.5553 -0.5084 -1.1189
31507SOL     OW96527   9.648   5.095   2.726 -0.2535 -0.1152 -0.5466
31507SOL    HW196528   9.596   5.089   2.645 -1.8528 -0.9016  0.4900
31507SOL    HW296529   9.703   5.017   2.725 -1.2035 -0.8157 -0.2965
31508SOL     OW96530   5.966   4.774   6.232  0.2502  0.4736 -0.4198
31508SOL    HW196531   6.062   4.767   6.234  0.2958 -0.1375 -2.4469
31508SOL    HW296532   5.943   4.813   6.316  2.2947  0.8030  0.0398
31509SOL     OW96533   7.066   8.323   4.141  0.3265  0.1464  0.5073
31509SOL    HW196534   7.004   8.366   4.082 -0.0125 -0.1306  0.6611
31509SOL    HW296535   7.152   8.354   4.111  0.3753 -1.9341 -1.8006
31510SOL     OW96536  10.753   1.638   1.979  0.1015 -0.1508  0.4215
31510SOL    HW196537  10.791   1.710   1.928 -0.8442  0.6915  0.8700
31510SOL    HW296538  10.764   1.665   2.070  0.8153 -1.1490  0.6453
31511SOL     OW96539   6.141   4.570   5.926  0.1235 -0.6420  0.1084
31511SOL    HW196540   6.180   4.547   5.842 -1.8184  1.3001 -1.4467
31511SOL    HW296541   6.054   4.532   5.924 -0.6585  1.0279  0.3421
31512SOL     OW96542   4.995   0.991   0.289  0.2947  0.0220  0.1633
31512SOL    HW196543   4.968   0.938   0.364  0.6577 -2.5365 -1.3820
31512SOL    HW296544   5.082   1.023   0.311  1.1120 -2.1065  0.2431
31513SOL     OW96545   8.804   6.720   2.161 -0.0354  0.3088  0.1035
31513SOL    HW196546   8.735   6.782   2.137  0.8331  0.8643 -1.0373
31513SOL    HW296547   8.773   6.681   2.243 -0.3461  2.6737  1.2034
31514SOL     OW96548   5.631   4.742   4.292  0.0696  0.2469  0.3080
31514SOL    HW196549   5.567   4.757   4.222 -0.6330 -0.6637  0.7311
31514SOL    HW296550   5.713   4.776   4.257 -0.1965 -0.4752 -1.1140
31515SOL     OW96551   0.795   0.181   1.844 -0.3147  0.1611  0.2272
31515SOL    HW196552   0.820   0.128   1.768 -0.2711  1.1342 -0.4473
31515SOL    HW296553   0.699   0.186   1.839 -0.3699 -0.3654  0.6477
31516SOL     OW96554   9.304   0.893   0.464  0.0419 -0.0045  0.6510
31516SOL    HW196555   9.228   0.869   0.411  0.1502  2.0905 -0.5497
31516SOL    HW296556   9.375   0.840   0.428 -0.5792 -1.1615  1.0563
31517SOL     OW96557  10.515   0.715   1.381 -0.1042 -0.5982  0.4217
31517SOL    HW196558  10.581   0.645   1.385 -0.6810 -1.0940  1.9142
31517SOL    HW296559  10.542   0.769   1.307  1.5311 -1.2311  0.5118
31518SOL     OW96560   7.238   1.045   1.404  0.8398  0.7086  0.2711
31518SOL    HW196561   7.222   1.130   1.446  1.5216  0.1750  1.6806
31518SOL    HW296562   7.332   1.030   1.414  0.6613 -0.4071  0.4637
31519SOL     OW96563   4.387   3.042   9.367  0.0911 -0.1835 -0.0856
31519SOL    HW196564   4.405   2.948   9.376  1.9972  0.1388 -0.2392
31519SOL    HW296565   4.450   3.085   9.425 -1.4811  0.9936  0.8354
31520SOL     OW96566   5.966   1.591   3.052  0.5103  0.4184  0.2455
31520SOL    HW196567   5.969   1.510   3.103  1.2626  0.5127  0.3554
31520SOL    HW296568   5.918   1.567   2.973  1.1721 -0.2710  0.0416
31521SOL     OW96569  10.430   7.464   6.667 -0.4386  0.0598  0.3555
31521SOL    HW196570  10.353   7.411   6.689  0.5262 -1.9605 -0.8885
31521SOL    HW296571  10.425   7.476   6.573  0.9930 -0.5265  0.1775
31522SOL     OW96572   6.731   4.023   0.081  0.1893 -0.4603  0.1719
31522SOL    HW196573   6.684   4.099   0.047  0.2806 -0.6276 -0.3368
31522SOL    HW296574   6.762   3.977   0.003 -1.6746 -2.1984  0.3718
31523SOL     OW96575   3.585   6.253   1.562  0.2860  0.0929 -0.4179
31523SOL    HW196576   3.647   6.317   1.527  1.6399 -1.7017 -1.4782
31523SOL    HW296577   3.505   6.269   1.513  0.5992  0.9413 -0.6835
31524SOL     OW96578  10.824   2.994  10.724 -0.4918 -0.0851 -0.3000
31524SOL    HW196579  10.813   2.996  10.819 -1.4817  0.3395 -0.4032
31524SOL    HW296580  10.910   3.033  10.709 -0.2179 -0.3923  0.4326
31525SOL     OW96581   5.038  10.698   8.619 -1.2653 -0.1444  0.2192
31525SOL    HW196582   5.083  10.689   8.535 -0.5017  0.5478  0.5386
31525SOL    HW296583   4.994  10.614   8.632  0.0728 -0.9068 -0.0200
31526SOL     OW96584   8.560   1.170  10.400  0.3975  0.6068 -0.2838
31526SOL    HW196585   8.494   1.114  10.441  0.4425 -0.1117 -1.1724
31526SOL    HW296586   8.553   1.151  10.307  2.0910  0.2693 -0.3691
31527SOL     OW96587   7.740   6.227   1.212 -0.4730  0.0634 -0.2358
31527SOL    HW196588   7.648   6.225   1.241 -0.0881 -0.8827  1.0288
31527SOL    HW296589   7.778   6.302   1.257  0.0203 -1.1579  1.4646
31528SOL     OW96590   4.403   3.448   0.172 -0.2656 -0.7824  0.7657
31528SOL    HW196591   4.388   3.489   0.086  1.4042  0.7735  1.1427
31528SOL    HW296592   4.341   3.492   0.230 -0.7229 -1.1295  0.5399
31529SOL     OW96593   3.861   0.038   9.358  0.0038 -0.4112 -0.0006
31529SOL    HW196594   3.954   0.059   9.351 -0.3913  1.4390 -0.3253
31529SOL    HW296595   3.846   0.027   9.451  0.1313  1.6418  0.3125
31530SOL     OW96596   7.551   3.820   8.012  0.0183 -0.4606  0.5646
31530SOL    HW196597   7.523   3.780   8.094  0.4813 -0.5700  0.6750
31530SOL    HW296598   7.541   3.751   7.947  3.5450 -1.8138  1.2244
31531SOL     OW96599   1.906   6.575   4.566  0.3376  0.7545 -0.8356
31531SOL    HW196600   1.871   6.604   4.482 -2.3575  2.5146  0.7287
31531SOL    HW296601   1.956   6.650   4.598 -2.4926  1.9813  1.0440
31532SOL     OW96602   6.818   2.381   0.062 -0.0504 -1.2502  0.1023
31532SOL    HW196603   6.901   2.344   0.094  0.0770 -2.9049 -1.9720
31532SOL    HW296604   6.778   2.419   0.140  3.0200  0.3962  1.0491
31533SOL     OW96605   5.884   4.018   3.328  0.0857 -0.4484 -0.4706
31533SOL    HW196606   5.826   3.962   3.379 -1.6827  1.6572 -0.0143
31533SOL    HW296607   5.935   4.066   3.393  3.3164 -3.0259 -0.8531
31534SOL     OW96608   6.215  10.465   5.712  1.1717 -0.2411  0.1147
31534SOL    HW196609   6.145  10.414   5.753  1.1171 -0.4839 -0.2740
31534SOL    HW296610   6.286  10.402   5.699  1.5377  0.0491  0.6852
31535SOL     OW96611   9.530   1.760   3.880 -0.1547  0.2198 -0.3909
31535SOL    HW196612   9.551   1.761   3.786 -1.0863  0.3654 -0.6130
31535SOL    HW296613   9.519   1.668   3.901  1.3210  0.0931 -0.1151
31536SOL     OW96614   9.223   7.778   8.929  0.1178  0.5243  0.3651
31536SOL    HW196615   9.215   7.705   8.990  0.4884 -0.5317 -0.8113
31536SOL    HW296616   9.133   7.805   8.912 -0.1931 -1.1244 -0.8692
31537SOL     OW96617   3.575   3.142   7.596 -0.1316 -0.2255  0.0627
31537SOL    HW196618   3.667   3.160   7.616 -0.2429  0.3640  0.0581
31537SOL    HW296619   3.562   3.051   7.625 -0.0088  0.2345  1.6721
31538SOL     OW96620   7.111   9.858   2.510  0.7212 -0.2309  0.4979
31538SOL    HW196621   7.133   9.779   2.462  0.6031 -0.6341  1.0971
31538SOL    HW296622   7.016   9.868   2.500  0.8813  0.4602 -0.5021
31539SOL     OW96623   0.713   0.831   8.717 -0.2325  0.2776  0.1686
31539SOL    HW196624   0.747   0.874   8.638  2.9557 -0.6310  0.8940
31539SOL    HW296625   0.709   0.901   8.783 -0.3241  0.5018 -0.0714
31540SOL     OW96626   6.202   5.663   3.008  0.2880  0.1586 -0.6264
31540SOL    HW196627   6.147   5.585   3.001 -0.6858  0.7251  0.3923
31540SOL    HW296628   6.143   5.732   3.037  1.3344  1.0355 -0.4892
31541SOL     OW96629   9.450   4.220   4.109 -0.0750  0.5281 -0.5731
31541SOL    HW196630   9.491   4.202   4.194 -0.1723  3.0517  0.0844
31541SOL    HW296631   9.362   4.182   4.117 -0.4045  1.5198  0.8401
31542SOL     OW96632   2.553   5.134   4.866  0.0735  0.2314 -0.2393
31542SOL    HW196633   2.586   5.211   4.912 -1.1156  0.7949 -0.2904
31542SOL    HW296634   2.460   5.132   4.886  0.0339 -1.0513 -0.4616
31543SOL     OW96635   6.097   9.334   5.801  0.1992 -0.2932 -0.5030
31543SOL    HW196636   6.145   9.411   5.769 -0.2605  0.8859  1.4449
31543SOL    HW296637   6.163   9.281   5.844  0.1902  0.0748 -0.0233
31544SOL     OW96638   7.130   7.945   6.057 -0.3341 -0.4692 -0.5649
31544SOL    HW196639   7.172   7.866   6.022 -0.6664 -0.0987 -1.8438
31544SOL    HW296640   7.114   8.000   5.980 -1.6840  0.1003  0.0913
31545SOL     OW96641   4.423   1.524   9.691 -0.1885 -0.1176 -0.1803
31545SOL    HW196642   4.384   1.450   9.645 -2.5575  0.1564  1.2353
31545SOL    HW296643   4.349   1.578   9.718  1.3178  1.5070  0.9463
31546SOL     OW96644   9.455   3.592   2.581 -0.0782  0.1800 -0.6440
31546SOL    HW196645   9.471   3.657   2.649  2.9216  1.3838 -2.3153
31546SOL    HW296646   9.540   3.550   2.567 -1.2521 -2.0221 -1.7288
31547SOL     OW96647   9.687  11.079  10.876  0.8598 -0.0208 -0.4174
31547SOL    HW196648   9.757  11.013  10.877  0.6660 -0.2529  1.0100
31547SOL    HW296649   9.732  11.162  10.882  1.0343 -0.1503  0.1002
31548SOL     OW96650   3.817   8.014   4.487 -0.2671  0.2891  0.3940
31548SOL    HW196651   3.908   8.026   4.459 -0.5721  1.3358 -0.1741
31548SOL    HW296652   3.824   7.970   4.572  0.7165 -1.9780 -0.7562
31549SOL     OW96653   5.879   8.124   6.707  0.3281 -0.1716  0.9743
31549SOL    HW196654   5.834   8.112   6.623  0.9477  1.0542  0.4442
31549SOL    HW296655   5.903   8.035   6.734 -0.8929 -0.6881  0.4305
31550SOL     OW96656   6.303   6.237   0.303  0.1609 -0.2223  0.2879
31550SOL    HW196657   6.394   6.226   0.276  0.1566  0.5020 -0.0510
31550SOL    HW296658   6.278   6.152   0.339  1.0065 -0.3931  0.5003
31551SOL     OW96659   5.025   4.877   0.034  0.4746  0.3624 -0.3792
31551SOL    HW196660   5.013   4.819   0.109  0.2875  0.0311 -0.6623
31551SOL    HW296661   4.941   4.873  -0.013 -0.0572  1.9507  0.3508
31552SOL     OW96662   0.381   4.564   1.065  0.4102 -0.5123 -0.3972
31552SOL    HW196663   0.305   4.545   1.010  0.8813 -2.3251 -0.4689
31552SOL    HW296664   0.390   4.659   1.062 -1.3965 -0.3386 -0.9908
31553SOL     OW96665   9.540   3.220   5.073 -0.1232  0.0348 -0.0931
31553SOL    HW196666   9.619   3.178   5.107  0.4365  1.6295  0.6977
31553SOL    HW296667   9.558   3.314   5.081 -1.2418  0.4547 -1.9385
31554SOL     OW96668   8.036   7.364   6.681  0.4557 -0.8243  0.2569
31554SOL    HW196669   8.065   7.361   6.772  0.8616 -0.5582  0.1387
31554SOL    HW296670   8.117   7.373   6.631  0.1801 -0.1588 -0.0830
31555SOL     OW96671   1.532   4.294   2.076  0.4181 -0.1568  0.0241
31555SOL    HW196672   1.547   4.206   2.109 -0.5163 -0.0670  0.7153
31555SOL    HW296673   1.604   4.346   2.112 -1.0505  0.1479  2.7686
31556SOL     OW96674   8.496   0.648   0.269 -0.3170  0.0613 -0.0648
31556SOL    HW196675   8.428   0.581   0.266 -0.7051  0.3430  1.8591
31556SOL    HW296676   8.578   0.598   0.275 -0.5455 -0.2560  0.4670
31557SOL     OW96677   7.055   9.755   0.216 -0.0761 -0.6495 -0.3344
31557SOL    HW196678   6.976   9.748   0.269 -0.1356 -1.7818 -0.5487
31557SOL    HW296679   7.023   9.784   0.130 -0.5497 -2.9284 -0.9995
31558SOL     OW96680  10.969   6.780   9.414  0.6710  0.2050 -0.1185
31558SOL    HW196681  11.059   6.754   9.395  1.3979  1.2280  1.6784
31558SOL    HW296682  10.952   6.852   9.353  1.6533  1.0428  0.5534
31559SOL     OW96683   9.069   4.464   0.335  0.0239 -0.1197  0.5905
31559SOL    HW196684   9.038   4.543   0.290 -1.5521 -1.0736 -0.0703
31559SOL    HW296685   9.158   4.486   0.362  0.2144  1.3147 -0.9990
31560SOL     OW96686   3.814   2.229  10.254 -0.7694 -0.3658 -0.5446
31560SOL    HW196687   3.726   2.229  10.293 -0.1898 -1.1503  0.8195
31560SOL    HW296688   3.827   2.319  10.226 -1.8860 -0.1631 -0.4815
31561SOL     OW96689   9.793   0.249   9.656  0.3121 -0.0538 -0.6165
31561SOL    HW196690   9.796   0.158   9.627  1.3315 -0.2704  0.1257
31561SOL    HW296691   9.851   0.295   9.595 -1.4366  0.4260 -1.9970
31562SOL     OW96692   5.074   6.320   9.180 -0.3004 -0.1297 -0.0053
31562SOL    HW196693   4.998   6.376   9.162 -1.1663 -1.2576  0.0233
31562SOL    HW296694   5.069   6.252   9.113 -0.1928 -1.0668  0.9186
31563SOL     OW96695   5.281   3.338   0.154  0.2301  0.0315  0.1814
31563SOL    HW196696   5.222   3.333   0.229  1.6319  0.2357  1.3406
31563SOL    HW296697   5.241   3.403   0.096 -1.3216 -0.7651  0.3119
31564SOL     OW96698   6.164   4.531  10.746  0.2013  0.0275 -0.1118
31564SOL    HW196699   6.225   4.490  10.686  0.6592  1.6590 -0.8101
31564SOL    HW296700   6.218   4.558  10.821  0.1402  0.4576 -0.2194
31565SOL     OW96701   8.013   1.959   0.167  0.5178 -0.2989 -0.1849
31565SOL    HW196702   7.942   1.938   0.107  0.8243  0.5561 -0.8682
31565SOL    HW296703   8.088   1.911   0.133  0.8594  0.7081 -0.9055
31566SOL     OW96704   8.743   9.987   4.446  0.1106 -0.0321  1.0153
31566SOL    HW196705   8.722   9.991   4.540  1.5446  0.7617  1.3344
31566SOL    HW296706   8.829   9.946   4.443  0.0543 -0.0901  0.0338
31567SOL     OW96707   1.749   7.177   1.434  0.2852 -0.7402  0.8132
31567SOL    HW196708   1.792   7.209   1.355  0.2094 -0.3541  0.9216
31567SOL    HW296709   1.656   7.194   1.420  0.3837  0.5373  1.4999
31568SOL     OW96710   7.307   8.107   2.369  0.0056  0.1687  0.1614
31568SOL    HW196711   7.351   8.185   2.402  1.6195 -0.4079 -0.5245
31568SOL    HW296712   7.341   8.036   2.422  0.2159 -0.3480 -0.6505
31569SOL     OW96713   6.888   1.496   2.121 -0.5783 -0.1484 -0.4421
31569SOL    HW196714   6.944   1.547   2.061 -1.6903  2.3405  0.4915
31569SOL    HW296715   6.801   1.499   2.081 -1.4167  1.8526  1.3104
31570SOL     OW96716   1.167   3.044   5.890  0.0809  0.3709  0.2061
31570SOL    HW196717   1.156   2.983   5.963 -0.0443  0.0768 -0.0565
31570SOL    HW296718   1.243   3.010   5.842 -1.0530 -0.6264 -0.9628
31571SOL     OW96719   9.711   7.072   0.188 -0.5335  0.4263 -0.1262
31571SOL    HW196720   9.668   7.116   0.114  1.4089  2.3560 -0.1994
31571SOL    HW296721   9.794   7.041   0.152 -1.1000 -1.8992  0.3961
31572SOL     OW96722   2.594   9.780   4.200 -0.1297 -0.0250 -0.6756
31572SOL    HW196723   2.688   9.795   4.189 -0.2241  2.2833  1.0186
31572SOL    HW296724   2.583   9.762   4.294 -1.3657 -0.6628 -0.9157
31573SOL     OW96725   8.306   3.212   9.656  0.2135  0.9798  0.2012
31573SOL    HW196726   8.387   3.168   9.629  0.1326  1.7900 -1.5204
31573SOL    HW296727   8.236   3.162   9.614  0.1255  2.6426 -1.8212
31574SOL     OW96728   6.354   3.126  10.981 -0.1931 -0.3940 -0.2495
31574SOL    HW196729   6.266   3.102  11.009  0.0340 -0.8374  0.0959
31574SOL    HW296730   6.410   3.102  11.054  0.1958  0.0785 -0.3818
31575SOL     OW96731   5.001   8.951   3.733 -0.0660 -0.5002  0.5167
31575SOL    HW196732   5.019   8.887   3.663 -0.9641 -0.5518  0.3155
31575SOL    HW296733   5.046   8.916   3.810  0.6590 -0.6176  0.0423
31576SOL     OW96734   5.171   0.549   5.627 -0.2702  0.1538 -0.6751
31576SOL    HW196735   5.226   0.482   5.668 -0.1451  1.2442  1.0639
31576SOL    HW296736   5.199   0.552   5.536  1.8115 -0.0814 -0.0768
31577SOL     OW96737   7.552   1.252   2.420  0.2447  0.0752  0.1499
31577SOL    HW196738   7.606   1.309   2.366 -0.4203 -0.8777 -1.6402
31577SOL    HW296739   7.591   1.256   2.507  2.4075  0.3984 -0.7681
31578SOL     OW96740   4.439   5.795   9.419  0.8481  0.2942 -0.1795
31578SOL    HW196741   4.387   5.717   9.397  1.5861  0.3450 -2.3389
31578SOL    HW296742   4.383   5.845   9.478 -1.8540  0.6036 -2.7726
31579SOL     OW96743   0.218   1.925   3.791 -0.1643 -0.3113  0.2954
31579SOL    HW196744   0.159   1.928   3.715  0.1609  0.0649  0.0550
31579SOL    HW296745   0.173   1.975   3.859  0.9945  2.2273 -0.6969
31580SOL     OW96746   3.968   9.545  10.735  0.8344  0.1895 -0.8533
31580SOL    HW196747   3.896   9.595  10.773  1.7434  1.2556 -0.4401
31580SOL    HW296748   3.935   9.513  10.652  0.0308  1.0448 -0.8801
31581SOL     OW96749  10.591   5.344   1.040  0.3800  0.1198  0.1794
31581SOL    HW196750  10.560   5.265   1.084  0.4592 -0.1531 -0.2562
31581SOL    HW296751  10.523   5.409   1.058 -0.6327 -0.5605 -1.0476
31582SOL     OW96752   7.888   0.837  10.668 -0.4751  0.9334 -0.1723
31582SOL    HW196753   7.878   0.742  10.674 -1.4536  0.8536 -2.0835
31582SOL    HW296754   7.930   0.862  10.750  1.0783 -1.3012 -0.1984
31583SOL     OW96755   6.306   4.114   2.807 -0.2975 -0.1162  0.8736
31583SOL    HW196756   6.228   4.126   2.860  0.6740 -2.0361  2.8876
31583SOL    HW296757   6.378   4.145   2.861  0.5232  0.1606 -0.3249
31584SOL     OW96758   7.021   0.685   8.407 -0.1592 -0.3123 -0.4573
31584SOL    HW196759   7.062   0.710   8.489 -0.8549 -4.0797  1.2971
31584SOL    HW296760   7.093   0.658   8.351  0.2035  0.5095 -0.3959
31585SOL     OW96761   8.834   6.227   5.993  0.1394 -0.7968 -0.1885
31585SOL    HW196762   8.823   6.148   6.045  0.1736  0.8462  2.5134
31585SOL    HW296763   8.753   6.276   6.007  0.5442  0.1290 -0.9553
31586SOL     OW96764   8.059   1.913   0.822  0.1410  0.1756  0.1397
31586SOL    HW196765   8.031   1.832   0.779  0.7200  0.5410 -0.9490
31586SOL    HW296766   8.067   1.977   0.751  0.5878  0.9423  0.8644
31587SOL     OW96767   8.774  10.741   8.190  0.0353  0.0281 -0.1733
31587SOL    HW196768   8.849  10.784   8.149  0.6946 -0.6992  0.2356
31587SOL    HW296769   8.742  10.805   8.254  0.5827  0.1848 -0.0486
31588SOL     OW96770   9.545   6.395   1.729 -0.4302  0.4635  0.3968
31588SOL    HW196771   9.530   6.301   1.739 -1.4524  0.8201  2.8842
31588SOL    HW296772   9.473   6.437   1.776 -0.4122  2.5451 -1.2550
31589SOL     OW96773   7.575   7.867   2.998 -0.3599 -0.0183  0.1309
31589SOL    HW196774   7.547   7.796   2.941  0.9678 -0.8905  0.5323
31589SOL    HW296775   7.563   7.946   2.945  1.0567 -0.8204 -1.4971
31590SOL     OW96776   2.509   8.741   1.382 -0.7583 -0.0994 -0.5118
31590SOL    HW196777   2.563   8.681   1.330  1.5687  0.2902  1.2982
31590SOL    HW296778   2.422   8.700   1.383  0.2869 -2.5056 -0.8757
31591SOL     OW96779   2.621   3.504   8.698 -0.3353  0.2837 -0.3269
31591SOL    HW196780   2.594   3.568   8.632  1.4642 -0.2404 -1.6503
31591SOL    HW296781   2.675   3.441   8.650 -0.4955 -1.1790  1.3014
31592SOL     OW96782   3.351   8.150   3.520  0.9485  0.1616 -0.2610
31592SOL    HW196783   3.326   8.098   3.444  0.7801  0.7363 -0.6019
31592SOL    HW296784   3.271   8.158   3.572  0.5704  1.3605 -0.9759
31593SOL     OW96785   6.630   2.596   8.203 -0.4402  0.4160  0.5578
31593SOL    HW196786   6.624   2.635   8.290 -1.3854  2.3349 -0.3126
31593SOL    HW296787   6.658   2.667   8.146  1.1952 -1.0584 -0.5894
31594SOL     OW96788   5.279  10.093   3.524  0.2681  0.5356  0.8610
31594SOL    HW196789   5.209  10.040   3.485  0.8378  0.4381 -0.0599
31594SOL    HW296790   5.315  10.143   3.450  1.4668  0.2414  1.2259
31595SOL     OW96791   9.322   7.053   6.759 -0.4693  0.5288 -0.3145
31595SOL    HW196792   9.414   7.072   6.743 -0.4793  0.2684 -0.7001
31595SOL    HW296793   9.314   6.959   6.744 -0.4907  0.2674  1.2087
31596SOL     OW96794  10.867   7.984   1.023  0.2380 -0.1642  0.4759
31596SOL    HW196795  10.807   7.971   0.950  1.6403  1.2940 -0.9933
31596SOL    HW296796  10.847   8.072   1.055  2.3620  0.8677 -0.8532
31597SOL     OW96797   0.875   5.410  10.157  0.6786  0.1559  0.0974
31597SOL    HW196798   0.854   5.457  10.076  1.2219  1.4698  0.6770
31597SOL    HW296799   0.953   5.456  10.191 -0.0924  0.2468  1.8371
31598SOL     OW96800   5.357   3.782   7.575 -0.1223  0.5608 -0.1081
31598SOL    HW196801   5.387   3.773   7.666 -2.9750 -2.5129  0.7395
31598SOL    HW296802   5.306   3.863   7.575  0.3435  0.8714  0.8590
31599SOL     OW96803   5.520   3.487   5.641  0.0467  0.0887  0.0976
31599SOL    HW196804   5.588   3.519   5.581  0.1990 -1.0894 -0.3779
31599SOL    HW296805   5.448   3.549   5.629  0.6473  0.7581 -0.1559
31600SOL     OW96806   3.519   4.432   4.250  0.1524 -0.2448 -0.1508
31600SOL    HW196807   3.423   4.434   4.248  0.1114 -1.3486 -2.1195
31600SOL    HW296808   3.546   4.511   4.203  0.1903 -0.3683 -0.3376
31601SOL     OW96809   2.047   6.671  10.892 -0.4904 -0.2556  0.1531
31601SOL    HW196810   2.064   6.753  10.845 -1.0565 -0.3323 -0.1970
31601SOL    HW296811   2.000   6.617  10.829  0.1591 -0.9761  0.2795
31602SOL     OW96812   5.110   3.181   2.048 -0.7347  0.0764  0.3574
31602SOL    HW196813   5.054   3.103   2.047 -0.8280  0.0828  2.0954
31602SOL    HW296814   5.052   3.252   2.075 -0.4876  0.6287 -0.5318
31603SOL     OW96815   7.077   4.049   0.026 -0.1314 -0.7270 -0.2907
31603SOL    HW196816   7.044   4.096   0.103  3.2366 -0.1749  0.9706
31603SOL    HW296817   7.073   3.956   0.052 -1.4585 -0.7629 -0.5462
31604SOL     OW96818   8.605   8.555  10.518 -0.2181 -0.2971  0.0844
31604SOL    HW196819   8.545   8.480  10.524 -0.2505 -0.2270  0.7549
31604SOL    HW296820   8.668   8.529  10.451 -0.2899 -0.8869  0.2336
31605SOL     OW96821  10.132   5.624   6.800 -0.1449 -0.2205  0.2402
31605SOL    HW196822  10.059   5.587   6.752  0.7684 -0.8382 -0.7240
31605SOL    HW296823  10.159   5.555   6.860 -1.1761  0.4902  1.5584
31606SOL     OW96824   9.869   5.626   8.522 -0.1218 -0.0013 -0.2080
31606SOL    HW196825   9.774   5.635   8.528 -0.3998 -0.9755 -2.3786
31606SOL    HW296826   9.894   5.574   8.598 -1.2426  0.6534  0.6288
31607SOL     OW96827   5.812   5.698   5.738 -0.0973 -0.3620  0.0064
31607SOL    HW196828   5.812   5.726   5.830 -2.1665  3.3929 -0.9436
31607SOL    HW296829   5.739   5.637   5.732  0.1925 -0.8159  0.8755
31608SOL     OW96830   1.995   3.195   9.373  0.5250  0.2153 -0.4394
31608SOL    HW196831   2.045   3.146   9.308 -0.9366  0.4834 -1.8401
31608SOL    HW296832   1.959   3.269   9.324 -0.0668  0.8044  0.8468
31609SOL     OW96833   6.165   1.984   3.918  0.0759 -1.0948  0.5343
31609SOL    HW196834   6.250   1.951   3.948  0.6454  0.3618  0.6290
31609SOL    HW296835   6.117   1.906   3.890  1.7684 -1.8712 -0.3417
31610SOL     OW96836   6.678   3.265  10.245 -0.2676  0.3098 -0.0455
31610SOL    HW196837   6.674   3.212  10.166 -1.2678  0.2242  0.0458
31610SOL    HW296838   6.738   3.219  10.303 -0.8759 -0.5711 -0.0890
31611SOL     OW96839   5.740   9.778  10.809  0.5198 -0.1116 -0.2840
31611SOL    HW196840   5.721   9.711  10.744 -0.3857  0.3369 -0.5078
31611SOL    HW296841   5.832   9.799  10.798  0.3312  0.1143 -1.5778
31612SOL     OW96842   0.054   4.466   8.507  0.5721  0.2624 -0.1560
31612SOL    HW196843   0.017   4.417   8.434 -2.0334  2.6531 -0.6483
31612SOL    HW296844   0.073   4.553   8.470 -2.2286  2.0489  2.1385
31613SOL     OW96845   1.771   0.420   0.800  0.3718 -0.3463  0.1368
31613SOL    HW196846   1.688   0.468   0.797  0.5020 -0.0949 -2.9321
31613SOL    HW296847   1.824   0.469   0.863 -1.2079  0.5649  0.8170
31614SOL     OW96848   7.255   5.021  11.024  0.0030  0.1665 -0.5946
31614SOL    HW196849   7.292   5.088  10.966  0.3004  0.6854  0.1733
31614SOL    HW296850   7.194   5.069  11.080 -1.1396 -0.5227 -1.2118
31615SOL     OW96851   9.802   4.144   9.401 -0.5515 -0.3028 -0.0669
31615SOL    HW196852   9.764   4.073   9.349 -0.9688 -0.7945  0.8936
31615SOL    HW296853   9.728   4.199   9.425 -0.2288  0.5029 -0.8308
31616SOL     OW96854   8.598   3.780   4.928  0.4009  0.4385  0.1276
31616SOL    HW196855   8.606   3.724   5.004  0.4510 -1.9076 -1.4923
31616SOL    HW296856   8.509   3.764   4.896  0.7783  0.4369 -0.9731
31617SOL     OW96857   5.971   5.029   5.521 -0.6581 -0.4795 -0.3457
31617SOL    HW196858   6.061   4.996   5.517 -0.6411 -1.0378  2.4657
31617SOL    HW296859   5.981   5.124   5.520 -0.4249 -0.3985 -4.3205
31618SOL     OW96860   7.298  10.102   3.423 -0.0745  0.2072  0.1506
31618SOL    HW196861   7.224  10.144   3.467 -0.1263  1.3695 -0.9806
31618SOL    HW296862   7.372  10.162   3.438  0.1641  0.0560 -0.3917
31619SOL     OW96863   4.363   8.130   1.159 -0.0374 -0.7220 -0.1722
31619SOL    HW196864   4.282   8.178   1.179  1.5662  1.7279  0.9090
31619SOL    HW296865   4.352   8.103   1.067 -2.3237 -1.0811  0.1400
31620SOL     OW96866   4.810   6.912   1.750 -0.1603  0.1587  0.9351
31620SOL    HW196867   4.823   6.926   1.656  0.3247  1.1232  1.1415
31620SOL    HW296868   4.825   6.818   1.762 -1.0817 -0.1448 -0.0816
31621SOL     OW96869   0.329   5.328   4.737 -0.0752  0.0838  0.3734
31621SOL    HW196870   0.303   5.316   4.646  0.6648 -1.4546  0.3248
31621SOL    HW296871   0.252   5.300   4.788  0.4618 -1.8072  0.2118
31622SOL     OW96872   8.633   6.233   5.684  0.1086  0.1489 -0.1965
31622SOL    HW196873   8.639   6.293   5.610 -0.6126 -0.5058 -0.8105
31622SOL    HW296874   8.723   6.206   5.701  0.3254  0.6405 -0.5585
31623SOL     OW96875  10.761   3.052   0.451 -0.4201 -0.6398  0.3291
31623SOL    HW196876  10.731   3.072   0.362 -0.8561  2.5589  1.0903
31623SOL    HW296877  10.845   3.098   0.459  0.6580 -2.5978  0.9769
31624SOL     OW96878   5.438   1.438   8.195 -0.0351  0.6296 -0.2802
31624SOL    HW196879   5.417   1.345   8.188  0.6242  0.5515 -1.6004
31624SOL    HW296880   5.523   1.440   8.239  0.3293  0.5413 -0.9588
31625SOL     OW96881   3.102   3.343   1.646 -0.7022  0.1371 -0.0153
31625SOL    HW196882   3.174   3.293   1.683  0.8895  2.6605  0.5437
31625SOL    HW296883   3.136   3.376   1.563 -0.9146  1.8982  0.5562
31626SOL     OW96884   6.255  10.031   1.636 -0.1944 -0.3528  0.0323
31626SOL    HW196885   6.230  10.123   1.629  0.1134 -0.3926 -3.1760
31626SOL    HW296886   6.301  10.025   1.720 -1.1367  2.1454  0.8290
31627SOL     OW96887   7.528   2.614   1.139  0.0171 -0.0646  0.1682
31627SOL    HW196888   7.445   2.659   1.121 -0.2651 -0.8269 -0.4915
31627SOL    HW296889   7.590   2.649   1.075  0.0907  0.1975  0.3839
31628SOL     OW96890   4.245   5.021   2.884  0.8350 -0.0378 -0.2168
31628SOL    HW196891   4.241   5.094   2.945 -1.1357 -1.2316  1.1868
31628SOL    HW296892   4.298   4.955   2.929  1.0193 -0.1940 -0.6595
31629SOL     OW96893   0.136   4.608  10.245  0.3216 -0.3219 -0.3210
31629SOL    HW196894   0.103   4.698  10.241 -1.8903 -1.0458  0.0996
31629SOL    HW296895   0.092   4.570  10.322  1.2735 -1.7438 -0.4431
31630SOL     OW96896   3.883   6.178   9.890  0.2547  0.0147 -0.6069
31630SOL    HW196897   3.936   6.217   9.960  0.1799  1.6776 -1.4180
31630SOL    HW296898   3.793   6.190   9.919  0.2499 -0.2530 -0.5103
31631SOL     OW96899   6.900   7.764   9.149 -0.0299 -0.3547  0.6660
31631SOL    HW196900   6.955   7.834   9.183 -1.8134  0.6355  1.6723
31631SOL    HW296901   6.845   7.806   9.083 -0.7736 -0.8982  0.9177
31632SOL     OW96902   4.402   8.047   4.223  0.5444  0.6685  0.8223
31632SOL    HW196903   4.384   8.043   4.316  0.9228 -0.4558  0.8615
31632SOL    HW296904   4.342   7.984   4.183  1.6683 -0.2528  0.5332
31633SOL     OW96905   9.853   3.005  10.385  0.6307  0.3979 -0.1139
31633SOL    HW196906   9.804   3.041  10.312 -0.1558  0.2459  0.3343
31633SOL    HW296907   9.812   3.043  10.463 -0.4240 -1.6891  0.3977
31634SOL     OW96908   8.814   8.998   0.695 -0.5005  0.4451  0.0504
31634SOL    HW196909   8.768   9.008   0.779 -0.1045  0.7174  0.2399
31634SOL    HW296910   8.751   8.954   0.638 -1.4309  1.8685 -0.0663
31635SOL     OW96911   5.001  10.979   2.836 -0.0099  0.1242 -0.2844
31635SOL    HW196912   5.022  11.039   2.908 -0.9788 -1.1644  1.1255
31635SOL    HW296913   5.078  10.924   2.828 -0.3068 -0.4323  0.5328
31636SOL     OW96914   8.228   7.017   7.487 -0.1276 -0.1086  0.1891
31636SOL    HW196915   8.185   7.037   7.570 -0.6286 -0.0105 -0.0948
31636SOL    HW296916   8.280   6.939   7.506  0.3553  0.3464  0.7943
31637SOL     OW96917   7.142   2.166   2.205  0.5769  0.5411  0.0782
31637SOL    HW196918   7.233   2.179   2.233  0.6671  0.1251 -0.0073
31637SOL    HW296919   7.118   2.080   2.241  0.6333  0.0855 -0.9531
31638SOL     OW96920   4.949   3.973   1.977  0.1590  0.4139  0.2265
31638SOL    HW196921   4.933   4.065   1.953 -0.0834  0.0617 -1.0610
31638SOL    HW296922   4.926   3.924   1.898 -2.5526 -1.0217  1.7583
31639SOL     OW96923   9.879   9.740   1.058 -0.5074  0.1954  0.6762
31639SOL    HW196924   9.839   9.667   1.009 -0.6323  0.7894 -0.1267
31639SOL    HW296925   9.852   9.818   1.011 -0.1690  0.7540  1.3910
31640SOL     OW96926   5.488   1.214   3.382  0.6410  0.8067  0.1538
31640SOL    HW196927   5.499   1.309   3.384 -0.7457  1.0168 -0.8791
31640SOL    HW296928   5.517   1.188   3.294 -2.2292  0.7820 -0.8739
31641SOL     OW96929   9.009   4.974   4.097  0.2717 -0.1056  0.2376
31641SOL    HW196930   8.950   5.043   4.127  0.2131 -0.4040  0.8217
31641SOL    HW296931   9.056   5.013   4.023  0.0511  0.4674  0.3962
31642SOL     OW96932   7.486   0.742   9.533  0.2043 -0.8123 -0.2476
31642SOL    HW196933   7.511   0.786   9.451 -0.7261  0.0761 -0.0719
31642SOL    HW296934   7.480   0.813   9.597 -2.5304 -0.9474 -0.2367
31643SOL     OW96935   0.406   8.330   5.360 -0.2620  0.5479 -0.4721
31643SOL    HW196936   0.482   8.323   5.417  0.1432  1.0572 -0.9402
31643SOL    HW296937   0.335   8.289   5.409  0.1663  0.6529  0.2398
31644SOL     OW96938   6.989   5.088   2.371 -0.3114  0.1811 -0.4516
31644SOL    HW196939   7.051   5.102   2.443 -0.5333  0.2238 -0.2652
31644SOL    HW296940   6.948   5.004   2.391 -1.3005  0.7818  0.1792
31645SOL     OW96941   9.647   1.902   5.114  0.3380  0.0214  0.0896
31645SOL    HW196942   9.621   1.831   5.055  0.4332  0.7136 -0.8122
31645SOL    HW296943   9.701   1.959   5.060  1.1387  0.2364  1.0934
31646SOL     OW96944   6.770   3.497   5.535  0.2617  0.0632 -0.0349
31646SOL    HW196945   6.677   3.476   5.543  0.6353 -3.2854 -2.2404
31646SOL    HW296946   6.781   3.522   5.443  1.4647  0.9574  0.3315
31647SOL     OW96947   7.789  10.771   1.989 -0.8570 -0.0439 -0.3018
31647SOL    HW196948   7.752  10.734   1.908  0.7288 -0.1632 -1.0072
31647SOL    HW296949   7.861  10.826   1.959  0.0329 -0.4159  1.0531
31648SOL     OW96950  10.703   8.663  10.536 -0.4902 -0.1494 -0.5953
31648SOL    HW196951  10.696   8.654  10.441 -1.5686 -0.3316 -0.5065
31648SOL    HW296952  10.670   8.580  10.571 -2.4324  0.8090 -0.0062
31649SOL     OW96953   0.756   3.760   3.154 -0.1394  0.3060  0.4708
31649SOL    HW196954   0.693   3.804   3.098 -1.4150  0.6254  2.0906
31649SOL    HW296955   0.817   3.829   3.181 -2.1365  1.2300  3.0114
31650SOL     OW96956   8.219   7.178   1.654  0.1041 -0.3140 -0.3863
31650SOL    HW196957   8.161   7.116   1.698 -1.5205  1.6685  0.4818
31650SOL    HW296958   8.162   7.221   1.590  0.8659  1.0102 -0.2082
31651SOL     OW96959   6.139   6.142  10.049 -0.2048 -0.2668  0.1220
31651SOL    HW196960   6.167   6.163  10.138 -0.6209 -0.2356  0.2480
31651SOL    HW296961   6.104   6.053  10.056  1.7647 -1.1561 -0.4486
31652SOL     OW96962   4.608   2.533   9.354 -0.0774 -0.1762 -0.0435
31652SOL    HW196963   4.655   2.451   9.338  0.2305  0.2522 -1.4943
31652SOL    HW296964   4.638   2.591   9.284 -1.0770  0.8415  0.3489
31653SOL     OW96965  10.298   3.911   0.665 -0.0488  0.1654  0.4033
31653SOL    HW196966  10.240   3.986   0.677  0.0737  0.3610 -0.2257
31653SOL    HW296967  10.365   3.921   0.733  1.6788  2.2401 -1.4859
31654SOL     OW96968   8.561   3.072   2.949  0.5477  0.1001  0.8919
31654SOL    HW196969   8.537   3.102   3.036 -1.1562 -0.8351  0.7728
31654SOL    HW296970   8.640   3.019   2.963  0.2480 -0.1019  1.8588
31655SOL     OW96971   7.601   0.684  10.571  0.2610 -0.2049 -0.2496
31655SOL    HW196972   7.642   0.753  10.519 -0.7397 -0.6963 -1.7885
31655SOL    HW296973   7.623   0.603  10.524 -0.5226 -0.6865  0.1930
31656SOL     OW96974   3.125   8.696  10.279 -0.5465 -0.4785  0.3602
31656SOL    HW196975   3.205   8.739  10.308 -1.1662  0.6209  0.4848
31656SOL    HW296976   3.143   8.603  10.290  1.2050 -0.3522 -0.8864
31657SOL     OW96977   6.213   3.744   7.232 -0.0888 -0.4582 -0.5246
31657SOL    HW196978   6.132   3.785   7.201  0.1706  0.1341 -0.4180
31657SOL    HW296979   6.269   3.817   7.258  0.9639 -0.8047 -1.7657
31658SOL     OW96980   9.627   2.848   0.723 -0.4116 -0.4941  0.0539
31658SOL    HW196981   9.555   2.792   0.694 -0.2222 -0.1517 -1.1809
31658SOL    HW296982   9.588   2.935   0.731 -0.1658 -0.3253 -0.5328
31659SOL     OW96983   3.380   6.449   6.006  0.6918 -0.3565 -0.4594
31659SOL    HW196984   3.470   6.434   5.979  1.7742  0.9601  2.1121
31659SOL    HW296985   3.386   6.482   6.095 -2.2975  0.6372 -0.4907
31660SOL     OW96986   9.845   5.000   1.733  0.4363 -0.0082  0.1559
31660SOL    HW196987   9.780   4.982   1.666  1.3674  0.9024 -1.0529
31660SOL    HW296988   9.907   5.060   1.691  0.4160  1.5542  2.2001
31661SOL     OW96989   4.772   6.364   4.068 -0.5622 -0.4120  0.3067
31661SOL    HW196990   4.779   6.458   4.050  0.8771 -0.5471  0.0186
31661SOL    HW296991   4.794   6.356   4.161  2.3257 -0.7082 -0.3096
31662SOL     OW96992   8.182   5.260   3.808  0.3016  0.2929  0.4828
31662SOL    HW196993   8.205   5.246   3.899 -0.1602  0.0178  0.5596
31662SOL    HW296994   8.189   5.355   3.795  2.5869  0.1443  0.1985
31663SOL     OW96995   9.756   4.333   8.180  0.5892 -0.3086 -0.3195
31663SOL    HW196996   9.790   4.295   8.260  2.2989 -0.3889 -1.0406
31663SOL    HW296997   9.667   4.360   8.202  0.0031 -2.8961  0.7697
31664SOL     OW96998   6.847   9.228   7.136 -0.1528 -0.2378  0.3557
31664SOL    HW196999   6.869   9.169   7.063 -1.0284 -1.5648  1.1244
31664SOL    HW297000   6.751   9.222   7.144 -0.3439  1.7402  0.1136
31665SOL     OW97001   8.880   2.497   6.648  0.0176  0.5232  0.1340
31665SOL    HW197002   8.851   2.553   6.720 -0.0300 -0.7035  1.1173
31665SOL    HW297003   8.805   2.440   6.631  1.6439 -2.7774  2.7807
31666SOL     OW97004   5.592   9.978   0.808 -0.3444 -0.3241 -0.0272
31666SOL    HW197005   5.578   9.886   0.831  1.0105 -0.0293  2.3888
31666SOL    HW297006   5.680   9.980   0.769 -0.3179 -0.0417  0.0418
31667SOL     OW97007   9.793   8.063   2.956  0.4061  0.4017 -0.0461
31667SOL    HW197008   9.800   8.137   2.895  2.7169 -0.5010 -1.0061
31667SOL    HW297009   9.793   7.986   2.899 -0.8169 -0.4094  0.9958
31668SOL     OW97010  10.746   0.850   9.031 -0.1303  0.3009  0.1352
31668SOL    HW197011  10.782   0.860   9.119  1.2596  0.8846 -0.4727
31668SOL    HW297012  10.742   0.939   8.997  2.0013 -0.0885 -1.3666
31669SOL     OW97013   3.087  10.631   1.692 -0.0843  0.0056 -0.1657
31669SOL    HW197014   3.020  10.567   1.668 -0.9670  0.4016  1.1064
31669SOL    HW297015   3.046  10.716   1.679  0.8960  0.3239 -1.3282
31670SOL     OW97016   4.235   1.714   7.299  0.0987 -0.3096 -0.0348
31670SOL    HW197017   4.307   1.772   7.277  0.1300 -0.6743 -0.9739
31670SOL    HW297018   4.261   1.672   7.381  0.2745  0.6492  0.4123
31671SOL     OW97019   0.118   2.842   1.795  0.0129  0.0184  0.1723
31671SOL    HW197020   0.034   2.875   1.826  0.0114 -0.2147  0.4224
31671SOL    HW297021   0.143   2.901   1.724  0.5670  1.2762  1.3713
31672SOL     OW97022   7.095   4.174  10.893 -0.8264 -0.2676  0.2237
31672SOL    HW197023   7.165   4.111  10.876 -0.0459  0.5741  0.2416
31672SOL    HW297024   7.051   4.140  10.972 -1.4259 -1.6138 -0.6574
31673SOL     OW97025   2.242   1.258   1.119  0.1949 -0.0147 -0.1795
31673SOL    HW197026   2.272   1.235   1.031 -0.4991 -1.3948 -0.0881
31673SOL    HW297027   2.274   1.188   1.175  1.8486  1.5639  0.9765
31674SOL     OW97028   4.984   3.223   3.365 -0.2546 -0.1709  0.1188
31674SOL    HW197029   4.940   3.139   3.363  0.4375 -0.6649  2.5935
31674SOL    HW297030   5.057   3.214   3.304 -1.4677 -0.5452 -1.3275
31675SOL     OW97031   8.246   1.010  10.151 -0.5537  0.3044 -0.0409
31675SOL    HW197032   8.198   1.083  10.191  2.2895  1.8205  0.9072
31675SOL    HW297033   8.255   1.035  10.059  0.5459  1.3000  0.3135
31676SOL     OW97034   8.409   9.826   4.388 -0.4807 -0.4242  0.6568
31676SOL    HW197035   8.402   9.762   4.459 -0.2217 -0.0354  1.0394
31676SOL    HW297036   8.500   9.822   4.360 -0.8798 -1.5541 -0.5989
31677SOL     OW97037   9.529  10.423   4.134 -0.3862  0.1649 -0.3804
31677SOL    HW197038   9.539  10.480   4.210 -1.0071  1.8356 -1.4967
31677SOL    HW297039   9.484  10.346   4.167 -1.3616  1.2069  0.7994
31678SOL     OW97040   9.298   5.019   1.764  0.4744  0.0411  0.2485
31678SOL    HW197041   9.237   5.087   1.790  1.4747  0.8610  0.5025
31678SOL    HW297042   9.244   4.940   1.756 -0.6407  0.7856  0.2508
31679SOL     OW97043   9.410   4.060   2.336  0.0663 -0.4043  0.1178
31679SOL    HW197044   9.381   4.001   2.266  0.8365 -0.1985 -0.3846
31679SOL    HW297045   9.445   4.002   2.403  0.2915 -0.5537 -0.1262
31680SOL     OW97046   1.437   2.428   3.748 -0.4315  0.0013 -0.4114
31680SOL    HW197047   1.348   2.394   3.754  0.1750 -1.5439  0.4042
31680SOL    HW297048   1.493   2.352   3.762  1.0301  0.9163 -1.0440
31681SOL     OW97049   6.882   5.707   8.374  0.4147  0.8150 -0.2665
31681SOL    HW197050   6.862   5.617   8.350 -1.9299  1.5976 -1.5773
31681SOL    HW297051   6.816   5.729   8.440  1.1654  1.4652  0.2750
31682SOL     OW97052   4.181   2.189   0.773 -0.0072  0.0434 -0.3596
31682SOL    HW197053   4.266   2.150   0.795 -0.5453 -1.9739 -1.5417
31682SOL    HW297054   4.169   2.170   0.680  0.3669  4.6595 -1.5785
31683SOL     OW97055   6.724   1.629   2.637 -0.2592 -0.5112 -0.0308
31683SOL    HW197056   6.742   1.616   2.544  0.9658 -1.5456  0.3162
31683SOL    HW297057   6.629   1.641   2.642 -0.2286  0.5215 -1.4983
31684SOL     OW97058   1.630   9.657   3.915 -0.3374 -0.3524 -0.1579
31684SOL    HW197059   1.564   9.612   3.861  0.8492 -0.8529 -1.2351
31684SOL    HW297060   1.609   9.630   4.005 -2.7047  0.9550 -0.2395
31685SOL     OW97061   7.531   2.458   3.732  0.0261  0.0148  0.0851
31685SOL    HW197062   7.573   2.494   3.810 -1.3656 -0.5180  1.1162
31685SOL    HW297063   7.563   2.368   3.727 -1.7847 -0.7746  1.5500
31686SOL     OW97064   9.338   9.200   4.279  0.2408  0.2948 -0.2041
31686SOL    HW197065   9.320   9.237   4.366  1.0298  0.0804  0.0673
31686SOL    HW297066   9.350   9.277   4.223 -0.9222  0.4352 -0.2802
31687SOL     OW97067   6.990   6.411   1.745 -0.0921  0.2449  0.0092
31687SOL    HW197068   7.013   6.437   1.834 -1.0356  2.3476 -0.2893
31687SOL    HW297069   7.071   6.379   1.707  0.4873  0.0373  1.3778
31688SOL     OW97070   7.429   2.662   1.890  0.3982 -0.2959  0.0833
31688SOL    HW197071   7.358   2.716   1.855 -0.2824 -0.8661  0.5404
31688SOL    HW297072   7.472   2.626   1.813  1.4996  1.6538 -0.2604
31689SOL     OW97073   5.738   8.561   6.485  0.3262 -0.6085  0.4496
31689SOL    HW197074   5.680   8.489   6.510 -0.9008 -0.2877 -1.3241
31689SOL    HW297075   5.678   8.633   6.462  1.5040  0.8486  1.6816
31690SOL     OW97076   5.923   6.254   1.300  0.4522  0.0636  0.1110
31690SOL    HW197077   6.007   6.215   1.323  0.4384  0.0206  0.0887
31690SOL    HW297078   5.889   6.197   1.231  0.6133  0.3397 -0.1981
31691SOL     OW97079  10.623   1.200   2.152  0.4096  0.0644 -0.4476
31691SOL    HW197080  10.625   1.289   2.187  3.0715  0.2103 -0.7866
31691SOL    HW297081  10.690   1.153   2.202  1.2094 -0.8822 -2.3118
31692SOL     OW97082  10.382   6.538   2.849 -0.2625 -0.2240 -0.1885
31692SOL    HW197083  10.414   6.538   2.759 -0.3657 -0.2205 -0.2256
31692SOL    HW297084  10.404   6.625   2.883  1.6902 -0.9055  0.4767
31693SOL     OW97085   7.869  10.076   3.902  0.1467 -0.0328  0.2416
31693SOL    HW197086   7.955  10.083   3.861 -0.7953  0.6421 -1.7155
31693SOL    HW297087   7.853   9.982   3.909  0.3370 -0.1690 -0.9696
31694SOL     OW97088   3.790   2.429   3.522 -0.4318  0.3078  0.3954
31694SOL    HW197089   3.697   2.428   3.542 -0.2700  0.1982  1.1909
31694SOL    HW297090   3.795   2.441   3.427 -1.3062 -1.7406  0.0283
31695SOL     OW97091  11.077   1.205   4.869 -0.0995 -0.6216  0.2589
31695SOL    HW197092  11.087   1.113   4.844 -1.8835 -0.6899 -0.2904
31695SOL    HW297093  11.073   1.252   4.786 -0.9659 -0.2487  0.5092
31696SOL     OW97094   2.229   7.025   5.106  0.0757 -0.1233  0.1333
31696SOL    HW197095   2.169   6.956   5.135  0.7325 -0.3882  0.8979
31696SOL    HW297096   2.299   6.978   5.061  1.2262 -0.1163  1.8300
31697SOL     OW97097  10.549   8.645   9.056 -0.2594  1.0339  0.5482
31697SOL    HW197098  10.600   8.660   9.135  0.0728  2.0191  0.1701
31697SOL    HW297099  10.509   8.730   9.037 -0.6075  0.7244 -0.1508
31698SOL     OW97100   6.619   2.735   8.435 -0.5559  0.2121 -0.4781
31698SOL    HW197101   6.528   2.712   8.451 -0.6106 -0.1218 -1.2278
31698SOL    HW297102   6.667   2.693   8.506 -1.0536  0.9574  0.3029
31699SOL     OW97103   4.536   3.276   9.186  0.7812 -0.0292  0.0733
31699SOL    HW197104   4.493   3.211   9.242 -0.8515  0.3554 -0.6942
31699SOL    HW297105   4.511   3.360   9.223 -0.7037  0.2457 -1.4447
31700SOL     OW97106  10.477   4.867   7.844  0.2496 -0.3242 -0.2420
31700SOL    HW197107  10.496   4.934   7.778 -2.3330  0.4415 -0.3231
31700SOL    HW297108  10.473   4.785   7.795 -0.8259  0.1227 -0.9449
31701SOL     OW97109   4.547   4.444   3.491  0.1422  0.1061  0.1619
31701SOL    HW197110   4.542   4.368   3.549 -1.8375  1.3915  1.8473
31701SOL    HW297111   4.503   4.415   3.411  0.7013 -0.9436  0.2122
31702SOL     OW97112  10.912   3.672   6.864  0.5022 -0.0805  0.4172
31702SOL    HW197113  10.874   3.599   6.815 -0.2107  0.2411  0.4830
31702SOL    HW297114  11.001   3.643   6.885  1.2162  0.1731 -1.9545
31703SOL     OW97115  10.969   6.681   4.104  0.2967  0.3858  0.0989
31703SOL    HW197116  10.880   6.700   4.075  0.1865 -1.1075 -0.6718
31703SOL    HW297117  11.023   6.749   4.065 -0.1991 -0.1432 -1.5790
31704SOL     OW97118  10.689   0.673   4.355 -0.2055 -0.0454  0.0898
31704SOL    HW197119  10.630   0.746   4.372  0.4669  0.4719  0.2668
31704SOL    HW297120  10.703   0.674   4.260  1.9225  1.8002  0.3212
31705SOL     OW97121   9.332   4.931   3.422  0.4897 -0.3332  0.2513
31705SOL    HW197122   9.287   4.990   3.482 -1.6962 -0.3687 -1.2569
31705SOL    HW297123   9.337   4.980   3.339 -0.7214 -1.9371 -0.8197
31706SOL     OW97124   8.776   1.729   5.416 -0.0535  0.1148  0.2741
31706SOL    HW197125   8.847   1.674   5.449  0.4613 -0.1871 -1.2525
31706SOL    HW297126   8.821   1.801   5.371 -0.7246  0.3541 -0.0212
31707SOL     OW97127   7.341   4.919   2.724  0.3548 -0.3357  0.0189
31707SOL    HW197128   7.306   4.830   2.731 -0.3503 -0.2352 -1.7660
31707SOL    HW297129   7.324   4.957   2.810 -0.2092 -1.6208  0.5110
31708SOL     OW97130   8.002   9.328  10.321  0.1458  0.4384  0.0237
31708SOL    HW197131   8.011   9.378  10.240  2.3567 -1.2985 -0.8867
31708SOL    HW297132   8.083   9.345  10.369  0.1803 -0.8990  0.4708
31709SOL     OW97133   3.480   1.177   3.855 -0.3752  0.3734  0.1751
31709SOL    HW197134   3.521   1.168   3.942 -1.5850  0.2354  0.7459
31709SOL    HW297135   3.400   1.226   3.872 -1.3819 -0.9486 -0.6352
31710SOL     OW97136   3.131   1.430   5.385  0.8236 -0.3602 -0.0465
31710SOL    HW197137   3.141   1.377   5.464  0.5189  1.2887  1.1492
31710SOL    HW297138   3.143   1.368   5.313  0.1049 -2.1190  1.2676
31711SOL     OW97139   8.897   3.681   8.787  0.3882 -1.0461 -0.3699
31711SOL    HW197140   8.991   3.663   8.792  0.4893 -0.5056 -0.2672
31711SOL    HW297141   8.884   3.720   8.701  0.2526 -1.1396 -0.3924
31712SOL     OW97142   5.574   5.688   3.993 -0.7724  0.0367 -0.0696
31712SOL    HW197143   5.666   5.716   3.987 -0.7589 -0.0453 -0.2489
31712SOL    HW297144   5.548   5.671   3.903 -0.6029 -1.0891  0.0753
31713SOL     OW97145   7.084   0.204   5.794  0.1507  0.2086 -0.0074
31713SOL    HW197146   7.077   0.110   5.780 -1.7142  0.2577  0.3955
31713SOL    HW297147   7.121   0.239   5.713 -1.2642 -0.6171 -1.0334
31714SOL     OW97148   7.968   6.147   7.380 -0.0829  0.1500 -0.1238
31714SOL    HW197149   7.972   6.066   7.330  2.1705 -0.2097  0.5386
31714SOL    HW297150   8.059   6.177   7.386 -0.8179  2.6616 -0.2212
31715SOL     OW97151   7.410   0.038  10.487 -0.0174  0.6024  0.4460
31715SOL    HW197152   7.460   0.085  10.421  1.2147 -1.3424 -0.0888
31715SOL    HW297153   7.333   0.004  10.441  0.9751 -0.9806 -0.1371
31716SOL     OW97154   0.734  10.086   6.015  0.0250 -0.2455  0.3041
31716SOL    HW197155   0.695  10.090   5.928  0.9437  2.5901 -0.0765
31716SOL    HW297156   0.680  10.022   6.062 -4.8710  2.8760 -0.3015
31717SOL     OW97157   9.488   1.033   9.809 -0.0624  0.1768  0.0461
31717SOL    HW197158   9.450   0.973   9.746  0.2997 -0.3855  0.3544
31717SOL    HW297159   9.495   0.982   9.890  0.7322  0.4646  0.1689
31718SOL     OW97160   6.598   4.431   2.371 -0.1801 -0.1125  0.0249
31718SOL    HW197161   6.561   4.508   2.415 -0.6525  0.2587 -0.9867
31718SOL    HW297162   6.625   4.373   2.442 -0.2700  0.7735  0.8035
31719SOL     OW97163   5.768   4.798   5.360 -0.3299 -0.0650 -0.3173
31719SOL    HW197164   5.824   4.873   5.376 -0.2008 -0.1536 -0.3528
31719SOL    HW297165   5.771   4.785   5.266  2.4359 -2.2427 -0.0372
31720SOL     OW97166  10.362   6.259   6.176 -0.0026 -0.0758  0.2151
31720SOL    HW197167  10.280   6.307   6.187  0.0187  0.0131 -0.0016
31720SOL    HW297168  10.354   6.184   6.235  0.3725  0.7021  1.2872
31721SOL     OW97169   7.154   6.552   4.277  0.5304 -0.3155 -0.2276
31721SOL    HW197170   7.120   6.466   4.302  1.4741 -1.1051 -1.5190
31721SOL    HW297171   7.240   6.534   4.239  0.3571  1.0889 -1.3835
31722SOL     OW97172   0.794   5.961  10.976 -0.8685  0.1157  0.3543
31722SOL    HW197173   0.764   5.938  11.065  0.9073  1.8395  1.4783
31722SOL    HW297174   0.729   6.024  10.945 -0.9843  0.2359  0.8247
31723SOL     OW97175  10.644   4.780   1.873  0.0509 -0.3169 -0.3339
31723SOL    HW197176  10.690   4.709   1.828 -0.8469 -1.3104  0.2535
31723SOL    HW297177  10.675   4.860   1.831  2.7006 -0.8733  0.3863
31724SOL     OW97178   5.366  10.091   2.570  0.4249  0.6327  0.0017
31724SOL    HW197179   5.374  10.166   2.512 -1.3588 -0.3358 -1.6127
31724SOL    HW297180   5.414  10.021   2.525  0.9666  0.4514  0.8440
31725SOL     OW97181   8.768   2.957   5.260 -0.1048  0.0882  0.3687
31725SOL    HW197182   8.682   2.965   5.302  0.1942 -0.9717  1.2201
31725SOL    HW297183   8.827   3.010   5.315 -0.0301  0.0510  0.3249
31726SOL     OW97184  10.456   6.785   2.943  0.3181 -0.9886 -0.1269
31726SOL    HW197185  10.542   6.775   2.984  1.1905  1.7433 -1.0728
31726SOL    HW297186  10.421   6.865   2.981 -1.2517 -1.3581 -0.7263
31727SOL     OW97187  10.788   4.712  10.189 -0.0117  0.4122  0.0475
31727SOL    HW197188  10.844   4.690  10.263 -1.2146  0.9557  1.1563
31727SOL    HW297189  10.802   4.641  10.127  0.5491 -0.3944  1.0607
31728SOL     OW97190   0.059   1.804   6.086 -0.2707 -0.2170 -0.4589
31728SOL    HW197191   0.022   1.878   6.135 -2.6564 -1.2163 -0.5875
31728SOL    HW297192   0.112   1.757   6.150 -0.8636  0.1845  0.3505
31729SOL     OW97193   1.162   9.319   1.446 -0.6257 -0.1474  0.0702
31729SOL    HW197194   1.197   9.396   1.490 -1.4291 -0.1537  0.7404
31729SOL    HW297195   1.231   9.292   1.386  0.5058 -0.1482  1.3315
31730SOL     OW97196   7.141   5.391   3.396 -0.2568  0.0600 -0.2697
31730SOL    HW197197   7.088   5.439   3.332 -2.3456 -1.2286  0.4003
31730SOL    HW297198   7.077   5.352   3.456  1.5106 -0.9310  1.0786
31731SOL     OW97199   8.985  10.838   0.558  0.2153 -0.4646  0.0364
31731SOL    HW197200   9.010  10.748   0.538 -1.5398 -0.6192 -1.7963
31731SOL    HW297201   8.972  10.839   0.653  2.3952 -1.5174  0.4162
31732SOL     OW97202   4.065   4.027   2.490  0.3029 -0.4412 -0.7207
31732SOL    HW197203   4.084   4.115   2.525  0.8255  0.2851 -2.6838
31732SOL    HW297204   4.003   4.043   2.419  0.6871 -1.6146 -1.3458
31733SOL     OW97205   0.142   8.612   4.463  0.2899 -0.0561  0.1150
31733SOL    HW197206   0.131   8.588   4.371 -0.5841  0.6766  0.0197
31733SOL    HW297207   0.145   8.528   4.509 -1.5325 -0.4136 -0.3461
31734SOL     OW97208   1.360   7.271   3.286 -0.2912 -0.6937 -0.3396
31734SOL    HW197209   1.389   7.203   3.348  0.0609  0.9931  1.4526
31734SOL    HW297210   1.267   7.253   3.272 -0.0786 -1.8603 -0.3412
31735SOL     OW97211  10.509   0.979   3.490 -0.0524  0.0459  0.4263
31735SOL    HW197212  10.574   1.008   3.554  0.7728  0.9062 -0.7680
31735SOL    HW297213  10.425   1.001   3.530  0.4801  2.2330  0.4797
31736SOL     OW97214  10.707   7.471   3.845  0.3119  0.3699 -0.3281
31736SOL    HW197215  10.788   7.473   3.794 -1.3784  1.6718 -3.1690
31736SOL    HW297216  10.643   7.430   3.787 -1.9496  2.7425  0.3204
31737SOL     OW97217   3.112   8.439   3.663  0.4053  0.0718  0.6109
31737SOL    HW197218   3.201   8.440   3.698  0.4429  0.3972  0.5091
31737SOL    HW297219   3.096   8.348   3.640  0.4001 -0.1398  1.4143
31738SOL     OW97220   7.127  10.034  10.789 -0.1036 -0.8310  0.7426
31738SOL    HW197221   7.045  10.021  10.741 -0.2440 -0.3956  0.8526
31738SOL    HW297222   7.177   9.954  10.775  0.0864 -0.4975 -0.5885
31739SOL     OW97223   1.885   4.624   2.520 -0.5109 -0.6263  0.0287
31739SOL    HW197224   1.793   4.602   2.508 -0.6987 -0.4290  1.0239
31739SOL    HW297225   1.886   4.688   2.591  0.2149  1.0016 -1.3668
31740SOL     OW97226   7.083  10.008   6.346 -0.0349  0.2311 -0.1804
31740SOL    HW197227   7.106   9.947   6.276  1.4361  2.9890 -2.3130
31740SOL    HW297228   6.989  10.022   6.335 -0.0047 -0.1461 -0.9979
31741SOL     OW97229   5.631   7.838   5.284  0.0322 -0.3335 -0.5700
31741SOL    HW197230   5.694   7.822   5.214  2.9602 -0.3050  1.8410
31741SOL    HW297231   5.601   7.750   5.309  1.3582 -0.6177  0.1070
31742SOL     OW97232   5.348  11.025   0.906  0.3078  0.0562 -0.5488
31742SOL    HW197233   5.300  10.944   0.888  0.5189 -0.2076  0.0398
31742SOL    HW297234   5.288  11.095   0.881 -0.3004 -0.2748 -0.0410
31743SOL     OW97235   7.332   7.893   6.411  0.1940  0.3121 -0.4033
31743SOL    HW197236   7.304   7.804   6.431  0.1218 -0.0132 -1.8638
31743SOL    HW297237   7.425   7.895   6.436  0.6895 -0.7527 -2.0025
31744SOL     OW97238   7.147   2.993   7.329 -0.3006 -0.3410 -0.0763
31744SOL    HW197239   7.179   2.906   7.355  0.9465  0.2051  0.2398
31744SOL    HW297240   7.126   3.036   7.411  0.2509  0.0978 -0.1636
31745SOL     OW97241   9.979   5.205   2.491  0.2463  0.2994 -0.4856
31745SOL    HW197242  10.022   5.120   2.482  2.0391  1.1444 -0.4301
31745SOL    HW297243   9.976   5.221   2.585  1.6538  1.0990 -0.5536
31746SOL     OW97244   4.843   2.833  10.217 -0.3858  0.0934 -0.0474
31746SOL    HW197245   4.772   2.776  10.186 -0.1470  0.0765 -0.5783
31746SOL    HW297246   4.902   2.840  10.142  0.6934 -0.6993  0.7034
31747SOL     OW97247   4.926   6.858   4.483 -0.3413  0.1434  0.0810
31747SOL    HW197248   4.885   6.828   4.564 -0.5826  0.2902  0.0140
31747SOL    HW297249   5.013   6.887   4.509 -0.4634  0.3048  0.3061
31748SOL     OW97250   9.088   4.031   3.364 -0.1444 -0.5650  0.0403
31748SOL    HW197251   9.050   4.056   3.448 -1.8539  0.2721 -0.9322
31748SOL    HW297252   9.182   4.050   3.374 -0.5744  1.2673  1.1463
31749SOL     OW97253   3.953   2.815   6.497 -0.8644 -0.7264  0.2968
31749SOL    HW197254   3.972   2.894   6.548 -1.2325 -0.1156 -0.4839
31749SOL    HW297255   3.995   2.744   6.545  1.9212  0.3035 -0.4390
31750SOL     OW97256   2.853   2.970   6.074 -0.1891  0.2651  0.0872
31750SOL    HW197257   2.827   2.956   5.983 -0.6955  2.3283 -0.1338
31750SOL    HW297258   2.945   2.993   6.070  0.1029 -0.8117  0.2451
31751SOL     OW97259   0.854   0.209   5.506 -0.3893 -0.3343 -0.1345
31751SOL    HW197260   0.917   0.220   5.434  2.3651 -0.1534  2.1551
31751SOL    HW297261   0.868   0.119   5.536  0.6141  0.4795  1.9681
31752SOL     OW97262   7.576   4.453   2.623  0.0997 -0.7909 -0.1361
31752SOL    HW197263   7.591   4.541   2.591 -0.3943 -0.9234 -0.7394
31752SOL    HW297264   7.513   4.464   2.694  0.5529 -0.5928  0.2436
31753SOL     OW97265   2.309   7.125   1.514  0.3034  1.1575 -0.3252
31753SOL    HW197266   2.226   7.172   1.510  0.4003  1.3684  0.0413
31753SOL    HW297267   2.364   7.166   1.448  0.8168  2.4178  0.8481
31754SOL     OW97268   8.900   1.814   3.457 -0.7975 -0.1097 -0.5536
31754SOL    HW197269   8.833   1.882   3.453 -0.1627  0.4973 -0.8642
31754SOL    HW297270   8.942   1.815   3.372  0.1681  0.0901 -0.0922
31755SOL     OW97271   4.932   5.128   5.029 -0.1312  0.5324 -0.1834
31755SOL    HW197272   4.892   5.212   5.009 -2.1939 -1.0188 -3.5608
31755SOL    HW297273   4.975   5.102   4.948  0.0905 -1.8275  0.6069
31756SOL     OW97274   1.394   0.742   8.488 -0.3453  0.0504  0.3321
31756SOL    HW197275   1.471   0.687   8.487  0.6885  1.3915  1.7396
31756SOL    HW297276   1.329   0.694   8.436  0.9517 -1.7622  0.3084
31757SOL     OW97277   2.211   4.763   8.177 -0.6859  0.2461 -0.2969
31757SOL    HW197278   2.123   4.758   8.214 -0.3702 -3.0591  0.2420
31757SOL    HW297279   2.196   4.784   8.084 -1.8489  1.8562  0.2045
31758SOL     OW97280   3.531   3.075   9.430 -0.2762 -0.1451 -0.5091
31758SOL    HW197281   3.559   3.164   9.408 -0.0350 -0.0503  0.1580
31758SOL    HW297282   3.570   3.021   9.361 -0.1567  0.2240 -0.7383
31759SOL     OW97283  10.578   9.016   2.284  0.3880  0.3861  0.5164
31759SOL    HW197284  10.518   8.990   2.215  0.3267  1.2828  0.2340
31759SOL    HW297285  10.659   8.969   2.264 -0.1034 -0.5848  0.7283
31760SOL     OW97286   7.406   0.841   3.860 -0.2745  0.0639 -0.0451
31760SOL    HW197287   7.358   0.875   3.936 -0.4134 -2.4594  1.1087
31760SOL    HW297288   7.384   0.901   3.789 -1.3195  1.6832  1.5504
31761SOL     OW97289   9.910   8.822   0.046  0.3578 -0.3690 -0.2618
31761SOL    HW197290   9.934   8.776  -0.035 -1.1320 -0.8932 -0.4489
31761SOL    HW297291   9.990   8.866   0.073  1.2721 -1.3344 -1.2524
31762SOL     OW97292   7.214   1.291   1.214  0.0437  0.3523 -0.4013
31762SOL    HW197293   7.123   1.276   1.241  0.0130  1.5381  0.2507
31762SOL    HW297294   7.239   1.212   1.167 -1.0208 -0.3838  0.2347
31763SOL     OW97295   7.445   6.539   0.052 -0.2075 -0.1213 -0.0223
31763SOL    HW197296   7.403   6.487  -0.016  0.5773 -0.0573 -0.5726
31763SOL    HW297297   7.456   6.479   0.125 -0.3548 -0.4098 -0.2353
31764SOL     OW97298   6.166   4.093   1.760 -0.6966  0.5115  0.3558
31764SOL    HW197299   6.091   4.141   1.725  0.6053  0.7145 -2.4325
31764SOL    HW297300   6.203   4.049   1.684  3.1961  2.0480  1.1358
31765SOL     OW97301   0.552   8.984   1.255  0.4080  0.1504 -0.2919
31765SOL    HW197302   0.484   8.941   1.204  0.0711  0.7367 -0.3391
31765SOL    HW297303   0.633   8.966   1.206  0.6981 -2.6081  1.0171
31766SOL     OW97304   5.679   7.291   0.800 -0.3196  0.3427 -0.3775
31766SOL    HW197305   5.673   7.240   0.880  0.1019  1.6417  0.5192
31766SOL    HW297306   5.686   7.382   0.830  0.3235  0.8161 -1.8643
31767SOL     OW97307   6.131   2.788   7.308 -0.4976 -0.7361  0.1093
31767SOL    HW197308   6.064   2.768   7.243  0.9648 -0.9163 -1.4247
31767SOL    HW297309   6.188   2.711   7.309  1.1268  0.3850 -0.5627
31768SOL     OW97310   1.398   5.047  10.805  0.0662 -0.1607 -0.3407
31768SOL    HW197311   1.428   4.963  10.772  1.7111  0.8355 -1.4885
31768SOL    HW297312   1.344   5.083  10.734 -2.0003 -0.8741  0.7623
31769SOL     OW97313   7.738   0.735   7.739 -0.4338 -0.3473 -0.6465
31769SOL    HW197314   7.748   0.651   7.785  0.5374 -0.1928 -0.5548
31769SOL    HW297315   7.666   0.778   7.785 -0.0733 -0.5818  0.1584
31770SOL     OW97316  10.649   4.080   9.986 -0.0566 -0.4015  0.3720
31770SOL    HW197317  10.667   3.987  10.001  0.6998 -0.3606 -0.1851
31770SOL    HW297318  10.554   4.085   9.977 -0.2744 -0.8688  2.0158
31771SOL     OW97319  10.794   7.511   8.674 -0.2212 -0.8828 -1.0486
31771SOL    HW197320  10.787   7.420   8.704 -2.5461 -0.0073  1.5484
31771SOL    HW297321  10.887   7.530   8.678  0.0689 -2.2995  1.5236
31772SOL     OW97322   6.454   7.088   7.840 -0.2014  0.1513 -0.1581
31772SOL    HW197323   6.515   7.157   7.865  0.2022 -0.0338 -0.6238
31772SOL    HW297324   6.367   7.126   7.855  0.0083  0.1297  1.3064
31773SOL     OW97325   9.294   7.124  11.084  0.1599 -0.0135 -0.5382
31773SOL    HW197326   9.260   7.071  11.012  1.1867 -0.3668 -0.7832
31773SOL    HW297327   9.241   7.099  11.159 -0.0575 -0.6195 -0.8874
31774SOL     OW97328   5.521   9.658   0.004  0.1837  0.1045 -0.1583
31774SOL    HW197329   5.592   9.668  -0.058  0.4253 -1.5884 -0.2001
31774SOL    HW297330   5.458   9.602  -0.040 -0.0752 -0.3592  0.7661
31775SOL     OW97331   8.966   3.224   3.863  0.3890 -0.1086 -0.7957
31775SOL    HW197332   8.900   3.275   3.910  0.1630  0.0129 -1.2457
31775SOL    HW297333   8.917   3.178   3.795  0.7183 -0.2727 -0.9232
31776SOL     OW97334   6.922   7.276   6.438 -0.2510 -0.4081  0.6540
31776SOL    HW197335   6.920   7.186   6.406  1.4918  0.4509 -2.1872
31776SOL    HW297336   6.925   7.330   6.359 -1.4431  2.2020  2.2481
31777SOL     OW97337   9.498   3.555   4.970 -0.6498  0.4787 -0.1730
31777SOL    HW197338   9.563   3.552   4.900 -0.8829  0.5707 -0.3960
31777SOL    HW297339   9.548   3.573   5.049 -0.3984  0.4953 -0.3358
31778SOL     OW97340   6.085   7.137   2.046  0.4731 -0.3202  0.1755
31778SOL    HW197341   6.054   7.070   1.985  0.6080 -1.0722  0.9213
31778SOL    HW297342   6.006   7.187   2.069  0.3739 -0.2119 -0.3844
31779SOL     OW97343   4.831   5.743   3.706 -0.3272  0.5891  0.6499
31779SOL    HW197344   4.855   5.802   3.777  0.2813  1.1269  0.0059
31779SOL    HW297345   4.912   5.730   3.656 -0.8481  0.5798 -0.2084
31780SOL     OW97346   5.080   4.968   3.662 -0.0964  0.1414  0.3949
31780SOL    HW197347   5.074   4.877   3.691 -1.0585  0.2103  0.4331
31780SOL    HW297348   5.124   5.013   3.734  0.4261 -0.2902  0.3562
31781SOL     OW97349   7.053   1.335   9.725 -0.1734  0.4494  0.4733
31781SOL    HW197350   6.989   1.369   9.787 -0.9217 -1.5101  0.8707
31781SOL    HW297351   7.002   1.281   9.665  0.9035  0.0429 -0.1108
31782SOL     OW97352   2.381   5.659   1.452  0.2489 -0.1681 -0.5843
31782SOL    HW197353   2.319   5.600   1.495 -2.1750  1.1090 -2.0781
31782SOL    HW297354   2.396   5.619   1.366  0.6509  0.0912 -0.6401
31783SOL     OW97355   4.294   7.210   0.349  0.4714 -0.3630  0.4387
31783SOL    HW197356   4.306   7.137   0.410 -2.2993 -1.7690 -0.5405
31783SOL    HW297357   4.316   7.174   0.263  1.2136  0.6497  0.1750
31784SOL     OW97358   7.786   2.242   0.739  0.1307 -0.2696  0.9731
31784SOL    HW197359   7.733   2.283   0.671 -1.4064 -0.5210  1.9763
31784SOL    HW297360   7.769   2.148   0.731  1.5398 -0.4965  0.4122
31785SOL     OW97361   6.167   0.321   6.819  0.3647  0.4352 -0.5163
31785SOL    HW197362   6.223   0.346   6.893 -0.6167 -1.1836  0.8527
31785SOL    HW297363   6.109   0.397   6.807  0.3487  0.6236  0.5960
31786SOL     OW97364   5.064   2.449   4.711  0.2990 -0.2580 -0.3688
31786SOL    HW197365   5.081   2.542   4.699  1.3754 -0.6183 -1.9574
31786SOL    HW297366   5.013   2.444   4.791  0.2226  1.6944 -0.2514
31787SOL     OW97367   0.089   1.977   6.812 -0.4173 -0.2433  0.2716
31787SOL    HW197368   0.054   1.991   6.724 -2.3850 -1.7486  0.7395
31787SOL    HW297369   0.159   1.913   6.801 -1.0047 -0.8240 -0.1587
31788SOL     OW97370   1.166   7.700   0.528  0.3247  0.7565 -0.2513
31788SOL    HW197371   1.156   7.783   0.482 -3.2377 -0.4948 -2.1588
31788SOL    HW297372   1.139   7.718   0.618  1.0199  1.9438 -0.2732
31789SOL     OW97373   7.878   6.124   1.622 -0.4690  0.3356  0.8167
31789SOL    HW197374   7.868   6.088   1.534 -1.3778  0.1656  0.9809
31789SOL    HW297375   7.843   6.056   1.680 -0.8695  0.8844  1.2313
31790SOL     OW97376   0.578   1.860   2.083 -0.3512  0.1594 -0.0476
31790SOL    HW197377   0.504   1.898   2.035 -0.2146  0.1697 -0.2509
31790SOL    HW297378   0.563   1.885   2.174 -0.7756 -0.1236 -0.0384
31791SOL     OW97379   0.412   6.832   6.796 -0.3866 -0.2141 -0.1586
31791SOL    HW197380   0.389   6.923   6.814 -0.2594 -0.5014  1.7631
31791SOL    HW297381   0.343   6.800   6.739  0.4299  1.4919 -2.2120
31792SOL     OW97382   8.939   6.151   3.678 -0.1338 -0.6666  0.7699
31792SOL    HW197383   8.846   6.160   3.699 -0.2783  3.1135 -0.6603
31792SOL    HW297384   8.942   6.156   3.582  1.5602  0.9390  0.8385
31793SOL     OW97385  11.092   7.769  10.192 -0.1385  0.0068  0.5028
31793SOL    HW197386  11.039   7.690  10.185 -0.4609  0.2842 -0.3267
31793SOL    HW297387  11.032   7.836  10.226 -0.9196  0.8097 -2.1660
31794SOL     OW97388   4.492   7.942   5.464  0.5716  0.3016 -0.0677
31794SOL    HW197389   4.537   7.863   5.494  0.9287 -0.3949 -2.2714
31794SOL    HW297390   4.522   8.011   5.523  1.9342 -0.8043  0.5775
31795SOL     OW97391   5.089   7.739   6.334  0.3901  0.1717 -0.2209
31795SOL    HW197392   5.013   7.682   6.348  1.1196 -0.3009  2.3320
31795SOL    HW297393   5.073   7.779   6.249 -3.1278  0.7152  0.5380
31796SOL     OW97394   4.187   2.628   3.883 -0.1609 -0.4130  0.2843
31796SOL    HW197395   4.281   2.614   3.890 -0.3369 -2.4393 -0.7458
31796SOL    HW297396   4.148   2.545   3.910 -1.6171  0.1364 -0.0447
31797SOL     OW97397   3.902   0.597   6.222 -0.1664 -0.0656 -0.5355
31797SOL    HW197398   3.942   0.586   6.136 -1.4193 -2.4822 -0.8798
31797SOL    HW297399   3.906   0.510   6.261  0.7276  1.0390  2.0623
31798SOL     OW97400   6.419   9.975   0.893 -0.1154 -0.1691 -0.1406
31798SOL    HW197401   6.396   9.986   0.986 -0.0413 -0.0000 -0.1405
31798SOL    HW297402   6.478   9.900   0.892  0.1805  0.0587  0.0003
31799SOL     OW97403   3.029   4.285   8.661 -0.0919 -0.1200 -0.2880
31799SOL    HW197404   3.070   4.279   8.747  1.1890  0.9317 -0.7809
31799SOL    HW297405   2.984   4.369   8.661 -0.3878 -0.2737 -0.5269
31800SOL     OW97406   7.720   9.965   6.772 -0.0028  0.2857 -0.2335
31800SOL    HW197407   7.665   9.932   6.700 -0.4385  1.9113 -0.6718
31800SOL    HW297408   7.727  10.059   6.756  0.9155  0.4828  1.1869
31801SOL     OW97409   5.087   6.401   7.931 -0.2615  0.7223 -0.2935
31801SOL    HW197410   5.007   6.450   7.951 -0.2063  0.8623 -0.4176
31801SOL    HW297411   5.079   6.378   7.839  0.6926  2.3290 -0.8076
31802SOL     OW97412   0.044   8.348   5.120 -0.1876  0.0738  0.1428
31802SOL    HW197413   0.013   8.261   5.095  1.1793 -0.1897 -0.7456
31802SOL    HW297414  -0.035   8.402   5.123 -0.9034 -0.9049 -0.5947
31803SOL     OW97415   5.308  10.102   9.820  0.3941 -0.2795 -0.2797
31803SOL    HW197416   5.376  10.038   9.800  0.9881  0.1927  0.2045
31803SOL    HW297417   5.353  10.186   9.822  0.1603 -0.1543  1.8321
31804SOL     OW97418   9.139   8.259   0.569 -0.2113  0.7569  0.1783
31804SOL    HW197419   9.223   8.306   0.562  1.2424 -1.5535  0.8271
31804SOL    HW297420   9.158   8.187   0.629 -2.4032 -0.4437 -0.4834
31805SOL     OW97421   5.315   9.478  10.489 -0.3281 -0.1310 -0.1247
31805SOL    HW197422   5.224   9.510  10.492 -0.1436  0.4964 -0.8259
31805SOL    HW297423   5.357   9.517  10.566 -0.4493  0.2314 -0.2400
31806SOL     OW97424  11.089   8.221   9.625  0.1972  0.6481  0.5879
31806SOL    HW197425  11.142   8.204   9.704  0.8026  0.5055  0.1582
31806SOL    HW297426  11.053   8.308   9.639 -0.4217  0.2718  1.4216
31807SOL     OW97427   0.809   4.906   7.013 -0.3516  0.0614  0.4658
31807SOL    HW197428   0.802   4.983   6.956 -0.1044 -1.2710 -1.4817
31807SOL    HW297429   0.813   4.941   7.101 -0.7248  2.2528 -0.3285
31808SOL     OW97430   9.657   6.733   8.745 -0.0794  0.4073  0.1725
31808SOL    HW197431   9.664   6.824   8.772  1.3339  0.2129  0.5399
31808SOL    HW297432   9.578   6.701   8.787  0.1161  1.1145  1.1005
31809SOL     OW97433   7.104   2.355   6.177  0.4655 -0.0715  0.4027
31809SOL    HW197434   7.043   2.418   6.137 -0.7118 -1.9653 -0.9684
31809SOL    HW297435   7.061   2.329   6.258  0.7915  0.6440  0.8055
31810SOL     OW97436   1.102   7.542   6.335 -0.0734 -0.1016 -0.3920
31810SOL    HW197437   1.038   7.590   6.387 -1.5437  0.7206 -2.7945
31810SOL    HW297438   1.079   7.450   6.346  0.1606 -0.0108  0.9891
31811SOL     OW97439   6.537   0.647   2.044 -0.0317  0.3488 -0.3422
31811SOL    HW197440   6.487   0.566   2.053  1.3225 -0.6196 -1.1018
31811SOL    HW297441   6.605   0.626   1.980  0.6897  1.9231 -0.1373
31812SOL     OW97442   6.685   7.413   4.399 -0.1564 -0.1973  0.0477
31812SOL    HW197443   6.645   7.497   4.376 -0.5247 -0.7191 -1.3226
31812SOL    HW297444   6.701   7.419   4.493 -1.3969  0.9032  0.2172
31813SOL     OW97445   2.784   7.625   2.094  0.8185  0.6311  0.5498
31813SOL    HW197446   2.760   7.540   2.057 -0.2220  0.8769  0.6318
31813SOL    HW297447   2.712   7.645   2.154  0.6607  1.9273 -0.0531
31814SOL     OW97448   6.060   7.670   4.891  0.9456  0.4930  0.4309
31814SOL    HW197449   6.042   7.580   4.865  0.5148  0.4044  1.0330
31814SOL    HW297450   6.154   7.681   4.875  1.0219 -0.0968  0.4550
31815SOL     OW97451  10.980   9.336   2.896  0.3654 -0.1455  0.1188
31815SOL    HW197452  10.891   9.365   2.875  0.4985 -0.4082 -0.8602
31815SOL    HW297453  10.973   9.300   2.984 -0.3779  0.3373  0.2715
31816SOL     OW97454   8.299   5.817   2.610  0.5315  0.7842  0.3992
31816SOL    HW197455   8.284   5.868   2.689 -0.0852  1.4829 -0.1520
31816SOL    HW297456   8.234   5.849   2.548 -0.4775 -1.2904  0.2967
31817SOL     OW97457   5.453   5.430   6.151 -0.2436  0.1511  0.4219
31817SOL    HW197458   5.513   5.362   6.182  0.3448 -0.6071 -2.1209
31817SOL    HW297459   5.506   5.485   6.094 -1.5018  0.6693 -0.2831
31818SOL     OW97460   6.531   5.904   7.360 -0.1492  0.1803 -0.1237
31818SOL    HW197461   6.463   5.930   7.298 -0.6657  1.1169  0.8072
31818SOL    HW297462   6.609   5.889   7.306 -0.4634  1.4067 -0.9397
31819SOL     OW97463   9.250   3.113   5.189  0.0336  0.2288  0.2771
31819SOL    HW197464   9.233   3.025   5.157  0.0587  0.4005 -0.2100
31819SOL    HW297465   9.314   3.149   5.127 -1.0350  1.0937 -0.3496
31820SOL     OW97466   0.152   8.714   2.803 -0.3037 -0.1159  0.1739
31820SOL    HW197467   0.127   8.790   2.856  0.3781  0.2642 -0.0394
31820SOL    HW297468   0.120   8.735   2.715 -0.2584 -0.1507  0.1494
31821SOL     OW97469  11.077   3.603   1.927  0.1286  0.0604  0.8519
31821SOL    HW197470  11.001   3.552   1.955 -0.6381  1.1211  0.7384
31821SOL    HW297471  11.041   3.684   1.894  1.3165  0.5541  0.7165
31822SOL     OW97472   1.341   9.942   3.102  0.2564 -0.4959 -0.0310
31822SOL    HW197473   1.258   9.960   3.059  0.8047  0.1885 -0.8220
31822SOL    HW297474   1.317   9.903   3.186 -0.8673  0.2149 -0.0139
31823SOL     OW97475   0.915   0.047  10.110  0.1973  0.2393  0.2435
31823SOL    HW197476   0.878   0.135  10.105 -1.6800 -0.4446  0.9573
31823SOL    HW297477   0.843  -0.010  10.084  1.0842 -1.1383  0.6937
31824SOL     OW97478   0.548   7.335  10.303 -0.0284  0.4630 -0.0744
31824SOL    HW197479   0.622   7.382  10.264 -0.9050  0.8256 -1.3876
31824SOL    HW297480   0.545   7.252  10.256 -0.3493  0.3884  0.0754
31825SOL     OW97481   0.787   3.868   7.970 -0.0913 -0.1608 -0.1500
31825SOL    HW197482   0.721   3.799   7.961 -0.7804  0.4978 -0.2756
31825SOL    HW297483   0.848   3.834   8.035 -0.8057 -0.5934  0.3126
31826SOL     OW97484   8.342   4.177   8.382 -0.3827  0.3166 -0.0317
31826SOL    HW197485   8.410   4.198   8.446  0.7854  0.4953 -1.3063
31826SOL    HW297486   8.347   4.246   8.317 -2.5616  0.9644  0.3973
31827SOL     OW97487   0.692   4.705   0.390 -0.0413 -0.8346 -0.0631
31827SOL    HW197488   0.698   4.799   0.372  1.4395 -1.2589 -2.1233
31827SOL    HW297489   0.643   4.669   0.317  0.2090 -1.7862  0.2156
31828SOL     OW97490   2.371   1.432   6.292 -0.4074  0.0211  0.2823
31828SOL    HW197491   2.419   1.479   6.224  1.8382 -0.4421  1.4460
31828SOL    HW297492   2.336   1.355   6.247 -0.6899  0.7271 -0.7565
31829SOL     OW97493   4.371   3.044   9.665  0.0316 -0.1544  0.3856
31829SOL    HW197494   4.359   3.086   9.751 -1.5446  1.5503 -0.5909
31829SOL    HW297495   4.297   3.076   9.613  1.1969 -0.8046 -1.7584
31830SOL     OW97496   3.347   2.116   4.249 -0.1361 -0.3295 -0.2036
31830SOL    HW197497   3.381   2.061   4.179  0.0635 -0.1522 -0.2485
31830SOL    HW297498   3.344   2.059   4.326 -0.6110 -0.5985 -0.4209
31831SOL     OW97499   4.090   6.974   1.964 -0.8673  0.0565  0.1366
31831SOL    HW197500   4.064   7.019   1.884  0.6561  1.1739  0.2320
31831SOL    HW297501   4.144   7.037   2.011  1.0434 -1.7243  0.4714
31832SOL     OW97502  10.471   6.163   3.359  0.4080  0.0978 -0.5194
31832SOL    HW197503  10.454   6.257   3.368 -0.3954 -0.1441  0.7441
31832SOL    HW297504  10.470   6.130   3.449  0.9074 -1.0852 -0.9356
31833SOL     OW97505   1.268   6.711   9.864  0.6001 -0.2146 -0.3719
31833SOL    HW197506   1.180   6.733   9.896  0.1265  0.7725 -2.2271
31833SOL    HW297507   1.275   6.755   9.779  2.8962 -0.2645 -0.2852
31834SOL     OW97508   6.259   5.307   8.436  0.1806  0.4655 -0.2898
31834SOL    HW197509   6.317   5.261   8.496 -1.8932 -1.1611  0.6204
31834SOL    HW297510   6.214   5.237   8.388 -0.6345  1.6487 -1.3294
31835SOL     OW97511   3.885   6.229   3.214  0.1108 -0.5079 -0.1082
31835SOL    HW197512   3.929   6.156   3.258 -1.4974 -1.7138 -0.3702
31835SOL    HW297513   3.794   6.200   3.208 -0.1773  0.6834 -2.0435
31836SOL     OW97514   3.725   7.596   2.426 -0.6509  0.1395  0.3947
31836SOL    HW197515   3.757   7.513   2.463 -1.5666 -1.4661 -2.1641
31836SOL    HW297516   3.643   7.573   2.383 -0.6494  2.2739 -0.8665
31837SOL     OW97517   1.674   3.238   0.419  0.2528 -0.4717  0.1389
31837SOL    HW197518   1.663   3.220   0.326 -1.7881 -1.3298  0.5009
31837SOL    HW297519   1.680   3.333   0.424 -1.1028 -0.3060 -0.7639
31838SOL     OW97520   0.317   2.243   8.510  0.2941  0.2214 -0.1518
31838SOL    HW197521   0.341   2.176   8.575 -3.1928 -3.3724 -2.1225
31838SOL    HW297522   0.372   2.222   8.434 -0.5229 -0.2190 -0.6362
31839SOL     OW97523   5.919   9.437   6.419  0.2587 -0.1744 -0.4335
31839SOL    HW197524   5.917   9.399   6.507  0.2973 -1.7117 -1.0701
31839SOL    HW297525   6.001   9.485   6.416  0.6626 -0.8080  0.0962
31840SOL     OW97526  11.054   9.997   7.186  0.2494 -0.0689  0.0742
31840SOL    HW197527  11.026   9.917   7.143 -0.3130  1.1281 -1.8760
31840SOL    HW297528  10.993  10.064   7.156  1.2830  1.2985  0.8931
31841SOL     OW97529   9.574   7.709   4.807  0.5863 -0.0874  0.4350
31841SOL    HW197530   9.597   7.792   4.850  0.4508 -0.7094  1.7779
31841SOL    HW297531   9.644   7.694   4.744 -0.2256  1.8400 -1.0261
31842SOL     OW97532   9.719   1.563   4.203 -0.1904  0.0342  0.1649
31842SOL    HW197533   9.773   1.566   4.124  0.0158  1.8107  0.3299
31842SOL    HW297534   9.725   1.473   4.233  0.7275 -0.3722 -1.1623
31843SOL     OW97535   1.180   5.050   3.534 -0.2370  0.0153  0.3611
31843SOL    HW197536   1.156   4.968   3.576 -0.6253  0.0469  0.2037
31843SOL    HW297537   1.130   5.051   3.452 -0.4054  0.5063  0.4638
31844SOL     OW97538   7.230   6.206   1.365 -0.3876 -0.1077  0.0853
31844SOL    HW197539   7.215   6.297   1.390 -2.3625 -0.7459  1.4975
31844SOL    HW297540   7.176   6.194   1.287 -1.2532 -0.4226  0.7251
31845SOL     OW97541   0.433   2.962   0.317 -0.2891 -0.6690  0.0163
31845SOL    HW197542   0.525   2.938   0.304 -0.3630  0.2369 -2.7264
31845SOL    HW297543   0.434   3.012   0.399  1.9029  0.3974 -0.5731
31846SOL     OW97544   7.251   2.063   9.021  0.0146 -0.1120  0.2853
31846SOL    HW197545   7.270   1.974   8.993 -0.5863  0.0221 -0.5734
31846SOL    HW297546   7.198   2.052   9.101 -0.0958 -0.5222  0.1589
31847SOL     OW97547  10.130   5.180   3.664 -0.0931 -0.2135 -0.3975
31847SOL    HW197548  10.066   5.126   3.617  1.0937 -2.5302  0.4893
31847SOL    HW297549  10.193   5.205   3.597  0.1059 -1.1589 -0.5766
31848SOL     OW97550   9.317  10.591   3.282 -0.4530  0.3335  0.3188
31848SOL    HW197551   9.337  10.671   3.330  1.3971  1.4378 -2.1012
31848SOL    HW297552   9.225  10.600   3.259 -0.3363  1.6509  0.2875
31849SOL     OW97553   5.774   9.187   7.426 -0.1582 -0.3499 -0.1860
31849SOL    HW197554   5.713   9.259   7.444 -0.9823 -1.0947  0.0347
31849SOL    HW297555   5.836   9.224   7.362 -1.2925  0.1844 -1.0072
31850SOL     OW97556   5.494   6.241   2.447  1.0075  0.1201  0.2322
31850SOL    HW197557   5.528   6.152   2.437  2.3221  0.3346  2.1586
31850SOL    HW297558   5.455   6.241   2.535 -0.8367  0.8993 -0.5480
31851SOL     OW97559   7.960   4.021  10.671  0.5295 -0.3260  0.5498
31851SOL    HW197560   7.999   3.944  10.631 -0.6459 -0.9822  0.6288
31851SOL    HW297561   8.031   4.062  10.720  1.1570 -1.3706  0.5271
31852SOL     OW97562   3.994   4.296  10.428 -0.5078  0.3363 -0.8528
31852SOL    HW197563   4.035   4.226  10.377 -0.0743  1.3488 -1.9388
31852SOL    HW297564   3.947   4.349  10.363 -0.9983  0.9318 -0.0291
31853SOL     OW97565   3.210   3.229   0.068 -0.2571 -0.3211 -0.6659
31853SOL    HW197566   3.234   3.183  -0.012 -0.2838 -3.3653  0.9001
31853SOL    HW297567   3.115   3.219   0.073 -0.3756  0.7157 -0.7225
31854SOL     OW97568   3.230   4.275   5.523  0.1447  0.0293  0.1443
31854SOL    HW197569   3.229   4.275   5.619  0.2615 -0.5896  0.1459
31854SOL    HW297570   3.275   4.194   5.499 -1.6657 -0.8538 -0.4495
31855SOL     OW97571   4.464   3.630   9.980  0.2634  0.9179 -0.1071
31855SOL    HW197572   4.521   3.654   9.906  1.0037 -0.6045 -0.0650
31855SOL    HW297573   4.486   3.693  10.048 -0.5189  2.4305 -1.2048
31856SOL     OW97574   7.222   4.218   7.345 -0.4282  0.3179 -0.5614
31856SOL    HW197575   7.130   4.212   7.317  0.1096  1.9052 -3.0080
31856SOL    HW297576   7.237   4.138   7.395 -2.4167 -1.3214 -2.3651
31857SOL     OW97577   5.922   4.334   3.111 -0.8648  0.1118 -0.6554
31857SOL    HW197578   5.901   4.373   3.196 -1.8481  1.1090 -1.3129
31857SOL    HW297579   5.980   4.398   3.069  2.2118 -1.7936  0.4161
31858SOL     OW97580   7.272   8.497  10.177 -0.4366  0.0639  0.3470
31858SOL    HW197581   7.262   8.432  10.247 -0.9484  0.5468  0.7300
31858SOL    HW297582   7.197   8.556  10.188 -0.4414  0.2273 -0.5231
31859SOL     OW97583   2.183   6.980   4.438  1.2379  0.1442 -0.2030
31859SOL    HW197584   2.225   7.026   4.511  2.2860  0.4067 -0.9590
31859SOL    HW297585   2.251   6.971   4.372  0.0509  0.7648 -1.5584
31860SOL     OW97586   0.199   7.679   4.186 -0.2868 -0.5791 -0.2568
31860SOL    HW197587   0.177   7.627   4.262 -0.3554  0.9089  0.7860
31860SOL    HW297588   0.222   7.765   4.221  1.3581 -0.3283 -1.7679
31861SOL     OW97589   7.649   3.926   2.966  0.0232  0.2450  0.1022
31861SOL    HW197590   7.635   3.908   3.059  0.3802 -1.7622 -0.1939
31861SOL    HW297591   7.580   3.988   2.942 -0.0292  0.8359  1.6927
31862SOL     OW97592   8.997   0.024   8.753  0.4029  0.0877  0.6850
31862SOL    HW197593   8.971   0.015   8.661  1.2240 -1.3525  0.5583
31862SOL    HW297594   9.092   0.034   8.749  0.3962  0.4151  1.3575
31863SOL     OW97595  10.860   4.968   7.191  0.6679 -0.3918  0.2350
31863SOL    HW197596  10.919   5.033   7.153 -0.3481  0.8048  0.6558
31863SOL    HW297597  10.845   4.905   7.120  1.7950 -0.2692 -0.1235
31864SOL     OW97598  11.018   3.217  10.622  0.5763  0.3886  0.8826
31864SOL    HW197599  11.054   3.250  10.540  2.8245  0.5508  1.8637
31864SOL    HW297600  10.990   3.296  10.669 -0.7554  0.2925  0.2928
31865SOL     OW97601  10.859   5.600  10.925 -0.6573 -0.3894  0.6010
31865SOL    HW197602  10.866   5.575  10.833  1.6828  1.3480  0.2099
31865SOL    HW297603  10.936   5.562  10.966 -0.0465  1.3361  1.1475
31866SOL     OW97604   4.272   5.377   5.317  0.6820  0.0487 -0.7200
31866SOL    HW197605   4.273   5.358   5.411  1.4216 -0.3428 -0.7979
31866SOL    HW297606   4.335   5.315   5.279 -0.3867 -0.5319 -1.6188
31867SOL     OW97607  11.075   7.778   2.351 -0.4886  0.6546 -0.2069
31867SOL    HW197608  11.096   7.871   2.358  0.8131  0.3735 -0.2513
31867SOL    HW297609  11.134   7.736   2.413 -0.4150 -0.2352 -0.8704
31868SOL     OW97610   1.525   9.760   8.421 -0.2458  0.0185 -0.2746
31868SOL    HW197611   1.438   9.723   8.402 -0.0555 -0.4242 -0.3169
31868SOL    HW297612   1.508   9.838   8.473 -0.7245  0.5303 -1.1750
31869SOL     OW97613   2.188   2.227   8.777 -0.1541  0.4169  0.3344
31869SOL    HW197614   2.127   2.299   8.759  1.8649  1.4726 -3.0960
31869SOL    HW297615   2.149   2.151   8.735  0.3736  0.8719 -1.0200
31870SOL     OW97616   1.929   7.033   6.458 -0.2100 -0.0618 -0.5006
31870SOL    HW197617   1.841   7.062   6.435 -0.7581 -0.7341  0.6695
31870SOL    HW297618   1.955   6.977   6.384 -1.3851 -1.0760 -0.1817
31871SOL     OW97619   6.762   5.467   0.558  0.1741 -0.5093  0.0370
31871SOL    HW197620   6.680   5.482   0.605 -0.5028  0.6074 -1.4217
31871SOL    HW297621   6.735   5.446   0.469  1.4718  1.2628 -0.8383
31872SOL     OW97622   9.772   7.502   5.500  0.6663  0.0267  0.1652
31872SOL    HW197623   9.704   7.435   5.499  2.5463 -1.9852 -0.6915
31872SOL    HW297624   9.760   7.550   5.417 -0.1573  0.2098  0.3822
31873SOL     OW97625   8.611   1.787   9.650 -0.5286  0.3247  0.2932
31873SOL    HW197626   8.555   1.799   9.726  0.8486 -1.4938  1.6978
31873SOL    HW297627   8.553   1.751   9.583 -1.4693  0.5367  0.9768
31874SOL     OW97628   7.133   1.446   7.657  0.2418 -0.3331 -0.2530
31874SOL    HW197629   7.039   1.447   7.674  0.1555  0.4247 -0.7445
31874SOL    HW297630   7.145   1.382   7.587 -0.0576  0.3844 -0.9742
31875SOL     OW97631   1.032   6.869   7.356 -0.2831  0.6786  0.0622
31875SOL    HW197632   0.940   6.842   7.349 -0.8436  1.6648  2.4145
31875SOL    HW297633   1.068   6.814   7.426  0.8379  0.5509 -0.5937
31876SOL     OW97634   8.203   7.201  10.064  0.1657  0.3738  0.4908
31876SOL    HW197635   8.147   7.218  10.139  1.7449  0.0650  1.8003
31876SOL    HW297636   8.231   7.288  10.034  0.4449  0.4656  1.0033
31877SOL     OW97637   9.950   7.467   6.023  0.0511 -0.1101  0.2011
31877SOL    HW197638   9.986   7.553   6.004  0.8876 -0.5537 -0.2656
31877SOL    HW297639   9.978   7.412   5.950  1.7044 -1.3957  1.7189
31878SOL     OW97640   3.290   8.378   0.050  0.0037 -0.0264  0.0177
31878SOL    HW197641   3.222   8.415   0.106  0.8279  0.5886  0.6282
31878SOL    HW297642   3.242   8.344  -0.026 -1.0124  0.1109  0.5748
31879SOL     OW97643   2.961   8.985   6.873 -0.1911  0.3814 -0.2370
31879SOL    HW197644   2.938   9.025   6.957 -2.0494  1.1760 -1.0531
31879SOL    HW297645   2.904   8.908   6.867  0.5237 -0.1418 -0.4162
31880SOL     OW97646  10.302   5.931   0.288 -0.2937 -0.5570  0.1718
31880SOL    HW197647  10.356   5.866   0.242  1.3226  0.2709  0.8203
31880SOL    HW297648  10.332   6.015   0.253 -2.0002 -0.1103 -0.2777
31881SOL     OW97649  10.110   8.074   0.321  0.3133 -0.0733 -0.0262
31881SOL    HW197650  10.042   8.065   0.253  0.3978  0.4472 -0.1812
31881SOL    HW297651  10.119   7.986   0.357 -0.0039 -0.2770 -0.4336
31882SOL     OW97652   6.332   9.214   3.401  0.2058  0.1221  0.1406
31882SOL    HW197653   6.367   9.125   3.391 -1.0334 -0.4857  1.0841
31882SOL    HW297654   6.290   9.233   3.317  1.2116  0.1707 -0.3678
31883SOL     OW97655   9.026   4.708   4.793 -0.8299 -0.2711  0.1441
31883SOL    HW197656   9.116   4.720   4.763 -0.3696 -1.1390  1.1214
31883SOL    HW297657   8.997   4.795   4.818  0.1184 -0.1444  0.8361
31884SOL     OW97658   8.906   8.956   5.571 -0.2157 -0.0209 -0.0732
31884SOL    HW197659   8.888   8.928   5.661 -1.3413  1.6111  0.2509
31884SOL    HW297660   8.923   9.050   5.577  0.6959 -0.0621 -1.4589
31885SOL     OW97661   2.477   6.562   2.840  0.1349 -0.6950 -0.1234
31885SOL    HW197662   2.515   6.474   2.840  1.2827 -0.2268  0.7939
31885SOL    HW297663   2.439   6.572   2.927  1.4046  0.2493  0.3702
31886SOL     OW97664   2.498   0.982   5.455  0.1470  0.2028  0.0989
31886SOL    HW197665   2.493   0.957   5.547  0.2891  1.3453  0.4277
31886SOL    HW297666   2.423   0.939   5.414  0.8331 -1.4230  0.4577
31887SOL     OW97667   5.814   9.220   3.435 -0.3024 -0.1428 -0.3162
31887SOL    HW197668   5.895   9.180   3.466 -0.6597 -0.4124  0.2957
31887SOL    HW297669   5.775   9.258   3.514 -1.0735 -0.5588 -0.4882
31888SOL     OW97670   7.934   2.791   3.081 -0.2317 -0.1309  0.2073
31888SOL    HW197671   7.871   2.792   3.153  2.2347 -0.4377  2.4814
31888SOL    HW297672   7.987   2.713   3.095  0.6215  0.0332 -1.7108
31889SOL     OW97673   7.354   1.387   9.206  0.7211  1.0553 -0.0542
31889SOL    HW197674   7.407   1.339   9.269 -1.1135 -0.7543  0.2177
31889SOL    HW297675   7.317   1.460   9.256 -0.1473  0.0507  0.8188
31890SOL     OW97676   1.219   9.218   0.307  0.3057 -0.2281 -0.3289
31890SOL    HW197677   1.142   9.164   0.290  0.6770 -1.5890  1.8628
31890SOL    HW297678   1.290   9.175   0.259  0.2927 -0.8316  0.1766
31891SOL     OW97679   8.374   8.241  10.329  0.0913 -0.3142  0.8397
31891SOL    HW197680   8.330   8.322  10.302 -0.0772 -0.3818  0.9140
31891SOL    HW297681   8.381   8.190  10.248  1.3758  0.3244  0.5191
31892SOL     OW97682   7.922   0.482   3.083  1.0376  0.0256 -0.5424
31892SOL    HW197683   8.013   0.455   3.097  1.0047 -2.2013 -3.6838
31892SOL    HW297684   7.923   0.527   2.999 -0.8968 -1.2931 -1.3530
31893SOL     OW97685   7.095   5.446  10.469 -0.3450  0.3262  0.1681
31893SOL    HW197686   7.050   5.382  10.525  1.1152 -1.3429 -0.4722
31893SOL    HW297687   7.053   5.437  10.384  0.2973 -0.2653 -0.0894
31894SOL     OW97688   7.634   4.525   4.339  0.0556  0.2240  0.4137
31894SOL    HW197689   7.697   4.506   4.269  0.1992  0.5933  0.4367
31894SOL    HW297690   7.678   4.499   4.419 -0.2212 -0.4669  0.3441
31895SOL     OW97691   3.406   3.673   8.671 -0.6964 -0.3038  0.2750
31895SOL    HW197692   3.363   3.636   8.747  1.5058 -1.1916  1.1860
31895SOL    HW297693   3.360   3.635   8.596 -0.6295 -2.3093  1.1955
31896SOL     OW97694   6.146   8.891   2.447  0.1135  0.0381  0.3300
31896SOL    HW197695   6.117   8.943   2.372 -0.7327  0.0342  0.6403
31896SOL    HW297696   6.065   8.870   2.495  0.6547  0.2455  1.3740
31897SOL     OW97697  10.273  10.028  10.986 -0.1685 -0.2581  0.6169
31897SOL    HW197698  10.186   9.990  10.979 -0.1285 -0.2962  0.3084
31897SOL    HW297699  10.326   9.978  10.923 -0.5626  1.6253 -1.3378
31898SOL     OW97700   5.805   2.738   3.696 -0.2570  0.3141  0.3086
31898SOL    HW197701   5.743   2.810   3.691 -0.6330 -0.0553 -0.7283
31898SOL    HW297702   5.888   2.775   3.666 -0.2211  0.5466  0.6931
31899SOL     OW97703   6.280   9.945   5.771 -0.4919  0.1498 -0.7702
31899SOL    HW197704   6.262   9.955   5.865  0.1197  0.7926 -0.7132
31899SOL    HW297705   6.195   9.956   5.730 -0.7426  0.0286 -0.2970
31900SOL     OW97706   0.207   4.745   9.568 -0.3604 -0.3298  0.0724
31900SOL    HW197707   0.217   4.802   9.644 -0.8333 -0.7466  0.4537
31900SOL    HW297708   0.293   4.747   9.525 -0.3749  0.6891  0.0562
31901SOL     OW97709   3.594   2.427   5.931 -0.7095  0.0763  0.0619
31901SOL    HW197710   3.678   2.444   5.888 -1.3767 -1.5827 -2.1222
31901SOL    HW297711   3.589   2.332   5.937 -2.0845  0.1726  0.9103
31902SOL     OW97712   4.897   9.323   6.487 -0.2153  0.3770 -0.3625
31902SOL    HW197713   4.938   9.277   6.560 -0.1074 -0.7982 -1.1392
31902SOL    HW297714   4.804   9.318   6.505 -0.2118 -0.2592 -0.4899
31903SOL     OW97715  11.071   1.866   7.285  0.6711  0.3846 -0.4609
31903SOL    HW197716  11.074   1.902   7.196  2.1400 -1.4583 -1.2570
31903SOL    HW297717  11.032   1.779   7.273  0.3286  0.3553  0.8136
31904SOL     OW97718   2.497   7.235  10.666  0.0956 -0.3074  0.0719
31904SOL    HW197719   2.455   7.174  10.727  1.5582 -0.0947  1.3703
31904SOL    HW297720   2.448   7.317  10.677  0.1052 -0.3806  0.6881
31905SOL     OW97721  10.894   1.477   5.846 -0.3156  0.0371 -0.2991
31905SOL    HW197722  10.870   1.506   5.934 -1.4281  0.1870 -0.6280
31905SOL    HW297723  10.894   1.381   5.852  0.2203  0.0536  0.0115
31906SOL     OW97724   7.477   0.648   4.262  0.4790 -0.3813  0.1238
31906SOL    HW197725   7.544   0.716   4.258 -1.8562  1.9897 -1.5859
31906SOL    HW297726   7.510   0.580   4.203  2.3394 -0.3034  0.9973
31907SOL     OW97727   6.509   7.708   1.745 -0.1535  0.9945  0.2885
31907SOL    HW197728   6.483   7.773   1.810 -1.4542 -0.6114  1.4749
31907SOL    HW297729   6.433   7.650   1.738 -0.1344  1.1749 -2.8143
31908SOL     OW97730   9.135   3.358   9.061  0.8113  0.2756  0.1064
31908SOL    HW197731   9.141   3.397   9.149  0.5595  0.0104  0.2427
31908SOL    HW297732   9.087   3.276   9.075  0.1937  0.5480 -0.3790
31909SOL     OW97733   6.893   7.837   9.476  0.1322  0.1127  0.5189
31909SOL    HW197734   6.854   7.922   9.456  1.6194  0.7606  0.2076
31909SOL    HW297735   6.825   7.774   9.454 -1.2267  1.2326  1.3401
31910SOL     OW97736  10.603   6.401   4.837  0.5226  0.2800  0.0773
31910SOL    HW197737  10.530   6.441   4.791  0.1896 -2.0567 -1.5902
31910SOL    HW297738  10.649   6.475   4.878 -1.4692  2.0297 -0.6553
31911SOL     OW97739   4.253   9.975  10.844 -0.9933  0.0437  0.5313
31911SOL    HW197740   4.340   9.935  10.849 -1.0442  0.0316  1.6164
31911SOL    HW297741   4.243   9.999  10.752 -0.3388 -1.0554  0.1463
31912SOL     OW97742   7.918   1.507   1.164 -0.5130 -0.1078  0.1963
31912SOL    HW197743   7.935   1.527   1.256 -0.0112 -0.2195  0.1299
31912SOL    HW297744   7.844   1.563   1.140 -0.2298  0.3949  0.4893
31913SOL     OW97745   9.849   7.856   2.054 -0.4928 -0.6861 -0.1326
31913SOL    HW197746   9.887   7.860   1.966  0.2469  2.3956  0.2225
31913SOL    HW297747   9.924   7.858   2.113 -1.0341 -0.0746  0.5635
31914SOL     OW97748   7.071   6.446   5.907 -0.1108 -0.2291  0.6039
31914SOL    HW197749   6.980   6.419   5.919 -0.5645  0.2661 -1.4282
31914SOL    HW297750   7.081   6.525   5.960 -1.0817  0.1035  0.3014
31915SOL     OW97751   9.957   5.648  10.417 -0.1455 -0.3922  0.0834
31915SOL    HW197752  10.002   5.583  10.471 -1.0484 -0.4942  0.7221
31915SOL    HW297753   9.986   5.732  10.452 -1.4006 -0.4495  1.3343
31916SOL     OW97754   3.285   2.662  10.492  0.3737 -0.2231 -0.1265
31916SOL    HW197755   3.350   2.654  10.562  0.3306 -1.0414 -0.1754
31916SOL    HW297756   3.336   2.654  10.411  0.2905 -0.2949 -0.1728
31917SOL     OW97757   6.924   3.393   1.002  0.5429  0.0294 -0.5220
31917SOL    HW197758   6.961   3.435   0.925  2.0078  1.4198  0.8354
31917SOL    HW297759   6.973   3.311   1.010  1.6200  0.6738 -0.1724
31918SOL     OW97760   4.017   7.783   4.586  0.0579 -0.0992 -0.7685
31918SOL    HW197761   4.016   7.814   4.676 -0.3247  1.0042 -1.1332
31918SOL    HW297762   4.063   7.699   4.589 -0.3819 -0.3130  0.5210
31919SOL     OW97763   4.945   9.794   4.417  0.1126 -0.3017 -0.2831
31919SOL    HW197764   5.015   9.761   4.472  1.3551 -1.0972 -2.2264
31919SOL    HW297765   4.982   9.873   4.376 -0.3138 -0.4289 -0.9250
31920SOL     OW97766   7.973   7.357   3.560 -0.2490 -0.9693 -0.5327
31920SOL    HW197767   7.882   7.331   3.545 -0.6064 -1.4432  1.9630
31920SOL    HW297768   7.973   7.452   3.549 -1.1190 -0.9269 -0.2177
31921SOL     OW97769   9.872   2.758   8.800 -0.4250 -0.3417 -0.0103
31921SOL    HW197770   9.786   2.767   8.840 -0.3238 -0.0484  0.1427
31921SOL    HW297771   9.861   2.688   8.735 -1.4369  1.3671 -1.7995
31922SOL     OW97772  10.342   2.088   7.428  0.4552 -0.9422  0.6704
31922SOL    HW197773  10.248   2.101   7.443  0.3020  1.0515 -1.4699
31922SOL    HW297774  10.384   2.126   7.505 -0.4559  1.2235  0.1746
31923SOL     OW97775   3.134   7.291   8.250  0.3919  0.1980  0.0010
31923SOL    HW197776   3.108   7.217   8.306 -2.0486  0.2120 -1.0055
31923SOL    HW297777   3.081   7.364   8.280  1.4916  1.1071 -0.1890
31924SOL     OW97778   8.868  10.479   2.166  0.7711 -0.0478 -0.7482
31924SOL    HW197779   8.869  10.384   2.180  1.7654  0.1337  0.7105
31924SOL    HW297780   8.944  10.511   2.216  0.9307  1.4310 -1.8688
31925SOL     OW97781   0.218   4.820   1.267 -0.4626 -0.3535  0.3990
31925SOL    HW197782   0.127   4.795   1.259 -0.9571  1.1034  1.0620
31925SOL    HW297783   0.246   4.782   1.351 -0.0815 -1.7983 -0.3517
31926SOL     OW97784   9.524   8.024   5.107 -0.6470 -0.2432 -1.0343
31926SOL    HW197785   9.576   8.027   5.026  0.4139 -0.2098 -0.3662
31926SOL    HW297786   9.588   8.011   5.176 -1.3568  1.5244  0.0053
31927SOL     OW97787   2.751   8.847   3.358  0.0030 -0.0182  0.2821
31927SOL    HW197788   2.801   8.862   3.439 -0.5393  0.7358  0.4894
31927SOL    HW297789   2.807   8.881   3.288 -0.4583  1.4008  0.5727
31928SOL     OW97790   7.660   3.612  10.405 -0.2385  0.5552 -0.4421
31928SOL    HW197791   7.600   3.538  10.408 -0.8861  1.0759  0.0697
31928SOL    HW297792   7.736   3.581  10.357 -0.0480 -0.7681  0.6723
31929SOL     OW97793   6.085   2.798   0.616 -0.4525  0.0641  0.0207
31929SOL    HW197794   6.024   2.747   0.563 -0.4300 -0.6474  0.6529
31929SOL    HW297795   6.032   2.826   0.691  0.1691 -1.2293  0.9771
31930SOL     OW97796   7.935   0.802   4.865  0.1140 -0.3535 -0.1786
31930SOL    HW197797   7.955   0.727   4.921 -0.9544 -0.3980  0.1804
31930SOL    HW297798   7.937   0.767   4.776 -1.4492 -1.1142  0.0399
31931SOL     OW97799   7.919   9.782   8.184 -0.1833  0.0089 -0.3823
31931SOL    HW197800   7.973   9.838   8.241 -0.7971  0.3137 -0.0838
31931SOL    HW297801   7.856   9.843   8.145 -0.7200 -0.4416 -0.2243
31932SOL     OW97802   7.206   3.978   5.120 -0.6328 -0.2424 -0.7030
31932SOL    HW197803   7.166   4.047   5.173  2.0750 -0.5630  2.0241
31932SOL    HW297804   7.217   4.018   5.033 -1.9650  1.6304 -0.0562
31933SOL     OW97805   7.419   4.386   4.121  0.0648  0.3525 -0.2387
31933SOL    HW197806   7.512   4.365   4.112  0.1964  0.2998  1.0118
31933SOL    HW297807   7.417   4.460   4.182 -0.7924 -0.9907  1.4628
31934SOL     OW97808   8.267   8.744   5.138  0.2563  0.2762  0.6302
31934SOL    HW197809   8.236   8.830   5.112  0.5233  0.0564 -0.4786
31934SOL    HW297810   8.363   8.750   5.136  0.3870 -0.8348 -2.5356
31935SOL     OW97811   5.576   6.328   3.046  0.6134  0.2643 -0.9112
31935SOL    HW197812   5.601   6.287   2.963  1.3272 -0.4141 -0.3723
31935SOL    HW297813   5.636   6.291   3.111  0.9281  1.7650 -0.2980
31936SOL     OW97814   6.360   5.906   5.981  0.3436  0.8416  0.2268
31936SOL    HW197815   6.329   5.917   6.071  0.3732 -0.7302  0.4509
31936SOL    HW297816   6.282   5.918   5.927 -0.4932 -1.7571  0.7105
31937SOL     OW97817   9.737   6.218   9.555 -0.2849  0.0778  0.2866
31937SOL    HW197818   9.672   6.155   9.523  0.7189  0.2799 -2.4878
31937SOL    HW297819   9.686   6.295   9.580 -1.2368 -0.1099 -0.9603
31938SOL     OW97820   7.413   0.508   1.449 -0.6385  0.2605 -0.4150
31938SOL    HW197821   7.330   0.510   1.497 -1.1928 -0.4763 -1.3054
31938SOL    HW297822   7.395   0.452   1.374  1.4606 -2.2573  0.8136
31939SOL     OW97823   0.248   2.320   9.462 -0.3639 -0.2010 -0.6492
31939SOL    HW197824   0.290   2.313   9.376  0.0645  1.7771 -0.6511
31939SOL    HW297825   0.170   2.372   9.447  0.0583  0.7269  0.2472
31940SOL     OW97826  10.799   6.785   3.766 -0.3721 -0.1263 -0.3167
31940SOL    HW197827  10.836   6.848   3.827 -1.2078 -0.4091  0.5183
31940SOL    HW297828  10.750   6.724   3.822 -0.1207 -1.1328 -1.1586
31941SOL     OW97829   5.880  11.011   6.004 -0.2584 -0.0267 -0.1743
31941SOL    HW197830   5.915  11.090   6.047 -1.0690  0.7449 -0.8964
31941SOL    HW297831   5.933  11.003   5.924 -1.5328  1.0348 -1.1729
31942SOL     OW97832   8.936  10.520   1.888  0.0249  0.4248 -0.6133
31942SOL    HW197833   9.029  10.540   1.892  0.7229 -2.4669  0.3913
31942SOL    HW297834   8.912  10.496   1.978 -1.8118  1.4659 -0.7651
31943SOL     OW97835   8.946   2.863   3.892 -0.2228 -0.8027 -0.0738
31943SOL    HW197836   8.984   2.941   3.932 -2.5026  0.7262 -0.7513
31943SOL    HW297837   8.993   2.790   3.934  1.4656  0.8665  1.1004
31944SOL     OW97838   9.619   5.278   3.793  0.1478  0.4668  0.7491
31944SOL    HW197839   9.636   5.229   3.874  1.2199 -0.1174  0.1866
31944SOL    HW297840   9.523   5.283   3.789 -0.0183 -1.4812  0.9203
31945SOL     OW97841  10.196   7.085   9.262  0.0063  0.8270 -0.1404
31945SOL    HW197842  10.164   7.136   9.187  0.4261 -0.3287 -1.1344
31945SOL    HW297843  10.266   7.031   9.226 -1.5210 -1.6901  0.4692
31946SOL     OW97844   9.887   4.398   9.256  0.0495  0.0919  0.4124
31946SOL    HW197845   9.917   4.399   9.165 -2.4948  1.2073 -0.4956
31946SOL    HW297846   9.828   4.323   9.261  1.0585 -0.6555  1.5030
31947SOL     OW97847   3.882   1.730   9.185 -0.0794 -0.2699 -0.2382
31947SOL    HW197848   3.935   1.730   9.265 -0.1685 -0.4750 -0.1783
31947SOL    HW297849   3.801   1.775   9.211 -0.4199 -0.9877  0.0018
31948SOL     OW97850  10.169   4.168   2.160 -0.0681  0.1778 -0.5562
31948SOL    HW197851  10.081   4.140   2.183  0.5499 -0.4147  1.2222
31948SOL    HW297852  10.181   4.140   2.069 -1.4675 -0.3048 -0.6019
31949SOL     OW97853   9.485   4.670   8.459 -0.0938  0.7344 -0.7373
31949SOL    HW197854   9.571   4.654   8.498 -0.4529  0.9503  0.1679
31949SOL    HW297855   9.504   4.724   8.382  0.6407  0.1855 -0.9548
31950SOL     OW97856   7.409   1.966   5.893  0.6346  0.4679 -0.4498
31950SOL    HW197857   7.456   1.955   5.976  2.5876  0.5148 -1.4725
31950SOL    HW297858   7.334   2.022   5.915 -0.4313 -1.6582  1.7532
31951SOL     OW97859   2.489   9.483   4.929 -0.2327  0.0184  0.3353
31951SOL    HW197860   2.578   9.449   4.935  0.1386  1.1700  2.9130
31951SOL    HW297861   2.500   9.578   4.919 -1.1544  0.1961  0.8583
31952SOL     OW97862   2.085   7.207   6.605  0.1195  0.2720  0.9777
31952SOL    HW197863   2.159   7.228   6.548 -0.5195  2.7866  0.9510
31952SOL    HW297864   2.023   7.160   6.549 -0.7989  3.2636 -0.7519
31953SOL     OW97865   2.374   3.801   9.706 -0.9611 -0.1641  0.6246
31953SOL    HW197866   2.294   3.750   9.693 -0.9100  0.3257 -2.1903
31953SOL    HW297867   2.442   3.749   9.663 -0.6744  1.5854 -1.1570
31954SOL     OW97868   1.392   8.308   2.928 -0.2435 -0.4178  0.5440
31954SOL    HW197869   1.349   8.306   3.014 -0.9024  0.1127  0.2343
31954SOL    HW297870   1.348   8.240   2.878  0.9247 -1.5225  0.9768
31955SOL     OW97871  10.295   8.484   5.968 -0.3865 -0.4138 -0.8146
31955SOL    HW197872  10.220   8.427   5.950 -1.9074  1.1836  0.1612
31955SOL    HW297873  10.272   8.568   5.928  1.8484 -0.4340 -2.3117
31956SOL     OW97874   5.006   3.189   0.322 -0.1134 -0.3285 -0.1730
31956SOL    HW197875   4.919   3.202   0.283  0.0969 -0.0329 -0.5580
31956SOL    HW297876   5.041   3.278   0.331 -0.0345 -0.4197  0.4050
31957SOL     OW97877   8.326   1.904   5.791 -0.0617  0.0206 -0.5822
31957SOL    HW197878   8.386   1.830   5.795  1.5064  1.2424 -0.3176
31957SOL    HW297879   8.246   1.868   5.754  0.0310 -2.1824  1.1363
31958SOL     OW97880   7.629   9.000   9.902  0.2610  0.1306  0.3864
31958SOL    HW197881   7.675   9.025   9.821 -0.2651 -1.6443 -0.5310
31958SOL    HW297882   7.670   8.917   9.927  0.6788  0.8527  2.2058
31959SOL     OW97883   0.692   3.267   4.915 -0.3169 -0.3991 -0.0826
31959SOL    HW197884   0.676   3.346   4.863  0.6482  1.0090  1.6717
31959SOL    HW297885   0.640   3.279   4.994 -0.7241 -1.8820 -0.1040
31960SOL     OW97886  10.741   8.494   6.105 -0.6954  0.4218 -0.3975
31960SOL    HW197887  10.760   8.435   6.032  1.4911  0.8617 -0.2541
31960SOL    HW297888  10.724   8.579   6.063  1.0804  0.7966 -0.4188
31961SOL     OW97889   9.327   3.270   1.704  0.1977 -0.6348  0.3862
31961SOL    HW197890   9.242   3.245   1.668 -0.5006  0.3269  1.2746
31961SOL    HW297891   9.384   3.279   1.628 -0.1065 -2.6187 -0.1241
31962SOL     OW97892   7.444   2.356   5.778  0.1980  0.0785 -0.7855
31962SOL    HW197893   7.401   2.433   5.739  1.7815  0.2444 -2.3841
31962SOL    HW297894   7.409   2.282   5.729  0.1082 -0.0095 -0.5858
31963SOL     OW97895  11.084   3.448   2.879  0.0664 -0.1848 -1.0602
31963SOL    HW197896  11.148   3.518   2.886  0.5840 -0.6627 -0.9112
31963SOL    HW297897  11.000   3.490   2.896  0.4828  0.1719  0.2060
31964SOL     OW97898   3.347   9.656   1.887 -0.3396 -0.5256  0.2775
31964SOL    HW197899   3.315   9.566   1.893 -0.7744 -0.3167  1.2523
31964SOL    HW297900   3.397   9.658   1.806  1.4454 -2.2239  1.2514
31965SOL     OW97901   1.589   3.269  10.348 -0.7542 -0.1507 -0.9029
31965SOL    HW197902   1.538   3.200  10.391  0.4436 -0.6202 -0.1732
31965SOL    HW297903   1.616   3.326  10.420  1.0770 -0.8090 -1.0214
31966SOL     OW97904   4.458   4.098   8.371  0.1915  0.5433  0.1581
31966SOL    HW197905   4.544   4.117   8.409  0.1553  0.7158  0.1565
31966SOL    HW297906   4.396   4.124   8.439  0.1056  1.3976 -0.2333
31967SOL     OW97907   9.428   0.994   0.049 -0.3351  0.1660 -0.7540
31967SOL    HW197908   9.483   0.952  -0.017  0.1505 -0.0725 -0.2106
31967SOL    HW297909   9.362   0.928   0.070 -1.5011  0.8337 -2.1723
31968SOL     OW97910   2.243   6.574   4.865 -0.1306  0.8021  0.3643
31968SOL    HW197911   2.270   6.535   4.948  0.3751  0.8589  0.2353
31968SOL    HW297912   2.297   6.529   4.799 -0.9308  0.3576  0.0015
31969SOL     OW97913  10.756   8.177   5.046 -0.1783  0.5724 -0.1137
31969SOL    HW197914  10.665   8.164   5.020 -0.3340  1.7345 -0.1970
31969SOL    HW297915  10.780   8.096   5.092 -1.4062  0.4730  0.3762
31970SOL     OW97916   5.289   7.602   1.009 -0.2780 -0.6818 -0.8562
31970SOL    HW197917   5.210   7.653   0.992  0.2782 -0.2173 -2.1739
31970SOL    HW297918   5.300   7.606   1.104 -1.5576 -0.3533 -0.6982
31971SOL     OW97919   7.648   6.686   6.262  0.5492 -0.2876 -0.0471
31971SOL    HW197920   7.595   6.758   6.226 -0.4753 -0.4826  1.0035
31971SOL    HW297921   7.712   6.667   6.194 -0.6873  0.0194 -1.3445
31972SOL     OW97922   2.638   6.957   1.487 -0.0580 -0.3865 -0.6304
31972SOL    HW197923   2.659   7.042   1.527 -0.6974  0.5900 -2.2856
31972SOL    HW297924   2.544   6.962   1.468  0.0945 -1.0646 -1.6262
31973SOL     OW97925  10.179   8.665   3.366  0.5060  0.1081 -0.2876
31973SOL    HW197926  10.203   8.602   3.434  0.8031 -3.8971 -3.6674
31973SOL    HW297927  10.262   8.709   3.344  0.8889 -0.2926  0.3272
31974SOL     OW97928   2.480  10.728   4.588 -0.0287 -0.3416 -0.2944
31974SOL    HW197929   2.479  10.694   4.498  3.0571  1.6855 -1.2410
31974SOL    HW297930   2.407  10.790   4.591 -0.4745 -0.7917 -1.1909
31975SOL     OW97931   6.058   7.723   7.025  0.4548  0.1692  0.1355
31975SOL    HW197932   6.104   7.646   6.992 -0.0201  1.2321 -3.3785
31975SOL    HW297933   6.001   7.688   7.094  2.2916 -2.0862  0.6584
31976SOL     OW97934   0.111   1.953   7.691  0.1892  0.0501 -1.1324
31976SOL    HW197935   0.062   2.029   7.721 -1.5346 -0.8013 -1.6598
31976SOL    HW297936   0.179   1.940   7.757  0.8940  2.3336 -1.3077
31977SOL     OW97937   8.303   5.832   6.896 -0.0012 -0.4948 -0.2274
31977SOL    HW197938   8.312   5.746   6.854  2.4258 -0.0769 -0.7527
31977SOL    HW297939   8.325   5.894   6.826  4.1193  0.2348  1.4183
31978SOL     OW97940   3.835   5.251   4.038 -0.0378  0.3591  0.1532
31978SOL    HW197941   3.850   5.345   4.039 -0.4608  0.4424 -0.4510
31978SOL    HW297942   3.844   5.226   3.946 -0.7015 -0.0531  0.1902
31979SOL     OW97943  11.060   3.207   1.475 -0.5346 -0.1251  0.7740
31979SOL    HW197944  11.039   3.173   1.388  0.7008 -0.6482  0.6588
31979SOL    HW297945  11.013   3.291   1.480  1.1507  1.0481 -1.3095
31980SOL     OW97946   1.002   8.370   7.971 -0.5869  0.0589  0.0480
31980SOL    HW197947   1.090   8.338   7.948  0.0472 -0.3442  2.6920
31980SOL    HW297948   0.952   8.363   7.889  1.0803 -2.3694 -0.8870
31981SOL     OW97949  10.077   9.195   5.017 -0.0516  0.3515  0.1511
31981SOL    HW197950  10.038   9.279   5.041 -0.2439  0.1722  0.4791
31981SOL    HW297951  10.022   9.162   4.946 -0.4486  0.1377  0.5568
31982SOL     OW97952   9.725   0.772   8.162 -0.0619  0.2267 -0.2350
31982SOL    HW197953   9.642   0.795   8.205 -0.4837 -1.2847 -0.1859
31982SOL    HW297954   9.733   0.834   8.089 -3.0286 -1.7178 -2.4191
31983SOL     OW97955   8.279   4.019   9.919 -0.5377  0.4367  0.1380
31983SOL    HW197956   8.286   4.025  10.014 -0.1619  1.4768  0.0657
31983SOL    HW297957   8.332   4.092   9.887  0.1146 -0.4518 -0.9003
31984SOL     OW97958   9.512   7.633   6.101 -0.3504 -0.0569  0.2584
31984SOL    HW197959   9.439   7.676   6.147 -0.6691  1.3540 -1.4632
31984SOL    HW297960   9.587   7.690   6.117 -0.4820  0.4916 -0.9792
31985SOL     OW97961   6.454   9.630   3.592  0.0539 -0.3762  0.2120
31985SOL    HW197962   6.436   9.690   3.520 -1.0587 -0.5366  0.3352
31985SOL    HW297963   6.390   9.654   3.660  3.9690  3.0218  3.2484
31986SOL     OW97964   8.926   6.154   5.055 -0.5901 -0.8208 -0.0027
31986SOL    HW197965   8.935   6.236   5.005 -0.8204 -0.0903  1.1215
31986SOL    HW297966   8.979   6.168   5.134 -1.1588 -1.5080  0.5151
31987SOL     OW97967   3.063   7.647   0.015 -0.0404  0.0842  0.4142
31987SOL    HW197968   3.141   7.595  -0.003  0.5319  0.7387  0.9264
31987SOL    HW297969   3.065   7.661   0.110  0.2695  1.6899  0.2068
31988SOL     OW97970   7.540   4.321   3.173  0.1457 -0.0106 -0.1556
31988SOL    HW197971   7.464   4.380   3.174 -0.3409 -0.4332 -3.1160
31988SOL    HW297972   7.612   4.377   3.146  0.9101  0.2806  2.1953
31989SOL     OW97973  10.332   6.649   4.327 -0.0658 -0.0500  0.2719
31989SOL    HW197974  10.308   6.627   4.416 -2.1228 -0.2307 -0.2851
31989SOL    HW297975  10.331   6.745   4.324 -4.4527  0.0785 -0.5418
31990SOL     OW97976   0.801   3.153   7.491  0.1073 -0.7280 -0.0832
31990SOL    HW197977   0.772   3.133   7.401 -0.0830 -0.1681 -0.1541
31990SOL    HW297978   0.896   3.147   7.487  0.0351 -2.8527  0.2141
31991SOL     OW97979   1.822   0.171   5.023 -0.2724 -0.3761  0.0741
31991SOL    HW197980   1.865   0.247   5.062  0.3361 -0.2825 -0.7657
31991SOL    HW297981   1.888   0.131   4.967  0.0814 -2.7011  1.9828
31992SOL     OW97982  10.738  10.892   4.260 -0.0868  0.1003  0.3986
31992SOL    HW197983  10.733  10.827   4.190  1.7591  0.8840 -0.5147
31992SOL    HW297984  10.672  10.958   4.235 -0.3494 -0.2711  0.0952
31993SOL     OW97985   5.521   2.959   4.181  0.3784 -0.2160  0.3046
31993SOL    HW197986   5.611   2.972   4.152 -0.2519 -0.1434 -1.7792
31993SOL    HW297987   5.516   2.866   4.203  0.8934 -0.2575  0.2599
31994SOL     OW97988  10.410   6.519   4.711  0.0244 -0.2756  0.3451
31994SOL    HW197989  10.374   6.457   4.647  0.4789  0.2072 -0.4048
31994SOL    HW297990  10.353   6.596   4.704 -2.7968 -1.7639  3.8258
31995SOL     OW97991   3.673   9.912   2.582 -0.2304  0.4008 -0.7532
31995SOL    HW197992   3.700   9.995   2.622  1.9870 -0.7154  0.2171
31995SOL    HW297993   3.743   9.889   2.521 -1.5521 -0.0473 -2.1845
31996SOL     OW97994   7.363   3.863   4.889  0.1291  0.5905  0.3853
31996SOL    HW197995   7.324   3.950   4.884  1.0745  1.0680  0.9909
31996SOL    HW297996   7.289   3.803   4.893 -0.6509  1.5567  3.5599
31997SOL     OW97997   6.535   8.281   4.819  0.4168 -0.4128  0.1134
31997SOL    HW197998   6.474   8.218   4.781  0.4923  0.1889 -1.0288
31997SOL    HW297999   6.621   8.254   4.786  0.4137  0.4665 -0.6506
31998SOL     OW98000   3.628  10.181   6.106  0.2172  0.1004  0.3690
31998SOL    HW198001   3.603  10.228   6.026 -0.1219  0.8796  0.9180
31998SOL    HW298002   3.556  10.195   6.166  0.6754 -0.0862  0.9783
31999SOL     OW98003   0.012   4.225   0.754  0.6151  0.0906  0.1356
31999SOL    HW198004  -0.006   4.149   0.699  0.0634  0.4980 -0.2629
31999SOL    HW298005   0.107   4.227   0.762  0.5800 -1.6039  1.5406
32000SOL     OW98006   9.046   5.776   4.234  0.1641  0.1556  0.0059
32000SOL    HW198007   8.969   5.737   4.192  1.4434  0.5108 -2.9542
32000SOL    HW298008   9.033   5.870   4.222  1.1236  0.2064 -0.7396
32001SOL     OW98009   2.645   1.328   1.327  0.1659  0.0659 -0.5809
32001SOL    HW198010   2.679   1.286   1.248 -0.4435  0.7681 -1.2320
32001SOL    HW298011   2.582   1.264   1.362  0.3507 -0.2016 -0.7322
32002SOL     OW98012   8.935   1.700   5.029 -0.1555  0.0635  0.2261
32002SOL    HW198013   8.999   1.707   4.959 -1.3020  0.1196 -0.8585
32002SOL    HW298014   8.987   1.693   5.109  1.2283 -1.8705 -0.7626
32003SOL     OW98015   0.151   8.761   0.031 -0.6241 -0.7060  0.1669
32003SOL    HW198016   0.120   8.671   0.043  0.6912 -0.8130  4.0932
32003SOL    HW298017   0.110   8.810   0.103 -1.0895  1.8749 -1.6930
32004SOL     OW98018   8.802   4.868   0.782  0.3496  0.1517  0.0916
32004SOL    HW198019   8.713   4.840   0.804  0.2708  1.2657  1.2907
32004SOL    HW298020   8.837   4.902   0.864  1.3652  1.0846 -0.7096
32005SOL     OW98021   0.320   9.276   2.616 -0.6994  0.2063 -0.3485
32005SOL    HW198022   0.249   9.267   2.680 -1.2433  2.2229 -0.6134
32005SOL    HW298023   0.276   9.286   2.532 -0.0270 -0.5659 -0.8138
32006SOL     OW98024   3.281   7.052   6.348 -0.2809  0.0885 -0.0126
32006SOL    HW198025   3.232   7.013   6.420  1.8625 -0.0451  1.4772
32006SOL    HW298026   3.316   6.976   6.300 -0.1764  0.1870 -0.0921
32007SOL     OW98027  10.131   3.326   5.672  0.1364 -0.3238  0.3778
32007SOL    HW198028  10.190   3.254   5.654 -0.7354 -0.8034 -0.6873
32007SOL    HW298029  10.075   3.294   5.744  1.3712  0.2777  1.6581
32008SOL     OW98030   9.415   0.930   1.899 -0.2828 -0.0295 -0.3125
32008SOL    HW198031   9.382   0.996   1.838  0.0899  0.2122 -0.2551
32008SOL    HW298032   9.358   0.936   1.975  0.9193  1.5643  0.5013
32009SOL     OW98033  10.235   1.447   8.787  0.1556 -0.2893  0.1611
32009SOL    HW198034  10.236   1.531   8.833 -2.0024 -0.3851  0.4530
32009SOL    HW298035  10.240   1.382   8.856  3.8474 -0.5326 -0.1229
32010SOL     OW98036   3.602   3.903   5.314  0.3708  0.1420  0.0552
32010SOL    HW198037   3.602   3.876   5.406 -0.0306  2.0356  0.6579
32010SOL    HW298038   3.537   3.974   5.310  0.9741  0.6403 -1.5103
32011SOL     OW98039  10.058  10.940   8.156  0.3926 -0.7419 -0.0751
32011SOL    HW198040  10.044  10.850   8.185  0.3824 -0.3512  1.1864
32011SOL    HW298041  10.016  10.944   8.070  0.4456 -1.9527 -0.1707
32012SOL     OW98042   0.170   6.836   5.879  0.3033  0.5496  0.3408
32012SOL    HW198043   0.182   6.928   5.902  1.3319  0.2375  1.1359
32012SOL    HW298044   0.130   6.797   5.956 -0.6913  0.4328 -0.2180
32013SOL     OW98045   1.522   1.443   8.374 -0.1327 -0.5044  0.0928
32013SOL    HW198046   1.458   1.374   8.394 -1.7101  0.5625 -1.0649
32013SOL    HW298047   1.571   1.408   8.299 -2.0458  0.2157 -1.5930
32014SOL     OW98048   3.933   8.260   5.321  0.0817 -0.2373 -0.2447
32014SOL    HW198049   3.896   8.346   5.300 -1.1711 -0.6029  0.4090
32014SOL    HW298050   3.921   8.251   5.416  0.8008 -0.8708 -0.2012
32015SOL     OW98051   8.188   6.044   9.140 -0.7650  0.1283  0.0995
32015SOL    HW198052   8.204   6.123   9.088 -2.6865  0.7952  0.4277
32015SOL    HW298053   8.276   6.010   9.160  0.0904  1.7894 -0.6231
32016SOL     OW98054   9.340   5.592  11.007 -0.1079  0.2628  0.0795
32016SOL    HW198055   9.330   5.631  11.093 -1.5098  0.6668 -0.2375
32016SOL    HW298056   9.314   5.661  10.946 -4.7043 -1.5605 -0.4366
32017SOL     OW98057   3.839   0.309   6.361  0.4110  0.1218 -0.3968
32017SOL    HW198058   3.805   0.243   6.421 -1.1786  1.3128  0.0707
32017SOL    HW298059   3.931   0.319   6.385  0.4613 -1.3009  0.0691
32018SOL     OW98060   2.231   4.416   5.493 -0.6241 -0.4309 -0.1938
32018SOL    HW198061   2.301   4.353   5.475  0.1857  0.6311 -0.8924
32018SOL    HW298062   2.177   4.414   5.414  0.4325  1.0254 -1.0040
32019SOL     OW98063   8.925  10.225   8.080  0.0854  0.1188 -0.2759
32019SOL    HW198064   8.860  10.184   8.023 -2.4559 -1.0396  3.1679
32019SOL    HW298065   8.897  10.317   8.084 -0.5068 -0.0672  0.0509
32020SOL     OW98066   8.669   9.226   7.740  0.0425 -0.5438  0.6089
32020SOL    HW198067   8.695   9.252   7.651 -2.1296  0.5614  0.2209
32020SOL    HW298068   8.639   9.136   7.731  0.3042 -0.6029  0.3141
32021SOL     OW98069  10.695   2.787  10.936  0.1469  0.4136  0.4508
32021SOL    HW198070  10.730   2.739  10.862  0.6553  1.5513 -0.0755
32021SOL    HW298071  10.765   2.846  10.962 -0.1824  0.3452  1.5645
32022SOL     OW98072   4.097   4.722   7.685 -0.1357  0.0140  0.5287
32022SOL    HW198073   4.038   4.797   7.677 -0.4041 -0.2052  0.4497
32022SOL    HW298074   4.051   4.650   7.642  0.5331  0.0315 -0.2462
32023SOL     OW98075   5.600  10.540   1.269 -0.1386 -0.2416 -0.0163
32023SOL    HW198076   5.691  10.512   1.278 -0.2266 -0.2808  0.9025
32023SOL    HW298077   5.580  10.528   1.177  1.3648  1.5193 -0.6545
32024SOL     OW98078   2.044   9.892   3.228 -0.0615  0.1954 -0.1077
32024SOL    HW198079   2.010   9.902   3.139  2.1604  2.5587 -0.8315
32024SOL    HW298080   1.998   9.958   3.278  0.1037  0.2225  0.0095
32025SOL     OW98081  10.829   1.490   8.179  0.0084  0.0022 -1.0491
32025SOL    HW198082  10.743   1.485   8.137 -1.5584  0.0750  1.8382
32025SOL    HW298083  10.826   1.421   8.246  0.6115  2.4279  1.6712
32026SOL     OW98084  10.618   4.656   2.516  0.3669 -0.1541  0.5668
32026SOL    HW198085  10.708   4.679   2.492 -0.2111  1.3842 -0.2801
32026SOL    HW298086  10.574   4.740   2.529 -0.7908 -0.8904  1.6202
32027SOL     OW98087   2.295   9.924   5.156  0.3697  0.0955  0.4299
32027SOL    HW198088   2.334   9.841   5.129 -0.4448 -0.8759  2.0384
32027SOL    HW298089   2.331   9.988   5.096  1.5007 -1.3273 -0.4918
32028SOL     OW98090   1.275   1.241   4.228 -0.0823 -0.1049 -0.2378
32028SOL    HW198091   1.285   1.320   4.281 -0.0516 -0.0721 -0.2919
32028SOL    HW298092   1.187   1.249   4.190  0.5413  0.7458 -1.5992
32029SOL     OW98093   2.077   6.727   2.085 -0.4873 -0.4792  0.5473
32029SOL    HW198094   1.983   6.728   2.066 -0.4211  1.0957  0.2255
32029SOL    HW298095   2.094   6.808   2.132  0.8802 -0.2794 -0.2347
32030SOL     OW98096   7.803   7.384   9.109 -0.0570 -0.7688  0.0015
32030SOL    HW198097   7.835   7.452   9.169  1.0797 -0.2906 -1.1163
32030SOL    HW298098   7.866   7.313   9.117 -0.2194 -0.9366 -0.2066
32031SOL     OW98099  10.477   3.827   5.597  0.0054 -0.1889  0.4564
32031SOL    HW198100  10.524   3.903   5.631 -0.0632 -0.0806  0.3130
32031SOL    HW298101  10.527   3.751   5.627  0.3326 -0.0722  0.2072
32032SOL     OW98102   6.169   3.294   2.116 -0.2257 -0.1860 -0.0020
32032SOL    HW198103   6.154   3.384   2.088  0.6430  0.1625  0.6377
32032SOL    HW298104   6.086   3.267   2.156 -0.0375  0.8299  1.1218
32033SOL     OW98105   9.397   5.453   7.826 -0.3436 -0.3659 -0.6787
32033SOL    HW198106   9.491   5.435   7.833 -0.5446 -1.4282 -0.5272
32033SOL    HW298107   9.384   5.483   7.736  0.0718 -0.6393 -0.8307
32034SOL     OW98108   3.017   7.560   8.253  0.4253  0.3849 -0.5242
32034SOL    HW198109   2.931   7.563   8.295  1.9316 -1.0441  3.1515
32034SOL    HW298110   3.053   7.648   8.265 -0.1201  0.7051 -1.1819
32035SOL     OW98111   7.543   4.949   7.864 -0.7295 -0.3195 -0.2188
32035SOL    HW198112   7.547   4.867   7.914 -0.6086  1.1530  2.3531
32035SOL    HW298113   7.451   4.958   7.839 -0.6567 -1.4489 -0.9557
32036SOL     OW98114   1.429   5.927   6.020 -0.6163 -0.0682 -1.0782
32036SOL    HW198115   1.381   6.010   6.018  2.1397  1.8711  2.2602
32036SOL    HW298116   1.426   5.900   6.112  2.6157 -1.0182 -1.1420
32037SOL     OW98117   1.612   4.464   7.015  0.3510 -0.3368  0.2406
32037SOL    HW198118   1.648   4.443   7.101 -0.3002 -1.2577  0.3046
32037SOL    HW298119   1.669   4.533   6.981  1.7917 -1.3252  0.5843
32038SOL     OW98120   8.045   5.745   4.341  0.1423  0.0547  0.5400
32038SOL    HW198121   7.965   5.796   4.329 -0.5035 -0.8435  0.9048
32038SOL    HW298122   8.016   5.665   4.385  1.2559 -0.2507  0.7569
32039SOL     OW98123   3.795   3.326   5.880  0.3899 -0.0295  0.1571
32039SOL    HW198124   3.833   3.413   5.884  1.5878 -0.4661 -0.9311
32039SOL    HW298125   3.702   3.339   5.897  0.0148  1.8823 -2.6406
32040SOL     OW98126  10.737   5.888   3.741  0.4760 -0.0836  0.5973
32040SOL    HW198127  10.826   5.924   3.742  0.3619  0.1986  0.7716
32040SOL    HW298128  10.690   5.940   3.806  0.0300  0.1622  0.0813
32041SOL     OW98129   7.498   6.003   5.658 -0.0349  0.5347 -0.2058
32041SOL    HW198130   7.531   5.918   5.687  0.7027  0.4724 -1.1829
32041SOL    HW298131   7.463   6.043   5.737  0.4751 -0.2828  0.4540
32042SOL     OW98132   5.350   5.967   2.193 -0.4138 -0.4654  0.0940
32042SOL    HW198133   5.369   5.929   2.108 -0.9640 -1.7520  0.5297
32042SOL    HW298134   5.433   6.006   2.221  0.3181 -1.8023 -0.1298
32043SOL     OW98135   6.604   3.663   3.394  0.4708  0.2132 -0.0187
32043SOL    HW198136   6.529   3.696   3.442 -1.4133 -1.6793 -1.4497
32043SOL    HW298137   6.654   3.613   3.459  0.4559  1.3584  0.9103
32044SOL     OW98138   4.487   7.397   0.475 -0.1438  0.8896 -0.4837
32044SOL    HW198139   4.401   7.391   0.433 -0.5871  0.7059  0.4136
32044SOL    HW298140   4.486   7.327   0.541  1.3145 -0.1531 -1.5111
32045SOL     OW98141   5.279  10.751   4.141  0.5593  0.7237 -0.3303
32045SOL    HW198142   5.326  10.672   4.165  0.0219  0.4663 -0.0918
32045SOL    HW298143   5.250  10.735   4.050  1.4527  1.1402 -0.6953
32046SOL     OW98144   8.493   5.994   5.759 -0.4589 -0.0575  0.2215
32046SOL    HW198145   8.537   6.076   5.738 -0.6258  0.5039  1.9574
32046SOL    HW298146   8.563   5.934   5.785 -0.4287 -0.1633 -0.1006
32047SOL     OW98147   1.845  10.036   9.367 -0.0748 -0.3133  0.0936
32047SOL    HW198148   1.816  10.088   9.442  0.9534 -0.0611  0.3345
32047SOL    HW298149   1.846   9.946   9.399 -2.1730 -0.5695 -0.4193
32048SOL     OW98150   4.804   5.749   4.062 -0.2013  0.1822  0.0473
32048SOL    HW198151   4.880   5.690   4.060  0.0492  0.4756  0.7686
32048SOL    HW298152   4.841   5.836   4.069 -0.5629  0.4869 -1.4755
32049SOL     OW98153   8.267   4.971   4.058  0.3314  0.6564  0.2074
32049SOL    HW198154   8.315   4.890   4.037  1.0990  1.1679 -0.0387
32049SOL    HW298155   8.219   4.950   4.138  0.4660 -0.0673  0.1051
32050SOL     OW98156   6.930   8.759   3.660 -1.0116 -0.5396  0.0652
32050SOL    HW198157   6.920   8.678   3.710 -2.0205  0.2432  1.2272
32050SOL    HW298158   6.846   8.770   3.615 -0.6502 -0.4663 -0.5934
32051SOL     OW98159   2.079   9.275   7.797 -0.4869  0.1846  0.1333
32051SOL    HW198160   2.173   9.273   7.814 -0.0576  2.2464 -1.6428
32051SOL    HW298161   2.047   9.353   7.843 -0.8558  0.8891 -1.2688
32052SOL     OW98162   6.344   5.113   6.697  0.3819 -0.1215 -1.2217
32052SOL    HW198163   6.435   5.136   6.719  0.7145 -1.8300 -0.6036
32052SOL    HW298164   6.292   5.187   6.727  1.4163  0.1204  0.0538
32053SOL     OW98165   8.642   7.189   1.032 -0.0163  0.0738 -0.1392
32053SOL    HW198166   8.728   7.168   0.997 -0.0904 -0.4128 -0.0343
32053SOL    HW298167   8.587   7.113   1.010  0.0078 -0.3889  1.2636
32054SOL     OW98168   7.629   3.524   8.341 -0.5933  0.1399 -0.1651
32054SOL    HW198169   7.646   3.569   8.424 -0.5711  0.6912 -0.4648
32054SOL    HW298170   7.710   3.533   8.292 -0.8396  0.4136 -0.5213
32055SOL     OW98171   1.991   3.636   3.360  0.3802 -0.1557  0.2729
32055SOL    HW198172   1.906   3.673   3.336  1.0968  2.1882  1.0481
32055SOL    HW298173   1.980   3.605   3.450  0.0740 -0.8351  0.0053
32056SOL     OW98174   7.050  10.030   1.891  0.4974 -0.1963  0.2883
32056SOL    HW198175   6.975   9.978   1.919  0.3935 -0.3346 -0.2377
32056SOL    HW298176   7.111  10.025   1.964 -0.8816  1.7105  1.6586
32057SOL     OW98177   8.411   6.479   7.097 -0.1374  0.1738  0.4707
32057SOL    HW198178   8.371   6.566   7.088 -2.4326 -0.5234  2.5763
32057SOL    HW298179   8.359   6.423   7.040  1.2857  0.1115 -0.8200
32058SOL     OW98180   0.745   6.777   8.624  0.0401  0.7012  0.7122
32058SOL    HW198181   0.672   6.752   8.567 -0.1090  1.5423  0.5217
32058SOL    HW298182   0.763   6.698   8.675 -1.3253  0.6206  1.1090
32059SOL     OW98183   7.491  10.793   5.306  0.6158 -0.4606  0.3040
32059SOL    HW198184   7.498  10.743   5.225 -3.3554  1.1259 -1.2650
32059SOL    HW298185   7.462  10.730   5.372 -2.7432 -0.7689 -1.2543
32060SOL     OW98186   1.765   5.341   6.180  0.3487 -0.2073 -0.4681
32060SOL    HW198187   1.750   5.300   6.094 -0.4494  0.1199 -0.4933
32060SOL    HW298188   1.692   5.401   6.191  0.0922 -0.7046  0.7225
32061SOL     OW98189   1.704   7.131   6.341 -0.1876 -0.4661 -0.1824
32061SOL    HW198190   1.645   7.178   6.400 -0.4988  1.2446 -1.7619
32061SOL    HW298191   1.652   7.116   6.262  1.4529  1.1611 -1.6608
32062SOL     OW98192   7.789   5.798   7.280  0.3983 -0.6704 -0.3656
32062SOL    HW198193   7.743   5.830   7.358 -0.3164  0.1956 -1.1226
32062SOL    HW298194   7.873   5.843   7.282  0.4690 -0.8156  0.0159
32063SOL     OW98195   3.133   1.229   8.578  0.0785  0.1847 -0.4394
32063SOL    HW198196   3.198   1.299   8.578  0.7113 -0.3931 -0.7055
32063SOL    HW298197   3.135   1.194   8.667 -2.5017  2.5165  0.7116
32064SOL     OW98198   9.284   7.634   3.935  0.2836  0.1289 -0.0655
32064SOL    HW198199   9.365   7.683   3.946  0.8377 -1.0030  1.1997
32064SOL    HW298200   9.243   7.671   3.857  1.0647  2.0214  0.3920
32065SOL     OW98201   3.880   5.050  10.220  0.3410 -0.3038  0.4050
32065SOL    HW198202   3.943   5.002  10.167  0.7184  0.8101 -0.1967
32065SOL    HW298203   3.922   5.134  10.237 -0.7845  0.2816  0.3937
32066SOL     OW98204   2.002   9.243   0.961  0.1972  0.3297 -0.0612
32066SOL    HW198205   1.975   9.330   0.991 -2.2062 -0.3848  0.0617
32066SOL    HW298206   2.014   9.253   0.866  0.7643  0.9621  0.0692
32067SOL     OW98207   9.613   9.823   8.846  0.0337  0.3148  0.6511
32067SOL    HW198208   9.575   9.849   8.762 -0.3149 -1.5496  0.1839
32067SOL    HW298209   9.609   9.902   8.900 -1.2270  1.1226 -0.5526
32068SOL     OW98210  10.859  10.789  10.387  0.1178  0.1660 -0.0304
32068SOL    HW198211  10.913  10.799  10.309 -0.5104  1.3903 -0.3412
32068SOL    HW298212  10.788  10.731  10.360  0.6991 -0.6149  0.0824
32069SOL     OW98213  10.142  10.252   9.280 -0.1803  0.1638  0.1575
32069SOL    HW198214  10.150  10.341   9.247 -0.6988  0.2083  0.1432
32069SOL    HW298215  10.133  10.198   9.200  2.1203 -0.1483  0.0404
32070SOL     OW98216   7.692   2.730   4.842  0.2923  0.0918  0.5166
32070SOL    HW198217   7.721   2.819   4.861 -0.1825  0.4608 -0.4241
32070SOL    HW298218   7.763   2.674   4.874  1.6808  0.9279 -0.9798
32071SOL     OW98219   7.996   2.777   7.587  0.4083  0.6672 -0.0723
32071SOL    HW198220   7.961   2.695   7.552  2.6419 -0.3912 -0.0064
32071SOL    HW298221   7.984   2.841   7.517 -0.5535  0.0742 -0.4637
32072SOL     OW98222   5.430   8.124   6.370  0.1103 -0.2052  0.5823
32072SOL    HW198223   5.375   8.163   6.302 -0.3791 -0.5888  0.7591
32072SOL    HW298224   5.379   8.051   6.405  0.6725 -0.4837  0.8416
32073SOL     OW98225   8.709   7.541   6.803  0.4232 -0.0938  0.1566
32073SOL    HW198226   8.615   7.527   6.812  0.2244  0.0804 -1.4562
32073SOL    HW298227   8.727   7.527   6.710  1.5721  2.2696 -0.0389
32074SOL     OW98228   3.847   3.937   6.661 -0.1290 -0.2078 -0.0828
32074SOL    HW198229   3.806   3.852   6.649  1.6962 -1.2678  0.8085
32074SOL    HW298230   3.876   3.938   6.752  0.7503  0.9665 -0.3405
32075SOL     OW98231   8.324   3.468   7.026  0.4428  0.2759 -0.0215
32075SOL    HW198232   8.287   3.387   6.991 -0.0936  0.1957  0.7131
32075SOL    HW298233   8.295   3.536   6.964  0.0643  0.0446 -0.1040
32076SOL     OW98234  10.374   1.906   0.145  0.2278 -0.3814  0.8373
32076SOL    HW198235  10.294   1.957   0.157  1.3860  2.3789 -1.9183
32076SOL    HW298236  10.372   1.879   0.053  2.7928  0.5250  0.4317
32077SOL     OW98237   9.210   9.969   4.518  0.0126  0.0548 -0.2783
32077SOL    HW198238   9.146   9.932   4.579  1.0143  1.5658  1.8282
32077SOL    HW298239   9.206  10.063   4.534  0.8452  0.4267 -2.0805
32078SOL     OW98240  10.489   4.607   7.716 -0.1445 -0.2072  0.3727
32078SOL    HW198241  10.441   4.542   7.767  0.9006  0.9017  2.9405
32078SOL    HW298242  10.558   4.556   7.672 -2.0069 -1.4186 -1.3185
32079SOL     OW98243   0.954   3.133   1.145 -0.1192 -1.1246  0.5583
32079SOL    HW198244   0.893   3.187   1.095  0.5433 -0.4363  0.4659
32079SOL    HW298245   0.996   3.077   1.080  1.8101  0.7771  0.0264
32080SOL     OW98246  10.801   5.710   0.203 -0.4711 -0.8680 -0.0890
32080SOL    HW198247  10.770   5.709   0.112  1.8223  2.1324 -1.0842
32080SOL    HW298248  10.791   5.801   0.231  1.5710 -1.0846  1.6030
32081SOL     OW98249   4.927   2.494   8.155 -0.1880  0.2640 -0.1624
32081SOL    HW198250   4.958   2.420   8.208  0.0220  0.4863  0.0225
32081SOL    HW298251   4.898   2.453   8.073  1.0466  0.0922 -0.5355
32082SOL     OW98252   6.189   9.755   9.218  0.4189 -0.3837 -0.6708
32082SOL    HW198253   6.235   9.822   9.269  0.9116 -1.8322  0.8579
32082SOL    HW298254   6.199   9.675   9.269 -0.3638 -1.5903 -2.3399
32083SOL     OW98255   6.550   4.504   0.480  0.3866 -0.5850 -0.0160
32083SOL    HW198256   6.464   4.477   0.449  0.5659 -1.3183  0.0967
32083SOL    HW298257   6.610   4.475   0.411  0.4732  0.5973 -0.4520
32084SOL     OW98258   0.567   2.983   3.841 -0.3476 -0.0566  0.3792
32084SOL    HW198259   0.636   3.016   3.783 -1.7379 -0.3879 -1.5445
32084SOL    HW298260   0.610   2.914   3.892  0.8339 -0.0059 -0.4977
32085SOL     OW98261   8.177   4.140   1.799 -0.4486  0.0323 -0.6796
32085SOL    HW198262   8.211   4.177   1.881 -0.1837  0.1478 -0.8375
32085SOL    HW298263   8.141   4.215   1.752  1.0883  0.3075 -1.4914
32086SOL     OW98264   7.860   3.019   9.387  0.1022 -0.2421 -0.2609
32086SOL    HW198265   7.828   2.952   9.447 -0.8871  0.7140  0.3177
32086SOL    HW298266   7.877   2.971   9.305 -0.2995 -1.2401  0.2181
32087SOL     OW98267   8.908  10.080   6.928  0.2194  0.2388  0.5234
32087SOL    HW198268   8.927   9.987   6.930 -1.2415 -0.0842  0.2190
32087SOL    HW298269   8.878  10.100   7.017  1.0603  0.5573  0.7495
32088SOL     OW98270  10.450   7.117   3.852 -0.7197  0.3591  0.0225
32088SOL    HW198271  10.377   7.120   3.789  0.9969 -2.3101 -2.3507
32088SOL    HW298272  10.518   7.172   3.812  0.2228 -0.9737 -0.2402
32089SOL     OW98273   5.473   8.084   4.157  0.5106  0.3644 -0.4699
32089SOL    HW198274   5.559   8.049   4.180  0.1886  0.6006  1.2856
32089SOL    HW298275   5.447   8.135   4.234 -1.9535 -1.1170 -0.2227
32090SOL     OW98276   3.367   5.167   5.109  0.2039  0.3526  0.1358
32090SOL    HW198277   3.304   5.158   5.180  0.6126 -0.5427  0.3882
32090SOL    HW298278   3.350   5.093   5.052  1.1250  0.0172  0.2846
32091SOL     OW98279   6.928   7.540   8.967 -0.3745 -0.0013  0.2419
32091SOL    HW198280   6.941   7.619   9.020 -0.7211  0.4512 -0.3340
32091SOL    HW298281   6.931   7.468   9.030  0.5013  0.4207  0.7048
32092SOL     OW98282   0.786  10.482   6.950 -0.1746  0.2986 -0.0585
32092SOL    HW198283   0.802  10.388   6.946 -1.7899  0.0316 -1.4328
32092SOL    HW298284   0.713  10.491   7.012 -0.4592  0.5791 -0.4344
32093SOL     OW98285   4.211   5.324   8.001  0.1152  0.4281 -0.0733
32093SOL    HW198286   4.164   5.279   8.072 -1.4182  1.1937 -0.5683
32093SOL    HW298287   4.153   5.395   7.974  0.3981 -0.1401 -2.4447
32094SOL     OW98288  10.056   3.887   7.247 -0.4533 -0.0107  0.1998
32094SOL    HW198289   9.974   3.914   7.205  0.1440 -0.8962 -1.6311
32094SOL    HW298290  10.037   3.800   7.283 -0.1546 -0.4985 -0.7954
32095SOL     OW98291   9.056   8.173   7.911 -0.4065 -0.5304 -0.3307
32095SOL    HW198292   8.976   8.123   7.932 -0.9860  0.3005 -0.5092
32095SOL    HW298293   9.121   8.141   7.973 -1.3451 -0.0275  0.9621
32096SOL     OW98294  10.423   5.441   6.668  0.0907 -0.6761 -0.4887
32096SOL    HW198295  10.346   5.398   6.630  0.1535 -1.9117  0.7229
32096SOL    HW298296  10.420   5.530   6.632 -1.6989 -0.7963 -0.7589
32097SOL     OW98297   7.389   5.189   6.197 -0.3230  0.0992 -0.3280
32097SOL    HW198298   7.418   5.159   6.283  1.0640  1.9631 -0.0919
32097SOL    HW298299   7.325   5.123   6.169  0.4160 -1.4318  1.3824
32098SOL     OW98300   7.709   5.990   7.462 -0.2578  0.1470 -0.4053
32098SOL    HW198301   7.646   6.018   7.528  1.0183 -0.5619  1.1592
32098SOL    HW298302   7.762   6.067   7.445  0.4890 -0.1056  0.6860
32099SOL     OW98303   8.158   3.259   6.404 -0.0067  0.3102 -0.4584
32099SOL    HW198304   8.154   3.195   6.333  1.4319  0.6569 -0.8919
32099SOL    HW298305   8.073   3.302   6.402  0.1840  0.6982 -2.3614
32100SOL     OW98306   3.314   5.831   5.521  1.0670 -0.7751  0.1043
32100SOL    HW198307   3.254   5.782   5.578 -1.0850  0.3823 -1.0692
32100SOL    HW298308   3.317   5.919   5.558  0.4725 -0.2951 -0.9432
32101SOL     OW98309   9.333  11.083   4.205  0.0640  0.6330  0.3491
32101SOL    HW198310   9.326  11.170   4.165 -1.2450  1.2264  1.7703
32101SOL    HW298311   9.424  11.078   4.234  0.2637  1.3653 -0.1107
32102SOL     OW98312   7.443   4.281   9.152 -0.5263  0.2454  0.6334
32102SOL    HW198313   7.415   4.343   9.219 -0.6686  0.9704 -0.0791
32102SOL    HW298314   7.471   4.336   9.079 -1.0418 -0.5376 -0.1723
32103SOL     OW98315   4.735   7.407   6.461 -0.1092  0.8528  0.6161
32103SOL    HW198316   4.818   7.359   6.469  0.7121  1.8240 -1.3103
32103SOL    HW298317   4.678   7.367   6.526  0.4824 -2.7564 -0.8351
32104SOL     OW98318   8.677   6.811   3.299  0.3163 -0.1330 -0.2431
32104SOL    HW198319   8.605   6.871   3.321  0.4131 -0.2652  0.4752
32104SOL    HW298320   8.647   6.725   3.332  0.5697 -0.2959 -0.4354
32105SOL     OW98321   7.383  10.145   4.272 -0.0075 -0.0578  0.1271
32105SOL    HW198322   7.416  10.155   4.362 -0.1664  2.5209 -0.0155
32105SOL    HW298323   7.288  10.141   4.281  0.0420 -1.6800  0.1593
32106SOL     OW98324   9.277   3.397   2.581  0.1010  0.2147  0.1395
32106SOL    HW198325   9.331   3.474   2.600 -0.7466  0.7426  0.4546
32106SOL    HW298326   9.187   3.426   2.597 -0.2810 -0.6577 -0.3500
32107SOL     OW98327   7.411   3.370   7.658 -0.2246  0.5208  0.4756
32107SOL    HW198328   7.411   3.366   7.562 -0.4699 -0.1840  0.4965
32107SOL    HW298329   7.362   3.450   7.679 -1.1230  0.1107  0.0206
32108SOL     OW98330  10.761   9.546   9.033  0.2306  0.3174 -0.2101
32108SOL    HW198331  10.670   9.571   9.024  0.3270  0.1895 -1.9469
32108SOL    HW298332  10.761   9.451   9.021  0.6271  0.3714 -0.6812
32109SOL     OW98333   8.041   8.749   7.222 -0.0090  0.6280  0.1165
32109SOL    HW198334   8.003   8.837   7.230 -3.4601 -0.6785  0.0490
32109SOL    HW298335   8.029   8.710   7.309  0.7815 -0.0296 -0.0635
32110SOL     OW98336   8.557   2.988   1.544 -0.5100  0.1178 -0.3284
32110SOL    HW198337   8.517   2.999   1.630  1.3982  1.2259  0.4791
32110SOL    HW298338   8.520   3.058   1.490 -0.6482  0.3123  0.0176
32111SOL     OW98339   8.149  11.025   7.037  0.4821  0.5656 -0.2600
32111SOL    HW198340   8.144  11.111   7.079  0.1500  0.3474  0.1502
32111SOL    HW298341   8.061  11.011   7.001 -0.5363 -1.0555  2.5679
32112SOL     OW98342   5.638   7.110   3.936 -0.2813  0.4042  0.1360
32112SOL    HW198343   5.614   7.185   3.883  0.1515 -0.4773 -1.3742
32112SOL    HW298344   5.676   7.147   4.016  0.0030  1.7687 -0.6158
32113SOL     OW98345   1.746   3.624   7.305  0.0847 -0.2937 -0.3167
32113SOL    HW198346   1.658   3.625   7.268 -0.3655 -0.1920  0.7196
32113SOL    HW298347   1.743   3.690   7.374  0.8046 -0.7024  0.1079
32114SOL     OW98348   9.029   4.657   2.973  0.5599 -0.0571 -0.3812
32114SOL    HW198349   9.112   4.614   2.991 -0.6178 -1.9567  0.9056
32114SOL    HW298350   9.053   4.742   2.936  3.0488 -0.1520  0.8279
32115SOL     OW98351  11.008   7.486   3.502 -0.3070  0.1617 -0.0733
32115SOL    HW198352  10.932   7.465   3.556  0.5405  0.0490  1.1148
32115SOL    HW298353  11.040   7.401   3.472 -1.0007  0.2477 -1.0926
32116SOL     OW98354   6.985   4.015   6.075 -0.4035 -0.1669 -0.3537
32116SOL    HW198355   7.009   4.108   6.082 -0.8149 -0.1872  2.6470
32116SOL    HW298356   7.069   3.968   6.080 -0.3757  0.0037  2.2221
32117SOL     OW98357   9.626   0.938   6.519  0.6015 -0.3695  0.2013
32117SOL    HW198358   9.587   0.855   6.492  0.4030  0.5323 -2.6034
32117SOL    HW298359   9.710   0.913   6.558 -0.5681 -1.9978  1.8371
32118SOL     OW98360   5.526   2.110   4.478  0.2877 -0.2230  0.2220
32118SOL    HW198361   5.443   2.097   4.523  0.0359  0.7535  0.0559
32118SOL    HW298362   5.588   2.133   4.548  0.0580  0.5947  0.1600
32119SOL     OW98363   8.901   5.663   6.110  0.2979 -0.3440  0.0618
32119SOL    HW198364   8.951   5.702   6.038  0.0862  2.5942  1.3307
32119SOL    HW298365   8.949   5.690   6.189 -2.0996  0.8335  1.2137
32120SOL     OW98366   2.831  10.048  11.080 -0.0315  0.0249  0.3328
32120SOL    HW198367   2.746  10.058  11.037  0.5888  0.8219 -0.7381
32120SOL    HW298368   2.833  10.119  11.145 -0.3927 -0.3235  0.7322
32121SOL     OW98369   1.296   1.780   2.975  0.2010  0.3502  0.1269
32121SOL    HW198370   1.261   1.746   2.894  0.3308  2.7479 -1.0345
32121SOL    HW298371   1.381   1.818   2.951  0.8756 -0.0937  1.6683
32122SOL     OW98372   4.617   9.928   1.089  0.4282  0.2972  0.4057
32122SOL    HW198373   4.561   9.854   1.113 -0.8967  0.9056 -0.6667
32122SOL    HW298374   4.558   9.991   1.048  1.5659  1.8701  1.0625
32123SOL     OW98375   2.188   4.857   7.044 -0.7060  0.1452 -0.0123
32123SOL    HW198376   2.255   4.925   7.049 -0.4879 -0.1050  0.5947
32123SOL    HW298377   2.186   4.819   7.132 -2.0161  0.5000  0.1324
32124SOL     OW98378   5.925   0.563   7.431  0.2735  0.0252 -0.2448
32124SOL    HW198379   5.976   0.536   7.507  0.6588  0.7294 -0.2430
32124SOL    HW298380   5.980   0.628   7.387  0.1005 -0.4490 -1.1882
32125SOL     OW98381   8.658   0.377   8.292 -0.6377  0.2209  0.0205
32125SOL    HW198382   8.564   0.388   8.300 -0.8306  1.4585 -2.5663
32125SOL    HW298383   8.691   0.466   8.273  1.0053 -0.2191  0.6365
32126SOL     OW98384   8.545   5.738   2.377 -0.3003  0.2907  0.3149
32126SOL    HW198385   8.641   5.741   2.371 -0.2460 -1.0413  0.2230
32126SOL    HW298386   8.526   5.774   2.464  0.2331  1.0688  0.1258
32127SOL     OW98387   8.988   1.750   4.093  0.1118 -0.1470  0.0342
32127SOL    HW198388   8.992   1.841   4.121 -2.0286  0.5222 -1.5784
32127SOL    HW298389   9.051   1.744   4.021  0.3541  0.0026  0.2306
32128SOL     OW98390  10.900   3.740   4.771 -0.4487  0.0843  0.2425
32128SOL    HW198391  10.817   3.757   4.724 -0.5966 -1.9974 -0.3421
32128SOL    HW298392  10.874   3.728   4.862 -1.0020 -1.7111 -0.1148
32129SOL     OW98393   7.777   5.972   5.482  0.2344  0.3339  0.2353
32129SOL    HW198394   7.770   6.001   5.391  0.7995  2.0645  0.6929
32129SOL    HW298395   7.704   6.017   5.526  0.1837 -0.2026  0.7048
32130SOL     OW98396   8.123   2.340   2.965 -0.3783 -0.1610 -0.2425
32130SOL    HW198397   8.119   2.253   3.003  1.3208 -0.5780 -0.8971
32130SOL    HW298398   8.205   2.340   2.914  0.2235  2.1487  0.5809
32131SOL     OW98399  11.057   6.738   5.667  0.8748  0.0016 -0.6501
32131SOL    HW198400  10.970   6.756   5.701  0.2343 -0.0348 -2.1950
32131SOL    HW298401  11.114   6.741   5.744 -0.8597 -2.9367  0.9390
32132SOL     OW98402   8.191   0.124   8.255 -0.5499  0.5667  0.5137
32132SOL    HW198403   8.193   0.134   8.160  3.0551  1.9229  0.5618
32132SOL    HW298404   8.109   0.078   8.273 -1.3459  0.2211 -3.2139
32133SOL     OW98405   3.709   1.024   0.166 -0.9197  0.1421 -0.0776
32133SOL    HW198406   3.745   1.016   0.078  2.3274  0.8415  1.0269
32133SOL    HW298407   3.698   0.934   0.196  0.9001 -0.1649 -0.2030
32134SOL     OW98408  10.752  10.706   1.707  0.3966  0.6880 -0.6655
32134SOL    HW198409  10.766  10.660   1.624  1.7490 -0.3196  0.0909
32134SOL    HW298410  10.685  10.655   1.752  1.6697 -0.4427  0.0361
32135SOL     OW98411   1.230   2.527   4.996 -0.7184 -0.0596  0.0159
32135SOL    HW198412   1.314   2.511   5.040 -0.2434  0.0812 -0.8216
32135SOL    HW298413   1.164   2.495   5.058 -0.1151  0.8940  1.2060
32136SOL     OW98414   8.346   7.102   7.968 -0.7562  0.2028  0.3025
32136SOL    HW198415   8.323   7.163   8.038 -0.4974  0.8911 -0.1992
32136SOL    HW298416   8.264   7.084   7.923 -0.9459 -0.3430  0.8537
32137SOL     OW98417  11.070   1.149   2.378  0.2323 -0.2760  0.0140
32137SOL    HW198418  11.164   1.159   2.397  0.4957 -1.7277 -0.3927
32137SOL    HW298419  11.066   1.147   2.282 -0.5160  2.1417 -0.0635
32138SOL     OW98420   1.371   6.103   3.244 -0.4178  0.8715 -0.3152
32138SOL    HW198421   1.389   6.197   3.245 -1.4138  1.0888 -0.6311
32138SOL    HW298422   1.287   6.094   3.289  1.2326 -0.2900  2.7901
32139SOL     OW98423   8.646   0.057   3.925 -0.2180  0.3129  0.1595
32139SOL    HW198424   8.613   0.142   3.895  0.5131  1.0315  1.3256
32139SOL    HW298425   8.701   0.078   4.001  0.2021 -1.1786  0.2944
32140SOL     OW98426   4.698   8.561   6.943  0.1303 -0.1822  0.5296
32140SOL    HW198427   4.728   8.643   6.981 -0.4276 -0.0118  0.6024
32140SOL    HW298428   4.685   8.580   6.850 -1.1087  0.1303  0.7520
32141SOL     OW98429   8.400   0.415   5.268 -0.0953 -0.2137 -0.0401
32141SOL    HW198430   8.353   0.407   5.185 -1.0088 -0.3888  0.4768
32141SOL    HW298431   8.472   0.475   5.250 -0.6185  0.1885 -0.8134
32142SOL     OW98432   3.344   5.655   6.047  0.1935 -0.1146 -0.5357
32142SOL    HW198433   3.419   5.659   5.987  1.0134 -0.5771  0.4430
32142SOL    HW298434   3.356   5.573   6.095 -0.3050  0.3851  0.4618
32143SOL     OW98435  11.007   0.970   6.295  0.1981  0.2334  0.1146
32143SOL    HW198436  11.023   1.034   6.364  0.6995  0.3397 -0.0900
32143SOL    HW298437  11.029   1.016   6.214  0.7488 -0.2497 -0.0212
32144SOL     OW98438   9.508   5.555   6.843  0.4165 -0.3205 -0.4294
32144SOL    HW198439   9.603   5.553   6.854  0.1535 -0.3763  2.8204
32144SOL    HW298440   9.478   5.474   6.884 -1.0985 -0.0593 -0.9595
32145SOL     OW98441   4.957   5.479   1.052  0.2528 -0.0013 -0.0594
32145SOL    HW198442   4.863   5.475   1.072  0.0197  2.2116 -0.4159
32145SOL    HW298443   4.993   5.540   1.116  1.1944  0.1423 -0.6989
32146SOL     OW98444   8.182  10.952   8.463  0.0689 -0.3157  0.2351
32146SOL    HW198445   8.098  10.925   8.426 -0.7905  3.0183 -0.6083
32146SOL    HW298446   8.160  10.986   8.549  0.7612 -0.4908  0.4848
32147SOL     OW98447   4.477   4.412   8.703  0.5507 -0.1207 -0.1767
32147SOL    HW198448   4.392   4.374   8.723 -0.5629  2.9296  1.5831
32147SOL    HW298449   4.536   4.376   8.769  0.1600 -0.7947 -0.1957
32148SOL     OW98450  10.295   8.736   2.804 -0.0910  0.2778  0.0660
32148SOL    HW198451  10.359   8.806   2.794  0.0041  0.3276  0.9399
32148SOL    HW298452  10.217   8.767   2.758 -0.0953  1.0180  0.5544
32149SOL     OW98453   4.629  10.384   6.051  0.3535  0.8050 -0.7211
32149SOL    HW198454   4.699  10.387   5.986  1.7112 -1.2385  0.5048
32149SOL    HW298455   4.563  10.326   6.012  0.2257  1.1986 -1.0946
32150SOL     OW98456   3.889   1.166   5.800 -0.3130 -0.6495  0.1260
32150SOL    HW198457   3.947   1.208   5.737  1.5681  0.1960  2.2924
32150SOL    HW298458   3.885   1.074   5.771  3.0927 -1.0369  0.4497
32151SOL     OW98459   8.510   3.753  10.659  0.4032 -0.1098 -0.6620
32151SOL    HW198460   8.455   3.705  10.721  2.3658 -1.5181  0.0699
32151SOL    HW298461   8.486   3.845  10.673 -0.4993 -0.5410  0.8818
32152SOL     OW98462  10.669   4.767  10.536  0.4537  0.2863  0.3155
32152SOL    HW198463  10.664   4.853  10.493  0.4666 -0.1217 -0.5200
32152SOL    HW298464  10.756   4.734  10.514 -0.1821 -0.6828 -0.8278
32153SOL     OW98465   6.401   4.740  10.615  0.3193 -0.2248  0.0843
32153SOL    HW198466   6.421   4.692  10.535  1.0884 -0.1934  0.2521
32153SOL    HW298467   6.468   4.808  10.620 -0.1720  0.2477  0.3660
32154SOL     OW98468   5.280   5.679   7.252 -0.5781  0.4028 -0.3205
32154SOL    HW198469   5.307   5.602   7.200  1.9030 -0.3716  1.8857
32154SOL    HW298470   5.185   5.671   7.258 -0.5029 -1.9990 -0.9515
32155SOL     OW98471   9.739   4.196   9.045 -0.6180 -0.0273  0.0889
32155SOL    HW198472   9.733   4.103   9.065 -2.3697 -0.9617 -3.8828
32155SOL    HW298473   9.698   4.239   9.120 -0.4900 -2.4524  1.6734
32156SOL     OW98474   9.655   7.391   4.533  0.2076  0.0270 -0.1783
32156SOL    HW198475   9.620   7.477   4.557  3.0159  0.8830  1.3468
32156SOL    HW298476   9.644   7.385   4.439 -0.3441  1.9431 -0.2686
32157SOL     OW98477   6.185   7.269   6.744  0.1224  0.1129  0.0961
32157SOL    HW198478   6.168   7.314   6.661  0.8947  0.1255 -0.0698
32157SOL    HW298479   6.268   7.223   6.730  0.0485 -0.2283  0.7230
32158SOL     OW98480   8.146   3.035   6.225 -0.6886 -0.1865 -0.0036
32158SOL    HW198481   8.173   3.023   6.134 -0.7613 -1.2568  0.1076
32158SOL    HW298482   8.228   3.046   6.273 -0.5777 -0.8927 -0.0235
32159SOL     OW98483   5.862   6.117   9.499  0.2277 -0.2683 -0.0203
32159SOL    HW198484   5.786   6.171   9.517  0.6846  0.4429 -0.1736
32159SOL    HW298485   5.898   6.153   9.417  0.6673 -0.6570 -0.0029
32160SOL     OW98486   8.494   1.464   5.137  0.1843 -0.4125 -0.4869
32160SOL    HW198487   8.545   1.546   5.132  0.1853 -0.4085 -0.4063
32160SOL    HW298488   8.521   1.415   5.059 -0.2813 -0.0653 -0.8753
32161SOL     OW98489  10.948   3.898   0.053  0.2454 -0.1940 -0.0323
32161SOL    HW198490  10.893   3.860  -0.016 -0.4077  1.0056 -0.1978
32161SOL    HW298491  11.033   3.856   0.042 -0.2255 -0.9834 -0.7300
32162SOL     OW98492   9.242   8.066   6.386  1.0912  0.0381  0.0985
32162SOL    HW198493   9.273   8.127   6.320  0.9357  0.3231  0.2848
32162SOL    HW298494   9.147   8.065   6.375  1.1200 -0.4260 -0.1224
32163SOL     OW98495  10.405   3.947   3.064  0.7597 -0.0485  0.6866
32163SOL    HW198496  10.411   4.038   3.036  1.0440 -0.6876 -1.6066
32163SOL    HW298497  10.489   3.909   3.039  0.2148 -1.1886  0.5346
32164SOL     OW98498   3.338   4.406   9.226  0.2630 -0.0200 -0.1775
32164SOL    HW198499   3.413   4.374   9.275  0.6426  0.1918 -0.6089
32164SOL    HW298500   3.289   4.327   9.203  0.2308 -0.1387  0.3003
32165SOL     OW98501   8.356   2.600   5.720 -0.7155  0.2098  0.0626
32165SOL    HW198502   8.413   2.618   5.795 -1.5931  3.0155  0.1605
32165SOL    HW298503   8.299   2.529   5.750  0.1856 -0.0204  1.3409
32166SOL     OW98504   9.047  10.671   2.779 -0.2133 -0.0575 -0.0292
32166SOL    HW198505   8.964  10.661   2.732 -1.3001  0.3719  1.6913
32166SOL    HW298506   9.054  10.592   2.833  0.8388 -0.3988 -0.6607
32167SOL     OW98507   0.627   3.663   8.004  0.6390 -0.3502 -0.6415
32167SOL    HW198508   0.639   3.570   7.984  0.5044 -0.7512  1.0423
32167SOL    HW298509   0.535   3.671   8.029  0.8214  0.1035 -0.0978
32168SOL     OW98510   0.563   3.474   5.775 -0.4865  0.5947 -0.4467
32168SOL    HW198511   0.549   3.407   5.709 -1.1720  0.7687 -0.4822
32168SOL    HW298512   0.518   3.442   5.853  0.8248  0.0992  0.1457
32169SOL     OW98513   2.633   6.055   7.364  0.3193 -0.1508 -0.1782
32169SOL    HW198514   2.717   6.037   7.322  0.9225 -0.4482  1.1408
32169SOL    HW298515   2.591   5.970   7.370 -0.6254  0.1296 -1.8782
32170SOL     OW98516  10.525   2.495   5.593  0.4142  0.2624 -0.3605
32170SOL    HW198517  10.530   2.432   5.520  0.6500  1.8302 -1.7642
32170SOL    HW298518  10.448   2.468   5.642  0.6447 -1.2673 -0.7645
32171SOL     OW98519   4.978   2.139  10.078  0.0491  0.6988  0.1285
32171SOL    HW198520   5.064   2.181  10.074 -0.6109  2.0587 -0.7326
32171SOL    HW298521   4.943   2.149   9.989 -1.2379  0.7150  0.6160
32172SOL     OW98522   8.421   5.126   0.258  0.0762  0.1088  0.7215
32172SOL    HW198523   8.360   5.123   0.185  1.0953  1.8026 -0.2739
32172SOL    HW298524   8.449   5.036   0.270 -1.0260 -0.3751 -0.1636
32173SOL     OW98525   0.052   4.222   6.209  0.5606  0.5895 -0.2817
32173SOL    HW198526  -0.033   4.260   6.186  0.1299 -0.2275 -0.0760
32173SOL    HW298527   0.116   4.279   6.167 -0.1077  0.9290 -0.8616
32174SOL     OW98528   9.158   2.613   1.896 -0.3909  0.3924 -0.4350
32174SOL    HW198529   9.085   2.593   1.838 -1.3287  2.0633  0.1169
32174SOL    HW298530   9.122   2.607   1.984  0.3841  0.3203 -0.1154
32175SOL     OW98531   7.934   2.358   4.498 -0.0164 -0.0769 -0.5279
32175SOL    HW198532   7.872   2.384   4.565 -0.1761 -0.8899 -0.3587
32175SOL    HW298533   8.004   2.314   4.546  0.4416  0.3700 -0.7741
32176SOL     OW98534   5.847   7.125   4.604  0.0762 -0.5242 -0.4908
32176SOL    HW198535   5.828   7.214   4.572  1.6946 -0.1759 -0.5884
32176SOL    HW298536   5.763   7.080   4.602 -0.6844  0.8598 -0.9328
32177SOL     OW98537   6.272  10.598   0.921  0.2415  0.0993  0.1647
32177SOL    HW198538   6.312  10.591   0.835  0.1490  2.8541 -0.2006
32177SOL    HW298539   6.180  10.620   0.904  0.5271  2.0784  0.8743
32178SOL     OW98540   7.124   3.709   3.799 -0.6381  0.4387  0.5497
32178SOL    HW198541   7.184   3.691   3.872 -1.3640  0.2512  1.1217
32178SOL    HW298542   7.079   3.789   3.825 -0.8183  0.4361  0.2453
32179SOL     OW98543   8.148   0.552   6.790 -0.1393  0.2510  0.1959
32179SOL    HW198544   8.132   0.578   6.881 -2.2078 -1.6185  0.4568
32179SOL    HW298545   8.063   0.520   6.759  0.6609  0.2415 -2.2209
32180SOL     OW98546   4.719   4.286   2.151 -0.5611  0.6188  0.1871
32180SOL    HW198547   4.737   4.192   2.151  1.9116  0.9942 -1.4913
32180SOL    HW298548   4.777   4.322   2.218  1.8800  1.3308 -2.1106
32181SOL     OW98549   9.415   9.362   0.697 -0.1733  0.3647 -0.0636
32181SOL    HW198550   9.336   9.406   0.728  0.5471  1.6376  0.0279
32181SOL    HW298551   9.404   9.271   0.725 -1.6003  0.5054 -0.0627
32182SOL     OW98552   2.016   4.834   5.688  0.2340  0.0660  0.1051
32182SOL    HW198553   2.030   4.761   5.628  2.0994 -0.0106  0.5821
32182SOL    HW298554   2.095   4.837   5.741  0.3632  2.6625 -0.1276
32183SOL     OW98555   3.204   3.609  10.364  0.2321  0.3190  0.5400
32183SOL    HW198556   3.240   3.552  10.431  0.2365  0.1278  0.3747
32183SOL    HW298557   3.277   3.624  10.304 -0.3852 -1.4252 -0.7207
32184SOL     OW98558  10.627   5.431   7.207 -0.1446  0.1231  0.3935
32184SOL    HW198559  10.682   5.439   7.129 -0.7432  0.5191  0.0074
32184SOL    HW298560  10.581   5.515   7.213 -0.8839 -0.2895  0.5773
32185SOL     OW98561  10.011  10.836   5.624  0.2731  0.2962  0.5505
32185SOL    HW198562  10.084  10.826   5.563 -0.2605 -0.3428 -0.0023
32185SOL    HW298563  10.028  10.919   5.668  0.7905  0.6691 -0.3121
32186SOL     OW98564   9.969   6.283   2.946  0.1361  0.3322  0.0467
32186SOL    HW198565   9.920   6.268   2.866 -1.8977  0.7206  1.1413
32186SOL    HW298566  10.000   6.197   2.972  0.6107  0.1725 -0.9997
32187SOL     OW98567   7.145   3.431   7.854  0.1197 -0.2850  0.0818
32187SOL    HW198568   7.131   3.337   7.865  1.4661 -0.6567 -1.1015
32187SOL    HW298569   7.230   3.447   7.894  0.0651  0.3739 -0.0542
32188SOL     OW98570   7.814   0.544   6.377  0.0643  0.1869 -0.2039
32188SOL    HW198571   7.790   0.513   6.290 -0.6472  0.1630  0.0002
32188SOL    HW298572   7.824   0.639   6.366 -0.2232  0.2094 -0.2630
32189SOL     OW98573   4.879   3.373   9.584  0.1146  0.1325  1.0263
32189SOL    HW198574   4.936   3.361   9.507 -0.4148  1.1726  0.4384
32189SOL    HW298575   4.876   3.287   9.626  2.2048  0.0582  1.1516
32190SOL     OW98576   2.561   4.414   9.095  0.1301  0.2004  0.0296
32190SOL    HW198577   2.647   4.438   9.062 -0.0455  0.6416 -0.1142
32190SOL    HW298578   2.575   4.397   9.189  0.3380  0.4327  0.0403
32191SOL     OW98579   4.465   8.867   9.472  0.0133 -0.1174  0.1727
32191SOL    HW198580   4.434   8.889   9.559 -0.2518  0.6526 -0.1009
32191SOL    HW298581   4.387   8.874   9.416  0.7638  2.7922 -0.6883
32192SOL     OW98582   0.249   7.747   9.187  0.1791 -0.4130  0.1304
32192SOL    HW198583   0.341   7.751   9.214 -0.1528 -0.3152  1.3130
32192SOL    HW298584   0.242   7.809   9.115  1.0383 -0.4063  0.0447
32193SOL     OW98585   5.383   7.971   0.643 -0.3818  0.7588 -0.6863
32193SOL    HW198586   5.339   7.923   0.572 -0.6347  0.6306 -0.4470
32193SOL    HW298587   5.312   7.991   0.704 -0.3343  1.7130 -0.9320
32194SOL     OW98588   8.684   8.482   5.347 -0.1033 -0.3655  0.1298
32194SOL    HW198589   8.746   8.475   5.274 -1.6174 -1.4278 -1.1163
32194SOL    HW298590   8.733   8.529   5.415  2.1641 -1.4413 -0.6529
32195SOL     OW98591   7.169   2.574   6.327  0.0074  0.0269  0.1106
32195SOL    HW198592   7.160   2.488   6.284 -1.9741 -0.8966  2.1935
32195SOL    HW298593   7.084   2.589   6.368  1.0782  1.8962  1.7853
32196SOL     OW98594   8.744   7.331   9.055  0.3136  0.6532 -0.1674
32196SOL    HW198595   8.707   7.394   9.117  3.3279  1.1093  1.3526
32196SOL    HW298596   8.706   7.247   9.082 -1.0665  1.2962  0.0196
32197SOL     OW98597   7.665   4.940   8.824  0.5680 -0.3242  0.1799
32197SOL    HW198598   7.696   5.007   8.885  1.8749 -1.0830  0.3741
32197SOL    HW298599   7.571   4.934   8.842  0.7922 -0.0316  1.6246
32198SOL     OW98600  10.177   2.405   5.907 -0.2296 -0.2725 -0.5749
32198SOL    HW198601  10.248   2.374   5.963 -0.2471 -0.0606 -0.4381
32198SOL    HW298602  10.152   2.490   5.943  0.9804  0.7332 -1.9752
32199SOL     OW98603   6.859   5.326   7.191 -0.6302  0.2565  0.1588
32199SOL    HW198604   6.872   5.264   7.263  1.4837 -1.3217 -1.4487
32199SOL    HW298605   6.835   5.271   7.116  1.1914  1.3220 -1.2890
32200SOL     OW98606   2.529  10.710   4.833 -0.8878 -0.2232  0.0842
32200SOL    HW198607   2.543  10.617   4.846 -0.5591 -0.6381 -2.5983
32200SOL    HW298608   2.503  10.718   4.741  0.3704  2.4261 -0.1583
32201SOL     OW98609   9.801   6.145   6.842 -0.1409  0.2569 -0.6788
32201SOL    HW198610   9.810   6.234   6.878 -0.0432 -0.8948  2.4623
32201SOL    HW298611   9.710   6.121   6.861  0.3118 -0.9191  0.0733
32202SOL     OW98612   2.112   6.692   9.278 -0.1795 -0.9159  0.2421
32202SOL    HW198613   2.126   6.738   9.195 -1.8441  1.2849  1.1000
32202SOL    HW298614   2.068   6.610   9.254 -1.8306  0.2883 -0.9769
32203SOL     OW98615   7.445   9.836   9.416  0.0984 -0.1896 -0.1498
32203SOL    HW198616   7.383   9.893   9.370 -0.5271 -0.2449  0.6028
32203SOL    HW298617   7.408   9.827   9.504  0.8700 -0.7116  0.1274
32204SOL     OW98618   9.927   7.124   6.594  0.7637 -0.2407  0.1498
32204SOL    HW198619   9.902   7.132   6.686 -1.0914 -2.2801 -0.1031
32204SOL    HW298620   9.890   7.202   6.552 -1.3014 -0.9130  0.6135
32205SOL     OW98621   7.724   5.319   5.129  0.4786 -0.1605  0.4672
32205SOL    HW198622   7.728   5.352   5.039  0.8687 -0.3378  0.4181
32205SOL    HW298623   7.640   5.273   5.133  0.5306 -0.2908  0.1413
32206SOL     OW98624   3.898   3.309  11.036 -0.5302 -0.5984  0.1308
32206SOL    HW198625   3.851   3.353  10.965  1.8243 -1.4206 -2.1046
32206SOL    HW298626   3.942   3.380  11.083 -0.9951 -0.1482 -0.0983
32207SOL     OW98627   0.151   7.327   5.133  0.2440  0.0870 -0.5049
32207SOL    HW198628   0.124   7.315   5.224  1.1406  0.8282 -0.1240
32207SOL    HW298629   0.168   7.238   5.101 -0.2922 -0.1945 -0.0237
32208SOL     OW98630   6.848   7.080   7.995  0.1810  0.4311  0.2220
32208SOL    HW198631   6.876   7.013   7.932  1.7051 -0.4283  1.7277
32208SOL    HW298632   6.827   7.031   8.074 -0.5083  1.5847  0.7717
32209SOL     OW98633   6.638  10.321  10.522  0.1020  0.2099 -0.4541
32209SOL    HW198634   6.686  10.358  10.596  0.3523  0.4159 -0.7143
32209SOL    HW298635   6.629  10.228  10.544 -1.0970  0.5349  0.4975
32210SOL     OW98636   9.500   0.841  10.557  0.1959 -0.3564  0.3079
32210SOL    HW198637   9.409   0.819  10.577 -0.3963 -0.3575 -2.0835
32210SOL    HW298638   9.501   0.937  10.553 -0.0252 -0.3962 -0.9343
32211SOL     OW98639   9.933   2.138   0.943 -0.2769 -0.4115  0.6557
32211SOL    HW198640   9.918   2.220   0.989 -0.5411 -0.4511  0.6423
32211SOL    HW298641   9.925   2.161   0.850 -0.8817 -0.5577  0.6709
32212SOL     OW98642   0.483   9.154   4.623  0.3124 -0.1575 -0.2106
32212SOL    HW198643   0.488   9.220   4.553  1.4605  1.3484  1.2093
32212SOL    HW298644   0.391   9.153   4.648  0.3677  1.4475  0.1855
32213SOL     OW98645   8.180   6.994   6.116 -0.0327 -0.1103  0.0313
32213SOL    HW198646   8.130   6.994   6.035 -1.3107  1.7254  0.7442
32213SOL    HW298647   8.114   6.983   6.185  0.6527  1.0520  0.9205
32214SOL     OW98648   9.989   4.556  10.633  0.2215 -0.3986 -0.2300
32214SOL    HW198649  10.033   4.602  10.704 -1.0290  1.8845 -0.8318
32214SOL    HW298650  10.037   4.583  10.554  0.0896 -0.9545 -0.5072
32215SOL     OW98651   4.249   8.572  10.738  0.2202  0.4377  0.1020
32215SOL    HW198652   4.207   8.503  10.687  0.6626  1.1113 -1.2160
32215SOL    HW298653   4.178   8.629  10.767 -0.0658 -0.1396  0.5640
32216SOL     OW98654   9.766   8.627   9.065 -0.6480 -0.5655  0.3865
32216SOL    HW198655   9.717   8.635   8.983 -4.1167 -0.0674  2.3037
32216SOL    HW298656   9.800   8.715   9.082 -1.5195 -0.2118  0.3406
32217SOL     OW98657   5.543   0.977   3.208 -0.0483  0.5038 -0.1397
32217SOL    HW198658   5.508   0.925   3.136 -0.3802 -0.0644  0.4258
32217SOL    HW298659   5.625   0.933   3.232 -1.8231 -1.6748  2.3888
32218SOL     OW98660   1.621   5.026  10.214  0.4906  0.5480  0.1819
32218SOL    HW198661   1.631   5.026  10.309  0.5748  0.2771  0.1748
32218SOL    HW298662   1.569   5.104  10.194 -1.2585 -0.4589  0.6201
32219SOL     OW98663   7.627   6.613   0.767  0.3543  0.2645  0.8693
32219SOL    HW198664   7.678   6.661   0.832 -0.4117  1.8977  0.3082
32219SOL    HW298665   7.541   6.601   0.807  0.1872  0.4006  0.5575
32220SOL     OW98666   6.212   0.660   6.314 -0.1647  0.7097 -0.4053
32220SOL    HW198667   6.128   0.695   6.282 -0.6805  0.6713  0.8261
32220SOL    HW298668   6.224   0.579   6.265 -1.2259  0.3406 -0.0978
32221SOL     OW98669   0.836   1.303   7.035 -0.5186 -0.2134 -1.0130
32221SOL    HW198670   0.802   1.328   6.949 -1.7126 -0.7136 -0.7177
32221SOL    HW298671   0.901   1.370   7.056  1.0209 -1.0012 -3.0143
32222SOL     OW98672   7.599   8.461   3.068  0.7126  0.0400  0.2404
32222SOL    HW198673   7.528   8.488   3.127 -0.5431 -1.8821 -0.2803
32222SOL    HW298674   7.567   8.483   2.980  0.4543 -1.3426 -0.0452
32223SOL     OW98675   9.615   2.053   2.733  0.1577 -0.0187  0.4249
32223SOL    HW198676   9.625   2.145   2.708 -3.4615  0.5350  0.5246
32223SOL    HW298677   9.658   2.046   2.818 -0.3631  1.8623  0.8818
32224SOL     OW98678  10.400   5.842   0.645 -0.0794 -0.0215  0.1451
32224SOL    HW198679  10.315   5.846   0.601 -0.4438  0.6405  0.8846
32224SOL    HW298680  10.460   5.889   0.587  0.1207 -1.6635 -1.0588
32225SOL     OW98681   1.480   9.445   7.165  0.2396 -0.0904 -0.4079
32225SOL    HW198682   1.572   9.433   7.187  0.1811  0.5932  0.2612
32225SOL    HW298683   1.477   9.438   7.069  0.9377 -0.3981 -0.4120
32226SOL     OW98684   1.756   9.368   7.207 -0.0226  0.4839  0.4057
32226SOL    HW198685   1.822   9.375   7.276  1.6404  0.3561 -1.0976
32226SOL    HW298686   1.764   9.278   7.176 -0.4824  0.6540 -0.1965
32227SOL     OW98687   5.407   3.383  10.336  0.7927 -0.7238  0.0580
32227SOL    HW198688   5.413   3.376  10.241  0.5148  0.2841 -0.0394
32227SOL    HW298689   5.486   3.432  10.361 -0.7900  2.0539 -0.0278
32228SOL     OW98690   7.746   0.397   0.633  0.3373  0.4343 -0.5632
32228SOL    HW198691   7.742   0.438   0.546  2.5090  1.8907 -0.0526
32228SOL    HW298692   7.685   0.448   0.686 -0.7270 -0.2308 -1.1085
32229SOL     OW98693  10.692   4.514   5.171  0.5710 -0.3737  0.5723
32229SOL    HW198694  10.668   4.502   5.263  1.4843 -0.3669  0.8133
32229SOL    HW298695  10.610   4.497   5.124 -0.3486  1.2860  1.4645
32230SOL     OW98696   5.027   5.191   5.758 -0.3364  0.4572 -0.2230
32230SOL    HW198697   4.970   5.218   5.685 -0.6529 -0.2654 -0.2598
32230SOL    HW298698   4.966   5.157   5.824  0.0231  0.0593 -0.0931
32231SOL     OW98699   8.355   3.197  10.058  0.3322 -0.1050  0.2268
32231SOL    HW198700   8.437   3.225  10.098  1.0382 -0.8451 -0.6759
32231SOL    HW298701   8.289   3.255  10.096  1.1194 -0.1177  1.6735
32232SOL     OW98702   7.645   7.970   0.040 -0.0682 -0.0282 -0.3300
32232SOL    HW198703   7.596   7.903  -0.009 -2.2079  0.4923  0.9850
32232SOL    HW298704   7.690   7.921   0.109 -1.5364 -0.1858  0.5601
32233SOL     OW98705  11.060   1.740   2.219 -0.6069  0.2364  0.5558
32233SOL    HW198706  11.019   1.681   2.282 -0.2464  1.6069  2.1432
32233SOL    HW298707  11.001   1.815   2.215  0.4385  1.0971  0.9160
32234SOL     OW98708  10.217   6.339   9.572  0.0674 -0.0614  0.2580
32234SOL    HW198709  10.139   6.287   9.587  0.1273 -0.8108 -1.8093
32234SOL    HW298710  10.205   6.377   9.485  1.9717 -0.1725 -0.0966
32235SOL     OW98711   9.737   5.743   0.370  1.3394  0.1604  0.2940
32235SOL    HW198712   9.734   5.757   0.464  1.6708 -0.1741  0.3573
32235SOL    HW298713   9.826   5.767   0.345  1.1649  0.5407  0.0147
32236SOL     OW98714   5.250  10.658   5.439 -0.1605  0.4529  0.7058
32236SOL    HW198715   5.239  10.735   5.383  0.4910  1.6926  2.1948
32236SOL    HW298716   5.324  10.681   5.496 -0.0585 -1.2227  1.2995
32237SOL     OW98717   0.986   4.421   6.874 -0.3225 -0.1007  0.1074
32237SOL    HW198718   0.951   4.502   6.911  1.4196  0.5784  0.3186
32237SOL    HW298719   0.949   4.417   6.785 -2.4481 -0.4158  0.9558
32238SOL     OW98720   1.089  10.620   8.268 -0.3914 -0.0582 -0.4883
32238SOL    HW198721   1.089  10.580   8.181 -0.2296 -2.9793  0.7454
32238SOL    HW298722   1.168  10.675   8.270 -0.5603  0.2847 -2.2385
32239SOL     OW98723   0.098   7.083   6.875 -0.3167 -0.0394 -0.4511
32239SOL    HW198724   0.084   7.139   6.799 -0.1927 -0.3153 -0.6776
32239SOL    HW298725   0.029   7.109   6.937  0.2536  0.9479 -0.2093
32240SOL     OW98726   7.487   5.668  10.193  0.0953  0.4449 -0.4024
32240SOL    HW198727   7.571   5.650  10.235  0.2884  1.2751 -0.4019
32240SOL    HW298728   7.439   5.586  10.199  0.8337  0.0120 -0.2332
32241SOL     OW98729   6.492  10.539   9.025 -0.0382  0.1486  0.7085
32241SOL    HW198730   6.484  10.634   9.013 -0.2802  0.1856  1.1234
32241SOL    HW298731   6.561  10.529   9.090  0.4925  0.0032  0.1295
32242SOL     OW98732  10.973   6.241   9.164  0.5452  0.0749 -0.0401
32242SOL    HW198733  10.990   6.190   9.085 -0.5786  0.5506 -0.5975
32242SOL    HW298734  10.888   6.211   9.195  1.4015 -0.8204  1.5800
32243SOL     OW98735   0.611   4.164   6.874  0.4220 -0.3349  0.2721
32243SOL    HW198736   0.580   4.250   6.845  1.4425  0.8280  2.3822
32243SOL    HW298737   0.533   4.121   6.908  0.2082  0.5469  0.9507
32244SOL     OW98738   5.105  11.042   9.837 -0.0636  0.2270  0.6231
32244SOL    HW198739   5.034  11.070   9.895  1.2091  0.0719  2.3446
32244SOL    HW298740   5.104  10.946   9.843 -0.7864  0.1180 -0.7497
32245SOL     OW98741   0.187   6.554   8.520 -0.1004 -0.5589 -0.2238
32245SOL    HW198742   0.261   6.494   8.519  1.5112  1.1805  2.5632
32245SOL    HW298743   0.138   6.533   8.440  1.9034 -3.5541 -0.8290
32246SOL     OW98744  10.883   4.643   9.758 -0.1115 -0.0061  0.1337
32246SOL    HW198745  10.969   4.615   9.729  0.5160  0.6235  1.3167
32246SOL    HW298746  10.899   4.720   9.813 -1.4718  0.4646 -0.0730
32247SOL     OW98747   6.945   5.330   2.616  0.3084  0.0566  0.0585
32247SOL    HW198748   6.878   5.387   2.653  0.8365  2.4824 -2.4605
32247SOL    HW298749   6.898   5.250   2.593 -1.2409  0.8124  0.4472
32248SOL     OW98750   4.171   9.131   8.903  0.0038 -0.6553  0.2427
32248SOL    HW198751   4.206   9.216   8.929 -0.3511 -0.7406  1.0260
32248SOL    HW298752   4.083   9.150   8.869  0.7658 -0.4344 -1.7570
32249SOL     OW98753   1.469   8.283  10.281 -0.3044  0.0120 -0.2702
32249SOL    HW198754   1.520   8.288  10.362  3.0729 -3.2751 -1.9244
32249SOL    HW298755   1.446   8.191  10.273 -1.2582  0.3980 -2.6598
32250SOL     OW98756   5.537   9.720   4.471  0.3914 -0.1597 -0.6585
32250SOL    HW198757   5.446   9.727   4.440  0.4909 -1.7174 -1.4040
32250SOL    HW298758   5.541   9.780   4.546 -1.5572 -0.8634  0.0780
32251SOL     OW98759   6.307   3.934   0.521 -0.7193  0.3087 -0.2523
32251SOL    HW198760   6.267   3.860   0.567 -1.1666 -0.3214 -1.5872
32251SOL    HW298761   6.387   3.898   0.483 -0.8655  0.5429 -0.7928
32252SOL     OW98762   8.216   6.682   3.238  0.3113 -0.3674 -0.6353
32252SOL    HW198763   8.277   6.757   3.238 -0.0286 -0.0850 -1.5302
32252SOL    HW298764   8.135   6.717   3.276  0.2983 -0.4081 -0.6260
32253SOL     OW98765   7.090   5.634   9.619  0.0637  0.2158 -0.2786
32253SOL    HW198766   7.112   5.715   9.663  2.7355 -1.2512  1.3397
32253SOL    HW298767   7.041   5.583   9.685 -1.8304  0.5278 -1.3624
32254SOL     OW98768   7.032   9.468  10.076  0.0553  0.4984 -0.4293
32254SOL    HW198769   7.047   9.379  10.046 -2.0249  0.0089 -0.1515
32254SOL    HW298770   7.027   9.520   9.995 -2.1030 -0.2507 -0.8572
32255SOL     OW98771  10.157  10.456   6.978 -0.3594 -0.0305 -0.3320
32255SOL    HW198772  10.071  10.466   7.018  1.0066  1.9287  2.4148
32255SOL    HW298773  10.149  10.499   6.893 -1.8294  1.0304  0.3052
32256SOL     OW98774   8.704   5.552   9.930 -0.0267  0.1330  0.4000
32256SOL    HW198775   8.639   5.482   9.926 -2.1541  2.0164 -0.3427
32256SOL    HW298776   8.756   5.541   9.850  0.0106 -0.8807  0.5509
32257SOL     OW98777   9.423   3.939   5.446 -0.2234 -0.2959 -0.2780
32257SOL    HW198778   9.450   4.012   5.503 -2.2725 -0.4075  0.9488
32257SOL    HW298779   9.492   3.874   5.457  0.2840  0.3710  0.7643
32258SOL     OW98780   2.042   1.878   4.960 -0.0700 -0.6270  0.0006
32258SOL    HW198781   1.957   1.873   4.916  0.1682 -0.3119 -0.5087
32258SOL    HW298782   2.071   1.788   4.969  0.0170 -0.6770 -0.7686
32259SOL     OW98783   1.006   1.157   8.404 -0.0917  0.2932  0.4176
32259SOL    HW198784   0.968   1.161   8.491 -0.1391 -0.9414  0.4707
32259SOL    HW298785   1.052   1.073   8.401  0.7365  0.7531 -0.4107
32260SOL     OW98786   8.194   0.597   6.465  0.0016  0.6623  0.4132
32260SOL    HW198787   8.173   0.513   6.424  2.2686  0.8374 -1.2489
32260SOL    HW298788   8.245   0.574   6.542  2.6592  0.4320 -1.2718
32261SOL     OW98789  11.040   7.464   9.547  0.8458  0.0273 -0.0773
32261SOL    HW198790  10.959   7.513   9.562  0.2105 -1.4024  1.3461
32261SOL    HW298791  11.110   7.527   9.568  0.1500  1.1839 -1.0507
32262SOL     OW98792   8.033   7.337   3.252  0.6515  0.4009 -0.1454
32262SOL    HW198793   8.001   7.263   3.303 -0.6543 -0.0296 -1.5258
32262SOL    HW298794   7.985   7.413   3.287  1.7391  0.5808  1.0363
32263SOL     OW98795   9.454   5.931  10.884 -0.5888 -0.4633  0.2724
32263SOL    HW198796   9.473   5.902  10.973 -0.5358 -2.7990 -0.4597
32263SOL    HW298797   9.394   6.005  10.896 -1.0312 -1.0878  2.2237
32264SOL     OW98798   8.959   4.122   7.916  0.6877 -0.3398  0.7444
32264SOL    HW198799   8.921   4.086   7.996 -0.8474 -1.6461 -0.5113
32264SOL    HW298800   8.974   4.045   7.860 -1.8301  0.7586 -1.6715
32265SOL     OW98801   6.763   3.541   5.196 -0.1221  0.3032 -0.0372
32265SOL    HW198802   6.791   3.597   5.124  0.1753  1.8888  1.2712
32265SOL    HW298803   6.844   3.506   5.232  0.0312  2.0595  1.4893
32266SOL     OW98804   4.800   7.509   2.860 -0.1144  0.2154 -0.0831
32266SOL    HW198805   4.807   7.559   2.941  0.9718 -1.0648  0.6622
32266SOL    HW298806   4.863   7.550   2.801 -0.2700  0.6092  0.0205
32267SOL     OW98807   7.723   5.591   0.336 -0.4352  0.3389 -0.5701
32267SOL    HW198808   7.632   5.564   0.330 -0.7618  1.4252 -0.8030
32267SOL    HW298809   7.747   5.618   0.247 -0.2184  1.0288 -0.3162
32268SOL     OW98810   2.288  10.483   5.612  0.2173 -0.4714 -0.2133
32268SOL    HW198811   2.322  10.394   5.601  1.2254 -0.4688  2.2682
32268SOL    HW298812   2.343  10.537   5.556  0.3705 -1.2486 -0.8320
32269SOL     OW98813   3.098   6.933   2.310 -0.3030  0.4340  0.4624
32269SOL    HW198814   3.117   6.847   2.272 -1.7119  0.9321 -1.5104
32269SOL    HW298815   3.162   6.942   2.381  1.2350 -1.3588 -0.5968
32270SOL     OW98816   7.494   4.362   6.447 -0.0940 -0.4644  0.5294
32270SOL    HW198817   7.425   4.423   6.470 -1.5583 -1.3821 -1.1635
32270SOL    HW298818   7.465   4.322   6.365  2.8307 -0.3058 -0.7378
32271SOL     OW98819   5.062   0.718   6.275  0.2630 -0.2022 -0.0869
32271SOL    HW198820   5.119   0.653   6.316  1.6443  0.0113 -1.5431
32271SOL    HW298821   5.063   0.695   6.182  0.1722  1.4376 -0.5263
32272SOL     OW98822   7.602   3.915   4.985 -0.2688  0.1088  0.3746
32272SOL    HW198823   7.629   4.001   4.954 -1.1811  0.2848  0.0353
32272SOL    HW298824   7.528   3.891   4.929 -0.2331 -0.7492  0.6789
32273SOL     OW98825   5.578   3.628   8.036 -0.1070 -0.1806 -0.3933
32273SOL    HW198826   5.624   3.627   7.952 -0.1408 -0.3342 -0.4111
32273SOL    HW298827   5.642   3.663   8.098 -0.2337  0.3666 -0.5651
32274SOL     OW98828   5.957   7.432   9.485  0.2294  0.3054  0.0404
32274SOL    HW198829   5.898   7.365   9.518  0.1462  2.0652  4.1106
32274SOL    HW298830   5.899   7.503   9.456  0.0678  1.9375  3.8191
32275SOL     OW98831   9.701   7.816   6.161  0.0760  0.2737  0.4020
32275SOL    HW198832   9.691   7.899   6.207 -0.4675  0.1833  0.4560
32275SOL    HW298833   9.729   7.840   6.073 -0.0852  0.5128  0.4155
32276SOL     OW98834   9.792   4.759   6.437 -0.2196  0.5375 -0.0366
32276SOL    HW198835   9.768   4.744   6.528 -0.0416  1.2346  0.1309
32276SOL    HW298836   9.714   4.798   6.398 -1.4524 -2.5818 -1.0039
32277SOL     OW98837  10.730   4.636   0.651 -0.0752 -0.3642 -0.1510
32277SOL    HW198838  10.676   4.691   0.595  1.3743  0.1128 -1.1516
32277SOL    HW298839  10.722   4.548   0.614 -1.0620 -0.5226  0.4186
32278SOL     OW98840  10.083   1.643   4.187 -0.8704 -0.0260 -0.1031
32278SOL    HW198841  10.043   1.601   4.111 -0.0447  1.2828 -1.3195
32278SOL    HW298842  10.010   1.684   4.233 -1.1738  1.1891 -1.5499
32279SOL     OW98843  10.253   9.385   6.721 -0.0562  0.2470 -0.0076
32279SOL    HW198844  10.232   9.401   6.813  0.9373 -0.4125  0.3580
32279SOL    HW298845  10.303   9.303   6.722  0.9803  0.8359 -0.9929
32280SOL     OW98846   8.233   9.984   9.992 -0.2897  0.1999 -0.1023
32280SOL    HW198847   8.167  10.012   9.928 -1.6607 -1.5050  0.4968
32280SOL    HW298848   8.316  10.011   9.953 -1.2158  1.0747 -1.6001
32281SOL     OW98849   3.760   8.702   7.504  0.1225  0.5134  0.1966
32281SOL    HW198850   3.783   8.662   7.588  1.0125  1.1471  0.2706
32281SOL    HW298851   3.719   8.786   7.529 -1.0848 -0.0043  0.0269
32282SOL     OW98852   3.023   8.202   7.726  0.1111  0.5403  0.2557
32282SOL    HW198853   3.037   8.164   7.813  0.3184 -0.2511 -0.1098
32282SOL    HW298854   3.054   8.134   7.666  2.5846  2.1358 -0.4142
32283SOL     OW98855   8.799   6.003   9.024  0.1148 -0.1040  0.4341
32283SOL    HW198856   8.885   6.002   9.066  0.3867  0.3083 -0.1095
32283SOL    HW298857   8.765   6.091   9.040  0.7826  0.5204 -1.2980
32284SOL     OW98858   1.134  10.084   2.558  0.2756  0.0707  0.6706
32284SOL    HW198859   1.154  10.013   2.618  0.0648  0.3706  1.0995
32284SOL    HW298860   1.213  10.093   2.504  0.2844 -0.5202  0.5747
32285SOL     OW98861   7.638  10.201   9.916  0.0319  0.0466 -0.1026
32285SOL    HW198862   7.660  10.134   9.852  1.6834  0.3132  0.1593
32285SOL    HW298863   7.589  10.267   9.866  1.1076  0.1478 -1.0506
32286SOL     OW98864   9.445  10.464   3.050  0.1022 -0.3448  0.1757
32286SOL    HW198865   9.422  10.373   3.067 -1.9124  0.1383  0.2823
32286SOL    HW298866   9.403  10.513   3.122 -1.8757  0.9713 -1.7453
32287SOL     OW98867   3.366  10.248   1.750  0.0423  0.0979 -0.8209
32287SOL    HW198868   3.397  10.324   1.700 -2.3342  1.4164 -0.4276
32287SOL    HW298869   3.307  10.203   1.690  1.2640 -1.3806 -0.9711
32288SOL     OW98870   8.337   7.431   7.150 -0.1321 -0.3388  0.4643
32288SOL    HW198871   8.340   7.519   7.185 -2.8709  0.0410 -0.0525
32288SOL    HW298872   8.338   7.374   7.227 -1.7514  0.3016  0.9827
32289SOL     OW98873   5.145   8.802   1.786 -0.3068 -0.7679  0.4173
32289SOL    HW198874   5.132   8.779   1.878  0.8100  0.3940  0.8986
32289SOL    HW298875   5.059   8.829   1.756 -0.3933  0.3846  1.6022
32290SOL     OW98876   7.334   9.293  10.810  0.0060 -0.1532 -0.2509
32290SOL    HW198877   7.406   9.333  10.858 -0.6309  1.0029 -0.2381
32290SOL    HW298878   7.365   9.289  10.719  0.1504  0.1937 -0.2176
32291SOL     OW98879   9.868   7.030   4.946  0.5588 -0.4223 -0.4701
32291SOL    HW198880   9.877   7.059   5.037  0.6592 -1.4566 -0.1273
32291SOL    HW298881   9.817   7.098   4.903  0.7244  0.2006  0.3056
32292SOL     OW98882   2.304   8.316   7.188 -0.1744 -0.2156 -0.2724
32292SOL    HW198883   2.385   8.330   7.140  0.2724  1.2385  0.8218
32292SOL    HW298884   2.327   8.335   7.279 -1.7567  0.2542  0.0520
32293SOL     OW98885   1.560   8.104   0.665 -0.2759 -0.0574 -0.2085
32293SOL    HW198886   1.620   8.093   0.739 -0.8939 -1.3797  0.1297
32293SOL    HW298887   1.476   8.125   0.706 -0.4752 -0.1607 -0.5680
32294SOL     OW98888   8.194   3.558  10.732 -0.0325 -0.1640 -0.4426
32294SOL    HW198889   8.141   3.509  10.795  0.5541  0.7950  0.8349
32294SOL    HW298890   8.282   3.559  10.769  0.3179  0.4940 -1.2377
32295SOL     OW98891   8.590   1.211   7.735 -0.1932  0.4698  0.3082
32295SOL    HW198892   8.603   1.256   7.651  0.4424  0.2543  0.2884
32295SOL    HW298893   8.610   1.119   7.717  2.7998  0.8083  1.3045
32296SOL     OW98894   9.491   7.036  10.424  0.5958  0.3874  0.7070
32296SOL    HW198895   9.565   7.015  10.482 -0.8274 -3.6454  1.3439
32296SOL    HW298896   9.435   7.093  10.477  0.7813 -0.7811  2.2289
32297SOL     OW98897   9.310   0.715   7.351 -0.3759 -0.6542  0.1114
32297SOL    HW198898   9.304   0.804   7.385 -1.4908 -0.6444 -0.0713
32297SOL    HW298899   9.396   0.684   7.379  0.2984  0.7093 -0.3907
32298SOL     OW98900   6.609   2.772   0.700  0.0811  0.2643  0.4630
32298SOL    HW198901   6.571   2.754   0.786 -0.5161  0.3714  0.2328
32298SOL    HW298902   6.695   2.730   0.701 -0.7578 -1.5379  0.3720
32299SOL     OW98903   9.918   8.283   7.487 -0.0879  0.0659  0.1021
32299SOL    HW198904   9.897   8.348   7.554 -0.8537  1.1233 -1.1096
32299SOL    HW298905   9.868   8.311   7.411  2.2227  0.0227 -1.5285
32300SOL     OW98906   9.196   0.820   4.981 -0.0768  0.3217  0.4124
32300SOL    HW198907   9.290   0.804   4.993 -0.1840  0.4856  1.5638
32300SOL    HW298908   9.157   0.732   4.979  0.3498  0.0656 -2.8555
32301SOL     OW98909   0.252   7.242   8.970 -0.3971  0.1267  0.3692
32301SOL    HW198910   0.217   7.282   9.049 -0.2504  2.4416 -0.6621
32301SOL    HW298911   0.331   7.197   8.998 -1.5737 -1.1271  1.9032
32302SOL     OW98912   5.032   9.354   1.615  0.2543 -0.4571  0.1670
32302SOL    HW198913   5.029   9.438   1.568  0.6266  0.0412  1.0112
32302SOL    HW298914   5.119   9.319   1.595  0.0825 -0.6691 -0.2210
32303SOL     OW98915   5.951   6.604   5.774 -0.0736 -0.2945  0.0410
32303SOL    HW198916   5.872   6.590   5.721 -0.6990 -0.8483  1.0773
32303SOL    HW298917   6.016   6.636   5.712 -1.1485  0.2936 -0.8240
32304SOL     OW98918   3.574   3.649  10.714 -0.0238  0.1277  0.0754
32304SOL    HW198919   3.534   3.701  10.783  2.1042 -0.3341  1.7796
32304SOL    HW298920   3.663   3.684  10.706  0.0961 -0.4965 -1.7324
32305SOL     OW98921   7.506   3.325  10.507 -0.6380 -0.2629 -0.1654
32305SOL    HW198922   7.444   3.260  10.540  0.0399 -1.1998 -0.7094
32305SOL    HW298923   7.592   3.288  10.525 -0.2319  0.6543 -0.1601
32306SOL     OW98924   8.384   5.216   5.071  0.3609 -0.1889 -0.1310
32306SOL    HW198925   8.426   5.199   4.986  2.1528  0.1279  0.6441
32306SOL    HW298926   8.426   5.154   5.131  0.7842  1.1110  0.9665
32307SOL     OW98927   6.870   4.361  10.264  0.2492 -0.4195  0.7517
32307SOL    HW198928   6.916   4.305  10.202  0.7085  1.2563 -0.5060
32307SOL    HW298929   6.791   4.312  10.287  0.0074 -1.0771 -1.2746
32308SOL     OW98930   9.566   3.360   8.031  0.2459  0.0847  0.0602
32308SOL    HW198931   9.496   3.297   8.015  0.4196 -0.3073  0.7962
32308SOL    HW298932   9.583   3.399   7.945 -0.2433 -0.4745 -0.3006
32309SOL     OW98933   2.270  10.041  10.495 -0.7719  0.1729 -0.0882
32309SOL    HW198934   2.278  10.111  10.430 -1.7595  2.1569  1.7737
32309SOL    HW298935   2.176  10.037  10.514 -0.6894 -1.4754  0.0948
32310SOL     OW98936   9.935   8.990   8.113  0.1940  0.0440 -0.1629
32310SOL    HW198937   9.860   9.049   8.106  0.6948  0.5570 -1.4056
32310SOL    HW298938   9.901   8.905   8.084 -0.1928  0.0075  0.3819
32311SOL     OW98939   9.895   5.115   6.436 -0.0164 -0.2924  0.6550
32311SOL    HW198940   9.870   5.048   6.372 -0.8010  0.8378 -0.2587
32311SOL    HW298941   9.840   5.190   6.415  2.2133  1.3671  0.3214
32312SOL     OW98942   5.964   0.231   7.891 -0.0963 -0.1866  0.7784
32312SOL    HW198943   5.897   0.164   7.876  0.9089 -0.7264 -1.6738
32312SOL    HW298944   6.041   0.182   7.920  0.1724  0.0843  0.5283
32313SOL     OW98945   1.142  11.032   1.617  0.0633  0.2729 -0.1000
32313SOL    HW198946   1.144  10.952   1.670  2.2312  0.6474  0.4418
32313SOL    HW298947   1.177  11.004   1.532 -1.7114  0.0847 -0.8110
32314SOL     OW98948   9.187   1.304   7.259 -0.5051 -0.4850 -0.0452
32314SOL    HW198949   9.192   1.388   7.213  0.8481  0.7910  2.2198
32314SOL    HW298950   9.270   1.297   7.306 -0.8620 -2.7940  0.3499
32315SOL     OW98951   8.347   0.949   7.732  0.0944 -0.1462  0.4078
32315SOL    HW198952   8.323   1.007   7.804  2.3417  0.4836  0.7248
32315SOL    HW298953   8.358   0.863   7.774  1.0576  0.1473  0.7866
32316SOL     OW98954   9.993   8.546   7.267 -0.2631  0.2768  0.7258
32316SOL    HW198955  10.018   8.633   7.235 -0.2115 -0.1353 -0.4324
32316SOL    HW298956   9.990   8.555   7.362  0.2461  1.4086  0.6568
32317SOL     OW98957   0.096   8.132   3.283  0.0016  0.0795  0.3523
32317SOL    HW198958   0.182   8.092   3.291 -0.1866 -0.1593  1.2218
32317SOL    HW298959   0.093   8.164   3.193  0.4773 -1.1247 -0.1153
32318SOL     OW98960   4.862   2.488   6.447 -0.2638 -0.0778 -0.3133
32318SOL    HW198961   4.784   2.484   6.392 -1.5288  0.6614  1.3321
32318SOL    HW298962   4.894   2.578   6.436 -0.8832  0.2724  0.5616
32319SOL     OW98963   1.617   4.914   8.431 -0.1721 -0.6226 -0.2998
32319SOL    HW198964   1.709   4.892   8.421  0.3594  0.7782  1.1943
32319SOL    HW298965   1.616   5.005   8.458 -2.0388 -0.4296 -0.8344
32320SOL     OW98966   7.340   5.018   1.495  0.0151  0.4375  0.3898
32320SOL    HW198967   7.365   4.928   1.477 -1.0760 -0.2750  2.2420
32320SOL    HW298968   7.403   5.049   1.560 -0.8806  0.2809  1.3529
32321SOL     OW98969   5.889   0.023   5.713  0.0644 -0.2064 -0.4670
32321SOL    HW198970   5.961   0.078   5.685 -0.2135  0.0098 -0.7622
32321SOL    HW298971   5.829   0.082   5.758 -0.4114 -0.1857 -1.1051
32322SOL     OW98972   1.031   5.577  10.291 -0.9930 -0.2643  0.3910
32322SOL    HW198973   1.037   5.672  10.302 -0.7136 -0.2971  0.5237
32322SOL    HW298974   1.018   5.543  10.379 -2.9078 -0.2238  0.1780
32323SOL     OW98975   9.955   9.628   1.831 -0.0526 -0.2353 -0.3289
32323SOL    HW198976  10.018   9.682   1.878 -0.3013  0.2789 -0.5799
32323SOL    HW298977   9.889   9.690   1.800 -0.2445 -0.6602 -0.7738
32324SOL     OW98978   0.094   0.718   8.151  0.1135  0.2068 -0.1239
32324SOL    HW198979   0.130   0.630   8.138  1.3274  0.6087  0.3097
32324SOL    HW298980   0.091   0.728   8.246 -0.3103  0.5232 -0.1696
32325SOL     OW98981   4.323   3.530   9.058  0.2742  1.0948  0.6733
32325SOL    HW198982   4.371   3.505   9.137 -0.9438  1.8288  1.6764
32325SOL    HW298983   4.340   3.459   8.996 -1.1256 -1.0178  2.6001
32326SOL     OW98984   0.040   1.634   4.011 -0.2328  0.4196  0.2990
32326SOL    HW198985   0.122   1.676   3.984 -0.5493  0.4070 -0.7392
32326SOL    HW298986   0.023   1.570   3.943  0.6877 -2.0888  2.2724
32327SOL     OW98987   5.439   4.071   7.141  0.6205 -0.0795 -0.7729
32327SOL    HW198988   5.413   4.163   7.143 -0.8844 -0.4853  0.9824
32327SOL    HW298989   5.364   4.026   7.102  0.5658 -0.7486  0.0663
32328SOL     OW98990   3.744   9.896   9.448  0.6113  0.0318 -0.4494
32328SOL    HW198991   3.820   9.936   9.406  0.9778  0.2769  0.4146
32328SOL    HW298992   3.670   9.922   9.393  0.8266  1.9449  0.0667
32329SOL     OW98993   9.171   0.035   7.468  0.3718 -0.3095 -0.4577
32329SOL    HW198994   9.087   0.050   7.423 -0.1260  1.5179  0.9564
32329SOL    HW298995   9.184   0.114   7.520  2.1290 -1.3256  0.7236
32330SOL     OW98996   5.568   4.806   5.920  0.0054 -0.0054  0.1494
32330SOL    HW198997   5.500   4.849   5.972  0.3514  0.7639 -0.0225
32330SOL    HW298998   5.590   4.727   5.970 -1.2775 -0.4692  0.0084
32331SOL     OW98999   2.704   2.579   8.443  0.4122  0.2370 -0.1626
32331SOL    HW199000   2.715   2.486   8.425  3.4414  0.3863  0.3680
32331SOL    HW299001   2.746   2.623   8.369  0.0595  1.1758  0.1741
32332SOL     OW99002   3.382   6.448   2.062  0.1039  0.0993 -0.0650
32332SOL    HW199003   3.472   6.466   2.033  0.4549 -0.5146  0.6142
32332SOL    HW299004   3.393   6.393   2.140 -0.7872  1.7591  1.3057
32333SOL     OW99005   5.579   5.953   8.019 -0.6999  0.0848 -0.2579
32333SOL    HW199006   5.613   5.938   8.108  0.6344 -2.0609 -1.0581
32333SOL    HW299007   5.489   5.982   8.033 -0.1341  1.0783  1.8138
32334SOL     OW99008   5.086   7.626   2.852 -0.2121 -0.2648 -0.4477
32334SOL    HW199009   5.097   7.563   2.781  3.0568 -0.6343  0.2429
32334SOL    HW299010   5.103   7.711   2.811  0.7954 -0.3927 -0.3106
32335SOL     OW99011  10.839   4.445   7.881 -0.8027 -0.0231  0.3223
32335SOL    HW199012  10.894   4.498   7.939  0.7557  0.0669 -1.1864
32335SOL    HW299013  10.755   4.439   7.928  0.2413  0.3976  2.3721
32336SOL     OW99014   9.221   1.557   7.175 -0.2894  0.3719  0.2049
32336SOL    HW199015   9.309   1.518   7.172 -0.4677  0.0089 -1.8078
32336SOL    HW299016   9.228   1.636   7.121 -1.5333 -0.4879 -1.3002
32337SOL     OW99017   4.767   6.624   4.058 -0.2554  0.2383  0.4329
32337SOL    HW199018   4.853   6.632   4.018 -0.6610  1.3200 -0.2624
32337SOL    HW299019   4.776   6.669   4.142  0.3382 -1.2242  1.1823
32338SOL     OW99020   9.066   5.742   0.918 -0.3237  0.6608 -0.3056
32338SOL    HW199021   9.043   5.710   1.005  0.4068 -0.3533 -0.4707
32338SOL    HW299022   8.981   5.756   0.874 -0.6980 -1.2418 -0.2840
32339SOL     OW99023   1.328   2.789   8.150 -0.0132 -0.3427 -0.2366
32339SOL    HW199024   1.282   2.867   8.117  0.3460  0.6820  1.5490
32339SOL    HW299025   1.264   2.718   8.142 -1.2183  0.6430  0.3132
32340SOL     OW99026   0.335   6.755   9.802  0.4006 -0.0434 -0.3496
32340SOL    HW199027   0.324   6.686   9.868 -1.4153  0.7575  0.2599
32340SOL    HW299028   0.342   6.708   9.719 -0.9975 -0.9828  0.0279
32341SOL     OW99029   9.273   0.241   3.059 -0.0932 -0.4288  0.5231
32341SOL    HW199030   9.311   0.322   3.026 -0.8417  0.1593  1.0613
32341SOL    HW299031   9.328   0.216   3.133  1.8425 -1.9706 -1.2760
32342SOL     OW99032   9.958   3.211   7.827  0.4278  0.5473 -0.2548
32342SOL    HW199033  10.025   3.270   7.791  0.0729  0.3554 -1.2832
32342SOL    HW299034   9.980   3.203   7.919  0.0443  2.9142  0.1089
32343SOL     OW99035   7.812   8.832   6.942  0.2225  0.1530 -0.4938
32343SOL    HW199036   7.874   8.778   6.991  0.6039  1.2449  0.2739
32343SOL    HW299037   7.738   8.775   6.925 -0.5287  0.0474  2.5480
32344SOL     OW99038   1.744   2.536   0.269  0.0544  0.1368 -0.2015
32344SOL    HW199039   1.838   2.554   0.265  0.4682 -1.5219  0.7747
32344SOL    HW299040   1.710   2.599   0.333  0.7082  0.0590  0.2354
32345SOL     OW99041   3.177   9.698   4.607  0.1844  0.4492  0.2277
32345SOL    HW199042   3.257   9.748   4.589 -0.1487  0.9719  0.2155
32345SOL    HW299043   3.179   9.682   4.701  0.0377  0.9162  0.3114
32346SOL     OW99044   6.943   6.368   6.280 -0.1430  0.4839 -0.4871
32346SOL    HW199045   6.884   6.431   6.238 -0.0820  1.8754  1.3383
32346SOL    HW299046   7.030   6.389   6.246 -0.2109  0.9916 -0.3563
32347SOL     OW99047   6.560   4.523   5.978  0.3829  0.3883  0.3171
32347SOL    HW199048   6.564   4.479   6.063  0.2883 -0.9239 -0.3288
32347SOL    HW299049   6.484   4.581   5.985  0.0867 -0.0633  0.9718
32348SOL     OW99050   6.651   0.259   6.171 -0.2939 -0.3379  0.2765
32348SOL    HW199051   6.706   0.337   6.180 -0.8677  0.4290 -2.1510
32348SOL    HW299052   6.572   0.279   6.222 -0.5515  0.8078 -0.5439
32349SOL     OW99053   7.704   6.069   7.158  0.4381 -0.0275  0.0029
32349SOL    HW199054   7.621   6.065   7.206  0.3685  0.7871 -0.0250
32349SOL    HW299055   7.755   5.995   7.191  0.3204  0.4046  1.2017
32350SOL     OW99056   4.782   5.967   8.835 -0.1193  0.7367 -0.5634
32350SOL    HW199057   4.807   6.038   8.777 -0.9824  1.1727 -0.4208
32350SOL    HW299058   4.739   5.903   8.778 -0.1023  0.7219 -0.5600
32351SOL     OW99059   7.348   6.431   4.773  0.2128 -0.3046  0.3919
32351SOL    HW199060   7.338   6.523   4.748 -1.0016 -0.9945 -2.0193
32351SOL    HW299061   7.424   6.400   4.724  1.0449 -0.4543  1.7266
32352SOL     OW99062  10.433   2.052   8.926 -0.6080 -0.0822  0.0505
32352SOL    HW199063  10.511   2.073   8.977 -0.7250  0.0160  0.1909
32352SOL    HW299064  10.461   1.983   8.866  0.5774  2.2278 -2.3197
32353SOL     OW99065   5.980   9.559   7.628 -0.2506  0.2340 -0.2996
32353SOL    HW199066   6.008   9.634   7.575  0.5781 -0.1403 -0.3992
32353SOL    HW299067   5.970   9.595   7.717 -1.2510  0.7713 -0.6085
32354SOL     OW99068   8.132   5.472   7.922  0.8373 -0.8863 -0.4733
32354SOL    HW199069   8.132   5.401   7.857  2.4165  0.1558 -1.7058
32354SOL    HW299070   8.225   5.485   7.943  0.4325 -0.4421  1.1668
32355SOL     OW99071   9.124   9.141   1.727 -0.4858 -0.7730 -0.5100
32355SOL    HW199072   9.137   9.215   1.786  0.4301 -1.4775  0.1914
32355SOL    HW299073   9.183   9.073   1.758 -0.4808 -1.4191 -1.8209
32356SOL     OW99074  10.250   2.206   6.541 -0.4320  0.1597 -0.0504
32356SOL    HW199075  10.261   2.221   6.635 -1.2268  0.3364  0.0193
32356SOL    HW299076  10.314   2.264   6.500 -0.3071  0.3274  0.3749
32357SOL     OW99077   5.875   1.853   5.734 -0.5291  0.4735  0.2192
32357SOL    HW199078   5.888   1.873   5.827  0.5860  1.6235 -0.1476
32357SOL    HW299079   5.874   1.758   5.729  0.9501  0.3802  1.2261
32358SOL     OW99080   8.095   9.851   5.074  0.0970  0.2157 -0.1775
32358SOL    HW199081   8.156   9.837   5.146  0.6598  2.0352 -0.2559
32358SOL    HW299082   8.134   9.803   5.000  0.6901  0.2026  0.1436
32359SOL     OW99083   6.369   9.081   6.837  0.0117  0.1744  0.1100
32359SOL    HW199084   6.412   9.093   6.922  0.0339  0.2098  0.0937
32359SOL    HW299085   6.283   9.045   6.859  0.6914 -1.5900  0.0512
32360SOL     OW99086   7.588   5.022   5.421 -0.4844 -0.3716 -0.2818
32360SOL    HW199087   7.531   4.969   5.365 -0.6386 -0.3135 -0.1795
32360SOL    HW299088   7.659   4.962   5.447 -0.9495 -0.6881  0.2834
32361SOL     OW99089   0.198   1.468   0.291 -0.3509 -0.4746 -0.3182
32361SOL    HW199090   0.276   1.457   0.344  1.1702  2.2390 -1.7752
32361SOL    HW299091   0.213   1.416   0.212  0.7336  1.1325 -1.2330
32362SOL     OW99092   1.859   4.535   0.377  0.6113 -0.0777  0.2590
32362SOL    HW199093   1.901   4.619   0.357  0.4078 -0.2092 -0.7821
32362SOL    HW299094   1.910   4.471   0.327 -0.3012 -0.3411 -0.3503
32363SOL     OW99095   6.470   7.239   6.434 -0.9850  0.1871  0.5555
32363SOL    HW199096   6.501   7.196   6.513  0.9685  2.9132  1.3884
32363SOL    HW299097   6.411   7.307   6.465  0.7437  2.0847 -0.1489
32364SOL     OW99098   6.404   6.471   6.497 -0.2020  0.4061 -0.5720
32364SOL    HW199099   6.412   6.377   6.511 -0.7441  0.2555 -1.2091
32364SOL    HW299100   6.310   6.488   6.503 -0.1197  0.8786 -0.6061
32365SOL     OW99101   6.044   4.065   2.584  0.9000 -0.2017 -0.2383
32365SOL    HW199102   5.995   4.010   2.523  1.4829  1.4076 -2.2903
32365SOL    HW299103   6.049   4.014   2.664  0.3136 -2.5573 -1.6096
32366SOL     OW99104  10.570   8.509   4.980 -0.7496  0.5570 -0.3347
32366SOL    HW199105  10.534   8.582   4.930  0.2770  0.9144 -0.5889
32366SOL    HW299106  10.500   8.483   5.038 -0.7597  2.5683  0.6529
32367SOL     OW99107   4.773   1.222   3.289  0.7062 -0.6587  0.8595
32367SOL    HW199108   4.706   1.207   3.223  1.6530  0.4092 -0.4277
32367SOL    HW299109   4.734   1.193   3.371 -0.7680 -1.4049 -0.0656
32368SOL     OW99110   2.750   5.299   7.048 -0.1441  0.0949 -0.5420
32368SOL    HW199111   2.811   5.235   7.011 -0.5961 -1.7699  1.6989
32368SOL    HW299112   2.665   5.275   7.011 -0.2810 -0.5083  0.1435
32369SOL     OW99113   3.842   4.086   4.534  0.5485  0.1571  0.0137
32369SOL    HW199114   3.754   4.047   4.538  0.6027 -0.0870 -0.9034
32369SOL    HW299115   3.891   4.029   4.475  1.7018 -0.4090  1.4741
32370SOL     OW99116   7.655   4.019  10.647  0.3936 -1.0299 -0.2928
32370SOL    HW199117   7.747   4.042  10.638 -0.0497  0.2249 -2.1548
32370SOL    HW299118   7.622   4.076  10.717  1.0427 -1.5950  0.4858
32371SOL     OW99119   7.023   8.946   2.706 -0.0729  0.6429  0.2737
32371SOL    HW199120   7.060   8.947   2.794  0.0879  1.6430  0.2012
32371SOL    HW299121   6.966   9.023   2.702 -1.4178 -0.3142  0.0520
32372SOL     OW99122   9.760  10.856   2.582 -0.0067 -0.6955  0.1774
32372SOL    HW199123   9.688  10.910   2.614 -0.5922 -2.0221  1.2173
32372SOL    HW299124   9.780  10.797   2.655  2.4249 -0.1117  0.0892
32373SOL     OW99125   4.630   5.116  10.764  0.0914 -0.6611 -0.6698
32373SOL    HW199126   4.648   5.096  10.672 -0.4602  0.9064 -1.1622
32373SOL    HW299127   4.578   5.197  10.761  0.4632 -0.3159  1.0365
32374SOL     OW99128   3.782   5.869   9.643  0.3546 -0.2640 -0.8873
32374SOL    HW199129   3.699   5.917   9.642 -0.0775 -0.9379  0.4109
32374SOL    HW299130   3.758   5.780   9.668  1.3545 -0.7413 -1.5800
32375SOL     OW99131   0.343   8.494   8.306 -0.1571 -0.1117  0.4151
32375SOL    HW199132   0.324   8.424   8.370  1.0278 -1.2015 -0.3712
32375SOL    HW299133   0.280   8.479   8.235  1.5711 -1.9376 -0.8588
32376SOL     OW99134   6.136   1.280   8.860 -0.4279  0.3430  0.2163
32376SOL    HW199135   6.067   1.230   8.815 -1.2317  1.1242  0.5368
32376SOL    HW299136   6.217   1.234   8.839 -1.2245 -1.7255  1.3332
32377SOL     OW99137   0.180   1.764   8.400  0.3849 -0.6887 -0.5586
32377SOL    HW199138   0.110   1.789   8.460  1.5861 -0.5961  0.8535
32377SOL    HW299139   0.141   1.695   8.346 -0.6376 -1.0275  0.5593
32378SOL     OW99140  11.092   0.693   8.735 -0.1965  0.2658 -0.2573
32378SOL    HW199141  11.178   0.721   8.705  0.6226 -1.6741  0.1466
32378SOL    HW299142  11.087   0.722   8.826  0.3886 -0.3075 -0.0312
32379SOL     OW99143   1.103  10.564   5.175 -0.2673 -0.5518  0.1159
32379SOL    HW199144   1.086  10.503   5.104 -0.2068  0.9883 -1.2822
32379SOL    HW299145   1.185  10.607   5.151  0.1042 -0.4555  1.4612
32380SOL     OW99146   9.579  10.106   1.103 -0.5079 -1.3182 -0.4153
32380SOL    HW199147   9.610  10.114   1.013 -0.8869 -1.4797 -0.5607
32380SOL    HW299148   9.484  10.099   1.096 -0.7860  1.0779  0.1317
32381SOL     OW99149   1.227   6.080   9.816  0.2401 -0.3160 -0.4349
32381SOL    HW199150   1.218   6.132   9.736  0.1915 -1.0834 -0.9442
32381SOL    HW299151   1.156   6.110   9.873  0.4806  0.4709 -0.5473
32382SOL     OW99152   7.779   9.932   8.013 -0.2131  0.2104 -0.3744
32382SOL    HW199153   7.804   9.994   7.945 -1.6795  0.7782 -0.4372
32382SOL    HW299154   7.686   9.948   8.027 -0.8229 -2.4534 -0.8786
32383SOL     OW99155   8.981   9.775   2.463 -0.0699 -0.1109 -0.2920
32383SOL    HW199156   8.907   9.791   2.523 -0.1253  1.3896 -0.7178
32383SOL    HW299157   9.058   9.777   2.520 -0.3319 -1.6527  0.1516
32384SOL     OW99158   9.018   7.467   0.781  0.1924 -0.3549 -0.4849
32384SOL    HW199159   9.105   7.481   0.818  0.2576 -0.4770 -0.5926
32384SOL    HW299160   8.990   7.382   0.815  0.6293 -0.9002 -1.4361
32385SOL     OW99161   6.352   7.928   0.715  0.2092  0.4915  0.4092
32385SOL    HW199162   6.294   8.003   0.706 -0.7027 -0.3780 -1.1396
32385SOL    HW299163   6.440   7.966   0.715 -0.2669  1.6330  0.7473
32386SOL     OW99164   9.487  10.638   8.690 -0.0339  0.2295  0.3819
32386SOL    HW199165   9.533  10.631   8.606 -1.8555  0.1246 -0.6535
32386SOL    HW299166   9.512  10.558   8.738  0.7168  0.1016 -0.2062
32387SOL     OW99167   5.526   2.454   5.740 -0.0161 -0.1402 -0.0722
32387SOL    HW199168   5.568   2.394   5.802 -0.2419  0.1262  0.3370
32387SOL    HW299169   5.437   2.464   5.772  0.0481  0.4912 -0.0845
32388SOL     OW99170   9.617   7.559   8.164 -0.1759 -0.3489  0.0565
32388SOL    HW199171   9.580   7.507   8.093 -1.2013  0.8669 -0.3589
32388SOL    HW299172   9.553   7.630   8.176 -0.6504 -1.1391  2.9790
32389SOL     OW99173   6.313  10.877   5.523  0.2637  0.7342  0.0774
32389SOL    HW199174   6.395  10.920   5.500  0.4113  0.6947  0.5028
32389SOL    HW299175   6.246  10.944   5.512  0.3747  0.8137 -0.1176
32390SOL     OW99176  10.689   0.601   3.318 -0.7609 -0.2807  0.0477
32390SOL    HW199177  10.677   0.509   3.341 -0.5438  0.0081  1.3949
32390SOL    HW299178  10.637   0.613   3.239  0.8194 -2.0344 -1.3222
32391SOL     OW99179   6.760   1.982   4.063  0.6138 -0.0242 -0.1090
32391SOL    HW199180   6.734   2.046   3.996 -1.4043 -0.7422 -0.0761
32391SOL    HW299181   6.797   1.909   4.013  1.3642  0.4364 -0.2503
32392SOL     OW99182   2.225   2.297   9.952  0.3327  0.6146  0.1939
32392SOL    HW199183   2.164   2.263   9.886  0.0939 -0.2748  0.8479
32392SOL    HW299184   2.171   2.305  10.031  1.1282 -0.5263  0.8783
32393SOL     OW99185   8.221   9.294   3.372 -0.2017 -0.2082 -0.2369
32393SOL    HW199186   8.227   9.307   3.278  1.3325 -0.7080 -0.2362
32393SOL    HW299187   8.208   9.199   3.382  1.5257 -0.4560  0.0643
32394SOL     OW99188   4.071   5.783   0.704 -0.3551 -0.0041  0.3261
32394SOL    HW199189   4.114   5.801   0.788 -0.2714  1.5701 -0.0351
32394SOL    HW299190   4.102   5.695   0.681  0.9270  0.1930  1.1571
32395SOL     OW99191   8.778   8.477   8.557 -0.1414 -0.1588  0.2856
32395SOL    HW199192   8.772   8.526   8.475  0.4931 -1.3290 -0.4863
32395SOL    HW299193   8.701   8.420   8.557 -0.8889  0.8134  1.1887
32396SOL     OW99194   0.999   7.601   3.357  0.2623  0.3737 -0.5980
32396SOL    HW199195   0.937   7.639   3.294 -1.0687  0.9181  0.9599
32396SOL    HW299196   1.081   7.648   3.341  0.3324 -0.3342 -2.6907
32397SOL     OW99197   1.052   1.923   9.786 -0.0275 -0.8899 -0.1252
32397SOL    HW199198   0.973   1.917   9.732 -0.8237  0.3374  0.8461
32397SOL    HW299199   1.088   2.009   9.765  0.9711 -1.3619 -0.4155
32398SOL     OW99200   8.085   7.339   9.363 -0.3910  0.2238  0.5648
32398SOL    HW199201   8.065   7.265   9.421 -1.8579  1.0767  1.1907
32398SOL    HW299202   8.168   7.373   9.396 -0.8377  0.2419  1.7190
32399SOL     OW99203   8.173   8.387   1.256  0.4463 -0.3158  0.0136
32399SOL    HW199204   8.168   8.417   1.347 -1.2544  1.0131 -0.4604
32399SOL    HW299205   8.216   8.301   1.262 -0.8796 -0.9318  2.2490
32400SOL     OW99206  10.625   5.085   6.800 -0.6053 -0.5446  0.4884
32400SOL    HW199207  10.690   5.117   6.864  2.3428 -1.0423 -2.0014
32400SOL    HW299208  10.618   5.155   6.736 -1.9654 -0.8532  0.2716
32401SOL     OW99209   7.797   8.648   3.967  0.1448  0.1220 -0.1308
32401SOL    HW199210   7.772   8.596   4.043  0.9564 -0.0911 -0.0037
32401SOL    HW299211   7.892   8.656   3.973  0.1644  0.5319 -0.8498
32402SOL     OW99212   5.610   4.911   8.934 -0.2491 -0.0648 -0.1731
32402SOL    HW199213   5.698   4.938   8.960 -0.2796 -0.5092  0.4099
32402SOL    HW299214   5.560   4.993   8.929  0.7416  0.4997 -2.7805
32403SOL     OW99215   7.373   9.547   1.625 -0.2713  0.1135 -0.1351
32403SOL    HW199216   7.363   9.586   1.538 -0.0888 -1.0281 -0.6845
32403SOL    HW299217   7.432   9.606   1.671  0.3166  0.2736 -1.0790
32404SOL     OW99218  10.464   4.621   0.800  0.5871  0.2583  0.1135
32404SOL    HW199219  10.549   4.599   0.760  0.7319 -1.7781  1.3792
32404SOL    HW299220  10.471   4.587   0.889 -1.3254  0.6934  0.4574
32405SOL     OW99221   9.395   8.650   1.170  0.7708  0.6038  0.2493
32405SOL    HW199222   9.463   8.640   1.236  0.4771  0.3297  0.5147
32405SOL    HW299223   9.412   8.579   1.107 -1.0555 -1.4689  1.9060
32406SOL     OW99224   6.399  10.792   7.927  0.2003 -0.1124  1.0295
32406SOL    HW199225   6.445  10.710   7.946 -1.2639 -0.9428  1.1248
32406SOL    HW299226   6.356  10.815   8.009 -2.1356 -1.0958  0.1809
32407SOL     OW99227   2.255   1.747   1.776  0.1322 -0.4649 -0.7624
32407SOL    HW199228   2.228   1.655   1.766  1.4247 -1.0049  0.3843
32407SOL    HW299229   2.302   1.749   1.859  1.7071  0.8464 -1.6312
32408SOL     OW99230   0.876   3.245   9.892  0.3282 -0.1494 -0.3101
32408SOL    HW199231   0.799   3.215   9.845 -1.1065  1.6657  0.7630
32408SOL    HW299232   0.903   3.325   9.847  1.8493 -0.9269 -0.8797
32409SOL     OW99233  10.013   1.764   6.663 -0.2787 -0.0804  0.0242
32409SOL    HW199234  10.028   1.695   6.728  3.4405  0.7082  0.2268
32409SOL    HW299235  10.063   1.839   6.696 -1.5241  1.6550 -1.8171
32410SOL     OW99236   6.877   4.530   5.843 -0.7507 -0.2713  0.1340
32410SOL    HW199237   6.863   4.551   5.936  2.5876 -0.4103  0.7825
32410SOL    HW299238   6.920   4.608   5.807  1.4509 -1.5953 -0.2652
32411SOL     OW99239  10.076   5.154   2.781 -0.1243  0.4572  0.0874
32411SOL    HW199240  10.115   5.177   2.865 -1.6602  1.0039  0.7004
32411SOL    HW299241  10.031   5.234   2.753 -2.1606 -0.5687  0.2526
32412SOL     OW99242   4.235   6.659  10.141 -0.2363 -0.0518  0.6287
32412SOL    HW199243   4.289   6.737  10.152  4.1886 -2.3490 -1.8563
32412SOL    HW299244   4.197   6.668  10.054 -0.9950 -0.0116  0.9576
32413SOL     OW99245   1.437   3.356   7.048  0.0298  0.2202 -0.6667
32413SOL    HW199246   1.360   3.320   7.004 -0.2677  1.4821 -1.2245
32413SOL    HW299247   1.440   3.312   7.132 -0.6178 -0.7018 -1.1084
32414SOL     OW99248   4.133   6.855   3.682 -0.2548  0.0499 -0.0182
32414SOL    HW199249   4.123   6.947   3.706  1.3758  0.6420 -1.3680
32414SOL    HW299250   4.216   6.852   3.634 -0.6890 -1.9766 -0.7536
32415SOL     OW99251   8.615   3.481   4.790 -0.5866  0.3672 -0.1036
32415SOL    HW199252   8.569   3.434   4.860  0.3147  1.5379  1.3485
32415SOL    HW299253   8.707   3.469   4.811 -0.2946  0.5278 -1.2706
32416SOL     OW99254   2.816   6.583   8.799  0.6108  0.4147  0.4947
32416SOL    HW199255   2.822   6.660   8.855  1.0544  0.0476  0.9611
32416SOL    HW299256   2.744   6.602   8.739 -0.3357  0.5367  1.6340
32417SOL     OW99257   3.629  10.094   1.238 -0.3418  0.6185 -0.0721
32417SOL    HW199258   3.707  10.073   1.187 -1.1730 -2.4214 -0.2762
32417SOL    HW299259   3.660  10.097   1.329  0.0780 -0.3663 -0.1739
32418SOL     OW99260  10.280   4.599   2.936  0.2483 -0.7496 -0.8016
32418SOL    HW199261  10.265   4.615   2.843 -0.8505  1.7817 -0.2795
32418SOL    HW299262  10.208   4.644   2.980  0.6459 -2.0070  1.2965
32419SOL     OW99263  10.201   9.938   7.689  0.2928  0.6944  0.0412
32419SOL    HW199264  10.231   9.982   7.609 -0.6147  0.4087 -0.4839
32419SOL    HW299265  10.203   9.844   7.666  1.5773  0.4956  0.9186
32420SOL     OW99266   7.550   3.206   5.796 -0.1391 -0.6197  0.5545
32420SOL    HW199267   7.495   3.262   5.741 -1.3328 -1.2227  1.0867
32420SOL    HW299268   7.488   3.165   5.857  1.1954  0.6174  2.8949
32421SOL     OW99269   5.543   2.792   1.457 -0.2241 -0.6708 -0.4955
32421SOL    HW199270   5.560   2.872   1.507 -0.2387 -0.5936 -0.6135
32421SOL    HW299271   5.521   2.727   1.523 -0.0330 -0.6243 -0.3851
32422SOL     OW99272   1.124   6.342   3.351 -0.0914  0.2116  0.8015
32422SOL    HW199273   1.066   6.351   3.275  0.3339 -0.2032  0.4205
32422SOL    HW299274   1.212   6.343   3.314  0.1546  1.0281  1.3983
32423SOL     OW99275   8.082   9.201   7.080 -0.2435 -0.1831 -0.1687
32423SOL    HW199276   8.152   9.155   7.127 -1.6217 -1.1353  1.0186
32423SOL    HW299277   8.069   9.149   7.000  0.3388 -0.0353 -0.3665
32424SOL     OW99278   7.568   1.720   5.648  0.2052 -0.1100  0.9605
32424SOL    HW199279   7.563   1.638   5.599  0.2971 -0.0191  0.7967
32424SOL    HW299280   7.478   1.739   5.673 -0.2579  1.2083 -1.4422
32425SOL     OW99281   4.418   8.437   9.949 -0.0955 -0.2403 -0.6636
32425SOL    HW199282   4.512   8.419   9.950  0.7651  3.3442 -0.4771
32425SOL    HW299283   4.381   8.379  10.015  1.9054 -1.9816 -0.9743
32426SOL     OW99284   6.464   7.195   1.981  0.1751 -0.2144  0.2394
32426SOL    HW199285   6.398   7.262   1.962  1.1115  1.6581  3.0293
32426SOL    HW299286   6.469   7.144   1.900 -2.1428  1.7181 -1.2815
32427SOL     OW99287  10.851   6.976   0.151  0.1580  0.0291 -0.2618
32427SOL    HW199288  10.894   7.045   0.099  0.3814 -0.4541 -0.7228
32427SOL    HW299289  10.877   6.996   0.241  0.3554  0.4576 -0.4080
32428SOL     OW99290   4.280   6.243   9.406  0.1296  0.6437 -0.6970
32428SOL    HW199291   4.218   6.176   9.378  0.7831 -0.5310  0.5602
32428SOL    HW299292   4.308   6.285   9.324 -2.1344  1.0906 -1.3068
32429SOL     OW99293   9.680   2.010   8.729  0.2851  0.5788  0.2597
32429SOL    HW199294   9.585   2.017   8.742  0.6294  2.1869  2.5018
32429SOL    HW299295   9.708   1.943   8.791  0.7436  1.0227  0.5443
32430SOL     OW99296   5.545   8.696   6.782  0.5652  0.3349  0.4188
32430SOL    HW199297   5.491   8.636   6.731  0.3223  1.3886 -0.6111
32430SOL    HW299298   5.482   8.749   6.831  0.7226  0.5268  0.4156
32431SOL     OW99299   3.794   2.925   6.930  0.2647 -0.2089  0.2016
32431SOL    HW199300   3.784   2.861   6.860  0.1888  1.1070 -1.0373
32431SOL    HW299301   3.832   3.002   6.887  0.7935  0.4288  1.7336
32432SOL     OW99302   4.401   3.912   7.705  0.5353 -0.1538 -0.0392
32432SOL    HW199303   4.369   3.964   7.778 -1.1189  0.0199 -0.8392
32432SOL    HW299304   4.405   3.823   7.739 -0.7392 -0.1609  0.1346
32433SOL     OW99305   7.109  10.959   5.092  0.0140 -0.2055  0.7002
32433SOL    HW199306   7.021  10.931   5.067 -0.1165  0.6860  0.1326
32433SOL    HW299307   7.149  10.988   5.010  0.9422 -0.8638  0.9080
32434SOL     OW99308   4.389   2.656   9.108  0.0472 -0.2756  0.4172
32434SOL    HW199309   4.367   2.563   9.112  1.8718 -0.7289  1.0506
32434SOL    HW299310   4.394   2.683   9.199 -1.2965  0.6963  0.2312
32435SOL     OW99311   3.936   9.934   3.657 -0.4098  0.0278  0.3389
32435SOL    HW199312   3.889   9.856   3.688 -0.9431  0.5347  0.8211
32435SOL    HW299313   4.014   9.937   3.712 -0.2234 -0.3474  0.1006
32436SOL     OW99314   6.688   5.210  10.223 -0.1406  0.3146 -0.3791
32436SOL    HW199315   6.705   5.256  10.140 -1.2429  0.2019 -0.6841
32436SOL    HW299316   6.770   5.165  10.242  1.0041  2.3978 -0.0524
32437SOL     OW99317   1.594   0.844   8.260  0.5805 -0.6350  0.6910
32437SOL    HW199318   1.557   0.919   8.307  1.9623  1.8592 -1.8288
32437SOL    HW299319   1.521   0.809   8.209  0.2970  0.2986  0.4211
32438SOL     OW99320   4.052  11.056   6.072 -0.7957  0.7932 -0.5228
32438SOL    HW199321   4.052  11.112   5.994  2.4501  2.0775  0.2021
32438SOL    HW299322   4.108  10.982   6.048 -1.3876  0.1629 -0.0035
32439SOL     OW99323   9.170   4.304   4.370  0.0841 -0.3293  0.2422
32439SOL    HW199324   9.079   4.280   4.353 -0.2779  0.3963  1.1056
32439SOL    HW299325   9.171   4.399   4.368  1.0768 -0.3375 -0.9582
32440SOL     OW99326   9.552   7.858   2.691 -0.1253 -0.3200 -0.7549
32440SOL    HW199327   9.548   7.951   2.715  0.6296 -0.6157  0.6241
32440SOL    HW299328   9.552   7.858   2.595  1.2602  1.2021 -0.8020
32441SOL     OW99329   9.313   5.953   7.543 -0.4984  0.0703 -0.1623
32441SOL    HW199330   9.371   6.007   7.597  0.9977 -2.7300  1.2484
32441SOL    HW299331   9.228   5.958   7.587 -0.1155  0.4227  0.5504
32442SOL     OW99332   4.184   7.112   3.750 -0.0870  0.2853 -0.0325
32442SOL    HW199333   4.269   7.099   3.792  0.8377  0.3407 -1.7852
32442SOL    HW299334   4.189   7.200   3.713 -0.1715 -0.3452 -1.6554
32443SOL     OW99335   4.653   2.871   8.750  0.6773  0.3440 -0.1130
32443SOL    HW199336   4.717   2.878   8.678 -0.0341 -0.1676 -0.8158
32443SOL    HW299337   4.637   2.777   8.757 -0.0327  0.4772  0.0289
32444SOL     OW99338   0.928   2.845   8.198 -0.5700  0.6336  0.3445
32444SOL    HW199339   0.914   2.836   8.292  0.2716  0.9022  0.5036
32444SOL    HW299340   0.983   2.923   8.189  0.7309 -0.3122 -0.2308
32445SOL     OW99341   4.988   4.518  10.782 -0.2259  0.0890 -0.5828
32445SOL    HW199342   4.923   4.543  10.848  0.9090  0.0809  0.5678
32445SOL    HW299343   4.936   4.500  10.703 -1.6988 -0.6616  0.5057
32446SOL     OW99344   5.924   4.159   1.339  0.4619 -0.0147 -0.1731
32446SOL    HW199345   5.854   4.118   1.289  0.9649 -0.4714 -0.5132
32446SOL    HW299346   5.895   4.249   1.352  0.4142  0.1659 -1.4454
32447SOL     OW99347   1.881   4.182   6.551 -0.0599  0.3309 -0.0157
32447SOL    HW199348   1.841   4.260   6.513  1.2795  0.2999 -1.6045
32447SOL    HW299349   1.834   4.109   6.512  1.2743  0.3006 -1.6865
32448SOL     OW99350   9.014   2.066  10.774  0.3350 -0.3362 -0.0835
32448SOL    HW199351   8.987   2.146  10.729  0.2479  0.0322  0.6103
32448SOL    HW299352   8.958   2.062  10.851  0.7700 -0.7278  0.2178
32449SOL     OW99353   0.509   3.223  10.285 -0.2946 -0.2509  0.8084
32449SOL    HW199354   0.558   3.294  10.243  0.8133 -1.1460  0.5664
32449SOL    HW299355   0.541   3.221  10.375  0.4231 -1.1003  0.5430
32450SOL     OW99356   3.654   7.167   9.046 -0.3621 -0.1710 -0.2925
32450SOL    HW199357   3.623   7.257   9.036  0.3343 -0.0617 -1.6120
32450SOL    HW299358   3.747   7.170   9.023 -0.2319 -1.1697  0.0273
32451SOL     OW99359   5.469   3.489   2.210  0.1052  0.1284 -0.5235
32451SOL    HW199360   5.408   3.541   2.261  0.5575  0.5940 -0.4576
32451SOL    HW299361   5.413   3.425   2.165 -0.5346  1.1216 -1.1783
32452SOL     OW99362   1.514  10.380   1.229 -0.0617  0.4065 -0.0864
32452SOL    HW199363   1.589  10.439   1.222  0.2731  0.0226  0.2631
32452SOL    HW299364   1.496  10.374   1.322 -1.5720  1.7885 -0.2508
32453SOL     OW99365   8.674   7.630   8.433 -0.1307 -0.2526  0.2486
32453SOL    HW199366   8.654   7.605   8.523  1.1755 -0.6891  0.4472
32453SOL    HW299367   8.759   7.588   8.415 -0.0906  0.3087 -0.9841
32454SOL     OW99368   6.074   9.115   9.933 -0.0329 -0.8285 -0.2513
32454SOL    HW199369   6.120   9.075   9.859  0.8184 -0.3795  0.0198
32454SOL    HW299370   6.054   9.204   9.904 -0.2232 -0.8423 -0.1609
32455SOL     OW99371   1.361   1.144   8.129 -0.2570  0.0253 -0.1703
32455SOL    HW199372   1.326   1.220   8.082  1.6521  0.8439 -0.3768
32455SOL    HW299373   1.442   1.123   8.083 -0.4181 -1.7670  0.2866
32456SOL     OW99374   6.208   0.511   7.170 -0.4055 -0.4336 -0.8799
32456SOL    HW199375   6.174   0.571   7.237 -1.4928 -0.9208 -0.9712
32456SOL    HW299376   6.302   0.509   7.185 -0.3138  1.4519 -0.9969
32457SOL     OW99377   9.996   7.462   6.810 -0.1298 -0.4208  0.3658
32457SOL    HW199378   9.916   7.480   6.760 -0.4321 -1.2013  0.5537
32457SOL    HW299379  10.017   7.546   6.852 -1.3929 -0.4250  1.0700
32458SOL     OW99380   4.261   8.954   3.539  0.2544 -0.3098 -0.1726
32458SOL    HW199381   4.205   8.980   3.465  1.0414  0.9508 -0.3561
32458SOL    HW299382   4.323   8.891   3.501  0.7428  0.4341 -0.6475
32459SOL     OW99383   9.799   1.679  10.021 -0.2941 -0.2508  0.6329
32459SOL    HW199384   9.826   1.591   9.993 -0.7133 -0.6200  1.3440
32459SOL    HW299385   9.706   1.669  10.044 -1.2158  1.0593 -2.1284
32460SOL     OW99386  10.460   8.842   5.414 -0.4663 -0.2775  0.9219
32460SOL    HW199387  10.390   8.906   5.430  0.2149  0.2920  1.7092
32460SOL    HW299388  10.538   8.895   5.399 -0.1408 -0.9127  0.3391
32461SOL     OW99389   3.280   3.778   6.196  0.0514  0.7236  0.1138
32461SOL    HW199390   3.249   3.810   6.281 -0.4508  0.6061 -0.0215
32461SOL    HW299391   3.328   3.698   6.217 -2.3244 -0.8375  0.0811
32462SOL     OW99392   1.842   8.880   8.888 -0.8136 -0.1684  0.6601
32462SOL    HW199393   1.913   8.826   8.853 -0.5380  0.0445  0.8816
32462SOL    HW299394   1.857   8.881   8.983 -0.1742  1.1611  0.5761
32463SOL     OW99395   7.137   5.619   0.311 -0.3092  0.3814  0.0053
32463SOL    HW199396   7.179   5.600   0.395 -0.9417 -1.0282  0.0408
32463SOL    HW299397   7.193   5.684   0.270  0.5464  0.3621  1.1073
32464SOL     OW99398   4.690  10.358   6.330  0.0992  0.5532 -0.1137
32464SOL    HW199399   4.612  10.354   6.385 -0.0026 -0.2355 -0.2966
32464SOL    HW299400   4.657  10.344   6.241  0.5794 -1.1339 -0.0548
32465SOL     OW99401   7.061   2.254   6.988 -0.1610 -0.2893  0.1656
32465SOL    HW199402   7.007   2.258   6.909 -0.3327 -0.7076  0.2590
32465SOL    HW299403   7.051   2.164   7.019  2.4085 -1.1264 -1.1136
32466SOL     OW99404   1.834  10.716   9.612  0.0347  0.6695 -0.2452
32466SOL    HW199405   1.743  10.689   9.596  0.2545 -0.1665 -0.1129
32466SOL    HW299406   1.854  10.684   9.700 -0.4955  3.4404  1.0223
32467SOL     OW99407   0.560   3.723   9.993  0.1787 -0.5551  0.5253
32467SOL    HW199408   0.626   3.781   9.954  0.9986 -0.7380  1.6140
32467SOL    HW299409   0.525   3.674   9.918  1.8435 -1.0237  0.0185
32468SOL     OW99410   1.920   3.014   8.900 -0.1066  0.2922 -0.2615
32468SOL    HW199411   1.834   3.055   8.911 -0.1981 -0.1473  0.7995
32468SOL    HW299412   1.924   2.949   8.970  1.3558  0.7511  0.1117
32469SOL     OW99413   8.136   2.601   4.927  0.0857 -0.5211  0.2664
32469SOL    HW199414   8.156   2.669   4.862  0.6046 -1.1634 -0.2681
32469SOL    HW299415   8.208   2.607   4.990 -0.5970  0.3286  0.9871
32470SOL     OW99416   4.340   2.066   1.447  0.0353  0.1716  0.2984
32470SOL    HW199417   4.388   2.148   1.451 -0.5065  0.5335 -0.4221
32470SOL    HW299418   4.350   2.028   1.535 -0.8236  1.6460  1.0697
32471SOL     OW99419   3.689   4.580   3.313 -0.3349  0.3691  0.2876
32471SOL    HW199420   3.773   4.569   3.359 -0.3399 -0.7649  0.0699
32471SOL    HW299421   3.629   4.521   3.360 -0.4788 -0.3976 -0.8086
32472SOL     OW99422   6.486   2.992   6.343  0.6371  0.2726  0.1701
32472SOL    HW199423   6.514   3.030   6.426  1.3763 -0.4978  0.2919
32472SOL    HW299424   6.391   3.003   6.342  0.7950  1.7967  0.3402
32473SOL     OW99425  10.687   6.473   4.260 -0.1751  0.7051  0.1677
32473SOL    HW199426  10.593   6.489   4.249 -0.1602  0.6964  0.0209
32473SOL    HW299427  10.699   6.463   4.354 -0.5491 -0.6977  0.0870
32474SOL     OW99428   7.502   6.551   1.371  0.0450  0.2438  0.4782
32474SOL    HW199429   7.573   6.608   1.341 -0.6104  0.6998 -0.2768
32474SOL    HW299430   7.429   6.612   1.386  0.0344 -0.1154  2.0025
32475SOL     OW99431   7.071   2.310   9.095 -0.6939 -0.2296 -0.1035
32475SOL    HW199432   7.048   2.277   9.182  0.4176 -2.2721 -0.5040
32475SOL    HW299433   7.002   2.275   9.037 -1.4010  1.0772 -0.0762
32476SOL     OW99434   4.083   1.149   0.550  0.5132  0.0885  0.2310
32476SOL    HW199435   4.090   1.076   0.489  1.3693  0.6764 -0.4082
32476SOL    HW299436   4.038   1.217   0.500  1.3755  0.6365  0.1631
32477SOL     OW99437   7.288   5.063   0.733 -0.1336 -0.5708 -0.1258
32477SOL    HW199438   7.365   5.019   0.769 -0.7328 -0.8855  0.7783
32477SOL    HW299439   7.307   5.069   0.639  0.3849 -1.8983 -0.1368
32478SOL     OW99440  10.989   2.031   9.699 -0.4135  0.0766  0.4519
32478SOL    HW199441  10.966   2.101   9.761 -0.7818  0.4714 -0.1155
32478SOL    HW299442  11.000   1.953   9.754  1.2393  0.8166  1.2625
32479SOL     OW99443   6.408   9.396  10.591  0.0806  0.2502  1.0353
32479SOL    HW199444   6.415   9.492  10.589  0.9377  0.1735  0.4074
32479SOL    HW299445   6.397   9.370  10.500 -3.2207 -0.0646  1.3701
32480SOL     OW99446   3.357   7.283   8.592  0.0749  0.0992  0.1672
32480SOL    HW199447   3.349   7.199   8.548  0.4492  0.9345 -1.5520
32480SOL    HW299448   3.416   7.266   8.666  0.0111 -1.1702 -0.0589
32481SOL     OW99449   4.488   6.380   4.048 -0.5367  0.1635 -0.4537
32481SOL    HW199450   4.433   6.388   4.126  1.2620 -1.8629  1.1419
32481SOL    HW299451   4.576   6.366   4.082  0.2836 -1.0885 -2.8620
32482SOL     OW99452   2.195   5.606   0.436 -0.3294  0.2345 -0.1507
32482SOL    HW199453   2.108   5.596   0.474  0.2469  0.4561  1.2847
32482SOL    HW299454   2.249   5.638   0.508  0.8291  0.5992 -1.1541
32483SOL     OW99455   0.779   1.568   5.952 -0.4564 -0.5526  0.2881
32483SOL    HW199456   0.775   1.619   5.871  2.7895 -1.4419 -0.5944
32483SOL    HW299457   0.751   1.480   5.927  1.0125 -0.9533 -0.0944
32484SOL     OW99458   4.807   1.822   9.592 -0.4045  0.6320  0.1290
32484SOL    HW199459   4.719   1.848   9.621 -0.0471  1.2247  0.7159
32484SOL    HW299460   4.837   1.762   9.660 -0.9330 -0.7757 -0.8441
32485SOL     OW99461   7.661  10.181   4.186  0.1054 -0.0594  0.2259
32485SOL    HW199462   7.680  10.250   4.123 -0.2619  0.0176  0.1984
32485SOL    HW299463   7.568  10.162   4.174  0.1153 -0.2879  0.5020
32486SOL     OW99464   0.488   2.101  10.200  0.1582 -0.2528  0.2173
32486SOL    HW199465   0.436   2.033  10.243 -0.4952  0.1484  0.0646
32486SOL    HW299466   0.519   2.156  10.272 -0.2502 -0.0598  0.2482
32487SOL     OW99467   7.498   7.776   6.738 -0.5324 -0.1374  0.0381
32487SOL    HW199468   7.453   7.723   6.803 -0.7523  1.1196  0.9465
32487SOL    HW299469   7.558   7.831   6.788  1.5180 -1.2314 -1.0785
32488SOL     OW99470   9.584  11.044  10.143 -0.0373 -0.0237 -0.5645
32488SOL    HW199471   9.510  11.019  10.199 -0.2504  0.8966 -0.4154
32488SOL    HW299472   9.543  11.085  10.067  0.3185  2.0366  0.2772
32489SOL     OW99473   3.471   4.332   3.160 -0.6032  0.2553  0.2165
32489SOL    HW199474   3.501   4.301   3.245  0.1095  1.8134  0.5831
32489SOL    HW299475   3.551   4.365   3.118 -0.8568 -0.9628 -1.2825
32490SOL     OW99476  10.028   7.089   0.388  0.6200  0.3998  0.3377
32490SOL    HW199477  10.099   7.042   0.432 -0.4817  0.4894  2.3238
32490SOL    HW299478   9.963   7.105   0.457 -0.0230  2.9285 -0.7539
32491SOL     OW99479   5.039   7.565   8.883 -0.2546  0.1258 -0.2239
32491SOL    HW199480   5.112   7.608   8.839  1.1401 -0.9720  0.9110
32491SOL    HW299481   5.000   7.508   8.817  1.1962 -0.7726 -0.3270
32492SOL     OW99482   3.324   6.479   1.106  0.0100  0.3733 -0.1658
32492SOL    HW199483   3.264   6.527   1.163  0.3216  0.8165 -0.2084
32492SOL    HW299484   3.274   6.401   1.079 -0.7084  0.9585 -0.5579
32493SOL     OW99485   9.585   9.459   2.121  0.0882 -0.3826  0.0414
32493SOL    HW199486   9.644   9.487   2.051 -0.1762  1.0290  0.3464
32493SOL    HW299487   9.638   9.398   2.173  0.4308 -1.1113 -1.1073
32494SOL     OW99488   8.075   1.666   3.796 -0.2666 -0.1020 -0.6235
32494SOL    HW199489   7.988   1.656   3.756  0.0588  0.4772 -1.4880
32494SOL    HW299490   8.059   1.656   3.890 -1.2067 -0.4082 -0.8049
32495SOL     OW99491   9.026  10.005   3.846  0.1001 -0.3383  0.1959
32495SOL    HW199492   9.052   9.923   3.805  0.0341  0.5026 -1.6177
32495SOL    HW299493   8.931  10.000   3.853  0.1470 -0.6563  0.6594
32496SOL     OW99494   1.971   0.225   0.954 -0.0155  0.0880 -0.0703
32496SOL    HW199495   2.055   0.259   0.983  0.2473  1.2429 -1.9975
32496SOL    HW299496   1.906   0.283   0.994  0.2901  1.0944 -0.9908
32497SOL     OW99497   5.543   3.343   7.747  0.4455  0.5015 -0.0215
32497SOL    HW199498   5.515   3.391   7.824 -1.0699  1.4872 -1.1257
32497SOL    HW299499   5.611   3.398   7.708  2.3202 -0.7161  1.3411
32498SOL     OW99500   9.067   2.720   9.462 -0.3169 -0.0160 -0.0001
32498SOL    HW199501   9.066   2.625   9.473 -1.8406  0.0592  0.8722
32498SOL    HW299502   8.980   2.741   9.426  0.2026  0.9953 -0.7213
32499SOL     OW99503   5.123   5.236   8.387 -0.9045  0.0778 -0.4856
32499SOL    HW199504   5.175   5.272   8.316 -0.4299 -0.3435 -0.3564
32499SOL    HW299505   5.077   5.311   8.424 -0.8113  0.3663 -0.9484
32500SOL     OW99506   6.960   4.346   0.257  0.1933  0.0403  0.2514
32500SOL    HW199507   7.049   4.380   0.270  0.0803  0.5164 -0.2035
32500SOL    HW299508   6.962   4.259   0.298  0.9686 -0.0969 -0.0568
32501SOL     OW99509   8.809   7.711   0.063  0.3084 -0.8514  0.5514
32501SOL    HW199510   8.759   7.672   0.135  1.6108 -2.7974  0.4708
32501SOL    HW299511   8.898   7.718   0.096  0.5442 -0.0090 -0.2363
32502SOL     OW99512   8.680   0.948  10.754  0.2411  0.1469  0.0698
32502SOL    HW199513   8.717   1.027  10.714 -1.6702  0.8704 -0.3998
32502SOL    HW299514   8.595   0.977  10.789 -0.2164 -1.5642  0.4550
32503SOL     OW99515   3.510   1.508   5.846  0.1657  0.4806  0.5454
32503SOL    HW199516   3.593   1.497   5.798  0.8175  2.3274  1.1743
32503SOL    HW299517   3.497   1.424   5.890 -0.2614 -1.1853 -2.4518
32504SOL     OW99518   8.492   9.886   0.142  0.6067  0.6938 -0.2801
32504SOL    HW199519   8.533   9.972   0.141 -0.6836  1.3418  0.1535
32504SOL    HW299520   8.398   9.904   0.146  0.3221 -0.7333  0.0758
32505SOL     OW99521   4.296   1.815   0.291 -0.3007 -0.0462  0.3791
32505SOL    HW199522   4.204   1.799   0.273  0.0773 -0.4499 -1.3942
32505SOL    HW299523   4.299   1.902   0.330 -1.6095 -0.8978  2.5485
32506SOL     OW99524  10.953   5.067   2.360 -0.2887  0.1343 -0.2939
32506SOL    HW199525  10.902   5.148   2.355 -0.6919 -0.1010  0.0255
32506SOL    HW299526  10.918   5.011   2.291 -0.5975 -0.1041  0.0551
32507SOL     OW99527   4.525   1.354   6.351  0.2558 -0.2123 -0.1341
32507SOL    HW199528   4.438   1.362   6.311 -0.3441 -0.7806  1.0348
32507SOL    HW299529   4.585   1.370   6.278 -0.7927  2.0302 -0.6272
32508SOL     OW99530   4.392   6.966   8.043  0.2641 -0.4939  0.1918
32508SOL    HW199531   4.438   6.886   8.068  1.0054  0.0679  0.6642
32508SOL    HW299532   4.299   6.944   8.053  0.4811 -0.9942  1.2731
32509SOL     OW99533   9.667   6.878   2.605  0.4660 -0.2397 -0.6141
32509SOL    HW199534   9.679   6.784   2.618  1.4824 -0.1460 -0.8281
32509SOL    HW299535   9.642   6.886   2.513  0.3459 -0.3006 -0.5871
32510SOL     OW99536   9.736   6.779   4.891 -0.3299  0.2241  0.1722
32510SOL    HW199537   9.799   6.841   4.927 -0.9089  0.4039  0.9008
32510SOL    HW299538   9.775   6.693   4.906 -0.0599  0.3551  0.2244
32511SOL     OW99539   5.004   8.369  11.016  0.7433 -0.7407 -0.3266
32511SOL    HW199540   5.019   8.443  10.957  0.7156 -0.4014  0.0790
32511SOL    HW299541   5.013   8.291  10.961 -0.1182 -0.4126 -0.9540
32512SOL     OW99542   6.161   1.735  10.105 -0.4313  0.0304  0.4616
32512SOL    HW199543   6.181   1.764  10.016 -0.9044  0.7982  0.5953
32512SOL    HW299544   6.246   1.711  10.143 -0.1206  0.5420  0.0927
32513SOL     OW99545  10.563   8.030  10.469 -0.9757  0.0189  0.1530
32513SOL    HW199546  10.595   8.023  10.559  2.7141  1.0528 -0.9295
32513SOL    HW299547  10.545   7.939  10.443  0.7588 -0.6136  1.0258
32514SOL     OW99548   8.473   3.431   4.009  0.1798 -0.8018 -0.1066
32514SOL    HW199549   8.488   3.499   3.944 -1.4133  0.2932  0.6010
32514SOL    HW299550   8.485   3.474   4.094 -0.3172 -1.5173  0.3501
32515SOL     OW99551   1.030   2.257   4.450 -0.0082 -0.1413  0.1679
32515SOL    HW199552   0.954   2.305   4.482 -0.8963 -0.3347 -1.5646
32515SOL    HW299553   0.996   2.170   4.429  1.0689 -0.7787  0.9661
32516SOL     OW99554   6.810   6.736   9.396 -0.5666  0.2207 -0.0952
32516SOL    HW199555   6.872   6.684   9.346 -0.4680 -0.9760  1.2009
32516SOL    HW299556   6.854   6.752   9.480 -1.4127  0.6076  0.2887
32517SOL     OW99557   9.699   0.289  10.293  0.7624  0.4988  0.0032
32517SOL    HW199558   9.768   0.231  10.260  1.1561  0.4156  0.9299
32517SOL    HW299559   9.676   0.251  10.378  0.0924  0.9600  0.0313
32518SOL     OW99560   1.207   6.262  10.701 -0.3426 -0.0173 -0.2903
32518SOL    HW199561   1.147   6.255  10.775 -0.9174  2.0108 -0.4988
32518SOL    HW299562   1.274   6.325  10.730 -1.1767  1.6614 -1.8068
32519SOL     OW99563   4.701  10.723  10.067  0.4206 -0.0689  0.0653
32519SOL    HW199564   4.644  10.671  10.010 -1.7997 -0.3332  2.3445
32519SOL    HW299565   4.787  10.681  10.059  0.0800 -0.4450 -2.5482
32520SOL     OW99566   5.356   8.819   8.262 -0.4840 -0.1152  0.2821
32520SOL    HW199567   5.373   8.725   8.271 -0.1225  0.1251  3.0250
32520SOL    HW299568   5.430   8.862   8.304 -1.0590  1.3922 -0.1565
32521SOL     OW99569  10.103   2.945  10.736 -0.0241  0.1233 -0.5019
32521SOL    HW199570  10.100   2.950  10.640  0.7112  1.9899 -0.4825
32521SOL    HW299571  10.108   2.852  10.756  0.7262 -0.2607 -2.3191
32522SOL     OW99572   1.543   2.232   8.848 -0.3616  0.4012  0.2271
32522SOL    HW199573   1.634   2.211   8.824 -0.3938 -1.5634  1.6865
32522SOL    HW299574   1.504   2.149   8.873 -2.7220  1.1453 -0.6755
32523SOL     OW99575   4.509   1.875   5.260  0.3875  0.1278  0.1020
32523SOL    HW199576   4.568   1.846   5.329 -0.8797  0.8110  1.5123
32523SOL    HW299577   4.566   1.920   5.197  1.7622 -1.7390 -0.0592
32524SOL     OW99578   5.366   4.126   8.254 -0.4296  0.0614 -0.1528
32524SOL    HW199579   5.427   4.164   8.192 -0.5850  0.6354  0.0401
32524SOL    HW299580   5.296   4.191   8.262 -0.0401  0.3545  1.1832
32525SOL     OW99581   8.381   2.326   2.861  0.3375 -0.2263 -0.1907
32525SOL    HW199582   8.419   2.338   2.948 -0.5442  0.3617  0.1306
32525SOL    HW299583   8.391   2.233   2.843  0.6744 -0.3256  0.4738
32526SOL     OW99584   8.868   8.704   9.445 -0.1901  0.1980 -0.2868
32526SOL    HW199585   8.900   8.743   9.364  1.8246 -1.5065 -0.3985
32526SOL    HW299586   8.808   8.634   9.418 -0.9412  0.7990 -0.2130
32527SOL     OW99587   7.805   7.317   8.401  0.2915  0.2271  0.2907
32527SOL    HW199588   7.746   7.290   8.331  2.0464  0.5658 -1.4041
32527SOL    HW299589   7.879   7.257   8.395  1.1975  1.2578  0.8044
32528SOL     OW99590   5.558  10.102   6.422  0.0965  0.0736  0.1297
32528SOL    HW199591   5.548  10.166   6.352  1.7552  0.8455  0.5328
32528SOL    HW299592   5.558  10.154   6.502 -0.0061 -0.5920  0.5657
32529SOL     OW99593   7.255   7.089   8.200  0.0903  0.0997  0.2296
32529SOL    HW199594   7.276   7.052   8.286  1.2869 -1.0699 -0.5175
32529SOL    HW299595   7.182   7.148   8.216  0.4781  0.1271  2.0927
32530SOL     OW99596   2.460   6.271   8.427  0.2195 -0.1623  0.4909
32530SOL    HW199597   2.522   6.251   8.497  0.2855 -1.6657  0.0435
32530SOL    HW299598   2.433   6.361   8.444  2.6458  0.6251  0.5944
32531SOL     OW99599   2.058   6.039   3.335 -0.3052 -0.3354 -0.3045
32531SOL    HW199600   2.151   6.050   3.353 -0.0804  1.3289 -2.1250
32531SOL    HW299601   2.031   5.967   3.392  1.5072  0.7475  2.1063
32532SOL     OW99602  10.408   0.820   4.283  0.0018 -0.3794  0.1992
32532SOL    HW199603  10.329   0.832   4.337 -0.3221 -1.3406 -0.0297
32532SOL    HW299604  10.392   0.873   4.206 -0.2090 -0.1813  0.3770
32533SOL     OW99605   6.389   7.061   0.200  0.3160  0.1329  0.0509
32533SOL    HW199606   6.345   7.141   0.229  2.6201  1.4992 -0.0411
32533SOL    HW299607   6.452   7.042   0.269  1.0048 -0.5878 -0.7539
32534SOL     OW99608   6.001  10.868   3.286 -0.2216 -0.1456  0.0562
32534SOL    HW199609   5.941  10.893   3.216 -0.1024 -0.9537 -0.3519
32534SOL    HW299610   5.953  10.800   3.335 -0.5124  0.7747  1.0878
32535SOL     OW99611   1.968   5.451   1.436 -0.4176 -0.3818 -0.0026
32535SOL    HW199612   1.901   5.415   1.495 -0.1567  1.5377  1.5710
32535SOL    HW299613   1.932   5.536   1.409  0.5691 -0.1516 -0.6312
32536SOL     OW99614   0.032   8.189   8.015  0.1586 -0.4479  0.5289
32536SOL    HW199615   0.019   8.257   7.948  1.8666 -1.4462 -0.8942
32536SOL    HW299616  -0.019   8.115   7.985  0.8545 -0.8716  0.3743
32537SOL     OW99617   7.073   0.077   7.335 -0.1691  0.1641 -0.3086
32537SOL    HW199618   7.019   0.140   7.383 -0.4323  0.8068 -1.4002
32537SOL    HW299619   7.145   0.129   7.301  1.2686 -0.7118  1.2503
32538SOL     OW99620   8.624   6.071   6.743  0.1288 -0.2933  0.0673
32538SOL    HW199621   8.611   6.101   6.833  0.3089 -1.6337  0.5590
32538SOL    HW299622   8.610   6.149   6.689  0.0310  0.5257  1.2547
32539SOL     OW99623   1.005   1.880   7.653 -0.5185  0.3387 -0.1321
32539SOL    HW199624   0.939   1.892   7.721 -0.3154  1.3989 -0.1035
32539SOL    HW299625   0.965   1.919   7.574 -0.5728 -0.4744 -0.5137
32540SOL     OW99626   4.457   1.557   8.885 -0.2873 -0.4299  0.4942
32540SOL    HW199627   4.505   1.630   8.922  0.2085 -0.2668 -0.4405
32540SOL    HW299628   4.523   1.489   8.871 -0.6390 -0.8429  0.8149
32541SOL     OW99629   8.132   1.392   8.364  0.0433  0.4417  0.2891
32541SOL    HW199630   8.094   1.448   8.295  2.5733  2.0590  0.0764
32541SOL    HW299631   8.096   1.427   8.445 -2.1869 -0.8435 -0.0666
32542SOL     OW99632   2.840   3.641   4.476  0.7089 -0.3335 -0.2505
32542SOL    HW199633   2.791   3.580   4.419  1.4909 -0.3372 -0.9321
32542SOL    HW299634   2.772   3.691   4.521  0.0623 -1.0099 -0.4505
32543SOL     OW99635   9.448   4.164   3.839 -0.0877  0.0314  0.0477
32543SOL    HW199636   9.507   4.089   3.831  1.4762  1.2125 -0.0933
32543SOL    HW299637   9.451   4.187   3.932  0.4145  0.6637 -0.1240
32544SOL     OW99638   6.907   0.678   5.176 -0.3886  0.4088  0.0711
32544SOL    HW199639   6.984   0.680   5.120  0.8597  1.9213  1.7048
32544SOL    HW299640   6.916   0.755   5.232 -2.3979 -0.1225  1.2408
32545SOL     OW99641  10.632   9.155   0.442  0.1574  0.4720 -0.5695
32545SOL    HW199642  10.708   9.134   0.496  0.8738  1.3624 -1.2008
32545SOL    HW299643  10.661   9.137   0.353 -0.8353 -0.4681 -0.7273
32546SOL     OW99644   0.048   6.671   5.306  0.7851  0.2309 -0.6512
32546SOL    HW199645   0.113   6.729   5.345 -1.9946  2.0750  1.6277
32546SOL    HW299646   0.019   6.615   5.377 -0.4617 -0.2174 -1.4685
32547SOL     OW99647   4.085   3.705   9.933 -0.0677 -0.3828  0.7330
32547SOL    HW199648   4.123   3.673   9.851  1.0203  1.1365  0.5928
32547SOL    HW299649   4.015   3.644   9.953 -0.1946 -0.9329 -1.2104
32548SOL     OW99650   8.304   6.208   6.272 -0.3591 -0.3747  0.2813
32548SOL    HW199651   8.395   6.182   6.288  0.6278  2.4563 -0.1054
32548SOL    HW299652   8.270   6.229   6.359  0.8018  2.5054  0.1694
32549SOL     OW99653   5.765   2.264   2.229 -0.0064 -0.1268  0.0401
32549SOL    HW199654   5.835   2.290   2.170 -0.6497  0.1203 -0.6217
32549SOL    HW299655   5.785   2.309   2.311  0.3825  0.2675 -0.2703
32550SOL     OW99656   7.019   1.018   2.347  0.2426 -0.7800 -0.6957
32550SOL    HW199657   6.980   1.105   2.340 -0.2306 -0.9708 -0.4634
32550SOL    HW299658   6.945   0.959   2.360  0.5891 -1.1780 -0.5010
32551SOL     OW99659   4.422   8.620   9.311 -0.2386  0.0268 -0.1345
32551SOL    HW199660   4.407   8.641   9.218 -4.5208  0.1443  0.3762
32551SOL    HW299661   4.441   8.704   9.352  0.3978  0.1635 -0.6940
32552SOL     OW99662  11.039   2.097   4.604  0.0422 -0.4577 -0.3655
32552SOL    HW199663  11.084   2.108   4.687 -1.3049 -0.5856  0.4119
32552SOL    HW299664  10.962   2.044   4.626  1.0159 -2.8129 -2.1388
32553SOL     OW99665   1.944   8.362   7.014  0.0254  0.4296 -0.0317
32553SOL    HW199666   2.000   8.294   7.051 -0.9224  0.3362  1.3090
32553SOL    HW299667   2.005   8.430   6.983  0.8788  0.2882  1.2861
32554SOL     OW99668   0.512   7.348   9.836 -0.8000  0.3290 -0.4663
32554SOL    HW199669   0.512   7.395   9.919 -0.2357 -0.4467 -0.0149
32554SOL    HW299670   0.523   7.416   9.769  1.0530  0.7529  0.2227
32555SOL     OW99671   3.935   9.649   8.570 -0.4310 -0.2484  0.0624
32555SOL    HW199672   3.862   9.621   8.625 -1.2246 -0.5653 -1.1186
32555SOL    HW299673   3.953   9.739   8.599 -0.1284 -0.7467  1.5324
32556SOL     OW99674   6.035   3.608   0.252  0.4451  1.0040  0.0640
32556SOL    HW199675   6.005   3.537   0.195  1.4840 -1.3419  2.2154
32556SOL    HW299676   5.990   3.686   0.219 -1.4945 -0.7772 -1.8763
32557SOL     OW99677   0.029   4.841   2.373  0.2839 -0.1646 -0.1487
32557SOL    HW199678   0.004   4.932   2.393  1.8781  0.1090  0.6978
32557SOL    HW299679  -0.048   4.790   2.398 -0.1184  0.8196  0.7233
32558SOL     OW99680   6.811   6.641   0.419  0.2865 -0.3433 -0.7970
32558SOL    HW199681   6.856   6.712   0.373 -0.4382 -0.3104 -1.4767
32558SOL    HW299682   6.813   6.567   0.358  0.9447 -0.8879 -0.1363
32559SOL     OW99683   9.976   1.554  10.996 -0.4420 -0.2662 -0.1163
32559SOL    HW199684   9.923   1.632  10.979  0.7450  0.5362 -0.3070
32559SOL    HW299685   9.999   1.522  10.909  2.3509  1.5315 -0.1589
32560SOL     OW99686   5.401   8.311   5.434  0.2009  0.2735  0.2785
32560SOL    HW199687   5.431   8.225   5.402  0.9980  1.0773 -1.2806
32560SOL    HW299688   5.477   8.368   5.423 -0.0010  0.9707  2.2693
32561SOL     OW99689   9.033   5.363  10.532  0.4130 -0.2464  0.0745
32561SOL    HW199690   9.111   5.340  10.583  0.3287  0.9412  0.7876
32561SOL    HW299691   9.021   5.457  10.549  0.2567  0.1322 -1.9769
32562SOL     OW99692   4.796   4.956   7.713 -0.0101  1.0009  0.3454
32562SOL    HW199693   4.769   5.043   7.744  2.6184  2.3163 -0.7526
32562SOL    HW299694   4.753   4.947   7.628 -2.0738  0.1683  1.3981
32563SOL     OW99695   9.025   4.440   4.722  0.4559 -0.0614 -0.3252
32563SOL    HW199696   9.026   4.535   4.710 -0.1387 -0.0694 -0.4838
32563SOL    HW299697   8.948   4.424   4.776 -0.4576 -0.6041 -1.7245
32564SOL     OW99698   9.296   5.851   0.977  0.4547 -0.3185 -0.1321
32564SOL    HW199699   9.207   5.820   0.960  0.7695 -1.9882  1.0622
32564SOL    HW299700   9.286   5.909   1.053  0.0275  1.8169 -1.7163
32565SOL     OW99701   9.317   4.672   4.095  0.2091 -0.2378 -0.1104
32565SOL    HW199702   9.376   4.740   4.126  0.3116  0.3045 -1.4205
32565SOL    HW299703   9.368   4.592   4.097  0.5029 -0.0403  0.2229
32566SOL     OW99704   9.525   7.163   9.402  0.7893  0.1221 -0.4035
32566SOL    HW199705   9.513   7.200   9.490 -0.6048  1.8991 -1.2553
32566SOL    HW299706   9.619   7.160   9.389  0.9953  0.6307  0.8557
32567SOL     OW99707   6.555   4.286   0.650 -0.4078  0.5322  0.6602
32567SOL    HW199708   6.601   4.222   0.596 -0.6439 -1.8916  3.0932
32567SOL    HW299709   6.560   4.367   0.600  1.5187 -0.9225 -1.7785
32568SOL     OW99710   3.863   8.402  10.475  0.6737 -0.2370  0.0132
32568SOL    HW199711   3.866   8.323  10.420  1.4441 -1.2349  1.4120
32568SOL    HW299712   3.912   8.467  10.426 -0.9588 -0.2364 -1.7115
32569SOL     OW99713   3.977   4.324   2.430  0.4598 -0.3380  0.3434
32569SOL    HW199714   3.900   4.271   2.409  0.9395 -0.4018 -1.4143
32569SOL    HW299715   3.941   4.407   2.463 -0.3947 -0.0887 -1.1389
32570SOL     OW99716   8.785   6.717   6.810 -0.1504 -0.3030  0.7133
32570SOL    HW199717   8.711   6.687   6.757  0.7344 -0.0317 -0.7366
32570SOL    HW299718   8.788   6.657   6.884 -2.2227  0.0940  1.1681
32571SOL     OW99719   9.597   6.302   7.088  0.1143  0.7786 -0.3584
32571SOL    HW199720   9.630   6.381   7.044 -0.9296  1.2764 -0.2940
32571SOL    HW299721   9.510   6.289   7.049 -0.3594  0.5727  0.7488
32572SOL     OW99722   9.594   8.030   3.372 -0.3210  0.3095 -0.2968
32572SOL    HW199723   9.673   8.078   3.400 -0.0064 -0.2775 -0.1585
32572SOL    HW299724   9.614   8.002   3.282 -0.5161  0.4677 -0.3883
32573SOL     OW99725   5.925   3.834   8.458  0.4753  0.2735 -0.0709
32573SOL    HW199726   6.020   3.828   8.450  0.6289  2.6370 -0.9186
32573SOL    HW299727   5.908   3.927   8.475 -1.5969 -0.3659  1.9112
32574SOL     OW99728   8.319   5.841   4.332  0.4121 -0.2178 -0.1470
32574SOL    HW199729   8.326   5.909   4.399  1.5099 -2.1078  1.8013
32574SOL    HW299730   8.238   5.795   4.353  1.4196 -1.6594  0.8335
32575SOL     OW99731   4.470   4.420   2.684 -0.2537  0.6334  0.3675
32575SOL    HW199732   4.422   4.338   2.693 -0.9559  0.6416 -2.3836
32575SOL    HW299733   4.561   4.397   2.700 -0.5589 -0.4621  0.5996
32576SOL     OW99734   6.912   8.475   0.384 -0.3555  0.1462  0.3929
32576SOL    HW199735   6.913   8.526   0.303  0.6638  0.5373  0.6397
32576SOL    HW299736   6.837   8.508   0.433 -0.7636  0.1591 -0.2286
32577SOL     OW99737   5.914   5.984   1.259 -0.3114  0.4624 -0.4332
32577SOL    HW199738   5.896   5.911   1.200 -1.1668  0.5574 -0.3024
32577SOL    HW299739   5.831   6.001   1.302  0.8315 -1.5716  3.0696
32578SOL     OW99740   4.234   1.738  10.010 -0.0818  0.1534 -0.7093
32578SOL    HW199741   4.220   1.821  10.054  1.8366 -0.1318  0.5806
32578SOL    HW299742   4.327   1.738   9.988 -0.5748 -0.5347 -3.1719
32579SOL     OW99743   8.251   3.274   7.767 -0.1855  0.6149  0.1225
32579SOL    HW199744   8.244   3.269   7.672  1.5299  3.0383 -0.2282
32579SOL    HW299745   8.180   3.219   7.799  0.9543 -2.7080 -2.4636
32580SOL     OW99746   5.949   3.165  10.972  0.2448 -0.3551 -0.0969
32580SOL    HW199747   5.878   3.149  11.034  1.2345  0.3031  1.2695
32580SOL    HW299748   6.021   3.110  11.003  0.4470 -0.7750 -1.2716
32581SOL     OW99749   6.750   9.664   1.860  0.4576 -0.4729 -0.8502
32581SOL    HW199750   6.795   9.639   1.941 -0.4580  1.8414  0.4978
32581SOL    HW299751   6.787   9.750   1.839 -0.6266 -0.2314 -1.8557
32582SOL     OW99752   2.147   7.151   9.215 -0.4829  0.1854  0.2215
32582SOL    HW199753   2.170   7.061   9.239  0.1565  0.3810  0.3635
32582SOL    HW299754   2.158   7.201   9.296  2.4305  0.9865 -0.5481
32583SOL     OW99755  11.013   6.559   1.413  0.8319 -0.5768 -0.2293
32583SOL    HW199756  11.068   6.490   1.376  1.9149  1.9030 -3.8625
32583SOL    HW299757  11.061   6.590   1.490  1.3761 -2.3902  0.2116
32584SOL     OW99758   7.135   7.250   0.128 -0.3688 -0.3989  0.0767
32584SOL    HW199759   7.216   7.301   0.125 -0.4448 -0.3034 -0.9056
32584SOL    HW299760   7.065   7.316   0.126 -0.4739 -0.4889  0.6648
32585SOL     OW99761   4.923   6.989   8.194  0.0462  0.4042  0.0686
32585SOL    HW199762   4.857   6.960   8.257  0.6177  1.8903  1.4098
32585SOL    HW299763   4.917   6.926   8.122 -3.1704  0.7596 -0.0956
32586SOL     OW99764   7.168   7.005   1.916 -0.0383 -0.1336  0.4814
32586SOL    HW199765   7.081   7.037   1.891  0.5042  0.3490 -0.8828
32586SOL    HW299766   7.168   6.912   1.894  0.0691  0.0559 -0.3535
32587SOL     OW99767   8.331   4.518   1.665 -0.6694 -0.0200  0.1714
32587SOL    HW199768   8.368   4.519   1.753  0.8564  0.7776 -0.4326
32587SOL    HW299769   8.372   4.442   1.623 -0.0589  0.5953 -0.3623
32588SOL     OW99770   6.063   3.450   9.845  0.5041  0.2911  0.1890
32588SOL    HW199771   5.971   3.462   9.823  0.0375 -1.2481  1.1303
32588SOL    HW299772   6.106   3.529   9.812 -1.5547  2.3999  2.1142
32589SOL     OW99773   3.318   9.365   1.951  0.0105 -0.4723 -0.2932
32589SOL    HW199774   3.383   9.322   1.895  2.1533  2.6263 -0.4054
32589SOL    HW299775   3.370   9.410   2.018 -2.0100  1.8144 -0.1289
32590SOL     OW99776   7.459   9.785   5.113  0.2002 -0.2140 -0.6011
32590SOL    HW199777   7.384   9.737   5.077  0.4243 -0.4229 -0.7894
32590SOL    HW299778   7.420   9.846   5.176 -0.1427 -0.2160 -0.8095
32591SOL     OW99779   9.122  10.233   9.947  0.4468 -0.1598  0.4190
32591SOL    HW199780   9.112  10.247  10.042 -0.8565  0.7122  0.1865
32591SOL    HW299781   9.186  10.163   9.940  0.2698 -0.5209  1.9656
32592SOL     OW99782   2.888   6.923   6.209  0.9002 -0.2414 -0.0411
32592SOL    HW199783   2.938   6.849   6.244  1.0197  0.1822  0.6946
32592SOL    HW299784   2.840   6.958   6.284 -0.9920 -0.9945 -0.8255
32593SOL     OW99785   3.556   4.726   9.893  0.4255  0.0509 -0.0581
32593SOL    HW199786   3.624   4.793   9.887  0.3739  0.0019 -1.3926
32593SOL    HW299787   3.603   4.645   9.909  0.5825  0.2108  0.2935
32594SOL     OW99788   4.181   9.856   9.279 -0.2512  0.6504 -0.0731
32594SOL    HW199789   4.207   9.919   9.347 -1.5207  1.0849  0.0419
32594SOL    HW299790   4.143   9.783   9.328 -0.8031  0.7867 -0.2939
32595SOL     OW99791   1.818   3.170   9.673 -0.0268  0.3294  0.6175
32595SOL    HW199792   1.838   3.106   9.605 -2.0808  0.4422 -0.1733
32595SOL    HW299793   1.901   3.185   9.717  1.6912  1.0369 -2.5341
32596SOL     OW99794   5.503   2.727   1.048 -0.1641  0.1200  0.2116
32596SOL    HW199795   5.473   2.808   1.089  0.7331  0.2675  0.6056
32596SOL    HW299796   5.559   2.687   1.114 -0.4003 -0.7002 -0.0817
32597SOL     OW99797   9.727   6.276   1.378  0.2476  0.2783  0.2514
32597SOL    HW199798   9.670   6.353   1.373 -0.7112 -0.4714 -1.1282
32597SOL    HW299799   9.748   6.268   1.471 -0.9426  1.2737  0.6410
32598SOL     OW99800   8.045   2.140   5.195  0.3952  0.1663  0.1545
32598SOL    HW199801   7.998   2.059   5.176 -0.0027  0.6983 -1.2066
32598SOL    HW299802   8.129   2.130   5.151 -0.1305  0.9855 -1.0638
32599SOL     OW99803  10.925   2.203   6.391 -0.4806  0.1158 -0.0247
32599SOL    HW199804  10.934   2.276   6.453  1.3881 -0.1276  0.0348
32599SOL    HW299805  10.843   2.161   6.417 -1.3383  1.8682  0.2687
32600SOL     OW99806   1.098   5.470   4.823  0.2471  0.7624  0.1586
32600SOL    HW199807   1.147   5.495   4.746  0.7620 -2.9643 -0.9332
32600SOL    HW299808   1.164   5.437   4.885 -0.4619 -0.1005  0.4914
32601SOL     OW99809   7.877   3.184   7.542  0.0392 -0.0164  0.2059
32601SOL    HW199810   7.830   3.202   7.624  0.3117 -1.4418  0.6953
32601SOL    HW299811   7.808   3.159   7.480 -0.2142  1.4582 -0.1519
32602SOL     OW99812   9.255   7.391   1.857 -0.6058  0.1792 -0.2619
32602SOL    HW199813   9.316   7.347   1.916  0.1618 -0.2344 -1.3171
32602SOL    HW299814   9.216   7.320   1.806 -1.1343  0.5349 -0.3502
32603SOL     OW99815   6.207   8.152   8.764  0.3243 -0.4021  0.1605
32603SOL    HW199816   6.241   8.114   8.683 -0.2312  1.9497 -1.2721
32603SOL    HW299817   6.284   8.185   8.810  0.4821  0.1157 -0.4600
32604SOL     OW99818   0.142   8.685   7.432 -0.8357 -0.3698  0.0201
32604SOL    HW199819   0.224   8.644   7.406 -1.5945 -0.7052 -2.0123
32604SOL    HW299820   0.134   8.761   7.375 -2.7625 -1.3480 -1.1092
32605SOL     OW99821   2.848  10.611   5.712  0.2571  0.2289  0.4028
32605SOL    HW199822   2.866  10.532   5.662 -1.5082  0.0741 -0.0666
32605SOL    HW299823   2.856  10.583   5.804 -0.9062 -0.6830  0.2586
32606SOL     OW99824   1.321   1.136   9.762 -0.3322 -0.4006 -0.3445
32606SOL    HW199825   1.340   1.211   9.705 -0.3801  0.3116  0.5620
32606SOL    HW299826   1.362   1.062   9.718  0.3685  0.2857 -0.8678
32607SOL     OW99827   8.271   4.363   3.583 -0.0524 -0.0189 -0.4029
32607SOL    HW199828   8.306   4.427   3.521  0.2752 -0.5111 -0.7425
32607SOL    HW299829   8.338   4.355   3.650  0.1790 -0.4345 -0.6754
32608SOL     OW99830   5.242   9.310  10.207 -0.8460  0.7575 -0.6300
32608SOL    HW199831   5.211   9.340  10.292 -0.6647  2.1183 -1.0100
32608SOL    HW299832   5.225   9.384  10.148 -0.0643  0.2168 -1.5679
32609SOL     OW99833   9.579   4.064  10.208 -0.6329  0.1294 -1.0982
32609SOL    HW199834   9.559   3.987  10.261 -1.3445  1.6243  0.8861
32609SOL    HW299835   9.511   4.065  10.140 -1.5283 -0.1676 -0.2248
32610SOL     OW99836   1.457   8.365   8.265 -0.5727  0.0769 -0.1607
32610SOL    HW199837   1.543   8.389   8.231 -0.4078  1.9453  1.3865
32610SOL    HW299838   1.471   8.284   8.314  0.3208  0.3745  0.0928
32611SOL     OW99839  11.072   0.840   9.293  0.3935  0.4318 -0.1425
32611SOL    HW199840  11.060   0.801   9.379  0.9183  0.3573 -0.1027
32611SOL    HW299841  11.138   0.784   9.250 -1.3458 -0.8102 -1.3651
32612SOL     OW99842   4.248   4.109   0.909  0.0222 -0.0303  0.0988
32612SOL    HW199843   4.250   4.024   0.865 -0.1410  0.6102 -1.1846
32612SOL    HW299844   4.328   4.153   0.881 -1.1158  1.2435 -1.3871
32613SOL     OW99845  10.709   7.341   9.484  0.2180 -0.3292 -0.1886
32613SOL    HW199846  10.723   7.282   9.409  1.7759 -0.8007  0.4355
32613SOL    HW299847  10.632   7.392   9.459  1.3187  0.2972 -2.6084
32614SOL     OW99848   8.310  10.443   4.879  0.3563  0.2060  0.0589
32614SOL    HW199849   8.386  10.454   4.822  1.7427 -1.6692  1.3967
32614SOL    HW299850   8.338  10.479   4.963  0.5599 -2.1765  1.0988
32615SOL     OW99851   9.165   7.171   4.719 -0.2920  0.9223 -0.5000
32615SOL    HW199852   9.145   7.198   4.629  3.0814  2.0907 -1.0463
32615SOL    HW299853   9.219   7.092   4.708  0.4123  1.2594  0.4721
32616SOL     OW99854  10.463   4.298   0.821  0.3037  0.2037  0.0592
32616SOL    HW199855  10.494   4.333   0.905  3.2695  1.7223 -1.4882
32616SOL    HW299856  10.508   4.215   0.812  0.1508  0.1411 -0.1200
32617SOL     OW99857   4.247   0.855   4.436 -0.5566 -0.1486  0.1334
32617SOL    HW199858   4.326   0.855   4.490 -0.8309  1.6877  0.5807
32617SOL    HW299859   4.176   0.838   4.497 -0.8020  1.2698  0.2517
32618SOL     OW99860   6.672   2.803   9.869  0.1651 -0.6505 -0.2197
32618SOL    HW199861   6.710   2.835   9.788 -0.0870 -1.2244 -0.5756
32618SOL    HW299862   6.601   2.744   9.841 -0.5042 -0.1767  0.4142
32619SOL     OW99863   7.771   5.642   6.519  0.4738 -0.2926 -0.2977
32619SOL    HW199864   7.698   5.652   6.458  1.0624 -0.0232 -0.9671
32619SOL    HW299865   7.849   5.659   6.467  0.9839  0.0621  0.5568
32620SOL     OW99866   2.929   5.278   4.337  0.3271 -0.1549 -0.4979
32620SOL    HW199867   2.962   5.339   4.270 -0.3040 -0.7414 -1.3757
32620SOL    HW299868   2.854   5.323   4.376  0.4413  0.0195 -0.4802
32621SOL     OW99869  10.477   4.597   4.758  0.3351  0.0147  0.5131
32621SOL    HW199870  10.404   4.535   4.749 -1.6675  2.1764  0.7917
32621SOL    HW299871  10.509   4.609   4.669 -1.9773  1.5349 -0.2277
32622SOL     OW99872   8.820   7.991   6.209 -0.1126 -0.2640 -0.2115
32622SOL    HW199873   8.833   7.988   6.115  1.5997  0.6262 -0.0566
32622SOL    HW299874   8.878   8.061   6.239 -1.7318  0.5006  1.3468
32623SOL     OW99875  10.143   4.686   5.354  0.1313  0.3551  0.3812
32623SOL    HW199876  10.146   4.781   5.341 -0.7334  0.5867  1.6794
32623SOL    HW299877  10.234   4.661   5.368  0.5501  0.7500 -1.3570
32624SOL     OW99878   7.967   1.646   0.720  0.2896 -0.0595 -0.1095
32624SOL    HW199879   8.022   1.622   0.795  0.1205  0.3590  0.1524
32624SOL    HW299880   7.911   1.569   0.706  1.5599 -0.8696 -0.9721
32625SOL     OW99881   0.661   5.748   1.211 -0.4058 -0.2575  0.8324
32625SOL    HW199882   0.632   5.787   1.294 -1.1891 -0.3695  0.6255
32625SOL    HW299883   0.584   5.701   1.179 -0.5897  0.9622 -0.6553
32626SOL     OW99884   1.857  10.002   7.845  0.0200 -0.2490  0.7798
32626SOL    HW199885   1.799   9.970   7.914  0.0579 -1.1322  0.4199
32626SOL    HW299886   1.945   9.996   7.883  0.1720 -1.9740  0.2389
32627SOL     OW99887   7.648   9.463   9.983 -0.1256  0.4200 -0.4564
32627SOL    HW199888   7.602   9.381  10.000  2.2615 -0.8628  0.0765
32627SOL    HW299889   7.696   9.448   9.902 -0.8335  1.8681 -1.1971
32628SOL     OW99890  10.794   8.258   8.602  0.0254 -0.1103 -0.5864
32628SOL    HW199891  10.733   8.203   8.552  1.1573 -0.4422 -1.6449
32628SOL    HW299892  10.741   8.334   8.628 -1.0228 -0.7145 -0.8697
32629SOL     OW99893   3.562   4.890   2.315 -0.2814 -0.1865  0.1940
32629SOL    HW199894   3.484   4.946   2.314  0.2112  0.5199  0.1631
32629SOL    HW299895   3.563   4.852   2.403 -0.6892 -0.2478  0.1753
32630SOL     OW99896   8.356   5.190   2.435  0.2144  0.3470 -0.0890
32630SOL    HW199897   8.261   5.186   2.425 -0.0797 -0.5916  2.2529
32630SOL    HW299898   8.382   5.270   2.389 -1.6831  0.5851 -0.8406
32631SOL     OW99899   6.952   0.976   0.208 -0.4481 -0.2820  0.0710
32631SOL    HW199900   7.039   0.998   0.242 -0.8630 -0.1240  1.0709
32631SOL    HW299901   6.924   1.054   0.159  0.2991 -0.6415 -0.9633
32632SOL     OW99902   8.952   6.289   0.754  0.1740  0.1542  0.7405
32632SOL    HW199903   9.012   6.302   0.681 -2.4019  2.7710 -1.1377
32632SOL    HW299904   8.997   6.326   0.829  1.4107  0.9272 -0.3376
32633SOL     OW99905   5.029   2.494   2.224 -0.1264 -0.0472  0.1127
32633SOL    HW199906   5.076   2.479   2.142 -1.0637  2.5060 -0.9883
32633SOL    HW299907   4.939   2.512   2.197 -1.0828 -1.6665  1.9427
32634SOL     OW99908   5.814   0.548   8.822 -0.4748 -0.1100  0.2969
32634SOL    HW199909   5.805   0.627   8.874  0.1641 -0.4664  0.9598
32634SOL    HW299910   5.742   0.492   8.851  1.2838 -1.3055  2.6273
32635SOL     OW99911   9.199   5.131   3.568  0.4241 -0.5398  0.0287
32635SOL    HW199912   9.251   5.197   3.613  0.8429 -0.9880  0.2161
32635SOL    HW299913   9.151   5.087   3.639  1.5295 -1.6415  0.1332
32636SOL     OW99914   2.947   2.104   7.448  0.0921 -0.2917  0.2358
32636SOL    HW199915   2.907   2.070   7.528 -0.1550  2.3062  1.3053
32636SOL    HW299916   2.879   2.158   7.407  0.4871 -0.9121 -1.3190
32637SOL     OW99917   8.112  10.468   1.728 -0.0945  0.0917 -0.2036
32637SOL    HW199918   8.104  10.563   1.720  2.5259  0.4571  0.5831
32637SOL    HW299919   8.154  10.441   1.647 -0.4027 -0.3454 -0.2214
32638SOL     OW99920   5.104   2.818   3.608  0.0512  0.0962 -0.0962
32638SOL    HW199921   5.009   2.828   3.606  0.1219  0.7257 -0.6188
32638SOL    HW299922   5.122   2.772   3.690 -0.7109 -0.1164 -0.0481
32639SOL     OW99923   5.677   4.433   1.149  0.3951  0.4789  0.0077
32639SOL    HW199924   5.612   4.363   1.160  1.1050 -0.1169  0.5158
32639SOL    HW299925   5.630   4.502   1.102 -0.2986 -0.3733 -0.5849
32640SOL     OW99926   0.184   8.848   5.759 -0.0087  0.4912  0.0496
32640SOL    HW199927   0.191   8.920   5.696 -0.0868  1.1235  0.7537
32640SOL    HW299928   0.201   8.769   5.707  0.8692  1.0704 -0.5749
32641SOL     OW99929   1.296   0.743   3.635 -0.2551 -0.3235  0.1332
32641SOL    HW199930   1.302   0.829   3.594  1.5453 -0.2277  0.5078
32641SOL    HW299931   1.384   0.726   3.668 -0.6439 -2.1769  0.3488
32642SOL     OW99932   9.960   6.583   5.011  0.0549  0.2785 -0.1560
32642SOL    HW199933  10.045   6.540   5.001 -0.4449 -0.9885  0.8397
32642SOL    HW299934   9.904   6.517   5.052 -1.1334  1.4335  0.1434
32643SOL     OW99935   1.742   9.997   9.954  0.4113  0.8630  0.0525
32643SOL    HW199936   1.781  10.080   9.927 -0.9723  1.1789 -1.0860
32643SOL    HW299937   1.651  10.019   9.977  0.8458  0.2005  2.8795
32644SOL     OW99938   6.212  10.722   3.246 -0.0493 -0.0660  0.0770
32644SOL    HW199939   6.219  10.717   3.151  0.8710  0.2347  0.1223
32644SOL    HW299940   6.141  10.785   3.261 -0.4558 -0.3989 -0.4038
32645SOL     OW99941   5.966   0.433   8.297 -0.0756 -0.0824  0.1293
32645SOL    HW199942   6.056   0.466   8.295  0.1540 -0.5629  1.3684
32645SOL    HW299943   5.939   0.445   8.388 -1.9294  1.7419 -0.5931
32646SOL     OW99944   5.764   3.266   3.989  0.0732 -0.4385 -0.7936
32646SOL    HW199945   5.708   3.341   3.973 -0.0509 -0.9474 -3.1058
32646SOL    HW299946   5.798   3.279   4.077 -2.6956  0.5040  0.2207
32647SOL     OW99947   5.910   4.229   1.737 -0.3128  0.3907  0.1921
32647SOL    HW199948   5.918   4.293   1.808  2.6184 -0.2724  0.6052
32647SOL    HW299949   5.851   4.270   1.674  0.9576  3.2881  0.7166
32648SOL     OW99950  10.078   2.022   8.042 -0.2722 -0.2906  0.6885
32648SOL    HW199951  10.093   2.099   7.987 -1.3918 -0.2195  0.4480
32648SOL    HW299952  10.166   1.989   8.061  0.3177  1.8073  1.9315
32649SOL     OW99953   6.992   6.180   8.910 -0.6921 -0.0382  0.4606
32649SOL    HW199954   7.082   6.196   8.939 -0.2371 -1.0474 -0.3301
32649SOL    HW299955   6.937   6.223   8.976  0.3405  3.5861 -0.8139
32650SOL     OW99956   8.571   5.365   7.497 -0.5357  0.2342 -0.0756
32650SOL    HW199957   8.566   5.357   7.592  0.2231  1.4357  0.0877
32650SOL    HW299958   8.658   5.331   7.475  0.3094  2.1872 -0.0201
32651SOL     OW99959   7.801   2.564   1.723  0.6995 -0.0721 -0.7102
32651SOL    HW199960   7.801   2.639   1.783 -2.4222 -0.8071  0.3933
32651SOL    HW299961   7.738   2.587   1.655  1.0090 -1.0123 -1.3325
32652SOL     OW99962   8.933   8.026   4.202 -0.0673  0.0202  0.1980
32652SOL    HW199963   8.850   8.044   4.244  0.8545  2.0123  1.2884
32652SOL    HW299964   8.997   8.027   4.273  0.8525 -2.0619 -0.5281
32653SOL     OW99965  10.421   1.724   5.461 -0.5885 -0.4700  0.2942
32653SOL    HW199966  10.421   1.796   5.524 -0.2890 -0.0277 -0.2014
32653SOL    HW299967  10.333   1.724   5.424 -0.4531 -0.0406 -0.0470
32654SOL     OW99968   2.630   7.435   8.794  0.3490 -0.0478 -0.1838
32654SOL    HW199969   2.669   7.522   8.794 -0.7464  0.5091  1.5748
32654SOL    HW299970   2.669   7.391   8.870 -1.5608  0.1543  0.9777
32655SOL     OW99971   6.157   9.126   5.068  0.1662  0.0553  0.7553
32655SOL    HW199972   6.116   9.062   5.127  1.5385 -2.0739 -0.4601
32655SOL    HW299973   6.092   9.142   5.000 -1.2168  2.1078  2.4405
32656SOL     OW99974   0.108  10.390  10.031 -0.1946 -0.0502  0.5514
32656SOL    HW199975   0.100  10.420   9.941  0.4153  0.9023  0.7925
32656SOL    HW299976   0.051  10.314  10.037 -1.8857  1.1054 -0.0912
32657SOL     OW99977   7.440   2.124   7.856  0.3867 -0.5606  0.3921
32657SOL    HW199978   7.408   2.174   7.931  0.1734 -1.4378  0.9002
32657SOL    HW299979   7.508   2.067   7.892  2.2239  0.9336 -0.5845
32658SOL     OW99980  10.813   3.294   7.642  0.2258 -0.0645  0.2268
32658SOL    HW199981  10.861   3.322   7.719 -0.4184  0.0136  0.6027
32658SOL    HW299982  10.741   3.240   7.676 -1.1298  1.4297 -0.1710
32659SOL     OW99983   2.266   7.084   6.773  0.2253  1.0226  0.1779
32659SOL    HW199984   2.306   7.168   6.794 -0.9406  1.6203  0.0817
32659SOL    HW299985   2.198   7.105   6.708 -0.3162  0.0591  0.4145
32660SOL     OW99986   5.873   2.162   3.857  0.2793 -0.3905  0.5728
32660SOL    HW199987   5.865   2.255   3.836 -0.4816 -0.5944 -0.1280
32660SOL    HW299988   5.878   2.119   3.772 -1.2213 -1.1245  0.8174
32661SOL     OW99989  10.454   5.643   7.208  0.2477  0.0552 -0.2104
32661SOL    HW199990  10.471   5.703   7.280  1.7540  1.7632 -1.8753
32661SOL    HW299991  10.359   5.629   7.209  0.0488  1.3639  1.0614
32662SOL     OW99992   9.667  10.946   6.374  0.4988 -0.4801  0.5727
32662SOL    HW199993   9.719  11.021   6.347  0.2275  0.3281  2.1837
32662SOL    HW299994   9.721  10.870   6.353  1.1654  0.2013 -0.2393
32663SOL     OW99995   9.651   5.791   8.810 -0.8382 -0.7501  0.4317
32663SOL    HW199996   9.739   5.762   8.836 -0.7184 -0.3727  0.4476
32663SOL    HW299997   9.601   5.710   8.803  0.2818 -1.3282 -2.5061
32664SOL     OW99998   7.236   1.378   0.967  0.2883  0.6458 -0.5227
32664SOL    HW199999   7.214   1.470   0.974 -1.1930  0.3552 -1.0755
32664SOL    HW2    0   7.200   1.338   1.046 -1.0217  0.2144 -1.2990
32665SOL     OW    1   8.749   4.464   5.355  0.2593  0.2556  0.2730
32665SOL    HW1    2   8.767   4.556   5.370 -0.4409  0.3230  0.7594
32665SOL    HW2    3   8.832   4.428   5.324  0.8077  0.8460  1.0016
32666SOL     OW    4   2.163   6.598   3.423 -0.1372  0.0371 -0.2297
32666SOL    HW1    5   2.136   6.686   3.395 -0.6610  0.2778  0.9718
32666SOL    HW2    6   2.088   6.565   3.473  0.5619 -0.5769  0.4309
32667SOL     OW    7   7.368   4.579   9.378  0.2491 -0.2605 -0.6481
32667SOL    HW1    8   7.318   4.497   9.383  1.1449 -0.9006 -1.6077
32667SOL    HW2    9   7.373   4.609   9.469 -1.4579 -0.4073 -0.4697
32668SOL     OW   10   6.706   7.773   2.720  0.0991 -0.1273  0.0977
32668SOL    HW1   11   6.726   7.682   2.697  1.5735 -0.0053  0.7922
32668SOL    HW2   12   6.617   7.786   2.688 -0.0025 -1.6927 -0.3694
32669SOL     OW   13   4.985   1.492   5.961 -0.1139 -0.3944  0.1997
32669SOL    HW1   14   4.917   1.424   5.968  0.9905 -1.7074 -1.0516
32669SOL    HW2   15   4.938   1.574   5.974 -1.3918 -1.3861  2.4900
32670SOL     OW   16   2.617   3.033   3.194  0.2997 -0.4880 -0.1206
32670SOL    HW1   17   2.613   3.026   3.290  0.4678  1.6783  0.1036
32670SOL    HW2   18   2.551   3.100   3.173  0.4834 -0.7196 -1.4850
32671SOL     OW   19   7.335   5.854   1.154 -0.3988 -0.2255 -0.0853
32671SOL    HW1   20   7.420   5.813   1.136 -0.9180 -1.0858 -0.6869
32671SOL    HW2   21   7.278   5.781   1.180 -0.6149  0.5237  1.6689
32672SOL     OW   22   5.006   9.378   1.191 -0.1327 -0.0487  0.0347
32672SOL    HW1   23   4.923   9.370   1.237 -0.4028 -2.9396 -0.7497
32672SOL    HW2   24   5.049   9.294   1.204  0.8076 -0.1557 -2.9702
32673SOL     OW   25   2.728   4.373   1.587  0.4805  0.0906  0.5331
32673SOL    HW1   26   2.737   4.436   1.515  0.8345 -0.6692 -0.1041
32673SOL    HW2   27   2.789   4.404   1.653  1.3461 -0.0992 -0.1611
32674SOL     OW   28   6.565   0.662   2.345 -0.3425  0.2026  0.0524
32674SOL    HW1   29   6.503   0.591   2.362  0.7137 -0.7497 -0.0252
32674SOL    HW2   30   6.595   0.647   2.255  1.0339 -0.1589  0.5536
32675SOL     OW   31   6.891   1.911  10.475 -0.0511  0.4182  0.0011
32675SOL    HW1   32   6.879   1.953  10.390 -0.2128 -0.6410 -0.5120
32675SOL    HW2   33   6.985   1.919  10.492 -0.1115  1.1774  0.0275
32676SOL     OW   34   6.353   1.553   2.909  0.7324  0.3923 -0.1587
32676SOL    HW1   35   6.370   1.599   2.991  2.3607 -1.3223  0.5313
32676SOL    HW2   36   6.397   1.606   2.843  0.5347  1.0829  0.2418
32677SOL     OW   37   3.308  11.080   6.626  0.3000  0.0613  0.6459
32677SOL    HW1   38   3.378  11.145   6.627 -0.3433  0.8230 -0.6713
32677SOL    HW2   39   3.340  11.012   6.566 -0.7171  1.2189 -1.3090
32678SOL     OW   40   2.359   4.595   2.465  0.3440  0.2925  0.1859
32678SOL    HW1   41   2.271   4.569   2.494  0.6584 -0.9276  0.0691
32678SOL    HW2   42   2.418   4.538   2.513  1.1465  1.6294  0.8671
32679SOL     OW   43   4.174   2.927   6.655  0.3460 -0.2734  0.0283
32679SOL    HW1   44   4.268   2.943   6.643  0.3199  0.7901  1.0738
32679SOL    HW2   45   4.163   2.917   6.749 -0.5539 -0.7131 -0.1157
32680SOL     OW   46  10.443   1.851   1.016  0.2756 -0.3296 -0.4971
32680SOL    HW1   47  10.494   1.875   1.093 -1.7528  2.4048  0.1588
32680SOL    HW2   48  10.352   1.851   1.047 -0.5985  0.7779 -2.8410
32681SOL     OW   49   8.418   8.504   2.983 -0.1688  0.3234 -0.1107
32681SOL    HW1   50   8.466   8.474   2.906  0.0554 -0.6196  0.3812
32681SOL    HW2   51   8.332   8.531   2.949 -0.2071 -0.4292 -0.6533
32682SOL     OW   52   0.656   7.823   1.582 -0.1383 -0.2097 -0.2803
32682SOL    HW1   53   0.746   7.827   1.614  0.7728 -2.3986 -2.2403
32682SOL    HW2   54   0.665   7.820   1.487 -2.2310 -1.4584 -0.4903
32683SOL     OW   55   2.654   6.800   3.105  0.2346  0.1284  0.0901
32683SOL    HW1   56   2.577   6.818   3.159 -0.2132  0.4809 -0.6476
32683SOL    HW2   57   2.728   6.814   3.163 -0.1646  2.3358  0.1545
32684SOL     OW   58   6.015   9.814   2.554 -0.1270 -0.3634  0.0976
32684SOL    HW1   59   6.087   9.766   2.596  0.2360  1.2644  1.4357
32684SOL    HW2   60   6.028   9.799   2.460  1.5035 -0.7448  0.3503
32685SOL     OW   61   7.899   0.943   7.336 -0.3552  0.1081 -0.2855
32685SOL    HW1   62   7.862   1.031   7.350  1.1353  0.6343  0.5293
32685SOL    HW2   63   7.992   0.958   7.323  0.3246 -1.5020  2.0608
32686SOL     OW   64   3.751   7.867   1.043  0.1670  0.0096 -0.7909
32686SOL    HW1   65   3.677   7.921   1.071 -1.1283 -1.8875 -0.3380
32686SOL    HW2   66   3.813   7.929   1.004 -0.1982  2.1174  1.6918
32687SOL     OW   67   4.985   6.933   9.194  0.0756  0.2736  0.1024
32687SOL    HW1   68   4.993   7.026   9.215 -0.3582  0.4273 -0.3784
32687SOL    HW2   69   4.906   6.905   9.240  1.1426 -0.3022  1.6901
32688SOL     OW   70   6.971   5.230   1.243 -0.3332 -0.0835 -0.2295
32688SOL    HW1   71   6.983   5.279   1.324 -1.2291  1.2162 -0.8409
32688SOL    HW2   72   6.893   5.269   1.203  0.5604 -0.1240 -2.1114
32689SOL     OW   73   0.171   9.791   9.930 -0.4849 -0.1427  0.4817
32689SOL    HW1   74   0.134   9.737   9.860 -3.4082  0.2299  1.6354
32689SOL    HW2   75   0.225   9.856   9.884 -1.7951 -0.3060 -1.3910
32690SOL     OW   76   8.070   4.793   2.809 -0.3775 -0.3953 -0.3687
32690SOL    HW1   77   8.129   4.863   2.780 -1.4664  0.8549  0.3024
32690SOL    HW2   78   8.000   4.839   2.856 -0.0074 -2.1031  2.0446
32691SOL     OW   79   4.482   4.314   0.762 -0.3010  0.2737 -0.7538
32691SOL    HW1   80   4.461   4.400   0.798 -1.5495 -0.2827 -0.0958
32691SOL    HW2   81   4.527   4.269   0.833 -0.5354  0.0385 -0.7538
32692SOL     OW   82   9.389   8.740   4.777 -0.6343  0.0885 -0.5946
32692SOL    HW1   83   9.426   8.812   4.829 -2.8373  0.6376  0.3707
32692SOL    HW2   84   9.308   8.777   4.740 -1.4833 -1.6841 -0.6090
32693SOL     OW   85   7.777   2.972   8.941 -0.1145  0.5401  0.1511
32693SOL    HW1   86   7.836   2.980   8.867  1.1616 -0.7893  0.9681
32693SOL    HW2   87   7.701   3.026   8.918  0.9159  1.3830 -1.4176
32694SOL     OW   88   5.525   2.813   5.123  0.7157  0.3452 -0.0094
32694SOL    HW1   89   5.520   2.831   5.217  2.3848 -0.3631  0.2546
32694SOL    HW2   90   5.509   2.719   5.116 -0.8818  0.6468 -0.6092
32695SOL     OW   91   9.215   8.452  10.623 -0.5648  0.5422 -0.6999
32695SOL    HW1   92   9.264   8.529  10.596 -0.9553  0.8329 -0.5901
32695SOL    HW2   93   9.241   8.384  10.561  0.6505  0.4404 -0.1072
32696SOL     OW   94  10.039   6.720   6.809 -0.0847 -0.1762 -0.2004
32696SOL    HW1   95   9.957   6.770   6.802 -0.1609 -0.3130 -0.2918
32696SOL    HW2   96  10.083   6.757   6.885 -0.1787 -0.0234 -0.2191
32697SOL     OW   97   2.809  10.810   2.612 -0.3021  0.4184  0.4613
32697SOL    HW1   98   2.794  10.889   2.560  0.8111  0.0596 -0.4521
32697SOL    HW2   99   2.780  10.834   2.700  0.0008  1.8490  0.2017
32698SOL     OW  100   1.113   6.524   2.174  0.2728 -0.0546 -0.0908
32698SOL    HW1  101   1.180   6.512   2.106  2.3213  0.0028  1.8055
32698SOL    HW2  102   1.096   6.618   2.175 -1.2685 -0.2587 -1.7969
32699SOL     OW  103   9.617   7.637   7.159 -0.4296 -0.6089 -0.4648
32699SOL    HW1  104   9.605   7.544   7.144  1.1522 -1.1737  1.4287
32699SOL    HW2  105   9.577   7.654   7.244  3.4757 -0.7348  1.6594
32700SOL     OW  106   3.821   7.569   8.367  0.7195  0.3646 -0.4547
32700SOL    HW1  107   3.886   7.514   8.410  0.8423  0.1141 -0.9467
32700SOL    HW2  108   3.740   7.517   8.371  0.2080  1.2384  1.3395
32701SOL     OW  109   9.495   2.324   0.348  0.2781 -0.1337  0.2981
32701SOL    HW1  110   9.432   2.343   0.417  0.6967  1.2500  0.3266
32701SOL    HW2  111   9.580   2.318   0.393  0.6033  1.1220 -0.1144
32702SOL     OW  112  10.678   7.395   1.567  0.3164 -0.4330 -0.0924
32702SOL    HW1  113  10.618   7.450   1.617 -0.0451 -0.3294 -0.6266
32702SOL    HW2  114  10.761   7.399   1.615  0.7135  1.6822 -0.8541
32703SOL     OW  115  10.512   4.764   7.002 -0.1602 -0.0443 -0.2165
32703SOL    HW1  116  10.600   4.802   7.002  0.1449 -0.6837 -1.4545
32703SOL    HW2  117  10.463   4.818   7.063  0.3667  2.0828 -1.5556
32704SOL     OW  118   0.158   5.213   8.257  0.0523 -0.8925 -0.1201
32704SOL    HW1  119   0.131   5.253   8.174 -1.0739  0.1666  0.7431
32704SOL    HW2  120   0.077   5.194   8.303  0.6672 -1.5167  0.7525
32705SOL     OW  121   6.480   0.820   1.762 -0.4396  0.1521  0.1827
32705SOL    HW1  122   6.406   0.776   1.804  0.5734 -0.9650  0.8541
32705SOL    HW2  123   6.509   0.884   1.827 -0.5852  0.3355  0.0674
32706SOL     OW  124   8.877   7.355   5.924 -0.1541  0.3630 -0.1990
32706SOL    HW1  125   8.914   7.392   6.004  1.8052  0.5015 -1.1152
32706SOL    HW2  126   8.921   7.270   5.915  0.1746  0.6473 -1.4677
32707SOL     OW  127   0.530   1.249   9.410  0.0415  0.0035 -0.4636
32707SOL    HW1  128   0.458   1.226   9.351 -0.1767  1.3741 -0.7590
32707SOL    HW2  129   0.605   1.266   9.351  0.7985 -1.9336 -0.1356
32708SOL     OW  130  10.674   5.964   0.227 -0.3851 -0.3367  0.2294
32708SOL    HW1  131  10.733   6.026   0.271 -0.5664  0.0933 -0.1199
32708SOL    HW2  132  10.668   5.997   0.138 -1.8981  0.1735  0.5011
32709SOL     OW  133   8.202   2.926   4.160 -0.0853  0.1248  0.2008
32709SOL    HW1  134   8.217   2.937   4.254  0.4461 -0.8972  0.2443
32709SOL    HW2  135   8.274   2.973   4.119 -0.4839  0.8274  0.2920
32710SOL     OW  136  10.677   3.788   6.571  0.2514  0.1431 -0.3874
32710SOL    HW1  137  10.772   3.797   6.580  0.2706  0.7843 -1.1119
32710SOL    HW2  138  10.664   3.764   6.479 -0.2539 -0.5983 -0.1348
32711SOL     OW  139   9.488   5.331   2.044 -0.2110  0.6761  0.4621
32711SOL    HW1  140   9.522   5.368   2.126  1.4971 -0.4688  0.3210
32711SOL    HW2  141   9.562   5.283   2.007 -1.3111  0.1446 -1.1556
32712SOL     OW  142   4.241   6.229  10.639  0.0107  0.0547 -0.0109
32712SOL    HW1  143   4.207   6.297  10.698 -0.5679  0.9263 -1.3070
32712SOL    HW2  144   4.290   6.170  10.697  1.0790  1.9080  1.0627
32713SOL     OW  145   6.837   1.132   1.947 -0.3888 -0.1349 -0.0917
32713SOL    HW1  146   6.932   1.123   1.938 -0.6687 -2.2121 -1.6415
32713SOL    HW2  147   6.815   1.075   2.020 -0.4693  0.3536  0.2731
32714SOL     OW  148   2.153   8.676   4.352  0.4743 -0.4748  0.2258
32714SOL    HW1  149   2.248   8.669   4.343  0.3307 -0.6215 -1.6513
32714SOL    HW2  150   2.127   8.736   4.282 -0.7236  0.3727  1.3534
32715SOL     OW  151  10.001   9.047   9.299  0.2986 -0.1592 -0.0725
32715SOL    HW1  152  10.006   9.097   9.380 -1.0935  0.9906 -0.6398
32715SOL    HW2  153  10.064   8.976   9.310  2.4040  1.7075  0.7900
32716SOL     OW  154   0.805   6.008  10.386 -0.3747  0.5833  0.1576
32716SOL    HW1  155   0.859   6.052  10.452 -0.8769 -0.4193  1.2705
32716SOL    HW2  156   0.717   6.042  10.401 -0.5685  0.0177  0.2882
32717SOL     OW  157   8.331   0.057   2.152  0.3376 -0.1442  0.4735
32717SOL    HW1  158   8.289  -0.028   2.165 -1.5291  0.8962  1.8089
32717SOL    HW2  159   8.259   0.116   2.130  1.3166  1.4183  1.2823
32718SOL     OW  160   3.476   3.988   3.741  0.1842  0.1129  0.3392
32718SOL    HW1  161   3.419   3.918   3.773  0.8063  0.4349  2.2951
32718SOL    HW2  162   3.557   3.977   3.791  1.4311  0.3641 -1.5519
32719SOL     OW  163   0.248   2.939   2.457  0.3511 -0.6010 -0.3789
32719SOL    HW1  164   0.284   2.955   2.544  0.5310  0.7583 -0.6817
32719SOL    HW2  165   0.212   3.023   2.430 -0.1603 -1.1290 -1.4189
32720SOL     OW  166   6.731   8.834   5.215  0.1895  0.1766 -0.2694
32720SOL    HW1  167   6.822   8.857   5.232  0.8502 -1.3418 -1.5345
32720SOL    HW2  168   6.731   8.740   5.202 -0.7023  0.5570 -4.7287
32721SOL     OW  169   2.513   0.909  10.730 -0.6940 -0.3391 -0.0483
32721SOL    HW1  170   2.587   0.951  10.686 -0.4852 -0.3130  0.3289
32721SOL    HW2  171   2.492   0.967  10.803 -1.5783  0.0499 -0.5905
32722SOL     OW  172   2.501   8.182   0.092 -0.0506 -0.2688  0.3726
32722SOL    HW1  173   2.508   8.263   0.144 -0.1333  0.1607 -0.2783
32722SOL    HW2  174   2.421   8.193   0.041  0.3683 -0.4029 -0.3249
32723SOL     OW  175   4.947   6.921  10.734  0.2959 -0.0846  0.6973
32723SOL    HW1  176   4.902   6.996  10.773  0.0172 -1.0114  2.2339
32723SOL    HW2  177   4.881   6.852  10.730  0.6599 -0.4030 -0.3052
32724SOL     OW  178   9.252   0.812   8.674 -0.2079  0.1915  0.2096
32724SOL    HW1  179   9.295   0.811   8.760 -1.1343  0.7811  0.6929
32724SOL    HW2  180   9.174   0.758   8.685  0.4242 -0.9306 -0.6864
32725SOL     OW  181  10.325   1.441   4.790  0.3854 -0.5972  0.2856
32725SOL    HW1  182  10.303   1.355   4.826  0.4857 -1.0587 -0.7406
32725SOL    HW2  183  10.389   1.477   4.852 -1.9643  0.1124  2.4785
32726SOL     OW  184   4.201   1.324  10.484 -0.1517  0.0854 -0.6410
32726SOL    HW1  185   4.214   1.356  10.574 -1.4527 -2.8911  0.7359
32726SOL    HW2  186   4.123   1.372  10.454 -2.3555 -1.7871  1.5425
32727SOL     OW  187   7.879   6.469   2.417  0.3851 -0.2723  0.3875
32727SOL    HW1  188   7.802   6.413   2.403  0.4837  0.1239 -2.4337
32727SOL    HW2  189   7.844   6.557   2.428  0.3683  0.0675 -1.8943
32728SOL     OW  190   1.349   6.811   3.397 -0.1177 -0.3384 -0.0223
32728SOL    HW1  191   1.443   6.823   3.410  0.1469 -1.5599 -0.6481
32728SOL    HW2  192   1.339   6.808   3.302 -1.0257  1.3226 -0.0256
32729SOL     OW  193   8.481   1.885   4.482 -0.1806 -0.5029 -0.5074
32729SOL    HW1  194   8.484   1.805   4.535  0.1025 -0.1555  0.0180
32729SOL    HW2  195   8.564   1.885   4.434 -0.3960 -0.7719 -0.8789
32730SOL     OW  196   8.741   8.709   7.820 -0.0616  0.0746  0.0850
32730SOL    HW1  197   8.686   8.784   7.799 -1.4371 -1.0434 -0.4576
32730SOL    HW2  198   8.784   8.733   7.902  1.0504  2.2409 -1.0382
32731SOL     OW  199   5.329   5.175   1.402 -0.1646  0.0977  0.4718
32731SOL    HW1  200   5.313   5.099   1.345  1.7249  0.4523 -0.6184
32731SOL    HW2  201   5.265   5.240   1.374  0.5554  0.1667 -1.1310
32732SOL     OW  202   9.821   9.111   2.588 -0.7116 -0.0564 -0.1123
32732SOL    HW1  203   9.818   9.114   2.684 -1.5541  1.3613 -0.1526
32732SOL    HW2  204   9.804   9.019   2.567 -1.1363 -0.2793  1.0926
32733SOL     OW  205   8.973   5.238  11.073 -0.4365  0.0677  0.1296
32733SOL    HW1  206   8.953   5.329  11.050 -0.5960 -0.0031 -0.0092
32733SOL    HW2  207   8.889   5.201  11.099 -0.4827 -0.2210 -0.4230
32734SOL     OW  208   7.383   4.002   0.827  0.3201  0.4783 -0.3440
32734SOL    HW1  209   7.337   3.929   0.784  2.7524 -1.8965  0.7727
32734SOL    HW2  210   7.468   4.005   0.783  1.4241  0.5122  1.6885
32735SOL     OW  211   6.458   5.157   0.599 -0.4425  0.2516 -0.1318
32735SOL    HW1  212   6.417   5.084   0.646 -0.4501  0.5282  0.2942
32735SOL    HW2  213   6.507   5.205   0.666  0.4543  0.0223 -0.6042
32736SOL     OW  214   0.187   6.680   0.548  0.0805  0.0067  0.1412
32736SOL    HW1  215   0.138   6.745   0.497 -0.6434 -0.3079  0.4168
32736SOL    HW2  216   0.201   6.721   0.633  2.8278  1.2445 -0.7852
32737SOL     OW  217   1.642   5.611  10.750 -0.0727  0.0145 -0.5207
32737SOL    HW1  218   1.692   5.557  10.811 -1.3087  0.1584  0.6661
32737SOL    HW2  219   1.594   5.672  10.805 -0.7917  0.5360 -1.6774
32738SOL     OW  220   5.572   9.135   0.567 -0.5274 -0.2095 -0.0746
32738SOL    HW1  221   5.504   9.086   0.521  0.2168 -0.6274 -0.7427
32738SOL    HW2  222   5.619   9.181   0.498 -0.0192 -0.0578  0.3679
32739SOL     OW  223   0.981   6.950   3.204 -0.1912  0.1337 -0.2186
32739SOL    HW1  224   0.984   6.865   3.247 -0.6201 -0.7818 -1.8903
32739SOL    HW2  225   0.899   6.989   3.234 -0.8786 -0.8333 -0.7639
32740SOL     OW  226   3.144   2.785   1.222 -0.3541 -0.2797  0.5500
32740SOL    HW1  227   3.111   2.856   1.277  1.7611  1.1028  0.1854
32740SOL    HW2  228   3.132   2.817   1.132  0.3125 -0.5175  0.3698
32741SOL     OW  229   3.008  10.674   8.270  0.0129  0.4326  0.5957
32741SOL    HW1  230   2.919  10.694   8.243 -0.1085 -0.6865  0.1299
32741SOL    HW2  231   3.039  10.755   8.311 -0.8722  1.1450 -0.0957
32742SOL     OW  232  10.647   6.605   1.241 -0.0774  0.1022 -0.4580
32742SOL    HW1  233  10.709   6.540   1.208  0.8587  1.8190 -2.2142
32742SOL    HW2  234  10.700   6.669   1.286 -0.7294  0.8238 -0.6936
32743SOL     OW  235   4.668   7.443   3.652  0.2895 -0.5520 -0.1146
32743SOL    HW1  236   4.632   7.376   3.593 -0.7904 -1.2729  1.3018
32743SOL    HW2  237   4.626   7.524   3.626 -0.4447 -0.9313 -0.1312
32744SOL     OW  238  10.302   1.391   1.947 -0.3518  0.7062 -0.2240
32744SOL    HW1  239  10.352   1.334   1.888 -0.2271 -0.2015  0.7278
32744SOL    HW2  240  10.352   1.473   1.950  0.9977 -0.1142  0.5542
32745SOL     OW  241   4.883   1.372   7.712  0.0952 -0.0154  0.5778
32745SOL    HW1  242   4.855   1.437   7.648  0.0764 -0.5127  0.0768
32745SOL    HW2  243   4.961   1.410   7.752  0.1257  0.2823  0.2382
32746SOL     OW  244   8.885   4.838   7.630  0.6992 -0.5007 -0.0525
32746SOL    HW1  245   8.813   4.799   7.580  0.7260  2.1222 -2.3683
32746SOL    HW2  246   8.964   4.800   7.592  0.6553 -0.0052 -0.6497
32747SOL     OW  247   0.397   1.100   3.449  0.1800  0.0042  0.1196
32747SOL    HW1  248   0.321   1.148   3.417 -0.4341 -0.6775  0.5173
32747SOL    HW2  249   0.388   1.100   3.544 -0.1668 -1.3989  0.1071
32748SOL     OW  250   5.564   5.042   3.334 -0.3530  0.2543  0.0029
32748SOL    HW1  251   5.579   4.949   3.316  0.3423  0.0742  1.3273
32748SOL    HW2  252   5.576   5.085   3.250 -0.9505 -0.8763 -0.6922
32749SOL     OW  253   7.282   8.892  11.056  0.1888  0.5421 -0.1267
32749SOL    HW1  254   7.355   8.839  11.089  2.0224  1.3868 -2.4973
32749SOL    HW2  255   7.319   8.981  11.049 -0.8140  0.8521 -2.0582
32750SOL     OW  256   5.932   0.260   2.830  1.0351  0.7039  0.6110
32750SOL    HW1  257   5.871   0.264   2.903 -0.4528 -0.2445 -0.5163
32750SOL    HW2  258   5.906   0.181   2.782  2.5324  0.8217 -0.4499
32751SOL     OW  259   9.721   7.918   4.905  0.0318  0.3018 -0.6789
32751SOL    HW1  260   9.758   7.977   4.839 -0.4620  1.7317  0.2778
32751SOL    HW2  261   9.798   7.879   4.947  0.4155  1.2700 -0.4504
32752SOL     OW  262   3.635   7.627   0.674 -1.0427 -0.1413  0.3722
32752SOL    HW1  263   3.696   7.575   0.726  0.0948 -0.1792 -0.9488
32752SOL    HW2  264   3.573   7.662   0.738 -0.3051 -1.0125  1.6086
32753SOL     OW  265   6.435   7.060   3.940  0.3553  0.0492  0.1215
32753SOL    HW1  266   6.370   7.127   3.917 -0.2038 -0.3451  0.5173
32753SOL    HW2  267   6.400   7.020   4.020  1.4999  0.3710  0.7957
32754SOL     OW  268   6.908   2.600   3.498 -0.2277  0.2704  0.2731
32754SOL    HW1  269   6.935   2.595   3.590  0.6321  0.4211  0.0374
32754SOL    HW2  270   6.982   2.641   3.454  0.1392 -1.4551 -0.7922
32755SOL     OW  271   9.154   1.342   8.352  0.2076 -0.2043  0.5286
32755SOL    HW1  272   9.067   1.312   8.327  0.3552  0.0510 -0.3450
32755SOL    HW2  273   9.203   1.344   8.270  1.0118 -0.2586  0.9977
32756SOL     OW  274   5.856   0.929  11.099 -0.1575 -0.1702  0.0780
32756SOL    HW1  275   5.874   0.984  11.023 -1.4035 -0.6711 -0.6056
32756SOL    HW2  276   5.922   0.955  11.164 -0.4850  1.8371 -0.3446
32757SOL     OW  277  10.228   8.171   1.251  0.6159  0.2986  0.0027
32757SOL    HW1  278  10.294   8.238   1.270 -0.2861  1.9201 -2.0908
32757SOL    HW2  279  10.270   8.113   1.188  0.5348  0.4379 -0.1790
32758SOL     OW  280   4.669   3.180   5.430 -0.0084  0.2304 -0.3923
32758SOL    HW1  281   4.653   3.272   5.408 -1.7547 -0.1747 -1.0431
32758SOL    HW2  282   4.675   3.135   5.345  1.8122 -0.1419 -0.1010
32759SOL     OW  283  10.357   1.789   2.172  0.3331 -0.2620 -0.5327
32759SOL    HW1  284  10.381   1.817   2.260 -0.1460 -0.8383 -0.2112
32759SOL    HW2  285  10.266   1.816   2.161  1.0054  1.7095 -1.6678
32760SOL     OW  286   6.235   6.131   9.710  0.5037  0.4530  0.0018
32760SOL    HW1  287   6.209   6.147   9.620 -0.2570  1.0730  0.3238
32760SOL    HW2  288   6.163   6.165   9.763 -0.0772 -1.8133  0.8054
32761SOL     OW  289   8.851   4.422   0.505 -0.3393  0.2878  0.4141
32761SOL    HW1  290   8.893   4.437   0.590  0.5689  0.5335 -0.0678
32761SOL    HW2  291   8.919   4.442   0.441 -0.1513 -2.4603 -0.3629
32762SOL     OW  292   9.160   0.366  10.348  0.5559 -0.5940  0.4536
32762SOL    HW1  293   9.205   0.282  10.339  1.3467 -0.2046  0.6774
32762SOL    HW2  294   9.133   0.388  10.258 -0.4540 -1.5007  0.5171
32763SOL     OW  295   0.547   0.149   5.586 -0.2679  0.0980  0.0421
32763SOL    HW1  296   0.484   0.219   5.567 -0.5419 -0.4044 -0.9634
32763SOL    HW2  297   0.633   0.189   5.573 -0.1275  1.6769  4.2768
32764SOL     OW  298   8.931   4.739  10.401 -0.1163  0.9820  0.0749
32764SOL    HW1  299   8.967   4.686  10.330 -0.4524  1.4537 -0.4587
32764SOL    HW2  300   8.912   4.676  10.471 -0.9220  0.3356 -0.7058
32765SOL     OW  301   6.913   7.192  10.123 -0.7746  0.2691 -0.8014
32765SOL    HW1  302   6.952   7.217  10.040  0.1207  1.0614 -0.1629
32765SOL    HW2  303   6.830   7.238  10.126 -1.7590 -1.3179 -2.1087
32766SOL     OW  304   8.460   9.507   0.132  0.5184 -0.0129  0.5569
32766SOL    HW1  305   8.505   9.516   0.216  0.6695  0.8308  0.4016
32766SOL    HW2  306   8.528   9.521   0.067  0.1316  0.8184  0.3172
32767SOL     OW  307   6.479   7.674   8.547 -0.2422  0.8640 -0.1055
32767SOL    HW1  308   6.465   7.584   8.576  0.5640  1.3467  1.9358
32767SOL    HW2  309   6.553   7.669   8.487 -0.1087  0.1860  0.1120
32768SOL     OW  310   7.695   7.783   9.033 -0.9543 -0.3120  0.0188
32768SOL    HW1  311   7.750   7.754   9.106 -1.1376  0.0447  0.3051
32768SOL    HW2  312   7.614   7.733   9.042 -0.4116 -1.3977 -0.8463
32769SOL     OW  313   4.743   6.939   5.973  0.5946 -0.0900  0.2237
32769SOL    HW1  314   4.689   6.959   5.897  0.6925  1.7193  0.5849
32769SOL    HW2  315   4.696   6.870   6.019 -0.7692  0.5674 -0.1431
32770SOL     OW  316  10.099   7.968   9.870  0.6059 -0.2545 -0.1778
32770SOL    HW1  317  10.183   7.964   9.825  0.8700  0.5447  0.2315
32770SOL    HW2  318  10.116   8.018   9.950 -0.2578 -0.0708 -0.0936
32771SOL     OW  319   6.498   4.232   8.186 -0.2345  0.4286 -0.8411
32771SOL    HW1  320   6.589   4.260   8.177 -0.1328 -0.0075 -1.2061
32771SOL    HW2  321   6.476   4.252   8.277  0.5135 -0.2787 -0.4901
32772SOL     OW  322   0.150   8.270   6.441 -0.6487 -0.2699  0.3153
32772SOL    HW1  323   0.129   8.261   6.534 -0.9310 -0.4124  0.2386
32772SOL    HW2  324   0.192   8.355   6.434 -1.4094  0.1228  0.4369
32773SOL     OW  325  10.379   0.529   9.409  0.1702 -0.0950 -0.0091
32773SOL    HW1  326  10.415   0.580   9.482 -1.3262  1.4209 -0.2667
32773SOL    HW2  327  10.441   0.543   9.337  0.8219 -0.3079  0.5033
32774SOL     OW  328   7.656   6.304   2.971  0.2384 -0.2220  0.0519
32774SOL    HW1  329   7.571   6.334   3.005 -0.5008 -0.8405 -1.1693
32774SOL    HW2  330   7.684   6.236   3.032  0.2029  0.4595  0.8492
32775SOL     OW  331   2.977   3.275   4.050  0.6057 -0.1476 -0.3899
32775SOL    HW1  332   2.925   3.321   3.983 -0.2616 -1.4654 -0.6548
32775SOL    HW2  333   3.060   3.254   4.006  0.3625 -0.2749 -0.7898
32776SOL     OW  334   1.276   7.517   7.461  0.5412 -0.0248 -0.2296
32776SOL    HW1  335   1.242   7.433   7.490  0.8370 -0.0564  0.0167
32776SOL    HW2  336   1.365   7.499   7.431  1.1065  0.4531  1.1231
32777SOL     OW  337   8.028   2.736   2.181  0.2513  1.0646 -0.4058
32777SOL    HW1  338   8.118   2.738   2.215  0.1124  0.4445  0.0076
32777SOL    HW2  339   8.039   2.718   2.088  0.5497  0.8993 -0.3417
32778SOL     OW  340   4.748   3.935   1.557 -0.2115 -0.8723 -0.0444
32778SOL    HW1  341   4.679   3.890   1.509 -0.8392  0.8968 -0.9050
32778SOL    HW2  342   4.776   3.872   1.623 -1.0720 -2.4591 -1.1169
32779SOL     OW  343   1.994   0.661   8.324 -0.2442 -1.1218 -0.1075
32779SOL    HW1  344   1.934   0.650   8.250 -0.5393 -0.6628  0.0599
32779SOL    HW2  345   1.937   0.671   8.400 -0.0942  1.9283 -0.2613
32780SOL     OW  346   8.538   8.244  10.541  0.1239  0.1712  0.2730
32780SOL    HW1  347   8.615   8.261  10.486  0.5256  1.0573  1.0828
32780SOL    HW2  348   8.465   8.239  10.479  0.7351  0.0327 -0.4436
32781SOL     OW  349   0.158   9.540   4.260  0.0261  0.3868 -0.1757
32781SOL    HW1  350   0.171   9.547   4.166  1.4064  0.4857 -0.0032
32781SOL    HW2  351   0.105   9.617   4.282 -1.3164 -0.2687 -1.0140
32782SOL     OW  352   7.643   5.031   3.031  0.3015  0.2663  0.2694
32782SOL    HW1  353   7.642   5.126   3.015  0.8877  0.3775  0.8459
32782SOL    HW2  354   7.654   5.023   3.126 -1.3028 -0.3811  0.4453
32783SOL     OW  355   5.052   4.215   9.993  0.4847  0.8438  0.2233
32783SOL    HW1  356   5.022   4.215  10.084 -2.0339 -0.5453 -0.5081
32783SOL    HW2  357   5.021   4.131   9.958  2.4745  0.8016 -1.6140
32784SOL     OW  358   9.697   2.804   9.056  0.0228  0.2283  0.1442
32784SOL    HW1  359   9.665   2.739   8.993  0.4130 -0.5817  0.7654
32784SOL    HW2  360   9.622   2.860   9.073 -0.7474 -0.9338  0.6854
32785SOL     OW  361   6.186   8.246   7.582 -0.4539 -0.0309 -0.3021
32785SOL    HW1  362   6.132   8.324   7.572  0.1897  0.2983 -1.4148
32785SOL    HW2  363   6.233   8.239   7.498  0.3577 -0.9530  0.2135
32786SOL     OW  364   0.246   8.942   0.370  0.3045 -0.5667 -0.4615
32786SOL    HW1  365   0.183   8.954   0.299 -0.1975 -1.1934 -0.1330
32786SOL    HW2  366   0.193   8.944   0.450  0.7129 -0.9890 -0.1736
32787SOL     OW  367   5.415   4.281   0.054  0.3304 -0.2992  0.2501
32787SOL    HW1  368   5.472   4.314  -0.016 -0.9087 -0.4967 -0.8882
32787SOL    HW2  369   5.424   4.346   0.124  0.4060  0.7487 -0.6896
32788SOL     OW  370   4.724   1.939   8.620  0.3310  0.3710 -0.3188
32788SOL    HW1  371   4.784   1.899   8.683 -0.6690  1.7991  1.6275
32788SOL    HW2  372   4.637   1.924   8.655 -0.1783  2.6441 -0.4273
32789SOL     OW  373  10.965   9.112   5.394  0.4386  0.6547  0.0575
32789SOL    HW1  374  10.930   9.199   5.416 -0.7075  0.1918  0.1033
32789SOL    HW2  375  10.888   9.059   5.374  1.0548 -0.6051  0.9084
32790SOL     OW  376   9.130   9.903   8.404 -0.0976 -0.2427  0.0962
32790SOL    HW1  377   9.112   9.979   8.349  0.6808 -0.3726 -0.3515
32790SOL    HW2  378   9.044   9.867   8.425 -0.4409  0.4282 -0.1621
32791SOL     OW  379   0.113   9.056   9.692  0.2424 -0.6318  0.4723
32791SOL    HW1  380   0.129   9.119   9.762 -0.8460  0.6167 -0.3640
32791SOL    HW2  381   0.029   9.016   9.715  0.1660 -0.6385  0.1774
32792SOL     OW  382   6.273   2.530   0.537  0.1857  0.7047  0.1943
32792SOL    HW1  383   6.290   2.492   0.451  0.6948  1.9524 -0.2807
32792SOL    HW2  384   6.354   2.518   0.587 -0.1902 -0.2344  0.5965
32793SOL     OW  385   6.132  10.856   7.079  0.0666  0.1254  0.0573
32793SOL    HW1  386   6.136  10.764   7.055  0.6534 -0.1923  1.3058
32793SOL    HW2  387   6.219  10.875   7.113 -0.7271  0.5345  1.9351
32794SOL     OW  388   8.574   6.178   7.049 -0.8481 -0.5766  0.2820
32794SOL    HW1  389   8.486   6.139   7.050 -0.8694 -0.5251  0.5081
32794SOL    HW2  390   8.632   6.102   7.046 -0.8938 -0.6237  0.5313
32795SOL     OW  391   8.114   6.635  10.702 -0.5070 -0.2466  0.4036
32795SOL    HW1  392   8.049   6.692  10.660  0.1066  0.5375  0.4938
32795SOL    HW2  393   8.129   6.676  10.788  0.2052 -0.3430  0.3273
32796SOL     OW  394   2.593   2.047  10.785 -0.2526 -0.1317 -0.2784
32796SOL    HW1  395   2.668   2.088  10.744 -1.9827  0.8505 -2.6682
32796SOL    HW2  396   2.581   2.095  10.867  0.9549  0.4896 -0.4462
32797SOL     OW  397   7.569   4.584   6.237  0.3689 -0.3334  0.5262
32797SOL    HW1  398   7.589   4.515   6.300  3.2547  1.8904  2.3258
32797SOL    HW2  399   7.628   4.567   6.164 -0.4513 -0.9196 -0.0149
32798SOL     OW  400   2.146   9.068   8.796  1.1016  0.1172  0.0293
32798SOL    HW1  401   2.140   8.980   8.760  1.4883  0.4821 -0.9427
32798SOL    HW2  402   2.094   9.122   8.737 -0.4294  0.2999  1.4788
32799SOL     OW  403   9.338   6.624   0.237 -0.8331  0.4496  0.3013
32799SOL    HW1  404   9.293   6.649   0.156 -1.1287 -0.4191  0.1866
32799SOL    HW2  405   9.417   6.678   0.238  0.2939 -0.9879 -1.6747
32800SOL     OW  406   8.707   6.719   0.742 -0.0838  0.1741 -0.6128
32800SOL    HW1  407   8.739   6.721   0.651 -0.4014 -0.3749 -0.7405
32800SOL    HW2  408   8.650   6.642   0.746 -0.3021  0.3600 -0.0209
32801SOL     OW  409   6.878   1.793   9.713 -0.3824  0.0283 -0.0050
32801SOL    HW1  410   6.843   1.846   9.785  0.0080  1.9552 -1.1400
32801SOL    HW2  411   6.801   1.759   9.668 -0.6301 -1.2921  1.3392
32802SOL     OW  412   5.519   4.878   3.613  0.1026 -0.4075 -0.0769
32802SOL    HW1  413   5.448   4.905   3.554 -0.0573  1.4987  0.9313
32802SOL    HW2  414   5.566   4.811   3.563 -2.0789 -1.3812 -0.9707
32803SOL     OW  415   8.314   4.739   4.713 -0.2536 -0.0653  0.3592
32803SOL    HW1  416   8.288   4.779   4.630 -0.6852  2.3471  1.5540
32803SOL    HW2  417   8.405   4.712   4.699  0.8350  3.2797 -0.0251
32804SOL     OW  418   7.537   0.432   5.605  0.3628 -0.0644  0.0023
32804SOL    HW1  419   7.470   0.394   5.549 -1.1200 -1.2278  2.3918
32804SOL    HW2  420   7.611   0.372   5.598  1.4213  1.4357 -2.9519
32805SOL     OW  421  10.142   6.422   3.993  0.2264 -0.0238 -0.1247
32805SOL    HW1  422  10.085   6.444   3.919  1.3193 -0.3742 -1.1096
32805SOL    HW2  423  10.177   6.336   3.971 -1.9904 -1.7501  2.4401
32806SOL     OW  424  11.086   2.436   0.547  0.1872 -0.2773  0.3501
32806SOL    HW1  425  11.069   2.381   0.623 -1.2851  0.8692  0.8961
32806SOL    HW2  426  11.030   2.400   0.478  0.0573 -0.1428  0.3842
32807SOL     OW  427   8.756   3.034   2.352 -0.3061 -0.0325  0.4171
32807SOL    HW1  428   8.757   2.952   2.401 -0.3201 -0.1517  0.2208
32807SOL    HW2  429   8.675   3.078   2.380 -0.7780 -0.5128 -0.1713
32808SOL     OW  430   5.640   6.276   9.562  0.0806 -0.5341  0.3711
32808SOL    HW1  431   5.583   6.312   9.494 -0.7489 -2.0382  0.2071
32808SOL    HW2  432   5.649   6.346   9.627 -1.3731 -0.0064  0.0341
32809SOL     OW  433   8.411   9.277   3.825  0.7311  0.1445  0.2204
32809SOL    HW1  434   8.480   9.344   3.829 -0.5092  1.4752 -0.0127
32809SOL    HW2  435   8.422   9.238   3.738  1.6649 -0.1974  0.4762
32810SOL     OW  436   6.146   0.794   4.815 -0.6812 -0.4687  0.4375
32810SOL    HW1  437   6.216   0.734   4.788 -0.3944  0.1465 -0.2217
32810SOL    HW2  438   6.150   0.794   4.911 -0.5226 -1.3060  0.4338
32811SOL     OW  439   6.205  10.388   1.336 -0.1396  0.2558  0.1019
32811SOL    HW1  440   6.126  10.336   1.319 -0.7030  0.0018  2.9930
32811SOL    HW2  441   6.277  10.325   1.332  0.0784  0.5299 -2.8084
32812SOL     OW  442   3.315   4.160   2.008  0.2375 -0.5174  0.4922
32812SOL    HW1  443   3.410   4.152   2.015  0.3998  0.8140  0.2239
32812SOL    HW2  444   3.293   4.233   2.066 -0.4136  0.1592 -0.5741
32813SOL     OW  445   3.258   5.683   2.368  0.5551 -0.8019 -0.3435
32813SOL    HW1  446   3.223   5.671   2.456  0.8792 -0.3780 -0.1512
32813SOL    HW2  447   3.180   5.692   2.312  0.3530 -0.6642 -0.0396
32814SOL     OW  448   6.913   8.619   9.961  0.2252  0.0259 -0.0078
32814SOL    HW1  449   6.887   8.547  10.018 -1.0467  0.6145  0.1872
32814SOL    HW2  450   6.856   8.612   9.885  0.8575  0.1707 -0.5045
32815SOL     OW  451   6.892   3.549   6.892  0.0068 -0.2680  0.2146
32815SOL    HW1  452   6.805   3.590   6.892 -0.0032 -0.0902  2.9466
32815SOL    HW2  453   6.951   3.619   6.865 -0.6781 -0.5541 -2.2930
32816SOL     OW  454   4.690   2.050   9.043  0.1627 -0.4358 -0.5723
32816SOL    HW1  455   4.603   2.013   9.031  0.6113 -1.2600 -1.3704
32816SOL    HW2  456   4.745   1.977   9.071 -0.1444  0.7764  3.9075
32817SOL     OW  457   9.894   9.107  10.810  0.4566  0.4957 -0.1915
32817SOL    HW1  458   9.912   9.201  10.820 -1.3115  0.8406 -0.0342
32817SOL    HW2  459   9.973   9.065  10.844  0.4246  1.8947  1.8179
32818SOL     OW  460   5.117   0.901   4.312  0.0962 -0.5938  0.0376
32818SOL    HW1  461   5.083   0.830   4.258 -0.0735  0.2131 -0.9508
32818SOL    HW2  462   5.193   0.932   4.265 -0.3668  0.4827 -0.0244
32819SOL     OW  463   4.336   2.830   0.167 -0.2134  0.0333 -0.4674
32819SOL    HW1  464   4.352   2.924   0.156 -0.3289  0.3587  1.7649
32819SOL    HW2  465   4.420   2.789   0.143 -0.2982  0.6188 -1.8981
32820SOL     OW  466   9.875   2.506   0.518  0.2459  0.1267 -0.5646
32820SOL    HW1  467   9.851   2.599   0.526  2.9622  0.8663  0.0348
32820SOL    HW2  468   9.948   2.506   0.457  1.4462 -1.3777  0.8024
32821SOL     OW  469   5.962   2.390   8.410 -0.1423  0.2099  0.6377
32821SOL    HW1  470   5.976   2.312   8.357 -1.1774 -0.4635  1.3247
32821SOL    HW2  471   5.976   2.463   8.349  0.8740 -0.4909 -0.0011
32822SOL     OW  472   9.206   9.349  10.695 -0.0329  0.1461 -0.0971
32822SOL    HW1  473   9.282   9.292  10.701 -0.3211 -0.2503 -0.1604
32822SOL    HW2  474   9.163   9.324  10.613  0.8471  1.7336 -1.0825
32823SOL     OW  475   0.311  10.281   7.330 -0.6135 -0.1083  0.1787
32823SOL    HW1  476   0.373  10.329   7.275 -0.2722 -1.6058 -0.7939
32823SOL    HW2  477   0.290  10.202   7.280 -3.1895  0.2448  0.5338
32824SOL     OW  478  10.176   3.800   3.089 -0.2050  0.5214  0.3252
32824SOL    HW1  479  10.106   3.848   3.134  0.0435  0.9468  0.2643
32824SOL    HW2  480  10.244   3.866   3.074 -0.2920  0.3809 -0.7016
32825SOL     OW  481   6.837  10.541   7.148  0.2573 -0.1931 -0.3973
32825SOL    HW1  482   6.845  10.463   7.202  0.2525  0.3689  0.4285
32825SOL    HW2  483   6.794  10.510   7.068 -2.8884 -0.4523  1.2460
32826SOL     OW  484   4.727   7.570   4.326 -0.1619 -0.4440 -0.0590
32826SOL    HW1  485   4.701   7.519   4.403 -0.3998 -1.6060 -0.8862
32826SOL    HW2  486   4.757   7.505   4.263  2.2789  0.6595 -0.1372
32827SOL     OW  487   4.741   8.183   4.587 -0.5603 -0.1021  0.8274
32827SOL    HW1  488   4.711   8.170   4.676  1.9842 -1.8187  1.5640
32827SOL    HW2  489   4.825   8.229   4.596 -0.0893 -0.6088 -0.5946
32828SOL     OW  490   4.536   2.509  10.965 -0.2934  0.6072  0.4121
32828SOL    HW1  491   4.490   2.494  10.882  1.6499 -0.4980 -0.5281
32828SOL    HW2  492   4.584   2.590  10.951 -0.3355  0.6696  0.6344
32829SOL     OW  493   8.925   7.011   2.237  0.4869  0.4247  0.1951
32829SOL    HW1  494   8.860   7.041   2.300 -1.7811 -0.6406 -1.5096
32829SOL    HW2  495   8.893   6.926   2.208  1.5128  0.7943 -2.2473
32830SOL     OW  496   1.647   8.653   8.963 -0.2024 -0.1988 -0.1801
32830SOL    HW1  497   1.667   8.611   9.047 -0.9997  1.1726  0.7188
32830SOL    HW2  498   1.710   8.725   8.957  0.1976 -0.5974 -1.0391
32831SOL     OW  499   7.419   4.441   7.399 -0.5810  0.2521  0.2849
32831SOL    HW1  500   7.469   4.385   7.340 -1.9916  1.0878 -1.8461
32831SOL    HW2  501   7.333   4.399   7.405 -1.1778  1.3496 -0.1362
32832SOL     OW  502   5.255  10.217   3.773 -0.2493 -0.4686 -0.3513
32832SOL    HW1  503   5.279  10.174   3.691  1.8414 -0.6407  0.2868
32832SOL    HW2  504   5.239  10.144   3.833  0.7693 -0.3841  0.0467
32833SOL     OW  505   4.284   8.253   2.075  0.0986 -0.4519  0.3543
32833SOL    HW1  506   4.311   8.239   2.166 -0.7740 -4.3486  0.1520
32833SOL    HW2  507   4.353   8.308   2.039  0.6118  1.0224  3.2345
32834SOL     OW  508   8.180   9.957   9.039 -0.1886 -0.2828 -0.7517
32834SOL    HW1  509   8.217  10.044   9.024  1.9352 -1.4390 -2.8498
32834SOL    HW2  510   8.149   9.960   9.130  2.7796  1.6781  0.3812
32835SOL     OW  511   0.716  10.032   9.659  0.0884 -0.2961  0.8077
32835SOL    HW1  512   0.709  10.087   9.736  1.7967  0.7456  0.2699
32835SOL    HW2  513   0.745   9.947   9.692  0.2096 -0.0359  1.3705
32836SOL     OW  514   6.728   0.762   1.625 -0.4587 -0.3086  0.0038
32836SOL    HW1  515   6.648   0.762   1.678  1.4257 -1.0587  3.0637
32836SOL    HW2  516   6.799   0.776   1.687  1.8460  0.9222 -2.6608
32837SOL     OW  517   3.805   5.190   8.906 -0.2269  0.3974 -0.1957
32837SOL    HW1  518   3.780   5.257   8.842 -0.6836 -0.9332 -1.4823
32837SOL    HW2  519   3.847   5.122   8.854  1.7988  0.4237  1.3154
32838SOL     OW  520   6.972   4.209   7.246 -0.0016  0.1370 -0.1258
32838SOL    HW1  521   6.915   4.250   7.181  0.9299  1.0552 -0.3824
32838SOL    HW2  522   6.931   4.229   7.330 -1.1407 -0.9396 -0.3925
32839SOL     OW  523   9.056   9.203   0.835 -0.3979  0.7861 -0.8418
32839SOL    HW1  524   9.032   9.159   0.754 -0.6542 -0.6494 -0.0169
32839SOL    HW2  525   9.018   9.149   0.904 -0.2901  2.0336  0.2435
32840SOL     OW  526   8.038   5.774   1.105 -0.0435  0.5987  0.3637
32840SOL    HW1  527   7.968   5.710   1.116  2.5104 -2.1974  1.6863
32840SOL    HW2  528   8.035   5.796   1.012 -2.0378 -0.1477  0.1956
32841SOL     OW  529   1.671   4.854  10.733 -0.2194  0.3090  0.3210
32841SOL    HW1  530   1.701   4.941  10.704  3.4056 -0.7768  0.3700
32841SOL    HW2  531   1.635   4.814  10.653 -1.1256  1.4854  0.1048
32842SOL     OW  532   1.264   6.829   4.158 -0.2916 -0.4683 -0.5567
32842SOL    HW1  533   1.209   6.906   4.167 -0.6441 -0.7132 -0.5972
32842SOL    HW2  534   1.233   6.769   4.226  1.4470  0.2795  0.9851
32843SOL     OW  535   2.039   5.606   4.395  0.2568  0.0664  0.0110
32843SOL    HW1  536   2.070   5.528   4.443  1.1920  0.3097 -0.1821
32843SOL    HW2  537   2.080   5.679   4.440  2.0974  0.2436 -1.8164
32844SOL     OW  538   0.453  10.856   5.513  0.3429 -0.3316  0.0073
32844SOL    HW1  539   0.527  10.809   5.474  0.1835  0.0888 -0.8255
32844SOL    HW2  540   0.491  10.903   5.587  0.3815 -2.2529  1.2602
32845SOL     OW  541   9.829   9.955   4.943 -0.1842  0.1229 -0.6052
32845SOL    HW1  542   9.884   9.935   4.868  1.7453  2.0411  0.1890
32845SOL    HW2  543   9.786  10.037   4.920 -1.1474 -0.3197 -0.4026
32846SOL     OW  544   3.646   6.068   0.265 -0.0967  0.2162  0.8207
32846SOL    HW1  545   3.564   6.021   0.279 -0.1910  0.2980  0.5371
32846SOL    HW2  546   3.712   6.012   0.306 -0.2339 -0.0810  0.6393
32847SOL     OW  547   4.166   6.205   0.771 -0.1118  0.0083 -1.0027
32847SOL    HW1  548   4.096   6.164   0.822  0.6229  1.0609  0.9840
32847SOL    HW2  549   4.123   6.278   0.726 -0.0435  1.9846  1.8754
32848SOL     OW  550   5.836   7.734  10.577  0.2611  0.5538 -0.3206
32848SOL    HW1  551   5.744   7.713  10.592  0.0670  2.7525  2.5152
32848SOL    HW2  552   5.873   7.655  10.540 -2.4889 -0.8763 -0.2568
32849SOL     OW  553  10.631   7.696   2.516  0.1383 -0.3552  0.3816
32849SOL    HW1  554  10.604   7.758   2.448 -0.0106 -0.1840  0.5947
32849SOL    HW2  555  10.715   7.663   2.486 -2.4501 -5.0256 -3.1404
32850SOL     OW  556   3.779   7.581  10.832  0.2718  0.0290  0.1533
32850SOL    HW1  557   3.841   7.554  10.900 -1.1189 -0.4874  1.2732
32850SOL    HW2  558   3.758   7.501  10.785 -0.2673  0.0234  0.3999
32851SOL     OW  559   7.722  10.184   9.369  0.4856  0.2359 -0.2664
32851SOL    HW1  560   7.637  10.170   9.327  0.0511 -0.3998  0.7751
32851SOL    HW2  561   7.762  10.096   9.372  1.5279  0.6397 -1.4307
32852SOL     OW  562   3.261   6.187   1.897 -0.4727  0.3987 -0.2067
32852SOL    HW1  563   3.319   6.254   1.934 -1.1437 -0.1925  2.0217
32852SOL    HW2  564   3.204   6.236   1.837  1.2643  1.2277 -1.2565
32853SOL     OW  565   6.478   4.474   2.119  0.3966 -0.3275 -0.1842
32853SOL    HW1  566   6.397   4.519   2.143  1.7331  1.5522  1.0663
32853SOL    HW2  567   6.520   4.455   2.203  1.0822 -1.6672 -0.8005
32854SOL     OW  568   8.318   8.115   0.278 -0.4907  0.2239  0.3934
32854SOL    HW1  569   8.408   8.118   0.313 -0.8681  0.9839  1.3565
32854SOL    HW2  570   8.317   8.181   0.209 -0.1771 -0.1508  0.0234
32855SOL     OW  571   8.452   9.656   9.253 -0.3463 -0.5157 -0.1283
32855SOL    HW1  572   8.526   9.716   9.265 -0.7567  0.1008 -0.6362
32855SOL    HW2  573   8.417   9.677   9.167 -2.1192  0.3227  0.7448
32856SOL     OW  574   1.472   5.603   5.384 -0.5401 -0.1365 -0.6893
32856SOL    HW1  575   1.479   5.698   5.380  1.6792 -0.2539 -0.8790
32856SOL    HW2  576   1.405   5.586   5.451  0.2868  1.5566  0.6461
32857SOL     OW  577   4.643   5.535  10.445  0.4828 -0.1523  0.5531
32857SOL    HW1  578   4.563   5.487  10.466  0.9409 -0.1234  2.6538
32857SOL    HW2  579   4.617   5.627  10.449  0.3663 -0.1599  0.0198
32858SOL     OW  580   8.926   3.801   1.907  0.4862 -0.7249  0.0318
32858SOL    HW1  581   8.916   3.718   1.860 -0.3553 -1.1029  0.8418
32858SOL    HW2  582   9.002   3.843   1.867  0.5299 -1.5955 -0.8202
32859SOL     OW  583   7.740   6.201   4.356 -0.0215  0.4594  0.0979
32859SOL    HW1  584   7.744   6.226   4.448  1.7646  1.9571 -0.3161
32859SOL    HW2  585   7.792   6.120   4.351 -1.6087 -0.6432  0.6399
32860SOL     OW  586  10.804   7.750   0.783  0.3389  0.5203 -0.5729
32860SOL    HW1  587  10.719   7.747   0.826  0.8155  1.7892  0.5366
32860SOL    HW2  588  10.808   7.669   0.732 -1.4313  0.3409 -0.4832
32861SOL     OW  589   4.152   7.309   5.368 -0.4993  0.5065  0.5018
32861SOL    HW1  590   4.239   7.321   5.329  0.0765 -1.5300  0.9922
32861SOL    HW2  591   4.092   7.318   5.294  0.3579 -0.5372 -0.3755
32862SOL     OW  592   2.292   2.426   2.364 -0.1829  0.2108  0.1282
32862SOL    HW1  593   2.344   2.491   2.410  0.7050 -0.0267 -0.5076
32862SOL    HW2  594   2.202   2.453   2.377  0.1129  0.8107  0.9893
32863SOL     OW  595  10.887   3.512   0.742  0.3120  0.0883 -0.3332
32863SOL    HW1  596  10.971   3.556   0.751  0.7779 -0.9343  0.4399
32863SOL    HW2  597  10.877   3.462   0.823 -2.0138  1.8067  0.5637
32864SOL     OW  598   9.164   8.837   5.142  0.2276 -0.1755 -0.0407
32864SOL    HW1  599   9.114   8.785   5.080 -1.0434 -0.1108  0.8897
32864SOL    HW2  600   9.118   8.826   5.225  1.3606  0.4676  0.6998
32865SOL     OW  601   0.255   8.108   3.797  0.6417  0.1426 -0.1708
32865SOL    HW1  602   0.247   8.015   3.819  0.1861  0.1060 -0.4815
32865SOL    HW2  603   0.348   8.120   3.778  0.6574 -0.3050 -0.3763
32866SOL     OW  604   5.184   4.442   7.580  0.1402  0.5454  0.7937
32866SOL    HW1  605   5.113   4.502   7.556  0.8640  1.7457  1.5535
32866SOL    HW2  606   5.247   4.497   7.626  3.2016  0.2976 -2.6559
32867SOL     OW  607   7.390  10.840   1.644  0.2818  0.0812  0.2652
32867SOL    HW1  608   7.310  10.806   1.686  0.4416 -1.7329 -0.8025
32867SOL    HW2  609   7.442  10.874   1.717 -0.6557 -0.4185  1.1997
32868SOL     OW  610   2.769   7.412   3.717  0.6616 -0.2782 -0.0196
32868SOL    HW1  611   2.802   7.494   3.680  0.7092  0.5630  1.7916
32868SOL    HW2  612   2.740   7.361   3.641  1.7148  0.9224 -1.2717
32869SOL     OW  613   9.453   2.023   1.698  0.2557  0.3315 -0.0101
32869SOL    HW1  614   9.372   2.062   1.729 -0.2883 -0.1995 -0.7347
32869SOL    HW2  615   9.504   2.096   1.663 -0.4098  0.5147 -0.6177
32870SOL     OW  616   6.675   6.511   2.721 -0.2300 -0.1552 -1.1085
32870SOL    HW1  617   6.703   6.420   2.709 -0.7312 -0.5494  0.4320
32870SOL    HW2  618   6.666   6.545   2.632  1.4500 -1.1332 -1.7064
32871SOL     OW  619   4.462  10.322   4.850 -0.2210  0.5397 -0.1384
32871SOL    HW1  620   4.549  10.281   4.850 -0.7599 -0.6767  0.6159
32871SOL    HW2  621   4.477  10.409   4.815  1.8765  1.5380  2.7743
32872SOL     OW  622   4.965   8.522   1.926 -0.0127  0.3726 -0.6830
32872SOL    HW1  623   4.973   8.541   2.020  1.4721 -0.7105 -0.5525
32872SOL    HW2  624   4.910   8.443   1.922  1.9938 -1.1167 -0.4859
32873SOL     OW  625   6.253   9.065   1.563  0.2847  0.1853 -0.0502
32873SOL    HW1  626   6.231   9.028   1.477 -1.3329 -0.6704  0.6869
32873SOL    HW2  627   6.340   9.103   1.551  0.5570 -0.8732 -1.7680
32874SOL     OW  628   5.177   2.273  10.285 -0.4709  0.3904 -0.3733
32874SOL    HW1  629   5.153   2.349  10.232  0.6192  2.0677  1.4125
32874SOL    HW2  630   5.272   2.276  10.292 -0.5416  0.1200  1.4492
32875SOL     OW  631   8.866   8.877   5.853 -0.1176 -0.1089  0.7226
32875SOL    HW1  632   8.910   8.792   5.857 -0.3796 -0.2325  1.0765
32875SOL    HW2  633   8.921   8.935   5.905 -0.7203 -0.4299  1.7497
32876SOL     OW  634   4.838   7.363   1.904  0.1278  0.1749 -0.0281
32876SOL    HW1  635   4.776   7.389   1.972  0.7723 -0.3422  0.7750
32876SOL    HW2  636   4.857   7.271   1.922  2.4292  0.7417  0.8417
32877SOL     OW  637   0.886   8.552   5.092  0.2415  0.4508 -0.2760
32877SOL    HW1  638   0.969   8.524   5.053  0.9110  0.5712  0.9843
32877SOL    HW2  639   0.874   8.642   5.061 -0.2428 -0.1053 -1.7304
32878SOL     OW  640   9.180   0.601   3.286 -0.7276 -1.2892  0.0779
32878SOL    HW1  641   9.208   0.607   3.195 -0.7577 -0.2188  0.1232
32878SOL    HW2  642   9.086   0.620   3.285 -0.5807 -0.4715  0.4005
32879SOL     OW  643   6.219   9.188  10.216  0.2721 -0.2996 -0.0920
32879SOL    HW1  644   6.173   9.189  10.132 -1.0708  0.4323  0.6082
32879SOL    HW2  645   6.172   9.124  10.268 -0.1276  0.6268  0.7182
32880SOL     OW  646   8.810  10.397   5.002  0.5546 -0.3326  0.4231
32880SOL    HW1  647   8.716  10.378   5.010  0.1395  1.5859  0.6738
32880SOL    HW2  648   8.825  10.401   4.907  0.4949 -1.1452  0.3784
32881SOL     OW  649   9.978   5.037   5.729  0.2355 -0.4033  0.2405
32881SOL    HW1  650   9.899   5.063   5.776  0.7575 -0.4859  1.2134
32881SOL    HW2  651   9.982   5.094   5.653 -0.8494 -0.5186  0.0848
32882SOL     OW  652   1.262   9.043   3.008 -0.3878  0.3248  0.2050
32882SOL    HW1  653   1.199   9.026   3.078 -0.2046 -1.1251  0.0489
32882SOL    HW2  654   1.285   8.956   2.975  1.8830  0.8043  0.4014
32883SOL     OW  655   0.013   6.126   2.011 -0.3476 -0.3067 -0.1463
32883SOL    HW1  656   0.103   6.095   1.999 -0.1975  0.2310 -0.4101
32883SOL    HW2  657   0.020   6.221   2.018 -0.6925 -0.3786  1.7705
32884SOL     OW  658   4.484   7.355   5.598  0.0487 -0.1060  0.0693
32884SOL    HW1  659   4.525   7.344   5.683 -0.1831 -0.1047  0.1821
32884SOL    HW2  660   4.411   7.293   5.598  0.5126 -0.6681 -0.4258
32885SOL     OW  661   6.604   5.446   4.141 -0.0786 -0.4627  0.3058
32885SOL    HW1  662   6.658   5.388   4.195  0.2539 -0.5230 -0.0831
32885SOL    HW2  663   6.625   5.422   4.051  1.3473  1.3642  0.0840
32886SOL     OW  664   0.511   0.750   0.141  0.1351 -0.2323  0.4309
32886SOL    HW1  665   0.446   0.682   0.126  0.3484 -0.4697  0.5698
32886SOL    HW2  666   0.593   0.712   0.111  0.3003 -0.1350  0.7486
32887SOL     OW  667   2.053   7.391   4.210  0.4903  0.0215  0.8153
32887SOL    HW1  668   2.048   7.457   4.279  3.0586 -0.3611  1.4535
32887SOL    HW2  669   2.019   7.435   4.132 -2.2306  0.5570  2.1589
32888SOL     OW  670   8.708   4.365   7.832 -0.5015  0.0892  0.1011
32888SOL    HW1  671   8.794   4.407   7.825 -0.3566 -0.2665 -0.3337
32888SOL    HW2  672   8.687   4.367   7.926 -0.0669  0.2764  0.1951
32889SOL     OW  673   1.458   6.140   9.962 -0.2798  0.4324  0.7842
32889SOL    HW1  674   1.433   6.215  10.016 -1.9813 -1.0675  2.1849
32889SOL    HW2  675   1.376   6.111   9.922  0.0276 -1.5913  1.5057
32890SOL     OW  676   6.958  10.737   1.569 -0.7650 -0.6945  0.5087
32890SOL    HW1  677   6.906  10.744   1.489  0.4693 -0.9676 -0.3439
32890SOL    HW2  678   6.986  10.646   1.571 -1.4638 -0.9042  1.7119
32891SOL     OW  679   2.543   5.119   8.835 -0.0526 -0.2132 -0.3063
32891SOL    HW1  680   2.612   5.061   8.868 -0.5348 -0.9235 -0.5127
32891SOL    HW2  681   2.503   5.070   8.764  0.1538  0.7902 -1.1305
32892SOL     OW  682   6.908   6.594   0.056  0.2980  0.1753  0.1651
32892SOL    HW1  683   6.984   6.606   0.113  0.3378  1.3136 -0.0993
32892SOL    HW2  684   6.858   6.523   0.097 -0.0807  1.4552  2.0781
32893SOL     OW  685   0.820   5.036   2.822 -0.1100 -0.4188  0.5784
32893SOL    HW1  686   0.803   4.982   2.745 -2.2274 -0.5817  1.1111
32893SOL    HW2  687   0.767   4.996   2.891  0.6070  0.6033  1.7474
32894SOL     OW  688   8.178   7.882   8.558  0.0012 -0.4355 -0.3730
32894SOL    HW1  689   8.134   7.872   8.643 -0.8667 -0.5788 -0.8290
32894SOL    HW2  690   8.145   7.965   8.524  0.6271 -0.1971 -0.4166
32895SOL     OW  691   0.917   2.757   2.680  0.1108 -0.4538  0.2208
32895SOL    HW1  692   0.849   2.703   2.640 -1.0355  1.8595 -1.1390
32895SOL    HW2  693   0.875   2.796   2.756 -0.5145  1.7311 -1.1494
32896SOL     OW  694   2.393   8.990   5.348 -0.1092  0.0096 -0.6533
32896SOL    HW1  695   2.481   8.954   5.334 -0.0514 -1.4128  2.6049
32896SOL    HW2  696   2.409   9.081   5.374  0.4713 -0.3939  0.4580
32897SOL     OW  697   8.769   3.884   4.650 -0.0828  0.0717  0.7106
32897SOL    HW1  698   8.805   3.847   4.730  0.0304 -0.3801  0.4538
32897SOL    HW2  699   8.694   3.828   4.630  1.8189 -1.9678 -1.3254
32898SOL     OW  700   0.948   7.102   3.494 -0.2677 -0.1082  0.2341
32898SOL    HW1  701   0.907   7.016   3.493 -2.0233  0.6798  0.4147
32898SOL    HW2  702   0.895   7.153   3.556 -0.6627  1.7146 -1.4959
32899SOL     OW  703   0.981   9.616   0.313  0.1050  0.1212  0.3193
32899SOL    HW1  704   1.006   9.693   0.263 -0.2341  1.4594  2.1119
32899SOL    HW2  705   0.890   9.600   0.288  0.1981  0.2610 -0.1091
32900SOL     OW  706  10.821   7.434   6.233  0.4307 -0.6690  0.3983
32900SOL    HW1  707  10.884   7.387   6.179 -0.8360  0.0153 -1.8382
32900SOL    HW2  708  10.760   7.367   6.264  0.8124 -0.9969  0.4432
32901SOL     OW  709   0.111   4.119   8.233 -0.7094  0.2467 -0.1432
32901SOL    HW1  710   0.177   4.052   8.215  0.3070  1.4030 -0.8625
32901SOL    HW2  711   0.058   4.123   8.154 -0.8048  0.2556 -0.0790
32902SOL     OW  712   6.380   4.442   0.278  0.0334  0.2411  0.4118
32902SOL    HW1  713   6.433   4.516   0.247  0.3685 -0.8952 -1.9587
32902SOL    HW2  714   6.291   4.476   0.280  0.4760  1.4157  1.8754
32903SOL     OW  715   7.674   2.294   6.896  0.3962  0.5546  0.0712
32903SOL    HW1  716   7.594   2.249   6.924  1.1128 -0.5000  0.4957
32903SOL    HW2  717   7.643   2.372   6.850 -0.9856 -1.2008 -2.2268
32904SOL     OW  718   8.080   4.606   3.345 -0.6081  0.2770  0.1878
32904SOL    HW1  719   8.175   4.592   3.350 -0.5511  0.7344  0.4673
32904SOL    HW2  720   8.052   4.611   3.437 -0.8183  0.6652  0.1064
32905SOL     OW  721   5.548   9.831   2.881 -0.0624 -0.3783  0.7756
32905SOL    HW1  722   5.516   9.918   2.858 -1.6780 -0.2040  3.3444
32905SOL    HW2  723   5.521   9.775   2.807 -0.6716  0.9361 -0.0238
32906SOL     OW  724   9.463   7.778   3.656  0.0117  0.4242 -0.5391
32906SOL    HW1  725   9.554   7.797   3.633 -0.0604 -0.4665 -1.6571
32906SOL    HW2  726   9.440   7.847   3.719  2.1324 -0.6279  1.5619
32907SOL     OW  727   0.715   0.642  10.791 -0.6507 -0.2737 -0.2686
32907SOL    HW1  728   0.783   0.645  10.858 -0.5564 -2.1394 -0.2139
32907SOL    HW2  729   0.693   0.733  10.773  0.5307  0.2940  1.0689
32908SOL     OW  730   9.648   7.874   9.151 -0.3665 -0.3511 -0.6129
32908SOL    HW1  731   9.668   7.959   9.111 -0.9192 -0.8080 -1.9322
32908SOL    HW2  732   9.553   7.868   9.147 -0.4637 -0.3277  1.0294
32909SOL     OW  733   9.705   8.723   0.178  0.0804  0.6755 -0.3487
32909SOL    HW1  734   9.643   8.779   0.133 -0.4858  2.1095  2.0082
32909SOL    HW2  735   9.790   8.746   0.142 -0.2173  2.6860  0.1321
32910SOL     OW  736   5.777   3.819   6.966 -0.2003 -0.2517 -0.2433
32910SOL    HW1  737   5.775   3.913   6.983 -1.9443 -0.4588  0.9384
32910SOL    HW2  738   5.867   3.793   6.984 -0.1709  0.8573  1.4402
32911SOL     OW  739  10.222   2.503   9.788  0.6120  0.3995  0.0006
32911SOL    HW1  740  10.231   2.598   9.795  0.5424  0.5364 -1.4203
32911SOL    HW2  741  10.127   2.487   9.789  0.6368  0.2313  1.2657
32912SOL     OW  742   8.387   1.351   0.095 -0.0015 -0.1405  0.2598
32912SOL    HW1  743   8.408   1.261   0.069  0.7113 -0.2768  1.2415
32912SOL    HW2  744   8.299   1.366   0.061  0.2023 -0.9120 -0.6512
32913SOL     OW  745   6.721   4.329   8.060  0.1473 -0.3109 -0.0288
32913SOL    HW1  746   6.731   4.332   7.965  0.4678 -1.0816 -0.0303
32913SOL    HW2  747   6.742   4.417   8.089  3.1038 -0.7828 -0.4138
32914SOL     OW  748   9.981   8.807   0.370 -0.1448  0.6069 -0.3821
32914SOL    HW1  749   9.909   8.806   0.433  0.6463  1.8832  0.5839
32914SOL    HW2  750   9.941   8.838   0.288 -1.1592 -0.9810 -0.5254
32915SOL     OW  751   8.621   3.669   8.703  0.5655 -0.4410 -0.5931
32915SOL    HW1  752   8.717   3.679   8.706  0.4053  1.5932 -0.7308
32915SOL    HW2  753   8.598   3.640   8.791  1.4679 -3.2793 -1.1934
32916SOL     OW  754   5.495   4.089   0.967  0.1245  0.2008  0.4384
32916SOL    HW1  755   5.489   3.995   0.950  0.1066  0.2801 -0.0236
32916SOL    HW2  756   5.421   4.126   0.919  0.7684  0.5646 -0.2998
32917SOL     OW  757   6.405   0.729   4.408  0.1426  0.0391  0.2207
32917SOL    HW1  758   6.465   0.791   4.366 -0.7130 -0.4405 -1.8639
32917SOL    HW2  759   6.429   0.731   4.500  2.2088  1.1287 -0.2721
32918SOL     OW  760   5.533   3.394   4.148  0.8000  0.5162  0.6568
32918SOL    HW1  761   5.535   3.359   4.237 -0.7191  1.0975  0.9682
32918SOL    HW2  762   5.488   3.327   4.097 -0.8860  1.3335  0.9706
32919SOL     OW  763   0.401   4.543  10.232 -0.2967  0.3807 -0.3118
32919SOL    HW1  764   0.308   4.560  10.219 -0.8070 -0.8465  1.4009
32919SOL    HW2  765   0.441   4.558  10.146 -1.6866  3.1866 -0.5836
32920SOL     OW  766   7.114   6.115   2.999 -0.5341 -0.2780  0.1871
32920SOL    HW1  767   7.101   6.023   2.975 -1.1618 -0.1604  0.0402
32920SOL    HW2  768   7.025   6.152   2.999 -0.6966 -0.4235  3.4006
32921SOL     OW  769   7.660   1.861   2.603  0.2056  0.2711 -0.0135
32921SOL    HW1  770   7.645   1.814   2.521 -1.5215  0.9518 -0.1142
32921SOL    HW2  771   7.750   1.894   2.595  0.0572  0.3711 -1.6590
32922SOL     OW  772   6.782   2.988   2.426  0.5709  0.6784  0.5087
32922SOL    HW1  773   6.875   2.969   2.420  0.2012 -2.4595  2.6462
32922SOL    HW2  774   6.741   2.935   2.357  0.1837 -0.2227  1.4001
32923SOL     OW  775   9.912   8.203   3.838 -0.3617 -0.3792  0.4359
32923SOL    HW1  776   9.895   8.149   3.761 -0.8948 -0.1834  0.4101
32923SOL    HW2  777   9.829   8.247   3.855  0.6619  2.4606 -1.1240
32924SOL     OW  778   7.037   3.970   2.957 -1.1264 -0.2670 -0.1463
32924SOL    HW1  779   6.962   3.983   3.015 -0.6507 -1.3084  0.7439
32924SOL    HW2  780   7.089   4.049   2.967 -1.4051 -0.1346  0.3052
32925SOL     OW  781   9.028   5.501   0.168  0.1844 -0.5121  0.3683
32925SOL    HW1  782   9.045   5.536   0.255  2.4943 -0.9943  0.1701
32925SOL    HW2  783   8.992   5.575   0.119  0.5604  0.2605  1.2276
32926SOL     OW  784   0.600   4.994   0.285 -0.2664  1.0537 -0.2474
32926SOL    HW1  785   0.531   4.934   0.315 -1.3131  3.0721  1.6344
32926SOL    HW2  786   0.553   5.071   0.253  1.0704  1.2018 -1.9694
32927SOL     OW  787   0.018   6.894   3.667  0.0395 -0.7291  0.1368
32927SOL    HW1  788  -0.018   6.828   3.727 -2.6470 -1.3181 -1.9486
32927SOL    HW2  789   0.017   6.976   3.718 -0.9487 -1.4197  1.2773
32928SOL     OW  790   9.612   5.762   6.680  0.1236  0.8589  0.3334
32928SOL    HW1  791   9.600   5.840   6.734  2.7734  0.7532  1.2323
32928SOL    HW2  792   9.549   5.699   6.715 -1.0121  2.0855  0.5882
32929SOL     OW  793   2.580   8.435   9.304  0.5994  0.2148  0.2770
32929SOL    HW1  794   2.552   8.353   9.262 -0.7223  0.2180  1.0975
32929SOL    HW2  795   2.612   8.408   9.390  1.0575  0.4721  0.1916
32930SOL     OW  796   8.373   1.683   3.848 -0.1480 -0.0424 -0.7198
32930SOL    HW1  797   8.407   1.736   3.775  1.0990  1.8744  1.1258
32930SOL    HW2  798   8.279   1.681   3.835 -0.1716  2.1828 -1.2237
32931SOL     OW  799  10.669   8.863   9.308  0.0106 -0.6192 -0.1548
32931SOL    HW1  800  10.754   8.871   9.264  0.8280  0.3996  1.5252
32931SOL    HW2  801  10.652   8.951   9.343 -1.6075 -0.8886 -0.2114
32932SOL     OW  802   2.614   2.538   4.147  0.5273 -0.4550 -0.2966
32932SOL    HW1  803   2.607   2.608   4.212  1.3797 -1.5303  1.0076
32932SOL    HW2  804   2.541   2.555   4.086 -0.6482  0.2787  1.2279
32933SOL     OW  805   9.739  10.308  10.915  0.0266  0.4845  0.0321
32933SOL    HW1  806   9.778  10.240  10.970  0.7799  0.1182 -0.9337
32933SOL    HW2  807   9.809  10.373  10.905 -0.1300  0.5867 -0.4161
32934SOL     OW  808   3.086   4.702   0.730 -0.1442  0.0937 -0.2311
32934SOL    HW1  809   3.099   4.645   0.655  0.0049 -2.9500  1.9117
32934SOL    HW2  810   2.991   4.720   0.731  0.0076  1.1304 -1.7033
32935SOL     OW  811   6.915   6.839   9.674 -0.3627  0.1673  0.0168
32935SOL    HW1  812   6.874   6.901   9.734 -0.5153 -0.2705  0.3646
32935SOL    HW2  813   7.008   6.863   9.674 -0.3192  0.0012  0.6270
32936SOL     OW  814   8.638   9.614   7.698 -0.3556  0.1496 -0.0018
32936SOL    HW1  815   8.560   9.583   7.652 -0.8731 -0.9607  1.5458
32936SOL    HW2  816   8.689   9.659   7.631 -1.3674 -0.8449 -1.5018
32937SOL     OW  817   6.051   6.942   1.249 -0.2331  0.1379 -0.0570
32937SOL    HW1  818   5.982   6.889   1.210 -0.6191  1.1492 -0.8103
32937SOL    HW2  819   6.125   6.932   1.188 -0.5402  1.0079 -0.5848
32938SOL     OW  820   8.493   6.832   7.642 -0.0599  0.4135  0.6976
32938SOL    HW1  821   8.408   6.853   7.681 -0.0636  0.8869  0.4479
32938SOL    HW2  822   8.552   6.821   7.717  0.1552  2.2578  0.8571
32939SOL     OW  823   2.590   7.142   9.019  0.8197 -0.0320  0.3860
32939SOL    HW1  824   2.638   7.165   9.099  1.2566  0.4252  0.0068
32939SOL    HW2  825   2.512   7.197   9.021  0.9205  0.1108  0.4089
32940SOL     OW  826   0.705   7.891   2.996 -0.5784  0.3408  1.1393
32940SOL    HW1  827   0.743   7.976   2.976 -0.5692  0.3502  1.1948
32940SOL    HW2  828   0.660   7.904   3.080  0.1707  0.0757  1.6023
32941SOL     OW  829   1.303   7.426   3.497  0.2036  0.1756 -0.3457
32941SOL    HW1  830   1.209   7.413   3.488 -0.0476  0.3140  1.6875
32941SOL    HW2  831   1.341   7.374   3.426 -1.4081  0.8721 -1.7857
32942SOL     OW  832  10.723   6.832  11.055  0.0837  0.7331 -0.0184
32942SOL    HW1  833  10.761   6.895  11.116  1.3044 -0.3622  0.3731
32942SOL    HW2  834  10.724   6.878  10.971  1.7455  0.9833  0.0949
32943SOL     OW  835   4.124   4.231  10.646 -0.3529  0.1381  0.2429
32943SOL    HW1  836   4.211   4.241  10.608 -1.0117  1.9109 -0.9204
32943SOL    HW2  837   4.065   4.274  10.584 -2.1140 -1.2378  0.8663
32944SOL     OW  838   3.424   5.226   3.236 -0.4535 -1.2049 -0.1328
32944SOL    HW1  839   3.333   5.214   3.262 -0.0893  0.5820  2.3824
32944SOL    HW2  840   3.472   5.157   3.283 -0.3725 -1.4320 -0.5431
32945SOL     OW  841   6.774   4.810   9.830  0.3123 -0.2914 -0.6212
32945SOL    HW1  842   6.770   4.902   9.857 -0.6966 -0.2563 -0.8424
32945SOL    HW2  843   6.708   4.767   9.884 -0.0730 -0.6558 -1.3679
32946SOL     OW  844  10.178   6.579   3.030  0.4115  0.0777  0.1884
32946SOL    HW1  845  10.235   6.583   3.107  2.1102  0.8056 -1.0530
32946SOL    HW2  846  10.234   6.545   2.960 -0.3606  1.8081 -1.3518
32947SOL     OW  847   4.985   9.415   4.948  0.1422 -0.1117  0.3199
32947SOL    HW1  848   4.973   9.493   5.002 -1.3548  0.3885 -0.6599
32947SOL    HW2  849   4.912   9.417   4.886 -0.7301 -3.0052  1.0738
32948SOL     OW  850   8.984   5.246   2.953  0.1262  0.1077 -0.1542
32948SOL    HW1  851   8.946   5.271   2.869  1.5891  0.3869 -0.7596
32948SOL    HW2  852   8.984   5.327   3.004 -0.8209 -0.0758  0.1488
32949SOL     OW  853   9.185   4.162   3.859 -0.0638  0.2304  0.2432
32949SOL    HW1  854   9.279   4.157   3.843  0.2773 -2.6182  2.4153
32949SOL    HW2  855   9.176   4.150   3.953 -2.6386 -0.4152 -0.0163
32950SOL     OW  856   8.509   4.743   5.243 -0.2018 -0.3558  0.1445
32950SOL    HW1  857   8.543   4.690   5.315  0.7498  0.2339  0.1332
32950SOL    HW2  858   8.498   4.680   5.171 -0.0021 -0.7203  0.4262
32951SOL     OW  859   1.234   0.246  10.425 -0.1390  0.4127  0.3495
32951SOL    HW1  860   1.179   0.180  10.381 -0.5625  0.8952  0.1440
32951SOL    HW2  861   1.314   0.249  10.372 -0.8245  1.3127 -0.6877
32952SOL     OW  862   2.426   9.568   3.793  0.0731  0.2631  0.1709
32952SOL    HW1  863   2.374   9.557   3.873 -0.8503  1.7275 -0.1901
32952SOL    HW2  864   2.406   9.657   3.764  1.2079  0.1186 -1.1238
32953SOL     OW  865   4.285   7.910   9.054 -0.1831 -0.1103 -0.0509
32953SOL    HW1  866   4.236   7.983   9.091 -0.8105 -0.9674  0.8732
32953SOL    HW2  867   4.374   7.943   9.044 -0.3779  0.6685  0.6796
32954SOL     OW  868   0.619   8.827   5.682 -0.3186 -0.0666 -0.0188
32954SOL    HW1  869   0.670   8.896   5.640 -0.1333 -0.2661 -0.1247
32954SOL    HW2  870   0.589   8.865   5.764 -1.2994  0.5848 -0.6490
32955SOL     OW  871  11.097   8.858   1.239 -0.0493 -0.4479 -0.4753
32955SOL    HW1  872  11.124   8.768   1.257  0.9378  0.1921  1.5623
32955SOL    HW2  873  11.030   8.877   1.305  0.5475  0.6469 -0.1536
32956SOL     OW  874   6.371   4.975   4.680  0.1228  0.0920  0.0166
32956SOL    HW1  875   6.300   5.028   4.643 -0.6172 -0.0542  1.1642
32956SOL    HW2  876   6.363   4.890   4.637 -1.5815 -0.5106  1.4149
32957SOL     OW  877   2.894   3.585   0.881 -0.2774  0.6705 -0.6361
32957SOL    HW1  878   2.809   3.568   0.839 -1.0062  3.0731 -0.2396
32957SOL    HW2  879   2.878   3.571   0.974  0.1191 -0.1057 -0.6760
32958SOL     OW  880   0.072  10.693   5.254 -0.0707 -0.2859  0.2529
32958SOL    HW1  881   0.005  10.721   5.192  0.9234 -1.0744 -1.2483
32958SOL    HW2  882   0.023  10.644   5.321 -0.9901 -1.0688 -0.9423
32959SOL     OW  883   6.438  11.034   9.400  0.4129 -0.0116  0.0944
32959SOL    HW1  884   6.500  10.963   9.386 -0.7191 -1.4507  1.9119
32959SOL    HW2  885   6.404  11.054   9.313  0.9106 -1.5577 -0.4849
32960SOL     OW  886   8.508   8.766   3.089 -0.7204  0.5570  0.5383
32960SOL    HW1  887   8.596   8.767   3.052 -1.0910 -0.2456 -0.4075
32960SOL    HW2  888   8.481   8.674   3.084 -1.9536  0.9385 -0.0303
32961SOL     OW  889   9.147   4.745   5.516  0.1194 -0.1785 -0.2295
32961SOL    HW1  890   9.222   4.776   5.465  0.3818  0.4361  0.5101
32961SOL    HW2  891   9.173   4.657   5.546  0.8183  0.2830  0.5488
32962SOL     OW  892   7.966   4.841   7.910  0.3132  0.2716 -0.1930
32962SOL    HW1  893   7.939   4.886   7.990  1.0808 -0.8958  0.7716
32962SOL    HW2  894   7.917   4.759   7.912  0.9232 -0.1040 -0.5008
32963SOL     OW  895   5.016   0.921   9.464 -0.0945  0.0025  0.2422
32963SOL    HW1  896   5.051   0.920   9.375  0.8599  2.1315  0.5173
32963SOL    HW2  897   5.092   0.906   9.520 -0.5783 -0.6779  0.7380
32964SOL     OW  898  10.394   9.603   4.228 -0.3897 -0.2734  0.5609
32964SOL    HW1  899  10.332   9.652   4.283  1.4040  0.8546  1.6647
32964SOL    HW2  900  10.395   9.515   4.266 -0.2789  0.0854  1.4139
32965SOL     OW  901   2.966   2.245   5.357 -0.2916  0.2055 -0.0977
32965SOL    HW1  902   2.967   2.167   5.412 -0.4753  0.3084  0.0555
32965SOL    HW2  903   3.032   2.229   5.291 -0.2797 -0.0504 -0.0252
32966SOL     OW  904   6.434   1.230   2.477  0.1192 -0.3396 -0.5305
32966SOL    HW1  905   6.479   1.223   2.562 -1.5904 -2.9821  0.2673
32966SOL    HW2  906   6.373   1.304   2.489  0.0432 -0.5448  0.4773
32967SOL     OW  907   7.670   8.955   5.979  0.0609 -0.2544 -0.1813
32967SOL    HW1  908   7.590   8.972   6.029  0.6650 -0.8124  1.0286
32967SOL    HW2  909   7.648   8.977   5.889 -1.0682  0.8251  0.3362
32968SOL     OW  910  10.646   7.873   5.352  0.3683 -0.0833  0.6104
32968SOL    HW1  911  10.571   7.928   5.331 -0.2007 -0.8367  0.5987
32968SOL    HW2  912  10.611   7.784   5.350  1.1846 -0.4220  0.9648
32969SOL     OW  913  10.733   7.610   2.150  0.6502  0.2616 -0.2402
32969SOL    HW1  914  10.638   7.605   2.149  0.5152  1.6517  1.0765
32969SOL    HW2  915  10.758   7.630   2.060 -0.3395  0.2945 -0.5102
32970SOL     OW  916   3.632   0.941   5.367  0.2930 -0.2153  0.3137
32970SOL    HW1  917   3.612   0.954   5.275 -1.1449 -0.2763  0.6047
32970SOL    HW2  918   3.667   0.852   5.373 -1.2512 -0.8569  0.0701
32971SOL     OW  919   9.742   8.771   9.960  0.0718 -0.6355  0.2637
32971SOL    HW1  920   9.733   8.757   9.866 -3.2196 -2.8358  0.7301
32971SOL    HW2  921   9.723   8.685   9.999 -1.5236  0.8048  2.9852
32972SOL     OW  922   0.061   8.894   2.971  0.0139  0.2922 -0.0619
32972SOL    HW1  923   0.056   8.971   3.028 -2.4808  0.7699 -0.8040
32972SOL    HW2  924  -0.014   8.841   2.996  1.6964 -1.9838  0.4494
32973SOL     OW  925   7.519   3.026  10.727 -0.5428 -0.1936  0.3917
32973SOL    HW1  926   7.514   2.932  10.711 -2.6327 -0.0360 -0.0941
32973SOL    HW2  927   7.437   3.061  10.692 -0.6739  1.5528  2.2863
32974SOL     OW  928   0.519   7.988   5.115 -0.2408 -0.5022  0.0711
32974SOL    HW1  929   0.549   7.983   5.025  2.0209 -2.1410  0.8267
32974SOL    HW2  930   0.538   8.078   5.142 -0.3021 -0.2030 -0.8560
32975SOL     OW  931   1.106   8.190  10.445 -0.5070  0.5185 -0.5684
32975SOL    HW1  932   1.030   8.174  10.500 -0.7510  1.3198 -0.6577
32975SOL    HW2  933   1.174   8.220  10.505 -1.4972  3.7946 -0.9154
32976SOL     OW  934   7.474  10.127  10.507 -0.1194 -0.0111  0.5596
32976SOL    HW1  935   7.512  10.201  10.460 -1.2550  0.9139  1.0252
32976SOL    HW2  936   7.437  10.166  10.587 -1.4343 -0.9380  0.4369
32977SOL     OW  937   2.870   7.884   3.954 -0.4664 -0.1275 -0.1336
32977SOL    HW1  938   2.842   7.888   3.862 -0.9855 -2.7842 -0.1710
32977SOL    HW2  939   2.965   7.895   3.951 -0.6298  1.3407 -0.7983
32978SOL     OW  940   0.690   9.745   9.702 -0.3453 -0.7343 -0.1421
32978SOL    HW1  941   0.613   9.692   9.681 -0.3744 -0.6959 -0.1350
32978SOL    HW2  942   0.698   9.740   9.797 -1.5495  0.9025  0.0873
32979SOL     OW  943   3.448   3.566   1.609  0.2342 -0.2102  0.0815
32979SOL    HW1  944   3.360   3.593   1.581  0.6032  0.3949 -0.5482
32979SOL    HW2  945   3.483   3.643   1.654  0.0212 -0.8455  1.3662
32980SOL     OW  946   7.687   4.726   3.074  0.2223 -0.3953  0.7438
32980SOL    HW1  947   7.721   4.767   3.154 -0.0857  0.5759  0.3921
32980SOL    HW2  948   7.764   4.687   3.033  1.0393  2.0551 -0.2062
32981SOL     OW  949   4.259   4.581   1.467  0.2010 -0.2302 -0.2576
32981SOL    HW1  950   4.181   4.631   1.443 -0.3328 -0.9615 -0.0884
32981SOL    HW2  951   4.332   4.630   1.430 -0.4225 -0.1052 -1.3527
32982SOL     OW  952   8.472   4.591   3.656  1.0095 -0.5924  0.7490
32982SOL    HW1  953   8.427   4.670   3.684 -0.5539 -1.2866  0.3285
32982SOL    HW2  954   8.535   4.573   3.726 -0.2896 -0.2936  2.0253
32983SOL     OW  955   9.369   5.234   3.052 -0.6407 -0.4125 -0.5775
32983SOL    HW1  956   9.339   5.169   3.116 -0.2887  0.4135  0.4632
32983SOL    HW2  957   9.452   5.200   3.019 -0.0348 -0.1137  0.5866
32984SOL     OW  958   5.756   8.900   1.674  0.4893 -0.6820 -0.1962
32984SOL    HW1  959   5.674   8.858   1.701  1.2168 -1.5462  0.7407
32984SOL    HW2  960   5.817   8.881   1.744  0.9970  1.6079  0.0745
32985SOL     OW  961   1.814   8.874   0.864  0.3834 -0.1205 -0.3337
32985SOL    HW1  962   1.903   8.877   0.830  0.2891 -0.5350 -0.6299
32985SOL    HW2  963   1.775   8.798   0.821 -0.0661 -0.0280 -0.0933
32986SOL     OW  964   7.982   9.624   0.033 -0.1484 -0.6212 -0.0938
32986SOL    HW1  965   7.952   9.712   0.057  0.4700 -0.8860  1.8173
32986SOL    HW2  966   8.003   9.630  -0.060 -1.3922  0.8830 -0.3174
32987SOL     OW  967   5.812   6.342   2.457  0.4158 -0.5759 -0.1829
32987SOL    HW1  968   5.782   6.339   2.366 -0.9219 -0.7263  0.2355
32987SOL    HW2  969   5.874   6.269   2.465  3.9649  1.9418 -2.0521
32988SOL     OW  970   5.895  10.121   4.143 -0.3105  0.1519  0.1120
32988SOL    HW1  971   5.838  10.050   4.175 -1.6236  2.4007  3.2434
32988SOL    HW2  972   5.965  10.126   4.207  0.3614  1.0371 -0.6624
32989SOL     OW  973   6.194   0.420  10.920 -0.3554 -0.4757  0.3960
32989SOL    HW1  974   6.100   0.423  10.902 -0.1829  2.2248 -0.5153
32989SOL    HW2  975   6.210   0.497  10.974  1.5240 -0.0121 -0.7298
32990SOL     OW  976   8.866   6.377  10.918 -0.4406  0.1300  0.1551
32990SOL    HW1  977   8.854   6.468  10.891  0.7533  0.4836  0.7649
32990SOL    HW2  978   8.958   6.370  10.942 -0.4834 -1.2751  0.0270
32991SOL     OW  979   9.082   5.728   5.090 -0.1963  0.2550 -0.2835
32991SOL    HW1  980   9.055   5.787   5.160  2.6738  2.6011 -0.9373
32991SOL    HW2  981   9.020   5.744   5.019 -1.5248 -0.1471  0.7568
32992SOL     OW  982   0.360   3.339   5.950 -0.3616 -0.1790  0.3503
32992SOL    HW1  983   0.283   3.320   5.895  0.4570 -0.0616 -0.8790
32992SOL    HW2  984   0.405   3.255   5.957  1.2002  0.3725 -1.8503
32993SOL     OW  985   2.360   5.408   3.815  0.1575 -0.4171 -0.3748
32993SOL    HW1  986   2.293   5.347   3.844 -1.3063  0.6975 -1.2264
32993SOL    HW2  987   2.390   5.451   3.895 -0.6449 -0.4521 -0.0510
32994SOL     OW  988   5.643   4.053   3.827  0.0349  0.3660 -0.3427
32994SOL    HW1  989   5.603   4.045   3.740  0.8792 -3.3742 -0.5464
32994SOL    HW2  990   5.737   4.046   3.812  0.3000  1.1553  0.7809
32995SOL     OW  991   6.875   4.474   1.769  0.4398  0.2172 -0.0374
32995SOL    HW1  992   6.800   4.427   1.735  0.6377 -0.9034  1.0290
32995SOL    HW2  993   6.847   4.506   1.855  1.7041 -1.7767  1.2021
32996SOL     OW  994   2.374   7.280   0.708  0.5697 -0.0217 -0.0701
32996SOL    HW1  995   2.367   7.215   0.638 -2.3392 -0.0364  0.1096
32996SOL    HW2  996   2.366   7.365   0.664  2.6134  0.1882 -0.1147
32997SOL     OW  997   8.368   2.361   0.104 -0.5351 -0.0271 -0.2526
32997SOL    HW1  998   8.453   2.319   0.090 -1.2620 -2.2574  1.4234
32997SOL    HW2  999   8.380   2.412   0.185 -0.5591  0.3812 -0.5038
32998SOL     OW 1000  10.866   7.091   7.850 -0.2092  0.4700  0.1300
32998SOL    HW1 1001  10.907   7.171   7.883  0.1053 -0.0078  0.9228
32998SOL    HW2 1002  10.789   7.079   7.907  0.6571 -0.6724  1.1086
32999SOL     OW 1003   5.803   2.432   9.761 -0.7329 -0.1265 -0.7330
32999SOL    HW1 1004   5.759   2.483   9.693 -0.7737 -0.2240 -0.7810
32999SOL    HW2 1005   5.874   2.388   9.715 -0.8010 -0.2451 -0.7267
33000SOL     OW 1006  10.858   6.135   5.737  0.2087 -0.2387  0.3734
33000SOL    HW1 1007  10.827   6.213   5.784  0.4260  0.0950 -0.0345
33000SOL    HW2 1008  10.894   6.079   5.806 -0.4473 -0.2220  0.7346
33001SOL     OW 1009   5.662   5.734   7.859  0.3788 -0.7484 -0.2908
33001SOL    HW1 1010   5.592   5.721   7.795  2.1794 -0.3784 -2.4275
33001SOL    HW2 1011   5.644   5.820   7.897  0.0240 -0.3741 -1.2873
33002SOL     OW 1012   7.430   8.510   3.278 -0.0939  0.1209  0.0798
33002SOL    HW1 1013   7.411   8.432   3.330 -1.9751 -0.7278 -1.7443
33002SOL    HW2 1014   7.347   8.558   3.276 -0.2675 -0.1662 -2.5076
33003SOL     OW 1015   9.965   8.858   3.435  0.1406 -0.0430  0.5658
33003SOL    HW1 1016   9.908   8.832   3.363  1.4212  0.1081 -0.5460
33003SOL    HW2 1017  10.034   8.791   3.437  1.0871  0.8922  0.4890
33004SOL     OW 1018   8.109   6.891   4.712  0.7366 -1.0145  0.6646
33004SOL    HW1 1019   8.109   6.880   4.807  3.5091  0.4313  0.9649
33004SOL    HW2 1020   8.192   6.852   4.684  0.7280  0.0091 -0.8969
33005SOL     OW 1021   7.331   5.188   1.046  0.1277 -0.0952  0.0035
33005SOL    HW1 1022   7.388   5.156   0.976 -0.9727  0.1963 -1.0557
33005SOL    HW2 1023   7.376   5.265   1.080  1.0681 -0.7034  0.1761
33006SOL     OW 1024   9.666   5.086   4.878 -0.3953 -0.1747 -0.2176
33006SOL    HW1 1025   9.693   5.114   4.791 -1.8197 -0.5955 -0.8185
33006SOL    HW2 1026   9.665   4.991   4.874 -0.9107 -0.1872  0.1140
33007SOL     OW 1027   7.151  10.486   8.317 -0.8227 -0.7932 -0.2332
33007SOL    HW1 1028   7.170  10.469   8.225 -0.3215  2.7615 -0.9513
33007SOL    HW2 1029   7.236  10.480   8.361 -0.7646 -0.8160 -0.3475
33008SOL     OW 1030   8.231   5.885   3.766  0.0852 -0.2661 -0.1661
33008SOL    HW1 1031   8.176   5.830   3.710 -0.2246  1.7383 -1.9526
33008SOL    HW2 1032   8.184   5.888   3.850  0.1673 -2.7062  0.0413
33009SOL     OW 1033   5.695   5.704  10.888 -0.4599  0.4393  0.1874
33009SOL    HW1 1034   5.683   5.760  10.811  0.7531  2.4355  1.3595
33009SOL    HW2 1035   5.754   5.635  10.859 -0.9289  0.4984 -0.9561
33010SOL     OW 1036  10.536  10.905   5.487 -0.0893  0.3408  0.2361
33010SOL    HW1 1037  10.529  10.809   5.480  0.6091  0.2903  0.1583
33010SOL    HW2 1038  10.472  10.929   5.553 -2.6558  0.1786 -2.0349
33011SOL     OW 1039   9.523   6.852   3.627 -0.1346 -0.2279 -0.3337
33011SOL    HW1 1040   9.526   6.936   3.580  0.8359 -1.2665 -2.2313
33011SOL    HW2 1041   9.435   6.819   3.609 -0.2153 -0.0250 -0.3234
33012SOL     OW 1042   1.656   5.109   2.272 -0.2659 -0.7256  0.5187
33012SOL    HW1 1043   1.561   5.100   2.283 -0.4412 -0.3115 -0.5282
33012SOL    HW2 1044   1.683   5.166   2.344 -0.7863 -0.9824  0.9253
33013SOL     OW 1045   8.917   1.815   7.499  0.1428  0.0136 -0.6185
33013SOL    HW1 1046   8.835   1.770   7.517  0.2649  0.0940  0.1826
33013SOL    HW2 1047   8.915   1.834   7.406 -0.3881 -0.7023 -0.7557
33014SOL     OW 1048   2.604   5.705   2.597  0.4230  0.7257 -0.0379
33014SOL    HW1 1049   2.578   5.756   2.674 -0.7149  0.0432  0.0562
33014SOL    HW2 1050   2.524   5.660   2.571  1.2886 -0.6559 -0.3915
33015SOL     OW 1051   6.062   7.029   2.967 -0.4772  0.6556 -0.3753
33015SOL    HW1 1052   6.091   7.030   3.058 -0.2757  0.7266 -0.4397
33015SOL    HW2 1053   5.967   7.025   2.972 -0.4727  0.8061 -0.1610
33016SOL     OW 1054   9.689   9.405   0.712  0.3566 -0.5785 -0.1191
33016SOL    HW1 1055   9.594   9.395   0.703  0.4174 -2.0883  0.7033
33016SOL    HW2 1056   9.725   9.358   0.636  0.4793 -1.2053  0.3250
33017SOL     OW 1057   7.883   7.057   5.037  0.4801  0.1994  0.4923
33017SOL    HW1 1058   7.909   7.135   5.088  0.6550  1.2302 -1.1055
33017SOL    HW2 1059   7.796   7.079   5.003 -1.0113 -1.7335  2.7752
33018SOL     OW 1060   0.415   0.141   0.182 -0.4546 -0.0538 -0.1829
33018SOL    HW1 1061   0.335   0.194   0.188 -0.6075  0.2782 -3.1850
33018SOL    HW2 1062   0.384   0.056   0.150  0.2099 -0.6418  0.6948
33019SOL     OW 1063   8.255   8.582   0.800  0.1755  0.1544  0.0758
33019SOL    HW1 1064   8.189   8.571   0.733 -0.7059  2.2403  0.5082
33019SOL    HW2 1065   8.224   8.530   0.874 -0.8949  0.9352  0.1951
33020SOL     OW 1066   9.038   9.438   2.629 -0.1494 -0.2688 -0.1022
33020SOL    HW1 1067   9.037   9.432   2.725 -1.1559  1.0594  0.0059
33020SOL    HW2 1068   9.097   9.511   2.611  1.9316 -2.0081 -0.6514
33021SOL     OW 1069  10.832   0.921   7.345 -0.7540  0.1265 -0.3686
33021SOL    HW1 1070  10.804   0.830   7.340  0.1745 -0.1839 -0.0689
33021SOL    HW2 1071  10.752   0.971   7.331 -1.4691 -0.7312  0.4845
33022SOL     OW 1072   3.479   9.107   1.221  0.0359 -0.2709  0.3106
33022SOL    HW1 1073   3.465   9.062   1.137  2.1144  1.9499 -1.3675
33022SOL    HW2 1074   3.406   9.079   1.276 -0.6317 -2.9378 -1.7386
33023SOL     OW 1075   4.909   1.998   0.394  0.5633 -0.3756  0.0892
33023SOL    HW1 1076   4.914   1.925   0.455 -0.9154 -0.8164 -0.2744
33023SOL    HW2 1077   4.954   1.967   0.315  0.9984 -0.4252  0.3515
33024SOL     OW 1078   9.744   6.464   8.871  0.0995 -0.6564 -0.0639
33024SOL    HW1 1079   9.771   6.534   8.811  2.1060 -2.5007 -1.4594
33024SOL    HW2 1080   9.800   6.475   8.947 -0.1414 -0.2865  0.0633
33025SOL     OW 1081  10.735   0.190   7.436  0.1210  0.4196 -0.1953
33025SOL    HW1 1082  10.770   0.111   7.394 -0.1666 -1.1835  2.3454
33025SOL    HW2 1083  10.812   0.238   7.465  0.3057 -0.2093  0.3900
33026SOL     OW 1084   1.335   5.754   3.874 -0.4522  0.0547  0.3862
33026SOL    HW1 1085   1.260   5.748   3.815  0.0367  3.3321 -0.7925
33026SOL    HW2 1086   1.296   5.753   3.962 -2.0016  2.0314 -0.1962
33027SOL     OW 1087   6.250   0.794  10.816 -0.1469  0.0950  0.2373
33027SOL    HW1 1088   6.273   0.715  10.767 -0.6890  0.6682 -0.9605
33027SOL    HW2 1089   6.177   0.767  10.872 -1.1738  0.0361 -1.0889
33028SOL     OW 1090  10.573   6.949   5.461 -0.1575 -0.4359 -0.0594
33028SOL    HW1 1091  10.660   6.924   5.493 -0.3628 -1.4704 -0.2993
33028SOL    HW2 1092  10.564   6.904   5.377  0.6355  2.7215 -2.0279
33029SOL     OW 1093   3.464   7.524   4.863  0.7766  0.2341 -0.0174
33029SOL    HW1 1094   3.404   7.598   4.872  1.5794  0.8909  0.0965
33029SOL    HW2 1095   3.411   7.447   4.885 -0.3516  0.6476 -1.1604
33030SOL     OW 1096   2.704   8.149   3.364  0.8761  0.1506  0.0525
33030SOL    HW1 1097   2.757   8.218   3.403 -1.8704  2.0593  0.7064
33030SOL    HW2 1098   2.734   8.069   3.407  3.8862  0.8763 -0.4416
33031SOL     OW 1099  10.776   2.209   1.294  0.6089 -0.4006  0.1932
33031SOL    HW1 1100  10.800   2.299   1.318  0.5900 -0.8684  2.1753
33031SOL    HW2 1101  10.682   2.203   1.316  1.0614 -1.4508  2.1173
33032SOL     OW 1102   2.027   3.058  10.840  0.5566 -0.3972 -0.4958
33032SOL    HW1 1103   2.092   3.001  10.882 -0.3129 -1.4329 -0.5204
33032SOL    HW2 1104   1.948   3.004  10.833  0.0428  0.4506 -1.5528
33033SOL     OW 1105   4.925   3.368   2.111  0.3207  0.6028 -0.1382
33033SOL    HW1 1106   4.896   3.347   2.022  0.4441 -0.3027  0.0214
33033SOL    HW2 1107   4.923   3.464   2.115  0.5871  0.6716 -1.2071
33034SOL     OW 1108  10.400   3.304   3.286  0.4116  0.2098 -0.3682
33034SOL    HW1 1109  10.446   3.278   3.365  2.2891  2.7433 -0.5006
33034SOL    HW2 1110  10.434   3.247   3.217 -1.1072 -1.8912  0.5208
33035SOL     OW 1111   6.250   3.101   0.641 -0.0842 -0.2461 -0.2156
33035SOL    HW1 1112   6.183   3.169   0.641  0.2822  0.1322  0.3030
33035SOL    HW2 1113   6.283   3.101   0.731  1.6098  0.5957 -0.7901
33036SOL     OW 1114   8.695   3.671   3.246 -0.2622 -0.1943  0.3143
33036SOL    HW1 1115   8.651   3.698   3.166  1.2262  0.3093 -0.3739
33036SOL    HW2 1116   8.771   3.620   3.217  1.5471  1.8072  1.2313
33037SOL     OW 1117   2.402   5.243   6.143  0.3108 -0.0129 -0.3931
33037SOL    HW1 1118   2.395   5.148   6.135 -1.5999 -0.1117  1.4535
33037SOL    HW2 1119   2.321   5.276   6.104 -1.5072  0.4208  3.3016
33038SOL     OW 1120   8.027  11.020   4.368  0.2093  0.3451 -0.3110
33038SOL    HW1 1121   8.079  11.095   4.395  0.2812  0.3640 -0.5017
33038SOL    HW2 1122   8.069  10.988   4.289 -1.4799  1.8790 -1.9209
33039SOL     OW 1123   0.842   5.872   2.994 -0.1661 -0.1683  0.0592
33039SOL    HW1 1124   0.911   5.894   3.056 -0.2701  0.1035  0.0788
33039SOL    HW2 1125   0.816   5.956   2.956 -2.1337  0.0692  1.7630
33040SOL     OW 1126   7.706   8.778   9.576 -0.5818 -0.2820  0.1420
33040SOL    HW1 1127   7.743   8.863   9.552 -0.6938  0.3889  2.1873
33040SOL    HW2 1128   7.622   8.798   9.616 -0.8915 -1.4097  0.0922
33041SOL     OW 1129   0.842  11.044   5.538 -0.2592  0.2110  0.1177
33041SOL    HW1 1130   0.772  10.979   5.542 -0.3276  0.3308  1.3118
33041SOL    HW2 1131   0.911  11.009   5.594  1.5958 -0.9146 -2.6205
33042SOL     OW 1132  10.715  10.960   8.494  0.2092 -0.3022 -0.0038
33042SOL    HW1 1133  10.802  10.930   8.470  0.2826 -0.1998  0.1368
33042SOL    HW2 1134  10.675  10.884   8.538  0.4412 -0.1563  0.4673
33043SOL     OW 1135   9.098   1.730   3.671  0.1599 -0.4370 -0.1370
33043SOL    HW1 1136   9.061   1.764   3.590 -0.4326 -1.7992 -0.4643
33043SOL    HW2 1137   9.117   1.808   3.723 -0.4070  0.4143 -1.1655
33044SOL     OW 1138   6.828   2.609   8.623 -0.4573 -0.0124  0.1788
33044SOL    HW1 1139   6.884   2.570   8.555 -0.8080  1.5243 -1.0588
33044SOL    HW2 1140   6.888   2.663   8.675 -0.6259  1.2016 -0.8146
33045SOL     OW 1141   9.108   2.540   2.634 -0.1232 -0.0255 -0.0705
33045SOL    HW1 1142   9.190   2.521   2.588  0.4814  0.1290  0.9121
33045SOL    HW2 1143   9.110   2.484   2.711  0.6975  2.3937  1.7821
33046SOL     OW 1144   7.120   0.117   4.023  0.6197  0.3238 -0.3469
33046SOL    HW1 1145   7.131   0.202   3.982 -0.6519 -0.0047 -1.4325
33046SOL    HW2 1146   7.053   0.073   3.971  0.1144 -0.7418  1.1238
33047SOL     OW 1147   7.984   1.702   9.217  0.0269 -0.0702  0.1486
33047SOL    HW1 1148   8.020   1.617   9.245  0.8152 -0.3145 -1.4987
33047SOL    HW2 1149   8.053   1.740   9.163 -1.0873  0.7689 -0.7086
33048SOL     OW 1150   3.059   4.026  10.557 -0.1590  0.4655 -0.0225
33048SOL    HW1 1151   3.140   3.996  10.599 -0.2950 -0.0154 -0.1022
33048SOL    HW2 1152   2.989   3.989  10.611 -0.3409 -0.3696 -0.8133
33049SOL     OW 1153  10.760   7.120   5.219 -0.3206  0.7517  0.0689
33049SOL    HW1 1154  10.718   7.206   5.219 -2.1516  0.0397 -3.6515
33049SOL    HW2 1155  10.687   7.058   5.221  0.8715 -0.7144  0.0615
33050SOL     OW 1156   8.898   6.359   5.552  0.1023 -0.3778 -0.4916
33050SOL    HW1 1157   8.927   6.449   5.539 -0.2888  0.0283  1.2275
33050SOL    HW2 1158   8.953   6.308   5.492  0.4168  0.9647 -1.4108
33051SOL     OW 1159  11.065   3.719   9.240 -0.0180  0.0782  0.2908
33051SOL    HW1 1160  11.155   3.708   9.210 -0.4410 -0.3711 -0.8879
33051SOL    HW2 1161  11.035   3.799   9.195 -0.9917 -1.1721 -1.4345
33052SOL     OW 1162   0.929   6.658   3.088 -0.1201 -0.1066  0.0450
33052SOL    HW1 1163   0.852   6.604   3.072  0.7690 -1.3434 -0.1926
33052SOL    HW2 1164   0.944   6.704   3.005  0.3434 -1.1167 -0.4459
33053SOL     OW 1165   8.197  10.671   7.534  0.2730 -0.3078  0.3508
33053SOL    HW1 1166   8.212  10.624   7.452  0.8322  0.4283  0.0098
33053SOL    HW2 1167   8.132  10.619   7.581 -0.1832 -0.6510 -0.6405
33054SOL     OW 1168   8.089   6.761   0.117 -0.0900 -0.3084 -0.0581
33054SOL    HW1 1169   7.995   6.749   0.128 -0.7577  1.7305 -2.5948
33054SOL    HW2 1170   8.114   6.821   0.186 -0.0288 -2.7943  2.2351
33055SOL     OW 1171   7.971   6.957   8.923 -0.0087  0.2010  0.4252
33055SOL    HW1 1172   7.944   7.038   8.880  2.9936  1.7813  1.2558
33055SOL    HW2 1173   8.026   6.913   8.859 -0.1850 -0.2731  0.6014
33056SOL     OW 1174   8.824   1.435   5.979 -0.0865  0.0718 -0.3914
33056SOL    HW1 1175   8.848   1.365   6.040  0.6010 -1.2938 -2.1464
33056SOL    HW2 1176   8.881   1.508   6.003 -0.0062 -0.3391  0.7510
33057SOL     OW 1177   2.890  10.285  10.077  0.5602  0.1057  0.1477
33057SOL    HW1 1178   2.855  10.213  10.025 -0.5264 -0.6936  1.8695
33057SOL    HW2 1179   2.973  10.306  10.036  0.9161 -2.1452 -0.4463
33058SOL     OW 1180   6.807   6.193   6.005 -0.3830 -0.0637  0.2012
33058SOL    HW1 1181   6.811   6.179   5.911  1.1461  1.4842 -0.0084
33058SOL    HW2 1182   6.716   6.217   6.021 -0.8107 -0.9584 -0.7698
33059SOL     OW 1183  10.688   9.153  10.303 -0.1420 -0.4593  0.0616
33059SOL    HW1 1184  10.651   9.065  10.291  0.1150 -0.5531 -0.0374
33059SOL    HW2 1185  10.619   9.212  10.274  0.2523 -0.6638 -1.3628
33060SOL     OW 1186   7.758   0.779   7.076  0.1067  0.0597  0.3215
33060SOL    HW1 1187   7.749   0.731   7.158  0.4536 -0.6251 -0.0361
33060SOL    HW2 1188   7.691   0.742   7.019  1.2061 -0.9116 -0.3797
33061SOL     OW 1189   8.528   6.110  10.296  0.2601  0.2113  0.6056
33061SOL    HW1 1190   8.572   6.025  10.295 -0.4295 -0.1468  0.6825
33061SOL    HW2 1191   8.568   6.157  10.369  2.3618  0.8764 -0.8799
33062SOL     OW 1192   4.688   9.674   4.473  0.2416  0.6395 -0.0326
33062SOL    HW1 1193   4.652   9.738   4.535  0.4927  0.8467 -0.0961
33062SOL    HW2 1194   4.779   9.702   4.460  0.1972  0.5893 -0.4776
33063SOL     OW 1195   9.763   0.653   2.835  0.3345 -0.6206  0.5940
33063SOL    HW1 1196   9.828   0.583   2.837  0.7101 -0.3547 -0.9990
33063SOL    HW2 1197   9.780   0.704   2.914  1.4117 -1.1354  0.7065
33064SOL     OW 1198   2.240   7.796   0.613  0.1437 -0.3733  0.0867
33064SOL    HW1 1199   2.157   7.750   0.626 -1.7163  2.5745 -0.4707
33064SOL    HW2 1200   2.269   7.818   0.702  0.0989 -1.0581  0.2718
33065SOL     OW 1201   1.861   6.286   0.738  0.6700 -0.0520  0.4166
33065SOL    HW1 1202   1.786   6.251   0.786  2.0862  0.4675  3.2330
33065SOL    HW2 1203   1.930   6.220   0.749  0.3639 -1.2543 -3.4004
33066SOL     OW 1204   0.406   8.026   8.097  0.3764 -0.6519 -0.4931
33066SOL    HW1 1205   0.443   7.984   8.175 -0.3394  0.2943  0.3819
33066SOL    HW2 1206   0.447   8.112   8.094 -0.4062 -0.2652 -0.5204
33067SOL     OW 1207   8.942  10.980   2.602  0.0967 -0.4324 -0.0654
33067SOL    HW1 1208   8.991  11.029   2.535  0.8793  0.8506  1.3643
33067SOL    HW2 1209   9.009  10.952   2.664 -0.5801 -1.8552  0.0420
33068SOL     OW 1210  10.360   7.689   9.212  0.0645 -0.0623  0.1578
33068SOL    HW1 1211  10.328   7.735   9.290 -0.4955 -0.1993  0.0102
33068SOL    HW2 1212  10.289   7.629   9.189  0.8247 -1.0774  0.4106
33069SOL     OW 1213   7.649   8.774   4.370  0.1635 -0.3002 -0.0974
33069SOL    HW1 1214   7.660   8.695   4.317  2.0209  1.5472 -2.6991
33069SOL    HW2 1215   7.737   8.812   4.375 -0.4358  0.9634  2.2165
33070SOL     OW 1216   0.933   2.618   7.993 -0.0169 -0.0205  0.4859
33070SOL    HW1 1217   1.004   2.632   8.057 -0.5902  1.9233  0.7713
33070SOL    HW2 1218   0.916   2.705   7.957 -1.7797 -0.5656 -0.1052
33071SOL     OW 1219   7.393   4.881   1.869  0.4222  0.2228  0.1390
33071SOL    HW1 1220   7.414   4.902   1.960 -3.0958  0.6957  0.9660
33071SOL    HW2 1221   7.338   4.803   1.874 -0.4345  0.6680 -1.4952
33072SOL     OW 1222   6.801   9.921   6.048  1.0998 -0.3508  0.2764
33072SOL    HW1 1223   6.814   9.925   5.953  0.6890  1.0221  0.2631
33072SOL    HW2 1224   6.747   9.843   6.061 -0.0269  0.2250 -0.7675
33073SOL     OW 1225   9.207   7.513   4.228 -0.0108  0.0601 -0.0386
33073SOL    HW1 1226   9.213   7.558   4.143 -2.0769  0.9643  0.2331
33073SOL    HW2 1227   9.216   7.583   4.293  2.2985 -0.7166  0.5865
33074SOL     OW 1228   8.936   3.279   7.610 -0.2641  0.2090  0.4511
33074SOL    HW1 1229   8.849   3.314   7.630 -0.8596 -1.2717  0.5994
33074SOL    HW2 1230   8.996   3.333   7.661 -1.1165  1.0496  0.5955
33075SOL     OW 1231   9.366   9.308   0.169  0.1742  0.5533 -0.2374
33075SOL    HW1 1232   9.290   9.253   0.153 -0.3809  0.8556  1.2549
33075SOL    HW2 1233   9.435   9.247   0.194  1.0962  0.0497 -3.4620
33076SOL     OW 1234   8.383   7.422   4.040 -0.0764 -0.1455 -0.4720
33076SOL    HW1 1235   8.351   7.365   3.970  0.1648 -0.8825  0.0064
33076SOL    HW2 1236   8.462   7.379   4.073 -0.2576  0.1252  0.3438
33077SOL     OW 1237  10.767   9.766   4.239 -0.0677 -0.2240 -0.4831
33077SOL    HW1 1238  10.823   9.689   4.247  0.5321  0.2749  0.1619
33077SOL    HW2 1239  10.695   9.751   4.300  1.3786  0.8539  1.6087
33078SOL     OW 1240  11.010   8.692   7.577 -0.1648  0.2038 -0.7284
33078SOL    HW1 1241  11.000   8.786   7.590  0.3994  0.0871  0.7385
33078SOL    HW2 1242  11.088   8.683   7.522 -1.1003  0.6242 -2.1857
33079SOL     OW 1243   0.602   1.258   3.949  0.3884  0.7688  0.4138
33079SOL    HW1 1244   0.632   1.231   4.036 -2.0601  0.2004  1.1452
33079SOL    HW2 1245   0.555   1.340   3.964 -0.3573  0.4852 -0.3146
33080SOL     OW 1246   5.581   9.957   6.099  0.5947  0.3751  0.0837
33080SOL    HW1 1247   5.564  10.031   6.157 -0.5957  0.9406 -0.9441
33080SOL    HW2 1248   5.497   9.940   6.057  1.0120 -1.1588 -0.1802
33081SOL     OW 1249   9.766   0.328   7.229 -0.4740  0.2543  0.1532
33081SOL    HW1 1250   9.832   0.391   7.200 -0.7726  0.1125 -0.8919
33081SOL    HW2 1251   9.801   0.243   7.202 -0.1725 -0.0226  1.3643
33082SOL     OW 1252   2.072   5.020   9.336 -0.0325  0.4218 -0.4125
33082SOL    HW1 1253   2.153   5.037   9.288  0.4329 -0.6479 -0.0420
33082SOL    HW2 1254   2.096   4.953   9.400 -1.8111 -1.9700 -2.0776
33083SOL     OW 1255   4.519   8.326   4.709  0.1392 -0.4806 -0.1510
33083SOL    HW1 1256   4.568   8.404   4.734  1.2391 -0.8815 -0.9479
33083SOL    HW2 1257   4.539   8.315   4.616 -1.8039 -0.4434 -0.5950
33084SOL     OW 1258   5.532   4.896   5.205  0.4176  0.4108  0.3716
33084SOL    HW1 1259   5.474   4.822   5.225 -0.8944  1.1060 -0.7124
33084SOL    HW2 1260   5.591   4.863   5.138 -1.0085  0.6717 -1.0744
33085SOL     OW 1261   3.782   1.746   0.951 -0.1373  0.6962 -0.4710
33085SOL    HW1 1262   3.799   1.657   0.981 -0.1659  0.6795 -0.5046
33085SOL    HW2 1263   3.868   1.782   0.929 -0.0273  0.9587  0.3435
33086SOL     OW 1264   7.416   7.301   8.543 -0.2242 -0.6525 -0.1355
33086SOL    HW1 1265   7.461   7.326   8.624  0.3155 -0.2798 -0.5463
33086SOL    HW2 1266   7.457   7.219   8.517  0.9052  0.1601 -1.0184
33087SOL     OW 1267   8.120   7.917   5.313  0.8458  0.2203  0.5457
33087SOL    HW1 1268   8.035   7.877   5.328 -0.4353  1.8739 -1.7051
33087SOL    HW2 1269   8.183   7.850   5.341 -1.1395 -1.1875  1.9488
33088SOL     OW 1270   4.802   7.354   5.850  0.2323  0.3193 -0.5945
33088SOL    HW1 1271   4.710   7.335   5.870 -0.0404 -0.7179 -2.5816
33088SOL    HW2 1272   4.826   7.422   5.913 -2.2660  1.5608 -0.8289
33089SOL     OW 1273   6.240   2.847   0.195 -0.1603 -0.0887  0.9337
33089SOL    HW1 1274   6.192   2.764   0.192 -0.0361 -0.1550  0.7717
33089SOL    HW2 1275   6.246   2.867   0.288  1.3143 -1.1411  1.0906
33090SOL     OW 1276   4.934   0.420   4.057 -0.0162 -0.3044 -0.3940
33090SOL    HW1 1277   4.936   0.389   3.967  1.5709  0.2784 -0.5948
33090SOL    HW2 1278   4.894   0.348   4.107 -0.9296 -0.6249 -1.5324
33091SOL     OW 1279   7.525  10.253   5.808  0.2630 -0.0230  0.4093
33091SOL    HW1 1280   7.446  10.229   5.758 -0.2857  1.5105  0.4638
33091SOL    HW2 1281   7.588  10.184   5.789  0.0691  0.4674 -2.4324
33092SOL     OW 1282   2.730  10.237   0.946  0.1355 -0.4050 -0.5150
33092SOL    HW1 1283   2.760  10.149   0.966  0.2618 -0.2060  0.1735
33092SOL    HW2 1284   2.774  10.259   0.863  3.0234  0.3878  1.0818
33093SOL     OW 1285  10.909   0.992   4.453 -0.2734 -0.0627  0.1263
33093SOL    HW1 1286  10.922   1.060   4.388  0.5345 -0.5615 -0.2416
33093SOL    HW2 1287  10.856   0.926   4.409 -0.2875 -0.0920  0.1867
33094SOL     OW 1288   4.899   2.572   2.597  0.0173 -0.9157 -0.2950
33094SOL    HW1 1289   4.991   2.583   2.573 -0.0721  0.2308 -0.1728
33094SOL    HW2 1290   4.880   2.647   2.654 -1.1447 -0.7910 -0.8191
33095SOL     OW 1291   9.348   8.995   1.401 -0.2021  0.5025 -0.2258
33095SOL    HW1 1292   9.314   8.906   1.398  0.3468  0.3153 -1.3696
33095SOL    HW2 1293   9.413   8.993   1.471 -1.8637  0.6500  1.3963
33096SOL     OW 1294   8.737   0.062   5.325  0.2212 -0.1171  0.6667
33096SOL    HW1 1295   8.760   0.017   5.406 -1.9673  0.3050  1.5836
33096SOL    HW2 1296   8.663   0.013   5.290 -0.4972  1.1828  0.2885
33097SOL     OW 1297   0.220   9.600   4.775 -0.1026  0.5844  0.1504
33097SOL    HW1 1298   0.183   9.676   4.818 -0.9263  0.5797 -0.5430
33097SOL    HW2 1299   0.301   9.632   4.735 -0.2000  0.9780  0.2680
33098SOL     OW 1300   6.027   8.202   6.260  0.3353  0.0924 -0.3277
33098SOL    HW1 1301   5.997   8.275   6.315  0.8222 -0.6904  1.0197
33098SOL    HW2 1302   5.984   8.125   6.297  0.3505 -0.4126 -1.3278
33099SOL     OW 1303   5.792   7.026   3.142 -0.0043  1.2299 -0.4731
33099SOL    HW1 1304   5.817   7.119   3.138 -3.2167  2.2264 -0.2748
33099SOL    HW2 1305   5.763   7.013   3.232  1.0032 -0.1947 -0.3219
33100SOL     OW 1306   7.065   4.291   5.384  0.0587 -0.0008  0.0616
33100SOL    HW1 1307   7.143   4.247   5.417 -0.7303 -0.7297  0.9945
33100SOL    HW2 1308   7.044   4.357   5.451 -0.4167 -0.1456  0.0569
33101SOL     OW 1309  11.012   6.170  10.885 -0.0399  0.0669  0.2427
33101SOL    HW1 1310  11.099   6.138  10.862 -0.0118  0.6072 -0.4184
33101SOL    HW2 1311  10.952   6.107  10.845  0.0205  0.6820 -0.8435
33102SOL     OW 1312  10.582   4.378   6.677  0.0567  0.3872  0.0362
33102SOL    HW1 1313  10.538   4.307   6.725  1.2540  0.3279  1.0965
33102SOL    HW2 1314  10.673   4.350   6.671  0.2176  1.0699 -1.0482
33103SOL     OW 1315   8.162   2.026   1.562  0.0186 -0.3499  0.7169
33103SOL    HW1 1316   8.171   2.117   1.590  0.8056 -0.1034 -0.2699
33103SOL    HW2 1317   8.222   1.977   1.618 -2.4139 -0.7459  3.1856
33104SOL     OW 1318   4.568   1.875   9.702 -0.3199  0.5461  0.0133
33104SOL    HW1 1319   4.559   1.960   9.746 -0.3971 -0.7347  2.6466
33104SOL    HW2 1320   4.496   1.823   9.735  1.8501 -1.7358  1.5162
33105SOL     OW 1321   5.611   2.937   2.597  0.1340  0.2394  0.6346
33105SOL    HW1 1322   5.558   2.894   2.664  0.7256  0.0337  0.9810
33105SOL    HW2 1323   5.671   2.869   2.566 -2.3702 -0.7184 -2.6265
33106SOL     OW 1324   0.348   1.515   1.182 -0.3122 -0.0011  0.0445
33106SOL    HW1 1325   0.277   1.477   1.131 -0.1784  0.3509 -0.4080
33106SOL    HW2 1326   0.311   1.528   1.269 -0.7679  0.0723 -0.1609
33107SOL     OW 1327  10.446   8.671   4.791  0.2436  0.7805  0.7798
33107SOL    HW1 1328  10.453   8.691   4.697  0.0093  1.3576  0.8835
33107SOL    HW2 1329  10.437   8.757   4.833  0.9021  0.5594  1.3796
33108SOL     OW 1330   6.368   9.500   8.105  0.3943  0.4770 -0.4581
33108SOL    HW1 1331   6.301   9.527   8.042  0.4380  0.4503 -0.5164
33108SOL    HW2 1332   6.413   9.581   8.128  0.1820  0.5301 -0.2342
33109SOL     OW 1333   9.344   7.973   6.076  0.4561  0.0674  0.8662
33109SOL    HW1 1334   9.430   7.987   6.035 -0.2893  0.1400 -0.7384
33109SOL    HW2 1335   9.322   8.057   6.114  0.6612  0.3225  0.4281
33110SOL     OW 1336   7.894   4.838   3.375  0.7659  0.3159 -0.1809
33110SOL    HW1 1337   7.834   4.765   3.393 -0.9301  1.5810 -0.4645
33110SOL    HW2 1338   7.925   4.866   3.461  0.1583  0.2799  0.0534
33111SOL     OW 1339   4.544   4.129   5.462  0.4272 -0.1235  0.1789
33111SOL    HW1 1340   4.578   4.119   5.551  0.0648 -1.5506  0.1888
33111SOL    HW2 1341   4.540   4.223   5.448  1.1755  0.1129  1.4080
33112SOL     OW 1342   1.415   4.846   4.990 -0.9848 -0.0584 -0.0217
33112SOL    HW1 1343   1.497   4.856   4.943 -0.1519 -0.3265  1.3373
33112SOL    HW2 1344   1.378   4.934   4.993 -0.0903  0.3109  0.5122
33113SOL     OW 1345   1.885   7.245   3.343  0.1475  0.4071 -0.6993
33113SOL    HW1 1346   1.855   7.254   3.433  0.1686 -1.4860 -0.4761
33113SOL    HW2 1347   1.811   7.206   3.296  0.6886 -0.1055 -1.1464
33114SOL     OW 1348   8.064   9.975   5.668  0.6758  1.2661 -0.0169
33114SOL    HW1 1349   7.981  10.022   5.657  0.0742  0.3884  0.6288
33114SOL    HW2 1350   8.100  10.008   5.750 -0.9416 -1.0302  1.7701
33115SOL     OW 1351   7.211  10.721   5.161  0.0104 -0.0296 -0.1696
33115SOL    HW1 1352   7.156  10.786   5.119 -1.2505  0.2904  1.8266
33115SOL    HW2 1353   7.283  10.771   5.200  0.6138 -0.2041 -1.0290
33116SOL     OW 1354   6.869  10.835   5.050 -0.2803  0.3666  0.4153
33116SOL    HW1 1355   6.798  10.850   5.113 -0.1483  1.1504  0.3897
33116SOL    HW2 1356   6.825  10.803   4.972 -0.6141  0.8584  0.3964
33117SOL     OW 1357   8.834   8.107   5.217  0.1834  0.2213  0.3893
33117SOL    HW1 1358   8.905   8.048   5.241  0.1917 -0.1190 -0.4469
33117SOL    HW2 1359   8.878   8.183   5.178  0.2135  1.0952  2.0216
33118SOL     OW 1360   6.285   2.036   1.689 -0.3809 -0.1121  0.2660
33118SOL    HW1 1361   6.272   2.126   1.658 -0.8564 -0.4859 -0.6673
33118SOL    HW2 1362   6.207   2.017   1.741 -0.7634 -0.3157 -0.3692
33119SOL     OW 1363   0.413  10.249   5.186 -0.2940  0.2347 -0.1288
33119SOL    HW1 1364   0.391  10.313   5.118 -0.1599  1.5454  0.9989
33119SOL    HW2 1365   0.383  10.165   5.151 -2.1834  1.1634 -0.9160
33120SOL     OW 1366   4.343  10.965   1.490  0.0459  0.5223 -0.4181
33120SOL    HW1 1367   4.287  11.037   1.461 -2.0108 -0.5876  0.5768
33120SOL    HW2 1368   4.312  10.944   1.578  1.3332 -0.8691 -0.2520
33121SOL     OW 1369   1.184   8.131   0.836  0.2893 -0.6677 -0.0744
33121SOL    HW1 1370   1.117   8.107   0.772 -1.4586  0.4057  1.2648
33121SOL    HW2 1371   1.218   8.215   0.806 -0.1707 -0.4072  0.1269
33122SOL     OW 1372   5.603   0.672   3.904 -0.2436 -0.3284 -0.3308
33122SOL    HW1 1373   5.640   0.654   3.818 -3.6437  0.5449 -2.1363
33122SOL    HW2 1374   5.588   0.767   3.905 -3.8298 -0.7498 -0.5155
33123SOL     OW 1375   7.017   8.892   7.684  0.0283  0.0523  0.1989
33123SOL    HW1 1376   6.967   8.968   7.713  2.3776  1.4803  0.7710
33123SOL    HW2 1377   7.015   8.897   7.588 -0.3649  0.4766  0.2288
33124SOL     OW 1378   6.676   3.221   2.163 -0.0366 -0.4897  0.8453
33124SOL    HW1 1379   6.769   3.228   2.182 -0.0414  1.7967  0.2664
33124SOL    HW2 1380   6.669   3.239   2.069 -1.1554  0.3909  1.0787
33125SOL     OW 1381  10.959   9.376   6.710  0.3255 -0.5325  0.2139
33125SOL    HW1 1382  10.995   9.451   6.757  0.5771 -2.7461  3.9627
33125SOL    HW2 1383  11.026   9.309   6.718 -0.9325 -1.9446 -0.7249
33126SOL     OW 1384   0.203   9.194   4.484 -0.3925 -0.2325 -0.9480
33126SOL    HW1 1385   0.234   9.104   4.476 -0.4785 -0.3656  0.1233
33126SOL    HW2 1386   0.282   9.247   4.470 -0.1123 -0.5044 -0.4154
33127SOL     OW 1387   7.259   7.513   5.517 -0.3810 -0.1354 -0.3583
33127SOL    HW1 1388   7.346   7.506   5.556 -1.3873  1.2595  2.4481
33127SOL    HW2 1389   7.275   7.534   5.425  2.1935 -2.0595 -0.4534
33128SOL     OW 1390   0.203   5.004   0.480 -0.2661 -0.5509  0.2857
33128SOL    HW1 1391   0.193   4.969   0.569 -2.5223 -1.5038 -0.2761
33128SOL    HW2 1392   0.263   4.942   0.437 -0.0078 -0.6917  0.8375
33129SOL     OW 1393   6.379  10.691   9.338 -0.2921  0.2587  0.2086
33129SOL    HW1 1394   6.469  10.660   9.351 -0.3785  0.2952  0.9122
33129SOL    HW2 1395   6.360  10.744   9.415 -0.8708  0.3694 -0.0024
33130SOL     OW 1396   9.950   7.710   3.006 -0.0607  0.1693 -0.4328
33130SOL    HW1 1397   9.895   7.714   3.084  2.0347 -1.2450  1.2494
33130SOL    HW2 1398   9.904   7.763   2.941 -0.2972  4.3931  2.7636
33131SOL     OW 1399   3.413   3.217   6.509  0.2505 -0.1082  0.3774
33131SOL    HW1 1400   3.475   3.274   6.555  1.4879 -0.2892 -1.0085
33131SOL    HW2 1401   3.446   3.128   6.525  1.0514 -0.1487 -1.2790
33132SOL     OW 1402   6.749  10.685   4.847 -0.4427 -0.6920 -0.1453
33132SOL    HW1 1403   6.674  10.638   4.885 -1.3220 -0.2906 -1.3409
33132SOL    HW2 1404   6.747  10.663   4.754  0.8343 -0.5271 -0.2385
33133SOL     OW 1405  10.216   5.299   3.892 -0.0276  0.1787 -0.3743
33133SOL    HW1 1406  10.178   5.254   3.968  0.0648  0.8127  0.0488
33133SOL    HW2 1407  10.157   5.276   3.819 -0.4158 -0.0046 -0.0094
33134SOL     OW 1408   0.211   9.761   4.073  0.0418 -0.0126  0.0440
33134SOL    HW1 1409   0.238   9.770   4.164  0.3217 -1.3605  0.1124
33134SOL    HW2 1410   0.146   9.830   4.060  0.2456  0.4080  1.1610
33135SOL     OW 1411   0.738   7.706   5.049 -0.1022  0.1469  0.7722
33135SOL    HW1 1412   0.682   7.775   5.085  0.0305  0.2239  0.8320
33135SOL    HW2 1413   0.780   7.747   4.973 -0.8572 -0.2077  0.1484
33136SOL     OW 1414   0.754   5.875   6.275  0.2295 -0.3704  0.2603
33136SOL    HW1 1415   0.773   5.932   6.200 -0.4186 -0.0418  0.3399
33136SOL    HW2 1416   0.801   5.794   6.255  0.2011 -0.2286 -0.4222
33137SOL     OW 1417  10.507   1.353  10.426 -0.1038  0.5560  0.1058
33137SOL    HW1 1418  10.479   1.443  10.443 -0.6853 -0.0333  2.8322
33137SOL    HW2 1419  10.448   1.322  10.356  0.2250  2.3052 -0.9837
33138SOL     OW 1420   8.624   3.850   5.279 -0.1311 -0.2678  0.3116
33138SOL    HW1 1421   8.688   3.903   5.232 -1.1595  0.7751  0.0459
33138SOL    HW2 1422   8.602   3.779   5.219  0.0881 -0.1098  0.0427
33139SOL     OW 1423   7.898   1.291   2.955 -0.2201 -0.2187  0.6291
33139SOL    HW1 1424   7.864   1.244   2.879  0.8791 -0.1793  0.0928
33139SOL    HW2 1425   7.840   1.266   3.027 -0.1676 -1.7209  0.1781
33140SOL     OW 1426   8.629   9.621   7.963  0.3840  0.2209 -0.4156
33140SOL    HW1 1427   8.653   9.531   7.986  1.3256  0.1620 -1.5439
33140SOL    HW2 1428   8.656   9.631   7.872  0.9772  1.8761 -0.0962
33141SOL     OW 1429   5.665   5.997   1.342  0.1498  0.2256  0.6745
33141SOL    HW1 1430   5.643   6.079   1.386 -0.4820  0.3692  0.1054
33141SOL    HW2 1431   5.623   5.930   1.395 -1.4887  0.4735 -0.2273
33142SOL     OW 1432   0.018   7.289  10.525 -0.3074 -0.4698  0.0422
33142SOL    HW1 1433   0.026   7.332  10.440 -0.3690  1.5905  1.0119
33142SOL    HW2 1434   0.020   7.361  10.588 -4.0425 -1.4926  1.6083
33143SOL     OW 1435   3.630  10.735   4.779 -0.4276  0.3203  0.5922
33143SOL    HW1 1436   3.629  10.670   4.850  0.3301  0.8850  1.1334
33143SOL    HW2 1437   3.668  10.813   4.819  0.9543  0.3511 -0.7114
33144SOL     OW 1438   0.732   4.321   0.589  0.0630 -0.6572 -0.0900
33144SOL    HW1 1439   0.819   4.290   0.562 -0.6558 -1.4617 -1.6420
33144SOL    HW2 1440   0.747   4.407   0.626  1.5065 -0.7131 -0.5004
33145SOL     OW 1441   6.695   9.740   7.809 -0.3318  0.6923 -0.5627
33145SOL    HW1 1442   6.605   9.748   7.840 -0.2974  0.6347 -0.4475
33145SOL    HW2 1443   6.719   9.829   7.783  0.1685  1.0682  1.0335
33146SOL     OW 1444   5.016  10.001   4.893  0.0574  0.1394  0.5762
33146SOL    HW1 1445   5.082   9.944   4.853  0.1150  0.3163  0.4192
33146SOL    HW2 1446   4.937   9.947   4.897  0.9859 -1.2368  3.7098
33147SOL     OW 1447   5.458   4.835   2.025 -0.2551 -0.3681 -0.3570
33147SOL    HW1 1448   5.484   4.903   2.087  0.2498 -0.7762 -0.1191
33147SOL    HW2 1449   5.504   4.857   1.945  1.6249 -1.6091  0.3220
33148SOL     OW 1450   9.913   5.363   7.579 -0.1923  0.5673 -0.5623
33148SOL    HW1 1451   9.991   5.406   7.614  1.9591 -1.3783 -2.6019
33148SOL    HW2 1452   9.872   5.430   7.524 -0.1647  1.7143  0.7598
33149SOL     OW 1453   5.309   7.342   6.688 -0.7560  0.1537  0.2578
33149SOL    HW1 1454   5.301   7.413   6.624  0.0260 -0.0100 -0.0320
33149SOL    HW2 1455   5.266   7.267   6.647 -0.0746 -0.0099 -0.1792
33150SOL     OW 1456   9.618   8.241   9.643  0.4791  0.4064  0.0437
33150SOL    HW1 1457   9.638   8.160   9.690 -0.4743  0.0398 -0.1554
33150SOL    HW2 1458   9.691   8.251   9.581 -0.3302 -1.3600 -1.2779
33151SOL     OW 1459   0.847   6.474   2.580  0.5321  0.1016  0.0555
33151SOL    HW1 1460   0.840   6.565   2.552 -1.6816 -0.4133 -1.2880
33151SOL    HW2 1461   0.912   6.436   2.522 -0.2093  0.3005 -0.9176
33152SOL     OW 1462   7.896   4.495   8.705  0.0995  0.0216 -0.0154
33152SOL    HW1 1463   7.856   4.556   8.768  0.1359  2.6847 -2.3539
33152SOL    HW2 1464   7.990   4.500   8.724 -0.0556 -0.9741  1.1226
33153SOL     OW 1465   8.466  10.225   3.224  0.8237  0.2920  0.5216
33153SOL    HW1 1466   8.513  10.163   3.280  1.7972  0.1522 -0.4173
33153SOL    HW2 1467   8.522  10.236   3.148 -0.6084  0.2474 -0.5764
33154SOL     OW 1468   9.941   2.365  10.221  0.5813  0.4118  0.1039
33154SOL    HW1 1469   9.883   2.440  10.209 -0.1841 -0.1690  0.1164
33154SOL    HW2 1470   9.953   2.329  10.133  0.6298  0.3139  0.1495
33155SOL     OW 1471   5.448   1.532   0.092  0.3126 -0.1995  0.3042
33155SOL    HW1 1472   5.528   1.552   0.141 -0.1838  0.1871  0.9734
33155SOL    HW2 1473   5.465   1.566   0.004  0.2975  1.3131  0.8584
33156SOL     OW 1474  10.127   6.196   7.047  0.5267 -0.3986 -0.0866
33156SOL    HW1 1475  10.103   6.284   7.016 -1.6492 -0.6309  0.7198
33156SOL    HW2 1476  10.199   6.169   6.991 -1.2834  0.3768 -3.0166
33157SOL     OW 1477   0.564   6.154   4.311 -0.0857  0.3265  0.3138
33157SOL    HW1 1478   0.561   6.075   4.364 -2.1377  0.3838  0.3569
33157SOL    HW2 1479   0.634   6.138   4.248 -0.5589 -1.5917  0.2226
33158SOL     OW 1480   8.513   6.173   1.377  0.0239  0.1722  0.6506
33158SOL    HW1 1481   8.476   6.253   1.339 -1.2512 -0.5968  0.2098
33158SOL    HW2 1482   8.513   6.110   1.304  0.7063 -0.3365  1.0777
33159SOL     OW 1483   6.613   0.455   0.202 -0.1615 -0.0654 -0.0479
33159SOL    HW1 1484   6.640   0.516   0.134 -0.1668 -0.0146 -0.0044
33159SOL    HW2 1485   6.689   0.447   0.259 -1.0296  2.0222  1.5063
33160SOL     OW 1486   8.576   3.396   8.603  0.1832  0.0125 -0.0211
33160SOL    HW1 1487   8.548   3.395   8.512  2.4103  1.0998 -0.7980
33160SOL    HW2 1488   8.603   3.487   8.619  2.2608 -0.6916  0.8831
33161SOL     OW 1489   9.733   6.348   7.324 -0.2676 -0.1581  0.1008
33161SOL    HW1 1490   9.668   6.351   7.254  0.6820 -0.7473 -0.8242
33161SOL    HW2 1491   9.778   6.264   7.312  0.5523  0.1599  0.8228
33162SOL     OW 1492   8.050   1.789   2.639  0.2533  0.2212  0.3343
33162SOL    HW1 1493   7.991   1.863   2.634  1.3643  1.1859  0.9550
33162SOL    HW2 1494   8.130   1.819   2.597  0.8508 -0.4907  0.9238
33163SOL     OW 1495   1.077   7.937   1.026 -0.3486 -0.1771 -0.5063
33163SOL    HW1 1496   1.100   8.020   0.985  1.9447  0.1129  1.2218
33163SOL    HW2 1497   1.013   7.960   1.094 -1.1901 -0.1379 -1.2882
33164SOL     OW 1498   4.799   7.718   3.095 -0.4133 -0.1061  0.0470
33164SOL    HW1 1499   4.839   7.780   3.156 -0.3227 -0.4899  0.3813
33164SOL    HW2 1500   4.719   7.761   3.066 -0.7649 -0.1659  0.8941
33165SOL     OW 1501   9.360   8.617   6.280  0.2966  0.1134  0.2997
33165SOL    HW1 1502   9.450   8.635   6.307  0.1129 -0.3131  1.2304
33165SOL    HW2 1503   9.326   8.701   6.251  0.9402  0.3071  0.0988
33166SOL     OW 1504   9.565   7.352   6.617 -0.4387 -0.0421  0.7118
33166SOL    HW1 1505   9.550   7.300   6.538  0.4893  1.8469 -0.8079
33166SOL    HW2 1506   9.658   7.375   6.613 -0.8869  2.1012  1.0148
33167SOL     OW 1507   8.263   2.597   7.012 -0.5330  0.1726 -0.0654
33167SOL    HW1 1508   8.349   2.638   7.022 -1.6001  2.0706  2.2904
33167SOL    HW2 1509   8.228   2.635   6.932  0.0723  0.8271 -0.0314
33168SOL     OW 1510  10.107   9.372   7.239 -0.0259 -0.9372 -0.6048
33168SOL    HW1 1511  10.145   9.456   7.265  1.2892 -1.2407 -1.4776
33168SOL    HW2 1512  10.013   9.386   7.246  0.1896 -0.1597  1.6343
33169SOL     OW 1513   7.510   5.702   3.922 -0.4658 -0.2942  0.3851
33169SOL    HW1 1514   7.523   5.689   3.828  0.7889 -1.4679  0.6804
33169SOL    HW2 1515   7.520   5.796   3.935 -1.2790 -0.0353 -0.7307
33170SOL     OW 1516   1.526   6.451   6.486 -0.1621 -0.2462  0.0652
33170SOL    HW1 1517   1.567   6.468   6.571  1.2757 -0.2202 -0.6183
33170SOL    HW2 1518   1.523   6.355   6.480 -0.2673 -0.2479  0.1455
33171SOL     OW 1519   9.486   7.736   3.264  0.2906 -0.1315 -0.4795
33171SOL    HW1 1520   9.566   7.728   3.314  0.0504 -1.8679 -0.3131
33171SOL    HW2 1521   9.502   7.809   3.204  1.1964  0.8829  0.9468
33172SOL     OW 1522   4.274  11.039   1.743 -0.3330  0.3564  1.1038
33172SOL    HW1 1523   4.184  11.018   1.770 -0.8040 -1.1521 -1.3678
33172SOL    HW2 1524   4.329  10.998   1.809 -1.4296 -1.9331  0.6732
33173SOL     OW 1525   9.102   4.150   2.438  0.3981 -0.0708  0.3317
33173SOL    HW1 1526   9.181   4.126   2.390  1.2682  0.7351  1.3035
33173SOL    HW2 1527   9.071   4.230   2.395  0.1717 -0.3214  0.0244
33174SOL     OW 1528   4.190   3.479   3.983  0.9825 -0.0685 -0.1934
33174SOL    HW1 1529   4.129   3.433   4.040  2.9679 -0.6164  1.6000
33174SOL    HW2 1530   4.135   3.519   3.916 -1.2132 -1.4030  0.7194
33175SOL     OW 1531  10.765   6.048   8.235  0.5938 -0.0492  0.5078
33175SOL    HW1 1532  10.792   5.993   8.309 -0.6797  0.9350  1.7535
33175SOL    HW2 1533  10.816   6.128   8.244  0.4401  0.0718  0.3071
33176SOL     OW 1534   0.550   4.286   9.129  0.1837 -0.0956 -0.1193
33176SOL    HW1 1535   0.512   4.225   9.066 -0.5028  1.5884 -1.4265
33176SOL    HW2 1536   0.638   4.251   9.146  0.0885 -1.0550 -1.3915
33177SOL     OW 1537  10.939   8.502   3.177  0.1054 -0.2366  0.0073
33177SOL    HW1 1538  10.956   8.494   3.271 -0.7545 -1.7135  0.0703
33177SOL    HW2 1539  11.025   8.491   3.137  0.3006 -0.8662  0.5782
33178SOL     OW 1540   6.441   6.570   4.030 -0.4381 -0.1703 -0.0746
33178SOL    HW1 1541   6.511   6.538   4.087 -0.8658 -0.3764  0.3415
33178SOL    HW2 1542   6.481   6.642   3.981 -0.0716  0.0178  0.4954
33179SOL     OW 1543   3.894   3.462   1.981 -0.0140 -0.8491 -0.3621
33179SOL    HW1 1544   3.823   3.399   1.967  1.3266 -2.1631 -1.4733
33179SOL    HW2 1545   3.918   3.492   1.893  1.0850 -0.7423 -0.0418
33180SOL     OW 1546   4.978   7.012   0.436  0.6255 -0.0257 -0.2243
33180SOL    HW1 1547   4.924   7.074   0.485 -0.7522 -2.0342  0.9328
33180SOL    HW2 1548   5.059   7.060   0.417 -0.0600  1.8408  1.2953
33181SOL     OW 1549   7.561   8.479   0.558 -0.1889  0.2032 -0.3405
33181SOL    HW1 1550   7.559   8.504   0.650 -1.2260 -0.6085 -0.1140
33181SOL    HW2 1551   7.480   8.515   0.522  0.1745  0.4519 -0.9136
33182SOL     OW 1552   1.507   8.829   8.276 -0.1038  0.0900 -0.4712
33182SOL    HW1 1553   1.415   8.831   8.250 -0.6899  0.4150  1.4782
33182SOL    HW2 1554   1.555   8.821   8.194 -1.8355  0.6430 -1.5842
33183SOL     OW 1555  10.282   9.732   0.279  0.1109  0.5029  0.0660
33183SOL    HW1 1556  10.202   9.694   0.244  0.7026 -0.4128 -0.3262
33183SOL    HW2 1557  10.328   9.658   0.319  1.4349  0.7298 -0.9764
33184SOL     OW 1558   7.655  10.288   7.806 -0.0246 -1.2144  0.0566
33184SOL    HW1 1559   7.696  10.374   7.791 -1.0176 -0.6492  0.4437
33184SOL    HW2 1560   7.726  10.225   7.798  1.2904 -0.1633  2.3208
33185SOL     OW 1561   4.945   7.815   5.980 -0.8946 -0.7949  0.1002
33185SOL    HW1 1562   4.849   7.821   5.983 -0.8713 -0.7733  1.2873
33185SOL    HW2 1563   4.973   7.903   5.956 -1.1191 -0.1135  2.1052
33186SOL     OW 1564   5.415   3.307   3.515 -0.1874  0.3745  0.2990
33186SOL    HW1 1565   5.411   3.326   3.421 -0.7181  0.2361  0.2930
33186SOL    HW2 1566   5.342   3.248   3.531 -0.1499  0.4634  0.8189
33187SOL     OW 1567   0.927   8.767   5.342  0.5949 -0.0704 -0.7461
33187SOL    HW1 1568   0.894   8.684   5.376 -0.3282  0.9934  1.1029
33187SOL    HW2 1569   0.991   8.796   5.407 -1.2724  2.0645  0.2775
33188SOL     OW 1570   5.640   8.197   4.488  0.2742 -0.2453 -0.0310
33188SOL    HW1 1571   5.558   8.239   4.461  0.9085  0.5020 -0.8880
33188SOL    HW2 1572   5.616   8.144   4.564 -0.9378  0.2073 -0.0663
33189SOL     OW 1573   6.530   3.665   8.922 -0.3204  0.6069  0.1022
33189SOL    HW1 1574   6.546   3.614   8.843  0.6836  0.6345  0.2669
33189SOL    HW2 1575   6.615   3.706   8.941  0.1841 -1.2942  2.5149
33190SOL     OW 1576   6.244   5.226  10.877 -0.5441 -0.9000  0.0364
33190SOL    HW1 1577   6.277   5.282  10.806  0.2760 -2.1262 -0.5965
33190SOL    HW2 1578   6.155   5.203  10.851  0.4050 -2.9918 -1.7214
33191SOL     OW 1579  10.410   4.657   5.313 -0.2649 -0.1403  0.2336
33191SOL    HW1 1580  10.481   4.599   5.342 -0.1215 -0.4289 -0.6517
33191SOL    HW2 1581  10.408   4.646   5.218 -0.8160  0.6559  0.1445
33192SOL     OW 1582   1.524   0.452   1.211 -0.1352 -0.2105  0.1762
33192SOL    HW1 1583   1.449   0.489   1.164 -0.6684 -0.8492  0.4983
33192SOL    HW2 1584   1.499   0.361   1.226  1.3357 -0.8520 -1.0339
33193SOL     OW 1585  10.766   0.425   3.924 -0.2782 -0.3395  0.2310
33193SOL    HW1 1586  10.780   0.331   3.908 -0.1245 -0.3769  0.5757
33193SOL    HW2 1587  10.756   0.432   4.019 -0.6526 -0.0517  0.1690
33194SOL     OW 1588   8.324   3.321   5.705  0.0134 -0.3866  0.2237
33194SOL    HW1 1589   8.255   3.372   5.746  0.8214  0.1199  0.9992
33194SOL    HW2 1590   8.293   3.305   5.616  0.5342  3.1711 -0.7404
33195SOL     OW 1591   8.355   2.257   9.820 -0.4662  0.1820 -0.3044
33195SOL    HW1 1592   8.262   2.241   9.833 -0.1441 -0.6571  1.1561
33195SOL    HW2 1593   8.358   2.327   9.754 -2.0612 -0.8921 -1.5939
33196SOL     OW 1594   2.743   8.230   0.345 -0.5327 -0.4599 -0.1054
33196SOL    HW1 1595   2.774   8.318   0.323  1.5218 -1.3653 -1.1447
33196SOL    HW2 1596   2.649   8.240   0.359 -0.2742  1.9853  0.3507
33197SOL     OW 1597   5.099   7.783   6.741 -0.2094 -0.6686  0.0529
33197SOL    HW1 1598   5.065   7.866   6.706 -2.7254 -1.9233 -0.7517
33197SOL    HW2 1599   5.068   7.717   6.679 -0.1817 -2.4428  1.8365
33198SOL     OW 1600   9.524  10.738   4.835 -0.0961 -0.4195 -0.0394
33198SOL    HW1 1601   9.490  10.704   4.917 -0.8461 -1.2472 -0.6708
33198SOL    HW2 1602   9.555  10.826   4.856  0.4396 -0.9083  1.2830
33199SOL     OW 1603   1.815   5.815   7.162 -0.2023  0.2625 -0.5503
33199SOL    HW1 1604   1.901   5.856   7.162 -0.2248  0.3982  1.4988
33199SOL    HW2 1605   1.753   5.887   7.169 -0.3425  0.0651  0.5209
33200SOL     OW 1606  10.460   1.095   2.778 -0.0914  0.1002 -0.1506
33200SOL    HW1 1607  10.533   1.079   2.719 -1.0998  1.5170 -1.9235
33200SOL    HW2 1608  10.411   1.166   2.736 -2.8478 -1.2199  0.5856
33201SOL     OW 1609   3.666   9.450   7.533 -0.5209  0.2740 -0.2165
33201SOL    HW1 1610   3.588   9.397   7.516 -2.1097  2.7866 -1.3128
33201SOL    HW2 1611   3.686   9.434   7.625 -2.0796 -0.7670 -0.0167
33202SOL     OW 1612  10.026   9.090   8.901 -0.5388 -0.2201 -0.6522
33202SOL    HW1 1613  10.105   9.055   8.943 -0.3204  1.5717  0.5532
33202SOL    HW2 1614  10.048   9.092   8.808  0.5483 -0.4588 -0.4233
33203SOL     OW 1615   2.391   7.850   3.176 -0.2914 -0.1188  0.1665
33203SOL    HW1 1616   2.340   7.790   3.122 -0.5346 -0.0877  0.3646
33203SOL    HW2 1617   2.456   7.886   3.116 -0.4441 -0.2251 -0.0630
33204SOL     OW 1618   4.378   4.142   9.073  0.5469  0.1000 -0.4080
33204SOL    HW1 1619   4.430   4.122   8.995  0.5469 -0.7378 -0.2005
33204SOL    HW2 1620   4.294   4.099   9.057  0.3568  0.3750 -0.1731
33205SOL     OW 1621  10.611   5.749  10.405 -0.1134  0.2676 -0.0021
33205SOL    HW1 1622  10.689   5.804  10.394 -1.4478  2.1855 -0.3916
33205SOL    HW2 1623  10.551   5.779  10.337 -1.4104 -0.7725  0.6450
33206SOL     OW 1624   6.446   0.616   7.395 -0.3905 -0.0674  0.2018
33206SOL    HW1 1625   6.374   0.651   7.448 -0.2463  0.2184  0.2112
33206SOL    HW2 1626   6.480   0.692   7.348 -1.0674 -0.4648 -0.9571
33207SOL     OW 1627  10.352   9.805  10.280 -0.1433  0.0731  0.1723
33207SOL    HW1 1628  10.369   9.783  10.371 -1.0947  2.1505  0.9092
33207SOL    HW2 1629  10.432   9.780  10.234  2.1405  2.8661  2.2923
33208SOL     OW 1630   7.385   2.803   8.882  0.0504 -0.6736  0.5910
33208SOL    HW1 1631   7.339   2.886   8.873 -1.4101 -1.5972 -0.9713
33208SOL    HW2 1632   7.477   2.826   8.870 -0.4061  0.6053 -0.8042
33209SOL     OW 1633   7.948   5.175   4.247 -0.5622 -0.0766 -0.2037
33209SOL    HW1 1634   8.004   5.241   4.207 -0.5272  0.8215  1.2564
33209SOL    HW2 1635   8.009   5.109   4.281 -0.3372  0.9238  1.4267
33210SOL     OW 1636   0.286  10.640   7.210  0.1351 -0.6186 -0.2199
33210SOL    HW1 1637   0.360  10.626   7.269  0.0901  0.8364  0.2329
33210SOL    HW2 1638   0.227  10.697   7.259 -0.8291 -0.9675 -0.9481
33211SOL     OW 1639   9.363   2.965   7.002 -0.0449 -0.0791  0.2821
33211SOL    HW1 1640   9.429   2.901   7.030  0.9199  1.1087  0.8511
33211SOL    HW2 1641   9.291   2.955   7.064  0.7104  0.3420  1.2495
33212SOL     OW 1642   5.239   9.074   5.660  0.0667 -0.4798  0.4522
33212SOL    HW1 1643   5.326   9.103   5.635 -0.6088  0.8228 -0.5545
33212SOL    HW2 1644   5.232   9.094   5.753  1.5208 -2.4705  1.0419
33213SOL     OW 1645   7.739   8.543   2.333 -0.3555  0.4458  0.1017
33213SOL    HW1 1646   7.786   8.620   2.367 -0.2102 -0.0193  0.9879
33213SOL    HW2 1647   7.651   8.576   2.312 -0.8884  0.5032  2.1961
33214SOL     OW 1648   0.007  10.723   3.006  0.5715  0.5010  0.7924
33214SOL    HW1 1649   0.078  10.737   3.068  1.8009 -1.5049 -0.0352
33214SOL    HW2 1650   0.031  10.776   2.930  0.5724  0.7248  0.9475
33215SOL     OW 1651   2.138   0.028   9.542  0.5617  0.3964  0.3902
33215SOL    HW1 1652   2.110   0.074   9.463 -0.0517 -0.2487  0.2273
33215SOL    HW2 1653   2.233   0.045   9.546  0.3806  1.5445  0.2638
33216SOL     OW 1654   8.105   3.591   9.843  0.1281  0.2017  0.2950
33216SOL    HW1 1655   8.137   3.504   9.868 -0.2501  0.0344  0.2104
33216SOL    HW2 1656   8.177   3.629   9.793  0.4460  0.0892  0.6591
33217SOL     OW 1657  10.159   1.086  11.045 -0.0942 -0.0851 -0.2325
33217SOL    HW1 1658  10.167   1.047  10.958  1.4992  0.0683 -0.1753
33217SOL    HW2 1659  10.149   1.180  11.029  0.3625 -0.0389 -0.2448
33218SOL     OW 1660   4.144   1.867   4.294 -0.9322  0.0604  0.9312
33218SOL    HW1 1661   4.199   1.799   4.255 -1.8648  1.2913 -3.0444
33218SOL    HW2 1662   4.195   1.948   4.284 -1.3591  0.4864  2.0508
33219SOL     OW 1663   1.623   6.045   9.325  0.1868 -0.7372  0.0133
33219SOL    HW1 1664   1.600   6.095   9.404 -1.2876 -0.8543 -0.3251
33219SOL    HW2 1665   1.629   5.954   9.355 -0.2738 -0.7683  0.0197
33220SOL     OW 1666   9.959   3.761   1.226 -0.1675  0.3713  0.4707
33220SOL    HW1 1667   9.944   3.845   1.269 -2.0666  0.1746  0.2783
33220SOL    HW2 1668   9.897   3.701   1.268  0.3634 -0.6693 -0.1770
33221SOL     OW 1669   0.313   9.966   5.128 -0.2372 -0.1363 -0.2460
33221SOL    HW1 1670   0.400   9.926   5.116 -0.0813  0.3287 -0.6874
33221SOL    HW2 1671   0.286   9.990   5.039 -0.5547  0.2815 -0.0349
33222SOL     OW 1672  11.070   4.313   8.913 -0.6005  0.1687  0.6086
33222SOL    HW1 1673  11.080   4.393   8.861 -0.0865 -0.7859 -0.8319
33222SOL    HW2 1674  11.159   4.284   8.929 -0.7572  0.3777  1.9682
33223SOL     OW 1675   1.359   7.952   0.082  0.0806  0.5099  0.4048
33223SOL    HW1 1676   1.319   7.986   0.002 -0.2072  0.6522  0.6045
33223SOL    HW2 1677   1.442   7.914   0.054 -0.5354 -0.4817 -0.1561
33224SOL     OW 1678  11.064   4.077   3.350 -0.2210 -0.1375  0.3956
33224SOL    HW1 1679  10.997   4.015   3.323  1.7095 -1.6335 -1.3050
33224SOL    HW2 1680  11.139   4.022   3.375  0.7434  1.4681  1.2629
33225SOL     OW 1681   6.448   1.668   2.644 -0.1781  0.2859 -0.2696
33225SOL    HW1 1682   6.403   1.746   2.613 -1.2261  0.3393  1.2575
33225SOL    HW2 1683   6.443   1.606   2.571  1.3927  1.8711 -1.8075
33226SOL     OW 1684   4.916   5.684  10.091  0.1986 -0.0769 -0.1664
33226SOL    HW1 1685   4.906   5.779  10.100  1.1775 -0.0527  0.9635
33226SOL    HW2 1686   4.921   5.652  10.181 -1.4189 -1.3740 -0.4915
33227SOL     OW 1687   0.095   5.248   4.805  0.3489  0.0874 -0.7328
33227SOL    HW1 1688   0.019   5.258   4.748 -0.4075 -0.7605  0.0969
33227SOL    HW2 1689   0.080   5.308   4.878 -0.4716 -1.3900  0.3735
33228SOL     OW 1690   3.695   4.582   4.121 -0.0140 -0.8085 -0.3366
33228SOL    HW1 1691   3.658   4.660   4.080 -0.0363 -0.5942  0.0862
33228SOL    HW2 1692   3.740   4.615   4.199  0.6896 -1.1162 -0.5998
33229SOL     OW 1693   9.576  10.112   4.953 -0.5248  0.4536 -0.0325
33229SOL    HW1 1694   9.581  10.195   5.001  0.5342  1.6749 -2.0942
33229SOL    HW2 1695   9.493  10.118   4.905 -0.1316  0.6333 -0.6971
33230SOL     OW 1696   6.553   9.663   6.340 -0.2929 -0.1891  0.7567
33230SOL    HW1 1697   6.525   9.572   6.348 -0.3408 -0.4719 -1.7573
33230SOL    HW2 1698   6.543   9.699   6.428  0.0953 -2.6839  1.9188
33231SOL     OW 1699   3.243   5.598   3.859 -0.0165  0.1869  0.3412
33231SOL    HW1 1700   3.265   5.650   3.937  0.0556 -0.9028  1.0812
33231SOL    HW2 1701   3.155   5.564   3.878  0.0686 -0.2119  0.0229
33232SOL     OW 1702   8.939   8.318   5.052 -0.1827 -0.4739  0.4440
33232SOL    HW1 1703   8.904   8.405   5.071 -0.0282  0.1226 -1.7407
33232SOL    HW2 1704   9.013   8.309   5.111  0.8607  1.6222 -0.4271
33233SOL     OW 1705   6.423   9.741   7.454  0.0257  0.3991 -0.2023
33233SOL    HW1 1706   6.470   9.665   7.488  0.6924  0.5685 -0.7237
33233SOL    HW2 1707   6.339   9.706   7.424 -0.1643  0.0793  0.6642
33234SOL     OW 1708   6.533   8.131  10.079  0.0472 -0.3850 -0.7376
33234SOL    HW1 1709   6.474   8.180  10.136 -1.1114 -0.1508 -2.0955
33234SOL    HW2 1710   6.620   8.163  10.102 -0.4944  0.5789  0.0575
33235SOL     OW 1711   1.697   4.547   5.046 -0.3448 -0.0312  0.3874
33235SOL    HW1 1712   1.720   4.622   5.100 -2.1053  1.3634 -0.6704
33235SOL    HW2 1713   1.668   4.585   4.963  1.3461 -2.0301 -1.2480
33236SOL     OW 1714  11.064   5.223   6.155 -0.2347 -0.0211  0.3500
33236SOL    HW1 1715  11.020   5.289   6.102 -0.7924 -0.8046 -0.1907
33236SOL    HW2 1716  11.142   5.267   6.188  0.4190  0.3645 -1.5572
33237SOL     OW 1717   9.889   5.124   5.497  0.1065 -0.5396  0.5203
33237SOL    HW1 1718   9.832   5.201   5.496 -0.5904 -1.0197 -2.2569
33237SOL    HW2 1719   9.859   5.069   5.425  2.7018 -1.8661  0.3171
33238SOL     OW 1720   6.080   7.781   2.823  0.3172 -0.2533 -0.3318
33238SOL    HW1 1721   6.161   7.731   2.834 -0.5441 -1.5236  0.6303
33238SOL    HW2 1722   6.086   7.818   2.735  1.8765 -0.4116 -0.3214
33239SOL     OW 1723   6.379   9.546   8.548 -0.0591  0.3443  0.0810
33239SOL    HW1 1724   6.296   9.593   8.561 -0.1940 -0.0543  0.7378
33239SOL    HW2 1725   6.353   9.466   8.502 -0.1200 -0.0335  0.7638
33240SOL     OW 1726   7.280   9.172   7.923 -0.2951  0.3717  0.1580
33240SOL    HW1 1727   7.318   9.095   7.966 -1.1901 -1.7991 -2.6203
33240SOL    HW2 1728   7.186   9.161   7.935 -0.4928  0.3136 -1.2898
33241SOL     OW 1729   2.889   6.040   4.830  0.3155 -0.4461 -0.5985
33241SOL    HW1 1730   2.967   6.053   4.776  0.6280  1.7661  0.2882
33241SOL    HW2 1731   2.878   6.122   4.877 -2.6518 -0.6287 -0.7964
33242SOL     OW 1732   4.135   4.979   6.173  0.0299 -0.3004 -0.5521
33242SOL    HW1 1733   4.229   4.993   6.163  0.2171 -1.2597 -0.2475
33242SOL    HW2 1734   4.095   5.032   6.104  0.8829 -1.0204 -1.6369
33243SOL     OW 1735   5.157   5.401   0.650 -0.1383  0.0861  0.4744
33243SOL    HW1 1736   5.086   5.414   0.587  0.2920  0.8550  0.1292
33243SOL    HW2 1737   5.171   5.306   0.653 -1.5768 -0.1256  1.0017
33244SOL     OW 1738  10.691   8.403   3.106  0.2145  0.1397  0.0090
33244SOL    HW1 1739  10.772   8.454   3.103  0.0680  0.3242 -2.3805
33244SOL    HW2 1740  10.638   8.446   3.173  1.2775  1.2709  0.1610
33245SOL     OW 1741   5.375   1.121   0.478 -0.4183  0.2589  0.5715
33245SOL    HW1 1742   5.385   1.212   0.505  2.7924 -0.2862  1.6196
33245SOL    HW2 1743   5.398   1.121   0.385  0.5038  0.4168  0.7883
33246SOL     OW 1744   6.284   0.380   4.540  0.1265  0.5952  0.0281
33246SOL    HW1 1745   6.198   0.413   4.514 -0.9449 -2.6177 -1.0506
33246SOL    HW2 1746   6.317   0.335   4.462  0.3535 -2.6927  1.8477
33247SOL     OW 1747   9.782  10.388  10.633  0.4236 -0.5145  0.3642
33247SOL    HW1 1748   9.771  10.473  10.676  2.0611 -0.6798  1.1745
33247SOL    HW2 1749   9.816  10.409  10.546  0.8905 -0.3382  0.5873
33248SOL     OW 1750   1.969   8.909   3.191 -0.0820 -0.2978 -0.0027
33248SOL    HW1 1751   1.928   8.870   3.114 -0.0292 -2.3413  0.9552
33248SOL    HW2 1752   1.896   8.950   3.238 -0.6425 -1.6465  0.3560
33249SOL     OW 1753   8.201   7.790   3.132 -0.0285  0.3760 -0.1949
33249SOL    HW1 1754   8.229   7.788   3.224 -0.2942  3.1753  0.0442
33249SOL    HW2 1755   8.278   7.762   3.083  0.8965  1.1081  0.7864
33250SOL     OW 1756  10.932  10.868   0.442 -0.4577  0.1639  0.3544
33250SOL    HW1 1757  10.985  10.791   0.419 -0.0967 -0.1047  1.9552
33250SOL    HW2 1758  10.847  10.851   0.402 -0.1691 -0.7192  0.0786
33251SOL     OW 1759   8.209   8.294   5.466 -0.4835 -0.3905 -0.1710
33251SOL    HW1 1760   8.119   8.260   5.474 -0.0226 -1.4083  1.1406
33251SOL    HW2 1761   8.250   8.239   5.400 -0.5703 -0.4888 -0.1426
33252SOL     OW 1762   5.732   5.748   2.386  0.0002  0.0821  0.2021
33252SOL    HW1 1763   5.705   5.658   2.403  1.0053 -0.0930  0.9030
33252SOL    HW2 1764   5.650   5.797   2.382 -0.4890 -0.1557  3.8595
33253SOL     OW 1765  10.988   0.281   8.942 -0.6584 -0.4224  0.4096
33253SOL    HW1 1766  10.935   0.206   8.917 -0.9536  0.1179 -0.6118
33253SOL    HW2 1767  11.021   0.317   8.860  1.0670 -0.5600  0.9838
33254SOL     OW 1768   7.209   0.942   4.807 -0.1510 -0.0077  0.2234
33254SOL    HW1 1769   7.132   0.992   4.835 -0.5897 -1.2649  1.3954
33254SOL    HW2 1770   7.283   0.988   4.846 -0.1019  1.9852 -1.9910
33255SOL     OW 1771  10.058   4.401   3.458  0.2711  0.0534 -0.0736
33255SOL    HW1 1772  10.057   4.481   3.406 -0.4511  0.2911  0.2798
33255SOL    HW2 1773  10.083   4.430   3.546 -3.2238  0.5216  0.9233
33256SOL     OW 1774  10.855   8.652   9.909 -0.1310 -0.3261 -0.4995
33256SOL    HW1 1775  10.813   8.598   9.976 -1.4788 -1.5679 -2.2528
33256SOL    HW2 1776  10.821   8.740   9.924 -0.4972 -0.6102  0.3907
33257SOL     OW 1777   6.838   9.004   4.417  0.0587 -0.0272 -0.3093
33257SOL    HW1 1778   6.782   8.927   4.426  0.0893 -0.1076 -0.7524
33257SOL    HW2 1779   6.869   9.022   4.505  0.7348 -1.0351 -0.3217
33258SOL     OW 1780   6.215   8.749   4.793 -0.0435  0.0850  0.3637
33258SOL    HW1 1781   6.193   8.726   4.883 -0.9793 -1.4323 -0.2231
33258SOL    HW2 1782   6.135   8.789   4.758 -0.2243 -0.7714 -0.2442
33259SOL     OW 1783   9.182  10.236   4.568 -0.2848 -0.7577 -0.4751
33259SOL    HW1 1784   9.238  10.314   4.573 -0.8374 -0.3448 -0.5526
33259SOL    HW2 1785   9.099  10.269   4.535 -0.3275 -1.4964 -1.1328
33260SOL     OW 1786   8.491   9.197   7.377  0.9893  0.2337  0.2310
33260SOL    HW1 1787   8.560   9.217   7.440  0.1737 -0.5002  1.3926
33260SOL    HW2 1788   8.534   9.206   7.292  2.4389  0.0870  0.9076
33261SOL     OW 1789   1.038   1.915   2.514  0.1314 -0.3206 -0.3706
33261SOL    HW1 1790   1.018   1.856   2.442  2.4691 -0.6629 -0.8019
33261SOL    HW2 1791   1.106   1.870   2.564 -1.3897 -0.0953  2.1001
33262SOL     OW 1792   1.416   1.921   6.562 -0.5416 -0.4726  0.3193
33262SOL    HW1 1793   1.488   1.929   6.500 -1.0341  3.9684  0.0251
33262SOL    HW2 1794   1.337   1.941   6.511 -1.9105 -3.3935  1.0489
33263SOL     OW 1795  11.034   5.394  10.016  0.4376 -0.2868 -0.7865
33263SOL    HW1 1796  11.073   5.314  10.051  0.4768  0.0140 -0.1070
33263SOL    HW2 1797  11.108   5.455  10.011 -0.3337  1.6025  4.2537
33264SOL     OW 1798   1.858   4.792   9.380 -0.4647  0.1808  0.1146
33264SOL    HW1 1799   1.790   4.847   9.420 -0.3296  0.7985 -0.4847
33264SOL    HW2 1800   1.809   4.726   9.331 -0.6500 -1.3190  2.2028
33265SOL     OW 1801   6.959  10.535  10.468  0.0197  0.0891  0.6338
33265SOL    HW1 1802   7.032  10.504  10.521 -0.5694 -2.7974 -0.1007
33265SOL    HW2 1803   6.954  10.473  10.395 -1.0778  2.1798 -1.2118
33266SOL     OW 1804   4.061   7.070   3.182  0.6415 -0.1579 -0.1553
33266SOL    HW1 1805   4.033   7.153   3.222  0.6117 -0.8674  1.3636
33266SOL    HW2 1806   4.153   7.061   3.208  1.1401  0.1919 -1.7216
33267SOL     OW 1807   4.028  10.551   6.887  0.1639  0.1725 -0.5221
33267SOL    HW1 1808   3.962  10.502   6.839 -1.6652 -0.2326  2.1979
33267SOL    HW2 1809   3.978  10.607   6.948  2.2826  0.8306  0.7435
33268SOL     OW 1810   2.637   1.560   4.181  0.4494 -0.3598 -0.1088
33268SOL    HW1 1811   2.640   1.631   4.245 -0.2206  0.5126 -1.0165
33268SOL    HW2 1812   2.694   1.492   4.217  2.0066  1.0773  0.2525
33269SOL     OW 1813   2.121   6.862   3.399  0.1409 -0.2975  0.2634
33269SOL    HW1 1814   2.087   6.923   3.465 -1.1245 -0.7064  0.0220
33269SOL    HW2 1815   2.137   6.916   3.322 -2.0979 -0.3934 -0.3380
33270SOL     OW 1816   0.407   2.385  10.169 -0.3514 -0.0429  0.0466
33270SOL    HW1 1817   0.361   2.317  10.120  2.0993 -0.5936 -1.6652
33270SOL    HW2 1818   0.480   2.339  10.211 -0.1431  1.1113  1.0099
33271SOL     OW 1819   4.958  10.796   4.308 -0.4805 -0.0634 -0.5156
33271SOL    HW1 1820   4.935  10.747   4.229 -1.4057 -0.0773 -0.2456
33271SOL    HW2 1821   5.022  10.740   4.353 -0.5602 -0.4316 -0.8537
33272SOL     OW 1822   7.271   9.780  10.796 -0.3114 -0.6636  0.1436
33272SOL    HW1 1823   7.331   9.763  10.868  1.8014 -0.7473 -1.5190
33272SOL    HW2 1824   7.254   9.695  10.757  0.0180 -0.4313 -0.5246
33273SOL     OW 1825   8.649   6.790   4.525  0.3862 -0.0481  0.3244
33273SOL    HW1 1826   8.681   6.726   4.589  1.2890 -1.5206 -1.4935
33273SOL    HW2 1827   8.715   6.789   4.456 -0.4782  1.5913 -0.5699
33274SOL     OW 1828   1.534   3.146   1.470 -0.0177  0.2020 -0.1404
33274SOL    HW1 1829   1.542   3.100   1.386  0.5279 -0.3277  0.1994
33274SOL    HW2 1830   1.620   3.137   1.511 -0.2877  0.4367  0.4853
33275SOL     OW 1831   8.402   5.645   5.149  0.4767 -0.0176 -0.3291
33275SOL    HW1 1832   8.414   5.587   5.073 -2.4600  0.2965 -1.1539
33275SOL    HW2 1833   8.375   5.729   5.111 -2.0196 -0.1264  0.9884
33276SOL     OW 1834   1.950   7.845   3.593 -0.3382 -0.2974  0.9000
33276SOL    HW1 1835   1.980   7.789   3.521 -1.1433 -2.4778  2.1526
33276SOL    HW2 1836   1.858   7.819   3.607 -0.8446  1.5890  1.3577
33277SOL     OW 1837   6.020   7.523   1.393  0.2701  0.2486  0.0524
33277SOL    HW1 1838   6.057   7.599   1.439  1.4612  0.0486 -0.5271
33277SOL    HW2 1839   6.039   7.539   1.301 -0.6020 -0.1556 -0.2100
33278SOL     OW 1840   6.139  10.778   4.811  0.7791  0.0365  0.2382
33278SOL    HW1 1841   6.184  10.803   4.892  3.2380  0.7027 -1.2391
33278SOL    HW2 1842   6.088  10.855   4.788  0.6848  0.1280  0.7247
33279SOL     OW 1843   7.720   3.004   8.113  0.3551 -0.3904  0.5669
33279SOL    HW1 1844   7.766   3.087   8.106  1.2541 -0.9542 -0.3084
33279SOL    HW2 1845   7.780   2.946   8.161  0.3791 -0.9792 -0.1480
33280SOL     OW 1846   3.234   6.373   0.379  0.7326  0.5854  0.4249
33280SOL    HW1 1847   3.190   6.446   0.335  2.3115  1.8374  0.8356
33280SOL    HW2 1848   3.190   6.295   0.345 -1.8347  1.7221  0.8735
33281SOL     OW 1849   0.728   8.731   4.014  0.0693 -0.2998 -0.2583
33281SOL    HW1 1850   0.640   8.765   4.029 -0.4095 -1.5476 -0.1160
33281SOL    HW2 1851   0.768   8.793   3.953 -0.7674  0.4782 -0.0428
33282SOL     OW 1852   5.558   6.577   1.886 -0.8582  0.0959 -0.2840
33282SOL    HW1 1853   5.487   6.522   1.918 -2.7033  0.9608 -2.6173
33282SOL    HW2 1854   5.598   6.527   1.815  2.2413 -1.1851  2.1068
33283SOL     OW 1855   4.888  10.550  10.312 -0.3836 -0.5160 -0.7172
33283SOL    HW1 1856   4.901  10.601  10.233 -0.9572 -0.3833 -0.7307
33283SOL    HW2 1857   4.964  10.491  10.316 -0.4859 -0.7043 -1.4962
33284SOL     OW 1858   3.234   6.668   4.442  0.3447  0.2083 -0.1552
33284SOL    HW1 1859   3.188   6.588   4.419  0.3359 -0.0823  0.8264
33284SOL    HW2 1860   3.250   6.712   4.358 -0.9690 -0.0906 -0.5809
33285SOL     OW 1861   3.484   6.283   6.587 -0.0118 -0.7750 -0.1657
33285SOL    HW1 1862   3.522   6.282   6.675 -0.9859  0.6759  0.3062
33285SOL    HW2 1863   3.533   6.351   6.541 -0.7826 -0.1670 -0.1151
33286SOL     OW 1864   7.467   9.598   4.446  0.0173 -0.1775  0.1208
33286SOL    HW1 1865   7.411   9.573   4.519 -0.9749  0.4427 -0.4119
33286SOL    HW2 1866   7.416   9.662   4.397  1.7454  1.5531  0.4263
33287SOL     OW 1867   4.974   9.712   2.700 -0.4988 -0.1937 -0.1363
33287SOL    HW1 1868   5.031   9.741   2.771 -2.1841  3.1289  0.0842
33287SOL    HW2 1869   4.991   9.775   2.629 -1.3996 -1.2517 -1.3395
33288SOL     OW 1870   7.589   9.409   3.548  0.5133 -0.2308  0.2181
33288SOL    HW1 1871   7.571   9.384   3.457  1.1506  1.8740 -0.5317
33288SOL    HW2 1872   7.585   9.504   3.548  0.9607 -0.1714  2.3267
33289SOL     OW 1873   5.190   5.765   9.709  0.1450 -0.6966 -0.7776
33289SOL    HW1 1874   5.194   5.842   9.766 -0.9583  0.1516 -1.8055
33289SOL    HW2 1875   5.281   5.735   9.704  0.2598 -0.9849  1.6189
33290SOL     OW 1876   2.066   9.789  10.543  0.5294 -0.2989  0.5056
33290SOL    HW1 1877   2.109   9.749  10.467 -1.0347 -1.1808  0.0113
33290SOL    HW2 1878   2.100   9.742  10.618 -0.5851 -2.0081  0.0047
33291SOL     OW 1879   4.981   4.176   5.346  0.0733  0.2613  0.5229
33291SOL    HW1 1880   4.893   4.171   5.310  0.3239 -0.8318  0.0245
33291SOL    HW2 1881   4.968   4.193   5.439 -0.6017  1.8996  0.1613
33292SOL     OW 1882   5.741  10.552   7.547  0.4244  0.1214 -0.3985
33292SOL    HW1 1883   5.711  10.599   7.469  1.4924 -0.3169 -1.1140
33292SOL    HW2 1884   5.830  10.585   7.561  1.3442 -1.8690 -1.1341
33293SOL     OW 1885   4.978   9.608   6.185  0.5740 -0.5421  0.6267
33293SOL    HW1 1886   5.031   9.687   6.172  2.4312 -2.0547 -1.9579
33293SOL    HW2 1887   4.887   9.638   6.178  1.1600  1.5581  1.2928
33294SOL     OW 1888   8.094   6.937   7.259 -0.2548  0.2868 -0.3501
33294SOL    HW1 1889   8.166   6.952   7.321 -1.1734  3.3012  0.1300
33294SOL    HW2 1890   8.136   6.943   7.173  0.1990  1.5218 -0.0705
33295SOL     OW 1891   0.674   8.850   2.088  0.4197 -0.0515  0.3004
33295SOL    HW1 1892   0.688   8.775   2.030  2.6886 -0.1771  0.9202
33295SOL    HW2 1893   0.761   8.884   2.105 -0.2974  0.9084  2.4280
33296SOL     OW 1894   0.057   4.443   4.778  0.6389 -0.0249 -0.1779
33296SOL    HW1 1895   0.021   4.524   4.744  2.1989  1.3261  1.1635
33296SOL    HW2 1896   0.072   4.389   4.701 -1.5165  0.4584 -0.9963
33297SOL     OW 1897   9.531   3.423   6.643 -0.1971 -0.3067 -0.1938
33297SOL    HW1 1898   9.582   3.373   6.707  1.3143  0.2818 -0.9077
33297SOL    HW2 1899   9.446   3.379   6.641  0.2909 -1.3562  0.9659
33298SOL     OW 1900   6.882   8.652   7.198 -0.5123  0.3862 -0.2456
33298SOL    HW1 1901   6.802   8.626   7.244 -0.8076  0.5040 -0.6855
33298SOL    HW2 1902   6.857   8.654   7.106 -0.4332  1.9988 -0.2605
33299SOL     OW 1903   7.518   4.240   0.563  0.0332 -0.1479  0.1607
33299SOL    HW1 1904   7.570   4.214   0.639  0.5849 -1.0420 -0.5068
33299SOL    HW2 1905   7.583   4.265   0.497 -0.4221  0.0080 -0.2319
33300SOL     OW 1906   5.779   7.079   9.109 -0.6801  0.6463  0.1081
33300SOL    HW1 1907   5.775   7.068   9.204 -1.7565  0.7977  0.0942
33300SOL    HW2 1908   5.851   7.140   9.094 -0.8972  1.0858  0.8670
33301SOL     OW 1909   1.079   0.211   1.146 -0.0513 -0.0315  0.9407
33301SOL    HW1 1910   1.040   0.295   1.169 -1.8587 -0.6186  0.2645
33301SOL    HW2 1911   1.010   0.167   1.095  1.6491 -1.0287 -0.5969
33302SOL     OW 1912   5.301   6.546   8.837  0.3488  0.5951 -0.3429
33302SOL    HW1 1913   5.296   6.574   8.928 -0.7504  0.0735 -0.2159
33302SOL    HW2 1914   5.369   6.479   8.836 -0.4489 -0.2643  0.3688
33303SOL     OW 1915   9.552   9.751   0.499 -0.3142  0.4986 -0.7375
33303SOL    HW1 1916   9.620   9.720   0.560  0.4143  2.7499 -0.3255
33303SOL    HW2 1917   9.505   9.671   0.474  2.5355 -1.2063 -1.1591
33304SOL     OW 1918   8.202   3.951   8.481 -1.0270  0.0701  0.4398
33304SOL    HW1 1919   8.252   3.913   8.554  0.7086 -2.4559 -1.8742
33304SOL    HW2 1920   8.256   4.024   8.451 -1.2523  0.4871  1.0282
33305SOL     OW 1921   6.663   9.083   0.864 -0.0348  0.3236 -0.2645
33305SOL    HW1 1922   6.674   9.165   0.912  0.3353  0.6545 -0.9101
33305SOL    HW2 1923   6.579   9.092   0.820 -1.4495 -0.8425  1.9755
33306SOL     OW 1924  10.853   6.480   6.450 -0.1643  0.1063 -0.5033
33306SOL    HW1 1925  10.834   6.472   6.357  0.9763 -2.2857 -0.6136
33306SOL    HW2 1926  10.908   6.558   6.457  0.8581 -0.4237 -2.0647
33307SOL     OW 1927   9.582   0.878   7.633  0.1529 -0.5240 -0.7327
33307SOL    HW1 1928   9.626   0.915   7.556  0.4417  1.5824  0.3696
33307SOL    HW2 1929   9.594   0.944   7.701 -0.2007 -2.2734  1.1061
33308SOL     OW 1930   9.680   8.472   9.909 -0.0000  0.4759 -0.5208
33308SOL    HW1 1931   9.617   8.496   9.841 -1.5713 -1.2768  0.2085
33308SOL    HW2 1932   9.718   8.390   9.879  0.7933  0.7269 -0.2225
33309SOL     OW 1933   8.817   6.048   8.751  0.6225  0.6469  0.5072
33309SOL    HW1 1934   8.804   6.021   8.842 -0.3157 -0.1701  0.1537
33309SOL    HW2 1935   8.796   5.970   8.700  0.5379  1.2743 -0.4352
33310SOL     OW 1936   6.653   5.156   1.802  0.4056  0.5345 -0.0585
33310SOL    HW1 1937   6.622   5.066   1.806  1.9771 -0.1430 -1.7928
33310SOL    HW2 1938   6.642   5.189   1.891 -0.1487 -1.3758  0.6252
33311SOL     OW 1939   0.434   1.413   2.895  0.5798  0.0327 -0.1716
33311SOL    HW1 1940   0.485   1.488   2.864 -1.2120  0.5196 -2.2321
33311SOL    HW2 1941   0.441   1.349   2.824  1.5333 -1.5526  1.2728
33312SOL     OW 1942   6.117   0.600   3.521 -0.0887  0.5396 -0.3564
33312SOL    HW1 1943   6.086   0.614   3.610 -1.0138 -1.1413 -0.3786
33312SOL    HW2 1944   6.211   0.619   3.525  0.2044 -1.0029  1.3555
33313SOL     OW 1945   4.920   1.586   7.228 -0.1513 -0.6330 -0.4064
33313SOL    HW1 1946   4.989   1.608   7.166 -1.0511 -0.0341 -1.2196
33313SOL    HW2 1947   4.934   1.646   7.302  0.2342 -0.5620 -0.5354
33314SOL     OW 1948   8.929   1.899   5.288  0.6163  0.0378 -0.3289
33314SOL    HW1 1949   8.894   1.983   5.316  0.2030  0.3286 -1.6167
33314SOL    HW2 1950   9.012   1.921   5.245  0.6615 -0.2458 -0.3889
33315SOL     OW 1951   0.251   9.712   9.504 -0.3056 -0.0157  0.8450
33315SOL    HW1 1952   0.167   9.666   9.502 -0.8378  0.8292 -2.0149
33315SOL    HW2 1953   0.229   9.799   9.538 -0.8844  0.5602 -0.8842
33316SOL     OW 1954   7.190   6.123   7.770  0.1706  0.2857  0.4770
33316SOL    HW1 1955   7.218   6.101   7.681 -0.5480 -0.4210  0.4137
33316SOL    HW2 1956   7.218   6.049   7.823 -0.0396  0.3758  0.7155
33317SOL     OW 1957   0.267  10.975   8.947 -0.6456  0.3223 -0.4184
33317SOL    HW1 1958   0.296  10.907   8.887  0.7011  0.6360 -0.1546
33317SOL    HW2 1959   0.218  10.929   9.015 -1.8387 -0.0797 -1.5177
33318SOL     OW 1960   4.318   7.427   4.865 -0.3019  0.7573 -0.2512
33318SOL    HW1 1961   4.402   7.431   4.910 -0.4104  0.2945  0.0008
33318SOL    HW2 1962   4.305   7.334   4.847  0.3790  1.0526 -2.4921
33319SOL     OW 1963  10.698   1.335   6.277  0.0940  0.1770 -0.4463
33319SOL    HW1 1964  10.692   1.373   6.364  0.4691  1.3355 -0.9030
33319SOL    HW2 1965  10.659   1.400   6.219 -0.1158 -0.5555 -1.1588
33320SOL     OW 1966   8.735   3.686   7.544  0.2203 -0.0862 -0.4870
33320SOL    HW1 1967   8.687   3.605   7.526 -1.1118  0.4217  0.6020
33320SOL    HW2 1968   8.691   3.751   7.489  0.0142  0.2751  0.1035
33321SOL     OW 1969   9.543   9.949   5.590 -0.0263 -0.1294 -0.0277
33321SOL    HW1 1970   9.537  10.038   5.626  0.0232  0.0800 -0.5366
33321SOL    HW2 1971   9.525   9.959   5.497  1.6961 -0.3971 -0.4252
33322SOL     OW 1972  10.670   7.115   2.233  0.2156  0.1108 -0.0014
33322SOL    HW1 1973  10.710   7.040   2.189  0.5810  0.1873  0.1983
33322SOL    HW2 1974  10.722   7.127   2.313  0.0553  0.4706  0.0519
33323SOL     OW 1975   3.677  10.937   5.861 -0.0601 -0.1695 -0.0056
33323SOL    HW1 1976   3.617  10.988   5.916 -1.2496 -1.9728  0.4516
33323SOL    HW2 1977   3.620  10.881   5.809  1.1773 -0.6697 -0.8621
33324SOL     OW 1978   9.373   8.356   5.060  0.6641  0.0213 -0.3795
33324SOL    HW1 1979   9.366   8.391   4.971 -1.9516  2.1270  0.5185
33324SOL    HW2 1980   9.351   8.263   5.051  0.9033  0.0916 -1.9758
33325SOL     OW 1981   8.087  10.579   4.180  0.5460 -0.0538 -0.0904
33325SOL    HW1 1982   8.078  10.571   4.085 -2.0495 -0.5231  0.1031
33325SOL    HW2 1983   8.007  10.538   4.214  1.6998 -0.4276  2.3257
33326SOL     OW 1984   5.023   3.315   1.361 -0.0866  0.1636  0.4051
33326SOL    HW1 1985   5.031   3.220   1.351 -1.7821  0.1764 -1.4448
33326SOL    HW2 1986   5.103   3.350   1.322  0.3441 -0.4579  0.7065
33327SOL     OW 1987   9.497   5.216   6.253  0.3112  0.4104 -0.0784
33327SOL    HW1 1988   9.417   5.165   6.264  0.3211  0.6554  1.4672
33327SOL    HW2 1989   9.474   5.286   6.192 -0.4322  0.0434 -0.2213
33328SOL     OW 1990   4.679   4.617   3.778 -0.1602 -0.3021  0.1889
33328SOL    HW1 1991   4.711   4.668   3.704  0.5886  1.1686  1.4703
33328SOL    HW2 1992   4.758   4.584   3.821 -0.5488 -0.4262  0.8159
33329SOL     OW 1993   6.920  10.232   2.498  0.7446 -0.3407  0.3280
33329SOL    HW1 1994   6.997  10.206   2.549  0.4863  1.7911  1.9419
33329SOL    HW2 1995   6.956  10.279   2.423  1.0703  0.0570  0.7206
33330SOL     OW 1996   6.518   1.396   4.387 -0.5896  0.2072  0.2556
33330SOL    HW1 1997   6.565   1.472   4.353  0.2675 -0.0426  0.8520
33330SOL    HW2 1998   6.490   1.423   4.475 -1.3061  0.2468  0.0196
33331SOL     OW 1999   7.650   6.363   0.337 -0.4038  0.1355 -0.2414
33331SOL    HW1 2000   7.655   6.333   0.428 -0.8406 -0.9872 -0.5661
33331SOL    HW2 2001   7.736   6.399   0.319 -0.7705  1.8094  1.0865
33332SOL     OW 2002   0.769   2.306   7.653 -0.2520 -0.4032  0.1738
33332SOL    HW1 2003   0.829   2.356   7.708 -0.7873 -0.1999  0.5866
33332SOL    HW2 2004   0.700   2.367   7.630  1.6582  0.5665 -3.6761
33333SOL     OW 2005   2.546   5.979   8.039 -0.3696 -0.2619  0.0219
33333SOL    HW1 2006   2.462   6.024   8.042 -0.3321 -0.0893 -0.9707
33333SOL    HW2 2007   2.573   5.971   8.130 -1.2006  0.1767  0.3127
33334SOL     OW 2008   3.417   8.296   3.207 -0.3113 -0.0810 -0.0260
33334SOL    HW1 2009   3.393   8.210   3.173 -0.2250 -0.4407  0.7888
33334SOL    HW2 2010   3.497   8.320   3.159 -1.2598  0.3185 -1.4571
33335SOL     OW 2011   0.881   1.118   6.561  0.2919 -0.0739  0.4972
33335SOL    HW1 2012   0.950   1.145   6.501  0.7807 -0.0427  1.0605
33335SOL    HW2 2013   0.833   1.050   6.514  1.6992 -1.2543  0.6846
33336SOL     OW 2014   7.383  10.525   2.001 -0.3138  0.0308 -0.1215
33336SOL    HW1 2015   7.340  10.507   2.084 -0.2223  0.7720  0.0929
33336SOL    HW2 2016   7.476  10.508   2.018 -0.4835 -1.5845 -0.5885
33337SOL     OW 2017   0.343   2.850   9.645 -0.2609 -0.2148  0.3854
33337SOL    HW1 2018   0.280   2.890   9.585  0.7723 -1.5366 -1.6949
33337SOL    HW2 2019   0.291   2.786   9.695 -0.5670 -1.6640 -1.6673
33338SOL     OW 2020   6.938   3.707   7.163 -0.0127  0.4457  0.0865
33338SOL    HW1 2021   6.943   3.728   7.070 -0.3791 -0.1969 -0.0855
33338SOL    HW2 2022   7.002   3.765   7.205 -0.3328  1.2116 -0.4770
33339SOL     OW 2023   4.633   7.690   2.088 -0.1419  0.0448 -0.0810
33339SOL    HW1 2024   4.709   7.690   2.029 -0.9247  0.6742 -1.1135
33339SOL    HW2 2025   4.663   7.737   2.165  0.1526  1.4317 -1.0018
33340SOL     OW 2026   5.100   6.157   0.469  0.4182  0.0161 -0.0255
33340SOL    HW1 2027   5.187   6.154   0.510  0.4732  1.0515 -0.0516
33340SOL    HW2 2028   5.040   6.180   0.540  0.3407  0.5677 -0.2698
33341SOL     OW 2029   8.331   5.166   9.860 -0.4192  0.2732  0.7196
33341SOL    HW1 2030   8.314   5.114   9.938  1.1109 -0.6843  0.4465
33341SOL    HW2 2031   8.349   5.102   9.791  0.0617  1.1286  0.0219
33342SOL     OW 2032   6.693  10.367   1.145 -0.2399  0.1401 -0.2638
33342SOL    HW1 2033   6.720  10.280   1.118  0.7186  0.5885 -0.8009
33342SOL    HW2 2034   6.607  10.379   1.104 -1.3668 -1.3188  1.5134
33343SOL     OW 2035   0.188   6.282   4.986  0.1780 -0.1579 -0.1368
33343SOL    HW1 2036   0.127   6.350   5.015  1.1517  1.6803 -2.1325
33343SOL    HW2 2037   0.180   6.281   4.890  1.0191 -2.0927 -0.2401
33344SOL     OW 2038  10.553   5.785   5.308  0.2936 -0.2902 -0.3910
33344SOL    HW1 2039  10.509   5.832   5.237  0.9380  2.2346  0.7502
33344SOL    HW2 2040  10.485   5.770   5.373  0.4178  0.7415  0.0017
33345SOL     OW 2041   9.685   3.688  10.439  0.1706  0.6367  0.4895
33345SOL    HW1 2042   9.636   3.610  10.411  2.3323 -1.3254  1.7844
33345SOL    HW2 2043   9.758   3.693  10.377  1.0198  0.5460  1.4578
33346SOL     OW 2044   3.946   6.006   0.849 -0.3353 -0.5779  0.2768
33346SOL    HW1 2045   3.860   6.025   0.811 -1.6500 -2.5794  1.9817
33346SOL    HW2 2046   3.977   5.930   0.799  0.9209  0.6454 -0.9010
33347SOL     OW 2047   1.067   5.408   2.129  0.0879  0.1159  0.2939
33347SOL    HW1 2048   1.153   5.374   2.152  0.7279  1.2401 -0.3395
33347SOL    HW2 2049   1.005   5.350   2.173  1.1603 -0.8248  0.6014
33348SOL     OW 2050   2.899   5.643   8.570  0.3243  0.1726  0.4627
33348SOL    HW1 2051   2.840   5.592   8.514 -0.3564  1.1521  0.2702
33348SOL    HW2 2052   2.948   5.698   8.509  1.0098 -0.1792  0.6800
33349SOL     OW 2053   0.210   8.178   5.883  0.0916  0.1164  0.1148
33349SOL    HW1 2054   0.157   8.126   5.943  0.7987  0.6235  1.2142
33349SOL    HW2 2055   0.222   8.122   5.806 -0.3838 -0.7555  0.6623
33350SOL     OW 2056   0.421   5.724   8.301  0.2740  0.5612 -0.2366
33350SOL    HW1 2057   0.343   5.762   8.341  0.6012  0.1449  0.8528
33350SOL    HW2 2058   0.398   5.632   8.285  1.3017 -0.2845  2.4846
33351SOL     OW 2059   0.513   2.021   9.955 -0.3199 -0.7116 -0.0743
33351SOL    HW1 2060   0.533   2.064  10.038  1.5762 -2.6831  0.5739
33351SOL    HW2 2061   0.593   2.029   9.903  0.9662 -5.0055  0.8710
33352SOL     OW 2062   5.716   7.851   9.626  0.1801  0.6945  0.5168
33352SOL    HW1 2063   5.637   7.858   9.678  1.3274  1.4149  2.2631
33352SOL    HW2 2064   5.752   7.765   9.647 -1.5605 -0.9716 -2.5553
33353SOL     OW 2065   1.422   5.551   9.330 -0.5554 -0.4694 -0.4897
33353SOL    HW1 2066   1.353   5.589   9.384 -1.0544 -1.2362 -0.5678
33353SOL    HW2 2067   1.499   5.550   9.387 -0.5136  0.6836 -0.5077
33354SOL     OW 2068  11.004   5.977   1.836 -0.0477  0.2884 -0.5466
33354SOL    HW1 2069  10.915   6.012   1.827 -0.2770 -0.4420 -1.2575
33354SOL    HW2 2070  11.040   6.021   1.913 -0.8894  0.8772 -0.4822
33355SOL     OW 2071   7.878   8.143   7.460  0.5440  0.5247 -0.0003
33355SOL    HW1 2072   7.879   8.217   7.399  0.5549  0.7610  0.2870
33355SOL    HW2 2073   7.961   8.098   7.443  0.3439  0.3267 -0.4778
33356SOL     OW 2074   0.629   4.693   6.903 -0.3739 -0.2590 -0.1494
33356SOL    HW1 2075   0.708   4.726   6.945 -1.1832  0.7427  0.6345
33356SOL    HW2 2076   0.586   4.640   6.971 -0.4070 -0.7764 -0.5617
33357SOL     OW 2077   1.557   9.720   0.456 -0.3850 -0.4493  0.3879
33357SOL    HW1 2078   1.488   9.780   0.484 -0.4516  0.0668 -0.7935
33357SOL    HW2 2079   1.523   9.680   0.376  0.4378 -0.6174  0.1076
33358SOL     OW 2080   1.872   1.133   9.600  0.9572  0.5693 -0.5624
33358SOL    HW1 2081   1.941   1.175   9.651 -0.0033  2.5089 -0.7194
33358SOL    HW2 2082   1.801   1.120   9.663  1.1372 -0.6011 -0.5883
33359SOL     OW 2083   9.970   6.730   3.272  0.0245 -0.5061 -0.1502
33359SOL    HW1 2084  10.024   6.763   3.343  0.4190  0.2014 -0.7642
33359SOL    HW2 2085  10.028   6.732   3.195 -0.8192  0.1448 -0.7893
33360SOL     OW 2086   0.053   3.739   3.205 -0.5987  0.6082 -0.5057
33360SOL    HW1 2087   0.018   3.666   3.257 -0.0446  0.2988 -0.5630
33360SOL    HW2 2088   0.104   3.791   3.267  0.7585 -0.2187 -0.8890
33361SOL     OW 2089   7.411   6.970   1.530  0.1654  0.3135 -0.2234
33361SOL    HW1 2090   7.384   7.057   1.501  0.2934  0.5194  0.2669
33361SOL    HW2 2091   7.475   6.986   1.600  1.7263 -0.1561 -1.4863
33362SOL     OW 2092   1.391   8.301   4.795  0.5860  0.3437  0.3342
33362SOL    HW1 2093   1.344   8.336   4.719  0.3031 -0.1219  0.2905
33362SOL    HW2 2094   1.421   8.379   4.842  0.5637  0.6395 -0.1290
33363SOL     OW 2095  10.564   2.058   8.313 -0.3328 -0.3278 -0.2236
33363SOL    HW1 2096  10.649   2.022   8.287 -0.5451 -0.3771 -0.8589
33363SOL    HW2 2097  10.585   2.128   8.375  0.0564 -2.7476  2.6326
33364SOL     OW 2098  10.670   4.866   5.958 -0.4746  0.6282  0.0417
33364SOL    HW1 2099  10.684   4.817   5.877 -1.1422 -0.9470  0.8323
33364SOL    HW2 2100  10.758   4.885   5.990 -0.2034  1.0674 -0.9138
33365SOL     OW 2101  10.446   5.142   3.980  0.0284  0.4607  0.4414
33365SOL    HW1 2102  10.414   5.078   3.917  1.0004 -0.2524  0.6499
33365SOL    HW2 2103  10.382   5.213   3.977 -1.6029 -0.9296  0.9065
33366SOL     OW 2104   2.818   9.305   9.557 -0.4360  0.9148  0.4123
33366SOL    HW1 2105   2.732   9.289   9.597 -0.3838  2.2088  1.0812
33366SOL    HW2 2106   2.828   9.400   9.558 -0.2801  1.0105 -2.4277
33367SOL     OW 2107   4.944   2.747   6.483 -0.3137 -0.3691  0.0773
33367SOL    HW1 2108   5.017   2.770   6.541  0.7995 -2.6096 -0.3543
33367SOL    HW2 2109   4.869   2.739   6.542  0.2226 -0.0619  0.8231
33368SOL     OW 2110   4.645   9.295   6.608  0.4454  0.2182  0.0388
33368SOL    HW1 2111   4.613   9.209   6.632 -0.7971  0.5267 -0.4117
33368SOL    HW2 2112   4.662   9.339   6.691 -0.1932 -0.0169  0.3009
33369SOL     OW 2113   5.833   7.056   4.203  0.6651  0.1119 -0.4612
33369SOL    HW1 2114   5.918   7.085   4.237  1.6794 -1.7013 -1.2983
33369SOL    HW2 2115   5.780   7.136   4.201  3.0550  1.8188 -2.0459
33370SOL     OW 2116   9.306   0.006   8.773 -0.1200 -0.1847 -0.4456
33370SOL    HW1 2117   9.312  -0.087   8.794 -0.3575  0.4216  2.9367
33370SOL    HW2 2118   9.393   0.030   8.742  0.1227 -1.4116 -0.7482
33371SOL     OW 2119  10.869   2.284  10.144  0.3588 -0.2637  0.4542
33371SOL    HW1 2120  10.786   2.238  10.151  0.7059 -0.9615  0.0616
33371SOL    HW2 2121  10.878   2.329  10.228 -0.6720  0.2752  0.2927
33372SOL     OW 2122   0.492   6.848   1.042 -0.2748  0.3001 -0.2307
33372SOL    HW1 2123   0.580   6.813   1.029  0.2832  1.4936  0.1305
33372SOL    HW2 2124   0.440   6.774   1.073  0.0740 -0.9100 -2.3895
33373SOL     OW 2125   1.054   0.623   6.820 -0.3674 -0.6593 -0.4673
33373SOL    HW1 2126   0.965   0.600   6.845  0.1584 -1.5307  0.7041
33373SOL    HW2 2127   1.071   0.706   6.863 -0.5320 -0.6099 -0.4971
33374SOL     OW 2128   8.088   6.148   9.439 -0.1742 -0.2528  0.0878
33374SOL    HW1 2129   8.076   6.105   9.354  1.2181 -0.3563 -0.0753
33374SOL    HW2 2130   8.090   6.076   9.502 -0.5964 -0.2155  0.1500
33375SOL     OW 2131   2.455  10.976   2.814 -0.2291 -0.1461  0.4083
33375SOL    HW1 2132   2.420  10.928   2.739  0.2532 -0.8403  0.6177
33375SOL    HW2 2133   2.439  11.068   2.793  0.6004 -0.2808 -0.9015
33376SOL     OW 2134   0.757   0.421   1.615  0.0674  0.2009  0.7257
33376SOL    HW1 2135   0.852   0.436   1.622  0.1760  0.2687 -0.6174
33376SOL    HW2 2136   0.720   0.509   1.607 -0.0088  0.1291  0.2649
33377SOL     OW 2137   4.801  10.048   6.236  0.0664 -0.1242 -0.0882
33377SOL    HW1 2138   4.707  10.048   6.252 -0.0110  1.8976 -0.2794
33377SOL    HW2 2139   4.840  10.079   6.318  0.4132  0.7300 -0.5596
33378SOL     OW 2140   6.481   2.463   7.952 -0.6161  0.0906  0.1765
33378SOL    HW1 2141   6.437   2.546   7.934 -2.4634 -0.4061  2.0896
33378SOL    HW2 2142   6.438   2.400   7.894 -2.3456 -0.3339  1.8296
33379SOL     OW 2143   4.879   2.904   5.585 -0.4897 -0.3215  0.2903
33379SOL    HW1 2144   4.786   2.923   5.591 -0.4949  0.1624 -0.9354
33379SOL    HW2 2145   4.883   2.812   5.560 -0.6895 -0.0268 -0.8744
33380SOL     OW 2146   0.540   5.082  10.202 -0.4929 -0.2873  0.4406
33380SOL    HW1 2147   0.630   5.102  10.176 -0.7352  0.7322  0.3560
33380SOL    HW2 2148   0.549   5.013  10.268  0.2525 -1.4143 -0.7880
33381SOL     OW 2149   9.510   6.779   0.845 -0.1664 -0.0172  0.0996
33381SOL    HW1 2150   9.545   6.690   0.847  1.1542  0.4393 -1.1707
33381SOL    HW2 2151   9.452   6.783   0.922  0.9406 -1.4724  1.0708
33382SOL     OW 2152   7.348   5.663   6.877  0.2493 -0.1383  0.7080
33382SOL    HW1 2153   7.294   5.670   6.956 -2.0001 -0.4796 -0.7091
33382SOL    HW2 2154   7.393   5.579   6.886  0.6641  0.2102  1.9952
33383SOL     OW 2155  10.273   6.750   8.171  0.8494  0.0144 -0.1809
33383SOL    HW1 2156  10.247   6.734   8.081 -1.6166 -2.6111  0.8308
33383SOL    HW2 2157  10.345   6.688   8.187  0.7202 -0.1156 -0.1069
33384SOL     OW 2158   3.581   4.661   8.340 -0.2326  0.0702  0.0122
33384SOL    HW1 2159   3.488   4.664   8.318 -0.2936 -0.4107  0.1855
33384SOL    HW2 2160   3.623   4.716   8.275 -0.5286 -0.4928 -0.6631
33385SOL     OW 2161   5.110   1.085   6.105 -0.3774 -0.1774  0.0775
33385SOL    HW1 2162   5.205   1.090   6.093 -0.5796  1.1399 -1.2850
33385SOL    HW2 2163   5.099   1.069   6.199  1.1859 -0.9499  0.1667
33386SOL     OW 2164   0.118   5.576   8.358  0.4686 -0.5387  0.0768
33386SOL    HW1 2165   0.176   5.510   8.320  1.6467  1.4086 -1.7291
33386SOL    HW2 2166   0.085   5.625   8.283 -1.3679  0.1635  1.2731
33387SOL     OW 2167   2.057   5.396   3.509  0.4404  0.1808  0.1605
33387SOL    HW1 2168   2.082   5.304   3.520  0.4003  0.0390 -0.8587
33387SOL    HW2 2169   2.002   5.397   3.430 -0.3258  0.9396  0.6857
33388SOL     OW 2170  10.450   5.984   4.627 -0.0888 -0.0053  0.0667
33388SOL    HW1 2171  10.524   5.943   4.582  0.1595 -1.0696  1.3722
33388SOL    HW2 2172  10.485   6.011   4.711 -1.0722 -0.0939  0.5199
33389SOL     OW 2173   7.017   7.958   3.929 -0.1624 -0.3851  0.2531
33389SOL    HW1 2174   6.972   7.886   3.884 -1.7398 -0.2760  1.5534
33389SOL    HW2 2175   7.015   8.030   3.866  1.1265 -1.3307 -0.9351
33390SOL     OW 2176   0.360   7.510   7.838  0.6034  0.1816 -0.5882
33390SOL    HW1 2177   0.329   7.595   7.870  0.0998 -0.1521 -0.1645
33390SOL    HW2 2178   0.450   7.504   7.870  0.1328 -0.1170  0.7629
33391SOL     OW 2179   5.046   6.415   8.869 -0.6313  0.1982  0.5350
33391SOL    HW1 2180   5.030   6.496   8.917 -0.6163  0.5791 -0.0871
33391SOL    HW2 2181   5.132   6.427   8.829 -0.5605 -0.1869  0.5713
33392SOL     OW 2182   6.745   2.757   6.897 -0.2463 -0.3365 -0.1973
33392SOL    HW1 2183   6.696   2.752   6.815  1.4030 -0.0502 -1.2429
33392SOL    HW2 2184   6.797   2.676   6.899 -1.9514 -1.4934  1.7483
33393SOL     OW 2185   0.493   7.376   4.643 -0.2450  0.1553 -0.0019
33393SOL    HW1 2186   0.424   7.424   4.689 -0.5846 -0.1493 -0.1927
33393SOL    HW2 2187   0.568   7.380   4.702 -0.6151 -0.0607  0.4865
33394SOL     OW 2188   4.330   7.996   7.492 -0.1150  0.3201  0.0271
33394SOL    HW1 2189   4.262   7.989   7.425 -0.4004  0.8925  0.2583
33394SOL    HW2 2190   4.394   7.928   7.468 -1.2671 -0.9597  0.4049
33395SOL     OW 2191   5.468   5.296   0.142 -0.3328 -0.2687  0.0358
33395SOL    HW1 2192   5.482   5.203   0.120  1.1371 -0.3778  1.3351
33395SOL    HW2 2193   5.530   5.343   0.086 -0.9712 -0.0574 -0.5097
33396SOL     OW 2194   1.205   8.347   7.430 -0.0109  0.0750 -0.1147
33396SOL    HW1 2195   1.222   8.302   7.347 -1.7906 -0.4433 -0.2370
33396SOL    HW2 2196   1.245   8.290   7.496 -1.5892 -1.3736 -0.3375
33397SOL     OW 2197   3.618   1.731   1.461 -0.9181 -0.0180  0.1362
33397SOL    HW1 2198   3.602   1.637   1.467 -1.6000  0.0720 -0.2392
33397SOL    HW2 2199   3.641   1.745   1.369  1.0594 -0.0931  0.5711
33398SOL     OW 2200   7.267   7.729   5.946 -0.0984  0.4196 -0.1346
33398SOL    HW1 2201   7.354   7.743   5.982  0.0752 -0.8196 -0.0315
33398SOL    HW2 2202   7.247   7.637   5.966 -0.9004  0.3253 -1.2686
33399SOL     OW 2203   7.443   4.167   1.722  0.5172  0.3373 -0.5370
33399SOL    HW1 2204   7.459   4.239   1.661  0.6404 -0.7384 -1.8215
33399SOL    HW2 2205   7.418   4.210   1.804 -1.1271  1.8255 -1.7472
33400SOL     OW 2206   4.279   1.964   7.779 -0.2478 -0.2197 -0.5772
33400SOL    HW1 2207   4.343   2.034   7.791  0.6473 -0.9542 -0.9569
33400SOL    HW2 2208   4.206   2.006   7.733  0.0097  0.5998 -0.2546
33401SOL     OW 2209   2.081   5.268   8.103  0.2617 -0.8349 -0.1020
33401SOL    HW1 2210   2.013   5.247   8.167  0.5469 -2.2978 -0.2527
33401SOL    HW2 2211   2.034   5.306   8.029 -0.3735 -1.5320 -0.0684
33402SOL     OW 2212   0.740   7.016   0.538  0.5264  0.3584 -0.5646
33402SOL    HW1 2213   0.729   6.942   0.598 -3.3014  1.1248 -0.0465
33402SOL    HW2 2214   0.746   6.975   0.451  1.2805 -0.6225 -0.0665
33403SOL     OW 2215  10.520   9.092   8.169  0.1260  0.1572 -0.2429
33403SOL    HW1 2216  10.570   9.055   8.096  0.5888 -0.1983  0.2432
33403SOL    HW2 2217  10.428   9.085   8.141  0.2493 -0.6692 -0.4845
33404SOL     OW 2218   6.061   8.870   3.301 -0.0030  0.4233 -0.4266
33404SOL    HW1 2219   5.990   8.839   3.357  0.4574  1.3138  0.6656
33404SOL    HW2 2220   6.141   8.850   3.350  0.4201  0.9810 -0.8771
33405SOL     OW 2221   1.898   1.834   5.698 -0.7987 -0.3567 -0.4746
33405SOL    HW1 2222   1.856   1.758   5.658 -2.9812  0.4665  0.1601
33405SOL    HW2 2223   1.842   1.858   5.771  1.9787 -0.5429  1.9320
33406SOL     OW 2224   6.592   8.418   9.114  0.1197  0.2597  0.0601
33406SOL    HW1 2225   6.565   8.492   9.059  0.7404  0.7628  0.4176
33406SOL    HW2 2226   6.607   8.346   9.053 -1.3802  0.1464 -0.2113
33407SOL     OW 2227   6.263   6.764   8.157  0.1040 -0.3372 -0.4749
33407SOL    HW1 2228   6.280   6.856   8.177 -2.3667  0.2970 -0.9523
33407SOL    HW2 2229   6.344   6.718   8.183  0.8736  1.7534  1.1043
33408SOL     OW 2230   6.652   8.122   5.128 -0.0242 -0.0777 -0.1803
33408SOL    HW1 2231   6.612   8.111   5.214 -3.5240  0.3817 -1.5824
33408SOL    HW2 2232   6.663   8.033   5.094  0.0777 -0.2044  0.1791
33409SOL     OW 2233   4.030  10.939   7.970 -0.8745 -0.4793  0.0400
33409SOL    HW1 2234   4.111  10.942   7.919 -0.5098  1.1972  0.6428
33409SOL    HW2 2235   4.058  10.957   8.060 -1.9823  1.0930  0.1212
33410SOL     OW 2236   6.371   1.997   2.610  0.1684 -0.0219 -0.2262
33410SOL    HW1 2237   6.369   1.978   2.516  0.7958 -1.4860  0.0402
33410SOL    HW2 2238   6.426   2.075   2.617 -3.4412  2.9485 -1.4627
33411SOL     OW 2239   5.454   8.482   4.619  0.2321 -0.1966 -0.1676
33411SOL    HW1 2240   5.441   8.446   4.531  0.4093  0.1958 -0.3555
33411SOL    HW2 2241   5.544   8.457   4.642 -0.0975 -1.0338  0.2504
33412SOL     OW 2242   0.561   7.459   4.382  0.7642  0.7923  0.1986
33412SOL    HW1 2243   0.651   7.429   4.398  1.2650  2.6156  1.0280
33412SOL    HW2 2244   0.512   7.433   4.460 -0.2044 -2.7216 -1.3963
33413SOL     OW 2245  10.812   2.289   0.638 -0.5176  0.1182  0.0110
33413SOL    HW1 2246  10.765   2.366   0.670  1.0170  1.1297 -0.0521
33413SOL    HW2 2247  10.900   2.297   0.676 -0.5153 -1.9631  0.5317
33414SOL     OW 2248   5.275   3.379   1.262  0.4191 -0.5639  0.0527
33414SOL    HW1 2249   5.350   3.331   1.299  1.0686 -0.5957 -1.2397
33414SOL    HW2 2250   5.303   3.401   1.173 -0.2970  1.2769  0.2434
33415SOL     OW 2251   8.011   4.160  10.073 -0.3816  0.4378 -0.1229
33415SOL    HW1 2252   7.980   4.138  10.161 -0.2858  1.0232  0.0581
33415SOL    HW2 2253   7.933   4.149  10.018 -0.0912 -1.4111 -0.2307
33416SOL     OW 2254   5.483   3.402  10.958 -0.4790  0.2597 -0.1637
33416SOL    HW1 2255   5.547   3.383  10.890 -1.5498  0.6416 -1.3292
33416SOL    HW2 2256   5.534   3.436  11.031  0.8423 -1.4304 -0.2507
33417SOL     OW 2257   5.384   9.142   1.401 -0.2134  0.0862  0.5944
33417SOL    HW1 2258   5.366   9.161   1.308 -0.1617  0.0319  0.5734
33417SOL    HW2 2259   5.399   9.048   1.403  3.7027  0.5382  0.0122
33418SOL     OW 2260   0.797   7.359   4.449 -0.0269 -0.1100 -0.4728
33418SOL    HW1 2261   0.820   7.372   4.541  1.2281  0.8098 -0.8937
33418SOL    HW2 2262   0.881   7.359   4.403 -0.6230 -0.8363 -1.5917
33419SOL     OW 2263   5.110   1.702   4.156  0.3190  0.1858  0.4090
33419SOL    HW1 2264   5.055   1.639   4.108 -0.3983 -0.7818  2.3782
33419SOL    HW2 2265   5.185   1.650   4.184 -0.5711 -0.0588  2.5817
33420SOL     OW 2266   5.953   7.085   7.553 -0.5847  0.1549  0.4666
33420SOL    HW1 2267   5.900   7.165   7.557 -1.1876 -0.2783  1.4510
33420SOL    HW2 2268   5.983   7.081   7.462 -1.9733  0.5800 -0.0375
33421SOL     OW 2269   0.984   7.314   8.625  0.3436 -0.4113  0.2046
33421SOL    HW1 2270   1.012   7.269   8.705  0.8797 -0.9401 -0.2721
33421SOL    HW2 2271   1.027   7.266   8.555 -1.4859 -1.0422 -0.5577
33422SOL     OW 2272  10.725   5.092   2.682  0.5003  0.1391 -0.0510
33422SOL    HW1 2273  10.700   5.177   2.646 -1.6172 -0.3696  0.0919
33422SOL    HW2 2274  10.697   5.096   2.773 -0.8988 -1.1641 -0.3887
33423SOL     OW 2275   4.282   2.725   6.043  1.0292  0.3344 -0.4191
33423SOL    HW1 2276   4.345   2.784   6.001 -0.0588  0.5811 -1.7707
33423SOL    HW2 2277   4.289   2.745   6.136  2.0316  1.2530 -0.6663
33424SOL     OW 2278  10.526   0.624   6.864  0.3900  0.3682  0.2866
33424SOL    HW1 2279  10.445   0.670   6.844  1.0076  0.6319 -1.7924
33424SOL    HW2 2280  10.504   0.569   6.940 -1.4353  1.1570  0.3752
33425SOL     OW 2281   8.243   1.112   2.095 -0.1194  0.1394  0.2342
33425SOL    HW1 2282   8.239   1.049   2.167 -2.4426  1.3256  1.2825
33425SOL    HW2 2283   8.332   1.145   2.096 -0.3765  1.0288  3.4781
33426SOL     OW 2284   5.736   8.211   5.980  0.7111  0.3152  0.3799
33426SOL    HW1 2285   5.706   8.249   6.063 -0.0931 -1.2099  0.8265
33426SOL    HW2 2286   5.678   8.137   5.965  1.7434 -0.2904 -0.8380
33427SOL     OW 2287   6.165   9.464   3.477  0.3667 -1.0303  0.4950
33427SOL    HW1 2288   6.137   9.425   3.394 -1.2249 -1.2541  1.0883
33427SOL    HW2 2289   6.114   9.544   3.484  1.8910 -0.0097  0.4018
33428SOL     OW 2290   6.012   8.051   5.908  0.6419 -0.1129 -0.2342
33428SOL    HW1 2291   5.970   8.136   5.895 -1.0763 -0.6948  1.1751
33428SOL    HW2 2292   6.022   8.044   6.003  0.8335 -1.4710 -0.3437
33429SOL     OW 2293  10.655   9.640   3.791 -0.7140  0.6418  0.1419
33429SOL    HW1 2294  10.655   9.736   3.796 -0.8341  0.6090  1.0995
33429SOL    HW2 2295  10.631   9.612   3.880  0.1790 -0.2836  0.1105
33430SOL     OW 2296   8.483   6.967   0.033  0.4237  0.3965 -0.6439
33430SOL    HW1 2297   8.430   6.956  -0.046  2.7266  0.2345 -2.2469
33430SOL    HW2 2298   8.530   7.049   0.020  1.0295  0.2525  0.4485
33431SOL     OW 2299  10.408   1.308   6.644  0.2771  0.5897 -0.2048
33431SOL    HW1 2300  10.344   1.342   6.707  1.0174 -0.9628  1.4606
33431SOL    HW2 2301  10.355   1.285   6.567 -1.2093 -0.5234  1.0733
33432SOL     OW 2302   9.862   8.409   6.476  0.1211 -0.5485  0.1928
33432SOL    HW1 2303   9.882   8.435   6.387  0.2752  0.3193  0.4699
33432SOL    HW2 2304   9.944   8.373   6.510  0.9595  1.8533  0.9234
33433SOL     OW 2305   2.307   6.628   8.336  0.6007 -0.7231 -0.4563
33433SOL    HW1 2306   2.217   6.624   8.370  0.4125 -1.3722 -1.0176
33433SOL    HW2 2307   2.362   6.610   8.412  0.2156 -1.3418 -0.3181
33434SOL     OW 2308   0.163   6.660  10.907 -0.1111 -0.4425 -0.0934
33434SOL    HW1 2309   0.102   6.732  10.925  0.4619 -0.5668  2.9851
33434SOL    HW2 2310   0.128   6.586  10.958  2.3234 -0.6083  1.4871
33435SOL     OW 2311   9.105   8.399   9.676  0.1285 -0.3301 -0.2246
33435SOL    HW1 2312   9.182   8.411   9.621  0.2781 -0.6517 -0.0878
33435SOL    HW2 2313   9.059   8.482   9.672  0.4539 -0.1565 -0.3543
33436SOL     OW 2314   0.343   9.898   8.713  0.1986  0.1064 -0.5351
33436SOL    HW1 2315   0.305   9.947   8.640 -0.5507  0.5623  0.1329
33436SOL    HW2 2316   0.271   9.844   8.746  0.3229  0.4142  0.2808
33437SOL     OW 2317   7.876   6.054   6.557  0.2579  0.2128  0.2301
33437SOL    HW1 2318   7.958   6.079   6.599  0.2214  0.1952  0.3122
33437SOL    HW2 2319   7.840   5.986   6.613  1.4230 -1.6390 -1.1561
33438SOL     OW 2320   0.417   6.927   3.178 -0.3937 -0.0033  0.3772
33438SOL    HW1 2321   0.501   6.940   3.132  0.3498 -0.9630  1.3954
33438SOL    HW2 2322   0.406   6.832   3.179 -1.4530  0.1141  0.3594
33439SOL     OW 2323   7.027   4.801   6.467  0.3457 -0.2937 -0.1482
33439SOL    HW1 2324   6.947   4.759   6.500  1.1522 -1.5240  0.3402
33439SOL    HW2 2325   7.056   4.743   6.396 -0.7155  1.6828 -2.3303
33440SOL     OW 2326   8.887   7.115  10.250 -0.8364  0.7530  0.3886
33440SOL    HW1 2327   8.957   7.079  10.305  0.4801  2.9583  0.2925
33440SOL    HW2 2328   8.821   7.146  10.312 -0.8392  0.3991  0.5654
33441SOL     OW 2329   6.973   5.361   6.179  0.2043  0.0930 -0.6457
33441SOL    HW1 2330   6.903   5.415   6.216  0.2059 -0.9359  0.9170
33441SOL    HW2 2331   7.054   5.400   6.212  0.3658  0.7916 -1.7996
33442SOL     OW 2332   2.199   7.947   6.385  0.0555  0.4237 -0.5349
33442SOL    HW1 2333   2.187   7.857   6.417  0.9519 -0.0011 -1.3623
33442SOL    HW2 2334   2.291   7.966   6.402 -0.7105  2.2646  2.2691
33443SOL     OW 2335  10.638   5.875   4.449 -0.0798  0.2800 -0.4161
33443SOL    HW1 2336  10.685   5.890   4.367  0.2413 -1.2405 -0.5410
33443SOL    HW2 2337  10.706   5.848   4.510 -0.4614  0.4614  0.0951
33444SOL     OW 2338   9.468   0.111   9.136 -0.6961  0.9024  0.1968
33444SOL    HW1 2339   9.515   0.144   9.212  0.3753  0.5971 -0.3109
33444SOL    HW2 2340   9.438   0.024   9.162  0.5917  0.3562 -0.0678
33445SOL     OW 2341  10.378   2.581   8.497 -0.0328 -0.6425 -0.3218
33445SOL    HW1 2342  10.301   2.524   8.490  0.4418 -1.2927 -0.4423
33445SOL    HW2 2343  10.381   2.606   8.590 -2.4838  2.4503 -0.9261
33446SOL     OW 2344   5.565   0.176   7.966 -0.6103 -0.6907 -0.0412
33446SOL    HW1 2345   5.622   0.123   7.910 -0.4362 -0.4366 -0.1053
33446SOL    HW2 2346   5.624   0.220   8.026 -0.6675  0.1109 -0.5538
33447SOL     OW 2347   2.186   1.276   0.461 -0.1075 -0.2280 -0.1359
33447SOL    HW1 2348   2.161   1.237   0.545 -1.2542  1.6221  0.4199
33447SOL    HW2 2349   2.253   1.341   0.484 -0.0721 -0.0507 -0.7263
33448SOL     OW 2350   4.532   1.783   4.309 -0.3146  0.3173  0.2848
33448SOL    HW1 2351   4.451   1.753   4.267 -0.4875  0.0067  0.8359
33448SOL    HW2 2352   4.506   1.861   4.358 -0.0211  0.9390 -0.5289
33449SOL     OW 2353   9.433   7.691   8.486 -0.1539 -0.6635 -0.2773
33449SOL    HW1 2354   9.506   7.748   8.464 -1.3264  0.7142 -0.7500
33449SOL    HW2 2355   9.469   7.628   8.548  1.5333 -0.3200 -0.8734
33450SOL     OW 2356   3.235   5.467   9.222  0.1409  0.0337  0.7000
33450SOL    HW1 2357   3.146   5.503   9.221 -0.0978 -0.5161  1.2226
33450SOL    HW2 2358   3.245   5.433   9.311  0.7905 -0.1124  0.5699
33451SOL     OW 2359   2.489   8.048   6.761  0.3076  0.4720  0.1074
33451SOL    HW1 2360   2.571   8.043   6.810  0.4613  0.6378 -0.1302
33451SOL    HW2 2361   2.500   8.123   6.702 -0.9051  1.9785  1.6896
33452SOL     OW 2362   1.488   5.110   9.195 -0.0960  0.0654  0.1360
33452SOL    HW1 2363   1.444   5.102   9.110  0.0489  2.8328 -0.2999
33452SOL    HW2 2364   1.420   5.091   9.259 -0.8576  0.3074 -0.5870
33453SOL     OW 2365   5.511   6.130   4.395  0.0367 -0.1716 -0.2956
33453SOL    HW1 2366   5.495   6.211   4.346 -2.1588 -1.2040 -1.4558
33453SOL    HW2 2367   5.553   6.158   4.476 -1.4186  2.2152 -0.2958
33454SOL     OW 2368   9.955   4.145   4.530 -0.0109  0.2831 -0.3648
33454SOL    HW1 2369   9.861   4.136   4.542 -0.3333  3.4485  0.4979
33454SOL    HW2 2370   9.965   4.179   4.441  0.0466  2.0005  0.2496
33455SOL     OW 2371   8.588   8.584   1.730  0.1784  0.3435  0.0509
33455SOL    HW1 2372   8.515   8.645   1.733 -1.1436 -1.2015  0.5176
33455SOL    HW2 2373   8.661   8.632   1.768 -1.0159  1.3938  1.0838
33456SOL     OW 2374   9.479  10.700   9.695  0.2715  0.7864  0.4480
33456SOL    HW1 2375   9.417  10.629   9.707  0.1937  0.6551 -0.6913
33456SOL    HW2 2376   9.482  10.744   9.781  0.0517 -0.3507  1.0544
33457SOL     OW 2377   7.311   5.610   6.265  0.2494 -0.1556 -0.0347
33457SOL    HW1 2378   7.287   5.580   6.177  0.1749 -0.2611  0.0203
33457SOL    HW2 2379   7.344   5.698   6.253  0.5834 -0.3046 -0.2158
33458SOL     OW 2380   5.932   6.301   9.944 -0.2753  0.0301  0.3027
33458SOL    HW1 2381   6.021   6.272   9.963  0.1713  0.2474 -1.2999
33458SOL    HW2 2382   5.890   6.306  10.030  1.0197 -0.7996  1.0267
33459SOL     OW 2383   5.849   6.632   7.758 -0.9203 -0.8692 -0.1553
33459SOL    HW1 2384   5.876   6.702   7.698  2.0644 -0.9149  0.9759
33459SOL    HW2 2385   5.864   6.668   7.846 -1.5244 -2.1538  0.5055
33460SOL     OW 2386   7.413   6.683   6.994  0.0503  0.0922 -0.1250
33460SOL    HW1 2387   7.428   6.668   6.901 -1.1003 -0.8210 -0.1978
33460SOL    HW2 2388   7.320   6.661   7.007  0.2570 -0.0690  1.2779
33461SOL     OW 2389   0.027   4.897   8.933 -0.7694  0.2823  0.1400
33461SOL    HW1 2390  -0.027   4.942   8.868 -0.7856  0.0036 -0.0389
33461SOL    HW2 2391  -0.035   4.873   9.002 -0.9397 -0.3220 -0.2129
33462SOL     OW 2392   4.433   6.695   2.417  0.4612  0.0267 -0.2953
33462SOL    HW1 2393   4.425   6.627   2.485 -0.3861 -0.6510 -1.0502
33462SOL    HW2 2394   4.479   6.651   2.345 -0.4244  0.1273 -0.9339
33463SOL     OW 2395  10.612   1.451   6.023 -0.5955 -0.5148  0.3979
33463SOL    HW1 2396  10.626   1.357   6.016  0.0869 -0.4834  1.1103
33463SOL    HW2 2397  10.605   1.481   5.932 -0.9668 -1.2674  0.1702
33464SOL     OW 2398  10.844   9.530   7.202 -0.2604 -0.0117 -0.0080
33464SOL    HW1 2399  10.801   9.541   7.117 -0.6213 -1.6267 -0.0660
33464SOL    HW2 2400  10.917   9.593   7.200  0.2669 -0.6141 -1.8654
33465SOL     OW 2401   3.547   4.679   5.573 -0.4985  0.1027 -0.2623
33465SOL    HW1 2402   3.473   4.621   5.552 -0.7619  0.4321 -0.2542
33465SOL    HW2 2403   3.594   4.689   5.490  0.0568 -0.8260 -0.0741
33466SOL     OW 2404   5.558   5.540   7.264  0.5660  0.3177 -0.1061
33466SOL    HW1 2405   5.571   5.504   7.177  1.1201  0.2908 -0.0161
33466SOL    HW2 2406   5.567   5.635   7.252 -0.7744  0.4282 -0.3227
33467SOL     OW 2407   7.345   3.382   5.726  0.2958 -0.2019 -0.1113
33467SOL    HW1 2408   7.311   3.330   5.799 -0.7641  1.7695  0.8705
33467SOL    HW2 2409   7.316   3.335   5.647 -0.8140 -0.9652  0.7294
33468SOL     OW 2410   1.317   8.387   6.276 -0.3106 -0.1183 -0.3010
33468SOL    HW1 2411   1.337   8.436   6.356  1.2343  0.9985 -1.3143
33468SOL    HW2 2412   1.279   8.305   6.307  1.2438 -0.1688  1.6259
33469SOL     OW 2413   1.634  10.436   6.845  0.2501 -0.2826 -0.4549
33469SOL    HW1 2414   1.684  10.482   6.777  0.5648 -2.0275 -1.4854
33469SOL    HW2 2415   1.551  10.483   6.850 -0.1567 -0.6357 -2.7605
33470SOL     OW 2416   6.090   2.770   4.549 -0.4996 -0.6614 -0.3370
33470SOL    HW1 2417   6.120   2.790   4.637 -0.6370 -1.7597 -0.0352
33470SOL    HW2 2418   5.996   2.755   4.558 -0.2349 -2.5017 -0.3492
33471SOL     OW 2419   2.345   5.420   5.122  0.6221 -0.2403  0.1125
33471SOL    HW1 2420   2.390   5.433   5.206  0.6397  0.8854 -0.0542
33471SOL    HW2 2421   2.298   5.337   5.132  1.3037 -0.5328  0.9299
33472SOL     OW 2422   7.097   8.027   2.538 -0.0790 -0.1760  0.0535
33472SOL    HW1 2423   7.132   7.991   2.620  1.5303  2.2746  0.5535
33472SOL    HW2 2424   7.174   8.040   2.483 -1.0669 -1.1277 -1.6158
33473SOL     OW 2425   1.092   6.987   3.832  0.2828  0.1562  0.0319
33473SOL    HW1 2426   1.122   6.958   3.746 -1.1859 -1.4193  0.0019
33473SOL    HW2 2427   1.007   7.028   3.815 -0.8030 -1.6153  0.8498
33474SOL     OW 2428   5.759   7.659   6.163 -0.3301  0.3818 -0.0260
33474SOL    HW1 2429   5.787   7.748   6.185 -0.5810 -0.2287  3.2694
33474SOL    HW2 2430   5.841   7.614   6.140 -0.2384  1.4678 -2.0470
33475SOL     OW 2431   0.894   3.387   9.131  0.1482  0.3776 -0.6322
33475SOL    HW1 2432   0.884   3.475   9.169  0.7867 -0.1445  0.8192
33475SOL    HW2 2433   0.943   3.402   9.050 -1.0162  1.5017 -1.1828
33476SOL     OW 2434   9.752   8.883   9.476 -0.0696  0.3488  0.0270
33476SOL    HW1 2435   9.833   8.836   9.455  0.6388  1.1737  0.8018
33476SOL    HW2 2436   9.740   8.943   9.403  1.4762  2.0512  1.0939
33477SOL     OW 2437   3.447   0.654   5.026 -0.7709 -0.6587 -0.1271
33477SOL    HW1 2438   3.423   0.689   5.112  0.1318 -1.0263  0.2932
33477SOL    HW2 2439   3.518   0.711   4.996 -1.3487 -0.2876 -0.8233
33478SOL     OW 2440  10.953   4.933   2.658 -0.1787  0.7515  0.0898
33478SOL    HW1 2441  10.944   4.986   2.579 -1.2684  1.7012  0.8111
33478SOL    HW2 2442  10.869   4.943   2.703  0.0732 -0.5361  0.9124
33479SOL     OW 2443   8.149   3.017   1.639  0.1307  0.5951 -0.2919
33479SOL    HW1 2444   8.177   2.932   1.673  1.8611  1.3263  0.2246
33479SOL    HW2 2445   8.128   3.068   1.717 -2.6342  0.1567 -0.6497
33480SOL     OW 2446   3.389   7.295   4.139  0.5920  0.0409 -0.2041
33480SOL    HW1 2447   3.441   7.340   4.072  2.1147 -0.9282  0.2751
33480SOL    HW2 2448   3.419   7.333   4.222  0.0092 -0.0280  0.0427
33481SOL     OW 2449   7.872   6.758   7.266 -0.0847  0.0111  0.5869
33481SOL    HW1 2450   7.946   6.809   7.235  0.4814 -0.1904  1.5614
33481SOL    HW2 2451   7.802   6.776   7.203  1.1313 -0.7667 -1.0542
33482SOL     OW 2452   0.500   1.252   7.338 -0.0970 -0.1526 -0.0349
33482SOL    HW1 2453   0.446   1.239   7.416  0.5074  1.7745  0.7769
33482SOL    HW2 2454   0.549   1.171   7.329 -2.1228 -1.4578 -0.0371
33483SOL     OW 2455  10.135   6.188   4.792  0.5926  0.3856 -0.4634
33483SOL    HW1 2456  10.183   6.254   4.842 -0.3090  2.5392 -2.2308
33483SOL    HW2 2457  10.131   6.224   4.703  0.1345 -2.1470 -1.5678
33484SOL     OW 2458   7.516   6.400   9.978 -0.0649  0.2420  0.1988
33484SOL    HW1 2459   7.471   6.427   9.897 -1.9203  1.3963  1.5287
33484SOL    HW2 2460   7.555   6.481  10.011 -1.5513  0.3993  1.7404
33485SOL     OW 2461   5.295   9.637   5.064  0.0876 -0.0979  0.0495
33485SOL    HW1 2462   5.329   9.680   5.142  0.1315  0.4968 -0.2910
33485SOL    HW2 2463   5.221   9.585   5.095 -0.0488  0.3305  0.4451
33486SOL     OW 2464   3.592   3.986   7.807  0.0607  0.1752  0.8126
33486SOL    HW1 2465   3.624   4.039   7.734 -1.3535  0.5153  0.4034
33486SOL    HW2 2466   3.636   4.022   7.883  0.9654  0.3402  0.2291
33487SOL     OW 2467   8.006   5.187  10.054 -0.1487  0.5250  0.5353
33487SOL    HW1 2468   8.088   5.138  10.043 -0.0698  1.0007 -1.1127
33487SOL    HW2 2469   7.994   5.235   9.972 -1.5289  1.3182  1.1577
33488SOL     OW 2470   7.562   8.713   7.395 -0.2420  0.0477  0.1984
33488SOL    HW1 2471   7.506   8.778   7.353 -2.4951 -1.4967  0.6309
33488SOL    HW2 2472   7.624   8.764   7.447 -1.4642  1.8534 -0.0559
33489SOL     OW 2473   5.610   8.625  10.664  0.1249 -0.0953  0.1068
33489SOL    HW1 2474   5.624   8.704  10.716 -1.0890 -0.6881  1.4019
33489SOL    HW2 2475   5.569   8.657  10.584 -0.4354  0.5971  0.6481
33490SOL     OW 2476  10.553   5.554   9.636  0.1015 -0.4451  0.1164
33490SOL    HW1 2477  10.504   5.635   9.619  2.2029  1.3892  2.1737
33490SOL    HW2 2478  10.510   5.516   9.712  1.6972  1.2076  1.9732
33491SOL     OW 2479   7.163   0.114   7.723 -0.1372 -0.6319 -0.1495
33491SOL    HW1 2480   7.198   0.189   7.771 -0.2519 -1.1890  0.8448
33491SOL    HW2 2481   7.189   0.038   7.776 -1.3582 -1.1839 -0.3112
33492SOL     OW 2482   5.853   3.446   3.023  0.0958  0.4597  0.0928
33492SOL    HW1 2483   5.865   3.539   3.004  0.3846  0.6404  1.0815
33492SOL    HW2 2484   5.942   3.411   3.032 -0.0082  0.5361  1.6929
33493SOL     OW 2485   1.187   0.869   7.677 -0.1301  0.1597  0.2790
33493SOL    HW1 2486   1.105   0.918   7.681  0.3704  1.0897 -0.4665
33493SOL    HW2 2487   1.232   0.904   7.600 -0.7611 -3.1131 -1.8127
33494SOL     OW 2488   5.746   8.686   9.184 -0.5833 -0.2632 -0.0465
33494SOL    HW1 2489   5.660   8.644   9.192 -0.3466 -0.8152 -0.3160
33494SOL    HW2 2490   5.802   8.617   9.150 -0.1087  0.1955 -0.1953
33495SOL     OW 2491   1.586   1.627   5.327  0.9048  0.0150 -0.5034
33495SOL    HW1 2492   1.669   1.605   5.284  2.6880 -0.9887  3.0304
33495SOL    HW2 2493   1.601   1.714   5.364  1.3516 -1.0254  1.9742
33496SOL     OW 2494  10.914   9.395   5.112 -0.5438  0.2924  0.1955
33496SOL    HW1 2495  10.832   9.354   5.087 -0.1437 -0.2927 -0.1757
33496SOL    HW2 2496  10.892   9.448   5.188 -1.0646 -0.6624  0.7304
33497SOL     OW 2497   2.275   4.667   0.837 -0.2668 -0.3189 -0.2455
33497SOL    HW1 2498   2.247   4.690   0.925 -1.9193  0.1045 -0.8582
33497SOL    HW2 2499   2.225   4.588   0.815  0.0911 -0.3960 -0.8233
33498SOL     OW 2500   6.400   7.901   1.902  0.2004 -0.0471 -0.0376
33498SOL    HW1 2501   6.396   7.973   1.840  1.3203 -0.5247 -0.6947
33498SOL    HW2 2502   6.311   7.895   1.938 -0.1872  0.9240 -0.7987
33499SOL     OW 2503   0.296   4.456  10.470 -0.0917  0.3079 -0.1545
33499SOL    HW1 2504   0.331   4.460  10.381 -2.2138 -2.2417 -1.2457
33499SOL    HW2 2505   0.343   4.383  10.511  2.3051  2.6664  1.6680
33500SOL     OW 2506   8.941   6.163   9.868 -0.0100 -0.0362  0.1762
33500SOL    HW1 2507   9.000   6.160   9.792  0.7376  0.7333  0.7144
33500SOL    HW2 2508   8.987   6.113   9.936  0.4675  1.3060  0.8839
33501SOL     OW 2509   3.216   9.441   5.528 -0.5722  0.3605 -0.1041
33501SOL    HW1 2510   3.305   9.405   5.529  0.0871  1.8417 -1.6509
33501SOL    HW2 2511   3.224   9.527   5.567 -1.0098  1.1165 -1.6122
33502SOL     OW 2512   9.033   8.044   3.190  0.4986 -0.1616  0.0361
33502SOL    HW1 2513   9.039   7.950   3.211 -0.7193 -0.0997  0.7377
33502SOL    HW2 2514   9.040   8.047   3.095  1.0195 -0.9209  0.0347
33503SOL     OW 2515   8.372   5.721   8.565 -0.5436 -0.0272 -0.0714
33503SOL    HW1 2516   8.400   5.750   8.478  0.8602 -0.2692  0.2797
33503SOL    HW2 2517   8.368   5.625   8.559 -0.6111 -0.0353  0.0836
33504SOL     OW 2518   7.496   4.251   5.946 -0.0586 -0.2660  0.3782
33504SOL    HW1 2519   7.463   4.238   5.858  0.9922  1.3776 -0.3035
33504SOL    HW2 2520   7.491   4.345   5.960  1.1548 -0.3461  1.5184
33505SOL     OW 2521   1.734  10.603   7.057  0.3703 -0.3814  0.2398
33505SOL    HW1 2522   1.693  10.522   7.026 -0.0643  0.2803 -0.9954
33505SOL    HW2 2523   1.763  10.648   6.977  1.6611  0.1455  0.9681
33506SOL     OW 2524   7.100   7.394   4.345  0.3070  0.2211  0.5372
33506SOL    HW1 2525   7.063   7.482   4.342  1.0502  0.5099 -0.7319
33506SOL    HW2 2526   7.063   7.349   4.270  1.2476  0.0042  0.1898
33507SOL     OW 2527   5.810   6.639   6.329 -0.0715  0.4129 -0.6378
33507SOL    HW1 2528   5.766   6.617   6.247  0.0084 -1.9798 -0.1172
33507SOL    HW2 2529   5.892   6.680   6.302 -0.1779 -0.0822 -1.7671
33508SOL     OW 2530   2.767  10.009   5.141  0.0595  0.2825 -0.0555
33508SOL    HW1 2531   2.786   9.966   5.057  0.8023  1.5184 -0.5517
33508SOL    HW2 2532   2.676  10.036   5.133 -0.4151 -1.1189  0.2518
33509SOL     OW 2533   8.002   1.998   3.796 -0.3746 -0.3126  0.8204
33509SOL    HW1 2534   7.929   1.953   3.837 -2.1118  1.0466 -0.6503
33509SOL    HW2 2535   8.069   2.002   3.865 -0.6839 -3.6714  1.4873
33510SOL     OW 2536   0.106   9.374   7.514  0.2846 -0.4736  0.1633
33510SOL    HW1 2537   0.058   9.448   7.553  0.7332  0.4426 -0.9800
33510SOL    HW2 2538   0.075   9.298   7.563 -2.3323  0.0692 -0.4522
33511SOL     OW 2539   5.831   6.671  10.465 -0.1880  0.6005  0.2462
33511SOL    HW1 2540   5.924   6.684  10.448  0.0849  0.0721  1.2811
33511SOL    HW2 2541   5.828   6.605  10.534 -1.3580  0.0864 -0.2825
33512SOL     OW 2542  10.085   2.778   5.196 -0.1289  0.2579  0.4252
33512SOL    HW1 2543  10.067   2.854   5.141 -1.6875 -0.4488 -0.1064
33512SOL    HW2 2544  10.051   2.704   5.145  2.2797 -0.9586  0.4474
33513SOL     OW 2545   5.699   0.861   0.406  0.3925  0.2605 -0.0374
33513SOL    HW1 2546   5.631   0.915   0.366  0.8861  0.7721 -0.1929
33513SOL    HW2 2547   5.672   0.853   0.498  0.5505  1.1613  0.0957
33514SOL     OW 2548   2.744   4.673   7.667 -0.5791 -0.7152  0.0288
33514SOL    HW1 2549   2.716   4.723   7.590  2.5017 -0.5286 -1.0996
33514SOL    HW2 2550   2.703   4.718   7.741 -1.8419  0.4497 -1.3119
33515SOL     OW 2551   9.136   6.621  10.325  0.1233 -0.4992  0.6394
33515SOL    HW1 2552   9.081   6.568  10.383 -1.1528  0.2794  0.1798
33515SOL    HW2 2553   9.225   6.601  10.353 -0.4159 -0.8452  2.2519
33516SOL     OW 2554   9.288   8.238   6.176 -0.1407 -0.0513  0.2093
33516SOL    HW1 2555   9.364   8.291   6.151  0.4672 -1.4863 -1.1758
33516SOL    HW2 2556   9.212   8.287   6.144  0.4158 -0.0713 -1.2059
33517SOL     OW 2557   8.523   4.939   4.381 -0.0778  0.2183 -0.1182
33517SOL    HW1 2558   8.445   4.885   4.383 -1.1786  1.6239 -1.9300
33517SOL    HW2 2559   8.508   5.001   4.310  3.1529 -0.1187 -1.2725
33518SOL     OW 2560   0.730   5.678   2.762  0.3184 -0.1000  0.2092
33518SOL    HW1 2561   0.797   5.649   2.824 -0.3727  0.2952  1.1622
33518SOL    HW2 2562   0.737   5.617   2.688  1.2162 -0.5157  0.6299
33519SOL     OW 2563   9.166   8.414   7.842  0.0738  0.3696 -0.1516
33519SOL    HW1 2564   9.211   8.431   7.925  0.6527  0.2373 -0.4347
33519SOL    HW2 2565   9.117   8.333   7.858  0.7061 -0.0190 -0.1353
33520SOL     OW 2566   6.309   5.237   6.006  0.7449 -0.3573 -0.4799
33520SOL    HW1 2567   6.367   5.166   6.034  1.1188 -0.3760 -1.2626
33520SOL    HW2 2568   6.312   5.300   6.078  2.2637 -0.0603 -0.7715
33521SOL     OW 2569   7.254   3.957   7.905  0.2475  0.1938  0.2115
33521SOL    HW1 2570   7.205   3.891   7.955 -0.9835  2.4498  2.2239
33521SOL    HW2 2571   7.291   3.909   7.831 -0.7487 -2.6689  1.4317
33522SOL     OW 2572   6.674   6.066   7.530 -0.0968 -0.1503  0.1812
33522SOL    HW1 2573   6.612   6.019   7.476 -0.2884  0.2855  0.0134
33522SOL    HW2 2574   6.700   6.142   7.477  1.2207 -0.7675 -0.0946
33523SOL     OW 2575   7.165   7.014   9.580 -0.5562  0.1903  0.2965
33523SOL    HW1 2576   7.083   7.044   9.540 -0.6457 -1.4603 -0.8682
33523SOL    HW2 2577   7.233   7.055   9.528 -0.6469  0.7190  0.5912
33524SOL     OW 2578   2.928  10.541   3.033 -0.3476 -0.0072  0.1512
33524SOL    HW1 2579   2.951  10.619   2.983  0.2290 -0.9999 -1.2122
33524SOL    HW2 2580   2.865  10.572   3.099 -0.6479  1.4709 -0.7779
33525SOL     OW 2581   1.023   7.377  10.852 -0.1984  0.6174  0.2727
33525SOL    HW1 2582   0.935   7.385  10.888 -0.4661  0.2120 -0.2630
33525SOL    HW2 2583   1.074   7.445  10.895 -0.6340  0.4801  1.0127
33526SOL     OW 2584   4.620   0.950   8.823 -0.0457  0.6274  0.3261
33526SOL    HW1 2585   4.583   0.995   8.899 -0.4485  1.4684 -0.3537
33526SOL    HW2 2586   4.545   0.905   8.784 -0.1055  1.2598 -0.3055
33527SOL     OW 2587   4.256   6.773   7.681 -0.1262  0.6005  0.4951
33527SOL    HW1 2588   4.197   6.754   7.608  1.1644 -0.5176 -0.3145
33527SOL    HW2 2589   4.344   6.758   7.645  0.5262 -0.5228  2.4279
33528SOL     OW 2590   5.006   6.104   4.597  0.5247  0.3717 -0.0873
33528SOL    HW1 2591   4.990   6.011   4.577 -1.0303  0.7911 -0.9788
33528SOL    HW2 2592   5.083   6.103   4.653 -0.0686 -1.5604  0.8172
33529SOL     OW 2593   6.362   5.456   6.515 -0.5666 -0.1298 -0.3770
33529SOL    HW1 2594   6.356   5.547   6.543  0.9643 -0.1084 -0.0088
33529SOL    HW2 2595   6.337   5.405   6.592 -1.3130 -0.0368 -0.5489
33530SOL     OW 2596   8.461  10.667   5.526  0.2393  0.0097 -0.2206
33530SOL    HW1 2597   8.367  10.683   5.531 -0.0552 -1.2744 -1.2765
33530SOL    HW2 2598   8.496  10.740   5.475  0.0246  1.1065  1.1254
33531SOL     OW 2599   5.854   6.422  10.161  0.7018  0.0782 -0.3553
33531SOL    HW1 2600   5.781   6.471  10.123  0.0833  0.2984  1.0506
33531SOL    HW2 2601   5.913   6.489  10.195  0.1485 -0.1112  1.0345
33532SOL     OW 2602  10.434   5.331   6.932 -0.3779  0.3213 -0.5831
33532SOL    HW1 2603  10.434   5.373   6.846 -1.8604  0.6991 -0.4337
33532SOL    HW2 2604  10.516   5.360   6.972 -0.2535  1.1661 -1.3899
33533SOL     OW 2605   7.338   2.145   0.169  0.4783  0.2633  0.6200
33533SOL    HW1 2606   7.401   2.100   0.226  1.5160  2.3658  1.2434
33533SOL    HW2 2607   7.388   2.217   0.132 -1.5815  2.0768  1.1929
33534SOL     OW 2608   9.752   4.316   0.219  0.4130  0.0451 -0.0044
33534SOL    HW1 2609   9.722   4.256   0.287  0.0026  0.3199  0.0641
33534SOL    HW2 2610   9.710   4.399   0.240  1.4683  0.5279  0.2512
33535SOL     OW 2611   6.144   2.720   8.654 -0.1868 -0.2036 -0.0485
33535SOL    HW1 2612   6.070   2.695   8.709  1.0313  0.2206  1.8510
33535SOL    HW2 2613   6.103   2.764   8.579 -1.8674 -0.1405  0.8476
33536SOL     OW 2614   0.934   6.021   9.857 -0.9942  0.4104  0.0198
33536SOL    HW1 2615   0.973   6.082   9.921 -0.0616 -0.2124  0.0663
33536SOL    HW2 2616   0.849   6.059   9.837 -0.6689  1.4281  0.4880
33537SOL     OW 2617   8.347   3.995   5.859  0.0888  0.3576 -0.0893
33537SOL    HW1 2618   8.293   4.074   5.863  0.6513  0.6940  1.5783
33537SOL    HW2 2619   8.397   3.996   5.941  0.9881 -1.1052 -0.5875
33538SOL     OW 2620   0.997   5.379   9.769 -0.4827  0.2754 -0.1127
33538SOL    HW1 2621   1.022   5.393   9.677 -1.4491 -0.2705 -0.4736
33538SOL    HW2 2622   1.080   5.376   9.816  0.0099  0.9678 -0.9112
33539SOL     OW 2623   5.543   5.024   1.549 -0.3235 -0.0370  0.3936
33539SOL    HW1 2624   5.523   5.055   1.637 -1.0080 -0.7365  0.4981
33539SOL    HW2 2625   5.468   5.050   1.496 -0.5237 -0.7681  0.3082
33540SOL     OW 2626   9.338   7.854   7.116  0.3213  0.0252 -0.9381
33540SOL    HW1 2627   9.428   7.821   7.114  0.8114  1.3534 -1.6676
33540SOL    HW2 2628   9.328   7.901   7.034 -0.8729  0.3451 -0.6217
33541SOL     OW 2629   2.359   7.640   1.426  0.0674  0.0417 -0.6103
33541SOL    HW1 2630   2.437   7.677   1.467 -0.3233 -0.1511  0.3448
33541SOL    HW2 2631   2.312   7.599   1.499 -0.2517 -1.0166 -1.3918
33542SOL     OW 2632   8.790   0.193   8.983 -0.6153 -1.0440 -0.2266
33542SOL    HW1 2633   8.772   0.173   8.891  3.6636  1.8716 -2.0194
33542SOL    HW2 2634   8.862   0.135   9.007 -0.9496 -0.9889  1.0059
33543SOL     OW 2635   7.399   1.149   2.760  0.0051 -0.6665  0.5179
33543SOL    HW1 2636   7.339   1.172   2.689  1.9870 -0.5925 -1.2394
33543SOL    HW2 2637   7.370   1.063   2.788 -0.2756 -1.1251 -1.0592
33544SOL     OW 2638   9.024   5.480   5.817  0.4448  0.2715  0.2471
33544SOL    HW1 2639   9.004   5.555   5.873 -0.3624  0.0310  0.2907
33544SOL    HW2 2640   9.044   5.519   5.732 -0.3804  0.5258  0.1595
33545SOL     OW 2641   4.189   6.815   3.035 -0.3989 -0.4340  0.2805
33545SOL    HW1 2642   4.108   6.841   2.992  0.0534  1.8316  0.6858
33545SOL    HW2 2643   4.244   6.894   3.034  0.8373 -1.1826  2.2247
33546SOL     OW 2644   2.498   1.894   7.268  0.1933  0.1832 -0.3449
33546SOL    HW1 2645   2.532   1.815   7.311 -0.6060 -0.1442 -0.2918
33546SOL    HW2 2646   2.413   1.867   7.234 -1.2728  1.6716  1.8526
33547SOL     OW 2647   1.672   5.233   5.953  0.5923 -0.4764 -0.0044
33547SOL    HW1 2648   1.594   5.287   5.943  0.3529 -0.6534  0.8275
33547SOL    HW2 2649   1.661   5.164   5.887  0.0180 -0.5234  0.1305
33548SOL     OW 2650   7.412   8.753   9.644  0.2589  0.1671  0.3406
33548SOL    HW1 2651   7.417   8.680   9.582  1.3593 -0.5683  1.2477
33548SOL    HW2 2652   7.430   8.831   9.592 -0.6069 -0.2394 -0.5865
33549SOL     OW 2653   4.795   1.986   1.453 -0.1826 -0.2037 -0.0912
33549SOL    HW1 2654   4.789   2.031   1.537 -1.0110  0.0254 -0.2662
33549SOL    HW2 2655   4.745   2.041   1.392  0.0189 -0.6052 -0.6268
33550SOL     OW 2656   1.467   7.542  10.096 -0.8738 -0.8258  0.1957
33550SOL    HW1 2657   1.555   7.525  10.062 -0.6923 -0.8933  0.6863
33550SOL    HW2 2658   1.464   7.637  10.109 -0.8612 -0.8274  0.2089
33551SOL     OW 2659  10.141   5.167   1.712 -0.1748 -0.3304 -0.2980
33551SOL    HW1 2660  10.114   5.236   1.773  0.5543  0.1881 -0.5554
33551SOL    HW2 2661  10.074   5.170   1.642 -0.8836 -0.7774  0.3462
33552SOL     OW 2662  10.987   8.632   9.158 -0.5882  0.0645  0.0080
33552SOL    HW1 2663  10.910   8.575   9.157  0.6451 -1.6939  0.8486
33552SOL    HW2 2664  11.003   8.651   9.065  0.0338 -2.5222 -0.4854
33553SOL     OW 2665   0.354  11.024   7.174  0.2778  0.4993  0.1640
33553SOL    HW1 2666   0.444  11.005   7.148  0.5418  0.6405  0.9535
33553SOL    HW2 2667   0.300  10.979   7.109  0.9151 -0.7227  0.4576
33554SOL     OW 2668  11.087   5.838   8.429 -0.8364 -0.0169 -0.3980
33554SOL    HW1 2669  11.099   5.743   8.433 -1.3747 -0.0551  0.6281
33554SOL    HW2 2670  11.155   5.869   8.370  0.5349 -0.8413  0.7024
33555SOL     OW 2671   9.992   2.792   9.688  0.9028  0.6563 -0.0395
33555SOL    HW1 2672   9.980   2.720   9.750  1.5518 -1.0633 -1.8217
33555SOL    HW2 2673  10.087   2.807   9.687  0.9747  0.2325 -1.0370
33556SOL     OW 2674   6.071   1.739   0.773 -0.7759 -0.3856 -0.0214
33556SOL    HW1 2675   5.978   1.715   0.772 -1.2056  1.1913 -0.9242
33556SOL    HW2 2676   6.102   1.710   0.859 -2.3040 -0.2153  0.6299
33557SOL     OW 2677   9.545   8.104   4.292 -0.4377  0.4372 -0.0861
33557SOL    HW1 2678   9.624   8.063   4.328 -1.1539  0.1773  1.2665
33557SOL    HW2 2679   9.575   8.188   4.257  0.2635  0.9068  1.5352
33558SOL     OW 2680   8.485   7.751   0.348 -0.7142  0.3707 -0.5916
33558SOL    HW1 2681   8.427   7.690   0.394 -0.0537  0.8602  0.9605
33558SOL    HW2 2682   8.499   7.823   0.410  2.4522 -0.2582 -0.3731
33559SOL     OW 2683  10.233   6.875   6.959 -0.3792 -0.7649  0.2085
33559SOL    HW1 2684  10.241   6.895   6.865 -1.0312 -0.5025  0.2068
33559SOL    HW2 2685  10.286   6.941   7.002 -0.2404 -0.7617  0.0347
33560SOL     OW 2686   4.824   6.135   8.641 -0.6663  0.0338 -0.1590
33560SOL    HW1 2687   4.861   6.222   8.658 -0.5523 -0.2555  1.2726
33560SOL    HW2 2688   4.819   6.128   8.546 -1.2071  1.8233 -0.2802
33561SOL     OW 2689   5.230   1.712   5.840  0.2888  0.3158  0.4279
33561SOL    HW1 2690   5.297   1.663   5.888  1.0721  2.2699  1.4323
33561SOL    HW2 2691   5.148   1.691   5.886  0.7531  0.6690  1.4577
33562SOL     OW 2692   7.436   5.186  10.317  0.6430  0.0219  0.6518
33562SOL    HW1 2693   7.455   5.114  10.257 -0.3501  0.1894  0.1165
33562SOL    HW2 2694   7.458   5.152  10.403  1.6824 -0.3738  0.2424
33563SOL     OW 2695   6.878   4.368  10.808  0.0458  0.5432  0.1863
33563SOL    HW1 2696   6.932   4.289  10.803 -0.6259  0.1195 -0.8243
33563SOL    HW2 2697   6.861   4.380  10.901  2.8417  1.3796  0.6921
33564SOL     OW 2698   1.759   4.781   5.179 -0.5890  0.6365  0.1857
33564SOL    HW1 2699   1.852   4.767   5.162 -0.4491  2.0972 -0.4666
33564SOL    HW2 2700   1.752   4.788   5.274 -0.2522 -0.7816  0.3256
33565SOL     OW 2701   4.380   5.558  10.387 -0.0017 -0.4555 -0.0489
33565SOL    HW1 2702   4.324   5.523  10.456  0.6008  0.3796  0.8767
33565SOL    HW2 2703   4.327   5.623  10.343  0.6335  1.3828  1.7418
33566SOL     OW 2704   3.498  11.057   3.400 -0.1641  0.1017  0.1138
33566SOL    HW1 2705   3.474  10.969   3.428 -0.7401  0.4976  0.9052
33566SOL    HW2 2706   3.430  11.113   3.438 -0.7628  0.7155 -1.7734
33567SOL     OW 2707   5.007   7.425   0.454  0.4109  0.2099 -0.1075
33567SOL    HW1 2708   5.089   7.474   0.465  1.8191 -1.5026 -2.2655
33567SOL    HW2 2709   4.999   7.374   0.535  0.6012  1.5761  0.8007
33568SOL     OW 2710   3.825   4.044  11.095  0.6485  0.2636  0.2422
33568SOL    HW1 2711   3.827   4.069  11.002 -0.1339  1.6498  0.5713
33568SOL    HW2 2712   3.908   4.076  11.130 -0.3603  2.6559  0.6694
33569SOL     OW 2713   9.459   4.686  10.002  0.0761 -0.1041 -0.4673
33569SOL    HW1 2714   9.526   4.684  10.071  0.5375  1.0138 -0.8473
33569SOL    HW2 2715   9.385   4.732  10.042  1.2507  2.8183 -1.4026
33570SOL     OW 2716  10.146   5.056  10.644 -0.1835 -0.8510  0.2207
33570SOL    HW1 2717  10.091   4.986  10.607  0.3915 -0.7252 -0.9437
33570SOL    HW2 2718  10.099   5.137  10.622  0.2263 -0.7683 -0.3659
33571SOL     OW 2719   9.712   9.098   5.060  0.0903 -0.1617  0.3335
33571SOL    HW1 2720   9.629   9.052   5.068 -0.2606  0.5100  0.6121
33571SOL    HW2 2721   9.689   9.184   5.024  0.6154  0.1603  0.7528
33572SOL     OW 2722   0.598   2.643   0.755  0.3097 -0.1190 -0.0632
33572SOL    HW1 2723   0.596   2.548   0.753  1.5224 -0.1472 -0.6377
33572SOL    HW2 2724   0.652   2.668   0.680  0.9509  0.9803  0.7241
33573SOL     OW 2725   5.240   5.463   8.205 -0.5716 -0.5885 -0.3454
33573SOL    HW1 2726   5.299   5.439   8.134 -0.4503  1.1116 -0.8555
33573SOL    HW2 2727   5.159   5.489   8.162 -0.5047  0.4399  0.1331
33574SOL     OW 2728   0.898   8.882   3.863  0.0740  0.2082 -0.6003
33574SOL    HW1 2729   0.979   8.933   3.860 -1.1235  2.3936  1.0622
33574SOL    HW2 2730   0.847   8.912   3.788  0.0225  0.3033 -0.5284
33575SOL     OW 2731   1.689   4.098   8.769 -0.7903 -0.7879 -0.2039
33575SOL    HW1 2732   1.602   4.059   8.763 -1.0293 -0.1653 -0.8971
33575SOL    HW2 2733   1.674   4.187   8.802 -0.4049 -0.7186 -0.2055
33576SOL     OW 2734   7.777   8.460   2.777  0.0200  0.3159 -0.0341
33576SOL    HW1 2735   7.802   8.369   2.791  0.9932  0.7058  0.8777
33576SOL    HW2 2736   7.681   8.458   2.776  0.0121 -0.8740 -1.2678
33577SOL     OW 2737   6.070   8.667   8.671  0.2549  0.0710 -0.0042
33577SOL    HW1 2738   6.142   8.714   8.711 -1.3348  1.5522  1.2957
33577SOL    HW2 2739   6.093   8.575   8.679  1.2362  0.4510  1.9230
33578SOL     OW 2740   7.268   3.034   5.188  0.3055 -0.1410  0.0991
33578SOL    HW1 2741   7.344   3.091   5.179  1.5441 -1.6138  0.6617
33578SOL    HW2 2742   7.253   2.999   5.100  0.2468  0.1988 -0.0246
33579SOL     OW 2743   6.795   0.419   7.920  0.1787 -0.7951  0.3200
33579SOL    HW1 2744   6.749   0.347   7.963  1.4433  0.5913  4.4930
33579SOL    HW2 2745   6.725   0.475   7.887 -0.9488 -1.8035  0.8832
33580SOL     OW 2746   7.337   9.601  10.176  0.4749  0.0872  0.0019
33580SOL    HW1 2747   7.269   9.556  10.126  0.2233  1.3110 -0.7822
33580SOL    HW2 2748   7.377   9.662  10.114  0.0708  1.7361  1.2955
33581SOL     OW 2749   8.385   5.644  10.020  0.1967  0.4092  0.0009
33581SOL    HW1 2750   8.406   5.731   9.985 -2.5341  1.0578 -0.2369
33581SOL    HW2 2751   8.368   5.591   9.942  0.6084  0.0088  0.1834
33582SOL     OW 2752   7.725   7.615   1.316  0.2095 -0.2356 -0.0964
33582SOL    HW1 2753   7.735   7.569   1.233  0.1357 -0.3500 -0.0424
33582SOL    HW2 2754   7.708   7.546   1.380 -0.2102 -0.1062 -0.0666
33583SOL     OW 2755  10.965   3.335   4.619  0.1137  0.8113  0.5505
33583SOL    HW1 2756  10.996   3.421   4.590  0.7137  1.0722  1.8749
33583SOL    HW2 2757  11.002   3.325   4.707  1.8622 -1.7214 -0.3534
33584SOL     OW 2758   1.026   2.231   9.024 -0.3206 -0.2119 -0.4909
33584SOL    HW1 2759   1.061   2.144   9.039 -0.1353 -0.4325 -2.0617
33584SOL    HW2 2760   0.991   2.258   9.109 -0.4243 -1.8242  0.0082
33585SOL     OW 2761   6.471   6.645   9.141 -0.2452 -0.1476  0.3609
33585SOL    HW1 2762   6.403   6.602   9.089 -1.5042  2.5129 -0.3629
33585SOL    HW2 2763   6.536   6.675   9.077 -0.9948  1.7293  0.4098
33586SOL     OW 2764   3.102   0.269   8.860  0.1239 -0.3642  0.2311
33586SOL    HW1 2765   3.185   0.308   8.833  0.3912 -2.4057 -2.2979
33586SOL    HW2 2766   3.036   0.310   8.804 -0.3883  0.2519  1.2634
33587SOL     OW 2767   6.353  10.562  10.083  0.2962 -0.7400 -0.1772
33587SOL    HW1 2768   6.274  10.558  10.137  0.3194  0.8921  0.0298
33587SOL    HW2 2769   6.407  10.489  10.113 -0.2396 -0.6114  1.1362
33588SOL     OW 2770   5.370   9.758   6.679  0.4152  0.2352  0.5010
33588SOL    HW1 2771   5.382   9.778   6.772  2.1375 -0.9766  0.5933
33588SOL    HW2 2772   5.282   9.722   6.672  0.4113 -0.0153  1.7330
33589SOL     OW 2773   2.171   8.253   6.738  0.0097 -0.4312  0.5381
33589SOL    HW1 2774   2.236   8.301   6.687 -0.6553  0.3686  0.4162
33589SOL    HW2 2775   2.096   8.245   6.678  0.6093 -2.9064  0.0299
33590SOL     OW 2776   3.185   6.176   4.372  0.1618 -0.8564  0.1188
33590SOL    HW1 2777   3.279   6.190   4.362  0.6017 -3.1322  0.6222
33590SOL    HW2 2778   3.163   6.109   4.308 -0.9835 -0.8428  0.4769
33591SOL     OW 2779   8.301   1.056   3.318 -0.6729 -0.2398  0.3141
33591SOL    HW1 2780   8.232   1.122   3.325 -0.1301  0.2829  0.8567
33591SOL    HW2 2781   8.327   1.038   3.408  0.1914 -0.1089  0.1042
33592SOL     OW 2782   2.521   6.288   2.775 -0.3678 -0.1554 -0.0090
33592SOL    HW1 2783   2.573   6.236   2.714 -0.7983 -1.0543  0.3763
33592SOL    HW2 2784   2.430   6.266   2.753 -0.5346 -0.1834  0.6905
33593SOL     OW 2785   2.283   9.806   4.043 -0.2163 -0.9619  0.0391
33593SOL    HW1 2786   2.312   9.814   3.952  0.4655  3.8487  0.4620
33593SOL    HW2 2787   2.188   9.815   4.039 -0.2062 -0.9552 -0.1962
33594SOL     OW 2788   8.730   6.107   4.709  0.1768 -0.6003  0.0077
33594SOL    HW1 2789   8.640   6.075   4.709  0.2902 -0.9974  1.3850
33594SOL    HW2 2790   8.730   6.178   4.773  0.3683  0.9497 -1.6254
33595SOL     OW 2791   0.187   5.422   7.975  0.2088  0.0571  0.2523
33595SOL    HW1 2792   0.252   5.360   7.943  0.9494  0.9792 -0.0508
33595SOL    HW2 2793   0.217   5.507   7.944 -0.3846  0.6682  1.2970
33596SOL     OW 2794   7.572   9.251   7.498  0.5339 -0.3349 -0.4439
33596SOL    HW1 2795   7.499   9.291   7.452 -0.7815 -0.0411  1.7649
33596SOL    HW2 2796   7.578   9.299   7.581  2.1374 -1.4613  0.1501
33597SOL     OW 2797   6.969   0.841   7.059 -0.3626  0.5444 -0.4091
33597SOL    HW1 2798   6.970   0.751   7.091 -1.0671  0.8585  0.5405
33597SOL    HW2 2799   6.876   0.863   7.052 -0.2166  1.8204  1.1963
33598SOL     OW 2800   7.466   9.017   7.444 -0.0478 -0.3041  0.1896
33598SOL    HW1 2801   7.409   9.013   7.521  2.2569 -1.8489  1.9422
33598SOL    HW2 2802   7.531   9.083   7.467  0.3879 -0.4212 -0.6844
33599SOL     OW 2803   9.419   6.871   8.857  0.4300  0.6595  0.0390
33599SOL    HW1 2804   9.344   6.923   8.829  0.3571  1.6147  1.8159
33599SOL    HW2 2805   9.492   6.933   8.855  1.4605 -0.5042 -2.6197
33600SOL     OW 2806   9.513   7.171   0.929 -0.5045 -0.3973  0.0454
33600SOL    HW1 2807   9.506   7.113   1.005 -2.9460 -1.6238 -1.0001
33600SOL    HW2 2808   9.469   7.123   0.859  0.9077  1.0609 -1.9526
33601SOL     OW 2809  10.714   3.882   4.233 -0.3064 -0.1190 -0.4683
33601SOL    HW1 2810  10.686   3.926   4.314  0.5146 -0.7102  0.1489
33601SOL    HW2 2811  10.780   3.819   4.262 -1.2714 -1.6008 -1.3584
33602SOL     OW 2812   1.303   5.220  10.595 -0.1359  0.1218 -0.4308
33602SOL    HW1 2813   1.335   5.303  10.630 -1.8297  0.1904  1.0799
33602SOL    HW2 2814   1.227   5.244  10.542  0.2763 -0.3469 -1.2549
33603SOL     OW 2815   1.639   0.941   0.091  0.3075  0.0823  0.1671
33603SOL    HW1 2816   1.549   0.920   0.065 -0.0796 -2.1119  2.8109
33603SOL    HW2 2817   1.694   0.901   0.024 -0.6863 -2.1042  0.5836
33604SOL     OW 2818   6.629   4.210   7.173  0.1143  0.3032 -0.1918
33604SOL    HW1 2819   6.598   4.219   7.263 -0.1006 -0.6858 -0.1592
33604SOL    HW2 2820   6.550   4.194   7.121 -0.0674  3.0736 -0.9289
33605SOL     OW 2821   8.533   8.555   6.709 -0.4524  0.9029 -0.6769
33605SOL    HW1 2822   8.533   8.635   6.656 -0.4264  1.5897  0.3290
33605SOL    HW2 2823   8.495   8.581   6.793  2.4869  0.6964  0.8501
33606SOL     OW 2824   6.223   5.998   7.855 -0.2984 -0.2236 -0.3788
33606SOL    HW1 2825   6.272   5.945   7.792 -0.0594  1.1965 -1.4384
33606SOL    HW2 2826   6.132   5.989   7.830 -0.4228 -1.4057  0.4541
33607SOL     OW 2827  10.942   2.522   7.110 -0.2888 -0.2677 -0.1047
33607SOL    HW1 2828  10.904   2.568   7.035 -0.6262 -0.2844  0.0526
33607SOL    HW2 2829  10.869   2.473   7.147 -0.0999 -0.3417  0.1744
33608SOL     OW 2830   6.634   5.253   6.538 -0.4869 -0.3067  0.3096
33608SOL    HW1 2831   6.607   5.329   6.486  1.1229 -0.6719 -1.1506
33608SOL    HW2 2832   6.646   5.288   6.626 -0.8583  0.8913 -0.0907
33609SOL     OW 2833   6.722   6.546   6.207 -0.4288  0.4005 -0.2718
33609SOL    HW1 2834   6.777   6.587   6.141 -1.4624 -0.0341 -1.4528
33609SOL    HW2 2835   6.641   6.597   6.207 -2.0285 -1.9128 -2.2818
33610SOL     OW 2836   5.389   7.554   8.163 -0.1679 -0.3378 -0.3187
33610SOL    HW1 2837   5.314   7.513   8.206 -0.7335 -0.5294 -1.4604
33610SOL    HW2 2838   5.361   7.569   8.073  1.5523 -1.4860 -1.1076
33611SOL     OW 2839   9.222   8.895   7.361  0.9012  0.0671 -0.4265
33611SOL    HW1 2840   9.186   8.816   7.321 -1.9925  0.4407  1.1271
33611SOL    HW2 2841   9.203   8.965   7.298  0.6369 -0.0374 -0.4640
33612SOL     OW 2842   2.552   8.447  10.188  0.6886 -0.0277  0.6182
33612SOL    HW1 2843   2.460   8.431  10.210 -0.0866 -0.9594 -2.6246
33612SOL    HW2 2844   2.551   8.532  10.144  1.0592 -0.7020 -0.7578
33613SOL     OW 2845   2.955   8.548   3.866  0.1588  0.3085  0.2357
33613SOL    HW1 2846   2.869   8.507   3.875  0.6866 -0.8827  0.0258
33613SOL    HW2 2847   2.990   8.511   3.785  1.6176 -0.6459  1.2641
33614SOL     OW 2848   9.558   4.889   3.832 -0.1984  0.8414 -0.2076
33614SOL    HW1 2849   9.624   4.834   3.876 -0.8615 -0.3448 -0.6364
33614SOL    HW2 2850   9.536   4.956   3.897 -0.3020 -0.1760  0.8525
33615SOL     OW 2851   9.573   1.204   6.454  0.1005 -0.0698 -0.3372
33615SOL    HW1 2852   9.494   1.254   6.480  0.0021 -0.6418  0.5188
33615SOL    HW2 2853   9.541   1.115   6.442  0.4080 -0.0691 -1.1855
33616SOL     OW 2854  10.151   1.983   6.730  0.1003 -0.0860 -0.3198
33616SOL    HW1 2855  10.218   1.985   6.798 -2.2805  2.7639  2.1934
33616SOL    HW2 2856  10.179   2.050   6.667  0.6045 -0.3850 -0.4253
33617SOL     OW 2857   7.941   4.333   5.687  0.4255  0.4222  0.3219
33617SOL    HW1 2858   7.973   4.378   5.765  0.5826 -1.0961  1.1534
33617SOL    HW2 2859   7.891   4.259   5.720  1.7076 -1.0998 -0.9850
33618SOL     OW 2860   9.521   9.466   1.669  0.0255  0.4302  0.2691
33618SOL    HW1 2861   9.529   9.545   1.616  2.2165 -0.7156 -1.2705
33618SOL    HW2 2862   9.442   9.423   1.635 -0.6444  1.4750  0.4715
33619SOL     OW 2863   7.634   7.262   6.783  0.8390  0.1091  0.4852
33619SOL    HW1 2864   7.597   7.284   6.698  0.8822  0.7124  0.6163
33619SOL    HW2 2865   7.700   7.330   6.799  1.2676 -0.3573  0.7204
33620SOL     OW 2866   6.051   6.312   6.169 -0.0583 -0.2743 -0.4696
33620SOL    HW1 2867   5.967   6.358   6.160  0.6461  1.0267 -0.6416
33620SOL    HW2 2868   6.080   6.296   6.079  1.2468  1.9435 -0.5220
33621SOL     OW 2869   9.814   5.605   6.579  0.2289 -0.4049  0.2186
33621SOL    HW1 2870   9.865   5.667   6.527 -1.1747 -0.9347 -1.8973
33621SOL    HW2 2871   9.765   5.660   6.640  3.1308  0.1240  2.3145
33622SOL     OW 2872   0.395   9.806   7.793  0.6373 -0.5902 -0.0500
33622SOL    HW1 2873   0.410   9.840   7.705  1.1055  0.8293  0.5437
33622SOL    HW2 2874   0.408   9.711   7.785 -0.0132 -0.5747 -1.6280
33623SOL     OW 2875   6.851   4.413   0.707 -0.4435  0.4836 -0.2556
33623SOL    HW1 2876   6.946   4.408   0.689 -0.3439  2.2270 -0.3888
33623SOL    HW2 2877   6.832   4.333   0.755  0.9647 -0.2445 -0.8239
33624SOL     OW 2878   8.142   5.210   6.567 -0.5081 -0.0568 -1.1869
33624SOL    HW1 2879   8.068   5.165   6.608  0.6502  0.2197  1.3710
33624SOL    HW2 2880   8.102   5.263   6.498 -2.6280 -0.3972 -0.2885
33625SOL     OW 2881   6.434   8.298   8.811  0.1698 -0.0343  0.4180
33625SOL    HW1 2882   6.459   8.334   8.726 -2.2402  1.9677  0.4573
33625SOL    HW2 2883   6.517   8.292   8.859  1.2492  1.3653 -1.1325
33626SOL     OW 2884   0.808   7.965   4.306  0.3979 -0.3378  0.0715
33626SOL    HW1 2885   0.747   7.997   4.372 -1.8467  0.3187 -2.1472
33626SOL    HW2 2886   0.778   7.877   4.286  1.6824 -0.9100  0.6117
33627SOL     OW 2887   8.348   7.737   3.380  0.2857 -0.1847  0.2446
33627SOL    HW1 2888   8.333   7.831   3.386 -0.8424 -0.3497  0.2310
33627SOL    HW2 2889   8.267   7.698   3.412 -0.0001 -1.1551 -1.5698
33628SOL     OW 2890   4.658   1.880   7.891 -0.6132 -0.4700 -0.2754
33628SOL    HW1 2891   4.731   1.885   7.829 -2.3062 -1.6078 -2.5234
33628SOL    HW2 2892   4.604   1.957   7.871 -0.7946 -0.4309  0.3331
33629SOL     OW 2893   3.111   7.888   3.091  0.3462 -0.2775  0.1775
33629SOL    HW1 2894   3.097   7.954   3.022 -0.0316 -0.5789 -0.0397
33629SOL    HW2 2895   3.128   7.807   3.043  2.2442 -0.0753  0.4404
33630SOL     OW 2896   9.583   1.747   0.285 -0.2689  0.0016  0.2453
33630SOL    HW1 2897   9.571   1.841   0.277 -1.7215 -0.2337 -0.7852
33630SOL    HW2 2898   9.556   1.712   0.200 -3.1941 -1.6072  1.6969
33631SOL     OW 2899   9.142   7.973   9.634  0.2142 -0.1370 -0.5440
33631SOL    HW1 2900   9.125   8.014   9.549 -1.2375 -0.6850 -0.5338
33631SOL    HW2 2901   9.062   7.986   9.684  1.1088  0.3339  0.8320
33632SOL     OW 2902   8.358   7.074   9.176 -0.0768 -0.4408 -0.0007
33632SOL    HW1 2903   8.418   7.028   9.235  0.2692  1.8539  1.5734
33632SOL    HW2 2904   8.275   7.029   9.184 -0.2381  0.2071  2.8965
33633SOL     OW 2905   6.549   4.519   7.223 -0.1536 -0.7803  0.1214
33633SOL    HW1 2906   6.516   4.602   7.190  0.4095 -0.0625  1.3211
33633SOL    HW2 2907   6.605   4.486   7.153  1.0498  0.7246  0.3226
33634SOL     OW 2908   0.850   5.261   4.444 -0.1876 -0.3195 -0.0213
33634SOL    HW1 2909   0.802   5.326   4.496 -0.3191 -0.2615 -0.2101
33634SOL    HW2 2910   0.935   5.301   4.427  0.5151 -1.0376  1.5893
33635SOL     OW 2911   6.762   9.345   2.260  1.0757  0.0814  0.1510
33635SOL    HW1 2912   6.715   9.298   2.191  1.1746  2.1443 -1.4118
33635SOL    HW2 2913   6.702   9.347   2.334  0.1624 -0.4635 -0.5575
33636SOL     OW 2914   5.389   6.532   5.310  0.3454 -0.2537 -0.0464
33636SOL    HW1 2915   5.445   6.609   5.307  0.9255 -0.7007 -0.7357
33636SOL    HW2 2916   5.436   6.469   5.364 -1.1046  0.6154  2.3966
33637SOL     OW 2917   9.741   7.304   6.228  0.2208 -0.2417  0.2689
33637SOL    HW1 2918   9.741   7.247   6.151 -0.0386 -1.9136  1.4633
33637SOL    HW2 2919   9.650   7.306   6.256  0.0481  1.5881 -0.2977
33638SOL     OW 2920   6.931   8.732   8.147 -0.2427  0.2621 -0.7843
33638SOL    HW1 2921   7.012   8.684   8.137  0.3646  1.0487  0.1817
33638SOL    HW2 2922   6.864   8.675   8.110  0.7874 -0.2324 -1.9555
33639SOL     OW 2923   7.979   6.796   6.474  0.1354 -0.0449  0.4091
33639SOL    HW1 2924   7.977   6.741   6.395 -1.0078 -1.8811  1.6413
33639SOL    HW2 2925   7.973   6.886   6.441  1.4314 -0.6548 -1.6632
33640SOL     OW 2926   0.606  10.497   7.778 -0.2163 -0.2034 -0.1099
33640SOL    HW1 2927   0.595  10.452   7.862  1.5549 -1.5793 -0.5576
33640SOL    HW2 2928   0.670  10.566   7.796 -0.8372  0.3730 -0.0589
33641SOL     OW 2929   0.530   3.501   4.738  0.4902 -0.1989 -0.4004
33641SOL    HW1 2930   0.439   3.478   4.757  0.0567  1.6520 -0.0893
33641SOL    HW2 2931   0.531   3.517   4.644  0.6057 -0.6190 -0.4748
33642SOL     OW 2932   9.993   8.595   0.903 -0.8982 -0.2152  0.2422
33642SOL    HW1 2933  10.037   8.593   0.988 -1.6282  0.7753  0.6616
33642SOL    HW2 2934  10.025   8.517   0.858  1.0128  0.2627  0.6646
33643SOL     OW 2935   1.860   1.780   7.193  0.1369  0.0058  0.2236
33643SOL    HW1 2936   1.865   1.709   7.129  1.2580  0.7428 -0.5426
33643SOL    HW2 2937   1.946   1.781   7.235 -0.0990  0.4666  0.7140
33644SOL     OW 2938   4.220   4.994   8.610  0.0143  0.5660 -0.6230
33644SOL    HW1 2939   4.282   5.047   8.561  0.4699 -0.1950 -0.8832
33644SOL    HW2 2940   4.136   5.007   8.565 -0.2072  2.2143  0.1976
33645SOL     OW 2941   7.479   5.282   5.496 -0.1537  0.1062 -0.4462
33645SOL    HW1 2942   7.505   5.195   5.467  0.5532 -0.0617  0.6153
33645SOL    HW2 2943   7.477   5.335   5.416  0.1381 -0.7094 -1.0047
33646SOL     OW 2944   5.333   9.543   2.779 -0.0161  0.1265 -0.3925
33646SOL    HW1 2945   5.333   9.600   2.702 -1.7160 -1.2899 -1.4956
33646SOL    HW2 2946   5.338   9.604   2.853 -0.5634  1.6438 -1.5558
33647SOL     OW 2947   0.274  11.004   1.143  1.0338  0.7760 -0.6898
33647SOL    HW1 2948   0.273  11.062   1.219 -1.3335 -1.0766  0.8524
33647SOL    HW2 2949   0.221  11.050   1.077  1.0140  1.3130 -0.3032
33648SOL     OW 2950   6.072   4.034   9.494 -0.1398 -0.2931 -0.0815
33648SOL    HW1 2951   6.019   4.016   9.416 -1.6339 -0.3963  0.9309
33648SOL    HW2 2952   6.013   4.077   9.555  0.2133 -2.5645  2.0336
33649SOL     OW 2953   8.178   4.983  10.007  0.0278 -0.4772  0.1337
33649SOL    HW1 2954   8.122   4.925  10.059 -0.3509 -0.5216 -0.3147
33649SOL    HW2 2955   8.250   4.928   9.978 -0.4215 -0.7740 -0.4338
33650SOL     OW 2956   0.376   2.881   8.598  0.0791 -0.5541 -0.2622
33650SOL    HW1 2957   0.289   2.848   8.574  0.1079 -0.8581  0.0537
33650SOL    HW2 2958   0.377   2.877   8.694  0.8944 -1.7014 -0.3048
33651SOL     OW 2959   8.190   7.232   4.619  0.0325  0.5455 -0.3090
33651SOL    HW1 2960   8.283   7.227   4.644  0.2580 -1.4974 -1.3505
33651SOL    HW2 2961   8.157   7.143   4.633 -1.2812  0.7619 -1.7791
33652SOL     OW 2962   4.530   5.144   7.453 -0.0707 -0.1060 -0.4899
33652SOL    HW1 2963   4.597   5.212   7.452  0.9344 -1.0713 -1.5345
33652SOL    HW2 2964   4.578   5.062   7.448 -1.3212 -0.8330 -1.3746
33653SOL     OW 2965   8.303   9.133  10.409 -0.3099 -0.2148 -0.1491
33653SOL    HW1 2966   8.389   9.129  10.451 -0.5289 -1.1660  0.2403
33653SOL    HW2 2967   8.268   9.218  10.435 -0.0485 -0.3905  0.8340
33654SOL     OW 2968   3.549  10.660   2.063  0.6452  0.4588 -0.1493
33654SOL    HW1 2969   3.535  10.753   2.047 -0.2946  0.0939 -1.6043
33654SOL    HW2 2970   3.568  10.623   1.977 -3.4088 -1.3949 -0.5057
33655SOL     OW 2971   1.419   2.573   5.712 -0.5851 -0.3337 -0.3539
33655SOL    HW1 2972   1.351   2.507   5.705  0.0369 -0.9493 -0.7300
33655SOL    HW2 2973   1.448   2.588   5.622 -0.4957  0.2179 -0.2402
33656SOL     OW 2974   0.631   8.150   6.552 -0.3704 -0.0518 -0.1071
33656SOL    HW1 2975   0.556   8.149   6.494 -1.8357 -2.3708  1.6550
33656SOL    HW2 2976   0.684   8.075   6.524 -0.6262 -0.6287  0.8841
33657SOL     OW 2977   7.672   1.281   1.107  0.0353  0.2443 -0.1183
33657SOL    HW1 2978   7.674   1.204   1.164 -0.9686  0.1510 -0.1941
33657SOL    HW2 2979   7.764   1.296   1.084  0.2644 -0.8357  0.0284
33658SOL     OW 2980   6.657   7.757   4.035 -0.6409 -0.2297  0.1701
33658SOL    HW1 2981   6.632   7.664   4.034  1.4016 -0.8201 -1.3876
33658SOL    HW2 2982   6.582   7.802   3.997 -1.6137 -1.2378  0.8179
33659SOL     OW 2983   9.423   0.459   7.563  0.0308  0.4193  0.1169
33659SOL    HW1 2984   9.472   0.533   7.529  0.4365  0.4003  0.6436
33659SOL    HW2 2985   9.487   0.387   7.565 -0.6858 -0.3335 -1.6588
33660SOL     OW 2986   4.281   3.701   5.649 -0.5012  0.3245  0.1419
33660SOL    HW1 2987   4.185   3.704   5.648 -0.5136  0.0033 -0.7819
33660SOL    HW2 2988   4.307   3.788   5.617 -0.5124  0.0468 -0.6573
33661SOL     OW 2989   6.658   7.647   6.020 -0.6208 -0.2608 -0.3213
33661SOL    HW1 2990   6.658   7.680   5.930 -1.2626  3.8016  0.9727
33661SOL    HW2 2991   6.751   7.648   6.045 -0.5629 -0.0177 -0.5341
33662SOL     OW 2992   4.922   9.162   8.384  0.1378  0.2620  0.1184
33662SOL    HW1 2993   4.903   9.141   8.293 -0.1916  0.8409  0.0460
33662SOL    HW2 2994   4.922   9.258   8.387  0.6408  0.2542  0.6240
33663SOL     OW 2995   7.165   0.973   3.406  0.0991 -0.4908  0.0580
33663SOL    HW1 2996   7.224   1.011   3.342  1.2562 -1.4052  0.5482
33663SOL    HW2 2997   7.170   0.878   3.391  1.5615 -0.8777  2.4002
33664SOL     OW 2998   7.375   2.987   8.537  0.1732 -0.2405  0.1242
33664SOL    HW1 2999   7.447   2.994   8.599  2.1588  0.1324 -2.1198
33664SOL    HW2 3000   7.406   3.029   8.457 -2.7875  0.5337 -0.7757
33665SOL     OW 3001   0.136   0.478   5.279 -0.0732 -0.3438  0.1833
33665SOL    HW1 3002   0.060   0.457   5.333 -2.6395  2.8424 -1.8399
33665SOL    HW2 3003   0.134   0.414   5.208 -0.2891 -0.8202  0.6121
33666SOL     OW 3004   9.516   7.659   0.298 -0.7569  0.0347 -0.2184
33666SOL    HW1 3005   9.580   7.650   0.369 -1.6763 -1.9889  0.4336
33666SOL    HW2 3006   9.508   7.753   0.285 -0.2802  0.4604  2.1336
33667SOL     OW 3007   4.115   6.079   4.832  0.3247 -0.0643  0.4449
33667SOL    HW1 3008   4.148   5.990   4.818  0.7666  0.0671  0.6435
33667SOL    HW2 3009   4.073   6.075   4.918 -0.7792 -0.4007 -0.0867
33668SOL     OW 3010   8.813   0.394   3.681  0.0959 -0.3924  0.7477
33668SOL    HW1 3011   8.804   0.353   3.595  1.1041 -0.6146  0.7337
33668SOL    HW2 3012   8.829   0.487   3.662 -1.1349 -0.1727  0.7468
33669SOL     OW 3013   1.423   4.884   4.122 -0.0155  0.0908  0.1766
33669SOL    HW1 3014   1.442   4.861   4.213  1.3690 -0.6493 -0.2770
33669SOL    HW2 3015   1.508   4.909   4.085 -0.3940 -0.4979 -1.1613
33670SOL     OW 3016   7.155   9.600   2.371 -0.2829 -0.7411  0.1137
33670SOL    HW1 3017   7.173   9.604   2.277  2.0992  0.0765  0.5354
33670SOL    HW2 3018   7.236   9.629   2.412 -1.9712  1.1077  2.4046
33671SOL     OW 3019   1.406   5.530   8.063 -0.6307 -0.0051 -0.5229
33671SOL    HW1 3020   1.412   5.435   8.074  1.6837  0.2398  1.0537
33671SOL    HW2 3021   1.363   5.560   8.143 -0.5170  0.3495 -0.5937
33672SOL     OW 3022  10.008   0.837   2.072  0.0563 -0.0584  0.3358
33672SOL    HW1 3023  10.002   0.871   2.162 -0.6521 -1.9421  1.0543
33672SOL    HW2 3024   9.973   0.748   2.078 -1.3325  0.2339 -2.0827
33673SOL     OW 3025   6.964   5.961   0.296 -0.7650 -0.2247 -0.1095
33673SOL    HW1 3026   6.958   6.029   0.363 -0.1749 -0.7073  0.4439
33673SOL    HW2 3027   6.917   5.887   0.333 -0.9100 -0.3129 -0.4650
33674SOL     OW 3028   8.019   5.743   5.406 -0.9249 -0.3762  0.2656
33674SOL    HW1 3029   8.063   5.684   5.466 -1.0352  1.4524  2.2779
33674SOL    HW2 3030   7.985   5.687   5.336 -0.2136 -2.5055  1.5616
33675SOL     OW 3031   4.664   2.262   5.953 -0.0330 -0.7831 -0.0215
33675SOL    HW1 3032   4.642   2.228   6.039 -1.2331 -1.9011 -0.7362
33675SOL    HW2 3033   4.604   2.335   5.939  2.9170  2.2605  1.7520
33676SOL     OW 3034   8.976   4.453   9.224 -0.2171 -0.0709  0.2481
33676SOL    HW1 3035   9.010   4.470   9.136 -1.7786 -0.3728 -0.4423
33676SOL    HW2 3036   8.992   4.359   9.238 -1.9556 -0.5368 -0.6508
33677SOL     OW 3037   3.627   4.105  10.094 -0.4866 -0.3066 -0.3382
33677SOL    HW1 3038   3.638   4.010  10.087 -1.7474 -0.4786 -0.2597
33677SOL    HW2 3039   3.565   4.117  10.165  0.0917  0.6205  0.0290
33678SOL     OW 3040   9.686   6.568   7.043 -0.2939 -0.4948 -0.0842
33678SOL    HW1 3041   9.690   6.662   7.029 -0.8246 -0.4716 -0.0996
33678SOL    HW2 3042   9.660   6.559   7.135 -1.6261 -0.6114 -0.4586
33679SOL     OW 3043   9.521   5.783   9.085  0.2582 -0.0578 -0.2680
33679SOL    HW1 3044   9.550   5.864   9.126 -0.6073 -1.1947  2.8440
33679SOL    HW2 3045   9.576   5.775   9.007  2.3898  2.0402  0.8918
33680SOL     OW 3046   7.806   9.311   7.032  0.5429  0.1169 -0.2203
33680SOL    HW1 3047   7.729   9.323   7.088  0.1955  0.6268 -0.7852
33680SOL    HW2 3048   7.871   9.272   7.089 -0.4076 -1.1367  0.0545
33681SOL     OW 3049  10.179  10.791   6.124  0.0113  0.0507 -0.5100
33681SOL    HW1 3050  10.084  10.799   6.120 -0.2184 -1.5719  0.7290
33681SOL    HW2 3051  10.198  10.710   6.077  0.6798 -0.1295  0.0536
33682SOL     OW 3052   7.211   1.533   5.284  0.3246  0.3606  0.0662
33682SOL    HW1 3053   7.161   1.564   5.360 -0.4601 -1.1584  0.2086
33682SOL    HW2 3054   7.186   1.593   5.214 -0.8622  0.3095  0.4185
33683SOL     OW 3055   0.077   1.820   0.358  0.0534  0.5533  0.0936
33683SOL    HW1 3056   0.069   1.852   0.448 -0.3000  1.7416 -0.3396
33683SOL    HW2 3057   0.084   1.725   0.367  0.4728  0.6871  1.3980
33684SOL     OW 3058   9.172   3.339   0.760  0.5388 -0.4589 -0.1322
33684SOL    HW1 3059   9.197   3.324   0.851  0.5066  0.2487 -0.0039
33684SOL    HW2 3060   9.108   3.269   0.741  0.6559 -0.6954  0.3355
33685SOL     OW 3061   8.487   8.054   1.282 -0.5010 -0.3980  0.1089
33685SOL    HW1 3062   8.400   8.092   1.274  0.2654  1.6125  0.8075
33685SOL    HW2 3063   8.507   8.060   1.376 -0.2760 -2.4718  0.2435
33686SOL     OW 3064  11.051   4.617   3.009  0.2769 -0.3185  0.0930
33686SOL    HW1 3065  11.053   4.702   3.053  1.4376  0.6437 -1.7076
33686SOL    HW2 3066  11.143   4.594   2.996 -0.0211 -0.6199 -1.6694
33687SOL     OW 3067   9.960   2.762   8.439  0.6261 -0.4798  0.0441
33687SOL    HW1 3068   9.989   2.727   8.524 -1.8054  0.3766  1.3410
33687SOL    HW2 3069   9.868   2.737   8.434  0.3727  0.6642 -1.7392
33688SOL     OW 3070  10.069   5.651   0.662 -0.3379 -0.2392  0.5013
33688SOL    HW1 3071  10.134   5.581   0.654 -0.4323 -0.3023  0.2905
33688SOL    HW2 3072  10.030   5.659   0.575  0.1114  0.5013  0.3522
33689SOL     OW 3073   9.952   1.026  10.550  0.1102  0.1468 -0.2979
33689SOL    HW1 3074   9.997   0.990  10.627 -0.9107  1.4285  0.9480
33689SOL    HW2 3075   9.930   0.948  10.498 -0.3524 -0.9092  1.3716
33690SOL     OW 3076   1.514   7.758   0.285 -0.0392  0.4566 -0.1950
33690SOL    HW1 3077   1.461   7.823   0.333  2.0142  1.7488  0.4282
33690SOL    HW2 3078   1.548   7.805   0.210 -0.8623 -0.7721 -1.3910
33691SOL     OW 3079   3.452   7.495   5.465 -0.1072 -0.1771 -0.0811
33691SOL    HW1 3080   3.542   7.519   5.485  0.4075 -1.7225 -0.4120
33691SOL    HW2 3081   3.419   7.567   5.410  1.2774 -0.1230 -0.8799
33692SOL     OW 3082   2.476   9.569   9.226  0.6709  1.3452  0.0678
33692SOL    HW1 3083   2.393   9.553   9.180  0.6492 -0.0225  0.5514
33692SOL    HW2 3084   2.466   9.525   9.310  2.4250 -0.1465 -0.4335
33693SOL     OW 3085   8.721   7.223   2.260 -0.0739  0.5612 -0.0203
33693SOL    HW1 3086   8.684   7.290   2.204 -0.6502  1.6755  1.6158
33693SOL    HW2 3087   8.786   7.269   2.313  0.7570 -0.5406 -0.0560
33694SOL     OW 3088   8.036  11.058   0.990 -0.0214 -0.0224 -0.6721
33694SOL    HW1 3089   7.974  11.033   0.922 -0.2882 -0.4870 -0.2672
33694SOL    HW2 3090   8.119  11.020   0.963 -0.2888 -0.8437 -0.3764
33695SOL     OW 3091   4.328   3.405   9.643  0.0205  0.0839  0.3318
33695SOL    HW1 3092   4.328   3.405   9.738  0.1325 -0.9181  0.3399
33695SOL    HW2 3093   4.421   3.407   9.619 -0.0076  0.3444  0.2381
33696SOL     OW 3094  10.226   1.278   1.130 -0.1306  0.6002  0.1148
33696SOL    HW1 3095  10.171   1.252   1.057  0.4121 -0.3220  0.0229
33696SOL    HW2 3096  10.195   1.224   1.203  0.2056  0.5643  0.2302
33697SOL     OW 3097   4.823   3.805  10.000  0.3970 -0.0437  0.2592
33697SOL    HW1 3098   4.779   3.839   9.922 -0.6016 -0.3370  0.6870
33697SOL    HW2 3099   4.890   3.746   9.965  1.9630  2.0599 -0.4765
33698SOL     OW 3100   7.610  11.053   3.258 -0.0788 -0.4296 -0.6702
33698SOL    HW1 3101   7.641  11.021   3.173  0.6690  0.7254 -0.8622
33698SOL    HW2 3102   7.519  11.078   3.242  0.2737  0.4813 -1.3537
33699SOL     OW 3103   0.799   6.528   7.346 -0.7069  0.5976  0.1299
33699SOL    HW1 3104   0.837   6.493   7.265 -1.7610  0.4079 -0.3030
33699SOL    HW2 3105   0.863   6.507   7.414  0.4161  1.1772 -0.7175
33700SOL     OW 3106   1.545   8.773   4.430  0.2661  0.6409  0.1236
33700SOL    HW1 3107   1.636   8.749   4.416  0.5503 -0.5047  3.2092
33700SOL    HW2 3108   1.548   8.842   4.496 -1.1109 -0.6679  1.6523
33701SOL     OW 3109   9.612   5.712   7.683 -0.0392  0.0848  0.1217
33701SOL    HW1 3110   9.624   5.637   7.625 -0.3540 -0.4900  0.7857
33701SOL    HW2 3111   9.691   5.764   7.671 -0.0431 -0.0791 -0.7257
33702SOL     OW 3112   8.853   3.412   8.185  0.1873  0.3894  0.2315
33702SOL    HW1 3113   8.799   3.476   8.137  1.8023  1.5779 -0.0790
33702SOL    HW2 3114   8.857   3.336   8.128 -0.7995  0.4320  0.0817
33703SOL     OW 3115  10.515   1.066  10.428  0.7097  0.1724 -0.1870
33703SOL    HW1 3116  10.466   1.130  10.376  0.9257  0.1154 -0.4637
33703SOL    HW2 3117  10.598   1.109  10.446  0.4309  0.4034  0.5732
33704SOL     OW 3118  10.489   5.516   2.778 -0.2418 -0.0858 -0.1015
33704SOL    HW1 3119  10.464   5.603   2.745  0.3631  0.3489  0.5559
33704SOL    HW2 3120  10.503   5.529   2.871  4.2341  0.1720 -0.6079
33705SOL     OW 3121  10.342   0.458   8.198 -0.7836 -0.0961 -0.4105
33705SOL    HW1 3122  10.386   0.382   8.238 -0.2006  0.4761  0.0607
33705SOL    HW2 3123  10.372   0.458   8.107  0.9342  0.7765  0.1032
33706SOL     OW 3124   6.356  10.155   8.146  0.0252  0.1108 -0.4696
33706SOL    HW1 3125   6.404  10.153   8.229 -1.3371  1.5631  0.3820
33706SOL    HW2 3126   6.264  10.145   8.170 -0.3127 -0.7405 -1.9356
33707SOL     OW 3127   5.884   6.835   6.939  0.1818  0.0487  0.5472
33707SOL    HW1 3128   5.827   6.885   6.998  0.2036 -0.2080  0.7859
33707SOL    HW2 3129   5.825   6.779   6.889  0.1263  0.5400  0.0534
33708SOL     OW 3130   8.091   3.993   0.877 -0.5835  0.2678  0.2712
33708SOL    HW1 3131   8.154   3.964   0.943  2.3687  1.9210 -1.5608
33708SOL    HW2 3132   8.060   4.078   0.908  1.5145  1.4879 -0.7380
33709SOL     OW 3133   1.905   8.829   7.783 -0.0980 -0.1074 -0.1654
33709SOL    HW1 3134   1.912   8.754   7.842  0.0691  0.8644  1.0824
33709SOL    HW2 3135   1.981   8.883   7.804  0.2184  0.0544 -1.6008
33710SOL     OW 3136   7.301   6.301   2.289  0.1194 -0.3158 -0.0921
33710SOL    HW1 3137   7.379   6.250   2.313 -1.7056 -3.1012  0.4412
33710SOL    HW2 3138   7.242   6.289   2.363 -0.9736  1.4098 -0.6469
33711SOL     OW 3139   9.565   4.556   6.347 -0.8717 -0.1201  0.3758
33711SOL    HW1 3140   9.572   4.628   6.285  1.0606  0.6025  1.3396
33711SOL    HW2 3141   9.505   4.494   6.306  0.3407  0.3089 -2.2225
33712SOL     OW 3142   7.583   5.464   9.361  0.1682  0.6473  0.0604
33712SOL    HW1 3143   7.566   5.508   9.277 -0.5155  2.3848  1.0533
33712SOL    HW2 3144   7.678   5.458   9.366  0.2326  0.9911 -0.6149
33713SOL     OW 3145   9.786   8.853  10.673 -0.0457  0.0889  0.4170
33713SOL    HW1 3146   9.827   8.939  10.683  0.1985 -0.0729  0.8224
33713SOL    HW2 3147   9.706   8.858  10.725 -1.2037  0.8172 -1.3458
33714SOL     OW 3148   4.097   8.072   5.037  0.0906  0.5324  0.1701
33714SOL    HW1 3149   4.099   7.994   5.092 -1.5914  0.9194  0.8471
33714SOL    HW2 3150   4.150   8.136   5.085 -0.7968  0.6499  1.0179
33715SOL     OW 3151   7.654   8.057  10.688 -0.0353 -0.3831 -0.1836
33715SOL    HW1 3152   7.684   8.061  10.597 -1.5714 -0.3357 -0.7100
33715SOL    HW2 3153   7.603   7.977  10.694 -1.7925  0.6925  0.0129
33716SOL     OW 3154   6.670   4.864   0.215  0.3687  0.6281  0.6703
33716SOL    HW1 3155   6.691   4.871   0.122  0.9732  2.4296  0.9113
33716SOL    HW2 3156   6.604   4.795   0.219  0.5782  0.2739 -1.0443
33717SOL     OW 3157   7.293   9.532   2.768  0.1172 -0.1777 -0.0442
33717SOL    HW1 3158   7.316   9.622   2.746  1.3006  0.6603  3.8291
33717SOL    HW2 3159   7.199   9.526   2.750 -0.0358  1.9287 -0.1319
33718SOL     OW 3160   5.888   9.441   0.636 -0.1776 -0.1600 -0.5036
33718SOL    HW1 3161   5.820   9.507   0.652 -0.4230 -0.5683  0.1973
33718SOL    HW2 3162   5.872   9.375   0.703  0.2030 -0.8236 -1.0638
33719SOL     OW 3163   7.679   9.025  10.981  0.2646  0.1555  0.4042
33719SOL    HW1 3164   7.591   9.061  10.972  1.0151  2.0762  0.2640
33719SOL    HW2 3165   7.703   8.999  10.893 -0.2927 -0.7747  0.5089
33720SOL     OW 3166   4.732   8.262  10.820 -0.5103 -0.0743 -0.0439
33720SOL    HW1 3167   4.789   8.213  10.760  1.7251  0.2083  1.7259
33720SOL    HW2 3168   4.717   8.346  10.775  1.0288  0.0865 -0.3193
33721SOL     OW 3169   8.743   5.478   6.373  0.6482 -0.3747 -0.4735
33721SOL    HW1 3170   8.710   5.422   6.443  1.6847 -0.4467 -0.0313
33721SOL    HW2 3171   8.666   5.526   6.342  0.1126 -0.6178  0.4598
33722SOL     OW 3172   6.496   8.539   7.746  0.3566 -0.2471 -0.7159
33722SOL    HW1 3173   6.577   8.524   7.796  0.4577 -0.2376 -0.8751
33722SOL    HW2 3174   6.426   8.511   7.805  0.4544  0.0521 -0.4538
33723SOL     OW 3175   9.247   5.710   7.040  0.5792 -0.3430 -0.0196
33723SOL    HW1 3176   9.241   5.637   7.102 -0.4765 -1.4895 -1.4177
33723SOL    HW2 3177   9.271   5.669   6.957  1.8404  1.1518 -0.4375
33724SOL     OW 3178   5.773   6.187   3.225  0.1036 -0.7301  0.0994
33724SOL    HW1 3179   5.691   6.148   3.256 -0.5021  0.7172  0.3746
33724SOL    HW2 3180   5.827   6.197   3.303 -0.1297 -0.1081  0.1807
33725SOL     OW 3181   2.147   0.093   6.653  0.2375 -0.3910 -0.1103
33725SOL    HW1 3182   2.231   0.104   6.697  0.0209 -1.1612  0.5187
33725SOL    HW2 3183   2.138  -0.001   6.641 -0.1430 -0.2554 -0.9671
33726SOL     OW 3184   7.172   6.009   0.126 -0.1618 -0.2267  0.1040
33726SOL    HW1 3185   7.244   5.947   0.133  0.1939  0.2904  1.0669
33726SOL    HW2 3186   7.114   5.989   0.200 -0.7306 -0.2742 -0.3404
33727SOL     OW 3187   3.978  11.080   6.341 -0.3009  0.4270 -0.1047
33727SOL    HW1 3188   4.036  11.019   6.387 -1.9618 -0.6688  0.6300
33727SOL    HW2 3189   4.011  11.080   6.251  0.6694 -0.3729  0.2266
33728SOL     OW 3190   5.423   3.852   8.315  0.2656 -0.3175 -0.3344
33728SOL    HW1 3191   5.393   3.942   8.331  2.8582  0.4427  0.7259
33728SOL    HW2 3192   5.362   3.798   8.365 -0.4412  0.9778  0.2800
33729SOL     OW 3193   6.429   5.810   7.704  0.2093 -0.2690  0.0379
33729SOL    HW1 3194   6.369   5.791   7.632 -1.8574  2.1986  0.9325
33729SOL    HW2 3195   6.500   5.747   7.694 -1.2125 -1.6117 -2.6704
33730SOL     OW 3196   6.287   0.569   4.722 -0.5300  0.0205  0.8709
33730SOL    HW1 3197   6.292   0.497   4.659 -3.3372 -0.5119  1.1235
33730SOL    HW2 3198   6.374   0.608   4.722 -0.2554 -0.2974 -2.9238
33731SOL     OW 3199  10.488   3.250   9.534  0.3495  0.6581 -0.3076
33731SOL    HW1 3200  10.536   3.324   9.570  2.0881 -0.4683 -0.1854
33731SOL    HW2 3201  10.450   3.207   9.611 -0.2239  1.1064 -0.3321
33732SOL     OW 3202   4.211   1.740  10.803  0.7866  0.0581  0.5012
33732SOL    HW1 3203   4.254   1.789  10.733  0.5709 -0.9024 -0.3321
33732SOL    HW2 3204   4.276   1.738  10.874  1.5799 -0.1851 -0.2196
33733SOL     OW 3205   8.276   8.663   2.008  0.2040  0.5733 -0.4194
33733SOL    HW1 3206   8.223   8.742   2.021 -0.6901 -0.4978  3.5202
33733SOL    HW2 3207   8.212   8.592   2.001  0.9926 -0.3757  1.3798
33734SOL     OW 3208  10.778   2.013   5.074 -0.1983 -0.5588 -0.3835
33734SOL    HW1 3209  10.775   1.977   4.985 -1.4541 -0.3425 -0.4508
33734SOL    HW2 3210  10.828   2.094   5.065  0.2693 -0.8823 -0.7562
33735SOL     OW 3211   2.185   1.763   9.569  0.4045  0.4705  0.0358
33735SOL    HW1 3212   2.275   1.796   9.566  0.1420  1.3631  1.1799
33735SOL    HW2 3213   2.135   1.834   9.609 -0.9985  0.3375 -1.3996
33736SOL     OW 3214   1.839   5.860   2.023  0.2840  0.0030  0.1451
33736SOL    HW1 3215   1.773   5.880   2.090 -0.0377 -0.6827  0.0396
33736SOL    HW2 3216   1.923   5.870   2.069  0.2314  2.7800 -0.2073
33737SOL     OW 3217   5.176   4.964   1.283 -0.4840  0.0193  0.2728
33737SOL    HW1 3218   5.088   5.001   1.288 -0.9690 -1.1631  0.9319
33737SOL    HW2 3219   5.190   4.922   1.368  0.3099 -0.6898 -0.1784
33738SOL     OW 3220   0.347  11.065  10.844 -0.0777 -0.4107  0.1263
33738SOL    HW1 3221   0.388  11.090  10.761  2.1889  0.0048  1.2901
33738SOL    HW2 3222   0.289  11.138  10.865  0.1249 -0.0338 -0.5794
33739SOL     OW 3223   0.762   7.598   9.339 -1.1394 -0.5328 -0.2988
33739SOL    HW1 3224   0.779   7.638   9.424 -1.3144 -0.2845 -0.3792
33739SOL    HW2 3225   0.838   7.622   9.286  0.0869 -2.5675  0.4292
33740SOL     OW 3226   8.284   6.668   8.644  0.3779 -0.2350 -0.3081
33740SOL    HW1 3227   8.348   6.640   8.709 -1.6561 -1.1626  1.4150
33740SOL    HW2 3228   8.330   6.661   8.560  2.9455  0.5584  0.9332
33741SOL     OW 3229   9.747   8.974   0.699  0.4874  0.2982  0.3123
33741SOL    HW1 3230   9.770   8.917   0.772  1.0266  1.1480  0.8246
33741SOL    HW2 3231   9.739   9.061   0.738 -2.9341  0.2354  0.0641
33742SOL     OW 3232   1.027   7.064   4.578  0.4891  0.3557 -0.2982
33742SOL    HW1 3233   1.081   7.092   4.652  1.4770  1.2119 -1.3236
33742SOL    HW2 3234   1.083   7.002   4.530 -0.1856 -0.2767 -0.2854
33743SOL     OW 3235   7.610   0.893   9.339  0.4510 -0.0294 -0.0753
33743SOL    HW1 3236   7.597   0.976   9.293 -1.1887 -0.2810 -0.1232
33743SOL    HW2 3237   7.705   0.886   9.349  0.6805  1.3430 -0.9886
33744SOL     OW 3238  10.276   6.085   8.454  0.2023  0.5384 -0.2016
33744SOL    HW1 3239  10.260   6.144   8.380 -0.2324  1.2239  0.4221
33744SOL    HW2 3240  10.359   6.043   8.433  1.4258  2.6527  0.1229
33745SOL     OW 3241   8.122   3.399   0.078  0.3369  0.2683 -0.5416
33745SOL    HW1 3242   8.168   3.359   0.152 -1.0829 -0.5694 -0.0609
33745SOL    HW2 3243   8.091   3.483   0.113 -1.0740 -0.4942  0.1615
33746SOL     OW 3244   5.876   7.065   8.636  0.2556 -0.0502 -0.0149
33746SOL    HW1 3245   5.904   7.018   8.558  0.9197 -3.1872  1.9086
33746SOL    HW2 3246   5.955   7.110   8.667  0.7074 -0.9813  0.2245
33747SOL     OW 3247   7.270   1.716   0.739  0.3710 -0.4195  0.1342
33747SOL    HW1 3248   7.305   1.650   0.679  0.4782 -1.0288  0.8435
33747SOL    HW2 3249   7.233   1.783   0.682 -0.9593 -1.7338 -0.6330
33748SOL     OW 3250   7.994   4.388   6.844 -0.1475 -0.4613  0.4277
33748SOL    HW1 3251   8.018   4.346   6.761 -0.2313 -0.1286  0.2352
33748SOL    HW2 3252   8.011   4.321   6.910 -0.8835 -1.0298  0.0588
33749SOL     OW 3253   8.767   0.815   0.096  0.2240 -0.3443 -0.0248
33749SOL    HW1 3254   8.807   0.758   0.030 -0.3028  0.6917 -1.2680
33749SOL    HW2 3255   8.676   0.824   0.068 -0.3646 -0.9205  1.5783
33750SOL     OW 3256   3.750   5.498  10.721  0.6948  0.5330  0.4508
33750SOL    HW1 3257   3.665   5.506  10.676  0.8936  1.0141  0.1542
33750SOL    HW2 3258   3.756   5.577  10.775  0.5310  0.0330  1.2128
33751SOL     OW 3259   3.384   3.799   1.358 -0.3139  0.1012 -0.3270
33751SOL    HW1 3260   3.348   3.735   1.419 -0.0404 -1.9369 -2.1939
33751SOL    HW2 3261   3.357   3.768   1.271  1.3304  1.5173 -1.4185
33752SOL     OW 3262   1.762   5.916   2.260  0.4272 -0.3572  0.4664
33752SOL    HW1 3263   1.672   5.948   2.262  0.9247  1.0807  1.0894
33752SOL    HW2 3264   1.756   5.826   2.292 -0.5561  0.3288  2.3534
33753SOL     OW 3265   1.183   6.045   9.109 -0.1279 -0.1221 -0.2031
33753SOL    HW1 3266   1.234   6.116   9.149  1.5718 -0.9298 -0.8276
33753SOL    HW2 3267   1.145   5.998   9.184  0.1495  0.4228  0.2894
33754SOL     OW 3268   5.262   0.335   7.359  0.1385 -0.5644  0.0148
33754SOL    HW1 3269   5.182   0.288   7.336 -0.9785  1.3298 -0.2509
33754SOL    HW2 3270   5.327   0.305   7.296 -0.4311 -1.9336  0.0581
33755SOL     OW 3271   5.781  10.021   4.657  0.4993 -0.4409 -0.3714
33755SOL    HW1 3272   5.820   9.975   4.730 -0.2412 -1.5878 -0.6709
33755SOL    HW2 3273   5.770  10.111   4.688  0.7567 -0.7675  0.6924
33756SOL     OW 3274   3.913   1.628   1.713 -0.6462  0.0315 -0.0641
33756SOL    HW1 3275   3.913   1.541   1.673  1.2244 -1.2636  2.4818
33756SOL    HW2 3276   3.986   1.674   1.671 -0.1927 -0.4643  0.1741
33757SOL     OW 3277   9.169   7.419   6.931 -0.6329 -0.0770  0.1308
33757SOL    HW1 3278   9.239   7.435   6.868  0.8825 -0.1170  1.7149
33757SOL    HW2 3279   9.167   7.323   6.941  0.5408  0.0031  1.5631
33758SOL     OW 3280   7.106   6.476   8.528  0.6656  0.3152  0.1984
33758SOL    HW1 3281   7.144   6.401   8.574 -0.9507 -0.1724  0.7959
33758SOL    HW2 3282   7.084   6.443   8.441 -0.3542 -0.0070  0.5739
33759SOL     OW 3283   7.379   8.582   5.022  0.0208  0.3785 -0.6517
33759SOL    HW1 3284   7.335   8.558   5.104  3.4910 -0.4822  1.1732
33759SOL    HW2 3285   7.396   8.499   4.978  0.0448  0.6802 -1.2216
33760SOL     OW 3286   3.355   3.568   7.731  0.4175  0.0792 -0.3680
33760SOL    HW1 3287   3.411   3.646   7.735  1.6211 -0.8218  1.7290
33760SOL    HW2 3288   3.414   3.499   7.701 -0.1347 -0.4602 -0.2232
33761SOL     OW 3289   1.335   3.075   0.795  0.0126 -0.2165 -0.1903
33761SOL    HW1 3290   1.385   3.042   0.870 -1.3907  0.3686  1.0402
33761SOL    HW2 3291   1.400   3.121   0.741  0.7899  0.8017  1.5290
33762SOL     OW 3292   0.098   6.154   3.322 -0.1529  0.0045 -0.2601
33762SOL    HW1 3293   0.094   6.242   3.285 -1.7546 -0.6575 -1.7866
33762SOL    HW2 3294   0.111   6.096   3.247  0.0192 -1.1393  0.6167
33763SOL     OW 3295   8.177   5.512   9.404 -0.1538 -0.6080 -0.5695
33763SOL    HW1 3296   8.145   5.576   9.468 -0.7115 -1.3784 -0.0556
33763SOL    HW2 3297   8.250   5.555   9.361  0.0830  0.0230  0.4329
33764SOL     OW 3298   1.107   0.445   0.879 -0.0499 -0.0030 -0.6198
33764SOL    HW1 3299   1.151   0.395   0.810  1.7040  0.0829  0.3581
33764SOL    HW2 3300   1.178   0.468   0.940 -1.8359 -2.2550  2.5682
33765SOL     OW 3301   9.661   5.211   4.625 -0.4399  0.3783  0.0321
33765SOL    HW1 3302   9.674   5.276   4.693  0.1582 -0.0411  0.3278
33765SOL    HW2 3303   9.733   5.225   4.563 -1.1518  0.9591 -0.6878
33766SOL     OW 3304   2.942   6.476   8.160 -0.5214  0.3283 -0.1619
33766SOL    HW1 3305   2.908   6.437   8.241 -1.3360 -0.4893 -0.8708
33766SOL    HW2 3306   2.880   6.449   8.093  1.2795 -0.8760 -1.4525
33767SOL     OW 3307   6.276   2.797   5.732 -0.0021 -0.2444  0.3819
33767SOL    HW1 3308   6.325   2.867   5.775  1.1445 -1.3252  0.9070
33767SOL    HW2 3309   6.188   2.803   5.769  0.3642  0.2731  1.2123
33768SOL     OW 3310   6.783   6.086   2.424  0.2651  0.2693 -0.4113
33768SOL    HW1 3311   6.794   6.180   2.409 -0.6885  0.6822  1.1775
33768SOL    HW2 3312   6.689   6.072   2.419  0.3557 -0.4966 -0.0721
33769SOL     OW 3313   3.090  10.475   7.794  0.4051 -0.5528 -0.1627
33769SOL    HW1 3314   3.161  10.413   7.781  0.8976 -0.0964  0.2831
33769SOL    HW2 3315   3.102  10.507   7.883  0.4874  0.5824 -0.5618
33770SOL     OW 3316   1.437   4.680   0.520  0.1978  0.1880 -0.0479
33770SOL    HW1 3317   1.484   4.600   0.497 -0.3783  0.2178 -1.4187
33770SOL    HW2 3318   1.359   4.679   0.465  1.0536  2.5467 -1.4665
33771SOL     OW 3319   7.175   6.332   9.241  0.4328 -0.0258  0.4770
33771SOL    HW1 3320   7.244   6.386   9.281  1.1883 -0.8490  0.3233
33771SOL    HW2 3321   7.125   6.298   9.315  0.2765  0.4598  0.5976
33772SOL     OW 3322   9.327   4.288   9.310 -0.2396 -0.2868 -0.5056
33772SOL    HW1 3323   9.346   4.233   9.386 -0.1108 -0.1728 -0.4530
33772SOL    HW2 3324   9.233   4.279   9.296 -0.1597 -0.7903 -0.7091
33773SOL     OW 3325   7.696   7.109  10.535  0.1505 -0.4117 -0.0826
33773SOL    HW1 3326   7.751   7.130  10.460 -0.7839 -1.8504 -1.2194
33773SOL    HW2 3327   7.756   7.068  10.597  0.4843 -1.5187 -1.1036
33774SOL     OW 3328   1.753   8.371  10.350 -0.3607  0.1993  0.5221
33774SOL    HW1 3329   1.720   8.447  10.396  1.0330  0.8096  0.5704
33774SOL    HW2 3330   1.831   8.402  10.304  1.1679 -1.4981  1.7809
33775SOL     OW 3331   2.698   3.314   6.453  0.0726 -0.1747 -0.7665
33775SOL    HW1 3332   2.662   3.262   6.381  0.3075 -0.1799 -0.8799
33775SOL    HW2 3333   2.791   3.324   6.432  0.1577 -0.2361 -0.4279
33776SOL     OW 3334   9.516   5.677   1.992 -0.5729 -0.0435  0.3451
33776SOL    HW1 3335   9.512   5.752   1.934  0.3745 -2.3498 -2.9734
33776SOL    HW2 3336   9.493   5.602   1.937  1.1856 -2.5264  2.7009
33777SOL     OW 3337   9.086   8.385   6.759 -0.3541 -0.0385 -0.0132
33777SOL    HW1 3338   9.162   8.443   6.753  0.9651 -1.8277 -1.7015
33777SOL    HW2 3339   9.099   8.338   6.842  1.0947 -1.1782 -0.8338
33778SOL     OW 3340   8.069   4.598   9.933 -0.5076 -0.0376 -0.2112
33778SOL    HW1 3341   7.980   4.600   9.967 -0.3281  1.2183  0.2497
33778SOL    HW2 3342   8.071   4.667   9.867  0.1636  0.0851 -0.0729
33779SOL     OW 3343   4.941   1.216   6.300  0.5546 -0.1014 -0.4869
33779SOL    HW1 3344   4.877   1.150   6.274  2.7389 -2.1343 -1.0829
33779SOL    HW2 3345   5.001   1.169   6.359  0.3589  2.2615  1.7886
33780SOL     OW 3346   8.380   2.896   0.566 -0.1423 -0.2069 -0.1508
33780SOL    HW1 3347   8.336   2.978   0.544  0.1408  0.0067  0.0654
33780SOL    HW2 3348   8.379   2.894   0.662  0.1882 -0.2696 -0.1478
33781SOL     OW 3349   3.464   5.718   3.368 -0.9355 -0.4135 -0.6484
33781SOL    HW1 3350   3.419   5.637   3.346  0.9350 -1.4970 -0.7781
33781SOL    HW2 3351   3.474   5.714   3.464 -1.6500  0.1321 -0.5460
33782SOL     OW 3352   3.616   8.810   5.317 -0.2979 -0.3369  0.6227
33782SOL    HW1 3353   3.659   8.835   5.399 -2.1186  0.8649  1.2821
33782SOL    HW2 3354   3.524   8.796   5.342 -0.6508 -1.1389 -1.0082
33783SOL     OW 3355   0.049  10.546   0.206 -0.3752 -0.7125 -0.3327
33783SOL    HW1 3356  -0.035  10.536   0.161 -0.5052 -2.1583  0.1855
33783SOL    HW2 3357   0.026  10.563   0.297 -0.1270 -1.8980 -0.0331
33784SOL     OW 3358   9.574   6.310   9.181  0.1403  0.1574  0.4024
33784SOL    HW1 3359   9.609   6.395   9.154 -0.3601  0.2673  0.0896
33784SOL    HW2 3360   9.576   6.257   9.101  2.2776 -0.7785  0.9905
33785SOL     OW 3361   7.880   8.185  10.835  0.3315 -0.4685  0.8953
33785SOL    HW1 3362   7.793   8.184  10.793 -1.0139 -0.4976  3.4853
33785SOL    HW2 3363   7.891   8.095  10.867  1.3972 -0.4833  0.5038
33786SOL     OW 3364   0.283   6.372   6.419  0.1295  0.1855 -0.4345
33786SOL    HW1 3365   0.344   6.303   6.393  1.0229  1.2185 -1.1974
33786SOL    HW2 3366   0.294   6.380   6.513 -0.4510 -1.1328 -0.2444
33787SOL     OW 3367   3.158   2.110  10.448 -0.0913 -0.1944 -0.3733
33787SOL    HW1 3368   3.142   2.204  10.462  0.9573 -0.2327  1.2863
33787SOL    HW2 3369   3.075   2.068  10.473  1.0323 -0.0868  4.3661
33788SOL     OW 3370   0.384   2.022   6.202  0.7751 -0.3212  0.0275
33788SOL    HW1 3371   0.352   1.999   6.290 -0.2725  0.5351 -0.1071
33788SOL    HW2 3372   0.365   1.944   6.149  0.8668 -0.6228  0.4326
33789SOL     OW 3373   6.653   5.843   7.939  0.0861 -0.1446 -0.0881
33789SOL    HW1 3374   6.567   5.853   7.980  0.4065  0.0569  0.5452
33789SOL    HW2 3375   6.713   5.827   8.012  0.4369 -1.2601 -0.5995
33790SOL     OW 3376   5.006   1.375   2.689  0.1573  0.1578  0.4536
33790SOL    HW1 3377   5.046   1.364   2.775  3.4656  0.8453 -0.8410
33790SOL    HW2 3378   5.039   1.301   2.637 -1.0392  0.2529 -0.5028
33791SOL     OW 3379   0.689   0.041   8.344  0.3908  0.6260  0.0073
33791SOL    HW1 3380   0.708   0.016   8.253 -1.0540 -1.3493  0.1873
33791SOL    HW2 3381   0.758   0.103   8.366  1.4243  0.3281 -2.0803
33792SOL     OW 3382  10.961   7.603   7.123  0.4372  0.1262 -0.4264
33792SOL    HW1 3383  11.032   7.662   7.099  0.7046  0.1910  0.4584
33792SOL    HW2 3384  10.907   7.654   7.184 -0.1856 -0.0356 -0.8295
33793SOL     OW 3385   9.801   1.244   8.558 -0.0895  0.0611 -0.1681
33793SOL    HW1 3386   9.842   1.276   8.639 -0.1901  2.4760 -0.9806
33793SOL    HW2 3387   9.824   1.310   8.493 -0.2585 -1.6767 -2.0697
33794SOL     OW 3388   3.983   7.804   7.982  0.0350 -0.5925  0.0012
33794SOL    HW1 3389   3.900   7.763   7.959  0.1626 -1.2448  0.6674
33794SOL    HW2 3390   3.962   7.862   8.054  0.0318 -0.2000 -0.3107
33795SOL     OW 3391   3.213   8.201   9.781 -0.1083  0.3124 -0.1157
33795SOL    HW1 3392   3.234   8.211   9.688  0.7703  0.9141  0.1356
33795SOL    HW2 3393   3.209   8.290   9.815 -0.6992  0.1124  0.3752
33796SOL     OW 3394   0.938   3.520   6.367 -0.2872  0.1788  0.1524
33796SOL    HW1 3395   0.976   3.595   6.411 -0.1239  0.7339 -0.9149
33796SOL    HW2 3396   1.005   3.491   6.306 -0.5983 -0.4421  0.0962
33797SOL     OW 3397   7.126  10.333   8.648  0.4706  0.8261 -0.3350
33797SOL    HW1 3398   7.066  10.296   8.713 -2.2066  1.9708 -1.9453
33797SOL    HW2 3399   7.153  10.258   8.594  0.5707  0.2772  0.4648
33798SOL     OW 3400   7.129   7.975   6.618  0.0031  0.8255  0.2482
33798SOL    HW1 3401   7.183   7.965   6.540  0.0713  0.7704  0.3009
33798SOL    HW2 3402   7.054   7.917   6.604 -0.2764  1.2577 -0.0283
33799SOL     OW 3403   3.326   5.237   7.542 -0.3225  0.3483  0.2820
33799SOL    HW1 3404   3.353   5.145   7.543 -0.2317  0.3708  0.0121
33799SOL    HW2 3405   3.247   5.237   7.489 -0.4859  0.3842  0.5220
33800SOL     OW 3406   6.131   2.021   0.092 -0.2796 -0.3275 -0.6014
33800SOL    HW1 3407   6.160   2.086   0.156  0.0152  0.6648 -1.7082
33800SOL    HW2 3408   6.203   1.958   0.088  0.4783  0.5612 -1.2280
33801SOL     OW 3409  10.743   7.227  10.743  0.0255 -0.2671  0.4110
33801SOL    HW1 3410  10.815   7.198  10.688  0.0042 -1.6828  1.0818
33801SOL    HW2 3411  10.669   7.173  10.715 -0.3428 -0.0090  0.8728
33802SOL     OW 3412   8.094   7.710  10.686 -0.3270 -0.2111  0.4984
33802SOL    HW1 3413   8.130   7.747  10.767 -0.7436 -0.8259  0.9693
33802SOL    HW2 3414   8.139   7.627  10.676  0.8868  0.5478 -0.7631
33803SOL     OW 3415   4.516   7.304   9.704 -0.3029 -0.1670  0.2842
33803SOL    HW1 3416   4.435   7.341   9.670 -1.0850 -2.1034 -0.0615
33803SOL    HW2 3417   4.583   7.334   9.642 -0.7907  1.1704  0.3812
33804SOL     OW 3418   5.770   0.268   2.055 -0.4766  0.1962 -0.6561
33804SOL    HW1 3419   5.754   0.337   1.991 -0.4657 -0.4074 -1.3254
33804SOL    HW2 3420   5.772   0.188   2.003  1.4015 -0.1113 -0.1823
33805SOL     OW 3421   6.930   7.531   2.858  0.1975 -0.0623  0.9854
33805SOL    HW1 3422   6.871   7.530   2.782  0.3742 -1.7723  0.8483
33805SOL    HW2 3423   7.001   7.589   2.831 -0.4371  0.4832  0.4066
33806SOL     OW 3424   5.903   7.791   0.109  0.2901 -0.5401 -0.3256
33806SOL    HW1 3425   5.912   7.712   0.163  0.3217 -0.5560 -0.3544
33806SOL    HW2 3426   5.931   7.863   0.166 -1.4832 -0.3169  0.3521
33807SOL     OW 3427   7.593   5.200   1.886  0.6354  0.1000  0.0089
33807SOL    HW1 3428   7.651   5.222   1.813  0.6038  2.1097  0.5365
33807SOL    HW2 3429   7.505   5.198   1.847  0.5319  1.8841  0.0826
33808SOL     OW 3430   8.929   5.496   7.569 -0.2811  0.2802  0.1116
33808SOL    HW1 3431   8.964   5.450   7.493 -1.5414  0.3022 -0.5218
33808SOL    HW2 3432   8.890   5.428   7.623  0.4899  0.2804  0.6848
33809SOL     OW 3433   0.886   3.883   8.363 -0.1523  0.1342  0.3039
33809SOL    HW1 3434   0.934   3.885   8.446  0.4212 -0.8099  0.0040
33809SOL    HW2 3435   0.853   3.793   8.357 -1.6942  0.6661  0.3445
33810SOL     OW 3436  10.672   5.135   2.944  0.1441  0.1731  0.4006
33810SOL    HW1 3437  10.718   5.092   3.017 -1.2573 -0.9264  0.6869
33810SOL    HW2 3438  10.598   5.180   2.986  0.2962  0.9702 -0.1662
33811SOL     OW 3439   8.919   2.796   8.529  0.1238  0.4725 -0.2209
33811SOL    HW1 3440   8.827   2.784   8.553 -0.2839  0.4244 -1.7057
33811SOL    HW2 3441   8.967   2.751   8.598 -0.9509  0.6034  0.6516
33812SOL     OW 3442   8.282  10.134   6.708  0.5345 -0.5433  0.2335
33812SOL    HW1 3443   8.222  10.142   6.633  0.5583  3.3589  0.4086
33812SOL    HW2 3444   8.369  10.135   6.669  0.5371  1.0019  0.2192
33813SOL     OW 3445   8.967   7.738   6.354 -0.6049  0.0314  0.2510
33813SOL    HW1 3446   8.947   7.757   6.262 -0.6981 -1.0200  0.0427
33813SOL    HW2 3447   8.951   7.821   6.399 -2.4171  0.0746 -0.3910
33814SOL     OW 3448   0.843   0.716   1.431 -0.0239  0.0264 -0.1447
33814SOL    HW1 3449   0.760   0.671   1.444 -0.5037  1.3641  1.9351
33814SOL    HW2 3450   0.909   0.654   1.462 -0.5527  0.1875  1.3592
33815SOL     OW 3451   8.863   6.660   9.157 -0.2605  0.3726  1.0809
33815SOL    HW1 3452   8.899   6.744   9.187 -0.8519  0.2152  2.3181
33815SOL    HW2 3453   8.857   6.607   9.236  0.6994 -1.0907  0.2088
33816SOL     OW 3454   8.573   8.501   0.836  0.2332  0.3678  0.2276
33816SOL    HW1 3455   8.497   8.540   0.792 -0.4547 -0.5556  0.5647
33816SOL    HW2 3456   8.625   8.575   0.865 -1.5289  1.0964  1.7331
33817SOL     OW 3457   0.472   9.994   3.001 -0.2244 -0.0526 -0.1009
33817SOL    HW1 3458   0.529   9.932   3.047  0.1541  0.9623  0.8432
33817SOL    HW2 3459   0.384   9.959   3.014 -0.1375  0.1982  1.4527
33818SOL     OW 3460   7.315   7.169   9.365  0.1501 -0.6508  0.0572
33818SOL    HW1 3461   7.296   7.103   9.298  0.8249  1.7779 -2.7234
33818SOL    HW2 3462   7.237   7.224   9.368  0.9420  0.5324 -0.3485
33819SOL     OW 3463   0.296   6.529   0.910  0.1668 -0.6620  0.3653
33819SOL    HW1 3464   0.266   6.609   0.867  1.2428 -0.0498  0.7094
33819SOL    HW2 3465   0.300   6.552   1.003 -0.1722 -1.3287  0.5444
33820SOL     OW 3466  11.034   7.345   7.120  0.6490 -0.1387 -0.8667
33820SOL    HW1 3467  11.011   7.436   7.103 -0.6969 -0.0064  1.3587
33820SOL    HW2 3468  11.004   7.298   7.042 -1.4872  0.9144 -0.7311
33821SOL     OW 3469   3.861   6.645   1.590  0.7807  0.1637  0.8237
33821SOL    HW1 3470   3.829   6.563   1.551  1.3208  1.4215 -2.5653
33821SOL    HW2 3471   3.909   6.617   1.667  0.7692 -2.7277 -0.0902
33822SOL     OW 3472   3.485   7.117   1.750 -0.6878  0.7943 -0.1388
33822SOL    HW1 3473   3.545   7.182   1.787 -0.0992  0.5612 -0.6598
33822SOL    HW2 3474   3.473   7.052   1.819 -0.2996  0.8157 -0.0505
33823SOL     OW 3475   6.439   0.817   9.689  0.0447 -0.1235  0.1860
33823SOL    HW1 3476   6.513   0.876   9.702 -0.7914  0.9197  0.3060
33823SOL    HW2 3477   6.407   0.799   9.778 -0.5851  0.4012  0.0697
33824SOL     OW 3478   8.485  10.409   6.695  0.2604 -0.1506  0.0298
33824SOL    HW1 3479   8.497  10.328   6.647 -0.3968 -0.9781  1.1930
33824SOL    HW2 3480   8.559  10.464   6.670 -0.8839  0.1200 -3.1264
33825SOL     OW 3481   1.161   9.623   3.115 -0.6940 -0.3623  0.1936
33825SOL    HW1 3482   1.111   9.704   3.104 -2.5598 -1.5916 -0.9955
33825SOL    HW2 3483   1.231   9.646   3.176 -1.5782  1.9444  0.4403
33826SOL     OW 3484   7.151   8.644   1.781 -0.1032 -0.1167  0.0056
33826SOL    HW1 3485   7.119   8.665   1.694  1.1084  0.7823 -0.2518
33826SOL    HW2 3486   7.204   8.565   1.770  1.8813  1.2012 -0.5485
33827SOL     OW 3487   3.004   2.543   0.823  0.2949 -0.3657  0.0556
33827SOL    HW1 3488   2.931   2.565   0.880  0.2032 -0.8839  0.1393
33827SOL    HW2 3489   3.070   2.506   0.882  1.0462  1.0471  0.1442
33828SOL     OW 3490   9.385   5.741  10.684 -0.3806  0.2807  0.3152
33828SOL    HW1 3491   9.420   5.809  10.742 -0.1587  1.1493 -0.7941
33828SOL    HW2 3492   9.457   5.679  10.674  0.2302  1.0780 -0.4507
33829SOL     OW 3493   6.701   9.143   9.930  0.0629 -0.0225 -0.3003
33829SOL    HW1 3494   6.778   9.091   9.951  0.3989 -0.4786 -2.4318
33829SOL    HW2 3495   6.632   9.107   9.987  0.8440 -1.2512 -0.0856
33830SOL     OW 3496   9.599   7.605   9.068 -0.1310  0.1031 -0.6804
33830SOL    HW1 3497   9.675   7.546   9.073 -1.5372 -1.6768  0.9878
33830SOL    HW2 3498   9.626   7.682   9.118  0.6979 -0.3430 -0.4134
33831SOL     OW 3499   7.697   9.566   8.298 -0.2480  0.1467  0.1853
33831SOL    HW1 3500   7.746   9.486   8.321 -0.1708  0.0888 -0.1834
33831SOL    HW2 3501   7.764   9.635   8.296 -0.4168  0.3575  1.1858
33832SOL     OW 3502   0.585   2.125   9.228 -0.2365 -0.2792  0.3467
33832SOL    HW1 3503   0.606   2.033   9.245 -0.6558 -0.2645  0.9452
33832SOL    HW2 3504   0.635   2.173   9.294 -0.3660 -0.0999  0.3136
33833SOL     OW 3505   4.416   9.796   5.497  0.1767 -0.2332 -0.3471
33833SOL    HW1 3506   4.481   9.866   5.485 -0.0457  0.3207  1.4540
33833SOL    HW2 3507   4.468   9.716   5.505  0.4751 -0.1808 -1.5024
33834SOL     OW 3508   2.377   9.215   2.662  0.3196 -0.0502 -0.4033
33834SOL    HW1 3509   2.414   9.241   2.747 -0.0694 -0.7948  0.0051
33834SOL    HW2 3510   2.283   9.235   2.671  0.2564 -0.2538 -0.6084
33835SOL     OW 3511   0.570   9.013   5.910  0.4258 -0.7638  0.0627
33835SOL    HW1 3512   0.586   8.977   5.997  0.1741 -0.2013  0.3505
33835SOL    HW2 3513   0.641   9.076   5.896 -0.6499  0.6441  0.7239
33836SOL     OW 3514   0.023   5.496   6.193 -0.0185  0.0824  0.4181
33836SOL    HW1 3515  -0.037   5.526   6.124 -0.5647 -0.1439  0.7884
33836SOL    HW2 3516   0.094   5.560   6.192 -0.5601  0.6970  0.3738
33837SOL     OW 3517   9.112   8.101   6.927 -0.5864  0.0282  0.3074
33837SOL    HW1 3518   9.055   8.064   6.994 -0.5472 -0.5346  0.0301
33837SOL    HW2 3519   9.123   8.031   6.863  0.6711  0.0284  0.5131
33838SOL     OW 3520   7.087   4.408   1.179 -0.0799  0.6778  0.2205
33838SOL    HW1 3521   7.073   4.472   1.110 -0.4154  0.1122 -0.2389
33838SOL    HW2 3522   7.052   4.326   1.145 -0.3064  0.3996  1.0774
33839SOL     OW 3523   7.787   4.630   9.665 -0.4642 -0.4952 -0.1227
33839SOL    HW1 3524   7.756   4.574   9.736 -0.5592 -0.3676 -0.0628
33839SOL    HW2 3525   7.881   4.639   9.681 -0.4078 -0.8287 -0.2680
33840SOL     OW 3526   9.404   0.858   3.407 -0.5085 -0.1353  0.1346
33840SOL    HW1 3527   9.482   0.908   3.382 -1.2841  0.4150 -1.2849
33840SOL    HW2 3528   9.405   0.782   3.348 -1.6798  0.5096 -0.7485
33841SOL     OW 3529   7.510   2.924   5.500 -0.1210  0.5423 -0.5016
33841SOL    HW1 3530   7.596   2.897   5.535 -0.2851  0.9083  0.2122
33841SOL    HW2 3531   7.530   2.959   5.413  0.0746 -2.0207 -1.5674
33842SOL     OW 3532   8.741   8.098   3.295  0.0210  0.1843 -0.1981
33842SOL    HW1 3533   8.738   8.010   3.259 -2.7204  1.1458 -2.8103
33842SOL    HW2 3534   8.695   8.092   3.379  1.3222 -1.0789  0.4727
33843SOL     OW 3535   3.837   4.268   8.518 -0.0065  0.0721  0.0280
33843SOL    HW1 3536   3.820   4.175   8.508  0.4562 -0.0774  0.6566
33843SOL    HW2 3537   3.920   4.283   8.474 -0.7156  0.4459 -1.2602
33844SOL     OW 3538   5.480   6.282   8.569 -0.8248 -0.2558  0.2054
33844SOL    HW1 3539   5.458   6.296   8.661 -1.5824  0.5211 -0.0861
33844SOL    HW2 3540   5.405   6.236   8.532 -0.0898 -1.5152  0.1899
33845SOL     OW 3541   9.718   5.904   6.155 -0.0844 -0.1491  0.1180
33845SOL    HW1 3542   9.802   5.945   6.175 -0.8164  0.1541  3.0003
33845SOL    HW2 3543   9.684   5.953   6.079  1.8166  0.4319 -0.3948
33846SOL     OW 3544   7.520   2.609   1.608  0.2239  0.2034 -0.2972
33846SOL    HW1 3545   7.497   2.691   1.564  1.1757  0.1747 -0.8733
33846SOL    HW2 3546   7.440   2.557   1.604 -0.7288  1.4675  0.9777
33847SOL     OW 3547   5.310   8.275   0.181  0.1966  0.2302 -0.2984
33847SOL    HW1 3548   5.258   8.355   0.172 -1.1888 -0.5824  0.1144
33847SOL    HW2 3549   5.324   8.266   0.275  1.3219  0.5709 -0.4260
33848SOL     OW 3550   5.354   9.317   1.930 -0.7153 -0.2124 -0.2867
33848SOL    HW1 3551   5.383   9.380   1.865  0.8012  0.1811  0.7253
33848SOL    HW2 3552   5.420   9.247   1.927 -1.0314 -0.5451  0.3236
33849SOL     OW 3553   8.639  11.051   1.177  0.3733 -0.1047  0.5389
33849SOL    HW1 3554   8.588  10.970   1.173 -1.7083  1.1785 -0.9751
33849SOL    HW2 3555   8.640  11.074   1.270 -0.0512 -1.2016  0.8333
33850SOL     OW 3556   9.710   8.762   2.101  0.5105  0.2558 -0.4446
33850SOL    HW1 3557   9.643   8.801   2.157 -0.1404 -1.6112  0.1682
33850SOL    HW2 3558   9.782   8.825   2.103 -0.4396  1.3675  0.5364
33851SOL     OW 3559   2.336   7.266   2.016  0.6316 -0.3855 -0.4449
33851SOL    HW1 3560   2.326   7.250   2.110  0.7040  0.7420 -0.2276
33851SOL    HW2 3561   2.417   7.221   1.992  1.0301 -0.0200  0.1993
33852SOL     OW 3562   8.786   8.055   1.062 -0.2332 -0.1924  0.6025
33852SOL    HW1 3563   8.699   8.070   1.025 -0.1653  1.6383  1.0680
33852SOL    HW2 3564   8.813   7.970   1.027 -1.6229 -0.1497 -0.6875
33853SOL     OW 3565   0.230   2.134  10.888 -0.3454 -0.3633 -0.4286
33853SOL    HW1 3566   0.318   2.101  10.870 -0.1843  0.0195 -0.3392
33853SOL    HW2 3567   0.243   2.202  10.954 -0.8230 -1.0759  0.4269
33854SOL     OW 3568   3.810   6.273   8.374  0.6622 -0.4207 -0.7841
33854SOL    HW1 3569   3.881   6.303   8.317  1.0544 -0.9536 -0.5750
33854SOL    HW2 3570   3.806   6.179   8.360  0.0490 -0.4071 -0.7293
33855SOL     OW 3571   9.046   6.589   8.974  0.4262  0.1030  0.3355
33855SOL    HW1 3572   9.125   6.643   8.984 -0.2484  1.1590  0.1014
33855SOL    HW2 3573   8.995   6.607   9.053 -0.8599  1.6501 -0.7676
33856SOL     OW 3574   9.821   5.873   4.892  0.2191  0.3373 -0.6040
33856SOL    HW1 3575   9.840   5.966   4.908 -2.7049  0.6044  2.4957
33856SOL    HW2 3576   9.733   5.872   4.856  0.1920 -1.2522 -0.5466
33857SOL     OW 3577   4.187   2.744   5.440 -0.6576 -0.5685 -0.0947
33857SOL    HW1 3578   4.224   2.797   5.511 -0.2115 -2.0857  0.8649
33857SOL    HW2 3579   4.229   2.777   5.361  1.7018 -1.2515  0.7908
33858SOL     OW 3580   6.940   9.283   1.836  0.2656  0.0619  0.4960
33858SOL    HW1 3581   6.858   9.269   1.883  0.4843 -0.6223  0.6806
33858SOL    HW2 3582   6.919   9.264   1.744 -0.1092  1.2005  0.3210
33859SOL     OW 3583   4.787   8.023  10.287 -0.2275  0.5390 -0.3993
33859SOL    HW1 3584   4.791   8.068  10.203 -1.7179 -0.0695 -0.8269
33859SOL    HW2 3585   4.719   7.957  10.276 -1.5575  1.4322  1.7450
33860SOL     OW 3586   7.864   8.273   8.400  0.3214 -0.2901 -0.0315
33860SOL    HW1 3587   7.823   8.279   8.314  0.4553  0.5716 -0.0490
33860SOL    HW2 3588   7.837   8.188   8.434 -0.7679 -0.1133 -0.3989
33861SOL     OW 3589   4.773   0.596  10.104  0.3274 -0.6948 -0.2995
33861SOL    HW1 3590   4.742   0.683  10.132  4.5584  1.0327 -0.2480
33861SOL    HW2 3591   4.773   0.544  10.184  2.5267  0.9834  0.9231
33862SOL     OW 3592   5.933   6.493   3.527 -0.5899 -0.5563  0.6669
33862SOL    HW1 3593   5.968   6.548   3.597 -0.5103 -1.7219  1.5780
33862SOL    HW2 3594   5.841   6.482   3.550 -0.8188 -0.1136  0.0093
33863SOL     OW 3595   6.596   8.422  10.885 -0.0148  0.4185  0.5537
33863SOL    HW1 3596   6.559   8.342  10.924  1.3679  0.1894  1.4725
33863SOL    HW2 3597   6.604   8.402  10.792  0.5555 -0.6381  0.8082
33864SOL     OW 3598  11.005   7.256   5.788 -0.4034 -0.6676  0.0897
33864SOL    HW1 3599  10.970   7.168   5.774 -0.4640 -0.7246  0.5958
33864SOL    HW2 3600  10.982   7.278   5.878 -0.7693  0.0440 -0.1633
33865SOL     OW 3601   7.182   3.613   9.671  0.2663 -0.6284 -0.1666
33865SOL    HW1 3602   7.127   3.610   9.749 -0.5007  0.0029 -0.6672
33865SOL    HW2 3603   7.154   3.692   9.625  0.4573 -1.1783 -1.2647
33866SOL     OW 3604   1.843   1.064  10.188  0.1571 -0.3047  0.3664
33866SOL    HW1 3605   1.789   1.036  10.114  0.3368  0.1827  0.0419
33866SOL    HW2 3606   1.873   1.152  10.163  2.5981 -1.2619 -0.2841
33867SOL     OW 3607   0.665   8.155   8.376  0.2499  0.7820  0.3805
33867SOL    HW1 3608   0.716   8.074   8.364 -0.5134  0.4308 -0.5881
33867SOL    HW2 3609   0.675   8.202   8.294 -1.6009  0.3310 -0.1616
33868SOL     OW 3610   1.400   5.198   8.156 -0.4306  0.0092  0.3213
33868SOL    HW1 3611   1.495   5.183   8.160 -0.3873 -0.0702 -0.7912
33868SOL    HW2 3612   1.381   5.247   8.236  0.5314 -0.0690  0.6179
33869SOL     OW 3613   7.465   3.575   1.333  0.1524 -0.3605 -0.1525
33869SOL    HW1 3614   7.485   3.633   1.259 -1.0077  1.5415  0.9492
33869SOL    HW2 3615   7.482   3.629   1.410 -0.0112 -1.8413  0.9462
33870SOL     OW 3616   7.987   3.081   1.850 -0.0482  0.1413 -0.0739
33870SOL    HW1 3617   8.010   3.171   1.876  0.0988  0.2701 -0.6422
33870SOL    HW2 3618   7.969   3.037   1.933  1.6723  0.1947  0.3854
33871SOL     OW 3619   6.145   2.056   0.982 -0.1793 -0.1656 -0.3226
33871SOL    HW1 3620   6.180   1.967   0.973 -2.7442 -1.2774 -0.4739
33871SOL    HW2 3621   6.178   2.102   0.905  0.9942 -1.0495 -0.3857
33872SOL     OW 3622   1.640   6.645   0.117 -0.3267 -0.4914 -0.1555
33872SOL    HW1 3623   1.553   6.685   0.122 -0.0658  0.1922 -0.9904
33872SOL    HW2 3624   1.643   6.587   0.193 -1.7864 -1.0684 -0.4906
33873SOL     OW 3625   8.002   7.043   0.206  0.3929 -0.0815 -0.1966
33873SOL    HW1 3626   8.036   7.051   0.295  0.1994  0.0459 -0.1328
33873SOL    HW2 3627   7.942   6.969   0.210 -0.0153  0.2502 -0.0930
33874SOL     OW 3628   2.553   5.808   6.542 -0.3308 -0.7989  0.2467
33874SOL    HW1 3629   2.516   5.725   6.570 -0.1374 -0.0744  2.8589
33874SOL    HW2 3630   2.561   5.860   6.622  0.8540  1.2335 -1.0877
33875SOL     OW 3631   6.671   2.790   6.131 -0.2579  0.0392 -0.0253
33875SOL    HW1 3632   6.646   2.831   6.214  0.5871  1.0772 -0.2670
33875SOL    HW2 3633   6.764   2.769   6.142 -0.1009  0.3212 -0.7616
33876SOL     OW 3634   9.925   0.958   9.866  0.5257 -0.8458  0.1539
33876SOL    HW1 3635  10.006   1.003   9.891 -0.7443  2.0717 -0.5432
33876SOL    HW2 3636   9.862   0.984   9.932 -0.2063 -1.9787 -0.0716
33877SOL     OW 3637   1.309   4.368  10.382  0.0093  0.3190  0.1847
33877SOL    HW1 3638   1.334   4.335  10.295 -0.6360  1.5280 -0.4940
33877SOL    HW2 3639   1.252   4.301  10.417  0.3597 -0.2385 -0.2845
33878SOL     OW 3640   7.576   5.816   2.752  0.0251 -0.4902 -0.2348
33878SOL    HW1 3641   7.481   5.823   2.752 -0.1691 -1.8768  2.1298
33878SOL    HW2 3642   7.605   5.871   2.825  1.2299  1.1176 -1.8291
33879SOL     OW 3643   4.106   1.915   2.725 -0.7268 -0.3941 -0.2703
33879SOL    HW1 3644   4.182   1.973   2.719 -0.1174 -1.3029 -2.7412
33879SOL    HW2 3645   4.030   1.973   2.719 -0.2274  0.3973  0.7727
33880SOL     OW 3646   3.945   9.891   8.689  0.1763  0.1746 -0.5323
33880SOL    HW1 3647   4.004   9.932   8.752  1.7886 -3.0659  0.2704
33880SOL    HW2 3648   3.868   9.868   8.740  0.7053 -0.7658 -0.1232
33881SOL     OW 3649   8.122  10.618   3.632  0.0634 -0.5290  0.8033
33881SOL    HW1 3650   8.190  10.661   3.685  0.8528 -0.6586 -0.0787
33881SOL    HW2 3651   8.039  10.644   3.674  0.6142  0.2778  1.4289
33882SOL     OW 3652   2.150   4.023   9.921  0.3051 -0.3750  0.3794
33882SOL    HW1 3653   2.094   3.981   9.855  1.0205 -0.8119  0.0433
33882SOL    HW2 3654   2.098   4.019  10.001 -0.2516 -0.5474  0.0238
33883SOL     OW 3655  10.342   2.723   0.852 -0.3276  0.0807 -0.0704
33883SOL    HW1 3656  10.347   2.815   0.829  0.3516  0.1300  0.2314
33883SOL    HW2 3657  10.407   2.712   0.921 -1.0570 -0.4310  0.5537
33884SOL     OW 3658   9.029   4.094   0.014 -0.2571  0.2096 -0.0050
33884SOL    HW1 3659   9.012   4.131   0.101  4.6172  0.1683  1.2867
33884SOL    HW2 3660   9.007   4.001   0.023 -2.0821  0.6519  0.3585
33885SOL     OW 3661   9.571   3.913   3.218 -0.1460  0.5629 -0.7022
33885SOL    HW1 3662   9.484   3.885   3.245  0.3418 -2.5869 -1.8883
33885SOL    HW2 3663   9.556   3.962   3.137 -0.7873 -1.2654 -1.7425
33886SOL     OW 3664   6.670   9.885   5.237  0.7973  0.3137  0.4969
33886SOL    HW1 3665   6.664   9.951   5.168 -0.5573 -1.2866 -1.0113
33886SOL    HW2 3666   6.756   9.845   5.226  0.4307 -0.2041 -0.5509
33887SOL     OW 3667   2.565   9.164   4.824 -0.5686 -0.1899 -0.6449
33887SOL    HW1 3668   2.582   9.242   4.772 -0.8006 -0.4862 -1.1698
33887SOL    HW2 3669   2.471   9.168   4.842 -0.4482  0.0469 -0.0167
33888SOL     OW 3670   6.011   1.551   6.337  0.4136  0.4619 -0.5546
33888SOL    HW1 3671   6.093   1.601   6.340  0.6065  0.1257  1.0716
33888SOL    HW2 3672   5.942   1.617   6.343  0.6745  0.6046  2.4900
33889SOL     OW 3673   0.981   7.500   8.308 -0.7222 -0.0199 -0.0607
33889SOL    HW1 3674   1.067   7.461   8.321 -0.1066  0.8478 -1.2996
33889SOL    HW2 3675   0.978   7.572   8.372 -0.1019  0.5763 -0.6857
33890SOL     OW 3676  10.639   5.541   1.412 -0.3509  0.0104 -0.8496
33890SOL    HW1 3677  10.564   5.482   1.420  0.3597 -0.6641  2.7810
33890SOL    HW2 3678  10.715   5.486   1.432  0.4567  1.7590  1.3929
33891SOL     OW 3679   0.839   0.451   9.012  0.0509 -0.4091 -0.3984
33891SOL    HW1 3680   0.856   0.499   8.931  1.3291  0.8954  0.5924
33891SOL    HW2 3681   0.799   0.515   9.070  0.6861 -0.8478  0.5531
33892SOL     OW 3682   8.357   7.653   4.208  0.6637  0.1301 -0.5559
33892SOL    HW1 3683   8.301   7.715   4.160 -2.1223 -2.1690 -0.5256
33892SOL    HW2 3684   8.351   7.572   4.157  1.4423 -1.0662  1.1847
33893SOL     OW 3685   3.058   6.587   9.191 -0.2322  0.1721  0.1231
33893SOL    HW1 3686   3.045   6.679   9.165 -1.4576 -0.3426 -1.2820
33893SOL    HW2 3687   2.969   6.555   9.206  0.0369 -1.2081 -1.0393
33894SOL     OW 3688   1.563   3.835   4.818 -0.2591 -0.0516  0.9424
33894SOL    HW1 3689   1.530   3.816   4.906 -0.8836  0.4757  0.8288
33894SOL    HW2 3690   1.652   3.864   4.832 -0.4810  0.4032  1.4391
33895SOL     OW 3691   6.101  10.782   6.189  0.4804 -0.0481 -0.0919
33895SOL    HW1 3692   6.147  10.866   6.183 -1.5496  1.2378  1.0501
33895SOL    HW2 3693   6.122  10.750   6.277 -0.7397  0.5783  0.4619
33896SOL     OW 3694   1.402   6.441   2.319  0.1087  1.2007 -0.1482
33896SOL    HW1 3695   1.491   6.409   2.334 -0.2431 -0.0893 -0.6953
33896SOL    HW2 3696   1.362   6.374   2.263 -0.8450  2.3268 -0.8497
33897SOL     OW 3697   7.682   1.185   5.553 -0.6655 -0.0899  0.0145
33897SOL    HW1 3698   7.641   1.223   5.476 -2.2014 -0.8397  0.4221
33897SOL    HW2 3699   7.618   1.121   5.586  0.7592 -1.1965  0.7866
33898SOL     OW 3700   9.246   8.478   8.691  0.1742  0.1853  0.3493
33898SOL    HW1 3701   9.318   8.455   8.632  0.2854  1.0731  0.1183
33898SOL    HW2 3702   9.289   8.515   8.769 -0.0105  2.5717 -0.5764
33899SOL     OW 3703   8.825   5.262   1.613  0.3888 -0.3216  0.2711
33899SOL    HW1 3704   8.747   5.213   1.588 -0.0174  0.7991 -0.6973
33899SOL    HW2 3705   8.833   5.331   1.548  1.4387  0.4050  1.1301
33900SOL     OW 3706   9.413   6.320   1.420 -0.2358  0.5611  0.2494
33900SOL    HW1 3707   9.469   6.378   1.369 -1.1388  1.1673 -0.0728
33900SOL    HW2 3708   9.452   6.233   1.409  0.8037  1.0162  0.2816
33901SOL     OW 3709   1.262   6.281   2.963 -0.4813 -0.3318  0.1466
33901SOL    HW1 3710   1.243   6.187   2.963  1.8556 -0.9181 -1.7501
33901SOL    HW2 3711   1.224   6.314   2.882  1.3801 -0.3787 -0.8131
33902SOL     OW 3712  10.825  10.373   9.690  0.3704  0.7301  0.4832
33902SOL    HW1 3713  10.783  10.435   9.750  1.6669  0.4691  1.7260
33902SOL    HW2 3714  10.836  10.423   9.609  1.1288  2.0796  1.3604
33903SOL     OW 3715   9.966   6.321  10.508 -0.2075 -0.2556 -0.2932
33903SOL    HW1 3716  10.021   6.278  10.443  1.6174  0.5362  0.6652
33903SOL    HW2 3717   9.996   6.412  10.508 -0.6374 -0.0968  1.1701
33904SOL     OW 3718   2.759   1.459   0.562  0.0605  0.4647 -0.1143
33904SOL    HW1 3719   2.732   1.550   0.575 -1.1118  0.0710  0.3305
33904SOL    HW2 3720   2.688   1.420   0.511  1.4227  0.2498 -1.9078
33905SOL     OW 3721   6.625   9.176   1.673  0.3064 -0.3013  0.0400
33905SOL    HW1 3722   6.709   9.200   1.634  0.0718  2.2682  0.9305
33905SOL    HW2 3723   6.642   9.174   1.767 -0.3763 -0.9514  0.1602
33906SOL     OW 3724   6.583   9.734   0.897  0.0742  0.2018 -0.4170
33906SOL    HW1 3725   6.530   9.683   0.836  1.2937 -0.1676 -1.1944
33906SOL    HW2 3726   6.651   9.774   0.842  1.1405 -0.0584  0.6808
33907SOL     OW 3727   9.516   8.937   4.169 -0.4814 -0.1913  0.2623
33907SOL    HW1 3728   9.467   9.018   4.183  1.3003  0.7057  1.6898
33907SOL    HW2 3729   9.572   8.955   4.094 -1.0884 -0.6345 -0.3144
33908SOL     OW 3730  10.743   6.200   7.667 -0.3902  0.3763  0.5349
33908SOL    HW1 3731  10.701   6.224   7.750  1.0077 -0.2767  1.4610
33908SOL    HW2 3732  10.797   6.276   7.644 -0.1969  0.2555  0.5983
33909SOL     OW 3733   9.826   2.140   4.626 -0.2742  0.2713  0.6631
33909SOL    HW1 3734   9.858   2.102   4.707 -2.6175 -0.3402  1.3590
33909SOL    HW2 3735   9.884   2.215   4.611  1.4465 -0.7530  1.7894
33910SOL     OW 3736   6.539   9.582  10.790 -0.2717 -0.1814 -0.4594
33910SOL    HW1 3737   6.572   9.611  10.875 -1.0058 -0.1393 -0.1849
33910SOL    HW2 3738   6.591   9.504  10.770  0.5178  0.3254 -0.3945
33911SOL     OW 3739   9.754   5.231  10.988  0.3104 -0.5248  0.5123
33911SOL    HW1 3740   9.781   5.249  11.078 -1.7901  0.6539  0.9795
33911SOL    HW2 3741   9.661   5.254  10.985  0.5385  0.4643 -2.2276
33912SOL     OW 3742   3.838   7.292  10.996  0.1445  0.2254  0.4669
33912SOL    HW1 3743   3.793   7.295  11.080  1.5994 -1.2268  1.3364
33912SOL    HW2 3744   3.891   7.372  10.994 -1.5896  1.4306 -0.1272
33913SOL     OW 3745   7.259   2.734   8.485  0.0613  0.0773 -0.0788
33913SOL    HW1 3746   7.333   2.787   8.513  0.6210 -0.6565 -0.1300
33913SOL    HW2 3747   7.269   2.727   8.390 -1.9494  2.7434 -0.6006
33914SOL     OW 3748   5.187  10.143   8.380 -0.6564 -0.6071  0.3394
33914SOL    HW1 3749   5.206  10.214   8.442 -1.9203  0.1106 -0.0527
33914SOL    HW2 3750   5.200  10.063   8.430 -0.8275 -0.0653  1.2767
33915SOL     OW 3751   9.125   9.679   7.515  0.0434  0.6484 -0.3913
33915SOL    HW1 3752   9.134   9.743   7.586  1.8810  0.8537 -0.7656
33915SOL    HW2 3753   9.112   9.731   7.436  0.5497  0.5395 -0.5535
33916SOL     OW 3754   0.933   8.357   1.610 -1.3850 -0.0737 -0.0917
33916SOL    HW1 3755   0.871   8.420   1.647 -0.7330  0.6829 -0.2443
33916SOL    HW2 3756   0.929   8.282   1.669 -3.0448 -0.3902 -0.5742
33917SOL     OW 3757   1.781   5.927   7.727 -0.5288  0.8410  0.2273
33917SOL    HW1 3758   1.869   5.955   7.751 -0.1717 -0.0445 -0.0120
33917SOL    HW2 3759   1.728   5.943   7.806  0.2803 -0.5192  1.0802
33918SOL     OW 3760   9.670   5.928   7.984  0.1770 -0.2954  0.7482
33918SOL    HW1 3761   9.628   5.869   7.921 -0.2494 -0.2333  0.9731
33918SOL    HW2 3762   9.738   5.973   7.933  0.6496 -1.1347  0.6258
33919SOL     OW 3763   0.624   3.269  10.530  0.6851  0.4302 -0.2267
33919SOL    HW1 3764   0.626   3.352  10.578 -2.2137 -0.0427  0.9427
33919SOL    HW2 3765   0.651   3.203  10.594  1.1270  0.2609 -0.5840
33920SOL     OW 3766   7.726   6.806   1.606  0.1535  0.2707 -0.4791
33920SOL    HW1 3767   7.665   6.735   1.623 -2.3071  2.4691  0.6582
33920SOL    HW2 3768   7.757   6.832   1.693  0.3100  1.1216 -0.7730
33921SOL     OW 3769   8.444   3.342   2.813 -0.1184  0.0033 -0.1078
33921SOL    HW1 3770   8.417   3.254   2.789  0.0062  0.5290 -2.4079
33921SOL    HW2 3771   8.488   3.332   2.897 -0.3491 -2.0698 -0.1899
33922SOL     OW 3772   7.012   0.191  10.697  0.3384 -0.6461 -0.3873
33922SOL    HW1 3773   7.088   0.234  10.659  0.1611  0.5019  0.4919
33922SOL    HW2 3774   7.001   0.233  10.782 -1.0879 -1.0210 -0.3629
33923SOL     OW 3775   8.737  10.514  10.374  1.0542 -0.3861 -0.2280
33923SOL    HW1 3776   8.654  10.536  10.332 -0.3701 -2.6873  1.1505
33923SOL    HW2 3777   8.765  10.433  10.331  1.2008 -1.0566  1.0874
33924SOL     OW 3778   9.724   3.871  10.983  0.1219  0.0747  0.0215
33924SOL    HW1 3779   9.797   3.883  10.922  0.2618  0.0398  0.1847
33924SOL    HW2 3780   9.764   3.861  11.069 -0.0620 -0.2003  0.0773
33925SOL     OW 3781   9.527  10.055   8.965  0.3646 -0.1976 -0.1589
33925SOL    HW1 3782   9.602  10.105   8.997 -0.1809  1.3195 -1.1455
33925SOL    HW2 3783   9.489  10.110   8.896 -0.3296 -1.9558 -1.2353
33926SOL     OW 3784   2.507   3.815   1.606 -0.1352 -0.6952  0.3161
33926SOL    HW1 3785   2.469   3.837   1.691  0.3409  1.1573  0.0790
33926SOL    HW2 3786   2.459   3.869   1.544  0.9170 -0.4929 -0.3422
33927SOL     OW 3787   6.359   0.721   9.442  0.3726 -0.0407  0.3975
33927SOL    HW1 3788   6.374   0.757   9.529  0.6985 -0.4222  0.5008
33927SOL    HW2 3789   6.270   0.747   9.421 -0.1127 -0.9040  1.3122
33928SOL     OW 3790   0.783   0.953   9.348  0.1235  0.0133  0.2774
33928SOL    HW1 3791   0.690   0.976   9.357  0.1356 -0.0728  0.6658
33928SOL    HW2 3792   0.783   0.859   9.330  0.1747 -0.2845  1.6853
33929SOL     OW 3793   6.688   2.663   7.802 -0.0731  0.1471  0.3504
33929SOL    HW1 3794   6.721   2.588   7.852 -1.7092 -0.2664  0.8910
33929SOL    HW2 3795   6.737   2.662   7.721  0.2014 -1.3036  0.5132
33930SOL     OW 3796   0.222   6.648   4.581  0.4165  0.6256 -0.1082
33930SOL    HW1 3797   0.138   6.686   4.556 -1.3014 -2.9270 -0.4118
33930SOL    HW2 3798   0.282   6.676   4.512  0.0341  4.5250  0.9245
33931SOL     OW 3799   8.039  10.038  10.208 -0.4528 -0.3340 -0.3516
33931SOL    HW1 3800   8.001  10.098  10.143 -1.1018  0.9795  1.1526
33931SOL    HW2 3801   8.131  10.032  10.184 -0.2008  1.8808 -0.1699
33932SOL     OW 3802   7.522   4.889  10.642 -0.0878  1.0122 -0.4027
33932SOL    HW1 3803   7.529   4.911  10.549 -0.4836  2.6021 -0.0726
33932SOL    HW2 3804   7.536   4.971  10.688  1.7525 -0.0366  1.0424
33933SOL     OW 3805   0.547  10.309   5.884 -0.3576  0.3228 -0.2630
33933SOL    HW1 3806   0.507  10.234   5.928 -0.9223  0.1929 -0.9865
33933SOL    HW2 3807   0.473  10.361   5.852  0.0199  1.3707  0.5135
33934SOL     OW 3808   0.080   8.236   6.708  0.7254  0.2142 -1.0198
33934SOL    HW1 3809   0.033   8.154   6.693  2.3465 -0.8863 -0.2766
33934SOL    HW2 3810   0.012   8.296   6.740 -0.5721 -0.6773 -1.9925
33935SOL     OW 3811   7.786   8.488   8.102 -0.1030  0.4247  0.5408
33935SOL    HW1 3812   7.857   8.433   8.069  1.6434  1.8186  1.7393
33935SOL    HW2 3813   7.816   8.578   8.087 -0.9401  1.0596  2.3596
33936SOL     OW 3814   5.049   8.313   9.515  0.0039  0.2076 -0.3509
33936SOL    HW1 3815   4.992   8.334   9.589 -1.0666 -0.1851 -1.0523
33936SOL    HW2 3816   5.064   8.219   9.522  1.4555  0.4589  0.4261
33937SOL     OW 3817   5.843   6.430   6.000 -0.3653 -0.6008 -0.1495
33937SOL    HW1 3818   5.761   6.467   6.034  0.0072  0.6741 -0.5985
33937SOL    HW2 3819   5.874   6.494   5.937  0.6519 -1.3912 -0.4806
33938SOL     OW 3820   2.520   4.539   0.593  1.3808 -0.0149 -0.2418
33938SOL    HW1 3821   2.537   4.479   0.665  1.9443  0.9682  0.4743
33938SOL    HW2 3822   2.577   4.614   0.610 -1.3382  2.0157  0.4994
33939SOL     OW 3823   8.676   9.958   5.386  0.4451  0.1632  0.0871
33939SOL    HW1 3824   8.761   9.998   5.403  0.3568  0.5136 -0.2892
33939SOL    HW2 3825   8.638   9.942   5.473 -0.4559  2.8894  0.2757
33940SOL     OW 3826  10.003   0.291   7.039  0.4091  0.1047 -0.2957
33940SOL    HW1 3827   9.964   0.318   6.957 -1.0327  0.8386  0.5937
33940SOL    HW2 3828  10.057   0.366   7.066  1.3386 -0.3595 -0.8395
33941SOL     OW 3829   7.946   6.829  10.325  0.4111 -0.2057  0.0197
33941SOL    HW1 3830   7.917   6.834  10.416  0.2773  0.7852 -0.0705
33941SOL    HW2 3831   8.024   6.883  10.322  0.0456  0.2973 -0.5936
33942SOL     OW 3832   1.669   6.421  10.888 -0.0496  0.1723 -0.9256
33942SOL    HW1 3833   1.735   6.477  10.929 -0.3046  0.0965 -0.4088
33942SOL    HW2 3834   1.643   6.469  10.809 -0.1478  0.7072 -0.5716
33943SOL     OW 3835   6.110   8.904   6.688  0.2733  0.1887  0.1297
33943SOL    HW1 3836   6.159   8.838   6.638  0.8865  1.0139 -0.3798
33943SOL    HW2 3837   6.088   8.860   6.770  0.1543 -0.8461 -0.4402
33944SOL     OW 3838   8.780  10.380   2.961  0.0587 -0.4559 -0.8658
33944SOL    HW1 3839   8.729  10.299   2.954  2.3284 -2.1972  1.0767
33944SOL    HW2 3840   8.738  10.429   3.031  0.1334 -1.1369 -0.3393
33945SOL     OW 3841   0.619   1.569   0.159 -0.0438  0.2266  0.1760
33945SOL    HW1 3842   0.530   1.594   0.184  0.3130  1.2911  0.4042
33945SOL    HW2 3843   0.626   1.596   0.067 -0.5527 -1.5337 -0.4309
33946SOL     OW 3844   4.120   6.168   2.251 -0.0357  0.1169  0.0999
33946SOL    HW1 3845   4.049   6.197   2.195  1.2119 -0.4975 -1.8935
33946SOL    HW2 3846   4.168   6.248   2.273 -0.2457  0.2974 -0.1028
33947SOL     OW 3847   8.223   8.116   1.277  0.5583 -0.2310 -0.0545
33947SOL    HW1 3848   8.167   8.095   1.352  1.4413  1.0360  0.9897
33947SOL    HW2 3849   8.191   8.059   1.207  0.7554 -2.6608  1.7096
33948SOL     OW 3850   3.329   6.729   2.069  0.6349 -0.0719  0.2729
33948SOL    HW1 3851   3.287   6.719   2.154 -0.0092 -0.5406 -0.0876
33948SOL    HW2 3852   3.359   6.640   2.047  1.0878  0.1071  0.1572
33949SOL     OW 3853   4.091   9.585   9.354 -0.0096  0.2788 -0.1460
33949SOL    HW1 3854   4.075   9.626   9.439 -0.9866 -0.8323  0.2334
33949SOL    HW2 3855   4.010   9.597   9.305 -0.4612 -1.4665  0.1096
33950SOL     OW 3856  10.905  10.884   9.644  0.3831 -0.4238  0.1078
33950SOL    HW1 3857  10.829  10.870   9.588  0.6329  0.8677 -0.5760
33950SOL    HW2 3858  10.867  10.904   9.730 -0.0039 -1.7159  0.2643
33951SOL     OW 3859   7.665   0.803   1.736 -0.5982  0.1003 -0.3461
33951SOL    HW1 3860   7.680   0.810   1.642 -1.9171 -1.4400 -0.7116
33951SOL    HW2 3861   7.572   0.820   1.747 -0.4188  0.4573  0.7180
33952SOL     OW 3862   0.315   3.367   0.091  0.2690 -0.0395 -0.4530
33952SOL    HW1 3863   0.301   3.281   0.052  3.2794 -0.8214 -0.0064
33952SOL    HW2 3864   0.402   3.362   0.131 -0.4085  2.4719  1.6207
33953SOL     OW 3865   5.649   8.818   0.693  0.2949  0.0777 -0.0966
33953SOL    HW1 3866   5.639   8.908   0.659 -0.8132 -0.6848 -1.9850
33953SOL    HW2 3867   5.659   8.765   0.614 -0.0681 -1.5720  0.9365
33954SOL     OW 3868   7.457   1.268   2.136  0.2577  0.2020 -0.2851
33954SOL    HW1 3869   7.362   1.277   2.131  0.3181  0.2054 -1.7417
33954SOL    HW2 3870   7.475   1.260   2.230 -1.1242  0.6916  0.0486
33955SOL     OW 3871   0.466   7.441   0.082 -0.5064 -0.1365 -0.0567
33955SOL    HW1 3872   0.460   7.522   0.031 -0.0045  0.4410  0.7745
33955SOL    HW2 3873   0.550   7.447   0.128 -0.7458 -0.8331  0.5005
33956SOL     OW 3874   1.391   8.466   6.839 -0.5706  0.1547  0.6873
33956SOL    HW1 3875   1.435   8.419   6.768 -0.0142  1.9891 -0.2544
33956SOL    HW2 3876   1.462   8.496   6.895 -0.9093  0.0081  1.1998
33957SOL     OW 3877   9.083   9.234   3.120 -0.0272  0.1134 -0.2307
33957SOL    HW1 3878   9.166   9.211   3.163  0.4253  0.5190 -0.8877
33957SOL    HW2 3879   9.031   9.154   3.128  0.3019 -0.0489  0.4629
33958SOL     OW 3880   6.952   8.573   2.651  0.4917 -0.3661 -0.4047
33958SOL    HW1 3881   7.003   8.650   2.624  2.5823 -0.6472  2.2442
33958SOL    HW2 3882   7.004   8.498   2.621 -0.3444 -0.7519 -0.9354
33959SOL     OW 3883   2.753   0.313   0.313  0.3871 -0.3199 -0.2878
33959SOL    HW1 3884   2.825   0.269   0.269 -1.3326 -0.0472 -3.7840
33959SOL    HW2 3885   2.761   0.405   0.287 -1.2611 -0.3219 -0.9389
33960SOL     OW 3886   8.643  10.486   9.962 -0.3019  0.4068 -0.1689
33960SOL    HW1 3887   8.584  10.444  10.024 -0.0159 -0.3022 -0.3714
33960SOL    HW2 3888   8.706  10.418   9.938  0.6895  1.1864  0.1622
33961SOL     OW 3889   1.242   5.372   3.257 -0.0850 -0.2092 -0.0923
33961SOL    HW1 3890   1.230   5.281   3.283  1.0766 -0.3588 -0.0316
33961SOL    HW2 3891   1.232   5.422   3.339  2.6512 -0.6024  0.5679
33962SOL     OW 3892   7.594   1.983   8.660  0.2767 -0.2945  0.4801
33962SOL    HW1 3893   7.690   1.984   8.656  0.3328 -2.6408 -0.0240
33962SOL    HW2 3894   7.566   2.013   8.574  0.5728 -0.4510  0.3279
33963SOL     OW 3895   8.999   0.387   5.443 -0.5237 -0.5610 -0.6070
33963SOL    HW1 3896   9.093   0.393   5.425 -0.6963  0.4074 -1.2990
33963SOL    HW2 3897   8.994   0.351   5.531  0.5074 -0.4034 -0.4668
33964SOL     OW 3898   2.803   9.307   2.379 -0.5484 -0.1261 -0.7996
33964SOL    HW1 3899   2.746   9.257   2.437  2.4807 -2.0739  0.7956
33964SOL    HW2 3900   2.783   9.276   2.291 -1.1013 -1.6850 -0.1512
33965SOL     OW 3901   8.604   0.034   9.691 -0.0997 -0.1902  0.2200
33965SOL    HW1 3902   8.511   0.054   9.677 -0.4908 -0.8317  1.6481
33965SOL    HW2 3903   8.629   0.088   9.766  0.9917  0.7682 -0.8000
33966SOL     OW 3904   4.596   1.177   2.499  0.1018  0.2166  0.5999
33966SOL    HW1 3905   4.505   1.206   2.499  0.4424  1.3469  1.5881
33966SOL    HW2 3906   4.638   1.227   2.569  0.5809 -3.1481  2.9489
33967SOL     OW 3907   9.549   6.233   8.435  0.3459  0.1655 -0.5816
33967SOL    HW1 3908   9.544   6.148   8.391 -1.3096  0.2668 -0.6460
33967SOL    HW2 3909   9.459   6.252   8.461  0.8329  1.4887  0.2420
33968SOL     OW 3910   9.163   5.897   3.429  0.0072  0.5980 -0.7472
33968SOL    HW1 3911   9.086   5.931   3.383 -1.9672 -0.1136  1.8463
33968SOL    HW2 3912   9.157   5.802   3.418  0.8176  0.5572 -0.9096
33969SOL     OW 3913   0.591   1.071   6.677  0.5826  0.3372  0.2820
33969SOL    HW1 3914   0.521   1.134   6.658 -0.2673 -0.3533  0.9954
33969SOL    HW2 3915   0.604   1.024   6.594 -1.6928 -1.3122  0.7493
33970SOL     OW 3916   8.469   2.523   7.405  0.1687  0.5170  0.6181
33970SOL    HW1 3917   8.487   2.616   7.391 -0.1807  0.5560  0.4170
33970SOL    HW2 3918   8.398   2.522   7.470 -0.1118  0.4011  0.3093
33971SOL     OW 3919   5.851  10.320   5.038  0.1539  0.9278  0.7953
33971SOL    HW1 3920   5.757  10.300   5.037  0.2172  0.6614 -0.4012
33971SOL    HW2 3921   5.870  10.336   5.131 -1.1900  1.5490  1.0026
33972SOL     OW 3922   4.972   8.004   1.378 -0.4120  0.1897  0.6061
33972SOL    HW1 3923   4.973   7.919   1.333 -0.5926 -0.0104  0.9786
33972SOL    HW2 3924   4.963   7.983   1.470 -1.5126  0.6451  0.6149
33973SOL     OW 3925   4.394   0.384  10.857  0.0918  0.2401 -0.2511
33973SOL    HW1 3926   4.473   0.423  10.896  1.0193 -0.5599 -1.2612
33973SOL    HW2 3927   4.322   0.421  10.908  1.0398  1.8368  0.0100
33974SOL     OW 3928   8.275   5.471   8.211 -0.1772 -0.6153  0.0736
33974SOL    HW1 3929   8.331   5.539   8.173 -0.5235 -1.1201 -1.4207
33974SOL    HW2 3930   8.191   5.515   8.228 -0.3299 -0.6056 -0.6806
33975SOL     OW 3931   6.504   7.533   3.719 -0.3858  0.3529  0.2646
33975SOL    HW1 3932   6.534   7.608   3.669  0.3724 -1.5876 -2.3647
33975SOL    HW2 3933   6.412   7.553   3.739 -0.7845  1.1794 -2.1018
33976SOL     OW 3934   9.220   9.542  10.030  0.1251  0.6849 -0.2395
33976SOL    HW1 3935   9.215   9.537  10.126 -0.3216 -0.0365 -0.2955
33976SOL    HW2 3936   9.212   9.636  10.011 -1.0667  0.7357  0.3723
33977SOL     OW 3937   6.024   3.926   5.263 -0.0817  0.1373  0.1335
33977SOL    HW1 3938   6.004   4.006   5.311  0.3711 -0.6274  1.6657
33977SOL    HW2 3939   6.029   3.858   5.330  1.7599 -0.7803 -0.8478
33978SOL     OW 3940   0.124   9.742   8.190  0.4460 -0.0168 -0.6414
33978SOL    HW1 3941   0.175   9.809   8.145  0.3840  0.3052 -0.2369
33978SOL    HW2 3942   0.047   9.789   8.223  0.6181 -0.1939  0.0231
33979SOL     OW 3943   4.914   9.982   1.645 -0.0321 -0.3349  0.7978
33979SOL    HW1 3944   4.927   9.919   1.716 -1.2547  0.5205  1.8200
33979SOL    HW2 3945   4.869  10.055   1.685  0.6420  0.8738 -0.5515
33980SOL     OW 3946   0.675   7.333   6.254  0.3740 -0.3269  0.0781
33980SOL    HW1 3947   0.588   7.293   6.248 -0.1214  0.5848  0.8922
33980SOL    HW2 3948   0.693   7.337   6.347  1.2330 -0.3589 -0.0795
33981SOL     OW 3949   0.486   4.130   4.987 -0.4473  0.3523 -0.0105
33981SOL    HW1 3950   0.574   4.109   5.020 -0.6857 -0.3556  0.2098
33981SOL    HW2 3951   0.492   4.220   4.957  0.2010  0.5030  0.5471
33982SOL     OW 3952   2.683   8.527   2.770 -0.3746 -0.2107  0.5583
33982SOL    HW1 3953   2.759   8.471   2.790 -0.4915 -1.2820 -1.6897
33982SOL    HW2 3954   2.719   8.601   2.723 -0.7432 -1.0902 -1.1791
33983SOL     OW 3955   5.211   2.853   5.166 -0.0234 -0.0904 -0.0975
33983SOL    HW1 3956   5.172   2.795   5.231  0.6286  0.9264  1.2502
33983SOL    HW2 3957   5.302   2.862   5.194 -0.6235  3.5347  1.2782
33984SOL     OW 3958   5.266   5.582  10.277 -0.5338 -0.3246  0.2802
33984SOL    HW1 3959   5.352   5.615  10.302 -0.5373 -0.0983  0.0017
33984SOL    HW2 3960   5.216   5.660  10.254 -0.1085 -0.6034 -1.7446
33985SOL     OW 3961   4.673   0.339   5.121  0.0262  0.0120 -0.2728
33985SOL    HW1 3962   4.624   0.409   5.163 -0.0614  0.7360 -1.5165
33985SOL    HW2 3963   4.761   0.375   5.108 -0.0913  0.0096 -1.1641
33986SOL     OW 3964   0.538   0.302   6.138 -0.2416  0.3491 -0.1376
33986SOL    HW1 3965   0.530   0.343   6.224  0.2107 -1.9723  1.0967
33986SOL    HW2 3966   0.602   0.355   6.091 -1.6652  2.5883  0.3196
33987SOL     OW 3967   8.304   9.674  10.464  0.4509 -0.4289  0.0078
33987SOL    HW1 3968   8.220   9.720  10.459  0.8265  0.3713  0.8241
33987SOL    HW2 3969   8.345   9.690  10.379  0.2457  0.1023  0.0048
33988SOL     OW 3970   8.368   2.421   2.103 -0.2939  0.2333 -0.3176
33988SOL    HW1 3971   8.454   2.462   2.112  0.5752 -1.0760 -2.1134
33988SOL    HW2 3972   8.379   2.357   2.033 -2.7961  0.1289 -0.6946
33989SOL     OW 3973  10.983   6.391   0.702 -0.0965  0.2708 -0.1581
33989SOL    HW1 3974  10.931   6.455   0.750  0.7682 -0.3946  1.7860
33989SOL    HW2 3975  11.005   6.324   0.768 -0.7753 -1.9228 -2.0317
33990SOL     OW 3976   8.951   5.453   7.219  0.6106  0.1516 -0.0164
33990SOL    HW1 3977   8.953   5.450   7.123 -1.5076  1.0982 -0.1561
33990SOL    HW2 3978   8.973   5.543   7.240 -0.0436  0.2464  0.2939
33991SOL     OW 3979   2.469   8.300   0.383 -0.0934  0.6005 -0.3120
33991SOL    HW1 3980   2.445   8.386   0.347 -5.7120 -0.6583 -0.5818
33991SOL    HW2 3981   2.407   8.288   0.456  0.8475 -2.9963  0.0362
33992SOL     OW 3982  10.440   7.019   2.083 -0.2689 -0.5494 -0.0644
33992SOL    HW1 3983  10.510   7.070   2.123 -0.4304 -0.5149  0.1776
33992SOL    HW2 3984  10.399   7.080   2.021  0.4136 -0.8139 -0.7764
33993SOL     OW 3985  10.843   8.884  10.489  0.3303  0.2803 -0.1742
33993SOL    HW1 3986  10.873   8.887  10.398 -1.1584  0.4748 -0.6837
33993SOL    HW2 3987  10.809   8.795  10.500 -1.2334  0.8171 -0.4201
33994SOL     OW 3988  10.834   6.870   4.720  0.3556 -0.1189  0.7058
33994SOL    HW1 3989  10.884   6.862   4.801 -0.5526 -1.1217  1.1947
33994SOL    HW2 3990  10.743   6.877   4.749  0.1667  1.5215 -0.1652
33995SOL     OW 3991   8.026   9.411   8.761  0.2819 -0.1789  0.1950
33995SOL    HW1 3992   7.969   9.335   8.751 -0.4106  0.4967 -1.2622
33995SOL    HW2 3993   8.000   9.450   8.845 -0.5885 -0.5451  0.1038
33996SOL     OW 3994   5.635  10.956   5.511 -0.5215 -0.4098 -0.1429
33996SOL    HW1 3995   5.666  10.908   5.588  0.8442  0.3944 -0.1644
33996SOL    HW2 3996   5.709  10.954   5.450 -0.6940  1.0813 -0.4327
33997SOL     OW 3997   8.146   0.396   8.732  0.4456 -0.3226 -0.6156
33997SOL    HW1 3998   8.202   0.366   8.660  0.2102 -1.5001 -0.3259
33997SOL    HW2 3999   8.070   0.434   8.689  0.9506  0.2569 -1.0024
33998SOL     OW 4000   0.182  10.059   0.833  0.2159  0.6603 -0.5254
33998SOL    HW1 4001   0.235  10.138   0.820  2.0132 -0.6897 -2.1652
33998SOL    HW2 4002   0.100  10.090   0.869  1.2357  3.1620 -0.1657
33999SOL     OW 4003   5.323   9.983  10.985 -0.2831  1.1203  0.0218
33999SOL    HW1 4004   5.337  10.076  11.004  0.7796  0.6972  1.4502
33999SOL    HW2 4005   5.265   9.983  10.909 -3.7374  2.9787  2.3660
34000SOL     OW 4006   8.561  10.812   5.943  0.2000  0.7061 -0.1553
34000SOL    HW1 4007   8.486  10.848   5.990 -0.6158 -0.2295 -0.7117
34000SOL    HW2 4008   8.632  10.815   6.008 -0.3943  1.2637  0.4969
34001SOL     OW 4009   1.820   7.430   5.251  0.2232 -0.4461  0.1791
34001SOL    HW1 4010   1.725   7.423   5.242  0.0014 -0.4744  2.0196
34001SOL    HW2 4011   1.847   7.345   5.285  1.0287 -0.6810 -1.0004
34002SOL     OW 4012   8.836   9.692   3.547  0.2561  0.6124  0.7676
34002SOL    HW1 4013   8.770   9.745   3.593  1.1995  1.3396  1.3097
34002SOL    HW2 4014   8.915   9.701   3.600  1.0866  0.6180 -0.4395
34003SOL     OW 4015  10.443  10.163  10.343 -0.1998 -0.1442 -0.6926
34003SOL    HW1 4016  10.477  10.252  10.346 -0.0444 -0.2219  1.2984
34003SOL    HW2 4017  10.357  10.168  10.385  0.9885 -1.3267  2.1705
34004SOL     OW 4018   1.516   4.135   3.905 -0.6811 -0.1982  0.1985
34004SOL    HW1 4019   1.443   4.117   3.964  0.2963 -1.1144  1.1705
34004SOL    HW2 4020   1.475   4.156   3.821 -2.0779  0.4012  0.9979
34005SOL     OW 4021   3.323  10.277   6.561  0.3997  0.2191  0.0267
34005SOL    HW1 4022   3.324  10.182   6.563  1.5821  0.1915 -0.7031
34005SOL    HW2 4023   3.304  10.303   6.652 -0.0194 -0.6978  0.2110
34006SOL     OW 4024   9.175   7.305   3.132 -0.1688 -0.3984 -0.0519
34006SOL    HW1 4025   9.190   7.225   3.081 -1.5117 -0.4432 -0.4220
34006SOL    HW2 4026   9.251   7.311   3.190  0.0994 -1.7983 -0.2123
34007SOL     OW 4027   4.534   0.206   8.117  0.2366  0.2084 -0.3711
34007SOL    HW1 4028   4.600   0.219   8.049  0.8838 -1.1151 -0.0228
34007SOL    HW2 4029   4.575   0.147   8.180 -0.8147  0.3992  0.5208
34008SOL     OW 4030   3.502   0.914  10.931 -0.3417  0.1975  0.2330
34008SOL    HW1 4031   3.475   0.844  10.871  0.1413 -0.1245  0.3808
34008SOL    HW2 4032   3.490   0.878  11.018  0.5098  0.0534  0.3034
34009SOL     OW 4033   8.143   6.135   3.498  0.0645 -0.1017  0.8047
34009SOL    HW1 4034   8.124   6.193   3.571  1.8707  1.4504  0.1234
34009SOL    HW2 4035   8.201   6.068   3.534 -0.8333 -0.6503  1.2585
34010SOL     OW 4036   6.175   4.910   1.063 -0.0362 -0.4057 -0.3373
34010SOL    HW1 4037   6.090   4.868   1.050 -0.2291  0.0327 -0.5230
34010SOL    HW2 4038   6.155   4.989   1.113 -0.0402  0.7779 -2.1143
34011SOL     OW 4039   7.908   9.458   2.526 -0.0271  0.3496 -0.8641
34011SOL    HW1 4040   8.002   9.474   2.531 -0.4940  3.0621  1.0832
34011SOL    HW2 4041   7.891   9.393   2.594  0.3913  0.0679 -1.0254
34012SOL     OW 4042   1.527   0.079   1.137  0.0026  0.0670  0.5409
34012SOL    HW1 4043   1.480   0.111   1.060  0.3374  0.1634  0.3757
34012SOL    HW2 4044   1.521  -0.017   1.130  0.3028  0.0688  0.2253
34013SOL     OW 4045   8.614   9.881   9.681  0.0508  0.1327  0.0960
34013SOL    HW1 4046   8.547   9.815   9.699 -0.5710  0.5571 -0.6133
34013SOL    HW2 4047   8.577   9.963   9.712  0.0680  0.4337 -0.6623
34014SOL     OW 4048   5.139   0.397   2.941 -0.1409 -0.3495  0.1578
34014SOL    HW1 4049   5.092   0.397   3.025 -1.8770  0.6437 -0.7527
34014SOL    HW2 4050   5.144   0.305   2.916  0.2780 -0.6439  1.2773
34015SOL     OW 4051  10.038   7.116   9.487 -0.3304 -0.3768  0.0143
34015SOL    HW1 4052  10.106   7.125   9.420 -0.4654 -0.4614 -0.1332
34015SOL    HW2 4053  10.056   7.188   9.548 -0.5598  0.0584 -0.4269
34016SOL     OW 4054   9.577   2.253   7.213 -0.3479 -0.0940 -0.0533
34016SOL    HW1 4055   9.562   2.333   7.263  0.0120  1.1456 -1.8641
34016SOL    HW2 4056   9.535   2.184   7.265 -1.0414  1.3151  1.3226
34017SOL     OW 4057   6.125   8.928   9.536 -0.2843 -0.1579 -0.1325
34017SOL    HW1 4058   6.154   9.017   9.552 -0.1016 -0.0945 -0.7771
34017SOL    HW2 4059   6.189   8.873   9.580 -0.6371  0.0325  0.6345
34018SOL     OW 4060   1.494   3.631   9.483  0.5534 -0.1937  0.0081
34018SOL    HW1 4061   1.481   3.678   9.401  0.7070  0.5799  0.4126
34018SOL    HW2 4062   1.553   3.559   9.461  0.2653 -0.2409 -0.6373
34019SOL     OW 4063   1.555   6.577   1.434 -0.1552  0.5124 -0.2241
34019SOL    HW1 4064   1.553   6.665   1.396 -0.5144  0.6123  0.0258
34019SOL    HW2 4065   1.639   6.541   1.406 -0.8797  0.1428 -2.1255
34020SOL     OW 4066   0.655   6.207   0.658  0.1453  0.1301 -0.5367
34020SOL    HW1 4067   0.631   6.114   0.659  2.6900 -0.6260 -2.2636
34020SOL    HW2 4068   0.602   6.245   0.728 -0.3653 -2.7685  0.8238
34021SOL     OW 4069   6.653   9.583  10.453 -0.5319 -0.3093 -0.6306
34021SOL    HW1 4070   6.563   9.612  10.465 -0.5263 -0.4494 -0.2319
34021SOL    HW2 4071   6.706   9.660  10.470 -0.4929 -0.6251  0.8462
34022SOL     OW 4072  10.116   7.961   3.727  0.1569 -0.0158  0.0283
34022SOL    HW1 4073  10.079   7.879   3.759  0.3748 -0.0063  0.3161
34022SOL    HW2 4074  10.047   8.000   3.673 -0.8673  0.7424  1.7817
34023SOL     OW 4075   8.708   4.804   0.002 -0.0798  0.0345  0.2546
34023SOL    HW1 4076   8.794   4.811  -0.039 -0.5049 -2.3666 -1.2672
34023SOL    HW2 4077   8.673   4.720  -0.030 -2.0151 -0.2024  2.6877
34024SOL     OW 4078  10.598   9.781   0.025 -0.3309 -0.4394 -0.3406
34024SOL    HW1 4079  10.647   9.701   0.004  1.8114  0.9267 -0.8805
34024SOL    HW2 4080  10.621   9.842  -0.045 -2.4073  0.4813 -0.2800
34025SOL     OW 4081  10.475   4.258  10.477  0.5631  0.4111 -0.1354
34025SOL    HW1 4082  10.524   4.205  10.414  1.6582  1.5865 -0.2960
34025SOL    HW2 4083  10.504   4.348  10.462 -1.5986  1.1718 -0.1813
34026SOL     OW 4084   7.016   6.367   4.707  0.3212  0.6011 -0.1540
34026SOL    HW1 4085   7.090   6.393   4.762  2.0677 -1.0026 -1.6397
34026SOL    HW2 4086   7.009   6.272   4.720 -0.7213  0.5548 -0.9540
34027SOL     OW 4087   4.619   0.625   8.016  0.5685  0.1706 -0.1167
34027SOL    HW1 4088   4.659   0.544   7.982 -1.2296 -1.3979  1.3011
34027SOL    HW2 4089   4.680   0.654   8.085  0.4484 -0.9090  0.4684
34028SOL     OW 4090   0.785   1.084   2.037 -0.6083 -0.6956 -1.0210
34028SOL    HW1 4091   0.745   1.146   2.097 -1.1395 -0.6114 -1.4521
34028SOL    HW2 4092   0.815   1.138   1.963  2.4092 -0.3875  0.2600
34029SOL     OW 4093   4.503   6.844  11.076 -0.1372  0.0044 -0.4270
34029SOL    HW1 4094   4.461   6.874  10.996 -0.3123 -2.8522 -1.5334
34029SOL    HW2 4095   4.594   6.828  11.050 -0.0276 -0.3106  0.1355
34030SOL     OW 4096   6.608   8.422   0.281  0.3423 -0.2093  0.0755
34030SOL    HW1 4097   6.629   8.491   0.343  0.3931 -0.8231  0.7596
34030SOL    HW2 4098   6.692   8.383   0.257  0.6486  1.7783 -2.5462
34031SOL     OW 4099   7.554   7.156   9.479  0.0423 -0.7827 -1.1647
34031SOL    HW1 4100   7.459   7.147   9.474  0.1441 -1.7384 -1.5322
34031SOL    HW2 4101   7.574   7.142   9.572 -0.0548 -2.0357 -1.3096
34032SOL     OW 4102   0.347   7.294   3.025  0.4014  0.6160 -0.1076
34032SOL    HW1 4103   0.283   7.343   3.077  0.7479  2.0161 -0.9444
34032SOL    HW2 4104   0.294   7.252   2.957  0.0258 -0.7238  0.9707
34033SOL     OW 4105   0.173   9.537   3.915 -0.0894 -0.2239  0.2634
34033SOL    HW1 4106   0.191   9.626   3.945 -1.7095 -0.2557  1.5033
34033SOL    HW2 4107   0.088   9.544   3.870  0.6648 -0.8262 -1.3126
34034SOL     OW 4108   3.135   4.199   3.435 -0.1192 -0.0537  0.4883
34034SOL    HW1 4109   3.134   4.156   3.349  1.5806 -0.4556  0.6349
34034SOL    HW2 4110   3.185   4.279   3.421 -0.0782  0.0191  1.0364
34035SOL     OW 4111   5.060   1.656   1.517  0.2501  0.9841 -0.1661
34035SOL    HW1 4112   5.063   1.714   1.593  1.3052  0.6922  0.0281
34035SOL    HW2 4113   4.978   1.607   1.528  1.1686 -0.2581  1.7127
34036SOL     OW 4114  10.621  10.694   2.874 -0.1932 -0.2221 -0.3633
34036SOL    HW1 4115  10.650  10.728   2.958  0.5246 -1.9629  0.1397
34036SOL    HW2 4116  10.700  10.694   2.819 -0.0039 -1.6633 -0.1269
34037SOL     OW 4117   6.460   7.223   2.464 -0.0217  0.0401  0.4431
34037SOL    HW1 4118   6.443   7.170   2.386  1.4357 -0.4910  0.4582
34037SOL    HW2 4119   6.549   7.202   2.489 -0.1187  0.9560  1.6907
34038SOL     OW 4120   0.657   1.628   1.977  0.6396  0.6754  0.3044
34038SOL    HW1 4121   0.621   1.705   2.022  0.2495  1.1993 -0.8619
34038SOL    HW2 4122   0.609   1.554   2.015 -1.5258  1.3238 -0.9620
34039SOL     OW 4123   7.971   7.970   2.306  0.1298 -0.0116 -0.2088
34039SOL    HW1 4124   8.010   7.888   2.276 -1.1836  0.8702 -5.3194
34039SOL    HW2 4125   7.930   8.006   2.228 -2.0327  4.0806  2.4822
34040SOL     OW 4126   5.825   6.630   4.755 -0.2677 -0.7403  0.1537
34040SOL    HW1 4127   5.822   6.712   4.804 -0.4155 -1.4879  1.4427
34040SOL    HW2 4128   5.897   6.581   4.794  0.2115 -1.0073 -0.9950
34041SOL     OW 4129   8.465   6.135   4.438  0.4918 -0.0395  0.4924
34041SOL    HW1 4130   8.394   6.078   4.469 -1.7420  0.9154 -2.4241
34041SOL    HW2 4131   8.467   6.208   4.499 -0.7093 -0.3520  0.9213
34042SOL     OW 4132  10.320   8.527   9.879  0.2039  0.4674 -0.3388
34042SOL    HW1 4133  10.339   8.497   9.790  0.4345 -3.2858  0.7929
34042SOL    HW2 4134  10.227   8.552   9.876  0.1860  0.3262 -1.6175
34043SOL     OW 4135   5.383   0.828   1.949  0.3894  0.2491  0.0228
34043SOL    HW1 4136   5.399   0.754   2.008 -3.4103  0.3760  1.5346
34043SOL    HW2 4137   5.340   0.893   2.005 -0.4248  1.7438 -2.2321
34044SOL     OW 4138  10.589   8.305   0.988 -0.0255 -0.2214  0.0476
34044SOL    HW1 4139  10.584   8.396   0.958 -0.6137 -0.4542 -0.5794
34044SOL    HW2 4140  10.498   8.275   0.988  0.3761 -2.0172 -3.6336
34045SOL     OW 4141   8.383   4.523   1.263 -0.1507  0.0904  0.2137
34045SOL    HW1 4142   8.364   4.616   1.256 -1.3654 -0.2161 -0.9088
34045SOL    HW2 4143   8.355   4.499   1.352 -2.0283  0.3470 -0.2771
34046SOL     OW 4144   6.312   8.779   8.134  0.3134  0.3071 -0.6510
34046SOL    HW1 4145   6.400   8.746   8.154 -0.1265 -1.4676 -1.5129
34046SOL    HW2 4146   6.325   8.873   8.120  2.3441 -0.1091 -2.0707
34047SOL     OW 4147   1.257   7.631   9.735  0.9495  0.0604  0.2422
34047SOL    HW1 4148   1.181   7.674   9.696  1.5897  0.8418 -0.2040
34047SOL    HW2 4149   1.331   7.686   9.707  1.6678 -0.6825  0.6593
34048SOL     OW 4150   4.659   0.861   0.729  0.2841  0.2606 -0.3277
34048SOL    HW1 4151   4.698   0.852   0.816  1.0521 -1.5436 -0.8013
34048SOL    HW2 4152   4.661   0.955   0.711  0.6862  0.6065  1.3283
34049SOL     OW 4153   8.061   6.246   2.432  0.4463  0.5761  0.0541
34049SOL    HW1 4154   7.998   6.317   2.421 -0.4938 -0.3958 -0.9564
34049SOL    HW2 4155   8.084   6.250   2.525 -1.0777  0.9671  0.4483
34050SOL     OW 4156   6.896   0.601   3.617 -0.1957  0.4282  0.3051
34050SOL    HW1 4157   6.805   0.589   3.589 -0.4462 -2.7102  2.0249
34050SOL    HW2 4158   6.942   0.524   3.585  1.9222  1.8953 -0.4341
34051SOL     OW 4159   7.361   5.450  10.463 -0.2791 -0.2450  0.1231
34051SOL    HW1 4160   7.378   5.487  10.549 -1.0940 -2.0068  1.0825
34051SOL    HW2 4161   7.268   5.431  10.462 -0.8357  2.0005 -2.1114
34052SOL     OW 4162   1.990   3.404   8.644  0.1527 -0.2556  0.3276
34052SOL    HW1 4163   2.037   3.328   8.678 -3.1781 -1.2987  3.2221
34052SOL    HW2 4164   1.941   3.372   8.569 -0.2459 -0.6944  0.7646
34053SOL     OW 4165   0.765   8.055   0.818 -0.5001  0.0375  0.1268
34053SOL    HW1 4166   0.805   8.000   0.751 -0.4033 -0.9015  0.9534
34053SOL    HW2 4167   0.704   8.110   0.768  1.2107  0.9838 -1.0467
34054SOL     OW 4168   7.163   0.642   9.060 -0.4500  0.5348 -0.1574
34054SOL    HW1 4169   7.208   0.726   9.067 -0.7488  0.8059 -1.2439
34054SOL    HW2 4170   7.085   0.651   9.115 -0.3742  0.8948 -0.1052
34055SOL     OW 4171   5.599   2.997   0.881  0.2860 -0.6138  0.2657
34055SOL    HW1 4172   5.555   3.075   0.915  0.4977  0.2275 -1.2843
34055SOL    HW2 4173   5.552   2.924   0.921  1.0050  0.2634  2.9057
34056SOL     OW 4174   3.388  10.735   7.613  0.5012  0.2194  0.0390
34056SOL    HW1 4175   3.379  10.658   7.669 -2.4315  1.6558  1.7687
34056SOL    HW2 4176   3.404  10.808   7.673  1.9177  1.2076 -1.4344
34057SOL     OW 4177   6.770   2.998   4.691 -0.4017 -0.1788 -0.4394
34057SOL    HW1 4178   6.770   3.077   4.636  0.6134  0.0643 -0.1218
34057SOL    HW2 4179   6.707   3.016   4.760 -1.0280 -0.1230 -1.0188
34058SOL     OW 4180  10.178   5.589   5.702  0.0264  0.3857 -0.0311
34058SOL    HW1 4181  10.140   5.502   5.695  0.0648  0.1919  1.7094
34058SOL    HW2 4182  10.120   5.645   5.651 -0.3230 -0.5486 -0.6935
34059SOL     OW 4183   3.437   1.864   7.490 -0.9283  0.3625 -0.1733
34059SOL    HW1 4184   3.392   1.938   7.528 -0.3978 -0.6738  2.7026
34059SOL    HW2 4185   3.506   1.842   7.553  0.6203 -0.9518 -2.1824
34060SOL     OW 4186   7.003   7.037  10.926  0.4816  0.2048 -0.5697
34060SOL    HW1 4187   7.007   7.133  10.928  0.3652  0.2505 -1.7333
34060SOL    HW2 4188   6.909   7.017  10.926  0.5016  0.1091 -0.6758
34061SOL     OW 4189  10.369   5.014  10.022  0.0834  0.0769  0.2075
34061SOL    HW1 4190  10.434   4.957  10.064 -0.9784 -1.0067  0.4378
34061SOL    HW2 4191  10.402   5.026   9.933 -0.9887 -3.2815 -0.8020
34062SOL     OW 4192  10.113   7.256   8.306  0.7485  0.1286  0.0742
34062SOL    HW1 4193  10.080   7.166   8.299  0.9939  0.1333 -1.5830
34062SOL    HW2 4194  10.189   7.249   8.362 -0.9716 -0.1711  2.5300
34063SOL     OW 4195   0.304   0.207   7.192  0.1563 -0.2095  0.0142
34063SOL    HW1 4196   0.229   0.225   7.135  0.6374  1.8157 -0.0629
34063SOL    HW2 4197   0.324   0.115   7.177 -0.9037 -0.2100 -1.6782
34064SOL     OW 4198   9.731   3.623   0.938 -0.0014 -0.5941  0.1347
34064SOL    HW1 4199   9.809   3.678   0.945 -1.4760  1.5120  1.5866
34064SOL    HW2 4200   9.701   3.635   0.847  0.4543 -0.0510  0.0497
34065SOL     OW 4201   7.869   5.363   1.773  0.5079 -0.1543 -0.8786
34065SOL    HW1 4202   7.955   5.338   1.807  1.7266  1.9214 -2.1488
34065SOL    HW2 4203   7.841   5.288   1.720  0.9192 -1.3702  0.5725
34066SOL     OW 4204   5.110   3.830   8.530 -0.3976 -0.0652 -0.3157
34066SOL    HW1 4205   5.152   3.910   8.563  1.0700 -0.3007 -1.5260
34066SOL    HW2 4206   5.073   3.855   8.446 -0.4722 -0.5149 -0.4177
34067SOL     OW 4207   9.996   3.680   9.794  0.4360  0.5823  0.4719
34067SOL    HW1 4208   9.946   3.613   9.748  0.6381 -0.1727  1.3255
34067SOL    HW2 4209  10.074   3.693   9.741 -0.8613  2.1561 -1.1633
34068SOL     OW 4210   6.001   3.708   4.459  0.0614  0.1858 -0.2632
34068SOL    HW1 4211   6.073   3.770   4.448 -0.8835  1.2549 -0.5189
34068SOL    HW2 4212   6.010   3.677   4.549  0.7852  0.3697 -0.2623
34069SOL     OW 4213   6.344   4.032   8.552  0.1470  0.6304 -0.4746
34069SOL    HW1 4214   6.320   3.945   8.584 -1.3775  0.9352 -0.6842
34069SOL    HW2 4215   6.380   4.017   8.465 -1.0948  0.2793 -0.9435
34070SOL     OW 4216   3.626   2.676   8.228  0.0174 -0.3624  0.1154
34070SOL    HW1 4217   3.690   2.682   8.299 -0.3528 -0.2891  0.4453
34070SOL    HW2 4218   3.679   2.666   8.149  0.5554  2.2443  0.0606
34071SOL     OW 4219   2.905   0.735   0.248  0.4576  0.0417  0.0013
34071SOL    HW1 4220   2.954   0.676   0.191  2.3133  0.7524  0.7622
34071SOL    HW2 4221   2.861   0.677   0.310  1.7217 -0.6069  0.3390
34072SOL     OW 4222   6.999   7.721  10.385 -0.1558  0.4215 -0.6595
34072SOL    HW1 4223   6.908   7.746  10.399  0.2656  2.0482 -0.5392
34072SOL    HW2 4224   6.995   7.643  10.330 -1.6412 -0.5221  0.6898
34073SOL     OW 4225   7.846   8.198   2.882 -0.4145 -0.0257 -0.2600
34073SOL    HW1 4226   7.857   8.103   2.883  0.8667  0.0503 -1.9806
34073SOL    HW2 4227   7.806   8.218   2.966 -1.9978 -2.2268 -0.3635
34074SOL     OW 4228   7.303   8.278   0.422  0.5538  0.0694 -0.6190
34074SOL    HW1 4229   7.227   8.288   0.479 -0.5789  0.6169 -2.1589
34074SOL    HW2 4230   7.334   8.367   0.407  1.0650 -0.0972 -0.5767
34075SOL     OW 4231   0.054  10.672  10.093  0.2837 -0.4573 -0.8094
34075SOL    HW1 4232   0.062  10.577  10.082  1.4631 -0.5279  0.4311
34075SOL    HW2 4233   0.058  10.686  10.188  2.3982  1.0019 -1.0441
34076SOL     OW 4234   9.179   3.565   1.713  0.5432  0.7159 -0.4570
34076SOL    HW1 4235   9.136   3.621   1.777 -0.1548  0.2099 -0.4793
34076SOL    HW2 4236   9.182   3.617   1.633  0.9640  1.1578 -0.1612
34077SOL     OW 4237   4.941   1.447   3.335  0.5435 -0.5583 -0.1007
34077SOL    HW1 4238   4.870   1.385   3.316 -1.2049  1.9204 -2.3773
34077SOL    HW2 4239   4.983   1.462   3.251  2.3331 -0.2400  0.8131
34078SOL     OW 4240   3.435   8.643   7.992  0.2213 -0.0369 -0.3868
34078SOL    HW1 4241   3.353   8.618   8.034 -0.2390 -0.6579 -1.6128
34078SOL    HW2 4242   3.411   8.664   7.901  0.6025  4.6173  0.3256
34079SOL     OW 4243   3.188   0.531   6.757  0.3036 -0.6248  0.7593
34079SOL    HW1 4244   3.283   0.535   6.750  0.5364 -2.3581  2.3192
34079SOL    HW2 4245   3.171   0.485   6.839 -1.8805 -0.7801  0.2885
34080SOL     OW 4246   7.117   8.056   0.217  0.1495  0.2543 -0.2529
34080SOL    HW1 4247   7.115   7.962   0.234  1.0500 -0.3280 -2.8639
34080SOL    HW2 4248   7.028   8.086   0.235 -0.0750 -0.9999  0.8984
34081SOL     OW 4249   8.268   5.150   7.185  0.2105 -0.1840 -0.0175
34081SOL    HW1 4250   8.222   5.126   7.104  1.1287 -0.4573 -0.4622
34081SOL    HW2 4251   8.330   5.079   7.199  0.4261  0.1337  0.6418
34082SOL     OW 4252  10.869   7.829   8.491 -0.3399  0.1010  0.0793
34082SOL    HW1 4253  10.788   7.833   8.542 -1.3461  1.7215 -1.5349
34082SOL    HW2 4254  10.916   7.910   8.514 -1.4293  1.5382 -2.4236
34083SOL     OW 4255   6.132   3.365   9.103  0.1337 -0.0365 -0.1933
34083SOL    HW1 4256   6.135   3.282   9.056  0.0739 -0.8526  1.1899
34083SOL    HW2 4257   6.202   3.359   9.168 -1.0474  0.1911  1.1662
34084SOL     OW 4258   8.034  10.345   9.425  0.3178  0.1119 -0.4352
34084SOL    HW1 4259   7.995  10.372   9.342  1.5763  2.1133 -0.4641
34084SOL    HW2 4260   8.090  10.419   9.450  3.1038 -2.0158  0.1975
34085SOL     OW 4261  10.591   7.898   3.132 -0.0005  0.1244  0.0329
34085SOL    HW1 4262  10.518   7.958   3.114  1.5970  1.4734 -2.6764
34085SOL    HW2 4263  10.659   7.925   3.070  2.0047 -2.4820  0.9385
34086SOL     OW 4264   6.006  11.089  10.674 -0.2739  0.0624  0.1231
34086SOL    HW1 4265   5.969  11.112  10.759 -0.1373 -2.2919  0.8906
34086SOL    HW2 4266   6.041  11.172  10.640  2.1719  0.6544  3.5802
34087SOL     OW 4267   2.910   1.960   5.418  0.4580  0.4187 -0.0863
34087SOL    HW1 4268   2.866   1.949   5.334  0.5134  0.0770 -0.0697
34087SOL    HW2 4269   2.973   1.889   5.423 -0.9922 -0.8598  1.1695
34088SOL     OW 4270   9.282   6.425   5.261 -0.5758  0.1693 -0.0996
34088SOL    HW1 4271   9.248   6.360   5.322 -0.0983  1.1078  1.2156
34088SOL    HW2 4272   9.303   6.375   5.182 -0.4178 -1.2277  0.7915
34089SOL     OW 4273   2.861   4.009   4.910  0.6001 -0.4292  0.0320
34089SOL    HW1 4274   2.816   4.017   4.994  0.4375  0.1687 -0.1081
34089SOL    HW2 4275   2.902   4.094   4.896  0.2338 -0.3590 -0.7106
34090SOL     OW 4276   0.121  10.422   7.133  0.1939 -0.2626 -0.0873
34090SOL    HW1 4277   0.138  10.358   7.203 -0.1942  1.8907  2.1185
34090SOL    HW2 4278   0.188  10.489   7.146 -1.3907  1.3982 -0.1755
34091SOL     OW 4279   0.624  10.373   5.271 -0.4671  0.8002 -0.2206
34091SOL    HW1 4280   0.548  10.321   5.245  0.3037 -0.8877  0.7188
34091SOL    HW2 4281   0.660  10.406   5.189 -2.0310  1.3850 -0.6939
34092SOL     OW 4282   7.874   7.170   8.774  0.1116 -0.0942 -0.3777
34092SOL    HW1 4283   7.806   7.225   8.812  1.0983  1.5053 -0.8084
34092SOL    HW2 4284   7.827   7.105   8.722 -1.1036  0.9530 -0.6267
34093SOL     OW 4285   6.991   8.752   6.320 -0.2940  0.0344 -0.2762
34093SOL    HW1 4286   6.988   8.798   6.404  1.3593 -1.4112  0.6476
34093SOL    HW2 4287   7.061   8.795   6.271  1.2274 -1.3806  0.5731
34094SOL     OW 4288   1.221   0.922   3.272 -0.0001  0.8453 -0.3034
34094SOL    HW1 4289   1.249   0.830   3.274  0.3468  0.9525  0.0490
34094SOL    HW2 4290   1.203   0.939   3.180  1.2718  0.8068 -0.5786
34095SOL     OW 4291   9.674   2.351   3.627  0.2054 -0.4266  0.6315
34095SOL    HW1 4292   9.703   2.358   3.536  0.3373  1.5255  0.7772
34095SOL    HW2 4293   9.590   2.306   3.622  1.2234 -2.3610 -0.2052
34096SOL     OW 4294   0.510   3.844   0.490  0.6289  0.1699  0.1832
34096SOL    HW1 4295   0.571   3.827   0.418  0.8024 -3.5008  0.9697
34096SOL    HW2 4296   0.560   3.895   0.553  2.1091 -0.6615 -0.2685
34097SOL     OW 4297   7.862   8.199   5.793 -0.1252 -0.4379 -0.1111
34097SOL    HW1 4298   7.778   8.242   5.775  0.1329  0.3599  0.5121
34097SOL    HW2 4299   7.847   8.154   5.877  0.1691 -0.0254  0.1614
34098SOL     OW 4300  10.097   3.375   2.608 -0.3326 -0.0388  0.4022
34098SOL    HW1 4301  10.161   3.428   2.560  1.9304 -2.3670  0.6307
34098SOL    HW2 4302  10.046   3.438   2.658 -0.1808  2.1567 -2.0366
34099SOL     OW 4303  10.369   7.091   7.073  0.0619  0.1282 -0.8723
34099SOL    HW1 4304  10.317   7.131   7.142 -0.2505 -1.3221 -0.2314
34099SOL    HW2 4305  10.455   7.077   7.112  0.0728 -0.1132 -0.9811
34100SOL     OW 4306  10.045   8.784   9.720 -0.0364  0.2533  0.1008
34100SOL    HW1 4307  10.075   8.724   9.653 -3.7141 -0.0860 -1.4999
34100SOL    HW2 4308  10.055   8.736   9.802  0.6048 -1.0389 -0.7033
34101SOL     OW 4309   4.094   0.689   7.858 -0.0397  0.7580  0.4439
34101SOL    HW1 4310   4.057   0.693   7.947  1.9131  0.0319  1.3420
34101SOL    HW2 4311   4.175   0.639   7.868 -0.6915 -1.0415 -2.0826
34102SOL     OW 4312   5.901   3.399   2.479 -0.0357  0.0129 -0.3345
34102SOL    HW1 4313   5.884   3.344   2.556 -0.9811 -0.0864 -0.6074
34102SOL    HW2 4314   5.930   3.336   2.412  0.0700  0.0072 -0.2846
34103SOL     OW 4315   7.526   7.004   0.238 -0.0407 -0.4918  0.5363
34103SOL    HW1 4316   7.601   6.999   0.297 -0.4925  1.4137  1.3606
34103SOL    HW2 4317   7.551   7.071   0.175 -0.1111 -1.5680 -0.6695
34104SOL     OW 4318   8.391   6.151  10.041 -0.1447 -0.3521  0.6623
34104SOL    HW1 4319   8.422   6.240  10.026  2.9858 -1.6027 -1.3358
34104SOL    HW2 4320   8.419   6.131  10.130  0.8146  0.1016  0.4800
34105SOL     OW 4321  10.318   9.880  10.558  0.0463  0.3775 -0.0857
34105SOL    HW1 4322  10.255   9.952  10.548 -0.4238 -0.0330 -0.1085
34105SOL    HW2 4323  10.403   9.922  10.545 -0.1117  1.2198  1.3742
34106SOL     OW 4324   7.068   7.362   2.191 -0.3179 -0.2652  0.7676
34106SOL    HW1 4325   7.008   7.378   2.118  1.2010  3.0517  0.0462
34106SOL    HW2 4326   7.119   7.285   2.164 -3.3835 -2.5318  0.9549
34107SOL     OW 4327   7.255   8.803   1.541 -0.1173 -0.3136  0.3675
34107SOL    HW1 4328   7.271   8.881   1.488  0.1133  0.1770  1.1346
34107SOL    HW2 4329   7.169   8.772   1.515 -0.7369  0.9063  0.9090
34108SOL     OW 4330   7.905   6.989   5.697 -0.2890 -0.4257  0.4051
34108SOL    HW1 4331   7.941   6.900   5.700  0.4299 -0.1203  1.9820
34108SOL    HW2 4332   7.892   7.006   5.604 -0.8468 -2.3328  0.0906
34109SOL     OW 4333   5.199   0.154   2.801  0.2013  0.1504 -0.3954
34109SOL    HW1 4334   5.238   0.209   2.733  1.8904 -0.0249  0.3829
34109SOL    HW2 4335   5.219   0.064   2.774  0.1856  0.0491 -0.0788
34110SOL     OW 4336   5.141   1.212   5.823  0.4094 -0.3415 -0.2248
34110SOL    HW1 4337   5.094   1.143   5.778 -1.1599 -0.5757  1.6333
34110SOL    HW2 4338   5.201   1.166   5.882 -0.9871 -0.2417  1.3803
34111SOL     OW 4339   3.387   8.604  11.033  0.2637  0.1381 -0.0754
34111SOL    HW1 4340   3.457   8.600  11.098 -0.5885 -1.2861  0.8159
34111SOL    HW2 4341   3.334   8.526  11.050 -1.1288  0.7915 -1.1920
34112SOL     OW 4342   4.507   3.310   2.029  0.0294 -0.1187  0.0453
34112SOL    HW1 4343   4.494   3.222   2.066  2.2045 -1.3811 -1.9258
34112SOL    HW2 4344   4.525   3.365   2.105 -1.7449 -1.2295  1.3831
34113SOL     OW 4345   2.416   7.208   8.743 -0.8344  0.2510  0.1860
34113SOL    HW1 4346   2.476   7.265   8.794 -0.1117 -0.9736  0.7496
34113SOL    HW2 4347   2.333   7.212   8.791 -0.4349 -0.1196  0.9281
34114SOL     OW 4348   5.677   9.341   9.239 -0.3804  0.4693  0.6571
34114SOL    HW1 4349   5.735   9.275   9.277 -0.1820  0.2628  0.0100
34114SOL    HW2 4350   5.650   9.395   9.313 -0.7382 -0.4781  1.2395
34115SOL     OW 4351   7.242   3.900   6.143 -0.3771  0.3419  0.0129
34115SOL    HW1 4352   7.267   3.844   6.216  0.3556  1.4481  0.6313
34115SOL    HW2 4353   7.311   3.887   6.078  1.1638  2.3464  1.1586
34116SOL     OW 4354   4.414   1.207   5.296 -0.0283 -0.8118 -0.0956
34116SOL    HW1 4355   4.366   1.130   5.264 -0.9627  0.9091 -3.2166
34116SOL    HW2 4356   4.499   1.201   5.253  0.0999 -0.3420  0.0903
34117SOL     OW 4357   0.029   9.029   3.419  0.5648  0.0610 -0.3283
34117SOL    HW1 4358   0.084   9.005   3.493 -2.0402  0.2886  1.8377
34117SOL    HW2 4359   0.000   8.946   3.382  0.4330 -0.0803  0.0898
34118SOL     OW 4360   1.129   4.668   3.230 -0.6358  0.3624  0.0420
34118SOL    HW1 4361   1.166   4.624   3.307 -0.7540  1.2815  0.6403
34118SOL    HW2 4362   1.037   4.682   3.253 -0.1899  2.5970  0.6772
34119SOL     OW 4363   9.734   6.894   0.713  0.2755  0.3739 -0.3129
34119SOL    HW1 4364   9.666   6.828   0.729  1.4207 -1.1648 -1.4496
34119SOL    HW2 4365   9.786   6.895   0.793 -0.3029  0.5960  0.0639
34120SOL     OW 4366   6.894   3.144   6.693 -0.1738  0.5423 -0.2619
34120SOL    HW1 4367   6.935   3.107   6.616 -2.4872 -0.2406 -1.2207
34120SOL    HW2 4368   6.837   3.214   6.660 -0.2259  1.0713  0.8795
34121SOL     OW 4369   1.691   6.063   9.058  0.0069 -0.5475 -0.3419
34121SOL    HW1 4370   1.780   6.030   9.068 -0.2420 -0.8281  1.2306
34121SOL    HW2 4371   1.661   6.080   9.148  0.1728  4.2498 -0.9651
34122SOL     OW 4372   6.039   6.849   2.690  0.0453 -0.1840  0.1157
34122SOL    HW1 4373   6.053   6.828   2.782 -1.0953  1.8444  0.8295
34122SOL    HW2 4374   6.110   6.910   2.669 -0.4182  0.3372  0.0431
34123SOL     OW 4375   6.013   4.757  10.752 -0.0054 -0.2468 -0.7054
34123SOL    HW1 4376   6.058   4.677  10.725  1.6152 -0.0959  1.3315
34123SOL    HW2 4377   6.059   4.827  10.706  0.5959 -0.2606 -0.1421
34124SOL     OW 4378  10.540   8.475   3.804 -0.0229 -0.9120  0.4674
34124SOL    HW1 4379  10.609   8.488   3.739  0.2296  0.2316  0.9372
34124SOL    HW2 4380  10.510   8.385   3.789 -1.1465 -0.2006 -2.3706
34125SOL     OW 4381   0.659   8.887   6.558  0.2156  0.4714  0.3462
34125SOL    HW1 4382   0.602   8.956   6.525  1.1054  1.2300  0.3588
34125SOL    HW2 4383   0.650   8.893   6.653  1.0920  1.2724  0.3845
34126SOL     OW 4384   8.007   2.799   7.850 -0.3406 -0.7048  0.2752
34126SOL    HW1 4385   8.025   2.771   7.760 -1.5411  2.3157 -1.0233
34126SOL    HW2 4386   7.913   2.784   7.861 -0.2311 -0.8997  0.9901
34127SOL     OW 4387   4.350   6.921  10.183  0.8118  0.7664  0.8986
34127SOL    HW1 4388   4.279   6.982  10.162  0.2912  0.3018  1.2860
34127SOL    HW2 4389   4.427   6.957  10.139 -0.1045  0.1299 -1.3845
34128SOL     OW 4390   7.058   9.503   7.443 -0.0311 -0.2282  0.3881
34128SOL    HW1 4391   7.029   9.416   7.469  1.0979 -0.3525  1.2663
34128SOL    HW2 4392   7.071   9.496   7.348 -0.7859 -0.7598  0.3160
34129SOL     OW 4393   9.875   4.333  10.920  0.5684  0.1520 -0.1287
34129SOL    HW1 4394   9.935   4.303  10.988 -2.4174 -0.4508  2.5198
34129SOL    HW2 4395   9.886   4.271  10.848  3.2403  0.2814  0.0704
34130SOL     OW 4396   6.255  10.082   2.422 -0.6094  0.2542 -0.0701
34130SOL    HW1 4397   6.345  10.053   2.436 -0.8614 -0.3126  0.4057
34130SOL    HW2 4398   6.219  10.017   2.362 -0.7482  0.3973 -0.1414
34131SOL     OW 4399   5.490   7.848   9.802  0.3140 -0.0904 -0.1782
34131SOL    HW1 4400   5.502   7.916   9.869  4.5339 -0.5606 -0.1529
34131SOL    HW2 4401   5.431   7.785   9.842 -0.5277  1.6052  1.4181
34132SOL     OW 4402   7.758  10.368   5.500 -0.5775  0.9464  0.1809
34132SOL    HW1 4403   7.803  10.407   5.575 -1.0639  0.2906  0.8288
34132SOL    HW2 4404   7.745  10.277   5.526  2.8514 -0.4723 -2.2893
34133SOL     OW 4405  11.042   6.460   5.533  0.0385  0.6372 -0.5878
34133SOL    HW1 4406  10.960   6.441   5.580  0.2505  0.5879 -0.2352
34133SOL    HW2 4407  11.076   6.540   5.574  0.7454  0.0288  0.0300
34134SOL     OW 4408   2.552   6.097   1.805 -0.2096 -0.1723  0.2022
34134SOL    HW1 4409   2.613   6.023   1.804  1.7946  1.3929 -0.5469
34134SOL    HW2 4410   2.567   6.139   1.890 -1.4468 -0.6551  0.6873
34135SOL     OW 4411   4.956   7.509  10.408 -0.2004  0.1099 -0.0648
34135SOL    HW1 4412   4.931   7.462  10.488 -0.3690 -1.6294 -1.0868
34135SOL    HW2 4413   5.046   7.481  10.391 -0.7954 -1.0738 -1.4894
34136SOL     OW 4414   9.649   5.411   3.090  0.2037 -0.3445  0.5793
34136SOL    HW1 4415   9.559   5.441   3.104  0.1851  0.4399 -1.0130
34136SOL    HW2 4416   9.654   5.329   3.139 -1.8454 -1.1724 -0.4502
34137SOL     OW 4417  10.767  10.204  10.105  0.0173  0.5705 -0.7145
34137SOL    HW1 4418  10.687  10.232  10.062 -0.3233  0.0828 -0.4014
34137SOL    HW2 4419  10.744  10.199  10.198  0.4561  0.5962 -0.5995
34138SOL     OW 4420   6.860   9.379   6.671  0.3259  0.1259 -0.0309
34138SOL    HW1 4421   6.920   9.305   6.681 -1.2210 -1.2581 -0.4854
34138SOL    HW2 4422   6.874   9.409   6.581  2.7667  2.1149  0.9151
34139SOL     OW 4423   8.237   4.227   5.225 -0.3874  0.7570  0.0246
34139SOL    HW1 4424   8.299   4.180   5.169  0.7208  0.0858  1.7248
34139SOL    HW2 4425   8.154   4.226   5.176 -0.1057 -1.9433 -0.5540
34140SOL     OW 4426   6.090   6.516   9.291 -0.2081  0.3195  0.5936
34140SOL    HW1 4427   5.996   6.506   9.280 -0.3147  0.5378  1.2963
34140SOL    HW2 4428   6.112   6.596   9.245 -0.7284  1.4905  2.2825
34141SOL     OW 4429   8.931   2.967   2.800 -0.1970 -0.3587 -0.5399
34141SOL    HW1 4430   8.942   2.915   2.720  1.2054 -1.8757  0.5831
34141SOL    HW2 4431   8.874   2.915   2.855 -0.4131  0.2494 -0.1789
34142SOL     OW 4432   8.782   5.017   2.221  0.0633 -0.1673 -0.3657
34142SOL    HW1 4433   8.766   5.111   2.230  1.0617 -0.1061  1.1036
34142SOL    HW2 4434   8.804   4.987   2.309  1.5738 -1.4281 -1.1062
34143SOL     OW 4435   3.578   3.138   5.512  0.3604  0.1888  0.4820
34143SOL    HW1 4436   3.577   3.226   5.474 -0.0061  0.2696  0.6678
34143SOL    HW2 4437   3.533   3.149   5.596  0.5172 -0.1312  0.6075
34144SOL     OW 4438  10.532   1.346   8.561 -0.1132 -0.2469  0.1051
34144SOL    HW1 4439  10.460   1.290   8.591 -0.0546  0.0930  0.9259
34144SOL    HW2 4440  10.611   1.293   8.577 -0.0599  0.0441  0.8533
34145SOL     OW 4441   5.755   7.642   0.522 -0.2934 -0.3303  0.2527
34145SOL    HW1 4442   5.710   7.557   0.520 -1.4144  0.2614 -1.2276
34145SOL    HW2 4443   5.807   7.644   0.442 -0.8545  0.6503 -0.1067
34146SOL     OW 4444   6.537   2.714   2.321  0.5405 -0.3593  0.4879
34146SOL    HW1 4445   6.610   2.764   2.284 -0.2248  0.2370 -0.2426
34146SOL    HW2 4446   6.568   2.688   2.408  1.3556  0.4959  0.4726
34147SOL     OW 4447   0.254   8.033   1.852 -0.8540 -0.4602  0.1434
34147SOL    HW1 4448   0.319   7.989   1.797 -1.4806  0.1077 -1.1167
34147SOL    HW2 4449   0.294   8.037   1.939  2.0994  2.4494 -1.1286
34148SOL     OW 4450   9.771   7.461   3.702  0.5016  0.3944 -0.7983
34148SOL    HW1 4451   9.705   7.471   3.770  1.6770 -0.7761  0.5853
34148SOL    HW2 4452   9.790   7.367   3.701  4.1161  0.9220  0.8885
34149SOL     OW 4453   4.179   5.803   0.965  0.4840  0.3476  0.5937
34149SOL    HW1 4454   4.105   5.785   1.022 -1.7164  0.5842 -1.9738
34149SOL    HW2 4455   4.223   5.879   1.004  0.8995 -1.2400  3.4441
34150SOL     OW 4456   2.753   9.425   9.267  0.2707 -0.1204  0.0673
34150SOL    HW1 4457   2.680   9.480   9.238  0.1309 -0.4551 -0.2093
34150SOL    HW2 4458   2.712   9.358   9.322  0.2746 -0.7398 -0.6705
34151SOL     OW 4459   7.801   7.596   0.375 -0.2554  0.4978  0.0154
34151SOL    HW1 4460   7.858   7.668   0.403  0.5590 -0.0428 -0.1954
34151SOL    HW2 4461   7.784   7.546   0.455 -0.7243  0.8614  0.1412
34152SOL     OW 4462   2.012  10.045   0.732 -0.5898  0.3214  0.3114
34152SOL    HW1 4463   2.059  10.081   0.808  0.4653 -1.7510  0.7005
34152SOL    HW2 4464   2.080  10.023   0.669 -1.2799 -0.0545 -0.3178
34153SOL     OW 4465   0.978   8.970   7.325 -0.3551  0.0889  0.7332
34153SOL    HW1 4466   0.887   8.991   7.306 -0.2846  0.8139  1.1502
34153SOL    HW2 4467   1.016   9.052   7.357  0.6122 -0.0415 -0.0295
34154SOL     OW 4468   9.636   7.585   4.209 -0.2452 -0.3210  0.1300
34154SOL    HW1 4469   9.603   7.616   4.294  0.8752  1.2701  0.0310
34154SOL    HW2 4470   9.713   7.640   4.192  1.6206 -2.9112 -0.3100
34155SOL     OW 4471   6.648   4.765   6.232 -0.3084 -0.3382 -0.0041
34155SOL    HW1 4472   6.671   4.827   6.163  0.3250  0.2322  0.6934
34155SOL    HW2 4473   6.604   4.819   6.298 -0.9214 -0.8763  0.0339
34156SOL     OW 4474  10.798   1.854   8.309  0.1483 -0.7143  0.4858
34156SOL    HW1 4475  10.868   1.842   8.245  1.5438  2.7064  1.1612
34156SOL    HW2 4476  10.795   1.771   8.357  2.2833 -1.7029 -0.9122
34157SOL     OW 4477   6.295  10.353   8.979  0.1751 -0.0146  0.1389
34157SOL    HW1 4478   6.347  10.293   9.033 -1.0761 -1.8667 -0.6300
34157SOL    HW2 4479   6.347  10.433   8.977  2.3463 -1.3139  0.5155
34158SOL     OW 4480   9.741  10.178   1.949 -0.6930  0.3111  0.3977
34158SOL    HW1 4481   9.762  10.131   1.868  1.7704  1.2211  0.4178
34158SOL    HW2 4482   9.765  10.269   1.931  2.3115  0.1742  2.8013
34159SOL     OW 4483   0.150   2.022   2.165 -0.3952 -0.7564 -0.3932
34159SOL    HW1 4484   0.086   2.016   2.235 -1.4891  0.7462 -1.2220
34159SOL    HW2 4485   0.101   2.055   2.089  0.9910 -1.2221 -1.5524
34160SOL     OW 4486   7.391   5.761  10.607 -0.2993 -0.1773 -0.3057
34160SOL    HW1 4487   7.314   5.710  10.582 -0.5634 -0.1784  0.4669
34160SOL    HW2 4488   7.373   5.789  10.697  0.8889 -0.7529  0.1476
34161SOL     OW 4489   0.103   3.911   1.500 -0.4291  0.0518  0.4354
34161SOL    HW1 4490   0.189   3.953   1.493 -0.8391  0.7164 -0.7633
34161SOL    HW2 4491   0.113   3.850   1.573  1.1453 -0.0654  0.1639
34162SOL     OW 4492   9.769   3.635   1.353 -0.6503  0.7302  0.4262
34162SOL    HW1 4493   9.762   3.669   1.442 -2.2483  1.8949 -0.0938
34162SOL    HW2 4494   9.763   3.540   1.363  0.0154  0.7869  1.6030
34163SOL     OW 4495   6.384   9.219   4.941 -0.8092  0.4951  0.3304
34163SOL    HW1 4496   6.313   9.196   5.000  0.5390 -0.1025  1.7718
34163SOL    HW2 4497   6.464   9.214   4.994  0.5138 -0.4090 -1.5874
34164SOL     OW 4498   9.470   2.911   6.602  0.6684  0.0634 -0.4184
34164SOL    HW1 4499   9.491   2.817   6.603  0.0624 -0.0892 -1.0613
34164SOL    HW2 4500   9.524   2.948   6.671  0.0183 -0.9568  0.6789
34165SOL     OW 4501   2.464   6.238   4.258 -0.6578  1.0464 -0.4794
34165SOL    HW1 4502   2.506   6.265   4.176  0.8231 -1.0645 -0.4871
34165SOL    HW2 4503   2.508   6.291   4.325 -0.4269  1.3236 -0.8417
34166SOL     OW 4504   9.872   6.659  10.566  0.0267  0.1603 -0.5035
34166SOL    HW1 4505   9.894   6.689  10.478 -0.6803  0.1748 -0.6788
34166SOL    HW2 4506   9.929   6.711  10.623 -0.9747  1.6808 -0.8191
34167SOL     OW 4507   6.195   6.131   2.892 -0.0160 -0.1350  0.4051
34167SOL    HW1 4508   6.138   6.188   2.944 -1.0458 -0.0829 -0.7368
34167SOL    HW2 4509   6.221   6.061   2.952 -0.6888  0.2384  1.1464
34168SOL     OW 4510   0.116   2.322   8.326  0.2720 -0.3949  0.1735
34168SOL    HW1 4511   0.203   2.363   8.321 -0.2892  0.7407 -0.7484
34168SOL    HW2 4512   0.109   2.290   8.416  1.5542 -0.3098  0.3210
34169SOL     OW 4513   8.466   5.569   4.187  0.1307  0.3268 -0.1085
34169SOL    HW1 4514   8.543   5.519   4.214 -0.1054 -1.0972 -1.9039
34169SOL    HW2 4515   8.430   5.603   4.269  2.0166  0.0864  0.8720
34170SOL     OW 4516   0.076   0.938   5.042  0.5229 -0.1826  0.6287
34170SOL    HW1 4517   0.035   0.945   4.956 -1.9345 -0.1774  1.7103
34170SOL    HW2 4518   0.092   0.844   5.053  2.1240 -0.0580 -0.3290
34171SOL     OW 4519   0.614   4.056   0.655 -0.1406  0.0692  0.0950
34171SOL    HW1 4520   0.681   4.117   0.625  1.1500 -0.8175  1.0719
34171SOL    HW2 4521   0.551   4.110   0.703 -0.8465  1.1047 -1.8977
34172SOL     OW 4522  10.462   4.228   6.891  0.3106  0.0902 -0.1018
34172SOL    HW1 4523  10.472   4.311   6.938  0.2414 -0.1262  0.2972
34172SOL    HW2 4524  10.390   4.183   6.935 -0.4992  0.3521 -1.1074
34173SOL     OW 4525   9.115   5.432   0.767 -0.1002  1.0286 -0.3395
34173SOL    HW1 4526   9.052   5.466   0.704  1.3236  3.3915 -0.6320
34173SOL    HW2 4527   9.099   5.483   0.846  0.4066  0.5386  0.0830
34174SOL     OW 4528   5.295   1.181   9.232 -0.4776  0.0893 -0.0748
34174SOL    HW1 4529   5.244   1.103   9.252  0.5798 -0.4148  0.7631
34174SOL    HW2 4530   5.244   1.227   9.166 -1.4423 -0.9741 -0.0966
34175SOL     OW 4531   1.372   0.024  10.871  0.3169 -0.1784  0.2832
34175SOL    HW1 4532   1.307   0.069  10.816 -0.8600 -0.6722  1.2410
34175SOL    HW2 4533   1.439  -0.006  10.809 -0.1088  0.7624 -0.6637
34176SOL     OW 4534   6.534  10.550   0.770  0.3672  0.4497  0.3371
34176SOL    HW1 4535   6.548  10.457   0.750  0.7466  0.5944 -0.1014
34176SOL    HW2 4536   6.461  10.576   0.712  0.6394  0.5611  0.0383
34177SOL     OW 4537   0.059  10.355   5.100  0.0937 -0.6955 -0.6287
34177SOL    HW1 4538   0.083  10.386   5.187 -0.6513 -0.0485 -0.6358
34177SOL    HW2 4539   0.134  10.378   5.045 -0.2019  0.6297 -0.5209
34178SOL     OW 4540   7.176   8.771   5.638 -0.3216 -0.2118 -0.1876
34178SOL    HW1 4541   7.081   8.774   5.623 -0.5039  0.4046  0.9329
34178SOL    HW2 4542   7.211   8.844   5.587 -0.7471  0.9651  1.1340
34179SOL     OW 4543   6.068   8.954   5.977 -0.8787 -0.2423  0.4314
34179SOL    HW1 4544   6.062   8.929   5.885  0.4513 -0.8232  0.4825
34179SOL    HW2 4545   6.053   9.049   5.977  1.9689  0.3197 -0.7957
34180SOL     OW 4546   2.433  10.085   0.504 -0.8521  0.2961  0.3747
34180SOL    HW1 4547   2.516  10.121   0.475  0.2021 -1.3758  1.1718
34180SOL    HW2 4548   2.379  10.083   0.425 -0.7259  2.7786  0.1336
34181SOL     OW 4549   6.259   3.700   9.841  0.0388 -0.5632 -0.7679
34181SOL    HW1 4550   6.250   3.657   9.926 -0.1683 -1.9770 -1.4782
34181SOL    HW2 4551   6.354   3.705   9.826  0.2236  2.0918  0.6735
34182SOL     OW 4552   9.745   0.173   3.545 -0.9592 -0.5476  0.3620
34182SOL    HW1 4553   9.732   0.080   3.560 -4.6753 -0.0996  0.8764
34182SOL    HW2 4554   9.782   0.206   3.627 -0.8071 -1.3572  0.6219
34183SOL     OW 4555   1.079   7.392   4.370  0.0665 -0.3113 -0.0154
34183SOL    HW1 4556   1.109   7.425   4.455  1.3066 -2.2354  0.3612
34183SOL    HW2 4557   1.131   7.313   4.355 -0.2046 -0.0856 -2.5410
34184SOL     OW 4558   9.248   6.554   8.328 -0.1339 -0.4713 -0.6215
34184SOL    HW1 4559   9.205   6.468   8.329  0.6059 -0.8483 -0.5907
34184SOL    HW2 4560   9.261   6.576   8.420  0.0475 -0.5152 -0.6365
34185SOL     OW 4561   3.284   6.933   0.665 -0.3343 -0.0230  0.2341
34185SOL    HW1 4562   3.296   6.998   0.595 -3.4197  0.7410  0.2790
34185SOL    HW2 4563   3.303   6.981   0.746 -1.0219  0.3935  0.1582
34186SOL     OW 4564   0.731   4.828   5.999 -0.3726  0.1644  0.2720
34186SOL    HW1 4565   0.798   4.807   5.933  0.3093  1.6314  0.4533
34186SOL    HW2 4566   0.672   4.889   5.956 -0.0124  1.0145  0.9370
34187SOL     OW 4567   0.198   1.667   4.934 -0.0129  0.6662  0.2407
34187SOL    HW1 4568   0.131   1.735   4.927 -0.4286  0.1738 -0.8388
34187SOL    HW2 4569   0.192   1.620   4.851  1.5096  0.4581  0.2300
34188SOL     OW 4570   7.166   8.883   6.158 -0.3293  0.1039  0.1374
34188SOL    HW1 4571   7.243   8.939   6.161 -0.4951  0.5017 -2.0766
34188SOL    HW2 4572   7.124   8.902   6.075 -1.0506 -2.4367 -0.1836
34189SOL     OW 4573  10.478   9.347   2.716 -0.0808 -0.3951 -0.4719
34189SOL    HW1 4574  10.422   9.391   2.652  0.6769 -1.1051 -1.6735
34189SOL    HW2 4575  10.421   9.328   2.790 -0.7996  1.1492 -0.5838
34190SOL     OW 4576   1.420   7.933   2.957  0.6963  0.4779  0.7210
34190SOL    HW1 4577   1.470   7.861   2.995  0.8353  0.4853  0.5474
34190SOL    HW2 4578   1.330   7.898   2.951  0.8448  0.1669  0.2378
34191SOL     OW 4579   0.667   5.422   8.510 -0.3113  0.2776  0.2759
34191SOL    HW1 4580   0.712   5.337   8.506 -0.7403  0.0852 -1.3476
34191SOL    HW2 4581   0.592   5.411   8.452 -0.9180  1.4815  0.8067
34192SOL     OW 4582  10.069   0.724   1.740  0.1595 -0.1698  0.2272
34192SOL    HW1 4583  10.140   0.760   1.687  0.0100  0.4073  0.4116
34192SOL    HW2 4584  10.109   0.654   1.791  0.3059 -0.7521 -0.6614
34193SOL     OW 4585   0.239   9.840   1.453  0.2188  0.0387 -0.5453
34193SOL    HW1 4586   0.220   9.818   1.544  0.5245 -0.0230 -0.4961
34193SOL    HW2 4587   0.278   9.927   1.456  2.9124 -1.0579 -0.3036
34194SOL     OW 4588   7.002   3.531   1.940  0.6421 -0.1424  0.1521
34194SOL    HW1 4589   7.095   3.555   1.936  0.2037  1.7212 -0.1950
34194SOL    HW2 4590   6.957   3.615   1.950 -1.0413 -0.9616 -0.2447
34195SOL     OW 4591   7.482   7.552   0.478  0.7222  0.3398  0.1020
34195SOL    HW1 4592   7.486   7.617   0.408 -0.3931  1.0300  0.6642
34195SOL    HW2 4593   7.441   7.475   0.437  1.8942  0.0084 -0.5150
34196SOL     OW 4594   7.901   6.615   8.092 -0.5782 -0.6247 -0.3431
34196SOL    HW1 4595   7.815   6.635   8.054  0.2869  0.8358 -1.6864
34196SOL    HW2 4596   7.883   6.600   8.185 -2.5673 -2.6857 -0.9737
34197SOL     OW 4597   0.196   5.096   9.365 -0.9129 -0.5805 -0.5109
34197SOL    HW1 4598   0.276   5.106   9.418 -0.0697  0.5769 -1.9206
34197SOL    HW2 4599   0.224   5.045   9.289 -1.5663 -0.3571 -0.9076
34198SOL     OW 4600   0.589   8.019   9.907  0.4218  0.5019 -0.1969
34198SOL    HW1 4601   0.549   7.982   9.828  1.3606  0.3843 -0.6292
34198SOL    HW2 4602   0.558   8.110   9.909  2.5325  1.3865 -2.2780
34199SOL     OW 4603   0.318   5.141   2.752 -0.0792  0.3317 -0.1413
34199SOL    HW1 4604   0.366   5.071   2.707  0.8955  0.2553  0.9727
34199SOL    HW2 4605   0.227   5.126   2.729 -0.3183 -3.0535  2.2158
34200SOL     OW 4606   1.831   8.336   1.851 -0.4360  0.6095 -0.0235
34200SOL    HW1 4607   1.833   8.308   1.760  1.6346 -0.9289  0.4209
34200SOL    HW2 4608   1.896   8.280   1.895  0.0295  2.5855  2.0106
34201SOL     OW 4609   7.310   1.403   8.782  0.1225  0.5664  0.1486
34201SOL    HW1 4610   7.372   1.459   8.828  0.0680  0.6707  0.0963
34201SOL    HW2 4611   7.228   1.412   8.830  0.7882 -1.7029  1.9163
34202SOL     OW 4612   5.633   8.336   8.150 -0.2804  0.1389  0.2209
34202SOL    HW1 4613   5.658   8.427   8.130 -0.2795 -0.0927 -0.9499
34202SOL    HW2 4614   5.698   8.283   8.103 -0.9508 -0.4657 -0.0350
34203SOL     OW 4615   0.004   2.695   0.401 -0.0137  0.1492  0.0121
34203SOL    HW1 4616  -0.003   2.617   0.457  0.5803  0.6709  0.8298
34203SOL    HW2 4617  -0.087   2.716   0.378 -0.1530 -1.1035 -0.6848
34204SOL     OW 4618  10.435   0.658   3.115  0.1205  0.2182 -0.1198
34204SOL    HW1 4619  10.420   0.712   3.038  2.7129  0.9167 -0.2070
34204SOL    HW2 4620  10.441   0.721   3.187 -0.1489 -0.2486  0.3185
34205SOL     OW 4621   0.791   9.245   2.322  0.4906 -0.5620  0.7947
34205SOL    HW1 4622   0.697   9.262   2.311  0.3889 -1.7343 -0.3390
34205SOL    HW2 4623   0.805   9.249   2.416 -0.5996  0.1133  0.9466
34206SOL     OW 4624   8.215   6.777   5.850 -0.2823 -0.0764  0.4475
34206SOL    HW1 4625   8.214   6.681   5.855  1.1390 -0.2479 -1.2199
34206SOL    HW2 4626   8.216   6.795   5.756 -0.8553  1.5968  0.7393
34207SOL     OW 4627   2.608   0.743   4.004  0.5650 -0.4177 -0.0835
34207SOL    HW1 4628   2.641   0.653   4.010  1.5547 -0.2321 -1.8842
34207SOL    HW2 4629   2.685   0.797   4.023  0.0404  0.0535  0.7144
34208SOL     OW 4630  10.102  10.247   0.363 -0.3138 -0.2217 -0.1868
34208SOL    HW1 4631  10.086  10.333   0.324  0.4283  0.3008  0.6377
34208SOL    HW2 4632  10.152  10.200   0.297  0.1654  0.3424 -0.2333
34209SOL     OW 4633   5.931   9.232   5.992 -0.4284  0.8705 -0.7141
34209SOL    HW1 4634   5.848   9.210   5.950  0.9550  0.7322 -3.5797
34209SOL    HW2 4635   5.981   9.277   5.924  1.7076  1.3417  1.0551
34210SOL     OW 4636   1.962   7.280   0.862 -0.1054  0.4542  0.2507
34210SOL    HW1 4637   1.922   7.207   0.814  0.8199  0.0731  0.0287
34210SOL    HW2 4638   2.012   7.327   0.796  0.2806  0.5762  0.6233
34211SOL     OW 4639   0.886   2.931   5.426  0.3814  0.6932  0.1366
34211SOL    HW1 4640   0.899   3.018   5.387 -0.2612  1.1548  0.9226
34211SOL    HW2 4641   0.906   2.944   5.519  0.2602 -0.0023  0.2594
34212SOL     OW 4642   9.761   0.209   6.845  0.0340 -0.2435 -0.6377
34212SOL    HW1 4643   9.745   0.193   6.937  2.6637 -0.7242 -0.1867
34212SOL    HW2 4644   9.794   0.126   6.811  1.0245  0.4621 -1.4862
34213SOL     OW 4645   7.273   6.967   0.628  0.1641  0.1745 -0.5527
34213SOL    HW1 4646   7.292   6.992   0.537 -3.2134  0.1289 -1.4204
34213SOL    HW2 4647   7.224   6.885   0.620 -0.2567  0.2097  1.3181
34214SOL     OW 4648   7.721   6.024   7.808  0.2984 -0.2648 -0.4601
34214SOL    HW1 4649   7.790   5.974   7.765 -0.1216 -0.9057 -0.4038
34214SOL    HW2 4650   7.661   6.047   7.738  1.6784  2.2732 -0.9337
34215SOL     OW 4651   5.322   6.958   6.234 -0.1902 -0.3004  0.1035
34215SOL    HW1 4652   5.360   7.025   6.291  0.8356  0.5976 -1.5579
34215SOL    HW2 4653   5.264   6.908   6.292 -0.2794  1.4236  1.6142
34216SOL     OW 4654   5.573   2.097   2.380 -0.1332  0.1160  0.0824
34216SOL    HW1 4655   5.631   2.155   2.331  0.3230  0.1446  0.6460
34216SOL    HW2 4656   5.503   2.153   2.413 -1.5274 -0.2116 -2.1305
34217SOL     OW 4657   2.321   0.966   8.370  0.1779 -0.0237 -0.5738
34217SOL    HW1 4658   2.345   0.874   8.382 -0.0009 -0.0808 -0.6533
34217SOL    HW2 4659   2.341   0.985   8.278 -1.7259 -0.5714 -1.1419
34218SOL     OW 4660   1.753   6.249   1.344 -0.3426 -0.4985  0.2427
34218SOL    HW1 4661   1.773   6.292   1.260 -1.8446  0.1309  0.1735
34218SOL    HW2 4662   1.830   6.196   1.362 -0.1869 -1.0724 -1.8077
34219SOL     OW 4663   2.680   9.202   2.177 -0.0821  0.2827  0.2236
34219SOL    HW1 4664   2.600   9.188   2.126  1.3651  2.1605 -2.8106
34219SOL    HW2 4665   2.695   9.118   2.221 -1.4997 -1.5230 -2.4644
34220SOL     OW 4666   9.851   4.820   1.936 -0.3180  0.2724 -0.5198
34220SOL    HW1 4667   9.853   4.877   1.859 -0.3330 -2.3573 -2.6021
34220SOL    HW2 4668   9.764   4.780   1.934 -0.7265  0.9465  1.5511
34221SOL     OW 4669   0.400   6.768   6.086  0.6402 -0.0254  0.2115
34221SOL    HW1 4670   0.340   6.723   6.026 -0.9677  0.1893  1.5796
34221SOL    HW2 4671   0.415   6.705   6.156 -0.4040  0.9757  1.3763
34222SOL     OW 4672   7.100   7.409  10.520  0.4599 -0.3595 -0.8202
34222SOL    HW1 4673   7.039   7.412  10.446 -0.0744  0.3899 -0.3656
34222SOL    HW2 4674   7.079   7.327  10.565 -0.5844  0.1146 -0.3885
34223SOL     OW 4675   6.943   1.432   3.819 -0.4461  0.3147 -0.0105
34223SOL    HW1 4676   7.035   1.455   3.832  0.3186 -0.0854 -3.6653
34223SOL    HW2 4677   6.933   1.347   3.862  0.3981  1.0259  1.7205
34224SOL     OW 4678   1.462   5.745   1.704 -0.4436 -0.6247  0.6602
34224SOL    HW1 4679   1.517   5.697   1.765  0.9724 -0.3601 -0.3729
34224SOL    HW2 4680   1.523   5.788   1.644 -1.7784 -1.1220 -1.1376
34225SOL     OW 4681  10.880   3.819   9.913  0.6169  0.1780  0.2187
34225SOL    HW1 4682  10.909   3.794   9.825 -1.1561 -2.3209  0.2698
34225SOL    HW2 4683  10.821   3.893   9.898 -0.9776 -1.2600 -0.9138
34226SOL     OW 4684   9.322   9.524   3.593 -0.2065 -0.0071  0.8454
34226SOL    HW1 4685   9.253   9.589   3.606  0.3181  0.5977  0.6814
34226SOL    HW2 4686   9.321   9.471   3.672 -1.5284 -0.6516  0.4147
34227SOL     OW 4687  10.168   2.171  10.443  0.3813  0.3297  0.1214
34227SOL    HW1 4688  10.107   2.105  10.475 -0.1241  1.2044  1.0416
34227SOL    HW2 4689  10.142   2.186  10.352 -2.8633  2.7989  1.2323
34228SOL     OW 4690   9.172   2.030   5.397  0.2370 -0.1018 -0.4046
34228SOL    HW1 4691   9.161   1.953   5.453 -2.0607 -0.5989 -1.4289
34228SOL    HW2 4692   9.191   2.101   5.458  0.2896 -1.0879  0.7656
34229SOL     OW 4693   7.433   9.691   5.414 -0.2298 -0.4760  0.3501
34229SOL    HW1 4694   7.422   9.778   5.377 -1.6106 -0.6985  0.1749
34229SOL    HW2 4695   7.427   9.704   5.509  2.3973 -0.0303  0.5086
34230SOL     OW 4696   2.607   8.537   9.740  0.0181 -0.5618 -0.4396
34230SOL    HW1 4697   2.691   8.529   9.786  0.0829  0.4318 -0.3730
34230SOL    HW2 4698   2.629   8.530   9.648  0.0439 -1.3119 -0.3798
34231SOL     OW 4699   4.538   9.362   7.682  0.0035  0.0340  0.6170
34231SOL    HW1 4700   4.591   9.303   7.630 -1.7531  0.6471 -2.0519
34231SOL    HW2 4701   4.448   9.333   7.668 -0.7736  2.1850  0.7005
34232SOL     OW 4702   6.745   6.009   5.778  0.0826 -0.4067  0.4696
34232SOL    HW1 4703   6.695   5.946   5.830  0.6114 -0.4727  0.9142
34232SOL    HW2 4704   6.822   5.959   5.748  0.5703  0.0503  0.9305
34233SOL     OW 4705   5.844   8.836   5.383  0.0095  0.2609  0.3507
34233SOL    HW1 4706   5.769   8.857   5.440  0.0550  0.9594  0.1632
34233SOL    HW2 4707   5.856   8.742   5.394 -0.6206  0.2131  0.7244
34234SOL     OW 4708   7.096   3.647   6.081 -0.1886 -0.3583 -0.5955
34234SOL    HW1 4709   7.172   3.634   6.025  2.1535  0.4719  2.1359
34234SOL    HW2 4710   7.123   3.715   6.142 -2.6774 -0.9496  1.3181
34235SOL     OW 4711   2.433   6.580   1.090 -0.1491 -0.5644 -0.2583
34235SOL    HW1 4712   2.504   6.632   1.129 -0.4767 -0.0139 -0.3752
34235SOL    HW2 4713   2.457   6.572   0.998 -0.6583  0.3755 -0.4893
34236SOL     OW 4714   3.057   0.971   2.322 -0.5480 -0.3035  0.3793
34236SOL    HW1 4715   3.054   0.877   2.302  0.8660 -0.6300  1.5447
34236SOL    HW2 4716   3.130   1.004   2.269 -2.0623  0.5124 -1.2999
34237SOL     OW 4717   9.855   9.968   3.699  0.4655 -0.4338  0.1749
34237SOL    HW1 4718   9.773  10.018   3.696  0.4080 -0.5386 -0.0609
34237SOL    HW2 4719   9.923  10.035   3.705  0.2974 -0.3872  2.0000
34238SOL     OW 4720   3.211   4.987   9.543 -0.3187  0.0756 -0.3128
34238SOL    HW1 4721   3.137   4.991   9.482 -0.3174  0.4303 -0.2889
34238SOL    HW2 4722   3.170   4.978   9.629 -0.3434 -3.7327 -0.5514
34239SOL     OW 4723   0.394   9.482   3.070  0.1277 -1.1027 -0.5524
34239SOL    HW1 4724   0.364   9.518   3.153  1.1406 -1.5410  0.0089
34239SOL    HW2 4725   0.382   9.554   3.008  0.4466 -0.3875  0.2015
34240SOL     OW 4726   9.030   0.246   8.397  0.0093  0.3629  0.4638
34240SOL    HW1 4727   9.107   0.287   8.435 -0.0605  1.5262 -0.6035
34240SOL    HW2 4728   9.021   0.285   8.311 -0.4800 -1.3934 -0.3439
34241SOL     OW 4729  10.280   9.704   8.697 -0.0800  0.6090  0.3933
34241SOL    HW1 4730  10.350   9.750   8.745  1.3343 -0.8123 -0.2206
34241SOL    HW2 4731  10.254   9.633   8.756 -1.6226  1.6015  0.9587
34242SOL     OW 4732   6.226   0.892   8.784 -0.2498  0.1508  0.4567
34242SOL    HW1 4733   6.279   0.971   8.784 -0.4620  0.3002 -0.2854
34242SOL    HW2 4734   6.136   0.923   8.787 -0.4997  0.1144 -2.7536
34243SOL     OW 4735   9.821   9.406   7.359  0.4095 -0.1708  0.3999
34243SOL    HW1 4736   9.788   9.426   7.272 -0.1065 -0.6635  0.4838
34243SOL    HW2 4737   9.746   9.373   7.407  0.3464  1.3674  1.4608
34244SOL     OW 4738   1.007  10.230   5.030  0.1518 -0.0079  0.0817
34244SOL    HW1 4739   0.970  10.312   4.998  1.7073  0.6597 -0.0746
34244SOL    HW2 4740   0.981  10.226   5.122 -0.9910  0.0228 -0.2245
34245SOL     OW 4741   9.719   5.076   6.889  0.2513  0.3312  0.5599
34245SOL    HW1 4742   9.789   5.023   6.849  0.8539  0.5870  1.2479
34245SOL    HW2 4743   9.712   5.153   6.831 -1.6836 -1.1396 -1.3224
34246SOL     OW 4744   9.983   9.363   2.195  0.3682 -0.6734  0.2807
34246SOL    HW1 4745  10.059   9.306   2.182  1.5482  0.7437  0.6206
34246SOL    HW2 4746   9.958   9.391   2.107 -1.0621 -2.6846 -0.0155
34247SOL     OW 4747   3.076   6.566   5.482 -0.1406  0.0875  0.0624
34247SOL    HW1 4748   3.086   6.613   5.400 -1.7329 -0.1425 -0.3031
34247SOL    HW2 4749   3.003   6.610   5.527  0.6019  0.1170  1.2876
34248SOL     OW 4750   7.743   3.049   6.452 -0.3503  0.3182  0.7890
34248SOL    HW1 4751   7.807   3.061   6.522  0.1609  2.6177  0.0290
34248SOL    HW2 4752   7.792   3.004   6.383 -0.5155 -0.8668  1.4234
34249SOL     OW 4753   7.806   0.032   4.268  0.2644 -0.7225  0.0295
34249SOL    HW1 4754   7.745   0.024   4.342 -0.2550 -0.1467 -0.3322
34249SOL    HW2 4755   7.884  -0.016   4.297 -0.1871 -1.0887  0.6789
34250SOL     OW 4756   9.448   7.395   0.221 -0.7115  0.0327 -0.1934
34250SOL    HW1 4757   9.360   7.434   0.225 -0.3966  1.0283 -2.0172
34250SOL    HW2 4758   9.506   7.468   0.243 -0.2927 -0.5788  0.8200
34251SOL     OW 4759   7.544   6.206   9.397 -0.0253 -0.2645  0.0802
34251SOL    HW1 4760   7.477   6.169   9.454  0.6278 -1.3958  0.1549
34251SOL    HW2 4761   7.626   6.169   9.429  0.3553 -1.0637 -1.6359
34252SOL     OW 4762   4.568   7.507   5.394  0.1488  0.0361  0.0671
34252SOL    HW1 4763   4.544   7.472   5.480 -0.7353 -0.3621 -0.3308
34252SOL    HW2 4764   4.662   7.489   5.387  0.2463  0.1165  0.9617
34253SOL     OW 4765   7.956  10.168  10.717  0.3448 -0.6364  0.2939
34253SOL    HW1 4766   7.994  10.163  10.629 -0.9814  0.9755 -0.4362
34253SOL    HW2 4767   7.930  10.260  10.726 -0.4854 -1.0026  1.9778
34254SOL     OW 4768   9.988   8.683  10.899 -0.3763  0.6039  0.7205
34254SOL    HW1 4769  10.056   8.631  10.856 -1.5959 -2.2665  2.0363
34254SOL    HW2 4770  10.007   8.773  10.873  2.2413 -0.3817 -1.1876
34255SOL     OW 4771   7.647   8.426   4.741 -0.1968 -0.2543 -0.8331
34255SOL    HW1 4772   7.579   8.420   4.808  0.4758  0.3621 -0.0662
34255SOL    HW2 4773   7.687   8.339   4.739  0.2943 -0.0600  0.1358
34256SOL     OW 4774  11.082   0.407   5.479  0.4765 -0.2257 -0.1297
34256SOL    HW1 4775  11.156   0.346   5.481  1.1558  0.4687 -1.7704
34256SOL    HW2 4776  11.017   0.369   5.539  0.9723 -2.4276 -0.8843
34257SOL     OW 4777  10.241   8.158  10.926  0.5371 -0.4721  0.1925
34257SOL    HW1 4778  10.311   8.126  10.983 -0.4981 -0.3964  1.5569
34257SOL    HW2 4779  10.182   8.084  10.916 -1.2280  0.5317  2.3549
34258SOL     OW 4780   7.629   6.727   4.819  0.2644  0.6281 -0.0118
34258SOL    HW1 4781   7.695   6.683   4.874  0.1559 -1.5550 -1.4961
34258SOL    HW2 4782   7.558   6.747   4.880  1.4714  1.2628  1.2516
34259SOL     OW 4783   7.777   5.047   6.109  0.5329  0.5462  0.1121
34259SOL    HW1 4784   7.801   5.107   6.180  1.2509  0.4417 -0.0264
34259SOL    HW2 4785   7.704   5.090   6.065 -2.2116 -0.9291  2.9025
34260SOL     OW 4786  10.812  10.938   5.510  0.0280  0.0960  0.5571
34260SOL    HW1 4787  10.832  10.857   5.463 -0.1584  0.4916 -0.2123
34260SOL    HW2 4788  10.718  10.951   5.496  0.0190  0.3430  0.8383
34261SOL     OW 4789   0.991   7.740   5.663 -0.3721  0.4740  0.0678
34261SOL    HW1 4790   1.037   7.667   5.704 -0.9900 -0.2104 -0.4271
34261SOL    HW2 4791   0.924   7.699   5.608 -0.3322  1.4017 -0.7038
34262SOL     OW 4792   3.469   3.481   3.972  0.5898 -0.4496  0.1639
34262SOL    HW1 4793   3.467   3.401   4.024  0.3745 -0.3685  0.2846
34262SOL    HW2 4794   3.482   3.451   3.882 -0.1004 -0.6625  0.1288
34263SOL     OW 4795   1.573  10.619   0.931  0.1580  0.3012  0.2003
34263SOL    HW1 4796   1.639  10.550   0.945 -0.4980 -0.5053 -0.5011
34263SOL    HW2 4797   1.591  10.650   0.842 -0.2335  0.2550  0.1032
34264SOL     OW 4798  10.038   2.080   1.854 -0.2176  0.1668 -0.1799
34264SOL    HW1 4799  10.084   2.090   1.937  0.4010 -2.8784 -0.0308
34264SOL    HW2 4800  10.097   2.117   1.789  0.7914 -0.3350  0.4217
34265SOL     OW 4801   5.269   3.764   1.752 -0.6997  0.4969 -0.1774
34265SOL    HW1 4802   5.365   3.756   1.744 -0.8926 -1.1961 -1.3393
34265SOL    HW2 4803   5.254   3.784   1.844  0.7415 -0.0108  0.1928
34266SOL     OW 4804   9.795  10.654   5.931 -0.0977 -0.3076  0.3671
34266SOL    HW1 4805   9.856  10.721   5.961 -0.0676  0.0418 -0.4514
34266SOL    HW2 4806   9.851  10.578   5.914 -0.0567 -0.3660  0.7373
34267SOL     OW 4807   2.914  10.693   4.015  0.0483  0.3085 -0.7066
34267SOL    HW1 4808   2.888  10.773   4.060  0.3697 -0.6353  1.2820
34267SOL    HW2 4809   2.852  10.627   4.046  1.7693 -0.9011  0.3440
34268SOL     OW 4810  10.271   5.817   3.581 -0.2648 -0.0316  0.4830
34268SOL    HW1 4811  10.269   5.793   3.674  0.3341 -0.3458  0.4159
34268SOL    HW2 4812  10.318   5.746   3.539  0.1029  0.4700  0.0408
34269SOL     OW 4813   3.311   6.199   3.892 -0.4668 -0.0483  0.1211
34269SOL    HW1 4814   3.391   6.240   3.860 -0.0023 -1.1138 -0.1166
34269SOL    HW2 4815   3.244   6.224   3.829 -0.3979  1.1128  0.4966
34270SOL     OW 4816   0.956   9.678   9.778 -0.2702 -0.0350 -0.2522
34270SOL    HW1 4817   0.867   9.657   9.750 -0.9599 -1.3207  2.5274
34270SOL    HW2 4818   1.008   9.672   9.698 -2.5678  0.3160 -1.8858
34271SOL     OW 4819   2.398   5.597   6.595  0.7558 -0.0983  0.8447
34271SOL    HW1 4820   2.318   5.650   6.593  1.6179  1.2298  0.9648
34271SOL    HW2 4821   2.389   5.539   6.519  0.0535  0.6050  0.3724
34272SOL     OW 4822   3.386   6.176   3.052 -0.1625 -0.0279 -0.1305
34272SOL    HW1 4823   3.348   6.194   3.138 -0.5855 -1.3298 -0.0213
34272SOL    HW2 4824   3.311   6.153   2.997  0.3021 -1.1271 -0.3195
34273SOL     OW 4825   2.359   9.079   1.264  0.1302 -0.1117 -0.4853
34273SOL    HW1 4826   2.302   9.060   1.338  0.4088 -0.3212 -0.3227
34273SOL    HW2 4827   2.436   9.024   1.278  0.3461  0.1237 -0.7322
34274SOL     OW 4828   4.951  10.411   7.392  0.0097  0.1187  0.5699
34274SOL    HW1 4829   4.918  10.482   7.338 -0.0260 -1.1461 -1.1578
34274SOL    HW2 4830   4.873  10.369   7.428  0.0042  0.5050  1.0206
34275SOL     OW 4831   7.082   5.591   3.806 -0.5551  0.4992 -0.3230
34275SOL    HW1 4832   7.110   5.682   3.817  0.7383  0.1001 -0.0686
34275SOL    HW2 4833   7.031   5.572   3.885  0.0769  0.7021  0.1480
34276SOL     OW 4834   9.986  10.551   3.084  0.2471  0.2970 -0.2279
34276SOL    HW1 4835  10.010  10.510   3.167 -0.6177  0.1209 -0.0502
34276SOL    HW2 4836  10.065  10.546   3.031  1.6009  2.5188  1.3730
34277SOL     OW 4837  10.338  10.959   9.542  0.7525  0.1505  0.1938
34277SOL    HW1 4838  10.336  10.893   9.473  2.9278  0.7249 -0.4949
34277SOL    HW2 4839  10.325  10.909   9.623  0.0100 -0.7773 -0.4674
34278SOL     OW 4840   6.368   7.715   7.288 -0.1383 -0.4082 -0.7020
34278SOL    HW1 4841   6.418   7.686   7.212  0.6046 -0.7079 -0.1073
34278SOL    HW2 4842   6.307   7.643   7.306  2.0755 -1.9649  1.1139
34279SOL     OW 4843   1.481  10.336  10.034 -0.4394 -0.2555  0.5943
34279SOL    HW1 4844   1.419  10.407  10.016  0.1180  0.2883  0.7659
34279SOL    HW2 4845   1.566  10.374  10.014 -0.2344 -1.3483 -0.6865
34280SOL     OW 4846   0.267   9.643   2.850 -0.3124  0.4030 -0.0049
34280SOL    HW1 4847   0.177   9.627   2.824 -0.4149  2.5795 -1.2127
34280SOL    HW2 4848   0.267   9.733   2.882  1.2867  0.1753  0.7354
34281SOL     OW 4849  10.094   7.634   4.185  0.4118  0.7001  0.2397
34281SOL    HW1 4850  10.178   7.619   4.229 -0.1136  1.0809  1.4043
34281SOL    HW2 4851  10.079   7.728   4.193  0.1979  0.7400 -0.5743
34282SOL     OW 4852   9.630   9.602   4.108  0.3436  0.4514 -0.3367
34282SOL    HW1 4853   9.590   9.682   4.076 -0.2888  1.0540  1.7709
34282SOL    HW2 4854   9.687   9.630   4.180  1.4490 -0.8182 -0.6770
34283SOL     OW 4855   2.319   7.686  11.048  0.7442  0.1526 -0.2968
34283SOL    HW1 4856   2.412   7.667  11.061  0.7325 -0.7674 -1.3651
34283SOL    HW2 4857   2.278   7.600  11.040 -0.0362  0.5671 -0.8585
34284SOL     OW 4858   2.708   1.006   3.875 -0.0790 -0.2272  0.1003
34284SOL    HW1 4859   2.757   0.936   3.917  0.3799 -0.6805 -1.1432
34284SOL    HW2 4860   2.640   1.029   3.938  0.4201 -1.0515  0.9645
34285SOL     OW 4861   8.213  10.184   1.164 -0.6510  0.0691  0.2190
34285SOL    HW1 4862   8.302  10.171   1.195 -0.9248  0.3579  1.1649
34285SOL    HW2 4863   8.197  10.112   1.104  0.0280 -0.2975  0.4732
34286SOL     OW 4864   5.152   8.264  10.525 -0.2571 -0.0510  0.2067
34286SOL    HW1 4865   5.224   8.211  10.557 -0.2474  0.3050  0.7859
34286SOL    HW2 4866   5.086   8.200  10.497 -0.5488 -0.3807  1.5818
34287SOL     OW 4867   7.821   8.535   9.188  0.1586 -0.5559  0.2216
34287SOL    HW1 4868   7.737   8.541   9.144  1.0463 -0.3166 -1.5266
34287SOL    HW2 4869   7.812   8.461   9.248 -1.3689 -0.3601  0.2642
34288SOL     OW 4870  10.529   2.351   0.734  0.3594  0.3081  0.3105
34288SOL    HW1 4871  10.511   2.275   0.789  1.1353 -0.2081 -0.1356
34288SOL    HW2 4872  10.449   2.363   0.683 -0.8432  1.5154  2.3405
34289SOL     OW 4873   9.081   1.861   9.853  0.0331  0.1191  0.0445
34289SOL    HW1 4874   9.072   1.950   9.886  0.4020  0.4689 -0.7566
34289SOL    HW2 4875   9.016   1.855   9.783  0.8254  0.1734 -0.7170
34290SOL     OW 4876   6.573   7.552   8.226 -0.1655  0.1949 -0.1219
34290SOL    HW1 4877   6.503   7.616   8.214 -0.0994  0.1589 -0.7360
34290SOL    HW2 4878   6.651   7.596   8.191 -0.2208 -0.4176 -1.0461
34291SOL     OW 4879   8.968  10.925   2.075  0.1267 -0.2790 -0.6893
34291SOL    HW1 4880   9.044  10.983   2.072  0.1931 -0.4226 -2.6254
34291SOL    HW2 4881   8.975  10.881   2.160  0.6717  1.7149  0.3477
34292SOL     OW 4882   2.852   0.451   1.362  0.0923 -0.6440  0.6181
34292SOL    HW1 4883   2.835   0.462   1.456 -0.3147  0.4363  0.4389
34292SOL    HW2 4884   2.896   0.532   1.336  1.0157 -1.3049  0.0418
34293SOL     OW 4885   2.310   7.890   3.888  0.2833 -0.1171  0.2505
34293SOL    HW1 4886   2.335   7.957   3.951  1.1740 -0.5937  0.4367
34293SOL    HW2 4887   2.235   7.926   3.841  1.2607  1.3546 -0.2387
34294SOL     OW 4888   8.594   7.973   1.802  0.1759 -0.0886 -0.0350
34294SOL    HW1 4889   8.530   7.936   1.863  0.9789  1.0807  1.5839
34294SOL    HW2 4890   8.638   8.042   1.852  2.1618 -0.3280 -1.3360
34295SOL     OW 4891  10.989   9.301   7.072  0.4131 -0.0231  0.6061
34295SOL    HW1 4892  11.060   9.301   7.137 -0.7894  0.9133  1.9880
34295SOL    HW2 4893  10.936   9.377   7.095  0.0142  0.4289 -1.6037
34296SOL     OW 4894   1.964   9.559   1.301  0.5442 -0.1077 -0.1476
34296SOL    HW1 4895   2.023   9.634   1.306  2.6971 -1.7200 -0.1084
34296SOL    HW2 4896   1.968   9.531   1.210  0.9766 -1.0768  0.1582
34297SOL     OW 4897   8.411   7.752   8.426  0.2762  0.1849 -0.2056
34297SOL    HW1 4898   8.357   7.797   8.491  0.5693 -0.4343  0.4887
34297SOL    HW2 4899   8.457   7.685   8.477 -0.5134 -1.2191 -1.2736
34298SOL     OW 4900   7.564   6.050   5.269  0.7244 -0.4250  0.3618
34298SOL    HW1 4901   7.538   6.127   5.320  1.0176  1.1133 -1.7108
34298SOL    HW2 4902   7.520   5.977   5.313 -1.2115  1.1492  1.2164
34299SOL     OW 4903   4.107  10.420   7.202 -0.2485 -0.1067  0.4384
34299SOL    HW1 4904   4.183  10.439   7.258  0.7199  1.0285 -1.1671
34299SOL    HW2 4905   4.144  10.413   7.114 -1.9192 -0.3868 -0.2699
34300SOL     OW 4906   7.273   8.123  10.517 -1.3206 -0.1235 -0.0423
34300SOL    HW1 4907   7.279   8.085  10.605 -1.0689  0.3633  0.1529
34300SOL    HW2 4908   7.277   8.048  10.458  2.0886 -0.2916  0.1960
34301SOL     OW 4909   4.860   3.690   4.476  0.3874  0.4992  0.2447
34301SOL    HW1 4910   4.928   3.622   4.479 -0.6240 -0.5393  0.2240
34301SOL    HW2 4911   4.804   3.671   4.552 -3.4102 -2.5115 -2.8676
34302SOL     OW 4912   0.759   3.141   2.730  0.4328 -0.4628 -0.5461
34302SOL    HW1 4913   0.740   3.050   2.755 -0.3818 -0.3092 -0.5922
34302SOL    HW2 4914   0.852   3.140   2.707  0.5866 -1.1533  0.0469
34303SOL     OW 4915   6.915   7.321   2.417 -0.6775  0.5761 -0.0610
34303SOL    HW1 4916   7.000   7.289   2.387 -0.2710  0.8703  0.7551
34303SOL    HW2 4917   6.862   7.328   2.337 -0.3375 -0.7841 -0.4157
34304SOL     OW 4918   7.095  10.652   3.501  0.3458 -0.4737  0.4468
34304SOL    HW1 4919   7.146  10.729   3.525 -0.5130 -0.3733  2.0753
34304SOL    HW2 4920   7.123  10.632   3.411  2.7127 -0.0283  1.0103
34305SOL     OW 4921  10.309   8.534   9.014  0.6562  0.2439 -0.0981
34305SOL    HW1 4922  10.403   8.544   9.030  0.3542  1.9539  0.8937
34305SOL    HW2 4923  10.301   8.533   8.919  1.6437  0.4660 -0.2034
34306SOL     OW 4924   0.424   0.537   2.551 -0.0232 -0.6921  0.3080
34306SOL    HW1 4925   0.389   0.597   2.486 -0.7610 -2.0521 -0.5862
34306SOL    HW2 4926   0.519   0.542   2.540 -0.0515  0.5448  0.4876
34307SOL     OW 4927  10.892   1.833   9.228 -0.1665  0.0123  0.2774
34307SOL    HW1 4928  10.898   1.768   9.298 -1.0014  0.1171  0.4631
34307SOL    HW2 4929  10.967   1.891   9.243  0.8184 -1.1125 -0.1265
34308SOL     OW 4930   6.335   1.182   7.677  0.1503  0.4867  0.5093
34308SOL    HW1 4931   6.245   1.212   7.663 -0.0934 -0.4545 -0.0107
34308SOL    HW2 4932   6.364   1.230   7.755  0.1984  2.9024 -0.8880
34309SOL     OW 4933   9.524   2.597  10.605 -0.2631 -0.2194 -0.5622
34309SOL    HW1 4934   9.614   2.623  10.628 -0.3760 -1.1735  1.1102
34309SOL    HW2 4935   9.516   2.508  10.638 -1.8497 -0.1282 -0.6532
34310SOL     OW 4936   7.144   7.303   4.851  0.2489 -0.1637  0.4289
34310SOL    HW1 4937   7.098   7.292   4.768  0.0129 -1.0691  0.6593
34310SOL    HW2 4938   7.193   7.384   4.841 -0.0129 -0.1025 -0.4822
34311SOL     OW 4939   9.058   5.836   7.811  0.0563  0.0110 -0.4538
34311SOL    HW1 4940   9.001   5.835   7.887 -2.3699  1.3376 -2.1070
34311SOL    HW2 4941   9.095   5.924   7.810  3.6497 -1.2904  1.4954
34312SOL     OW 4942   4.410   8.186   9.132 -0.2757 -0.2226 -0.2926
34312SOL    HW1 4943   4.473   8.254   9.154  1.6272 -1.3899 -1.7853
34312SOL    HW2 4944   4.413   8.179   9.037 -3.0396 -0.0518 -0.4868
34313SOL     OW 4945   0.052   4.394   8.228  0.0076  0.0013  0.2723
34313SOL    HW1 4946   0.072   4.306   8.261  0.5975 -1.5004 -3.6163
34313SOL    HW2 4947   0.137   4.437   8.223  0.1414 -0.3611 -0.7181
34314SOL     OW 4948   3.674   2.058   0.978  0.2040 -0.6267  0.0880
34314SOL    HW1 4949   3.602   2.049   0.916 -0.0901  1.1972  0.0999
34314SOL    HW2 4950   3.753   2.050   0.925 -0.0441  0.6499 -0.5318
34315SOL     OW 4951   8.020   5.006   5.351 -0.2692  0.1234 -0.2233
34315SOL    HW1 4952   8.091   4.979   5.292  0.6181  1.1810  0.3223
34315SOL    HW2 4953   7.986   5.086   5.313 -1.2854 -0.4603 -0.5596
34316SOL     OW 4954  10.343   1.380   5.085 -0.7035  0.3131  0.0373
34316SOL    HW1 4955  10.435   1.400   5.072 -0.0801 -1.3349  1.5740
34316SOL    HW2 4956  10.320   1.323   5.011 -0.6944  1.2027 -0.6735
34317SOL     OW 4957   0.051   0.826   3.303 -0.2456  0.0694 -1.0309
34317SOL    HW1 4958  -0.001   0.888   3.355 -0.1772  0.3212 -1.2618
34317SOL    HW2 4959  -0.004   0.747   3.299  0.2008 -0.3287  0.3077
34318SOL     OW 4960   3.513   6.794   3.347 -0.1705  0.0593  0.0706
34318SOL    HW1 4961   3.448   6.723   3.347 -0.0847 -0.0912  2.1499
34318SOL    HW2 4962   3.485   6.852   3.276 -1.5996 -0.8673 -0.1749
34319SOL     OW 4963   8.191  10.284   6.911 -0.4759 -0.4472  0.2815
34319SOL    HW1 4964   8.218  10.232   6.835 -0.9143 -0.2635 -0.0067
34319SOL    HW2 4965   8.271  10.294   6.963  0.3569  1.1762 -1.1999
34320SOL     OW 4966   0.714  11.030   4.604  0.1978 -0.2309  0.1119
34320SOL    HW1 4967   0.781  10.974   4.643 -0.7655 -0.9482  0.8276
34320SOL    HW2 4968   0.660  11.057   4.678 -1.1335 -0.8525 -0.5931
34321SOL     OW 4969   0.892   0.275   8.412 -0.1223  0.2855  0.0227
34321SOL    HW1 4970   0.959   0.279   8.480 -1.4183 -2.2318  1.5849
34321SOL    HW2 4971   0.940   0.255   8.332  0.9790 -3.6240  1.4589
34322SOL     OW 4972  10.353   4.986   6.780  0.0915 -0.4172  0.3073
34322SOL    HW1 4973  10.323   4.982   6.871 -0.0316 -0.1519  0.2771
34322SOL    HW2 4974  10.439   5.028   6.785  0.5014 -1.2284  0.4009
34323SOL     OW 4975   3.172   5.587   2.627  0.8851 -0.3360 -0.1128
34323SOL    HW1 4976   3.241   5.540   2.674  1.0455 -1.6140 -1.5373
34323SOL    HW2 4977   3.113   5.617   2.695  1.0011 -2.2773  0.9207
34324SOL     OW 4978   6.445   6.060  10.934 -0.3294  0.2937  0.0584
34324SOL    HW1 4979   6.378   6.127  10.924 -1.8103 -1.3669 -1.9261
34324SOL    HW2 4980   6.398   5.983  10.966  0.8287 -0.5613 -0.2181
34325SOL     OW 4981   1.576   1.300  10.324  0.2049  0.5052 -0.0253
34325SOL    HW1 4982   1.503   1.353  10.357  1.5131  0.2033  3.7807
34325SOL    HW2 4983   1.542   1.211  10.321 -0.4854  0.7865 -1.4987
34326SOL     OW 4984   8.000  10.330   0.922  0.7625 -0.5282  0.1995
34326SOL    HW1 4985   8.043  10.351   1.004 -2.0962  0.2284  1.6537
34326SOL    HW2 4986   7.984  10.414   0.880 -0.7273 -0.6036  0.5418
34327SOL     OW 4987   1.102   5.666   2.754 -0.4674  0.0114  0.4281
34327SOL    HW1 4988   1.029   5.665   2.816  0.4513  0.3527  1.5461
34327SOL    HW2 4989   1.167   5.608   2.793 -0.7372 -1.5606 -1.3340
34328SOL     OW 4990   9.844   5.932   7.369 -0.5809  0.2944  0.2604
34328SOL    HW1 4991   9.915   5.996   7.359  0.4197 -0.9249 -0.8630
34328SOL    HW2 4992   9.798   5.935   7.285 -1.1885  0.2914  0.5901
34329SOL     OW 4993   0.895   4.979   5.515 -0.0880 -0.0456 -0.7085
34329SOL    HW1 4994   0.987   4.966   5.489 -0.2219  1.0901 -1.8330
34329SOL    HW2 4995   0.898   5.052   5.577 -0.4425  1.7073 -2.6447
34330SOL     OW 4996  10.759   5.213   5.825 -0.0077  0.1130 -0.5311
34330SOL    HW1 4997  10.854   5.206   5.815  0.1996 -0.0337  1.1769
34330SOL    HW2 4998  10.724   5.149   5.763  1.1808 -2.4259  1.2065
34331SOL     OW 4999   9.696   8.570   4.323 -0.1872  0.0493  0.8100
34331SOL    HW1 5000   9.679   8.528   4.239  0.8709 -0.0673  0.6380
34331SOL    HW2 5001   9.733   8.500   4.377  2.0981  0.8183  0.3478
34332SOL     OW 5002  10.657   4.342   6.120  0.0894 -0.2352  0.9384
34332SOL    HW1 5003  10.627   4.338   6.211 -0.1296 -1.9484  0.8238
34332SOL    HW2 5004  10.752   4.349   6.126  0.0004  0.6997  1.2964
34333SOL     OW 5005   4.757   3.756   8.159  0.2837 -0.4706  0.5355
34333SOL    HW1 5006   4.837   3.787   8.200  1.5573 -1.8127 -0.8068
34333SOL    HW2 5007   4.714   3.835   8.127  0.5692  0.3446  2.0672
34334SOL     OW 5008   0.232   7.248   7.219 -0.2028 -0.3343 -0.2361
34334SOL    HW1 5009   0.150   7.219   7.260  0.5443 -0.3152  1.3482
34334SOL    HW2 5010   0.209   7.330   7.175 -1.9547 -2.2736 -3.3644
34335SOL     OW 5011   0.868   4.611   3.300  0.0709  0.2417 -0.4231
34335SOL    HW1 5012   0.801   4.593   3.366  0.3539  0.2715 -0.1215
34335SOL    HW2 5013   0.841   4.560   3.224  0.4554 -0.9059  0.1697
34336SOL     OW 5014   5.117   1.438   4.859  0.4635  0.1016 -0.6662
34336SOL    HW1 5015   5.153   1.526   4.871  1.5869 -0.4792  0.4940
34336SOL    HW2 5016   5.106   1.430   4.764 -0.6490  1.8456 -0.7254
34337SOL     OW 5017   8.499   0.900   9.346 -0.1325  0.5060 -0.0920
34337SOL    HW1 5018   8.589   0.889   9.376 -0.4724 -1.1452  0.3911
34337SOL    HW2 5019   8.504   0.972   9.283  1.4235  0.7935  0.3139
34338SOL     OW 5020  10.690   1.105   3.662  0.0395  0.2672  0.2797
34338SOL    HW1 5021  10.664   1.099   3.754  1.1420  1.3266  0.6747
34338SOL    HW2 5022  10.724   1.194   3.652 -2.8337  1.3064 -1.9061
34339SOL     OW 5023   4.549   8.569   6.338 -0.0694  0.8558  0.3309
34339SOL    HW1 5024   4.505   8.533   6.261  0.2927  1.7246 -0.2994
34339SOL    HW2 5025   4.513   8.519   6.411 -0.3209 -0.0776 -0.4091
34340SOL     OW 5026   8.793   6.169   2.558 -0.3223 -0.0086 -0.3999
34340SOL    HW1 5027   8.791   6.131   2.646 -1.6041 -0.4068 -0.5845
34340SOL    HW2 5028   8.885   6.188   2.543 -0.0149 -0.4177  0.8242
34341SOL     OW 5029   8.096  10.535   2.301  0.0311 -0.4509  0.0334
34341SOL    HW1 5030   8.056  10.613   2.264 -1.0688 -0.8617  0.3219
34341SOL    HW2 5031   8.190  10.548   2.288 -0.2370 -0.0731 -1.8690
34342SOL     OW 5032   1.301   0.281   7.104  0.0471  0.5874  0.3613
34342SOL    HW1 5033   1.230   0.344   7.095  0.0752  0.6808  0.7964
34342SOL    HW2 5034   1.259   0.202   7.137  0.4466  1.2855  2.6761
34343SOL     OW 5035   9.591   9.049   4.470 -0.6393 -0.6409 -0.6876
34343SOL    HW1 5036   9.686   9.051   4.482 -0.7437 -1.9070  0.6732
34343SOL    HW2 5037   9.579   9.006   4.385  0.0017 -0.8021 -0.7072
34344SOL     OW 5038   0.729  10.048   6.399  0.4416  0.1682  0.1896
34344SOL    HW1 5039   0.703  10.118   6.340  1.7207  0.8920  0.4331
34344SOL    HW2 5040   0.822  10.064   6.415  0.7385 -1.5256  0.3514
34345SOL     OW 5041   5.589   6.296   7.380 -0.6072  0.4736 -0.6423
34345SOL    HW1 5042   5.628   6.354   7.445  0.0190 -0.2964 -0.3126
34345SOL    HW2 5043   5.562   6.354   7.309 -0.2396  1.1928 -0.2052
34346SOL     OW 5044  10.700   8.185   5.360  0.3129 -0.0707  0.6356
34346SOL    HW1 5045  10.736   8.154   5.443  1.1595 -0.1372  0.2537
34346SOL    HW2 5046  10.771   8.234   5.319 -1.2333  3.2894  1.6324
34347SOL     OW 5047   1.911   2.001   1.854 -0.1474 -0.0262  0.3652
34347SOL    HW1 5048   1.966   2.079   1.844  1.5707 -1.2106  0.2191
34347SOL    HW2 5049   1.937   1.944   1.782 -3.4420  0.3522 -1.3634
34348SOL     OW 5050   6.828   3.750   5.679  0.5344  0.3888 -0.1597
34348SOL    HW1 5051   6.819   3.836   5.638  1.5302  0.1171 -0.9794
34348SOL    HW2 5052   6.781   3.690   5.621  1.8956  0.0128 -0.9121
34349SOL     OW 5053   6.254   6.122   3.626  0.0997  0.7644  0.2557
34349SOL    HW1 5054   6.229   6.205   3.586  0.8336 -0.3316 -2.7236
34349SOL    HW2 5055   6.347   6.132   3.647  1.2181 -0.2810 -3.3948
34350SOL     OW 5056   8.252  10.157   0.809  0.1830  0.3942 -0.4492
34350SOL    HW1 5057   8.197  10.121   0.740  0.2779 -0.3159 -0.1710
34350SOL    HW2 5058   8.320  10.205   0.763 -0.3517  0.8127 -0.8133
34351SOL     OW 5059   2.153   4.372   5.189  0.2760  0.0111  0.0705
34351SOL    HW1 5060   2.232   4.417   5.159  1.0097 -0.9727  0.4848
34351SOL    HW2 5061   2.091   4.382   5.117  0.1271  2.3267  0.4473
34352SOL     OW 5062   6.208   0.394   6.511  0.6481 -0.4642  0.0115
34352SOL    HW1 5063   6.235   0.345   6.588  1.5535  0.0884  0.0608
34352SOL    HW2 5064   6.123   0.431   6.535 -0.2500 -2.2808 -0.1674
34353SOL     OW 5065   4.745   7.160   3.767  0.1910  0.0772  0.2372
34353SOL    HW1 5066   4.810   7.230   3.773 -0.2549  0.5292 -0.1255
34353SOL    HW2 5067   4.723   7.139   3.858  1.5417 -0.7454  0.3916
34354SOL     OW 5068   8.776   7.030   7.361  0.3233 -0.2320  0.2832
34354SOL    HW1 5069   8.693   7.059   7.324 -0.1576 -0.5986  1.0604
34354SOL    HW2 5070   8.786   7.082   7.441  0.7716 -0.2906  0.2698
34355SOL     OW 5071   7.680   0.785   0.155 -0.9994  0.4023  0.0658
34355SOL    HW1 5072   7.707   0.732   0.080  1.3463  1.5719  0.0226
34355SOL    HW2 5073   7.603   0.833   0.124 -2.5778 -2.1033 -0.2200
34356SOL     OW 5074  10.042  10.538   3.789  0.1410 -0.0434 -0.1068
34356SOL    HW1 5075  10.012  10.553   3.879 -0.7203 -0.0150 -0.3900
34356SOL    HW2 5076  10.053  10.443   3.783  4.2040  0.1880  1.2510
34357SOL     OW 5077   9.963   6.555   6.567 -0.1214 -0.5591 -0.3913
34357SOL    HW1 5078   9.927   6.588   6.649 -1.0889  0.7025 -1.2934
34357SOL    HW2 5079  10.057   6.572   6.574 -0.4622  1.5824 -0.4152
34358SOL     OW 5080   4.616   3.540   4.023  0.4500 -0.0995 -0.1252
34358SOL    HW1 5081   4.638   3.447   4.026  2.3704  0.3242  0.2548
34358SOL    HW2 5082   4.652   3.576   4.104  2.0595  1.4131 -1.4297
34359SOL     OW 5083   6.580   6.210   7.816  0.1100 -0.5631  0.3254
34359SOL    HW1 5084   6.542   6.265   7.884  1.0679  1.7462 -0.9094
34359SOL    HW2 5085   6.638   6.269   7.767  2.3736 -3.0037 -0.1669
34360SOL     OW 5086   8.020   3.583   0.275 -0.5594 -0.3853 -0.0230
34360SOL    HW1 5087   7.937   3.557   0.316 -0.9574  0.8679  0.0030
34360SOL    HW2 5088   7.999   3.662   0.226  0.0369 -1.5091 -2.2277
34361SOL     OW 5089   0.932   0.613   6.370 -0.5097 -0.0986  0.2869
34361SOL    HW1 5090   0.853   0.584   6.325  0.6419 -0.4995 -1.5889
34361SOL    HW2 5091   0.967   0.683   6.315 -0.0650  0.7819  1.6287
34362SOL     OW 5092   4.632   0.929   2.971  0.3793  0.6488  0.4529
34362SOL    HW1 5093   4.679   0.851   2.940 -0.8362  0.1011 -0.1063
34362SOL    HW2 5094   4.639   0.924   3.066  0.1181 -0.2866  0.4377
34363SOL     OW 5095   0.417   1.953   1.471  0.1913 -0.3709  0.5134
34363SOL    HW1 5096   0.430   2.048   1.464 -2.3806 -0.0133 -1.2018
34363SOL    HW2 5097   0.406   1.937   1.565 -0.3584  1.2224  0.7557
34364SOL     OW 5098   8.011   7.270   7.160 -0.6078  0.0541  0.1820
34364SOL    HW1 5099   8.079   7.211   7.126 -1.6767 -0.7549 -0.6408
34364SOL    HW2 5100   7.970   7.221   7.232 -0.6825  0.3106  0.3165
34365SOL     OW 5101   5.834   9.314   4.263  0.1143 -0.2280  0.1216
34365SOL    HW1 5102   5.774   9.358   4.323  1.1830  0.5999  0.6157
34365SOL    HW2 5103   5.829   9.222   4.287 -0.3510 -0.0572  0.6944
34366SOL     OW 5104   7.744   7.149   6.000  0.3694 -0.1318 -0.5395
34366SOL    HW1 5105   7.840   7.149   5.998  0.4707 -0.7795  1.4722
34366SOL    HW2 5106   7.719   7.067   5.958  0.8772 -1.3146  1.3441
34367SOL     OW 5107   6.797   5.358   3.205  0.2370  0.1608  0.1048
34367SOL    HW1 5108   6.882   5.399   3.187  0.2835 -0.0785 -0.2511
34367SOL    HW2 5109   6.796   5.282   3.147  0.3045 -0.5457  1.0210
34368SOL     OW 5110   9.749   5.248   3.285 -0.2604 -0.0109  0.6141
34368SOL    HW1 5111   9.840   5.267   3.308 -0.7427  1.3124  1.5989
34368SOL    HW2 5112   9.747   5.154   3.270  0.9970 -0.2821  1.9113
34369SOL     OW 5113   0.303   8.980   9.172  0.2428  0.3195 -0.2967
34369SOL    HW1 5114   0.378   8.966   9.230  0.8625 -1.2612 -1.4011
34369SOL    HW2 5115   0.341   9.016   9.092 -0.0921 -0.8862 -1.0215
34370SOL     OW 5116   9.356   1.335   4.181 -0.5159  0.0710 -0.0489
34370SOL    HW1 5117   9.353   1.330   4.276 -0.1064  2.5236  0.1721
34370SOL    HW2 5118   9.266   1.358   4.155 -0.2864  0.9304 -0.1011
34371SOL     OW 5119  10.691  10.331   7.451  0.0917  0.5965  0.0088
34371SOL    HW1 5120  10.667  10.349   7.360  0.5723  0.5504 -0.1331
34371SOL    HW2 5121  10.786  10.348   7.454  0.1710  0.1035  0.3712
34372SOL     OW 5122   8.241   9.237   5.692 -0.1902  0.1268 -0.1985
34372SOL    HW1 5123   8.238   9.309   5.628  2.6183  0.2946 -0.2654
34372SOL    HW2 5124   8.250   9.158   5.639  1.4236  0.2039 -0.0976
34373SOL     OW 5125   0.516   8.208   3.355  0.2099  0.2916 -0.1295
34373SOL    HW1 5126   0.473   8.293   3.366  0.5072  0.2151  2.0957
34373SOL    HW2 5127   0.480   8.154   3.426  0.3557 -1.3119 -1.2309
34374SOL     OW 5128   6.287   4.676   1.671 -0.1474 -0.1606 -0.0407
34374SOL    HW1 5129   6.287   4.583   1.649  1.6016 -0.3097  0.4242
34374SOL    HW2 5130   6.323   4.679   1.760  0.4797  0.9977 -0.3221
34375SOL     OW 5131   3.000   7.209   6.516 -0.3879 -0.2244 -0.0345
34375SOL    HW1 5132   3.046   7.127   6.532 -0.4103 -0.0431  1.0394
34375SOL    HW2 5133   2.981   7.209   6.422  2.4160  0.0417 -0.6754
34376SOL     OW 5134   7.437   2.616   0.050 -0.0243  0.4027 -0.0058
34376SOL    HW1 5135   7.512   2.676   0.042  1.6796 -1.4954  1.0022
34376SOL    HW2 5136   7.391   2.645   0.129  0.1348  1.0390 -0.1386
34377SOL     OW 5137   7.049   6.588   6.499 -0.5152  0.6410  0.3451
34377SOL    HW1 5138   7.112   6.537   6.448 -1.6203 -1.2065  0.7639
34377SOL    HW2 5139   7.084   6.586   6.588 -0.4578  0.8076  0.3279
34378SOL     OW 5140   4.487   4.682   3.223 -0.7289 -0.3324 -0.0335
34378SOL    HW1 5141   4.467   4.692   3.316 -0.0547  0.9509  0.0039
34378SOL    HW2 5142   4.570   4.727   3.212 -1.1656  0.1951 -1.3969
34379SOL     OW 5143   1.624   9.286   0.037 -0.0195  0.0095  0.1287
34379SOL    HW1 5144   1.573   9.349  -0.013  0.5744  0.7627  0.4666
34379SOL    HW2 5145   1.597   9.299   0.128 -0.1334 -0.4566  0.1676
34380SOL     OW 5146   1.323   5.357   8.379  0.0729 -0.0970  0.0126
34380SOL    HW1 5147   1.320   5.452   8.366  0.4451  0.2584  2.1431
34380SOL    HW2 5148   1.391   5.344   8.444  1.5559 -2.0850 -1.7939
34381SOL     OW 5149   2.722   3.779   2.315  0.3084 -0.1778  0.1167
34381SOL    HW1 5150   2.791   3.843   2.298 -0.2741  1.1594  2.3406
34381SOL    HW2 5151   2.641   3.825   2.292 -0.0172 -0.6757  0.2710
34382SOL     OW 5152  10.841  10.902  10.639 -0.1239  0.2340 -0.3488
34382SOL    HW1 5153  10.855  10.867  10.551 -0.5653 -0.8377 -0.0158
34382SOL    HW2 5154  10.899  10.978  10.644  1.1786 -0.6754 -0.9741
34383SOL     OW 5155   3.129   5.462   4.584  0.4515  0.4989 -0.2839
34383SOL    HW1 5156   3.054   5.514   4.613  0.2778  1.0053 -1.5729
34383SOL    HW2 5157   3.119   5.378   4.629 -0.8185  0.6068 -0.3391
34384SOL     OW 5158   7.250   0.559   2.636 -0.1619 -0.4549  0.0078
34384SOL    HW1 5159   7.227   0.636   2.583  2.2482 -0.1826 -0.7553
34384SOL    HW2 5160   7.237   0.588   2.727 -0.3663  0.4762 -0.3036
34385SOL     OW 5161   1.290   7.632   7.052  0.9277  0.1272 -0.3796
34385SOL    HW1 5162   1.293   7.578   6.973 -1.5767  0.4475 -0.7527
34385SOL    HW2 5163   1.204   7.674   7.050  1.5419  1.6406  1.5588
34386SOL     OW 5164   4.857   7.834   8.994  0.1808  0.0407 -0.4378
34386SOL    HW1 5165   4.889   7.888   8.921 -0.1802 -0.1889 -0.7702
34386SOL    HW2 5166   4.860   7.745   8.960 -1.4887  0.0753 -0.7309
34387SOL     OW 5167   6.228   5.122   6.463  0.2194  0.5761  0.9452
34387SOL    HW1 5168   6.172   5.199   6.473  1.6138  1.9678 -1.0886
34387SOL    HW2 5169   6.281   5.119   6.542  0.9052  2.4144  0.5948
34388SOL     OW 5170   1.652   3.980   7.805 -0.1303  0.0475 -0.6328
34388SOL    HW1 5171   1.613   3.911   7.751 -0.8812 -1.5654  1.8242
34388SOL    HW2 5172   1.584   4.003   7.868  1.2626  0.5726  0.7532
34389SOL     OW 5173   7.571   2.177   7.280 -0.1557 -0.3065  0.3100
34389SOL    HW1 5174   7.496   2.119   7.293 -0.9787  1.2548  3.5682
34389SOL    HW2 5175   7.534   2.253   7.235  0.1647 -0.7150 -0.6879
34390SOL     OW 5176   2.809   4.648  10.618  0.2381  0.4503 -0.1608
34390SOL    HW1 5177   2.841   4.609  10.537  0.1414  0.5251 -0.2342
34390SOL    HW2 5178   2.730   4.599  10.638  0.4365  0.2179  0.0597
34391SOL     OW 5179   4.945   0.018   4.517  0.1663 -0.2704 -0.1350
34391SOL    HW1 5180   4.857   0.001   4.483  0.0110 -0.0616  0.1507
34391SOL    HW2 5181   4.943   0.111   4.542  0.1885 -0.4826  0.6876
34392SOL     OW 5182   1.351   6.684   6.774  0.7550 -0.8583 -0.1614
34392SOL    HW1 5183   1.338   6.594   6.804  1.3275 -1.1075 -0.6420
34392SOL    HW2 5184   1.428   6.679   6.716  1.1308  0.0333  0.2431
34393SOL     OW 5185   1.445   9.612   0.239  0.3054  0.1163  0.0404
34393SOL    HW1 5186   1.477   9.522   0.239  2.1269  0.6632  2.4648
34393SOL    HW2 5187   1.354   9.604   0.270  0.7121 -0.8329  1.0648
34394SOL     OW 5188  10.648   6.819   0.259 -0.3107  0.0456  0.5852
34394SOL    HW1 5189  10.723   6.819   0.200  0.1248 -1.1911  1.1248
34394SOL    HW2 5190  10.582   6.872   0.213  0.0546 -0.7973 -0.9796
34395SOL     OW 5191   8.990   8.258   1.938  0.3197  0.1434 -0.0570
34395SOL    HW1 5192   8.925   8.308   1.986  0.3863  0.3162 -0.1456
34395SOL    HW2 5193   8.941   8.219   1.865  0.5179  1.1178 -0.7208
34396SOL     OW 5194   6.903   5.935   6.575 -0.3466  0.1842 -0.0587
34396SOL    HW1 5195   6.830   5.878   6.550 -0.5664  0.4483 -0.0165
34396SOL    HW2 5196   6.902   6.005   6.510  0.1957 -0.0901 -0.3723
34397SOL     OW 5197   4.189   0.296   5.846  0.1786 -0.0129 -0.0454
34397SOL    HW1 5198   4.199   0.244   5.926  1.5969 -0.4304 -0.4496
34397SOL    HW2 5199   4.194   0.231   5.775  1.8839  0.6009 -0.5570
34398SOL     OW 5200  10.274   2.418   1.969 -0.2038 -0.0050  0.2118
34398SOL    HW1 5201  10.263   2.324   1.983 -0.2711 -0.2145 -1.1510
34398SOL    HW2 5202  10.369   2.429   1.960 -0.3169 -0.2591 -1.5747
34399SOL     OW 5203   9.511   8.985   6.044  0.0648 -0.5019  0.8080
34399SOL    HW1 5204   9.459   8.910   6.014 -0.5593  0.3761 -0.4469
34399SOL    HW2 5205   9.564   8.951   6.115 -1.1348 -1.8194  1.1267
34400SOL     OW 5206   5.855  10.811   2.573 -0.7609 -0.2762 -0.1025
34400SOL    HW1 5207   5.937  10.766   2.591 -0.3615  0.3138 -0.3967
34400SOL    HW2 5208   5.880  10.884   2.516 -1.5460 -0.3222 -0.5223
34401SOL     OW 5209   0.549   0.823  10.480  0.2595 -0.1548 -0.8582
34401SOL    HW1 5210   0.607   0.823  10.405 -0.4820 -2.0885 -1.4909
34401SOL    HW2 5211   0.479   0.762  10.457 -1.5778  1.4157  0.2254
34402SOL     OW 5212   8.112   5.982   2.430 -0.1228 -0.6710 -0.0374
34402SOL    HW1 5213   8.092   6.076   2.434  1.0629 -0.3892 -0.4655
34402SOL    HW2 5214   8.155   5.970   2.345  2.9633 -0.9245  1.4297
34403SOL     OW 5215  10.406   6.645   5.652 -0.5373  0.0695  0.0082
34403SOL    HW1 5216  10.470   6.625   5.583 -2.4708  0.4489 -2.0313
34403SOL    HW2 5217  10.404   6.567   5.707 -0.3791 -1.1249 -1.6055
34404SOL     OW 5218   3.163  10.744   2.212  0.3675 -0.1230 -0.1146
34404SOL    HW1 5219   3.198  10.674   2.268 -1.1260 -0.1372  0.8714
34404SOL    HW2 5220   3.080  10.768   2.254  0.6808  2.0208 -0.6135
34405SOL     OW 5221   2.274   3.591   5.840  0.4663 -0.3244  0.5272
34405SOL    HW1 5222   2.262   3.635   5.925  0.7887 -0.0394  0.4266
34405SOL    HW2 5223   2.277   3.662   5.776  1.9203 -0.4155  0.4635
34406SOL     OW 5224   6.133  10.302   7.050  0.2642  0.3752 -0.1949
34406SOL    HW1 5225   6.127  10.304   7.145  1.7418 -1.8122  0.0048
34406SOL    HW2 5226   6.068  10.237   7.023  1.9066 -1.2828 -0.3652
34407SOL     OW 5227   6.563   9.560   7.598 -0.4914  0.7907 -0.0907
34407SOL    HW1 5228   6.638   9.545   7.540  0.5694 -0.6090  1.5475
34407SOL    HW2 5229   6.596   9.622   7.663 -0.2894 -0.7640  1.3631
34408SOL     OW 5230   9.782   0.741   1.699  0.4962 -0.0021  0.0280
34408SOL    HW1 5231   9.798   0.792   1.620 -1.7833 -0.0424 -0.5272
34408SOL    HW2 5232   9.868   0.708   1.725  1.7270  2.3438 -0.7940
34409SOL     OW 5233  10.080   9.387   1.205  0.0557  0.3788  0.3862
34409SOL    HW1 5234  10.042   9.474   1.215 -0.6370  0.0716  0.4868
34409SOL    HW2 5235  10.168   9.403   1.172  0.1425  1.1420  0.9525
34410SOL     OW 5236   2.267   2.048   4.828  0.0981 -0.5031  0.3913
34410SOL    HW1 5237   2.220   1.985   4.882  0.1076 -0.7495  0.1125
34410SOL    HW2 5238   2.293   1.998   4.750 -0.1524 -0.0826  0.0331
34411SOL     OW 5239   7.084   1.975   7.996 -0.0345 -1.2047 -0.6464
34411SOL    HW1 5240   7.040   2.028   7.930  0.0029 -0.7436 -0.3120
34411SOL    HW2 5241   7.082   1.886   7.962 -1.9466 -1.3500 -0.2838
34412SOL     OW 5242   3.245   8.574   7.076  0.1012 -0.0301  0.0922
34412SOL    HW1 5243   3.296   8.545   7.001  2.4672  1.1413  1.1067
34412SOL    HW2 5244   3.194   8.649   7.044 -2.0850 -1.9885 -1.2537
34413SOL     OW 5245   3.245   6.688   9.805 -0.5237  0.2863 -0.7026
34413SOL    HW1 5246   3.211   6.727   9.885  0.4266  1.0503 -0.6547
34413SOL    HW2 5247   3.307   6.621   9.835 -0.3910  0.3693 -0.7853
34414SOL     OW 5248   9.872   6.580   9.852  0.1726  0.8099  0.3150
34414SOL    HW1 5249   9.947   6.544   9.899 -0.6574 -0.4715  0.6754
34414SOL    HW2 5250   9.897   6.572   9.759 -0.3166 -1.5105  0.3317
34415SOL     OW 5251   3.210   7.612   0.650 -0.1382 -0.2184  0.1968
34415SOL    HW1 5252   3.116   7.597   0.660  0.0551 -2.7221 -0.9695
34415SOL    HW2 5253   3.251   7.545   0.704  0.9442 -0.5331 -0.9750
34416SOL     OW 5254   2.136   7.508   3.787 -0.3211 -0.0135  0.0371
34416SOL    HW1 5255   2.155   7.443   3.720  0.7519 -0.6817  0.9698
34416SOL    HW2 5256   2.168   7.590   3.751 -2.7033  0.2944 -1.6417
34417SOL     OW 5257   0.864   7.338   0.737 -0.0835 -0.6399  0.1247
34417SOL    HW1 5258   0.862   7.420   0.687 -0.3226  0.2461  1.5512
34417SOL    HW2 5259   0.908   7.276   0.679  3.3880  1.3784  0.3561
34418SOL     OW 5260   3.444   1.880   7.848  0.0910 -0.2307 -0.8086
34418SOL    HW1 5261   3.503   1.830   7.791  2.0816  1.1254 -0.0494
34418SOL    HW2 5262   3.405   1.815   7.906 -0.6575 -1.4089 -2.5549
34419SOL     OW 5263   1.652   9.676   8.792 -0.2197  0.5083  0.3429
34419SOL    HW1 5264   1.733   9.716   8.761  1.0009 -1.6638  0.4622
34419SOL    HW2 5265   1.654   9.587   8.754 -1.2628 -0.4506  2.3919
34420SOL     OW 5266   9.321  10.459   4.554 -0.0381 -0.6548 -0.3659
34420SOL    HW1 5267   9.285  10.536   4.509  0.3788 -0.7449 -0.8689
34420SOL    HW2 5268   9.391  10.494   4.609 -2.2064 -0.1618  2.3157
34421SOL     OW 5269  10.575   5.692   8.833 -0.2387  0.2561 -0.5665
34421SOL    HW1 5270  10.542   5.685   8.923  0.3505 -1.5010 -0.4607
34421SOL    HW2 5271  10.669   5.677   8.841 -0.2407 -0.3246 -1.5212
34422SOL     OW 5272   6.122   9.162   6.582  0.0928 -0.2306 -0.1217
34422SOL    HW1 5273   6.116   9.167   6.487  3.0760 -1.9678 -0.5255
34422SOL    HW2 5274   6.127   9.068   6.601  1.4629  0.1239  1.5500
34423SOL     OW 5275   7.317   8.399   1.743 -0.0331  0.2024  0.2768
34423SOL    HW1 5276   7.374   8.431   1.813 -0.2848 -0.8221  0.9697
34423SOL    HW2 5277   7.365   8.327   1.703 -0.1523  0.3876 -0.2108
34424SOL     OW 5278   9.160   8.725   8.389  0.5866 -0.5397 -0.0393
34424SOL    HW1 5279   9.081   8.748   8.340  0.5474  1.2469  0.7824
34424SOL    HW2 5280   9.173   8.632   8.371 -0.6071 -0.4302 -1.7229
34425SOL     OW 5281   9.719   4.834   2.782 -0.3667  0.0666 -0.3397
34425SOL    HW1 5282   9.693   4.753   2.738 -1.0615 -0.0309  0.2303
34425SOL    HW2 5283   9.712   4.814   2.876  2.5852 -0.2290 -0.0794
34426SOL     OW 5284   9.713  10.193   8.745  0.7497  0.3058 -0.5204
34426SOL    HW1 5285   9.653  10.126   8.714  0.6311 -0.9107  2.0189
34426SOL    HW2 5286   9.794  10.146   8.765  0.0408  0.3569  3.2043
34427SOL     OW 5287   2.651   9.511   7.038  0.0361 -0.1869  0.6495
34427SOL    HW1 5288   2.687   9.558   6.963  0.7321  0.4126  1.3441
34427SOL    HW2 5289   2.683   9.422   7.027  0.8977  0.0998  0.7001
34428SOL     OW 5290   2.119   7.389   2.500  0.4427 -0.9766  0.3995
34428SOL    HW1 5291   2.136   7.470   2.452 -1.7239 -0.3283  0.6198
34428SOL    HW2 5292   2.198   7.376   2.552  1.6633 -0.1343 -1.1432
34429SOL     OW 5293   4.609   0.096   2.656  0.0845  1.1274 -0.1805
34429SOL    HW1 5294   4.535   0.126   2.605 -0.5546 -1.8387 -1.2327
34429SOL    HW2 5295   4.661   0.045   2.594  0.5047 -0.6855  1.5671
34430SOL     OW 5296   6.800   5.583   1.547 -0.1383  0.7938 -0.3962
34430SOL    HW1 5297   6.737   5.649   1.576  2.2624  2.2929  1.8158
34430SOL    HW2 5298   6.775   5.504   1.593  0.1625  1.6682  1.3727
34431SOL     OW 5299   8.850   9.471   5.320  0.3702 -0.0500 -0.5956
34431SOL    HW1 5300   8.942   9.445   5.313  0.8626  0.8978  1.5981
34431SOL    HW2 5301   8.802   9.388   5.325  1.4313 -0.6130  1.2168
34432SOL     OW 5302   7.964   2.882   4.044 -0.7243 -0.4241  0.1019
34432SOL    HW1 5303   8.039   2.900   4.101  1.5127 -2.5670 -1.8479
34432SOL    HW2 5304   7.947   2.965   4.000  1.1779 -0.0401 -0.0281
34433SOL     OW 5305  10.747  10.204   3.265  0.5303 -1.1395  0.1768
34433SOL    HW1 5306  10.715  10.290   3.291  0.5519 -0.5782 -1.5032
34433SOL    HW2 5307  10.802  10.175   3.337  0.9946  0.5225  0.5148
34434SOL     OW 5308   3.038   3.073   7.007  0.1409  0.0502 -0.0960
34434SOL    HW1 5309   3.026   2.999   7.067  1.0900 -0.6773 -0.7704
34434SOL    HW2 5310   2.949   3.105   6.990 -0.4257 -1.8525 -0.9138
34435SOL     OW 5311   5.941   7.131   0.146  0.2216  0.1203  0.2180
34435SOL    HW1 5312   5.949   7.198   0.214 -2.1331  1.4397 -0.6697
34435SOL    HW2 5313   5.976   7.051   0.186  1.8552  1.5449  1.7904
34436SOL     OW 5314   6.673   6.973   4.449 -0.3349  0.2207 -0.4247
34436SOL    HW1 5315   6.660   6.940   4.360  0.6073 -0.9047 -0.1511
34436SOL    HW2 5316   6.619   7.053   4.452 -0.2877  0.3465 -2.0338
34437SOL     OW 5317   9.654   4.013   8.691  0.2876 -0.3816 -0.1440
34437SOL    HW1 5318   9.697   3.928   8.685 -0.0317 -0.4558 -1.6728
34437SOL    HW2 5319   9.689   4.051   8.771  1.9585 -1.1344 -0.4725
34438SOL     OW 5320   5.638   6.479   4.652  0.0144  0.0256 -0.0974
34438SOL    HW1 5321   5.700   6.512   4.717 -1.6395  1.2061  0.9429
34438SOL    HW2 5322   5.672   6.511   4.568  1.9783 -1.2164  0.1648
34439SOL     OW 5323   6.622   0.189   8.003 -0.2475 -1.2547 -0.6460
34439SOL    HW1 5324   6.607   0.186   8.098 -0.3970  0.0612 -0.6163
34439SOL    HW2 5325   6.541   0.155   7.965 -0.0226 -2.2064 -0.3029
34440SOL     OW 5326   1.155   3.212   2.855  0.3923 -0.4733 -0.4814
34440SOL    HW1 5327   1.195   3.145   2.910  2.8774 -0.3385 -1.9884
34440SOL    HW2 5328   1.223   3.278   2.842 -0.9954  0.8617 -1.4961
34441SOL     OW 5329   8.252   3.443   5.229 -0.1603 -0.0553  0.1173
34441SOL    HW1 5330   8.278   3.511   5.291 -0.3950 -0.4312  0.6296
34441SOL    HW2 5331   8.203   3.490   5.161  1.2240  0.5542 -0.4921
34442SOL     OW 5332   9.830   1.971   4.840  0.0830  0.0759 -0.0735
34442SOL    HW1 5333   9.827   1.895   4.781  0.2724  0.6446 -0.8410
34442SOL    HW2 5334   9.881   1.942   4.915 -1.2752 -1.0847  0.4417
34443SOL     OW 5335   9.134  10.903  10.427 -0.0478 -0.1143  0.1857
34443SOL    HW1 5336   9.077  10.857  10.488 -2.2684  1.5295 -0.5048
34443SOL    HW2 5337   9.105  10.873  10.340  0.7281  0.0907 -0.1493
34444SOL     OW 5338  10.360   3.146   9.755 -0.5092  0.2547  0.5165
34444SOL    HW1 5339  10.432   3.141   9.817  0.3679  1.7610 -0.3027
34444SOL    HW2 5340  10.282   3.125   9.806  0.2964  0.4746  1.8770
34445SOL     OW 5341   0.703   6.755   8.071 -0.6155 -0.2024 -0.1964
34445SOL    HW1 5342   0.734   6.696   8.139 -0.5767 -0.2226 -0.2319
34445SOL    HW2 5343   0.756   6.834   8.082 -0.5547 -0.2347 -0.2537
34446SOL     OW 5344   0.429   8.980   8.905 -0.1581 -0.0783 -0.0343
34446SOL    HW1 5345   0.459   9.002   8.817  1.7857 -0.4424  0.5039
34446SOL    HW2 5346   0.423   8.884   8.904 -1.7129 -0.0076 -0.2251
34447SOL     OW 5347   2.264   0.914   6.919  0.7147 -0.1955 -0.0069
34447SOL    HW1 5348   2.255   0.903   7.014 -0.7556 -0.4658 -0.1593
34447SOL    HW2 5349   2.187   0.871   6.883  0.6702  0.9213 -1.2729
34448SOL     OW 5350   3.221   0.468   6.119  0.2740  0.0804  0.0268
34448SOL    HW1 5351   3.224   0.402   6.187  2.0064  0.1474  0.0711
34448SOL    HW2 5352   3.307   0.463   6.076  0.6055  2.4693  0.2258
34449SOL     OW 5353   4.613  10.965   1.505  0.1808 -0.4588 -0.1866
34449SOL    HW1 5354   4.672  11.016   1.560  0.9641 -1.9317  0.3925
34449SOL    HW2 5355   4.526  10.997   1.528  0.5386 -0.6088  1.4621
34450SOL     OW 5356   5.224   7.462   4.243  0.3626 -0.3513  0.1060
34450SOL    HW1 5357   5.137   7.438   4.276 -0.0503  0.0629 -0.6538
34450SOL    HW2 5358   5.256   7.382   4.201  0.0681 -0.3187 -0.1869
34451SOL     OW 5359   5.089   8.339   6.133  0.3447  0.2326 -0.0615
34451SOL    HW1 5360   5.072   8.389   6.213  0.0834  0.3657 -0.2004
34451SOL    HW2 5361   5.121   8.403   6.070 -1.1933  0.4770 -0.6423
34452SOL     OW 5362   8.936   6.949   2.562 -0.6643 -0.3055 -0.2603
34452SOL    HW1 5363   8.981   6.864   2.563  0.3518  0.1891  1.4669
34452SOL    HW2 5364   8.882   6.948   2.641 -1.4726  0.2444 -0.7966
34453SOL     OW 5365   4.003   7.406   8.543  0.2951 -0.0566  0.3164
34453SOL    HW1 5366   3.924   7.358   8.569 -1.2057  0.8672 -2.2445
34453SOL    HW2 5367   4.070   7.338   8.537 -0.4739 -1.0075  1.6631
34454SOL     OW 5368   7.503   3.214   4.204 -0.6949 -0.6152 -0.6899
34454SOL    HW1 5369   7.581   3.258   4.170  0.4617 -1.9643  0.1075
34454SOL    HW2 5370   7.440   3.284   4.218  0.6237  0.6067 -0.6522
34455SOL     OW 5371   0.371   9.322   6.385  0.0298  0.5333  0.4300
34455SOL    HW1 5372   0.387   9.411   6.353  1.2158 -0.4347 -1.9551
34455SOL    HW2 5373   0.277   9.309   6.376 -0.4171  2.0507  2.3804
34456SOL     OW 5374   8.991   6.536   4.577 -0.4840  0.4655 -0.3725
34456SOL    HW1 5375   8.973   6.469   4.510 -0.6894  1.1396 -1.0061
34456SOL    HW2 5376   9.042   6.602   4.531  2.5975 -0.7646  1.0549
34457SOL     OW 5377   4.826   9.969   2.993 -0.4701 -0.5260  0.4878
34457SOL    HW1 5378   4.918   9.996   2.998 -0.7340  0.2171  2.1401
34457SOL    HW2 5379   4.817   9.930   2.906  1.5465 -1.1660  0.5147
34458SOL     OW 5380   5.681   7.618   5.064  0.1652 -0.3161  0.8572
34458SOL    HW1 5381   5.776   7.626   5.057  0.3070 -0.1876  2.6622
34458SOL    HW2 5382   5.666   7.531   5.102 -0.3719  0.0886  1.6037
34459SOL     OW 5383  10.049   4.009   2.436 -0.6926  0.0971  0.0872
34459SOL    HW1 5384   9.973   4.040   2.387 -1.8665  0.4379  2.0084
34459SOL    HW2 5385  10.066   4.079   2.499  0.9751 -0.1691 -0.0196
34460SOL     OW 5386   8.501   8.165   7.230 -1.0542  0.4474 -0.4606
34460SOL    HW1 5387   8.467   8.190   7.316 -1.3620 -0.3253 -0.3477
34460SOL    HW2 5388   8.555   8.087   7.247  1.8734  2.3462 -0.4405
34461SOL     OW 5389   8.374   9.014   4.785 -0.3479 -0.1800 -0.2163
34461SOL    HW1 5390   8.420   9.065   4.719 -1.5056 -0.0107 -0.9194
34461SOL    HW2 5391   8.370   8.925   4.748  1.4104 -0.7657  0.8759
34462SOL     OW 5392   1.036   8.306   1.296  0.0624 -0.7158  0.4031
34462SOL    HW1 5393   1.001   8.329   1.382  0.6416  0.6186  0.2988
34462SOL    HW2 5394   0.959   8.282   1.245 -0.5111  0.3286  0.7424
34463SOL     OW 5395   0.337   9.032   9.529 -0.3154  0.0295 -0.3676
34463SOL    HW1 5396   0.243   9.035   9.547 -0.1137  2.4461  0.7064
34463SOL    HW2 5397   0.374   8.983   9.602 -0.5954  0.2419 -0.0837
34464SOL     OW 5398   3.900   7.891   3.234 -0.3119  0.3106 -0.3854
34464SOL    HW1 5399   3.890   7.883   3.328  1.3604 -0.6902 -0.2714
34464SOL    HW2 5400   3.867   7.809   3.199  2.1307 -0.7473 -0.3841
34465SOL     OW 5401   0.633  10.875   3.965 -0.4558  0.1266 -0.1408
34465SOL    HW1 5402   0.707  10.840   4.015 -0.5532 -1.3831 -1.0071
34465SOL    HW2 5403   0.667  10.955   3.925  0.7274 -0.5388 -0.5194
34466SOL     OW 5404  10.210   6.130  10.500 -0.0519  0.2230  0.5197
34466SOL    HW1 5405  10.266   6.149  10.575 -1.4200  0.0336  1.6332
34466SOL    HW2 5406  10.169   6.046  10.522 -0.4744  0.1666 -0.4526
34467SOL     OW 5407   8.995   9.079   8.764  0.2175  0.4393 -0.1005
34467SOL    HW1 5408   8.982   9.162   8.718 -1.4713  0.5793  0.5577
34467SOL    HW2 5409   9.052   9.027   8.707  3.0890  2.7670  0.3605
34468SOL     OW 5410   0.074   7.904   9.903  0.8302  0.6483 -0.3891
34468SOL    HW1 5411   0.159   7.861   9.908  0.8359  0.7126  0.0496
34468SOL    HW2 5412   0.080   7.976   9.965  1.1583  1.8821 -1.8139
34469SOL     OW 5413   6.179   6.551   2.713  0.0955 -0.5446  0.0590
34469SOL    HW1 5414   6.254   6.611   2.712  1.2149 -1.8783  0.8230
34469SOL    HW2 5415   6.163   6.534   2.805 -2.5394  1.2937  0.0817
34470SOL     OW 5416  10.746   7.768  10.864  0.6951  0.2929 -0.3298
34470SOL    HW1 5417  10.715   7.678  10.851 -0.0537  0.6690 -1.1476
34470SOL    HW2 5418  10.818   7.758  10.927 -0.9249 -0.6237  1.5047
34471SOL     OW 5419   0.790   5.688   8.483 -0.1734  0.0834  0.2412
34471SOL    HW1 5420   0.883   5.679   8.503 -0.2547  0.9113  1.0570
34471SOL    HW2 5421   0.752   5.605   8.510  0.1337  0.2187  1.1279
34472SOL     OW 5422   6.975   4.952  10.913  0.3681  0.2412 -0.2077
34472SOL    HW1 5423   7.014   4.904  10.986 -0.0491  0.6834  0.3172
34472SOL    HW2 5424   7.041   5.017  10.889  0.9645 -0.6176 -0.9663
34473SOL     OW 5425   8.495   6.640   0.381  0.4282  0.0091  0.0767
34473SOL    HW1 5426   8.509   6.670   0.471  0.3196 -2.1623  0.8741
34473SOL    HW2 5427   8.404   6.607   0.381  0.5799 -0.4206 -0.6798
34474SOL     OW 5428   0.338   0.178   4.780 -0.0209 -0.1451  0.1240
34474SOL    HW1 5429   0.334   0.221   4.695 -1.3813 -0.2571  0.1178
34474SOL    HW2 5430   0.312   0.087   4.762  1.2922 -0.6000  0.3967
34475SOL     OW 5431   2.210   3.606   0.373 -0.0111  0.1329 -0.4850
34475SOL    HW1 5432   2.185   3.514   0.384 -1.1328  0.3759 -0.8885
34475SOL    HW2 5433   2.136   3.645   0.327  0.0474  1.4459  0.4833
34476SOL     OW 5434   9.927   5.888   9.677 -0.9515 -1.0697  0.0211
34476SOL    HW1 5435   9.996   5.846   9.729  0.0739 -0.9862 -1.2193
34476SOL    HW2 5436   9.932   5.846   9.591 -0.8132  0.5958 -0.8397
34477SOL     OW 5437   3.438   4.772   4.631  0.0626  0.1806  0.8396
34477SOL    HW1 5438   3.507   4.706   4.629  0.5758  0.6714  1.6041
34477SOL    HW2 5439   3.356   4.723   4.627  0.4471 -0.4744  0.9721
34478SOL     OW 5440   9.353   6.292   6.970 -0.3219 -0.3078 -0.3031
34478SOL    HW1 5441   9.319   6.204   6.982  2.8628 -1.3946  1.9011
34478SOL    HW2 5442   9.378   6.296   6.878  0.3380 -2.0924 -0.2352
34479SOL     OW 5443   3.086   5.849   9.718  0.5832  0.0647 -0.1062
34479SOL    HW1 5444   3.179   5.871   9.712  0.8076 -0.9118 -0.4114
34479SOL    HW2 5445   3.082   5.774   9.777 -0.0454  0.2593  0.1141
34480SOL     OW 5446  11.063   7.139   9.131  0.3960 -0.7072 -0.1817
34480SOL    HW1 5447  11.056   7.152   9.036  0.8606  0.1457 -0.1099
34480SOL    HW2 5448  10.992   7.078   9.152  0.5151 -1.1991 -1.1276
34481SOL     OW 5449   8.917   4.601   2.097  0.0895 -0.8903 -0.2426
34481SOL    HW1 5450   8.961   4.603   2.012  0.6981  1.4336  0.0680
34481SOL    HW2 5451   8.830   4.636   2.080  0.2729 -0.2512  0.0953
34482SOL     OW 5452   8.933  10.622   6.872  0.1763 -0.0049  0.0413
34482SOL    HW1 5453   8.944  10.714   6.847  0.1424  0.2920  1.0621
34482SOL    HW2 5454   8.967  10.572   6.798 -0.5587  0.8245 -0.8792
34483SOL     OW 5455   2.698   4.331  10.662 -0.0072  0.1392 -0.4416
34483SOL    HW1 5456   2.696   4.236  10.649  0.1602 -0.1048  1.0536
34483SOL    HW2 5457   2.722   4.341  10.754  1.0240  1.6602 -0.8501
34484SOL     OW 5458   5.189   0.926   0.511  0.6167  0.0333  0.4275
34484SOL    HW1 5459   5.173   0.907   0.603  0.5916 -0.2286  0.3711
34484SOL    HW2 5460   5.246   1.003   0.511  0.2581  0.3066  0.6533
34485SOL     OW 5461   8.666   8.491   4.882 -0.2103 -0.6865 -0.0849
34485SOL    HW1 5462   8.652   8.397   4.868 -1.3393 -0.8045  1.5186
34485SOL    HW2 5463   8.578   8.528   4.880  0.2451  0.4053 -0.9398
34486SOL     OW 5464   7.255   7.023   0.367  0.1704  0.0401  0.4616
34486SOL    HW1 5465   7.166   7.008   0.333 -0.2477 -1.1462  1.9942
34486SOL    HW2 5466   7.302   7.062   0.293 -2.0685  2.3394  0.1157
34487SOL     OW 5467   0.292  10.314   4.011 -0.6845  0.1186 -0.5728
34487SOL    HW1 5468   0.257  10.255   3.944 -0.0358 -0.6108 -0.2833
34487SOL    HW2 5469   0.285  10.401   3.972 -0.7476 -0.2481 -1.4048
34488SOL     OW 5470   4.087   7.830   0.990 -0.2967  0.0952  0.3567
34488SOL    HW1 5471   4.125   7.834   1.078 -0.6498  0.5347  0.4921
34488SOL    HW2 5472   4.044   7.915   0.978 -0.5982 -0.1128 -0.0815
34489SOL     OW 5473   8.304   6.828   1.840 -0.0097  0.1125 -0.3708
34489SOL    HW1 5474   8.345   6.907   1.806 -0.0801  0.1121 -0.4557
34489SOL    HW2 5475   8.287   6.774   1.762 -1.3896  0.6721 -0.4984
34490SOL     OW 5476   6.701   0.065   5.972  0.4092 -0.1178 -0.5828
34490SOL    HW1 5477   6.686   0.129   6.041  4.2663 -0.2374  0.6233
34490SOL    HW2 5478   6.789   0.031   5.989  1.2584 -0.8550 -5.0101
34491SOL     OW 5479   7.364   8.607   0.846 -0.4376  0.0502 -0.3832
34491SOL    HW1 5480   7.315   8.606   0.764  0.2932 -1.3092 -0.8335
34491SOL    HW2 5481   7.297   8.594   0.914 -0.7722 -1.6794 -0.9808
34492SOL     OW 5482   9.575   7.335   4.272  0.3431  0.0873 -0.8816
34492SOL    HW1 5483   9.544   7.301   4.188 -0.2936 -0.1341 -0.5623
34492SOL    HW2 5484   9.615   7.419   4.250  0.3735 -0.0679 -1.4367
34493SOL     OW 5485  10.705   7.493  10.828 -0.1160  0.4512 -0.6598
34493SOL    HW1 5486  10.652   7.452  10.897  0.4408  2.1449  0.8657
34493SOL    HW2 5487  10.727   7.421  10.769  0.6589 -1.4509  1.7563
34494SOL     OW 5488   6.561   6.187   0.749  0.4563 -0.2078  0.3271
34494SOL    HW1 5489   6.485   6.222   0.702  1.5371  0.9455 -0.6103
34494SOL    HW2 5490   6.564   6.095   0.725 -0.2799 -0.1180 -0.1339
34495SOL     OW 5491   1.417   4.827   1.097 -0.0955  0.9260  0.3007
34495SOL    HW1 5492   1.453   4.741   1.118 -0.9788  0.7436  1.1701
34495SOL    HW2 5493   1.458   4.852   1.015 -0.4747 -0.7258 -0.4193
34496SOL     OW 5494  10.094   7.712   0.938  0.2045  0.1548 -0.1643
34496SOL    HW1 5495  10.174   7.688   0.985 -1.3821  0.0650  2.7891
34496SOL    HW2 5496  10.066   7.794   0.979 -1.2456  0.1276 -1.0179
34497SOL     OW 5497   0.712   3.364   3.786  0.3459  0.4945  0.0415
34497SOL    HW1 5498   0.771   3.297   3.819  1.0202  0.1425 -1.7652
34497SOL    HW2 5499   0.721   3.437   3.848  1.4110 -0.1691  0.6937
34498SOL     OW 5500  10.128   1.568   9.171  0.6977  0.0343 -0.3074
34498SOL    HW1 5501  10.124   1.648   9.225 -0.4854 -0.3667  0.2386
34498SOL    HW2 5502  10.038   1.556   9.140  0.1007 -2.7447  2.1260
34499SOL     OW 5503   8.645   7.385   2.020  0.6207  0.1004 -0.6601
34499SOL    HW1 5504   8.707   7.317   1.990  0.3528 -0.4639  0.0386
34499SOL    HW2 5505   8.563   7.362   1.977  0.5627  0.0653 -0.5279
34500SOL     OW 5506   1.859   9.171   8.892  0.5091 -0.8668 -0.3980
34500SOL    HW1 5507   1.826   9.225   8.963  0.2816 -0.9995 -0.4040
34500SOL    HW2 5508   1.851   9.081   8.924  0.9889 -0.8953 -0.3446
34501SOL     OW 5509   2.080   9.011   8.163  0.2042  0.4482  0.5727
34501SOL    HW1 5510   2.175   9.015   8.179  0.1738  1.9420  0.4461
34501SOL    HW2 5511   2.041   9.028   8.249  0.0603  1.9439  0.2296
34502SOL     OW 5512   1.198  10.318   7.704 -0.3538  0.4576 -0.0507
34502SOL    HW1 5513   1.284  10.354   7.728 -0.5997 -0.2048  2.0883
34502SOL    HW2 5514   1.184  10.248   7.768 -2.1673  0.0456 -0.8522
34503SOL     OW 5515   1.882   4.535  10.386  0.3832 -0.4898 -0.3312
34503SOL    HW1 5516   1.961   4.588  10.387  0.3260 -0.4034 -0.2561
34503SOL    HW2 5517   1.811   4.597  10.406  0.4765 -0.8354  1.2373
34504SOL     OW 5518  10.437   6.545   2.582  0.2964 -0.3859  0.5278
34504SOL    HW1 5519  10.475   6.614   2.527 -0.0596  0.3513  1.1955
34504SOL    HW2 5520  10.481   6.465   2.553 -0.2301 -0.1014 -1.1654
34505SOL     OW 5521   9.081   4.342   7.414  0.3665  0.2768 -0.1565
34505SOL    HW1 5522   9.007   4.328   7.354  0.5188 -2.1055  0.1065
34505SOL    HW2 5523   9.159   4.327   7.360  0.5133 -1.4466  0.4638
34506SOL     OW 5524   8.084   1.588   0.396 -0.1681 -0.8132 -0.3893
34506SOL    HW1 5525   8.096   1.551   0.484  1.8929  0.4464 -0.0848
34506SOL    HW2 5526   7.991   1.577   0.379 -0.4356 -2.0715  1.5008
34507SOL     OW 5527  10.467   5.667   6.545  0.3310  0.3869 -0.2184
34507SOL    HW1 5528  10.440   5.704   6.461 -0.5000  2.3497  0.8388
34507SOL    HW2 5529  10.518   5.737   6.587 -0.2624 -0.0772  1.3695
34508SOL     OW 5530   2.110   3.809   6.632 -0.8365  0.1065 -0.0173
34508SOL    HW1 5531   2.021   3.831   6.661 -0.0328  1.7065  1.4252
34508SOL    HW2 5532   2.128   3.724   6.674 -1.7404 -0.3303 -0.4889
34509SOL     OW 5533  10.800   3.379   3.964 -0.2791  0.0493  0.3265
34509SOL    HW1 5534  10.797   3.379   3.868  2.0064 -0.2599  0.2174
34509SOL    HW2 5535  10.719   3.334   3.990 -0.8680 -0.0053 -1.4427
34510SOL     OW 5536   8.343   9.179   8.212  0.1789  0.4405 -0.1743
34510SOL    HW1 5537   8.250   9.195   8.231  0.1315  0.5324 -0.4812
34510SOL    HW2 5538   8.342   9.122   8.135  0.3846  1.9887 -1.3756
34511SOL     OW 5539   0.030   5.605   4.759  0.1878 -0.3067  0.0983
34511SOL    HW1 5540   0.120   5.606   4.726  0.6926  0.1580  1.3997
34511SOL    HW2 5541   0.019   5.690   4.801 -0.6460 -0.6121  0.5207
34512SOL     OW 5542  10.213   0.083   9.552  0.3502 -0.2242  0.5055
34512SOL    HW1 5543  10.160   0.092   9.632  0.2384 -0.6834  0.4866
34512SOL    HW2 5544  10.258  -0.001   9.563 -1.2357 -1.3134 -0.8146
34513SOL     OW 5545   8.336   9.603   6.758  0.0282  0.0172 -0.0496
34513SOL    HW1 5546   8.349   9.680   6.703 -2.6905 -0.0247 -0.8891
34513SOL    HW2 5547   8.273   9.549   6.709 -0.5491 -1.2250  1.9454
34514SOL     OW 5548   9.432   6.605   6.807  0.2061 -0.0104 -0.6677
34514SOL    HW1 5549   9.433   6.516   6.772  0.9787  0.2327 -1.3008
34514SOL    HW2 5550   9.525   6.627   6.819  0.0260  0.7427 -0.6204
34515SOL     OW 5551   7.981   0.570   5.307 -0.0657  0.1824 -0.0203
34515SOL    HW1 5552   7.974   0.631   5.380  1.1235 -1.7929  1.8668
34515SOL    HW2 5553   7.892   0.534   5.298  0.1120 -0.8477  1.7403
34516SOL     OW 5554   0.411   0.552   8.963  0.1291 -0.4095 -0.1124
34516SOL    HW1 5555   0.434   0.526   8.874 -1.3883  1.3536 -1.0876
34516SOL    HW2 5556   0.466   0.627   8.982 -0.6271  0.1773 -0.1878
34517SOL     OW 5557   9.789   4.448   2.071  0.1286 -0.0919  0.3462
34517SOL    HW1 5558   9.851   4.468   2.141  0.5257  1.2580 -0.3368
34517SOL    HW2 5559   9.844   4.441   1.993 -0.2661 -1.9146  0.2029
34518SOL     OW 5560   8.383   5.078   3.804 -0.0097 -0.1759  0.1068
34518SOL    HW1 5561   8.382   5.080   3.900 -0.6460 -3.0721  0.2407
34518SOL    HW2 5562   8.307   5.131   3.778 -0.4749 -0.2540  1.2426
34519SOL     OW 5563   8.750   4.740   3.661 -0.5976 -0.3871  0.0945
34519SOL    HW1 5564   8.730   4.651   3.692 -0.0615 -0.9029 -0.9952
34519SOL    HW2 5565   8.799   4.780   3.732  0.9351 -1.6736 -0.1886
34520SOL     OW 5566   9.993   4.212   8.093  0.3289  0.4586  0.0716
34520SOL    HW1 5567  10.031   4.205   8.180  3.0521  1.0519 -0.9586
34520SOL    HW2 5568   9.903   4.239   8.108  0.1383 -1.3555  2.7250
34521SOL     OW 5569   0.244   6.248   0.773 -0.2965 -0.4301  0.0501
34521SOL    HW1 5570   0.160   6.276   0.808 -0.9926 -1.4959 -0.7018
34521SOL    HW2 5571   0.280   6.189   0.840 -0.2292 -0.1177  0.2901
34522SOL     OW 5572   2.533   9.621   6.260  0.2847 -0.1296 -0.3943
34522SOL    HW1 5573   2.568   9.532   6.271 -0.1042 -0.0107  2.8643
34522SOL    HW2 5574   2.595   9.677   6.307 -0.4699  1.0717 -0.7904
34523SOL     OW 5575   2.723   8.798   9.924 -0.0532  0.6309  0.6516
34523SOL    HW1 5576   2.796   8.737   9.920 -0.3791  0.1106  1.9429
34523SOL    HW2 5577   2.684   8.783  10.010 -1.0380  1.6390  0.4129
34524SOL     OW 5578   8.769   2.313   9.151 -0.1125 -0.3542  0.0032
34524SOL    HW1 5579   8.760   2.397   9.106  0.6480  0.0712  0.6268
34524SOL    HW2 5580   8.682   2.273   9.146 -0.4511  0.4212 -0.3888
34525SOL     OW 5581   0.160   6.302   9.532  0.0481  0.1743 -0.5168
34525SOL    HW1 5582   0.114   6.305   9.448 -2.1686  1.8704  0.6630
34525SOL    HW2 5583   0.099   6.257   9.590  0.3802  1.4263  0.8323
34526SOL     OW 5584   9.695   3.421   0.265 -1.3318 -0.6917 -0.3400
34526SOL    HW1 5585   9.709   3.515   0.259 -0.3951 -0.8867 -1.4560
34526SOL    HW2 5586   9.628   3.411   0.333 -1.6313  0.7837 -0.3939
34527SOL     OW 5587   5.418   6.829   1.857  0.3555  0.4575  0.4118
34527SOL    HW1 5588   5.466   6.887   1.797  0.5171  0.5848  0.6596
34527SOL    HW2 5589   5.473   6.751   1.864  0.7394  0.7692  1.0142
34528SOL     OW 5590   2.406   0.663   4.461 -0.7459  0.2754 -0.0834
34528SOL    HW1 5591   2.375   0.583   4.502  0.6725  0.6687  1.9325
34528SOL    HW2 5592   2.327   0.707   4.430 -1.7044 -1.0021  0.4998
34529SOL     OW 5593  11.013   6.680   6.672 -0.5249 -0.1806 -0.3286
34529SOL    HW1 5594  10.926   6.677   6.631 -1.7341  0.3003  2.0183
34529SOL    HW2 5595  11.014   6.764   6.719  0.3318 -1.0975  1.3903
34530SOL     OW 5596   2.330   3.068   4.163 -0.2880  0.6099 -0.3320
34530SOL    HW1 5597   2.295   2.982   4.142  1.0741  0.3326 -1.6788
34530SOL    HW2 5598   2.357   3.061   4.255  0.0833 -0.5122 -0.5121
34531SOL     OW 5599  11.068  10.453   4.096 -0.1189  0.2397 -0.1373
34531SOL    HW1 5600  11.011  10.377   4.107  1.7048 -1.0611  0.8319
34531SOL    HW2 5601  11.112  10.437   4.012  1.5344 -0.7507  0.8478
34532SOL     OW 5602   1.921   9.894   6.464 -0.4419 -0.2486 -0.6535
34532SOL    HW1 5603   1.850   9.927   6.409 -1.8441 -0.6764  0.8360
34532SOL    HW2 5604   1.881   9.881   6.550  1.8677  1.2723  0.7710
34533SOL     OW 5605   9.286   0.217  11.076  0.0987  0.0403  0.4962
34533SOL    HW1 5606   9.234   0.153  11.123 -1.0048 -0.2159 -0.9860
34533SOL    HW2 5607   9.228   0.249  11.007  0.4302  3.0015  1.4379
34534SOL     OW 5608   2.496   6.671   6.920  0.1115  0.2193 -0.0635
34534SOL    HW1 5609   2.584   6.706   6.911  0.0292  0.2976 -0.6691
34534SOL    HW2 5610   2.451   6.733   6.978  0.4483  0.1908  0.2252
34535SOL     OW 5611   3.460   2.744   0.040 -0.0228  0.4855 -0.0580
34535SOL    HW1 5612   3.506   2.826   0.054  0.0203  0.3417  0.6693
34535SOL    HW2 5613   3.513   2.678   0.086  0.4357 -0.1082 -1.3840
34536SOL     OW 5614   3.721  10.921   9.033  0.4306 -0.1862 -0.0257
34536SOL    HW1 5615   3.673  10.933   8.951  0.6338 -0.2723 -0.1569
34536SOL    HW2 5616   3.673  10.975   9.097  1.0670  0.9592 -0.4989
34537SOL     OW 5617  10.737  10.555   4.136 -0.0788 -0.3463 -0.0789
34537SOL    HW1 5618  10.642  10.547   4.142 -0.3931  2.1438 -0.4656
34537SOL    HW2 5619  10.756  10.556   4.042  0.3299 -0.6843 -0.0066
34538SOL     OW 5620   5.270   5.332   2.760  0.1640  0.5077  0.1337
34538SOL    HW1 5621   5.304   5.244   2.776 -0.0636  0.0443 -1.7793
34538SOL    HW2 5622   5.241   5.361   2.847  0.6798 -1.0973  0.8970
34539SOL     OW 5623   2.077  10.716   1.648 -0.2362 -0.2541 -0.3608
34539SOL    HW1 5624   2.128  10.635   1.644  0.8512  0.4204 -0.8294
34539SOL    HW2 5625   2.114  10.765   1.722  0.1539  0.4473 -0.9938
34540SOL     OW 5626   7.818   3.623   9.812 -0.2783  0.0933  0.4707
34540SOL    HW1 5627   7.797   3.539   9.854 -0.9481  0.4373  0.8397
34540SOL    HW2 5628   7.914   3.623   9.805 -0.0847  0.2182  2.4342
34541SOL     OW 5629   8.795   9.452   9.382  0.7433  0.3267 -0.1894
34541SOL    HW1 5630   8.836   9.514   9.443  0.7089  1.1489 -0.9804
34541SOL    HW2 5631   8.717   9.498   9.351 -2.0109 -1.9046  2.7547
34542SOL     OW 5632   3.940   7.599   1.053 -0.3077  0.1728  0.3253
34542SOL    HW1 5633   3.864   7.642   1.090  0.8755  0.9894  1.9604
34542SOL    HW2 5634   3.993   7.670   1.016  0.6953 -0.0774  1.2190
34543SOL     OW 5635   7.003   2.151   9.835  0.3275  0.0269  0.4146
34543SOL    HW1 5636   7.003   2.160   9.739  1.9297  0.3079  0.4152
34543SOL    HW2 5637   7.090   2.182   9.862 -0.4224  0.8111  2.0559
34544SOL     OW 5638   6.142   4.635   0.209 -0.0460  0.4740  0.7690
34544SOL    HW1 5639   6.116   4.723   0.180 -3.1095  0.0839  1.9722
34544SOL    HW2 5640   6.161   4.588   0.127  1.2867  2.0896  0.0875
34545SOL     OW 5641   8.893   6.608   5.449  0.0188  0.2783 -0.3857
34545SOL    HW1 5642   8.924   6.556   5.374 -0.4985 -0.9590  0.2387
34545SOL    HW2 5643   8.839   6.677   5.410  2.3871  1.7120 -1.4103
34546SOL     OW 5644   0.820   6.246   0.069 -0.3473  0.2381 -0.2069
34546SOL    HW1 5645   0.732   6.215   0.052 -0.2743 -0.0815 -0.0187
34546SOL    HW2 5646   0.810   6.314   0.136 -0.5069  0.6110 -0.6104
34547SOL     OW 5647   0.915   5.584   2.928  0.2970 -0.2700  0.1807
34547SOL    HW1 5648   0.901   5.489   2.935 -0.2659 -0.2259 -0.2734
34547SOL    HW2 5649   0.968   5.606   3.004  0.8277 -1.0265  0.0434
34548SOL     OW 5650   8.596   8.863   5.389  0.6130  0.6012 -0.5709
34548SOL    HW1 5651   8.683   8.903   5.381  0.9422  0.0759  0.2903
34548SOL    HW2 5652   8.554   8.912   5.459  0.0165  1.1741 -1.3094
34549SOL     OW 5653   0.754   0.645   5.788  0.0311 -0.1733 -0.3165
34549SOL    HW1 5654   0.812   0.628   5.714  0.0016 -1.2305 -0.1117
34549SOL    HW2 5655   0.783   0.730   5.822  1.5523 -0.7370 -0.1323
34550SOL     OW 5656   4.024   1.704   8.219 -0.3098  0.4324  0.4472
34550SOL    HW1 5657   4.022   1.644   8.294  1.3394 -0.0667  0.1227
34550SOL    HW2 5658   4.102   1.678   8.169 -0.6590  1.5884 -0.7604
34551SOL     OW 5659   6.315   5.559  10.193  0.1054 -0.0839 -0.3808
34551SOL    HW1 5660   6.401   5.551  10.150  0.1315  0.4562 -0.4369
34551SOL    HW2 5661   6.335   5.565  10.286  0.2476  1.5870 -0.4862
34552SOL     OW 5662   2.887   1.718   3.460  0.1657  0.0747 -0.1132
34552SOL    HW1 5663   2.976   1.738   3.429  0.7447 -1.1301  0.7141
34552SOL    HW2 5664   2.836   1.706   3.379  1.2987 -1.4867 -0.6557
34553SOL     OW 5665   8.298   8.588   2.587  0.2702 -0.1559 -0.1176
34553SOL    HW1 5666   8.256   8.595   2.673 -1.6861  0.8681 -1.0784
34553SOL    HW2 5667   8.307   8.494   2.572 -0.2444 -0.3658  0.8167
34554SOL     OW 5668   1.705   5.786   8.174 -0.3921  0.5506  0.4709
34554SOL    HW1 5669   1.693   5.735   8.094 -2.7514  0.0383  1.0568
34554SOL    HW2 5670   1.759   5.731   8.230  0.1607  0.3223 -0.2786
34555SOL     OW 5671   8.571   4.732   1.508 -0.1551 -0.1089 -0.5403
34555SOL    HW1 5672   8.553   4.731   1.602  2.1907 -2.0832 -0.0191
34555SOL    HW2 5673   8.664   4.753   1.501 -0.3601  0.3876 -2.4778
34556SOL     OW 5674   7.178   6.955   7.881 -0.2565  0.0953 -0.5328
34556SOL    HW1 5675   7.183   6.992   7.969  1.9147 -0.8399 -0.1982
34556SOL    HW2 5676   7.195   7.028   7.823  1.1200  0.2075 -0.0179
34557SOL     OW 5677   5.233   7.110   6.035  0.0513  0.1590 -0.3324
34557SOL    HW1 5678   5.296   7.093   5.966 -0.8702 -0.9777 -0.9226
34557SOL    HW2 5679   5.254   7.046   6.103 -0.0129  0.2626 -0.2142
34558SOL     OW 5680   7.762   9.037   3.967 -0.5806 -0.5450 -0.4370
34558SOL    HW1 5681   7.678   9.082   3.971  0.7645  2.0385  1.9121
34558SOL    HW2 5682   7.827   9.107   3.958  1.6277 -1.9419  2.8292
34559SOL     OW 5683   4.664   9.354   9.477 -0.0769 -0.3311 -0.0015
34559SOL    HW1 5684   4.587   9.408   9.464 -0.2500 -0.9986 -2.3345
34559SOL    HW2 5685   4.643   9.271   9.433  1.1516 -1.3428  1.2123
34560SOL     OW 5686   2.309   9.171   0.596 -0.8628  0.3615 -0.1519
34560SOL    HW1 5687   2.215   9.175   0.580 -1.0564 -1.4864  0.2335
34560SOL    HW2 5688   2.341   9.258   0.574 -2.6280  0.9731 -0.4795
34561SOL     OW 5689   0.212  10.088   7.171  0.3723 -0.2940 -0.0583
34561SOL    HW1 5690   0.119  10.078   7.154  0.3489 -0.3574  0.1020
34561SOL    HW2 5691   0.251  10.107   7.086  0.2022 -0.1927 -0.1134
34562SOL     OW 5692   3.707   1.164   7.403  0.3314  0.1625  0.1470
34562SOL    HW1 5693   3.752   1.246   7.384  0.7514 -0.1054 -0.0197
34562SOL    HW2 5694   3.621   1.174   7.362  0.1588  0.7514  0.6341
34563SOL     OW 5695   8.769  10.344   4.101 -0.1450 -0.2240 -0.1377
34563SOL    HW1 5696   8.768  10.385   4.015 -1.4266  0.2987  0.1117
34563SOL    HW2 5697   8.689  10.375   4.144 -0.3329 -1.7032  0.6591
34564SOL     OW 5698   7.189   7.780   4.207 -0.4522 -0.3023 -0.0757
34564SOL    HW1 5699   7.134   7.751   4.280 -0.6456 -0.9111 -0.4562
34564SOL    HW2 5700   7.127   7.803   4.138 -0.3949  2.4846  0.6910
34565SOL     OW 5701  10.478  10.493   4.135  0.0640  0.0158 -0.1150
34565SOL    HW1 5702  10.441  10.451   4.057 -0.0652  0.6913 -0.4199
34565SOL    HW2 5703  10.432  10.451   4.208  1.1556 -1.6162 -0.3036
34566SOL     OW 5704   6.961   7.630   4.022  0.2512 -0.0856 -0.0692
34566SOL    HW1 5705   6.885   7.572   4.022  1.1361 -1.2911 -1.0624
34566SOL    HW2 5706   6.928   7.713   4.056 -0.9010 -1.3439  2.0591
34567SOL     OW 5707   1.959   8.584   5.043  0.1711  0.2289  0.0613
34567SOL    HW1 5708   1.971   8.628   4.959 -2.1058  1.5723  0.3708
34567SOL    HW2 5709   1.865   8.588   5.059  0.1903 -2.4665  1.3905
34568SOL     OW 5710   3.024   5.308   3.447 -0.5939 -0.6198 -0.1169
34568SOL    HW1 5711   3.091   5.376   3.437  0.0053 -0.6063  2.8990
34568SOL    HW2 5712   2.947   5.356   3.479 -0.7935 -1.0927  0.1270
34569SOL     OW 5713   5.590  11.003   2.061 -1.1955  0.5374 -0.1396
34569SOL    HW1 5714   5.643  11.051   1.998  0.2588  1.1048  1.4483
34569SOL    HW2 5715   5.527  11.067   2.094 -0.8703  0.6955  0.1798
34570SOL     OW 5716   3.337   6.582   3.234  0.1231  0.3133 -0.5242
34570SOL    HW1 5717   3.300   6.536   3.310  0.8447  0.7735  0.1168
34570SOL    HW2 5718   3.260   6.618   3.189 -0.2606  0.9667  0.6040
34571SOL     OW 5719   0.032  10.644   3.676  0.0455  0.4222  0.1619
34571SOL    HW1 5720  -0.000  10.625   3.588 -0.4024  0.4587  0.3148
34571SOL    HW2 5721   0.058  10.736   3.672  1.2284  0.0828 -0.2840
34572SOL     OW 5722   9.218   9.039   4.103 -0.0166 -0.1290 -0.0165
34572SOL    HW1 5723   9.217   9.122   4.056 -1.4729 -0.1379 -0.0527
34572SOL    HW2 5724   9.270   9.056   4.182 -0.1343  0.7562 -0.1240
34573SOL     OW 5725   9.566   4.632   8.123 -0.0185 -0.4660  0.2680
34573SOL    HW1 5726   9.524   4.552   8.155 -0.1016 -0.6581 -0.3006
34573SOL    HW2 5727   9.629   4.601   8.058 -2.9577  0.1023 -3.2013
34574SOL     OW 5728   9.084   5.307   9.943  0.4728 -0.2366 -0.2503
34574SOL    HW1 5729   9.118   5.347  10.024  0.3420 -0.8178  0.0977
34574SOL    HW2 5730   8.991   5.295   9.960 -0.2260  2.3702 -1.6086
34575SOL     OW 5731   6.016   6.804   3.386  0.2071  0.2158  0.1181
34575SOL    HW1 5732   5.936   6.763   3.352 -0.1181  0.8241  0.1389
34575SOL    HW2 5733   6.003   6.806   3.481 -0.0675  0.9505  0.0711
34576SOL     OW 5734   5.426  10.800   2.122  0.2087  0.5089 -0.6508
34576SOL    HW1 5735   5.494  10.846   2.072 -0.2974  1.5393 -0.4025
34576SOL    HW2 5736   5.379  10.869   2.169 -0.9054 -0.2032 -0.6810
34577SOL     OW 5737   7.344   2.916   9.777 -0.2526  0.7728  0.1297
34577SOL    HW1 5738   7.379   2.997   9.815 -0.4065  0.5035  0.8825
34577SOL    HW2 5739   7.421   2.863   9.758 -0.2007 -0.1684  2.5745
34578SOL     OW 5740   4.538   9.747   2.404 -0.1243  0.1286 -0.3203
34578SOL    HW1 5741   4.482   9.824   2.407 -2.2745 -1.3904  1.4202
34578SOL    HW2 5742   4.492   9.685   2.348 -0.5356 -1.3280  1.5212
34579SOL     OW 5743   6.275   6.613   5.656  0.0759  0.5130  0.1443
34579SOL    HW1 5744   6.260   6.519   5.660  3.0413 -0.1200 -0.9376
34579SOL    HW2 5745   6.347   6.629   5.718  0.8509  1.7151 -0.9925
34580SOL     OW 5746   0.787   1.308   3.721 -0.1585 -0.1718 -0.1423
34580SOL    HW1 5747   0.771   1.237   3.659  2.3890 -1.1230  0.1709
34580SOL    HW2 5748   0.701   1.327   3.759 -1.0350 -2.6241 -0.7303
34581SOL     OW 5749   6.425   8.226   2.425 -0.3541 -0.0161  0.0973
34581SOL    HW1 5750   6.424   8.144   2.376 -1.1800  0.2931 -0.4340
34581SOL    HW2 5751   6.423   8.294   2.357 -2.8011  0.4265  0.5315
34582SOL     OW 5752   7.452   2.763  10.682 -0.0707 -0.0718  0.0608
34582SOL    HW1 5753   7.365   2.723  10.686  0.2655 -0.8060  0.1581
34582SOL    HW2 5754   7.489   2.731  10.599 -0.7473  2.0516 -1.1624
34583SOL     OW 5755   3.595  11.100   9.986  0.3956  0.0678  0.4924
34583SOL    HW1 5756   3.530  11.089   9.917  1.2070  0.5990 -0.3841
34583SOL    HW2 5757   3.583  11.024  10.043  0.6879 -1.1898 -1.0513
34584SOL     OW 5758   7.162  10.238   5.046  0.5894 -0.4162  0.2995
34584SOL    HW1 5759   7.127  10.270   4.963 -1.9265 -1.2777  0.9442
34584SOL    HW2 5760   7.198  10.316   5.089  1.5519  0.1084 -1.3636
34585SOL     OW 5761   9.527   2.735   8.572  0.0031 -0.1235 -0.2782
34585SOL    HW1 5762   9.532   2.801   8.503  1.2755  0.6410  0.5022
34585SOL    HW2 5763   9.534   2.785   8.654 -1.1299 -1.0407  0.4120
34586SOL     OW 5764   6.683   2.331   9.757 -0.2528  0.0731 -0.1778
34586SOL    HW1 5765   6.705   2.310   9.848 -1.3826 -0.0553  0.0768
34586SOL    HW2 5766   6.719   2.419   9.743  1.0485 -0.4049 -0.0245
34587SOL     OW 5767   1.286   8.245   2.337  0.5218 -0.0742  0.3382
34587SOL    HW1 5768   1.317   8.325   2.381 -0.7319  0.8904 -0.4713
34587SOL    HW2 5769   1.366   8.202   2.306  1.3088  0.1546  1.9411
34588SOL     OW 5770   7.789   6.028   0.010  0.0454 -0.0236  0.3070
34588SOL    HW1 5771   7.743   6.099  -0.036  0.2932  0.5898  0.9867
34588SOL    HW2 5772   7.837   6.072   0.080  1.2305 -0.7143 -0.0386
34589SOL     OW 5773   8.229   1.067   7.942 -0.3416  0.0240 -0.1540
34589SOL    HW1 5774   8.143   1.094   7.910 -0.6198 -1.3571 -0.6830
34589SOL    HW2 5775   8.212   1.031   8.029  0.2163  2.5848  1.0919
34590SOL     OW 5776   8.047   3.529   6.641  0.2723  0.5427 -0.8815
34590SOL    HW1 5777   7.980   3.596   6.624 -0.0633  1.0025  1.8039
34590SOL    HW2 5778   8.018   3.453   6.591 -1.4260  1.2334 -1.0051
34591SOL     OW 5779   4.960   1.046   7.134 -0.1808  0.3701 -0.3035
34591SOL    HW1 5780   4.891   1.048   7.200 -0.6800 -0.1945 -0.7864
34591SOL    HW2 5781   5.039   1.076   7.179 -0.3900 -0.5398  0.7032
34592SOL     OW 5782   6.930   9.746   7.427  0.6240  0.4498  0.2700
34592SOL    HW1 5783   6.852   9.723   7.377  0.9237  1.0361 -0.4811
34592SOL    HW2 5784   6.979   9.664   7.435 -0.3323 -0.0543  1.2570
34593SOL     OW 5785   4.982   6.413   2.513 -0.2699 -0.0700  0.0947
34593SOL    HW1 5786   5.051   6.409   2.579  0.1195 -0.4747 -0.3317
34593SOL    HW2 5787   4.901   6.409   2.563  0.0252 -1.0831  0.5116
34594SOL     OW 5788   0.919   8.362   2.047 -0.2126 -0.2943 -0.2841
34594SOL    HW1 5789   0.918   8.429   2.115  0.4055 -1.3114  0.7616
34594SOL    HW2 5790   0.926   8.411   1.965  0.2460  0.9122  0.4511
34595SOL     OW 5791   8.801   0.594   6.099 -0.3062 -0.3647  0.2616
34595SOL    HW1 5792   8.850   0.668   6.135  0.6586  0.4671 -2.4435
34595SOL    HW2 5793   8.711   0.608   6.127  0.2803  0.4427  1.8387
34596SOL     OW 5794   6.139   9.100   4.701 -0.0687 -0.0519  0.3336
34596SOL    HW1 5795   6.146   9.060   4.615  1.9338  2.7759 -0.9602
34596SOL    HW2 5796   6.220   9.076   4.746 -0.2542  0.0220  0.7136
34597SOL     OW 5797   5.866   8.744   7.645  0.7429 -0.6796  0.1895
34597SOL    HW1 5798   5.808   8.815   7.618  0.1873 -0.8200  0.9754
34597SOL    HW2 5799   5.951   8.787   7.659  0.7978 -0.4450 -0.8024
34598SOL     OW 5800   7.959   9.574   5.457 -0.9267  0.1253  0.1944
34598SOL    HW1 5801   7.932   9.653   5.409 -2.2972  1.3498  2.7489
34598SOL    HW2 5802   8.042   9.549   5.417 -1.1605  1.9983 -1.6698
34599SOL     OW 5803   0.030   2.570  10.920 -0.2661  0.3351  0.3716
34599SOL    HW1 5804   0.033   2.524  11.004  1.2380 -0.0522  0.1365
34599SOL    HW2 5805   0.119   2.563  10.886 -0.9062  0.3213 -1.3661
34600SOL     OW 5806   0.766   6.169   5.102  0.0653 -0.2172  0.0821
34600SOL    HW1 5807   0.857   6.196   5.117 -0.0550 -0.3087  1.0443
34600SOL    HW2 5808   0.771   6.074   5.092 -0.0357 -0.3387  1.1254
34601SOL     OW 5809   6.249   9.503  10.099  0.1503  0.0205  0.1861
34601SOL    HW1 5810   6.342   9.512  10.082  0.3009  1.0595  1.4192
34601SOL    HW2 5811   6.210   9.486  10.013  1.1983  1.8463 -0.6994
34602SOL     OW 5812   9.155   3.067   7.755 -0.3679  0.0526  0.3990
34602SOL    HW1 5813   9.128   3.150   7.717 -1.4492 -0.9918 -1.2484
34602SOL    HW2 5814   9.177   3.012   7.680 -1.8123 -1.8689  1.2799
34603SOL     OW 5815   5.393   1.603   9.431 -0.3244 -0.1107  0.1179
34603SOL    HW1 5816   5.412   1.565   9.517  1.2800 -2.1622 -1.0516
34603SOL    HW2 5817   5.327   1.545   9.393  1.4611 -1.3476 -1.3131
34604SOL     OW 5818   9.642   6.611   2.638 -0.7475  0.4179  0.0230
34604SOL    HW1 5819   9.577   6.606   2.569 -1.4512  0.3672  0.6788
34604SOL    HW2 5820   9.638   6.526   2.681  1.1349 -0.3211 -1.1300
34605SOL     OW 5821   4.506   7.439   2.333  0.1646  0.2026  0.3930
34605SOL    HW1 5822   4.467   7.351   2.336  0.9588 -0.2799 -1.4886
34605SOL    HW2 5823   4.499   7.464   2.240 -0.9129  2.5606  1.0309
34606SOL     OW 5824   5.981   0.591   5.826  0.1283  0.1391  0.5472
34606SOL    HW1 5825   5.992   0.544   5.909 -0.4829 -0.7201  0.1656
34606SOL    HW2 5826   6.067   0.589   5.785  0.5253  0.9083  1.3293
34607SOL     OW 5827   6.124   7.790   0.831  0.2699  0.4474  0.1319
34607SOL    HW1 5828   6.150   7.778   0.922  1.5292  0.6149 -0.1947
34607SOL    HW2 5829   6.203   7.820   0.786 -0.8035  2.3398 -0.6391
34608SOL     OW 5830   9.445   0.396   9.246 -0.0588  0.0634  0.0200
34608SOL    HW1 5831   9.535   0.364   9.243 -0.2882 -0.5512 -1.9178
34608SOL    HW2 5832   9.440   0.447   9.327  1.9250 -0.1595  0.3331
34609SOL     OW 5833   8.676   7.242   4.687  0.2987  0.2035 -0.2178
34609SOL    HW1 5834   8.756   7.194   4.669  0.4971  0.2625  0.4547
34609SOL    HW2 5835   8.706   7.325   4.725 -0.0778  0.0420  0.4678
34610SOL     OW 5836  10.088   6.225   9.911  0.0938  0.0108 -0.2137
34610SOL    HW1 5837  10.015   6.213   9.970 -0.4063  0.0487 -0.8139
34610SOL    HW2 5838  10.049   6.226   9.824  0.5046  2.3268 -0.4501
34611SOL     OW 5839   8.250   5.218   5.796  0.0001 -0.0874 -0.5425
34611SOL    HW1 5840   8.317   5.166   5.842  1.3697  1.8390 -0.2622
34611SOL    HW2 5841   8.238   5.172   5.713  1.2673 -0.7775 -0.3759
34612SOL     OW 5842   7.622  10.080   0.889  0.2691  0.2298 -0.0585
34612SOL    HW1 5843   7.593  10.069   0.980 -2.1658  1.4939 -0.5988
34612SOL    HW2 5844   7.710  10.116   0.896  0.1389  0.2677  1.8024
34613SOL     OW 5845   9.050   0.945   6.952 -0.1919 -0.5859  0.0070
34613SOL    HW1 5846   9.090   0.860   6.971 -0.4458 -0.6369  0.3247
34613SOL    HW2 5847   9.038   0.985   7.038  1.3430  0.4326 -0.2142
34614SOL     OW 5848   9.430  10.825   3.426 -0.0790  0.3626 -0.1447
34614SOL    HW1 5849   9.441  10.892   3.493 -0.8170 -1.9458  2.4729
34614SOL    HW2 5850   9.349  10.849   3.382 -0.4029  1.1157  0.8210
34615SOL     OW 5851   4.452   8.350   6.966  0.3818  0.2659  0.3623
34615SOL    HW1 5852   4.525   8.410   6.951 -1.2899  1.6353 -3.6319
34615SOL    HW2 5853   4.492   8.263   6.969  2.3409  1.1129  0.4600
34616SOL     OW 5854   5.421  10.046   4.258 -0.2465  0.6005 -0.0268
34616SOL    HW1 5855   5.346  10.031   4.316  0.4465 -0.6590  0.6053
34616SOL    HW2 5856   5.437   9.960   4.218 -0.2623  1.2857 -1.5572
34617SOL     OW 5857   8.701   2.636   4.163  0.5836  0.3800 -0.1415
34617SOL    HW1 5858   8.629   2.666   4.219  0.8352 -0.4539  0.6535
34617SOL    HW2 5859   8.709   2.543   4.182  0.4695 -0.0120 -1.8149
34618SOL     OW 5860   4.468   1.181   8.689  0.6674  0.5938  0.2616
34618SOL    HW1 5861   4.424   1.099   8.667 -0.5093  1.1043  0.5977
34618SOL    HW2 5862   4.546   1.183   8.634  0.7855 -0.8133  0.3590
34619SOL     OW 5863   8.474   6.499   7.582 -0.0619 -0.3669  0.2228
34619SOL    HW1 5864   8.401   6.516   7.642  0.6344  0.2401  0.9013
34619SOL    HW2 5865   8.498   6.585   7.548 -2.3562 -0.8763 -3.2825
34620SOL     OW 5866   9.165   5.448  10.211 -0.1189  0.0994 -0.1929
34620SOL    HW1 5867   9.169   5.353  10.214 -1.1798  0.0317 -0.4963
34620SOL    HW2 5868   9.236   5.477  10.267 -0.7620 -0.8867  1.1956
34621SOL     OW 5869   7.484   6.642   6.008 -0.5101  0.0378 -0.1917
34621SOL    HW1 5870   7.535   6.605   5.936 -0.3733  0.2825 -0.2233
34621SOL    HW2 5871   7.464   6.731   5.980 -0.2205  0.2285  0.1848
34622SOL     OW 5872   7.156   7.347   7.199 -0.2924  0.2653 -0.3272
34622SOL    HW1 5873   7.101   7.278   7.236 -0.7155  0.8141  0.0859
34622SOL    HW2 5874   7.246   7.320   7.217 -0.3879 -0.8639 -1.3975
34623SOL     OW 5875   8.010   8.745   5.463 -0.6559  0.2275  0.3046
34623SOL    HW1 5876   7.990   8.764   5.371 -2.6013  2.0559  1.0098
34623SOL    HW2 5877   8.102   8.769   5.473 -0.3126 -0.3401 -1.2242
34624SOL     OW 5878   0.373   4.113   4.346  0.0730  0.1288 -0.1859
34624SOL    HW1 5879   0.352   4.047   4.412  0.7476  1.4668  1.4378
34624SOL    HW2 5880   0.361   4.197   4.391  2.0270  1.0676 -1.2870
34625SOL     OW 5881   7.816   8.910   6.644  0.0634  0.0025  0.1335
34625SOL    HW1 5882   7.797   8.912   6.738 -0.8801  0.3191 -0.0542
34625SOL    HW2 5883   7.827   8.817   6.625 -0.5925 -0.1378  0.3999
34626SOL     OW 5884   7.701   9.807   5.920 -0.1531  0.1150 -0.2521
34626SOL    HW1 5885   7.751   9.855   5.986  1.1693  0.3527 -1.3916
34626SOL    HW2 5886   7.633   9.761   5.971  1.7265 -0.9353  1.4811
34627SOL     OW 5887   1.021   7.132   5.783 -0.1182 -0.3235 -0.0191
34627SOL    HW1 5888   1.059   7.052   5.817  1.6280  0.1795 -0.6843
34627SOL    HW2 5889   1.036   7.197   5.852 -1.6583 -0.5626  0.5811
34628SOL     OW 5890   7.348   7.305   5.094  0.2872 -0.0379 -0.0224
34628SOL    HW1 5891   7.396   7.310   5.011  1.5585 -1.3366  0.5933
34628SOL    HW2 5892   7.347   7.396   5.126 -0.1123  0.4632 -1.3596
34629SOL     OW 5893   3.494   4.028   9.557  0.1754  0.1505  0.2983
34629SOL    HW1 5894   3.573   4.052   9.605  1.4491  0.1784 -1.6901
34629SOL    HW2 5895   3.460   3.951   9.602  1.7759 -0.3237  0.7469
34630SOL     OW 5896   8.937   0.900   0.802 -0.3805  0.0592  0.5991
34630SOL    HW1 5897   9.027   0.931   0.805 -0.0381 -0.8491 -0.2040
34630SOL    HW2 5898   8.884   0.981   0.802  0.4867  0.6708 -1.1354
34631SOL     OW 5899   4.860   8.478   9.367 -0.7635  0.3905  0.6483
34631SOL    HW1 5900   4.822   8.559   9.401  1.1795  1.1683  1.0512
34631SOL    HW2 5901   4.919   8.448   9.435 -2.1790 -1.9805  0.9433
34632SOL     OW 5902   0.184   1.822   9.472  0.1386 -0.5780  0.4962
34632SOL    HW1 5903   0.178   1.847   9.380  0.3294  0.9065  0.8723
34632SOL    HW2 5904   0.167   1.902   9.520  0.5909 -1.2156  1.7657
34633SOL     OW 5905   7.887   5.705   2.820 -0.1239 -0.2051 -0.1030
34633SOL    HW1 5906   7.921   5.775   2.764  0.2449 -0.1773  0.1503
34633SOL    HW2 5907   7.792   5.714   2.815 -0.1016 -0.3011 -0.8467
34634SOL     OW 5908   7.754   4.397   3.680 -0.7122 -0.5595 -0.0328
34634SOL    HW1 5909   7.787   4.429   3.597 -2.1498  0.5465 -0.2277
34634SOL    HW2 5910   7.831   4.389   3.736  0.0149  0.8423 -0.7915
34635SOL     OW 5911   6.589   6.268  10.695  0.4483 -0.0637  0.2779
34635SOL    HW1 5912   6.573   6.212  10.771 -2.2031 -0.4746 -0.4825
34635SOL    HW2 5913   6.666   6.230  10.653 -1.9481 -4.1679 -0.9572
34636SOL     OW 5914   7.314   1.707   4.411 -0.2775  0.1347 -0.3990
34636SOL    HW1 5915   7.356   1.662   4.485 -1.8661 -1.7656 -0.5660
34636SOL    HW2 5916   7.338   1.654   4.334 -0.4114  0.8579 -0.9521
34637SOL     OW 5917   2.144   2.983   2.593 -0.3850 -0.0656  0.0459
34637SOL    HW1 5918   2.175   3.018   2.677 -0.0956 -3.0407  1.2962
34637SOL    HW2 5919   2.052   3.010   2.589 -1.0612 -1.7125  2.4902
34638SOL     OW 5920   2.031   8.893   5.227  0.1064  0.2890 -0.0448
34638SOL    HW1 5921   1.970   8.897   5.300 -0.4056  1.1157 -0.4992
34638SOL    HW2 5922   1.978   8.915   5.150  1.2223  2.5302 -0.2727
34639SOL     OW 5923   9.329  10.779   0.887  0.1822 -0.5081  0.1304
34639SOL    HW1 5924   9.329  10.693   0.846  2.5609 -0.3134 -0.4136
34639SOL    HW2 5925   9.374  10.766   0.971  1.4761  0.3350 -0.3967
34640SOL     OW 5926   2.342   0.968   4.688  0.3193  0.1654 -0.7019
34640SOL    HW1 5927   2.252   0.939   4.676  0.6293 -1.9571  1.3158
34640SOL    HW2 5928   2.393   0.911   4.631  0.4490  0.9728 -1.4039
34641SOL     OW 5929   8.097   7.779  10.351 -0.0521  0.3568 -0.0825
34641SOL    HW1 5930   8.177   7.759  10.399 -0.1062 -2.3852 -0.9499
34641SOL    HW2 5931   8.126   7.829  10.275  0.4602  1.7009  0.9652
34642SOL     OW 5932   4.657   8.661   7.945  0.8917  0.1839  0.3402
34642SOL    HW1 5933   4.651   8.618   8.030  1.1978 -0.7936 -0.1115
34642SOL    HW2 5934   4.640   8.591   7.881  0.9767  0.8269 -0.4115
34643SOL     OW 5935   6.095   5.888   3.724 -0.2032 -0.1154  0.3988
34643SOL    HW1 5936   6.177   5.933   3.703 -0.1986 -0.0629  0.5315
34643SOL    HW2 5937   6.110   5.848   3.810 -0.8294  1.1569  1.1218
34644SOL     OW 5938   6.136   8.295   7.169  0.4974  0.1851 -0.5558
34644SOL    HW1 5939   6.169   8.249   7.246  1.7242  0.3701 -0.9548
34644SOL    HW2 5940   6.096   8.374   7.205 -0.6430 -0.6374  0.0353
34645SOL     OW 5941   3.726   3.742   4.232  0.3212 -0.0581 -0.0082
34645SOL    HW1 5942   3.756   3.819   4.182  1.6310 -0.1039  0.6597
34645SOL    HW2 5943   3.641   3.768   4.267  0.2162  0.6504 -0.7517
34646SOL     OW 5944  10.193   2.594   7.848  0.4115 -0.6643 -0.5331
34646SOL    HW1 5945  10.247   2.516   7.844  0.8482 -0.3271 -1.9323
34646SOL    HW2 5946  10.244   2.661   7.802  0.0871  0.4756  0.6986
34647SOL     OW 5947   0.725   8.288   1.318  0.1267  0.0816 -0.5859
34647SOL    HW1 5948   0.736   8.220   1.251 -1.0433 -1.1970  0.4553
34647SOL    HW2 5949   0.679   8.244   1.389 -0.4139  1.9094  0.2584
34648SOL     OW 5950  10.436   8.908   5.758 -0.3734 -0.8636  0.3664
34648SOL    HW1 5951  10.387   8.986   5.732 -0.6813 -1.2338 -0.1788
34648SOL    HW2 5952  10.520   8.916   5.714  0.7222  0.5856  2.5774
34649SOL     OW 5953  11.034   9.482   5.390 -0.9984  0.5024 -0.1704
34649SOL    HW1 5954  11.080   9.432   5.323 -0.5494 -0.6334  0.9579
34649SOL    HW2 5955  11.094   9.552   5.414 -0.3895 -0.1928  0.3580
34650SOL     OW 5956   6.815   9.844   1.202  0.1404  0.0273 -0.3497
34650SOL    HW1 5957   6.806   9.940   1.208 -1.4989  0.0544 -2.1752
34650SOL    HW2 5958   6.727   9.813   1.183  0.3732 -2.0403  1.4885
34651SOL     OW 5959   6.485   1.581   6.503 -0.3914 -0.6099  0.1707
34651SOL    HW1 5960   6.578   1.570   6.483 -0.3929  0.5964 -0.5988
34651SOL    HW2 5961   6.483   1.600   6.597  0.2199  0.0810  0.0566
34652SOL     OW 5962   3.377  10.431   3.015 -0.3570 -0.7313  0.3011
34652SOL    HW1 5963   3.349  10.422   3.106 -0.4688  0.2011  0.3636
34652SOL    HW2 5964   3.323  10.501   2.979 -0.1820 -0.9602 -0.4365
34653SOL     OW 5965   5.552   9.714   9.053  0.1809  0.6041 -0.0628
34653SOL    HW1 5966   5.630   9.660   9.045  1.2500  1.7011  2.0531
34653SOL    HW2 5967   5.479   9.652   9.053  1.1448 -0.5627 -0.6101
34654SOL     OW 5968   9.527   3.654   5.609  0.0897  0.5130  0.0751
34654SOL    HW1 5969   9.559   3.642   5.519 -0.5287  0.0644 -0.0921
34654SOL    HW2 5970   9.599   3.622   5.664  1.0118  2.0047 -0.2077
34655SOL     OW 5971   1.151   0.462   8.493  0.2826 -0.0054 -0.3831
34655SOL    HW1 5972   1.229   0.407   8.486  0.6858  0.3891  0.8908
34655SOL    HW2 5973   1.159   0.523   8.419  0.6004 -0.6696 -0.9153
34656SOL     OW 5974   0.965   1.944   1.384  0.1916  0.3773 -0.1181
34656SOL    HW1 5975   0.956   1.953   1.289  1.1313  0.0579 -0.2488
34656SOL    HW2 5976   0.878   1.919   1.414 -0.3772  1.5213 -0.7546
34657SOL     OW 5977   9.129   7.769  10.605 -0.3383 -0.1182  0.2287
34657SOL    HW1 5978   9.200   7.822  10.568  1.3401 -2.0406  0.5090
34657SOL    HW2 5979   9.165   7.681  10.610 -1.4640 -0.5374  3.7494
34658SOL     OW 5980   7.932   6.646   2.799  0.1944 -0.1171  0.2078
34658SOL    HW1 5981   8.027   6.639   2.806  0.0679 -1.5623  0.7865
34658SOL    HW2 5982   7.898   6.582   2.862 -1.1910  1.9295  1.7090
34659SOL     OW 5983   1.342  10.110   1.892  0.6496  0.5958 -0.4547
34659SOL    HW1 5984   1.265  10.054   1.886  1.4037 -0.4591 -0.4747
34659SOL    HW2 5985   1.348  10.152   1.807  0.3429  0.3533 -0.5982
34660SOL     OW 5986   1.828   2.755   3.834 -0.7109 -0.7932 -0.6346
34660SOL    HW1 5987   1.871   2.748   3.919 -0.4360 -1.5334 -0.8275
34660SOL    HW2 5988   1.745   2.707   3.845 -0.4921 -1.2420 -0.8910
34661SOL     OW 5989   3.214   1.172  10.800  0.2703  0.3574 -0.1305
34661SOL    HW1 5990   3.168   1.255  10.785 -0.7191 -0.6141 -3.0660
34661SOL    HW2 5991   3.157   1.124  10.859  0.8627  1.6852  1.6278
34662SOL     OW 5992   0.592   8.354   1.019  0.6761  0.2166  0.5114
34662SOL    HW1 5993   0.514   8.408   1.003 -0.4212 -1.6885 -0.9810
34662SOL    HW2 5994   0.662   8.399   0.971 -0.1601  0.4278 -0.5462
34663SOL     OW 5995   9.527   0.232   8.544 -0.0364  0.2516 -0.6084
34663SOL    HW1 5996   9.549   0.161   8.605  1.4528  2.2423  1.3485
34663SOL    HW2 5997   9.611   0.269   8.519 -0.6798  4.0446  1.9767
34664SOL     OW 5998   9.183   8.421   5.831 -0.3041 -0.2045  0.0240
34664SOL    HW1 5999   9.271   8.413   5.867  0.4996 -1.8451 -2.0551
34664SOL    HW2 6000   9.156   8.331   5.813 -1.7202  0.3660 -0.9044
34665SOL     OW 6001   2.052   8.471   6.468  0.3602 -0.1477  0.1119
34665SOL    HW1 6002   2.103   8.483   6.388 -0.4298  0.8881 -0.2654
34665SOL    HW2 6003   2.058   8.377   6.487  0.6760 -0.3813 -1.0837
34666SOL     OW 6004  10.904   8.894   9.196  0.4098 -0.0306  0.1566
34666SOL    HW1 6005  10.970   8.961   9.179 -0.2187  0.5977  0.1169
34666SOL    HW2 6006  10.954   8.814   9.210  1.1176  0.1054 -1.3646
34667SOL     OW 6007  10.798   9.636   3.100  0.4877 -0.5281 -0.1572
34667SOL    HW1 6008  10.829   9.559   3.148  1.8436 -0.2668 -0.5757
34667SOL    HW2 6009  10.755   9.600   3.022  2.8776 -0.8978 -1.4128
34668SOL     OW 6010   0.013   1.319   8.224 -0.3305  0.0800 -0.4772
34668SOL    HW1 6011   0.029   1.340   8.316  1.1870 -2.5421 -0.0306
34668SOL    HW2 6012  -0.069   1.269   8.225 -0.3944  0.1825 -0.5702
34669SOL     OW 6013  10.943   7.239   6.060 -0.2978 -0.0821  0.3159
34669SOL    HW1 6014  10.857   7.196   6.064 -1.3712  1.8360 -0.4295
34669SOL    HW2 6015  10.998   7.189   6.119 -1.0536 -3.2319 -1.4565
34670SOL     OW 6016   4.170   4.424   8.565 -0.4506 -0.2823 -1.0409
34670SOL    HW1 6017   4.187   4.371   8.488  0.4620 -0.2618 -0.8604
34670SOL    HW2 6018   4.199   4.512   8.541  0.4726 -0.4132 -0.4532
34671SOL     OW 6019  10.611   3.110   7.117 -0.5181 -0.2596 -0.4069
34671SOL    HW1 6020  10.561   3.150   7.046 -0.9146  0.6650  0.3668
34671SOL    HW2 6021  10.693   3.160   7.120 -0.8491  0.2524  0.3074
34672SOL     OW 6022   7.235   0.441   2.296 -0.0111  0.5088 -0.2602
34672SOL    HW1 6023   7.323   0.441   2.335 -0.0066  1.0816 -0.2631
34672SOL    HW2 6024   7.205   0.351   2.305  0.8695  0.1292 -0.9187
34673SOL     OW 6025   4.368   7.537   4.415 -0.0328 -0.2038  0.3197
34673SOL    HW1 6026   4.317   7.463   4.382  0.7745 -1.2436  1.3001
34673SOL    HW2 6027   4.449   7.497   4.447  1.2390  1.3501 -0.8354
34674SOL     OW 6028   8.614  10.988   4.679 -0.0025  0.3051 -0.6277
34674SOL    HW1 6029   8.655  10.938   4.750 -1.5204  1.1181  0.9220
34674SOL    HW2 6030   8.543  10.932   4.648 -0.3592  0.5961 -0.3580
34675SOL     OW 6031   6.995   0.505   1.999  0.4325 -0.2855 -0.2783
34675SOL    HW1 6032   7.072   0.557   2.024  0.0842 -1.1544  3.1017
34675SOL    HW2 6033   7.031   0.431   1.950  1.6171  0.0537  0.0478
34676SOL     OW 6034   2.316   4.971   1.439  0.5946 -0.0925  0.6065
34676SOL    HW1 6035   2.256   4.953   1.511 -0.0069  0.5474  0.2808
34676SOL    HW2 6036   2.274   4.934   1.362  0.7196  0.1715  0.4089
34677SOL     OW 6037  10.254   2.535   6.517 -0.0413 -0.3499 -0.6148
34677SOL    HW1 6038  10.170   2.507   6.554  0.7370 -1.0868  0.6593
34677SOL    HW2 6039  10.268   2.623   6.552 -0.5558  0.0352 -1.3386
34678SOL     OW 6040   5.297  11.033   4.274  0.1026 -0.5670  0.5251
34678SOL    HW1 6041   5.334  10.950   4.244 -0.1700 -0.9215  1.1470
34678SOL    HW2 6042   5.286  11.021   4.369  1.5004  0.7117  0.9011
34679SOL     OW 6043   1.389   3.487   5.648  0.3699  0.8188  0.0223
34679SOL    HW1 6044   1.396   3.397   5.617 -0.8673  1.3061 -1.8281
34679SOL    HW2 6045   1.350   3.479   5.735  1.8779 -0.4852  0.6342
34680SOL     OW 6046   5.402   7.950   4.892  0.2422  0.4798  0.9178
34680SOL    HW1 6047   5.341   8.019   4.865  0.3232 -0.4999 -2.1001
34680SOL    HW2 6048   5.347   7.884   4.933 -0.8713 -0.4548 -1.8887
34681SOL     OW 6049   5.967   6.829   3.684  0.5138  0.0915 -0.0848
34681SOL    HW1 6050   5.876   6.840   3.714 -0.6512  1.8632 -3.7033
34681SOL    HW2 6051   6.016   6.896   3.732  0.1669 -1.3269  2.4201
34682SOL     OW 6052   8.562  10.071   2.576 -0.0181  0.5213  0.4219
34682SOL    HW1 6053   8.620  10.140   2.610  0.1890  0.7810 -0.4313
34682SOL    HW2 6054   8.622  10.008   2.535 -0.3099  0.6994 -0.3002
34683SOL     OW 6055   4.915   2.917   3.224 -0.3442  0.1666 -0.7575
34683SOL    HW1 6056   4.854   2.932   3.152  2.2920 -0.4027 -3.2870
34683SOL    HW2 6057   4.903   2.825   3.247 -2.5980  0.8308  1.0386
34684SOL     OW 6058   8.519   7.118   6.920 -0.0225 -0.3272  0.0521
34684SOL    HW1 6059   8.613   7.111   6.933  0.0156  0.4328  0.2269
34684SOL    HW2 6060   8.497   7.046   6.861  0.1242 -2.5827  2.5835
34685SOL     OW 6061   9.553  10.146   7.604  0.0748  0.1316  0.4378
34685SOL    HW1 6062   9.610  10.137   7.527 -0.4903 -0.0892  0.0343
34685SOL    HW2 6063   9.611  10.178   7.673  1.0687 -1.6965  0.5126
34686SOL     OW 6064   7.397   6.468   9.739  0.3652 -0.2599  0.9977
34686SOL    HW1 6065   7.351   6.536   9.788 -3.6466 -1.2248 -0.9938
34686SOL    HW2 6066   7.432   6.512   9.662  1.0067  0.1262  1.5008
34687SOL     OW 6067   8.502   5.051   6.715 -0.2109  0.3618  0.2875
34687SOL    HW1 6068   8.587   5.031   6.676 -1.3413  0.0434 -2.2244
34687SOL    HW2 6069   8.496   4.993   6.791  0.2884 -2.4752 -1.6797
34688SOL     OW 6070   0.740   5.441  10.960  0.2414  0.1333 -0.1726
34688SOL    HW1 6071   0.714   5.455  10.869  1.7196 -0.6429 -0.7482
34688SOL    HW2 6072   0.686   5.503  11.010 -1.9041 -0.6609 -1.3430
34689SOL     OW 6073  10.013  11.099   7.338  0.0149  0.2651 -0.2695
34689SOL    HW1 6074  10.079  11.052   7.388 -0.6139  0.1379  0.4648
34689SOL    HW2 6075  10.060  11.134   7.262  1.1989  1.2597  0.8889
34690SOL     OW 6076   9.392   7.836  10.257  0.4423  0.1574 -0.3762
34690SOL    HW1 6077   9.382   7.862  10.348  1.3107  0.1564 -0.2679
34690SOL    HW2 6078   9.417   7.743  10.261 -3.2838 -1.0464 -0.7752
34691SOL     OW 6079   6.087   6.780  10.386  0.2704 -0.1197  0.0677
34691SOL    HW1 6080   6.077   6.875  10.397 -0.5647 -0.2556  0.5074
34691SOL    HW2 6081   6.182   6.767  10.385  0.5083  1.0192 -2.6804
34692SOL     OW 6082   0.760   3.458   5.222  0.1991 -0.2194  0.2467
34692SOL    HW1 6083   0.666   3.445   5.206  0.0400 -0.6912  1.3902
34692SOL    HW2 6084   0.763   3.500   5.308  1.0175  0.3884 -0.0776
34693SOL     OW 6085  10.395   7.899   8.473 -0.2342  0.3774 -0.3332
34693SOL    HW1 6086  10.351   7.981   8.499 -0.0726 -0.0128  1.2591
34693SOL    HW2 6087  10.424   7.861   8.556 -0.4521 -1.3854 -1.0418
34694SOL     OW 6088   8.789   6.775   8.218 -0.2383  0.4123 -0.2111
34694SOL    HW1 6089   8.749   6.840   8.275 -0.0185  0.2131  0.1760
34694SOL    HW2 6090   8.867   6.746   8.265  0.8002  1.3516 -1.3042
34695SOL     OW 6091   5.038   5.546   8.926  0.2225 -0.4792  0.0184
34695SOL    HW1 6092   4.977   5.534   8.853  0.4487 -0.4807 -0.1725
34695SOL    HW2 6093   5.094   5.620   8.898 -1.6609  1.6484  1.5012
34696SOL     OW 6094   2.655   4.853   9.911  0.0413  0.0225 -0.0840
34696SOL    HW1 6095   2.661   4.787   9.841  1.1127 -2.5005  2.1962
34696SOL    HW2 6096   2.739   4.899   9.907  0.4655 -0.7147  0.0525
34697SOL     OW 6097  10.664   3.020   5.544 -0.1146  0.1379 -0.2770
34697SOL    HW1 6098  10.635   2.929   5.553  0.2060 -0.2077 -2.3232
34697SOL    HW2 6099  10.585   3.068   5.521 -0.3023  0.4205  0.8959
34698SOL     OW 6100   1.331   9.952   1.385  0.2418 -0.2645  0.5696
34698SOL    HW1 6101   1.376  10.001   1.317  0.3624 -0.0412  0.8070
34698SOL    HW2 6102   1.295  10.019   1.443  1.0508 -0.4426  1.3156
34699SOL     OW 6103  11.048   4.712   1.768  0.2780  0.2866 -0.3635
34699SOL    HW1 6104  10.963   4.704   1.811 -0.9101  1.7287 -2.2361
34699SOL    HW2 6105  11.050   4.640   1.705  1.4582 -1.0571  1.1245
34700SOL     OW 6106   6.951  10.931   4.141 -0.0665 -0.0327 -0.1641
34700SOL    HW1 6107   6.861  10.963   4.135 -0.9491 -2.0584  1.0305
34700SOL    HW2 6108   6.970  10.894   4.055 -0.6389 -0.1822 -0.2301
34701SOL     OW 6109   6.241   8.517  10.100  0.4079 -0.6842 -0.1773
34701SOL    HW1 6110   6.256   8.439  10.154  1.2455 -0.5493 -0.2082
34701SOL    HW2 6111   6.182   8.487  10.031 -1.1184 -0.7458  1.0800
34702SOL     OW 6112   9.072   9.609   6.827 -0.4995  0.0022 -0.3278
34702SOL    HW1 6113   9.061   9.568   6.741 -0.2627  2.6018 -1.6866
34702SOL    HW2 6114   8.988   9.651   6.845  0.0638  1.1655 -0.2871
34703SOL     OW 6115   9.757   8.159   5.559  0.5190 -0.1115  0.0215
34703SOL    HW1 6116   9.704   8.194   5.631  1.1203 -0.8932  0.8711
34703SOL    HW2 6117   9.846   8.190   5.577  0.7763 -0.7705 -0.0600
34704SOL     OW 6118   7.179   4.199   2.986  0.2179  0.8350  0.0096
34704SOL    HW1 6119   7.233   4.193   2.907 -1.2110  1.3165 -1.0538
34704SOL    HW2 6120   7.215   4.274   3.033  1.5494  0.0994  0.2191
34705SOL     OW 6121   1.262   3.416   0.663  0.5524 -0.1247 -0.4172
34705SOL    HW1 6122   1.261   3.443   0.572  0.0287 -0.5382 -0.5423
34705SOL    HW2 6123   1.339   3.359   0.671  0.8964  0.3278 -0.4691
34706SOL     OW 6124   0.449   3.643   3.927  0.3643  0.0744  0.6195
34706SOL    HW1 6125   0.413   3.593   4.000  1.8345 -1.2428  0.5041
34706SOL    HW2 6126   0.420   3.596   3.849 -0.4234  0.9415  0.3768
34707SOL     OW 6127   7.566   4.921   1.646 -0.1386  0.6019  0.2587
34707SOL    HW1 6128   7.549   4.853   1.581 -1.2030  0.5776  0.5365
34707SOL    HW2 6129   7.494   4.913   1.708  1.8282 -0.6153  2.5181
34708SOL     OW 6130   9.225   6.800   6.787  0.4092  0.3554  0.0762
34708SOL    HW1 6131   9.296   6.737   6.795 -0.7799 -0.8567  1.6865
34708SOL    HW2 6132   9.163   6.777   6.856 -1.4637  1.5038 -1.0949
34709SOL     OW 6133   6.881   9.085   5.574  0.8318 -0.4369 -0.2377
34709SOL    HW1 6134   6.838   9.133   5.645 -0.6232 -0.7040 -0.8842
34709SOL    HW2 6135   6.963   9.131   5.560  0.9612 -0.1239  1.3227
34710SOL     OW 6136   6.427   5.067   7.791 -0.3231  0.2050 -0.2784
34710SOL    HW1 6137   6.472   5.077   7.874 -0.5742  1.7329 -0.2902
34710SOL    HW2 6138   6.483   5.009   7.739  0.2717 -0.0471  0.6282
34711SOL     OW 6139  10.184   9.634   7.224 -0.1414 -0.1764  0.3428
34711SOL    HW1 6140  10.109   9.689   7.244 -0.6741 -0.3655 -1.0320
34711SOL    HW2 6141  10.188   9.632   7.128  1.4991 -0.3284  0.3742
34712SOL     OW 6142   4.032   4.149   3.205 -0.2924 -0.3211 -0.8672
34712SOL    HW1 6143   4.081   4.154   3.287 -2.6397 -1.6948  0.7429
34712SOL    HW2 6144   4.017   4.055   3.192  1.0124 -0.2440 -3.5705
34713SOL     OW 6145   8.536   9.785   4.009  0.4196  0.1294  0.0063
34713SOL    HW1 6146   8.603   9.836   3.964  0.9186 -0.7011 -0.1941
34713SOL    HW2 6147   8.477   9.851   4.045  1.7448  0.8946  0.8412
34714SOL     OW 6148   3.856   4.260   5.618 -0.2496  0.5667 -0.4921
34714SOL    HW1 6149   3.792   4.326   5.591 -1.4435  0.1665  1.2051
34714SOL    HW2 6150   3.803   4.187   5.650  1.0510  0.1142  0.7052
34715SOL     OW 6151   1.602   9.761   7.007 -0.1392 -0.1886 -0.6428
34715SOL    HW1 6152   1.667   9.826   7.032  0.8619 -0.2109 -2.9300
34715SOL    HW2 6153   1.651   9.678   7.006 -0.5743 -0.4461 -0.9536
34716SOL     OW 6154   6.229   7.278   4.971  0.1367  0.0568 -0.3044
34716SOL    HW1 6155   6.211   7.340   5.041  0.7730 -1.7832  1.5936
34716SOL    HW2 6156   6.168   7.205   4.987 -0.2006 -0.0991 -2.1139
34717SOL     OW 6157  10.947   2.969   5.527 -0.3154 -0.2596 -0.1912
34717SOL    HW1 6158  10.858   3.004   5.537 -0.2498 -0.2907  0.5939
34717SOL    HW2 6159  10.987   3.026   5.462 -0.8239 -0.0795 -0.3581
34718SOL     OW 6160   4.370   0.778   3.959 -0.3715  0.0014  0.1990
34718SOL    HW1 6161   4.399   0.806   4.046 -1.2484  0.4296  0.3690
34718SOL    HW2 6162   4.311   0.848   3.930  2.1567  1.3816 -2.0064
34719SOL     OW 6163   4.039   8.978   9.131 -0.6354  0.0577  0.0982
34719SOL    HW1 6164   4.074   9.002   9.045 -2.3270 -1.6522 -1.1410
34719SOL    HW2 6165   3.960   9.031   9.141 -2.4962 -2.3295 -1.1331
34720SOL     OW 6166   4.770   0.722   1.143 -0.1137  0.0066 -0.4424
34720SOL    HW1 6167   4.768   0.794   1.080 -1.9053  1.0791  0.7437
34720SOL    HW2 6168   4.772   0.643   1.089 -0.3922  0.9060 -1.8201
34721SOL     OW 6169   1.243   5.838   7.161 -0.5598 -0.0409 -0.1614
34721SOL    HW1 6170   1.251   5.901   7.089  0.5794 -0.2396 -0.2125
34721SOL    HW2 6171   1.328   5.795   7.166 -1.1731 -1.2393  0.2013
34722SOL     OW 6172   1.266   8.578   7.290  0.4848  0.1471 -0.3535
34722SOL    HW1 6173   1.227   8.516   7.352 -0.1397 -0.3522 -1.2226
34722SOL    HW2 6174   1.361   8.568   7.303  0.3760 -0.4240  0.0522
34723SOL     OW 6175  11.036   4.178   8.046 -0.0167 -0.3394 -0.4681
34723SOL    HW1 6176  11.052   4.212   7.958  1.9992 -0.9163 -0.3768
34723SOL    HW2 6177  10.979   4.244   8.087 -0.3998  0.2964 -1.9392
34724SOL     OW 6178   1.519   8.060   6.053  0.7039 -0.1515 -0.4823
34724SOL    HW1 6179   1.459   8.113   6.001  1.3840 -1.5669 -2.9027
34724SOL    HW2 6180   1.603   8.106   6.047  0.6042  0.1079  0.0787
34725SOL     OW 6181   9.545   5.574   9.293 -0.4493 -0.7001  0.0943
34725SOL    HW1 6182   9.542   5.644   9.229 -2.6590 -0.1380  0.7015
34725SOL    HW2 6183   9.460   5.529   9.284  0.0913 -2.0178  1.0860
34726SOL     OW 6184   8.090  10.116   3.739 -0.2346  0.0787  0.5540
34726SOL    HW1 6185   8.122  10.034   3.703  1.0507  0.3074  1.1143
34726SOL    HW2 6186   8.092  10.178   3.666  1.4722  0.3079  0.7648
34727SOL     OW 6187   6.985   7.530   7.980 -0.8482  0.3672  0.2013
34727SOL    HW1 6188   7.021   7.555   8.066 -2.6508  1.9150  0.5622
34727SOL    HW2 6189   7.047   7.464   7.947  0.1013 -0.0011  2.5044
34728SOL     OW 6190   4.092   1.075   8.187  0.0146  0.1466  0.4028
34728SOL    HW1 6191   4.087   1.049   8.279 -0.4859  0.0928  0.3650
34728SOL    HW2 6192   4.086   0.992   8.139  1.0423  0.0982  0.3285
34729SOL     OW 6193   7.510  10.381   3.940  0.2602  0.1162  1.1931
34729SOL    HW1 6194   7.441  10.447   3.950 -1.3728 -0.9204 -1.8126
34729SOL    HW2 6195   7.464  10.298   3.950  1.1079 -0.5889 -0.4341
34730SOL     OW 6196   6.503   7.998   9.290 -0.1364 -0.0716 -0.0783
34730SOL    HW1 6197   6.512   8.025   9.198  0.6226  0.3229  0.1039
34730SOL    HW2 6198   6.496   7.903   9.287 -0.6837 -0.0219 -0.5832
34731SOL     OW 6199   8.929   7.139   4.876  0.0913  0.3620  0.0646
34731SOL    HW1 6200   8.908   7.046   4.865  1.5978 -0.4422  3.0893
34731SOL    HW2 6201   9.015   7.149   4.834  1.0844 -0.2584  1.8703
34732SOL     OW 6202   3.826   0.928   7.413 -0.6918 -0.5345  0.2844
34732SOL    HW1 6203   3.830   0.902   7.321 -0.5657 -1.3452  0.5134
34732SOL    HW2 6204   3.808   1.022   7.410  0.9383 -0.1947 -0.6082
34733SOL     OW 6205   0.047   3.706   2.924 -0.0845 -0.1785 -0.3929
34733SOL    HW1 6206   0.052   3.718   3.019 -0.7902  0.0449 -0.3825
34733SOL    HW2 6207  -0.014   3.773   2.894 -1.6768 -1.6884 -0.7081
34734SOL     OW 6208   7.335   0.529   4.939 -0.0440  0.7626  0.3427
34734SOL    HW1 6209   7.372   0.456   4.889 -0.2953  0.8157  0.0739
34734SOL    HW2 6210   7.409   0.565   4.987  0.0231  0.1352  0.7259
34735SOL     OW 6211   0.266   8.871   8.526 -0.5032  0.0126  0.0981
34735SOL    HW1 6212   0.333   8.937   8.543  0.4620 -1.3003  1.6149
34735SOL    HW2 6213   0.185   8.922   8.514  0.3340  1.4981  0.5047
34736SOL     OW 6214   8.220   4.619   2.940  0.0458  0.4053 -0.4705
34736SOL    HW1 6215   8.264   4.665   3.010  0.5209 -0.0287 -0.4716
34736SOL    HW2 6216   8.160   4.683   2.902  0.2406  0.8236 -0.0765
34737SOL     OW 6217   2.695   6.390   7.931 -0.2131 -0.0191  0.2406
34737SOL    HW1 6218   2.599   6.385   7.929 -0.1880 -0.5973 -1.7967
34737SOL    HW2 6219   2.721   6.384   7.839  1.6953  2.5358  0.5107
34738SOL     OW 6220   6.385   7.425   4.208 -0.1877  0.2037 -0.1186
34738SOL    HW1 6221   6.326   7.482   4.257 -0.5777  0.3418 -0.7316
34738SOL    HW2 6222   6.443   7.486   4.162  0.0006  0.0822 -0.0407
34739SOL     OW 6223   5.209   8.674   9.796  0.1716  0.2662 -0.2026
34739SOL    HW1 6224   5.248   8.619   9.727  0.0114 -1.6891  1.1915
34739SOL    HW2 6225   5.148   8.731   9.749 -0.8835 -1.8695 -1.6125
34740SOL     OW 6226   5.096   4.998   8.282 -0.2200  0.2136 -0.7335
34740SOL    HW1 6227   5.089   4.930   8.349  2.3218  0.9957  0.4634
34740SOL    HW2 6228   5.087   5.080   8.330  1.7828  0.7912 -1.2674
34741SOL     OW 6229   6.918   8.487   9.026  0.0272 -0.2692  0.1113
34741SOL    HW1 6230   6.996   8.487   9.081 -0.0053 -1.2388  0.1686
34741SOL    HW2 6231   6.915   8.400   8.987 -0.1473  0.2785 -1.1601
34742SOL     OW 6232   4.690   9.341   5.520  0.1236  0.1511 -0.3190
34742SOL    HW1 6233   4.666   9.260   5.476  1.1344 -0.2068 -0.2401
34742SOL    HW2 6234   4.759   9.316   5.581  0.2999  1.0288 -0.1384
34743SOL     OW 6235   3.435   9.756   7.779  0.1629  0.1352 -0.0922
34743SOL    HW1 6236   3.412   9.751   7.686 -1.4593 -0.7883  0.3157
34743SOL    HW2 6237   3.425   9.666   7.811 -2.2647  0.9016  1.5795
34744SOL     OW 6238   6.603   6.295   9.294 -0.7225  0.8774 -0.6379
34744SOL    HW1 6239   6.560   6.329   9.372 -2.5739  1.3572 -1.8032
34744SOL    HW2 6240   6.576   6.203   9.290 -0.3858  0.7725 -0.5717
34745SOL     OW 6241   3.073  10.167   4.491 -0.5953 -0.6267  0.8205
34745SOL    HW1 6242   3.086  10.151   4.397  0.9406 -0.7654  1.0355
34745SOL    HW2 6243   3.150  10.217   4.518 -1.2679 -0.1351  1.9186
34746SOL     OW 6244   5.704   9.110   7.037  0.0894 -0.1237  0.0713
34746SOL    HW1 6245   5.672   9.082   6.951 -0.1909  0.2559  0.0536
34746SOL    HW2 6246   5.665   9.196   7.051 -0.8233 -0.6684  1.0974
34747SOL     OW 6247   7.465   7.284   4.852 -0.5221  0.0235 -0.1097
34747SOL    HW1 6248   7.511   7.319   4.777 -0.5664 -2.6092 -1.4777
34747SOL    HW2 6249   7.372   7.287   4.828 -0.6229  0.1311  0.2753
34748SOL     OW 6250   4.642   8.468   5.723  0.3811  0.3328  1.7082
34748SOL    HW1 6251   4.553   8.502   5.730  0.2559 -0.0475  1.9869
34748SOL    HW2 6252   4.634   8.374   5.740  0.8764  0.3429  2.0400
34749SOL     OW 6253   9.250   4.617   2.291 -0.4773 -0.0379  0.2371
34749SOL    HW1 6254   9.308   4.643   2.220  1.3316 -0.1482  1.6050
34749SOL    HW2 6255   9.186   4.688   2.296  0.0461  0.5303 -0.7632
34750SOL     OW 6256   2.373   6.617   9.378  0.2139 -0.1476  0.3947
34750SOL    HW1 6257   2.293   6.652   9.340  0.4832  0.7983  0.6865
34750SOL    HW2 6258   2.439   6.685   9.364  0.7164 -0.4744  1.0792
34751SOL     OW 6259  10.523   6.533   9.450 -0.0705  0.1286  0.1041
34751SOL    HW1 6260  10.504   6.477   9.375  0.5895 -0.2627  0.2154
34751SOL    HW2 6261  10.593   6.591   9.418  0.2010 -0.0301  0.4107
34752SOL     OW 6262   1.704  10.813   3.417  0.0086  0.2015  0.5249
34752SOL    HW1 6263   1.621  10.861   3.423  0.2382  0.9813 -1.7047
34752SOL    HW2 6264   1.768  10.872   3.456 -0.2103  0.3561  0.6577
34753SOL     OW 6265   2.720   4.276   6.819 -0.2742 -0.3732  0.4871
34753SOL    HW1 6266   2.672   4.330   6.756 -0.6322 -1.9567 -0.6354
34753SOL    HW2 6267   2.692   4.310   6.904 -2.5510 -0.5026 -0.1383
34754SOL     OW 6268  10.357   1.430   5.830 -0.3886  0.3314 -0.6861
34754SOL    HW1 6269  10.376   1.520   5.806 -1.9555  0.7193 -0.5778
34754SOL    HW2 6270  10.269   1.414   5.796 -0.6645 -0.7200  0.4617
34755SOL     OW 6271   7.522   0.087   5.691 -0.0385 -0.0941 -0.1333
34755SOL    HW1 6272   7.552   0.072   5.781 -0.8849 -0.1557  0.1450
34755SOL    HW2 6273   7.595   0.132   5.649  0.1730  0.3969  0.7340
34756SOL     OW 6274   9.831   8.335   7.219 -0.2677 -0.2999 -1.1844
34756SOL    HW1 6275   9.878   8.418   7.220  1.3490 -1.1726 -1.8836
34756SOL    HW2 6276   9.755   8.352   7.163 -0.6364  1.0234 -0.3370
34757SOL     OW 6277  11.099   1.063   5.598  0.1542 -0.1722  0.2440
34757SOL    HW1 6278  11.071   1.003   5.530 -0.0993 -0.3378  0.4922
34757SOL    HW2 6279  11.146   1.009   5.661 -0.7200 -0.2516  0.8454
34758SOL     OW 6280   5.851  10.307   8.818 -0.0679  0.9743 -0.1609
34758SOL    HW1 6281   5.813  10.340   8.737 -0.6760  0.1269 -0.2374
34758SOL    HW2 6282   5.776  10.275   8.868  0.5153 -0.6514 -0.2682
34759SOL     OW 6283   7.394   3.193   8.086 -0.1848 -0.3585  1.0018
34759SOL    HW1 6284   7.400   3.179   7.992  2.7844 -0.3746  1.1099
34759SOL    HW2 6285   7.361   3.283   8.095 -1.0490 -0.5584  0.0081
34760SOL     OW 6286   0.584   8.067  10.270  0.3340  0.9401  0.0730
34760SOL    HW1 6287   0.621   8.058  10.357 -0.9965 -0.9325  0.5115
34760SOL    HW2 6288   0.635   8.137  10.229  0.7150  2.1540  2.4605
34761SOL     OW 6289   5.263  10.771   0.414  0.5081  0.1177  0.1987
34761SOL    HW1 6290   5.333  10.774   0.479  1.2025 -0.5045 -0.5019
34761SOL    HW2 6291   5.268  10.856   0.369 -0.6820  1.0048  1.6410
34762SOL     OW 6292  10.780   6.596   4.890 -0.5218  0.0349  0.1856
34762SOL    HW1 6293  10.803   6.649   4.966  0.5357 -0.8907  0.5321
34762SOL    HW2 6294  10.812   6.646   4.815  0.3584 -0.0308  0.5046
34763SOL     OW 6295   9.238   8.074   8.162 -0.0331  0.7566  0.0690
34763SOL    HW1 6296   9.184   8.000   8.187 -1.4337  1.7266  0.0126
34763SOL    HW2 6297   9.328   8.046   8.183 -0.5853 -0.6888  0.6353
34764SOL     OW 6298   7.499   7.316   6.501 -0.0658 -0.3008 -0.0048
34764SOL    HW1 6299   7.558   7.309   6.426 -1.1079  1.4270 -1.0734
34764SOL    HW2 6300   7.414   7.339   6.462 -0.9500 -0.6694  1.6272
34765SOL     OW 6301   7.155   0.287   9.559  0.8210  0.0390  0.5942
34765SOL    HW1 6302   7.160   0.277   9.464  1.0265 -1.5123  0.7387
34765SOL    HW2 6303   7.062   0.279   9.580  0.9999 -2.5019  0.7411
34766SOL     OW 6304   5.491   6.767   7.382  0.0055 -0.2308  0.2357
34766SOL    HW1 6305   5.473   6.751   7.475 -0.1101 -1.5395  0.0013
34766SOL    HW2 6306   5.406   6.785   7.343 -0.1996 -1.4923  0.0590
34767SOL     OW 6307   4.273   7.577   9.326  0.4145 -0.0506  0.8537
34767SOL    HW1 6308   4.204   7.554   9.263  0.3276  0.3545  0.7930
34767SOL    HW2 6309   4.238   7.654   9.372  0.2326 -0.6820  1.7982
34768SOL     OW 6310   0.771  10.532   4.599 -0.2536 -0.2400  0.0392
34768SOL    HW1 6311   0.692  10.584   4.615  0.4511  1.3961 -1.4837
34768SOL    HW2 6312   0.825  10.587   4.541  1.9497 -1.3611  0.9164
34769SOL     OW 6313   7.326  10.394  11.064  0.3846  0.0635  0.3005
34769SOL    HW1 6314   7.299  10.308  11.032 -0.2153 -0.0891  1.1772
34769SOL    HW2 6315   7.380  10.375  11.141  0.1006  0.4731  0.6076
34770SOL     OW 6316   3.593   4.679   0.129 -0.8875  0.1472 -0.1202
34770SOL    HW1 6317   3.618   4.771   0.142 -0.2569  0.0570 -0.6748
34770SOL    HW2 6318   3.505   4.684   0.090  0.0438  0.6034 -2.2967
34771SOL     OW 6319   6.725   2.718   1.925 -0.9137  0.0107 -0.4281
34771SOL    HW1 6320   6.766   2.664   1.993  0.0666 -1.0750 -1.8190
34771SOL    HW2 6321   6.638   2.680   1.914 -0.8744 -0.1638 -0.1582
34772SOL     OW 6322   5.143   9.471   0.373 -0.0042  0.1595  0.9624
34772SOL    HW1 6323   5.125   9.511   0.458 -1.6510  3.1144 -0.6180
34772SOL    HW2 6324   5.217   9.520   0.338 -0.8605  0.6439 -0.2484
34773SOL     OW 6325   4.915  10.023   5.991  0.1602  0.3288  0.0454
34773SOL    HW1 6326   4.890  10.019   6.084 -1.7283 -1.1765 -0.4609
34773SOL    HW2 6327   4.959  10.108   5.982  0.1324  0.6397  2.2441
34774SOL     OW 6328   9.847   8.990   9.699 -0.0543  0.2335 -0.2533
34774SOL    HW1 6329   9.909   8.933   9.744  0.2029  0.8141  0.1343
34774SOL    HW2 6330   9.790   8.930   9.651  0.3991 -0.3344 -0.0931
34775SOL     OW 6331   3.294   6.494   3.735  0.0408  0.1988 -0.0840
34775SOL    HW1 6332   3.375   6.537   3.762 -1.3299  3.3456 -0.5380
34775SOL    HW2 6333   3.299   6.493   3.639  0.3230 -1.3546 -0.0749
34776SOL     OW 6334   5.044   3.613   9.757 -0.0513 -0.0630 -0.1699
34776SOL    HW1 6335   5.015   3.600   9.666 -2.4017  1.9500  0.1756
34776SOL    HW2 6336   5.062   3.706   9.763  0.0350 -0.1643  1.4418
34777SOL     OW 6337   4.823   6.958  10.157 -0.0688  0.0051  0.6950
34777SOL    HW1 6338   4.885   6.924  10.093 -1.3649  0.4962 -0.8949
34777SOL    HW2 6339   4.863   6.940  10.242  2.6172  1.0448 -0.2617
34778SOL     OW 6340   6.680   6.935   5.862 -0.0404 -0.1335  0.2476
34778SOL    HW1 6341   6.650   6.844   5.856  0.3867 -0.1794 -2.2926
34778SOL    HW2 6342   6.669   6.969   5.773 -0.4472  2.4062  1.2003
34779SOL     OW 6343   5.477   0.339   6.972 -0.0722 -0.1661 -0.0842
34779SOL    HW1 6344   5.429   0.412   6.933 -0.3169 -0.0811  0.3744
34779SOL    HW2 6345   5.537   0.311   6.903  0.5017  0.9085 -0.0469
34780SOL     OW 6346  10.466   8.191   7.903 -0.2686 -0.3368 -0.2193
34780SOL    HW1 6347  10.520   8.243   7.843 -2.3190  1.4001 -0.7018
34780SOL    HW2 6348  10.397   8.156   7.848  0.3113 -2.5523  0.3780
34781SOL     OW 6349  10.032   0.590  10.684 -0.3501 -0.5552 -0.0353
34781SOL    HW1 6350  10.101   0.530  10.655 -1.0864 -0.2252 -2.7712
34781SOL    HW2 6351  10.071   0.677  10.676  0.3328 -0.4875  2.8323
34782SOL     OW 6352   5.239   2.791   4.909 -0.1803  0.2470 -0.0507
34782SOL    HW1 6353   5.176   2.722   4.890 -0.4473 -0.6785  3.5319
34782SOL    HW2 6354   5.211   2.826   4.994  1.4199  3.0901 -0.5758
34783SOL     OW 6355   1.272  10.706   2.101  0.1552 -0.4371  0.2109
34783SOL    HW1 6356   1.364  10.679   2.098  0.0616 -1.6804  3.9140
34783SOL    HW2 6357   1.231  10.644   2.161 -3.5964 -0.9882 -2.5530
34784SOL     OW 6358  10.259   9.416   3.844  0.0310  0.0015  0.0970
34784SOL    HW1 6359  10.298   9.418   3.756  1.0974 -2.0901  0.4587
34784SOL    HW2 6360  10.334   9.407   3.902 -0.6550  1.5258  1.2845
34785SOL     OW 6361  10.783   9.296   6.535  0.3917 -0.0035  0.5720
34785SOL    HW1 6362  10.752   9.380   6.502 -0.3918 -0.7948 -0.8243
34785SOL    HW2 6363  10.838   9.318   6.610  0.1880  1.7391  0.2511
34786SOL     OW 6364   6.247   2.159   8.795  0.4395  0.0145 -0.1205
34786SOL    HW1 6365   6.258   2.069   8.764 -1.8062 -0.2775 -0.2358
34786SOL    HW2 6366   6.240   2.211   8.715  2.5038  0.4437 -0.0599
34787SOL     OW 6367   8.635   3.809   8.379 -0.1436  0.1640 -0.5753
34787SOL    HW1 6368   8.589   3.808   8.296 -0.5471 -0.3300 -0.3487
34787SOL    HW2 6369   8.569   3.835   8.443 -0.0865 -0.4184 -0.2690
34788SOL     OW 6370   7.749   3.492   0.341  0.3318 -0.0958  0.0152
34788SOL    HW1 6371   7.675   3.507   0.283  2.4330 -0.7580 -3.1165
34788SOL    HW2 6372   7.722   3.417   0.394 -1.7617  0.6168  0.0524
34789SOL     OW 6373   5.526   8.646   8.521 -0.2315  0.4827 -0.3825
34789SOL    HW1 6374   5.539   8.599   8.439  0.1214 -1.0657  0.5124
34789SOL    HW2 6375   5.611   8.642   8.565 -0.9015 -0.4964  0.9194
34790SOL     OW 6376   3.721   3.621   8.137  0.0031 -0.0135  0.0750
34790SOL    HW1 6377   3.769   3.701   8.159 -0.2394 -0.0929  0.9162
34790SOL    HW2 6378   3.744   3.604   8.046 -1.1100  1.8308 -0.5843
34791SOL     OW 6379   3.070   7.582   4.338  0.3258 -0.2861  0.3702
34791SOL    HW1 6380   3.029   7.584   4.424  1.1677 -1.6146  0.8296
34791SOL    HW2 6381   3.151   7.633   4.349  1.0146 -1.4058  0.7189
34792SOL     OW 6382   8.537   5.948   3.937  0.0268 -0.0632  0.0450
34792SOL    HW1 6383   8.442   5.956   3.942 -0.1471 -1.2149 -1.0900
34792SOL    HW2 6384   8.554   5.854   3.932  1.1137  0.1747 -1.6404
34793SOL     OW 6385  10.538  10.971   6.291 -0.2049  0.0196  0.2782
34793SOL    HW1 6386  10.549  11.063   6.313  1.8199 -0.1383  0.1205
34793SOL    HW2 6387  10.579  10.962   6.205  0.2446 -1.1475  0.5924
34794SOL     OW 6388   7.369   8.994   5.826 -0.8250 -0.0912  0.0900
34794SOL    HW1 6389   7.448   9.001   5.771 -1.3229  0.9263 -0.5310
34794SOL    HW2 6390   7.326   8.914   5.795 -0.4642 -0.2019 -0.1378
34795SOL     OW 6391  10.786   7.146   4.880 -0.0793 -0.3925 -0.8176
34795SOL    HW1 6392  10.875   7.176   4.867 -0.1575  0.4729  0.5209
34795SOL    HW2 6393  10.741   7.166   4.797  0.7815 -0.2117 -1.2444
34796SOL     OW 6394   2.656   0.460   3.722  0.5467  0.4759  0.3722
34796SOL    HW1 6395   2.576   0.509   3.742  0.1045  0.6038 -1.5622
34796SOL    HW2 6396   2.640   0.373   3.758 -0.5284  0.4627 -0.1033
34797SOL     OW 6397   8.002   6.783   5.082  0.1755 -0.6770 -0.7207
34797SOL    HW1 6398   7.992   6.754   5.173  1.5285 -0.0515 -0.3521
34797SOL    HW2 6399   7.960   6.869   5.080  0.6586 -0.4314 -0.5270
34798SOL     OW 6400  10.761   8.972   4.448  0.0777 -0.3011  0.1451
34798SOL    HW1 6401  10.760   9.004   4.358  0.4176 -0.8504 -0.0564
34798SOL    HW2 6402  10.669   8.971   4.474  0.0053  0.1845 -0.0734
34799SOL     OW 6403  11.035   9.658  10.165 -0.0535  0.0281  0.1444
34799SOL    HW1 6404  10.941   9.645  10.162  0.1424 -1.4699 -0.1156
34799SOL    HW2 6405  11.056   9.701  10.081 -0.4732  0.2169  0.1363
34800SOL     OW 6406   8.079   8.579   0.589  0.2393  0.0826 -0.0466
34800SOL    HW1 6407   8.039   8.652   0.636 -0.4251 -0.4582  0.2529
34800SOL    HW2 6408   8.009   8.547   0.531  1.3472  1.4185 -2.2578
34801SOL     OW 6409   6.258   3.680   0.934 -0.4851  0.3813  0.0369
34801SOL    HW1 6410   6.306   3.690   0.852  0.1266  0.2582  0.3652
34801SOL    HW2 6411   6.192   3.748   0.933  0.1260  0.9804 -0.1412
34802SOL     OW 6412   2.768   5.867   5.895 -0.3676 -0.5948  0.3734
34802SOL    HW1 6413   2.720   5.887   5.975  1.2285 -0.3194  1.3184
34802SOL    HW2 6414   2.850   5.916   5.904  0.0785 -1.0002 -1.1877
34803SOL     OW 6415   9.998  11.051   7.857 -0.5113 -0.5638 -0.3841
34803SOL    HW1 6416  10.052  10.974   7.838 -0.3158 -0.7998  1.0660
34803SOL    HW2 6417   9.922  11.041   7.800 -1.5810 -3.0087  1.2771
34804SOL     OW 6418   8.799   8.395   1.551  0.0867  0.3537  0.3536
34804SOL    HW1 6419   8.886   8.422   1.579  1.1275 -1.3186 -1.1099
34804SOL    HW2 6420   8.762   8.351   1.628  1.2248 -0.4258  0.4717
34805SOL     OW 6421   1.417   0.245   7.677  0.1426  0.1768 -0.1530
34805SOL    HW1 6422   1.366   0.302   7.735 -1.2680 -1.0239 -0.1539
34805SOL    HW2 6423   1.405   0.157   7.712 -0.9203 -0.6270 -2.3308
34806SOL     OW 6424   3.806   8.825   7.107 -0.0196 -0.4228  0.0488
34806SOL    HW1 6425   3.712   8.812   7.099 -0.7667  2.1548  2.6781
34806SOL    HW2 6426   3.836   8.753   7.162 -0.4703 -1.1737 -0.6816
34807SOL     OW 6427   8.703   8.356   7.438  0.7803 -0.2198 -0.1022
34807SOL    HW1 6428   8.768   8.287   7.425 -0.6020 -1.5299 -0.3050
34807SOL    HW2 6429   8.622   8.309   7.458 -0.2113  1.3493 -0.2744
34808SOL     OW 6430   0.166   3.233   1.653  0.3413  0.3688 -0.4145
34808SOL    HW1 6431   0.101   3.228   1.583 -1.3715  0.1768  1.0978
34808SOL    HW2 6432   0.206   3.147   1.656 -0.1245  0.1412 -0.6689
34809SOL     OW 6433   8.803   9.115   6.845  0.0882  0.0404 -0.5851
34809SOL    HW1 6434   8.856   9.095   6.769  1.4157 -0.4647  0.4318
34809SOL    HW2 6435   8.860   9.168   6.901 -1.2242  1.3524 -0.4055
34810SOL     OW 6436   8.769   8.335  10.145  0.2371  0.4885  0.3176
34810SOL    HW1 6437   8.719   8.415  10.160  0.1091  0.0929  2.3375
34810SOL    HW2 6438   8.858   8.366  10.126  0.0609  1.1322  0.4955
34811SOL     OW 6439   6.677   6.565   7.903 -0.1113  0.1075 -0.3433
34811SOL    HW1 6440   6.668   6.656   7.875 -0.5964 -0.4860 -2.2265
34811SOL    HW2 6441   6.587   6.534   7.912  0.0142 -0.9134 -2.2755
34812SOL     OW 6442   9.887   8.636  10.534 -0.3078 -0.1000  0.3842
34812SOL    HW1 6443   9.816   8.603  10.478 -0.4490  1.9942 -0.7724
34812SOL    HW2 6444   9.843   8.692  10.598  0.1135 -0.3662  0.9097
34813SOL     OW 6445   8.327   7.535   6.133  0.0074 -0.1001  0.3192
34813SOL    HW1 6446   8.408   7.531   6.083 -0.2758  0.6980 -0.2255
34813SOL    HW2 6447   8.297   7.626   6.124 -1.2823 -0.5293 -0.0424
34814SOL     OW 6448   2.076   6.838   5.718  0.3305  0.0112 -0.3975
34814SOL    HW1 6449   2.152   6.792   5.752  1.2847  1.9509  0.2287
34814SOL    HW2 6450   2.001   6.799   5.763  0.8893 -2.0927 -1.2097
34815SOL     OW 6451   8.482   8.715   7.364 -0.2837 -0.7020 -0.0196
34815SOL    HW1 6452   8.470   8.805   7.393  0.2164 -0.1036 -1.5821
34815SOL    HW2 6453   8.399   8.692   7.321  0.2264 -0.3395 -1.2244
34816SOL     OW 6454   5.098   9.485   9.395  0.2982  0.3005  0.2903
34816SOL    HW1 6455   5.122   9.570   9.358 -1.0860  0.6895  0.2631
34816SOL    HW2 6456   5.108   9.496   9.489 -1.0604  0.8926  0.3799
34817SOL     OW 6457   7.953   6.791   9.388 -0.5785  0.2127 -0.0019
34817SOL    HW1 6458   7.901   6.753   9.317 -0.2763  0.9373 -0.6304
34817SOL    HW2 6459   7.968   6.719   9.448 -0.2457 -0.6018 -1.0239
34818SOL     OW 6460   5.575   8.184   0.959  0.0114 -0.0871  0.1852
34818SOL    HW1 6461   5.489   8.208   0.993  0.0507 -0.1182  0.3084
34818SOL    HW2 6462   5.595   8.251   0.893 -0.3702 -0.4200 -0.2721
34819SOL     OW 6463  10.760   2.726   1.236  0.5088  0.0333 -0.1786
34819SOL    HW1 6464  10.792   2.752   1.323 -1.0748  1.8179 -0.0556
34819SOL    HW2 6465  10.806   2.783   1.175 -0.2863  0.6309 -0.2425
34820SOL     OW 6466   7.878   1.669   2.333  0.4362 -0.0851  0.2856
34820SOL    HW1 6467   7.830   1.685   2.414  0.0377  1.6191 -0.2360
34820SOL    HW2 6468   7.962   1.632   2.361  0.0957 -0.0313  1.4225
34821SOL     OW 6469   5.253  10.237   4.110  0.0465  0.3527 -0.0058
34821SOL    HW1 6470   5.165  10.199   4.106  0.7164 -1.1554 -1.4241
34821SOL    HW2 6471   5.305  10.173   4.157  1.0569 -0.2769 -1.8822
34822SOL     OW 6472   0.323   3.974  10.800 -0.3872  0.1853  0.2924
34822SOL    HW1 6473   0.317   4.044  10.865  0.1831 -0.1424  0.7030
34822SOL    HW2 6474   0.404   3.991  10.752 -0.5970  0.1919 -0.0670
34823SOL     OW 6475   2.258   0.664   1.968 -0.1817 -0.0980  0.3557
34823SOL    HW1 6476   2.204   0.646   1.890  2.1091  0.0554 -1.3531
34823SOL    HW2 6477   2.273   0.758   1.964  0.2191 -0.1444  0.8243
34824SOL     OW 6478   5.985   0.496   7.842 -0.1214  0.0450 -0.5507
34824SOL    HW1 6479   5.976   0.404   7.864 -1.0377  0.0883 -0.7032
34824SOL    HW2 6480   5.966   0.542   7.925  1.4353  0.0897 -0.1791
34825SOL     OW 6481   9.808   8.896   9.114  0.1594  0.1422  0.3832
34825SOL    HW1 6482   9.887   8.939   9.146  0.6719 -1.8702  2.1257
34825SOL    HW2 6483   9.739   8.960   9.126  1.0578  0.9094  1.7706
34826SOL     OW 6484  10.359  10.567   3.770  0.3773 -0.3576 -0.1415
34826SOL    HW1 6485  10.322  10.488   3.810 -0.9045  0.5157  0.4490
34826SOL    HW2 6486  10.346  10.554   3.676 -0.7799 -0.4010  0.0088
34827SOL     OW 6487   8.477   9.884  10.806  0.2516 -0.2115 -0.8970
34827SOL    HW1 6488   8.437   9.933  10.734  1.4901  1.7710 -0.3087
34827SOL    HW2 6489   8.419   9.809  10.818 -2.0517  1.3567 -1.5278
34828SOL     OW 6490   4.937   0.461   5.393  0.2436  0.2579  0.2376
34828SOL    HW1 6491   5.025   0.489   5.417  0.7388 -1.5335  0.6445
34828SOL    HW2 6492   4.917   0.389   5.452 -0.3574 -1.2044 -1.6180
34829SOL     OW 6493   7.785   0.210  11.046  0.1783  0.4404  0.2982
34829SOL    HW1 6494   7.822   0.291  11.079  1.5815 -0.5588  1.3089
34829SOL    HW2 6495   7.814   0.143  11.109 -0.9030 -0.8436 -0.5163
34830SOL     OW 6496   6.115   8.845   5.293  0.6978 -0.1757  0.0266
34830SOL    HW1 6497   6.024   8.841   5.322  0.6237 -0.9452 -0.3082
34830SOL    HW2 6498   6.165   8.857   5.374  0.2576  1.0342  0.1443
34831SOL     OW 6499   9.618   4.468   7.324  0.6372  0.0411 -0.2059
34831SOL    HW1 6500   9.702   4.427   7.303  1.2366  1.2995 -0.3501
34831SOL    HW2 6501   9.638   4.528   7.396 -0.1501  0.3219 -0.2092
34832SOL     OW 6502   8.889   7.189   0.857 -0.1101  0.0272 -0.0333
34832SOL    HW1 6503   8.984   7.200   0.863 -0.1982  0.6573  0.3423
34832SOL    HW2 6504   8.877   7.109   0.806  0.6221  0.9896 -1.8085
34833SOL     OW 6505   2.566   6.281   7.472 -0.3073 -0.8905  0.1797
34833SOL    HW1 6506   2.529   6.322   7.394 -1.0964  2.0085  1.9216
34833SOL    HW2 6507   2.598   6.196   7.442 -2.5610 -0.8369 -2.8021
34834SOL     OW 6508  10.057   8.695   3.142  0.2501 -0.2731  0.1984
34834SOL    HW1 6509  10.051   8.610   3.099  1.4267 -0.3802  0.2130
34834SOL    HW2 6510  10.098   8.676   3.227 -1.4539  0.0186  1.1398
34835SOL     OW 6511   6.321   7.018  10.643  0.4095  0.0120  0.1252
34835SOL    HW1 6512   6.285   7.059  10.722 -0.7837 -1.0915  0.1991
34835SOL    HW2 6513   6.307   6.924  10.657 -1.3264 -0.1490 -2.0526
34836SOL     OW 6514   5.912   8.634  10.098  0.6660  0.2466 -0.3589
34836SOL    HW1 6515   5.894   8.728  10.103 -0.0277  0.1593 -1.0865
34836SOL    HW2 6516   5.909   8.604  10.189  0.2751  0.8153 -0.1800
34837SOL     OW 6517   8.143  10.058   8.021 -0.1472 -0.3050  0.4791
34837SOL    HW1 6518   8.138   9.982   7.962 -1.6084 -0.5957  0.9355
34837SOL    HW2 6519   8.133  10.133   7.963 -0.5800 -0.5515  0.2251
34838SOL     OW 6520   1.426   1.340   6.994  0.4514 -0.1246  0.0201
34838SOL    HW1 6521   1.499   1.356   6.933  0.5334  0.4559  0.2650
34838SOL    HW2 6522   1.348   1.349   6.940  0.4074  2.6096  0.3958
34839SOL     OW 6523   6.383  10.749   8.204 -0.2867 -0.0708 -0.6014
34839SOL    HW1 6524   6.472  10.718   8.190 -0.4921 -0.3883 -1.2923
34839SOL    HW2 6525   6.352  10.700   8.280  0.0938 -0.0367 -0.4239
34840SOL     OW 6526   1.589   7.485   6.059  0.0592  0.1515 -0.2240
34840SOL    HW1 6527   1.629   7.571   6.052  0.2395 -0.0225 -1.5749
34840SOL    HW2 6528   1.501   7.497   6.024 -0.5444  0.1682  1.2356
34841SOL     OW 6529   8.391   0.103   8.958 -0.2981 -1.0890 -0.3942
34841SOL    HW1 6530   8.427   0.041   9.022 -0.3333 -0.4260  0.2768
34841SOL    HW2 6531   8.298   0.110   8.981  0.3797  2.1368  2.0724
34842SOL     OW 6532   7.398   3.739   9.884 -0.1024 -0.0682  0.0562
34842SOL    HW1 6533   7.339   3.812   9.903  0.8237  0.1934  2.2476
34842SOL    HW2 6534   7.356   3.692   9.812 -2.1060  1.0704  0.4109
34843SOL     OW 6535   9.452   9.510  10.585  0.1669  0.5709  0.6730
34843SOL    HW1 6536   9.504   9.456  10.644 -1.1192 -0.0612  1.2463
34843SOL    HW2 6537   9.411   9.576  10.641 -0.3221  0.5442  0.3590
34844SOL     OW 6538   8.770   0.880   6.789 -0.3255 -0.0857 -0.0010
34844SOL    HW1 6539   8.722   0.903   6.869 -2.0165 -1.6350 -0.4980
34844SOL    HW2 6540   8.835   0.816   6.818  0.3076  0.7299  0.4104
34845SOL     OW 6541   6.919   1.748   5.345 -0.2538  0.0650 -0.5985
34845SOL    HW1 6542   6.946   1.671   5.396 -1.6091  0.2021  0.3713
34845SOL    HW2 6543   6.931   1.722   5.254 -2.6170 -2.0952 -0.4051
34846SOL     OW 6544   7.466   4.398   1.558  0.3633 -0.1947  0.2894
34846SOL    HW1 6545   7.507   4.474   1.599  0.3084  0.8231 -1.4346
34846SOL    HW2 6546   7.390   4.433   1.511 -0.1626 -1.4457  0.1446
34847SOL     OW 6547   1.312   7.425   5.327  0.2576  0.7687 -0.0525
34847SOL    HW1 6548   1.337   7.500   5.382 -0.7460  0.2930  1.1174
34847SOL    HW2 6549   1.224   7.447   5.295  0.6555  0.8408 -1.1293
34848SOL     OW 6550   5.532   5.473   2.469 -0.2061  0.1919  0.2013
34848SOL    HW1 6551   5.490   5.390   2.445  0.6273 -1.5415  3.9067
34848SOL    HW2 6552   5.460   5.527   2.503 -0.4708  0.2274 -0.4023
34849SOL     OW 6553   5.720   8.617   6.977 -0.0476  0.2497  0.6775
34849SOL    HW1 6554   5.694   8.525   6.981 -0.4937  0.2437 -1.2519
34849SOL    HW2 6555   5.649   8.659   6.929 -0.3936  1.8493  2.5071
34850SOL     OW 6556   5.846   3.944   7.762  0.1138  0.4909  0.0370
34850SOL    HW1 6557   5.779   3.970   7.699  1.0337 -0.7887 -1.5534
34850SOL    HW2 6558   5.928   3.975   7.724  0.9464 -2.2286 -0.6490
34851SOL     OW 6559   6.675   6.057  11.091  0.5885  0.5133 -0.3613
34851SOL    HW1 6560   6.592   6.057  11.044  1.3527  1.0798 -1.7593
34851SOL    HW2 6561   6.733   6.112  11.038  0.5663  4.1148  2.8956
34852SOL     OW 6562   6.274   8.411   0.894 -0.2272 -0.3372  0.5222
34852SOL    HW1 6563   6.246   8.448   0.978  2.5520  0.4332  1.2178
34852SOL    HW2 6564   6.358   8.453   0.876  1.0072 -3.1032 -0.8514
34853SOL     OW 6565  10.796   7.456   6.549  0.1429 -0.3934  0.3565
34853SOL    HW1 6566  10.759   7.544   6.560 -0.3798 -0.6592  0.7606
34853SOL    HW2 6567  10.721   7.401   6.529  0.4158 -0.8227  0.5112
34854SOL     OW 6568   7.472   2.619  10.440 -0.1063 -0.3532 -0.0741
34854SOL    HW1 6569   7.399   2.582  10.390  1.2737 -1.7246 -1.1751
34854SOL    HW2 6570   7.514   2.680  10.380  1.0744 -1.3909 -0.3385
34855SOL     OW 6571   1.179   9.911   6.058  0.8722  1.0199 -0.0417
34855SOL    HW1 6572   1.229   9.836   6.092 -0.5204 -0.3422 -0.8461
34855SOL    HW2 6573   1.183   9.977   6.127  1.9554  0.1134  0.7920
34856SOL     OW 6574   8.840   6.377   1.424 -0.6931 -0.1668  0.0016
34856SOL    HW1 6575   8.799   6.292   1.407  2.2307 -1.7569  0.2400
34856SOL    HW2 6576   8.807   6.434   1.355 -3.0835 -1.3259  0.0988
34857SOL     OW 6577   0.519   3.473   1.345 -0.4580  0.5398  0.4700
34857SOL    HW1 6578   0.536   3.479   1.439 -1.5878 -0.9374  0.8163
34857SOL    HW2 6579   0.431   3.437   1.340  0.2345 -1.0752 -1.1334
34858SOL     OW 6580   6.785   7.570   7.085 -0.1577  0.2372  0.1939
34858SOL    HW1 6581   6.880   7.560   7.091 -0.1860  0.2461  0.7113
34858SOL    HW2 6582   6.761   7.524   7.005  0.1454 -0.7557  0.6613
34859SOL     OW 6583   6.921   3.219   6.950 -0.0056 -0.5499 -0.7696
34859SOL    HW1 6584   6.976   3.291   6.981 -0.1294 -1.2356  1.2117
34859SOL    HW2 6585   6.920   3.228   6.855 -0.3968  2.3513 -0.5817
34860SOL     OW 6586   3.731   8.377  10.025  1.0871  0.3242  0.7935
34860SOL    HW1 6587   3.741   8.469  10.001 -0.1054  0.0939 -0.7196
34860SOL    HW2 6588   3.817   8.338  10.012  0.7241  0.3956 -2.5500
34861SOL     OW 6589   5.456   7.955   8.345  0.1447 -0.9372 -0.3504
34861SOL    HW1 6590   5.385   7.976   8.284  0.2689 -1.4847 -0.6960
34861SOL    HW2 6591   5.489   8.040   8.373 -0.6455 -0.6718 -0.1833
34862SOL     OW 6592   6.093   6.498   6.945  0.1902 -0.1602  0.0020
34862SOL    HW1 6593   6.043   6.445   6.883 -1.4420  1.4458 -0.1353
34862SOL    HW2 6594   6.140   6.561   6.890 -1.6106  1.5627  0.3237
34863SOL     OW 6595   7.349   9.619   5.853  0.8083 -0.5015 -0.1795
34863SOL    HW1 6596   7.422   9.647   5.909  2.2367 -1.2644 -1.5893
34863SOL    HW2 6597   7.386   9.551   5.797 -0.7846 -0.3400 -1.5059
34864SOL     OW 6598   0.340   7.758  10.574 -0.4652  0.6598 -0.1935
34864SOL    HW1 6599   0.400   7.697  10.531 -2.3117 -0.8489 -0.7407
34864SOL    HW2 6600   0.287   7.794  10.503 -0.1077  2.1612  0.2505
34865SOL     OW 6601  10.698   1.410   9.770  0.3558 -0.2547 -0.4787
34865SOL    HW1 6602  10.718   1.378   9.858  4.7372  3.2451  0.1203
34865SOL    HW2 6603  10.631   1.477   9.783  0.3479 -0.3648  0.0501
34866SOL     OW 6604   4.061   2.666   5.910  0.2229  0.2388 -0.1279
34866SOL    HW1 6605   4.145   2.671   5.955 -0.0703 -0.9599  0.5983
34866SOL    HW2 6606   4.055   2.748   5.861  0.9355  1.2282  1.3615
34867SOL     OW 6607   7.501   7.795   0.305  0.3369  0.1329  0.1402
34867SOL    HW1 6608   7.470   7.885   0.321 -0.3166  0.0110 -0.3915
34867SOL    HW2 6609   7.592   7.795   0.336 -0.0831  0.5936  1.4201
34868SOL     OW 6610   8.501   8.509   8.633  0.2783  0.0462 -0.2275
34868SOL    HW1 6611   8.492   8.568   8.708 -0.7721 -1.8348  1.2529
34868SOL    HW2 6612   8.478   8.562   8.557 -1.6515  1.3072  1.1368
34869SOL     OW 6613   4.080  10.585   8.773 -0.1263  0.2050 -0.3487
34869SOL    HW1 6614   4.066  10.679   8.761  0.9234  0.2779 -1.0458
34869SOL    HW2 6615   4.172  10.571   8.753 -0.5626 -1.1802 -1.5119
34870SOL     OW 6616   8.608   7.424   0.456  0.5742 -0.3581 -0.2358
34870SOL    HW1 6617   8.622   7.462   0.543 -3.2376 -2.9433  1.7811
34870SOL    HW2 6618   8.694   7.392   0.430  2.1097  1.6465  1.9132
34871SOL     OW 6619   1.802   7.210   9.290  0.1404  0.3701 -0.4002
34871SOL    HW1 6620   1.785   7.139   9.352  0.1630 -1.3107 -2.1937
34871SOL    HW2 6621   1.871   7.262   9.331  0.5887 -1.0290  0.6996
34872SOL     OW 6622   7.645   9.741   6.883 -0.2109 -0.1232 -0.0547
34872SOL    HW1 6623   7.679   9.675   6.823 -1.2077  0.5360 -1.4303
34872SOL    HW2 6624   7.698   9.819   6.865 -1.4487  0.4967 -1.1842
34873SOL     OW 6625   8.742   6.505   2.678  0.1982 -0.0674 -0.5652
34873SOL    HW1 6626   8.754   6.422   2.723  2.0705 -0.1464 -1.1446
34873SOL    HW2 6627   8.687   6.557   2.738 -1.2255 -1.7674 -0.3285
34874SOL     OW 6628   8.492   4.260   7.743  0.3219 -0.1258 -0.1413
34874SOL    HW1 6629   8.440   4.340   7.734  0.1572 -0.0411  1.2726
34874SOL    HW2 6630   8.582   4.290   7.751  0.0915  0.1225  2.3639
34875SOL     OW 6631   9.202   6.413   4.193 -0.2752 -0.2538 -0.7134
34875SOL    HW1 6632   9.173   6.445   4.108 -0.0051 -1.4136 -1.2642
34875SOL    HW2 6633   9.131   6.358   4.223 -0.7662  0.8718  0.2558
34876SOL     OW 6634   8.795   8.281   2.629  0.3805  0.0930  0.5199
34876SOL    HW1 6635   8.881   8.301   2.665 -0.2912  0.3340  2.0633
34876SOL    HW2 6636   8.745   8.248   2.703 -1.0901  0.6824 -0.1784
34877SOL     OW 6637   9.668   5.591  10.354  0.1009 -0.2637 -0.0328
34877SOL    HW1 6638   9.653   5.644  10.432  2.6839 -0.6696  0.8536
34877SOL    HW2 6639   9.762   5.601  10.337  0.4275 -3.3699 -0.6692
34878SOL     OW 6640   2.956   4.754   7.819 -0.0066 -0.0243  0.0217
34878SOL    HW1 6641   2.910   4.803   7.886 -0.1755 -1.2721  0.8447
34878SOL    HW2 6642   2.887   4.722   7.761 -0.4373 -2.8947  1.9069
34879SOL     OW 6643   4.443   7.130   4.082 -0.5878  0.2799 -0.6430
34879SOL    HW1 6644   4.424   7.129   3.988 -1.3960  0.5192 -0.4968
34879SOL    HW2 6645   4.357   7.120   4.123 -0.2491  0.2695  0.0723
34880SOL     OW 6646   9.080   1.790   7.980 -0.5588  0.1123 -0.0304
34880SOL    HW1 6647   9.023   1.846   7.929 -2.5919  0.7233  2.6598
34880SOL    HW2 6648   9.090   1.711   7.927 -2.4115  0.7348 -1.4065
34881SOL     OW 6649   9.701   7.061   5.707  0.4450 -0.2238 -0.6224
34881SOL    HW1 6650   9.692   6.984   5.763  1.7572 -0.7819 -1.1251
34881SOL    HW2 6651   9.686   7.135   5.766 -0.9725 -0.8329 -0.1569
34882SOL     OW 6652   8.246   9.695   8.639 -0.5345 -0.2606 -0.0032
34882SOL    HW1 6653   8.275   9.724   8.552  1.2625  0.4567  0.7912
34882SOL    HW2 6654   8.294   9.613   8.654  0.3348  0.3975  0.9055
34883SOL     OW 6655   5.769   1.999   8.037  0.2248  0.4611 -0.2478
34883SOL    HW1 6656   5.777   1.972   8.129 -0.2995  1.7957  0.2070
34883SOL    HW2 6657   5.851   1.970   7.997  0.2633 -0.5669  0.5091
34884SOL     OW 6658   1.050   9.016   4.312  0.1013  0.2124  0.2347
34884SOL    HW1 6659   1.047   8.945   4.376 -0.2936 -0.7411 -0.8041
34884SOL    HW2 6660   0.998   9.087   4.351 -1.7497 -1.0460  0.1679
34885SOL     OW 6661   9.968   2.967   0.608  0.0897 -0.8582 -0.7227
34885SOL    HW1 6662  10.050   3.016   0.611 -1.6871  2.3968 -0.5488
34885SOL    HW2 6663   9.950   2.943   0.699 -1.0696  2.1356 -0.0567
34886SOL     OW 6664   5.903  10.115   9.441  0.0876 -0.7394  0.0138
34886SOL    HW1 6665   5.986  10.119   9.488 -0.4931 -0.7398  1.0791
34886SOL    HW2 6666   5.877  10.023   9.444 -0.9923 -0.4188  1.6128
34887SOL     OW 6667   3.901   3.235   5.515 -0.6926 -0.3606  0.5011
34887SOL    HW1 6668   3.965   3.292   5.471  0.1038 -0.8831  0.9455
34887SOL    HW2 6669   3.816   3.272   5.492 -0.3309 -0.7384 -1.6779
34888SOL     OW 6670   8.508   2.369   5.109 -0.2411  0.0116 -0.3002
34888SOL    HW1 6671   8.509   2.322   5.193 -1.7523  1.4359  0.5818
34888SOL    HW2 6672   8.483   2.303   5.045  2.6093 -1.5280  0.0099
34889SOL     OW 6673   8.295   2.220   0.318 -0.3263  0.0660  0.2250
34889SOL    HW1 6674   8.208   2.233   0.355 -0.1491 -0.9349  1.0501
34889SOL    HW2 6675   8.286   2.240   0.225 -1.3198  0.4241  0.3905
34890SOL     OW 6676   6.728   9.588   9.217  0.2992 -0.0738  0.0427
34890SOL    HW1 6677   6.787   9.562   9.145  0.2933 -0.4021  0.1542
34890SOL    HW2 6678   6.661   9.521   9.218  0.0912  0.1355  0.1169
34891SOL     OW 6679   8.891  11.036   3.350 -0.8375  0.6612 -0.3653
34891SOL    HW1 6680   8.798  11.028   3.369 -0.5296 -2.9584  0.1481
34891SOL    HW2 6681   8.909  10.969   3.284  1.3686  1.5065 -0.7297
34892SOL     OW 6682   7.329   9.287   1.520 -0.2395  0.0925 -0.3840
34892SOL    HW1 6683   7.314   9.375   1.555 -0.3975 -0.1373  0.1412
34892SOL    HW2 6684   7.288   9.228   1.584  1.1831 -0.4485  0.0761
34893SOL     OW 6685   4.192   7.008   6.178 -0.5121  0.4138 -0.2084
34893SOL    HW1 6686   4.158   7.010   6.089  0.4361 -0.1342 -0.6065
34893SOL    HW2 6687   4.216   6.916   6.192 -1.8467  0.2314  1.0996
34894SOL     OW 6688   9.388  10.399   5.462 -0.0146  0.0139  0.6453
34894SOL    HW1 6689   9.432  10.465   5.515  0.8871  0.1713 -0.2719
34894SOL    HW2 6690   9.445  10.387   5.386 -0.1458 -1.8254  0.7884
34895SOL     OW 6691   4.527   9.131   5.423 -0.0042  0.0436  0.2012
34895SOL    HW1 6692   4.501   9.159   5.511 -2.9751 -2.1298  0.1706
34895SOL    HW2 6693   4.451   9.151   5.368  0.5724 -1.4603 -1.2190
34896SOL     OW 6694   4.819   1.431   0.984 -0.6198  0.1565  0.2333
34896SOL    HW1 6695   4.857   1.475   1.060 -1.6344  1.1061  0.2073
34896SOL    HW2 6696   4.835   1.338   0.999 -0.7023  0.3474  1.5451
34897SOL     OW 6697   7.645   6.216   4.106  0.0394 -0.1325 -0.4496
34897SOL    HW1 6698   7.674   6.220   4.197  1.1018  0.8627 -0.8141
34897SOL    HW2 6699   7.549   6.214   4.112  0.0882 -1.8151  0.7157
34898SOL     OW 6700   1.986   1.265   9.832 -0.6690 -0.3363 -0.0140
34898SOL    HW1 6701   2.009   1.346   9.788 -0.9717 -0.7536 -0.9636
34898SOL    HW2 6702   2.063   1.243   9.884 -1.6052  2.0638  2.5979
34899SOL     OW 6703   7.022   9.683   0.545 -0.3663 -0.1857 -0.3477
34899SOL    HW1 6704   6.981   9.621   0.484  1.0708 -0.1494 -1.3906
34899SOL    HW2 6705   7.057   9.628   0.615  0.3079 -0.5045 -0.9249
34900SOL     OW 6706   9.972   0.540   1.063 -0.3463  0.1216 -0.2156
34900SOL    HW1 6707  10.031   0.616   1.058  0.4053 -0.1231  2.8438
34900SOL    HW2 6708  10.023   0.468   1.028 -0.9161  0.8665 -2.7647
34901SOL     OW 6709  10.790  10.052   5.952  0.0104  0.2254 -0.0321
34901SOL    HW1 6710  10.697  10.039   5.934 -0.2478  0.0087  1.3434
34901SOL    HW2 6711  10.834   9.979   5.909 -0.4279  0.4285 -0.8433
34902SOL     OW 6712   3.001   9.506   5.032 -0.0946 -0.1629 -0.4214
34902SOL    HW1 6713   2.990   9.543   5.120 -1.3138 -1.0794 -0.1707
34902SOL    HW2 6714   3.077   9.449   5.040 -0.0993 -0.1169  0.0065
34903SOL     OW 6715   2.631   6.946   4.318 -0.0308  0.0799  0.7131
34903SOL    HW1 6716   2.670   7.008   4.380 -1.5551  1.2435  0.5928
34903SOL    HW2 6717   2.651   6.860   4.354 -0.2761  0.7054  2.4781
34904SOL     OW 6718   9.849   6.211   0.189 -0.2355 -0.7871 -0.0838
34904SOL    HW1 6719   9.889   6.157   0.121  1.8320 -1.4367  1.5543
34904SOL    HW2 6720   9.878   6.172   0.271 -2.2164  0.2945  1.1911
34905SOL     OW 6721   8.275   6.369   6.031 -0.1942  0.5029 -0.3140
34905SOL    HW1 6722   8.323   6.344   6.110  1.6820  1.4105 -1.1061
34905SOL    HW2 6723   8.321   6.326   5.959 -2.3359 -0.9367 -0.9163
34906SOL     OW 6724   2.368  10.237  10.786 -0.0331 -0.4967 -0.1824
34906SOL    HW1 6725   2.295  10.189  10.746  0.5426 -0.2436 -1.6213
34906SOL    HW2 6726   2.421  10.169  10.828 -0.6763 -0.7747  0.2034
34907SOL     OW 6727   0.651   4.676   8.866 -0.5119 -0.1644 -0.5287
34907SOL    HW1 6728   0.635   4.608   8.801 -1.0034 -0.6147  0.0557
34907SOL    HW2 6729   0.651   4.630   8.950  0.9909  0.2638 -0.2617
34908SOL     OW 6730   5.959   0.448   4.362 -0.2646  0.3425  0.0349
34908SOL    HW1 6731   5.961   0.352   4.373  0.3531  0.0210 -2.3963
34908SOL    HW2 6732   5.967   0.462   4.268 -3.3713  2.7442 -0.0452
34909SOL     OW 6733   9.711   1.427   6.676  0.0167 -0.2029 -0.1017
34909SOL    HW1 6734   9.804   1.427   6.654  0.6349 -1.1081  2.2638
34909SOL    HW2 6735   9.668   1.455   6.595  2.3174  0.2525 -1.2593
34910SOL     OW 6736   0.819   5.120   0.441  0.1625  0.3857  0.1702
34910SOL    HW1 6737   0.813   5.064   0.364  0.0898  0.0694  0.4020
34910SOL    HW2 6738   0.896   5.175   0.425 -0.8991  1.6028 -0.9613
34911SOL     OW 6739   7.981   8.357   5.088  0.0862  0.8828  0.0396
34911SOL    HW1 6740   8.000   8.264   5.080 -0.9922  0.7030 -0.5487
34911SOL    HW2 6741   8.067   8.398   5.098  0.6232 -0.1115 -0.3860
34912SOL     OW 6742   7.428   9.472   4.942 -0.0956  0.2920 -0.1307
34912SOL    HW1 6743   7.397   9.457   4.852 -0.1309 -0.2455 -0.0333
34912SOL    HW2 6744   7.353   9.449   4.997  0.2248 -0.2834  0.0731
34913SOL     OW 6745   3.749   8.555   6.924 -0.2681 -0.6891  0.5728
34913SOL    HW1 6746   3.795   8.626   6.969 -1.3222  0.4048 -0.0269
34913SOL    HW2 6747   3.818   8.510   6.876  0.2750  0.7379 -0.0631
34914SOL     OW 6748   2.897   1.329   5.589  0.5412  0.6935  0.7839
34914SOL    HW1 6749   2.803   1.314   5.605  0.5341  0.5691  0.6270
34914SOL    HW2 6750   2.912   1.292   5.502  0.5085  1.6545  0.3635
34915SOL     OW 6751   8.308   8.008   3.367 -0.3634 -0.1250 -0.6296
34915SOL    HW1 6752   8.348   8.087   3.405  1.5360 -0.9907 -0.7060
34915SOL    HW2 6753   8.221   8.037   3.339  0.3457  2.0144 -0.8721
34916SOL     OW 6754   7.944   8.305   8.016 -0.2039 -0.3262 -0.3898
34916SOL    HW1 6755   7.965   8.245   8.088 -1.8614 -0.4356  0.0430
34916SOL    HW2 6756   7.921   8.248   7.943 -0.5436 -0.2163 -0.3696
34917SOL     OW 6757   8.437   9.151  10.175  0.1883 -0.1753 -0.5470
34917SOL    HW1 6758   8.368   9.151  10.242  0.2573  0.3800 -0.4706
34917SOL    HW2 6759   8.390   9.157  10.092  0.1258 -0.2563 -0.5172
34918SOL     OW 6760   6.703   8.363   6.586 -0.5778  0.1957 -0.3625
34918SOL    HW1 6761   6.740   8.448   6.564  1.5192 -0.2005  1.2226
34918SOL    HW2 6762   6.720   8.354   6.680 -1.0166 -1.8226 -0.4285
34919SOL     OW 6763   9.184   3.867   5.146  0.2862 -0.1141 -0.2192
34919SOL    HW1 6764   9.241   3.791   5.137 -0.6126 -0.9981  1.1952
34919SOL    HW2 6765   9.167   3.895   5.056  1.8337 -0.6550 -0.7002
34920SOL     OW 6766   8.768   9.281   0.927  0.7309  0.1328 -0.3984
34920SOL    HW1 6767   8.861   9.279   0.950  1.0877 -0.2377 -1.7330
34920SOL    HW2 6768   8.722   9.289   1.010  2.0072  1.9976  0.1828
34921SOL     OW 6769   5.466   7.208   9.957  0.0652 -0.1052 -0.4758
34921SOL    HW1 6770   5.555   7.205   9.922  0.3009  0.3567  0.0709
34921SOL    HW2 6771   5.473   7.172  10.045 -0.1342  0.6628 -0.1331
34922SOL     OW 6772   9.107   0.605   8.954 -0.4636 -0.2611  0.2744
34922SOL    HW1 6773   9.186   0.563   8.987 -0.8635  0.2815  2.0637
34922SOL    HW2 6774   9.059   0.534   8.910  0.1543 -1.0254  0.7968
34923SOL     OW 6775   9.823   8.682   6.536 -0.6292 -0.9746  0.0390
34923SOL    HW1 6776   9.871   8.751   6.491 -0.8545  0.1625  1.4763
34923SOL    HW2 6777   9.855   8.601   6.497  1.1175 -0.1574 -0.3074
34924SOL     OW 6778   8.377   5.010   5.434  0.5760  0.5756 -0.1492
34924SOL    HW1 6779   8.361   4.991   5.342 -0.1956 -1.7594  0.4038
34924SOL    HW2 6780   8.291   5.034   5.469  0.5953  0.0782  0.2495
34925SOL     OW 6781   4.538   8.193   9.580  0.4630  0.3794 -0.0396
34925SOL    HW1 6782   4.591   8.150   9.512 -0.8253 -0.4125 -0.5772
34925SOL    HW2 6783   4.570   8.283   9.582  3.3810 -0.5512  1.2302
34926SOL     OW 6784   7.212   1.005   7.789 -0.6053  0.0356  0.0194
34926SOL    HW1 6785   7.211   1.035   7.698  1.2281  0.0630 -0.0267
34926SOL    HW2 6786   7.199   1.084   7.841 -1.1382  0.0953 -0.1970
34927SOL     OW 6787   6.330   0.169   4.340  0.6268  0.5011  0.4000
34927SOL    HW1 6788   6.317   0.074   4.335 -1.5532  0.7702 -0.1779
34927SOL    HW2 6789   6.338   0.197   4.249 -1.2444  1.1082  0.3719
34928SOL     OW 6790   3.230   6.864   7.831 -0.3736  0.3269  0.3476
34928SOL    HW1 6791   3.247   6.802   7.759 -1.0586 -0.0743  0.5233
34928SOL    HW2 6792   3.299   6.846   7.894 -0.4909 -0.1784  0.3405
34929SOL     OW 6793   4.174   9.068   1.121  0.2595 -0.1299  0.0578
34929SOL    HW1 6794   4.133   9.055   1.036 -1.2735  3.2414  0.1179
34929SOL    HW2 6795   4.101   9.083   1.181  1.4101  0.9399  1.2584
34930SOL     OW 6796   7.615   8.758   3.116  0.1870  0.3348  0.2728
34930SOL    HW1 6797   7.683   8.823   3.103  0.6613 -0.1867  0.0679
34930SOL    HW2 6798   7.660   8.682   3.154 -0.3637  0.1529  0.5867
34931SOL     OW 6799  10.194   9.607  10.158  0.2500 -0.1008  0.0950
34931SOL    HW1 6800  10.238   9.688  10.134  0.6892 -0.6997 -1.2387
34931SOL    HW2 6801  10.231   9.584  10.244 -0.9695  1.8356  1.2184
34932SOL     OW 6802  10.881   6.146   2.499 -0.5687 -0.6676  0.5297
34932SOL    HW1 6803  10.896   6.241   2.498  0.0954 -0.7553 -1.5398
34932SOL    HW2 6804  10.934   6.113   2.427 -2.7159 -2.3275 -0.3788
34933SOL     OW 6805   7.216  10.245   6.969  0.2291 -0.1164 -0.0144
34933SOL    HW1 6806   7.237  10.323   6.917 -1.2920  0.4024  0.1053
34933SOL    HW2 6807   7.256  10.172   6.920 -0.5269  0.4422 -1.5423
34934SOL     OW 6808   1.100   7.293   7.011 -0.3054 -0.2897  0.2990
34934SOL    HW1 6809   1.190   7.268   6.994 -0.4397  0.2379 -1.4992
34934SOL    HW2 6810   1.105   7.356   7.083  0.6811 -0.7812  0.6721
34935SOL     OW 6811   8.752  10.837   7.803  0.2892 -0.4532  0.3995
34935SOL    HW1 6812   8.812  10.912   7.811  1.1528 -1.3605  4.4962
34935SOL    HW2 6813   8.665  10.877   7.797  0.8795  0.8430 -0.0387
34936SOL     OW 6814   1.420   0.877   0.450 -0.2181 -0.6284  0.3741
34936SOL    HW1 6815   1.407   0.811   0.518  0.9304 -0.1126  1.1234
34936SOL    HW2 6816   1.510   0.864   0.420  0.4972  1.4251  1.4814
34937SOL     OW 6817  10.056   5.522   2.463  0.2062 -0.0914  0.1570
34937SOL    HW1 6818  10.013   5.453   2.514  1.3139 -0.6464  0.3629
34937SOL    HW2 6819  10.063   5.485   2.375 -1.1136  0.6124 -0.2800
34938SOL     OW 6820   2.551   4.486   9.641 -0.0630  0.0797  0.0497
34938SOL    HW1 6821   2.617   4.417   9.651 -0.3012 -0.1182  0.2771
34938SOL    HW2 6822   2.597   4.566   9.666 -0.1308 -0.1676  0.9947
34939SOL     OW 6823   6.026   9.936   5.664  0.5733  0.3139 -0.4659
34939SOL    HW1 6824   5.935   9.964   5.679  0.7162  0.6991 -0.3203
34939SOL    HW2 6825   6.019   9.866   5.599 -0.0040 -0.9152  0.8492
34940SOL     OW 6826   6.663   7.263   7.880 -0.4085 -0.2902 -0.2811
34940SOL    HW1 6827   6.680   7.294   7.791  0.6925  0.1378  0.0511
34940SOL    HW2 6828   6.726   7.192   7.893 -0.7275 -0.5139  0.0801
34941SOL     OW 6829   9.894   6.321   6.387 -0.2786 -0.0003  0.3172
34941SOL    HW1 6830   9.939   6.293   6.467  0.0698 -1.8160 -0.4503
34941SOL    HW2 6831   9.872   6.413   6.402  1.1531  0.1401  1.8706
34942SOL     OW 6832   0.699   4.649  10.196 -0.2042  1.1806  0.6834
34942SOL    HW1 6833   0.671   4.588  10.127 -0.6794  0.8196  1.1798
34942SOL    HW2 6834   0.764   4.704  10.155  0.2189  0.3445  0.2073
34943SOL     OW 6835   9.339  10.805   9.122 -0.1450  0.2865  0.4774
34943SOL    HW1 6836   9.363  10.885   9.170  0.8328  0.0494  0.4141
34943SOL    HW2 6837   9.383  10.735   9.170 -0.2830 -0.1130  0.0207
34944SOL     OW 6838   1.236   2.855   8.573 -0.4746  0.4582  0.1556
34944SOL    HW1 6839   1.164   2.794   8.592 -1.0072  0.7251 -0.9311
34944SOL    HW2 6840   1.291   2.853   8.651 -1.0651 -0.6048  0.5544
34945SOL     OW 6841  11.050   0.346  10.872 -0.2939 -0.2645  0.4087
34945SOL    HW1 6842  11.058   0.276  10.808  1.5471  0.1003  0.1668
34945SOL    HW2 6843  11.124   0.405  10.852 -0.8170  0.8602  1.6420
34946SOL     OW 6844   8.059   7.560   9.660 -0.1725  0.1635  0.1602
34946SOL    HW1 6845   8.146   7.564   9.699 -0.7772  2.9631  1.5179
34946SOL    HW2 6846   8.074   7.555   9.566  1.4371 -0.3166  0.4184
34947SOL     OW 6847   8.420   4.067   0.892 -0.0585 -0.5764 -0.3878
34947SOL    HW1 6848   8.401   3.974   0.876 -1.1596 -0.0021 -2.9196
34947SOL    HW2 6849   8.346   4.098   0.943 -0.1880 -0.8826 -0.3852
34948SOL     OW 6850   9.183   4.939   0.436  0.1548 -0.8902 -0.5796
34948SOL    HW1 6851   9.105   4.989   0.461  1.2509  0.5363  0.1037
34948SOL    HW2 6852   9.226   4.919   0.519  1.9239  0.7248 -1.0303
34949SOL     OW 6853   9.169   3.729   6.385  0.2856  0.2007 -0.0828
34949SOL    HW1 6854   9.182   3.649   6.436 -0.1332 -1.1227 -1.9446
34949SOL    HW2 6855   9.256   3.770   6.381  0.5840 -0.3474  0.5644
34950SOL     OW 6856   8.081   0.973  10.496  0.5535  0.2834 -0.7655
34950SOL    HW1 6857   8.031   0.920  10.558  0.7764  0.4614 -0.4282
34950SOL    HW2 6858   8.016   1.006  10.434  0.3068  0.2294 -0.5355
34951SOL     OW 6859   6.011   9.945   9.795 -0.1540 -0.1272  0.2586
34951SOL    HW1 6860   6.067   9.914   9.724  0.7736  1.0196  0.4646
34951SOL    HW2 6861   5.994  10.036   9.774 -0.1742  0.1250  1.3255
34952SOL     OW 6862   9.186   9.467   8.908  0.3168  0.2935  0.3677
34952SOL    HW1 6863   9.218   9.380   8.928  1.3915  0.4677 -0.5194
34952SOL    HW2 6864   9.217   9.522   8.980  0.5103  0.1270  0.4102
34953SOL     OW 6865   9.684   9.809   0.283 -0.3198  0.1002 -0.0121
34953SOL    HW1 6866   9.645   9.801   0.370  0.3248  0.7884  0.3500
34953SOL    HW2 6867   9.614   9.785   0.223 -1.0031  0.3601  0.6632
34954SOL     OW 6868   7.395   9.719   7.237  0.0056  0.4872 -0.4505
34954SOL    HW1 6869   7.304   9.746   7.223 -0.5849 -1.0479  0.1921
34954SOL    HW2 6870   7.427   9.694   7.151 -0.8524 -0.8318 -0.4237
34955SOL     OW 6871   9.893   7.331   1.721 -0.1401  0.1904  0.5608
34955SOL    HW1 6872   9.814   7.277   1.730 -0.0569  0.1504  1.0392
34955SOL    HW2 6873   9.896   7.352   1.628 -0.4393 -0.2308  0.4509
34956SOL     OW 6874   1.771   4.860   7.197 -0.3532  0.1988 -0.5120
34956SOL    HW1 6875   1.833   4.932   7.206  1.0619 -1.2472  2.2027
34956SOL    HW2 6876   1.800   4.794   7.259 -4.5502 -0.6358  0.8883
34957SOL     OW 6877   6.475   8.499   4.955  0.4689 -0.3841 -0.0093
34957SOL    HW1 6878   6.560   8.543   4.962  0.9556 -1.4325  0.8850
34957SOL    HW2 6879   6.493   8.418   4.907 -0.2178 -0.1779 -0.6532
34958SOL     OW 6880   7.413   4.024   0.431 -0.4578 -0.0006  0.1513
34958SOL    HW1 6881   7.349   3.964   0.468  0.3225  0.4137  2.3097
34958SOL    HW2 6882   7.412   4.100   0.489 -0.0398  1.2698 -1.4192
34959SOL     OW 6883   8.042   2.549   0.674  0.3016 -0.2739  0.2858
34959SOL    HW1 6884   8.047   2.545   0.770  1.0086 -1.4819  0.2208
34959SOL    HW2 6885   8.132   2.562   0.646  0.3302 -1.4873 -0.2567
34960SOL     OW 6886   7.790   4.113   1.796 -0.6581 -0.4976  0.2839
34960SOL    HW1 6887   7.862   4.064   1.834  0.2453  0.3820 -0.2426
34960SOL    HW2 6888   7.804   4.203   1.826 -0.6110 -0.0133 -1.1207
34961SOL     OW 6889   3.850   6.503   2.240  0.2881 -0.0696 -0.2907
34961SOL    HW1 6890   3.901   6.482   2.317 -0.3904 -1.1259 -0.1110
34961SOL    HW2 6891   3.868   6.432   2.178  1.6071  1.2737 -1.5201
34962SOL     OW 6892  10.813   3.252   8.568 -0.2434 -0.0304  0.2615
34962SOL    HW1 6893  10.764   3.298   8.635 -1.2903  0.2164 -0.6464
34962SOL    HW2 6894  10.890   3.307   8.552 -0.2729  0.1893  0.8436
34963SOL     OW 6895   7.504   3.205  10.010 -0.9064  0.0346 -0.2457
34963SOL    HW1 6896   7.535   3.221   9.921  0.3269 -2.0650 -0.2613
34963SOL    HW2 6897   7.408   3.207  10.003 -0.8382 -0.4053 -1.6913
34964SOL     OW 6898   9.572   0.031   1.280  0.3348 -0.3830  0.0168
34964SOL    HW1 6899   9.553   0.010   1.372  1.5181  0.1032  0.3979
34964SOL    HW2 6900   9.557   0.126   1.275 -0.1788 -0.4873 -0.4146
34965SOL     OW 6901   2.550   1.657   7.400 -0.3377 -0.1540 -0.0465
34965SOL    HW1 6902   2.561   1.698   7.486  0.4152  0.2149 -0.3010
34965SOL    HW2 6903   2.470   1.606   7.407  0.2569 -0.9632  1.2010
34966SOL     OW 6904   0.960   9.459   2.219 -0.0486 -0.1801 -0.4275
34966SOL    HW1 6905   0.882   9.405   2.233 -1.1812  1.4343 -0.3546
34966SOL    HW2 6906   1.017   9.437   2.293 -1.3418  0.1710  0.7280
34967SOL     OW 6907   1.411   4.570   5.776 -0.2564  0.2232  0.1826
34967SOL    HW1 6908   1.332   4.556   5.828  0.1129  1.1017  1.0222
34967SOL    HW2 6909   1.381   4.614   5.696 -0.6654  0.1865  0.3175
34968SOL     OW 6910   5.393   3.319   0.973 -0.4700  0.4211  0.1255
34968SOL    HW1 6911   5.422   3.319   0.882  0.6914 -1.3661  0.4572
34968SOL    HW2 6912   5.444   3.250   1.016 -0.0419  2.0386  2.4617
34969SOL     OW 6913   7.748   8.521   7.459 -0.0860 -0.3221  0.0528
34969SOL    HW1 6914   7.685   8.590   7.437 -1.0948 -1.1812  0.1608
34969SOL    HW2 6915   7.694   8.444   7.475  1.0302 -1.2343 -0.4105
34970SOL     OW 6916   6.089   9.291   7.630 -0.1965 -0.2468 -0.2424
34970SOL    HW1 6917   6.028   9.247   7.570  0.6922 -0.0807 -1.3052
34970SOL    HW2 6918   6.051   9.378   7.644  0.0477  0.0516 -1.3336
34971SOL     OW 6919  10.704   3.691   8.506 -0.2122 -0.0048 -0.2016
34971SOL    HW1 6920  10.679   3.602   8.482 -1.4033 -0.0272  1.0015
34971SOL    HW2 6921  10.763   3.719   8.436  0.2092 -1.7369 -0.5910
34972SOL     OW 6922   3.420   4.537   7.570  0.2634 -0.3495 -0.0263
34972SOL    HW1 6923   3.465   4.554   7.653  0.5510  1.1769 -0.4564
34972SOL    HW2 6924   3.410   4.442   7.567  0.0767 -0.4309  1.8328
34973SOL     OW 6925   8.190   0.658   9.764  0.9440  0.1203  0.0874
34973SOL    HW1 6926   8.144   0.616   9.691 -0.4294  0.1353  0.9031
34973SOL    HW2 6927   8.211   0.746   9.733 -0.7572  0.5632  0.1153
34974SOL     OW 6928  10.978   2.434   5.245  0.2628 -0.3626  0.2397
34974SOL    HW1 6929  10.937   2.383   5.315 -0.0387 -0.4115  0.0335
34974SOL    HW2 6930  10.943   2.523   5.256  1.3017 -0.0311  1.0051
34975SOL     OW 6931   6.925   6.865   4.312  0.8742 -0.1401 -0.1870
34975SOL    HW1 6932   6.923   6.769   4.314 -1.4410 -0.1423 -0.5397
34975SOL    HW2 6933   6.857   6.892   4.374  0.5948  1.2475 -1.0522
34976SOL     OW 6934   3.822   2.207   3.898 -0.1928 -0.0023 -0.3248
34976SOL    HW1 6935   3.776   2.130   3.864  0.5017  0.0956 -1.5639
34976SOL    HW2 6936   3.901   2.172   3.939 -0.8695 -0.0930  0.9456
34977SOL     OW 6937   2.544   7.950   8.145  0.3195  0.2509  0.0613
34977SOL    HW1 6938   2.501   7.878   8.099 -0.3374  0.1505  0.8093
34977SOL    HW2 6939   2.634   7.920   8.156 -0.1655 -0.9233  1.2263
34978SOL     OW 6940   8.402   8.357   7.057  0.3823  0.0169 -0.3485
34978SOL    HW1 6941   8.428   8.290   7.121  0.8584 -0.4280 -0.9943
34978SOL    HW2 6942   8.422   8.318   6.972  1.3463  1.2462 -0.7283
34979SOL     OW 6943   1.827   3.103  10.548  0.7654  0.1231 -0.4763
34979SOL    HW1 6944   1.818   3.010  10.567  0.9067  0.2219  0.1153
34979SOL    HW2 6945   1.804   3.112  10.456  0.6835 -0.4862 -0.5165
34980SOL     OW 6946   8.432   7.356   8.273 -0.2474  0.2095  0.1267
34980SOL    HW1 6947   8.390   7.365   8.358 -0.5475  0.6648 -0.0610
34980SOL    HW2 6948   8.483   7.437   8.263  2.9419 -1.4524  1.5366
34981SOL     OW 6949   8.524   7.636   8.683 -0.6066 -0.2798 -0.6674
34981SOL    HW1 6950   8.435   7.623   8.716 -0.4282 -0.3899 -0.2217
34981SOL    HW2 6951   8.547   7.725   8.709 -0.0355 -0.7550  0.5612
34982SOL     OW 6952   5.240   1.144   8.644  0.2796 -0.0087  0.5278
34982SOL    HW1 6953   5.303   1.182   8.704  2.0819  0.0919 -1.3287
34982SOL    HW2 6954   5.253   1.191   8.562 -2.4616  0.2286  0.1188
34983SOL     OW 6955   5.019  10.192   8.951 -0.0305  0.0298 -0.1936
34983SOL    HW1 6956   5.055  10.137   8.881  0.5490  0.3404 -0.1528
34983SOL    HW2 6957   4.924  10.186   8.940  0.0348 -0.7046 -0.3958
34984SOL     OW 6958   9.593   4.538   0.310 -0.1955 -0.0998  0.0849
34984SOL    HW1 6959   9.595   4.581   0.225 -0.1634 -0.8443 -0.3043
34984SOL    HW2 6960   9.506   4.556   0.344 -0.2444  0.1199 -0.1534
34985SOL     OW 6961  10.977  10.881   0.992 -0.1102 -0.0085  0.1487
34985SOL    HW1 6962  11.065  10.846   1.009  1.0926  2.8878  0.5624
34985SOL    HW2 6963  10.974  10.894   0.898  0.2783  0.6649  0.2188
34986SOL     OW 6964   6.350   9.705   3.244 -0.0862 -0.1058 -0.0466
34986SOL    HW1 6965   6.358   9.759   3.322  1.4646 -1.8711  1.0830
34986SOL    HW2 6966   6.256   9.685   3.239 -0.3563  0.8886  0.7459
34987SOL     OW 6967   0.203   9.660   8.431 -0.2955  1.2798 -0.3604
34987SOL    HW1 6968   0.215   9.693   8.342 -0.7837  0.5363 -0.7095
34987SOL    HW2 6969   0.291   9.641   8.462 -0.2140  0.0816 -1.2619
34988SOL     OW 6970   4.323  10.832   2.935  0.2094  0.1657  0.0425
34988SOL    HW1 6971   4.375  10.908   2.909  1.5443 -0.4200  0.9037
34988SOL    HW2 6972   4.263  10.867   3.001 -0.2931  0.7785 -0.7129
34989SOL     OW 6973   9.330   8.396   3.322  0.2109 -0.2744 -0.0883
34989SOL    HW1 6974   9.269   8.461   3.357  0.7407  0.3548 -0.3256
34989SOL    HW2 6975   9.300   8.313   3.359  0.7954  0.3713  1.9535
34990SOL     OW 6976   2.999  10.163   5.873  0.0464 -0.0799  0.5499
34990SOL    HW1 6977   2.914  10.208   5.868 -0.8317 -1.5082  1.7281
34990SOL    HW2 6978   2.978  10.071   5.856  1.5773 -0.2784 -0.4430
34991SOL     OW 6979   1.876   0.557   3.301  0.1220 -0.3543  0.0951
34991SOL    HW1 6980   1.901   0.472   3.337 -0.6457 -0.7701 -0.3086
34991SOL    HW2 6981   1.958   0.607   3.296  0.9592 -1.7624 -1.4798
34992SOL     OW 6982   4.952   6.594   2.303  0.5174 -0.4842  0.0463
34992SOL    HW1 6983   4.941   6.524   2.367  0.9030 -1.9331 -1.4008
34992SOL    HW2 6984   4.945   6.550   2.218  1.4105  1.1304 -0.9171
34993SOL     OW 6985  10.814   7.037   6.487 -0.1453  0.0715 -0.2986
34993SOL    HW1 6986  10.864   7.094   6.428 -1.0240  0.8190 -0.3437
34993SOL    HW2 6987  10.744   7.001   6.431 -1.8963  1.9397  0.5633
34994SOL     OW 6988   8.334   8.360   2.488 -0.1164  0.4809 -0.1170
34994SOL    HW1 6989   8.258   8.325   2.443  0.6616 -1.2118 -0.1904
34994SOL    HW2 6990   8.397   8.379   2.418  0.0244  0.6015  0.0405
34995SOL     OW 6991  11.014   6.849   9.131  0.0173 -0.2038  0.3924
34995SOL    HW1 6992  11.087   6.835   9.071 -0.6564  0.8044 -0.7141
34995SOL    HW2 6993  10.947   6.786   9.102 -0.1319 -0.0487  0.3978
34996SOL     OW 6994   1.399   3.471   7.767 -0.2957  0.4304 -0.4052
34996SOL    HW1 6995   1.482   3.424   7.763 -0.4127  0.1424  0.4251
34996SOL    HW2 6996   1.397   3.524   7.687  1.5464  1.8591  0.4122
34997SOL     OW 6997   4.966   1.716   8.461  0.3161 -0.1400 -0.3911
34997SOL    HW1 6998   4.931   1.655   8.526 -0.9723  1.9980  1.0154
34997SOL    HW2 6999   4.892   1.772   8.438  1.7389  1.6988 -0.6819
34998SOL     OW 7000  10.690   1.591   4.795  0.0783 -0.2983 -0.5427
34998SOL    HW1 7001  10.735   1.675   4.809 -1.6773  1.3092 -3.4860
34998SOL    HW2 7002  10.750   1.542   4.738  0.6669 -0.6877  0.3827
34999SOL     OW 7003   7.318   8.436   9.803  0.0893 -0.4428  0.3502
34999SOL    HW1 7004   7.378   8.499   9.841  0.2171 -1.8633  2.7371
34999SOL    HW2 7005   7.251   8.489   9.759  0.9501  1.2717  1.0293
35000SOL     OW 7006   7.918   6.372  10.352 -0.3887 -0.1915  0.0392
35000SOL    HW1 7007   7.891   6.310  10.285  0.1314 -0.5015  0.1139
35000SOL    HW2 7008   7.945   6.318  10.426 -0.1602  0.1247  0.1904
35001SOL     OW 7009   9.820   4.044   4.097  0.3189  0.2818 -0.3277
35001SOL    HW1 7010   9.761   4.026   4.024  0.5945 -0.0875 -0.4611
35001SOL    HW2 7011   9.900   4.076   4.056 -0.2651  2.1431 -0.0796
35002SOL     OW 7012   4.419   4.934   2.644  0.0533 -0.0829 -0.2338
35002SOL    HW1 7013   4.507   4.897   2.654  0.2070  0.4678  0.6090
35002SOL    HW2 7014   4.423   5.016   2.693 -1.0646 -0.2656  0.1865
35003SOL     OW 7015   8.002   5.950   6.335 -0.3227 -0.2720  0.1874
35003SOL    HW1 7016   7.927   5.937   6.278 -0.0778 -1.3136  0.0884
35003SOL    HW2 7017   7.964   5.977   6.419 -0.6652  1.5936 -0.5183
35004SOL     OW 7018   7.553   0.039   5.349  0.0007 -0.4259  0.5442
35004SOL    HW1 7019   7.518  -0.028   5.289 -2.0033 -0.3235  1.5002
35004SOL    HW2 7020   7.631  -0.001   5.387 -0.0764 -1.4497 -0.3259
35005SOL     OW 7021   7.818   8.200   8.723  0.0979  0.1998 -0.0143
35005SOL    HW1 7022   7.816   8.135   8.653  0.6164 -0.6786  0.7638
35005SOL    HW2 7023   7.812   8.148   8.804 -1.5396  1.2311  0.5958
35006SOL     OW 7024   9.317   2.653   6.834  0.0481 -0.1605  0.4077
35006SOL    HW1 7025   9.371   2.711   6.888  0.4388 -1.3584  1.3343
35006SOL    HW2 7026   9.378   2.588   6.801 -0.2528  0.3445 -1.2248
35007SOL     OW 7027   9.459   6.094   3.044 -0.5337 -0.0062  0.0371
35007SOL    HW1 7028   9.550   6.111   3.066  0.0637 -3.6548  1.1838
35007SOL    HW2 7029   9.409   6.154   3.099  1.1707  0.0463  1.6402
35008SOL     OW 7030   3.567   9.341   6.713 -0.6659  0.2342  0.0041
35008SOL    HW1 7031   3.511   9.296   6.776  0.6716  2.2631  2.8802
35008SOL    HW2 7032   3.652   9.296   6.721  0.4590  2.4928  2.3304
35009SOL     OW 7033   4.561   3.784   1.184 -0.1424  0.6363 -0.1034
35009SOL    HW1 7034   4.518   3.716   1.132 -0.4947  1.1645 -0.5091
35009SOL    HW2 7035   4.608   3.838   1.120 -0.0232  0.8882  0.1932
35010SOL     OW 7036   5.274   1.305   7.585 -0.1316  0.1997  0.0038
35010SOL    HW1 7037   5.339   1.329   7.652 -0.3588  0.4630  0.1339
35010SOL    HW2 7038   5.192   1.342   7.618 -0.7558 -1.7639  0.8100
35011SOL     OW 7039   7.095   5.327   1.748  0.3116 -0.2388  0.1592
35011SOL    HW1 7040   7.125   5.376   1.824 -1.4180 -1.7452  1.9117
35011SOL    HW2 7041   7.002   5.345   1.743  0.1025 -1.4159 -0.6271
35012SOL     OW 7042   0.001   3.743   6.459 -0.5244 -0.2595 -0.0936
35012SOL    HW1 7043  -0.019   3.654   6.485  1.8859 -1.4928 -2.0284
35012SOL    HW2 7044   0.090   3.759   6.490 -0.3487  0.8842 -1.0712
35013SOL     OW 7045   8.902   9.758  10.267 -0.4750 -0.5427  0.0367
35013SOL    HW1 7046   8.905   9.662  10.269 -1.5293 -0.6301 -1.2024
35013SOL    HW2 7047   8.916   9.781  10.175 -1.6924  0.3964  0.0542
35014SOL     OW 7048   6.276   5.578   0.146  0.0469 -0.2651  0.1874
35014SOL    HW1 7049   6.231   5.519   0.206 -0.2060  1.3629  1.6903
35014SOL    HW2 7050   6.207   5.636   0.113  0.5252  0.2121 -0.0002
35015SOL     OW 7051   9.276   8.590   6.789  0.1064 -0.0593  0.0232
35015SOL    HW1 7052   9.335   8.623   6.721  0.1597  1.8962  0.9625
35015SOL    HW2 7053   9.265   8.663   6.849 -4.2332  0.1257 -0.6853
35016SOL     OW 7054   9.007   5.689   9.529 -0.1549  0.7501 -0.3948
35016SOL    HW1 7055   8.979   5.625   9.464  2.9668 -0.0031 -1.1842
35016SOL    HW2 7056   9.034   5.637   9.604  0.9647  1.1929 -0.4634
35017SOL     OW 7057   2.170   2.837   4.091 -0.4754  0.3489 -0.0068
35017SOL    HW1 7058   2.178   2.776   4.017 -0.9866 -0.0889  0.2935
35017SOL    HW2 7059   2.120   2.911   4.056  0.7293  0.9365 -0.5669
35018SOL     OW 7060   6.754   9.850   9.155  0.7143  0.2362 -0.2781
35018SOL    HW1 7061   6.728   9.760   9.173  0.8682  0.5856  1.9915
35018SOL    HW2 7062   6.671   9.898   9.151  0.7377  0.5364  2.0228
35019SOL     OW 7063   3.964   5.006   8.511 -0.0640 -0.5254  0.2399
35019SOL    HW1 7064   3.872   5.028   8.494  0.5856  0.3054 -2.7232
35019SOL    HW2 7065   3.979   4.926   8.461  0.8920 -0.5333  0.5264
35020SOL     OW 7066   8.938   1.167   7.709  0.8534 -0.0043  0.1221
35020SOL    HW1 7067   8.894   1.252   7.703 -1.1845 -0.9297  0.9827
35020SOL    HW2 7068   8.961   1.145   7.619 -0.0274  0.7659 -0.3039
35021SOL     OW 7069   6.323   5.327   6.253  0.0557 -0.1420 -0.2039
35021SOL    HW1 7070   6.351   5.386   6.323  1.1607  0.4260 -1.0887
35021SOL    HW2 7071   6.313   5.242   6.296  2.2582 -0.1656  0.3913
35022SOL     OW 7072   3.478   1.321   6.606  0.3338  0.0340  0.1673
35022SOL    HW1 7073   3.439   1.362   6.529  0.2504  2.0130  1.1958
35022SOL    HW2 7074   3.427   1.355   6.680  2.5001  0.8373  1.3631
35023SOL     OW 7075   0.214   5.219   0.047  0.0128  0.3010 -0.2698
35023SOL    HW1 7076   0.140   5.225   0.107  0.0414  0.1736 -0.2211
35023SOL    HW2 7077   0.237   5.310   0.028 -1.7968  0.4232 -2.3269
35024SOL     OW 7078   9.361   1.417   9.161  0.2249  0.6720  0.2580
35024SOL    HW1 7079   9.404   1.423   9.246 -0.4749  2.4136  0.5134
35024SOL    HW2 7080   9.270   1.394   9.181  0.1425  0.7229 -0.0480
35025SOL     OW 7081   7.646   2.895   1.112  0.5667 -0.3925 -0.7918
35025SOL    HW1 7082   7.652   2.866   1.021  1.5682 -2.8386 -0.0352
35025SOL    HW2 7083   7.676   2.819   1.163  0.7639  1.1652  1.5466
35026SOL     OW 7084  10.167   0.038   8.708  0.5567 -0.0767 -0.3526
35026SOL    HW1 7085  10.176  -0.054   8.729  0.9658  0.2830  1.1318
35026SOL    HW2 7086  10.224   0.083   8.770  1.6688  1.0804 -2.0999
35027SOL     OW 7087   6.469   5.120   4.087  0.4160 -0.6627  1.1210
35027SOL    HW1 7088   6.427   5.038   4.061  0.5797 -0.2400 -0.6568
35027SOL    HW2 7089   6.506   5.102   4.173 -1.7792 -1.6200  1.9331
35028SOL     OW 7090   3.660   5.767   1.079  0.4956  0.0077  0.4160
35028SOL    HW1 7091   3.597   5.822   1.125 -0.3811 -1.3803  0.9429
35028SOL    HW2 7092   3.641   5.780   0.986  0.2143  0.4793  0.5360
35029SOL     OW 7093   5.347   0.168   8.971  0.2185  0.0120 -0.5076
35029SOL    HW1 7094   5.377   0.180   9.060 -0.3156  1.7886 -0.5276
35029SOL    HW2 7095   5.271   0.110   8.979 -0.5548  1.0891  0.3704
35030SOL     OW 7096   6.251   1.721   4.724  0.0321 -0.3606  0.2242
35030SOL    HW1 7097   6.159   1.748   4.720  0.5365  1.3941 -0.5016
35030SOL    HW2 7098   6.291   1.781   4.787  0.9478 -0.1625 -0.5086
35031SOL     OW 7099   9.330   1.477  11.025 -0.1976  0.1500 -0.1747
35031SOL    HW1 7100   9.414   1.475  11.071 -2.0203 -1.4426  3.5406
35031SOL    HW2 7101   9.292   1.391  11.042 -2.4207  0.6506 -2.1285
35032SOL     OW 7102  10.463   6.484   1.842 -0.6844  0.2029 -0.3744
35032SOL    HW1 7103  10.485   6.567   1.886 -0.2222  0.0181 -0.2515
35032SOL    HW2 7104  10.391   6.448   1.895  1.0922 -0.9321  1.3910
35033SOL     OW 7105  10.402   3.539   9.521 -0.1251 -0.0363 -0.5047
35033SOL    HW1 7106  10.484   3.578   9.491  0.4958 -1.7590 -1.1230
35033SOL    HW2 7107  10.377   3.479   9.451 -0.6165 -1.3622  0.7724
35034SOL     OW 7108   8.992   6.780   6.114  0.0897 -0.2012 -0.8219
35034SOL    HW1 7109   9.050   6.805   6.042 -0.6067  0.3086 -1.2221
35034SOL    HW2 7110   8.923   6.728   6.073  0.1985 -0.7091 -0.3706
35035SOL     OW 7111   9.084   8.280   9.007  0.1791  0.5193 -0.1811
35035SOL    HW1 7112   9.070   8.316   8.919  1.8274 -1.8411 -1.5253
35035SOL    HW2 7113   9.013   8.216   9.018  1.0864 -0.6118 -0.6822
35036SOL     OW 7114   9.816   8.323   9.469  0.0592 -0.0266  0.2440
35036SOL    HW1 7115   9.876   8.268   9.419 -0.6964 -1.0162  0.3881
35036SOL    HW2 7116   9.774   8.378   9.404 -1.5665 -1.9115 -0.3992
35037SOL     OW 7117   3.993   7.515  10.958  0.2589 -0.1952 -0.4828
35037SOL    HW1 7118   4.054   7.565  10.904 -0.1561 -0.5194 -1.2728
35037SOL    HW2 7119   4.045   7.486  11.033  0.7897  0.4499 -0.5949
35038SOL     OW 7120   7.876   2.681  10.316 -0.2267  0.1201  0.6984
35038SOL    HW1 7121   7.849   2.604  10.266 -1.7488  0.1357  1.4359
35038SOL    HW2 7122   7.845   2.664  10.405  0.9570  0.8278  1.2633
35039SOL     OW 7123   6.210   5.716   7.180 -0.0616  0.1797  0.4306
35039SOL    HW1 7124   6.260   5.796   7.160  0.4992 -0.8330 -2.6911
35039SOL    HW2 7125   6.275   5.646   7.178 -1.1733 -0.8762 -1.3780
35040SOL     OW 7126   4.191   7.005   4.038 -0.1086 -0.4601 -0.0685
35040SOL    HW1 7127   4.097   6.988   4.047 -0.2766 -0.0745 -1.0339
35040SOL    HW2 7128   4.231   6.918   4.041 -0.5066 -0.6372  0.1848
35041SOL     OW 7129   6.533   6.521  10.701  0.2425 -0.3035  0.3207
35041SOL    HW1 7130   6.615   6.555  10.664  0.2069 -0.3348  0.2135
35041SOL    HW2 7131   6.549   6.427  10.711 -0.1930 -0.5120 -0.7998
35042SOL     OW 7132   7.623   0.479   6.131  0.5602 -0.1193  0.6432
35042SOL    HW1 7133   7.564   0.531   6.186  1.5157  0.6300  0.9941
35042SOL    HW2 7134   7.576   0.397   6.117 -0.4136  0.3172  1.1948
35043SOL     OW 7135   8.441  10.687   1.499 -0.2760 -0.0151  0.3465
35043SOL    HW1 7136   8.390  10.767   1.504  0.8872  0.7229  0.6453
35043SOL    HW2 7137   8.447  10.668   1.405  2.2199  2.1163 -0.0230
35044SOL     OW 7138   1.856  10.962   8.419  0.1520 -0.5435  0.4054
35044SOL    HW1 7139   1.903  10.942   8.338  0.3603  0.8272  0.1672
35044SOL    HW2 7140   1.898  10.906   8.485  1.6549  0.1297  0.0561
35045SOL     OW 7141   7.181   2.027   3.712  0.2786 -0.1796 -0.2684
35045SOL    HW1 7142   7.145   1.987   3.791  2.1527 -1.6723 -0.0976
35045SOL    HW2 7143   7.245   2.090   3.744 -1.6048  2.0000 -0.5754
35046SOL     OW 7144   2.176  10.645   8.728  0.2074 -0.6315 -0.8572
35046SOL    HW1 7145   2.188  10.560   8.685  0.1716 -0.5174 -1.0979
35046SOL    HW2 7146   2.217  10.635   8.813 -0.0282 -0.9766 -0.7796
35047SOL     OW 7147   1.884   9.612   9.128  0.1929 -0.6971  0.3962
35047SOL    HW1 7148   1.911   9.700   9.102 -1.0995  0.2032  1.8935
35047SOL    HW2 7149   1.906   9.556   9.054 -0.3193  1.1345 -1.2019
35048SOL     OW 7150   8.124   8.405   0.978 -0.3493 -0.6598 -0.1749
35048SOL    HW1 7151   8.030   8.401   0.962 -0.6279  0.9935  0.8166
35048SOL    HW2 7152   8.133   8.398   1.073  0.4854 -0.3512 -0.2187
35049SOL     OW 7153   7.398  10.534   8.886 -0.2386  0.0422 -0.3935
35049SOL    HW1 7154   7.463  10.482   8.933  1.4461  0.8007 -1.7579
35049SOL    HW2 7155   7.389  10.614   8.938  0.1652  0.0625 -0.3469
35050SOL     OW 7156   6.930   4.205   1.961  0.5705 -0.2120  0.5421
35050SOL    HW1 7157   6.904   4.139   2.025  0.5443 -0.3522  0.3876
35050SOL    HW2 7158   6.855   4.263   1.954 -0.3402 -1.4857 -1.0492
35051SOL     OW 7159   6.890   0.001   0.192  0.3325  0.2286  0.2137
35051SOL    HW1 7160   6.871  -0.068   0.256  0.3784  1.2538  1.3636
35051SOL    HW2 7161   6.810   0.052   0.186 -0.5719 -1.2793 -2.4853
35052SOL     OW 7162   3.443   3.507  10.531  0.0799  0.4102 -0.4051
35052SOL    HW1 7163   3.450   3.414  10.553  0.0500  0.3148 -0.7847
35052SOL    HW2 7164   3.508   3.550  10.587 -2.3223  0.6460  2.4332
35053SOL     OW 7165   2.324   4.678   9.724  0.1544 -0.5253 -0.0335
35053SOL    HW1 7166   2.306   4.592   9.687 -0.4674  0.1178 -1.2697
35053SOL    HW2 7167   2.408   4.668   9.769  0.0711 -1.7730 -0.1244
35054SOL     OW 7168   6.299   6.683   7.718  0.4212  0.3947  0.0602
35054SOL    HW1 7169   6.265   6.652   7.802 -2.9862 -0.0699 -1.3268
35054SOL    HW2 7170   6.246   6.760   7.697  0.2541 -0.2559 -2.2072
35055SOL     OW 7171   8.272   1.609   9.693 -0.1712  0.1255  0.0604
35055SOL    HW1 7172   8.317   1.637   9.614  1.5677  1.3429  1.3994
35055SOL    HW2 7173   8.218   1.535   9.665  0.7941  0.1715 -2.1270
35056SOL     OW 7174   7.101   9.693   1.773  0.1549 -0.4724 -0.3591
35056SOL    HW1 7175   7.115   9.784   1.744 -1.3559 -0.7555 -2.1700
35056SOL    HW2 7176   7.137   9.640   1.703 -0.8891 -1.2443 -0.3281
35057SOL     OW 7177   0.184  10.233  10.921 -0.2684 -0.3986 -0.1117
35057SOL    HW1 7178   0.149  10.313  10.958  0.2821  0.3274 -1.1060
35057SOL    HW2 7179   0.107  10.177  10.906 -0.5792 -0.3582  1.2430
35058SOL     OW 7180   0.708   9.628   5.463  0.5212 -0.4831  0.5540
35058SOL    HW1 7181   0.780   9.598   5.517  0.0396 -2.7211  0.0475
35058SOL    HW2 7182   0.743   9.704   5.416  2.1596 -0.8328  1.1581
35059SOL     OW 7183   2.286   7.562   3.353  0.0132 -0.4885 -0.5735
35059SOL    HW1 7184   2.381   7.560   3.362  0.0688 -2.5859 -1.2712
35059SOL    HW2 7185   2.267   7.506   3.278 -1.8768 -1.5459  0.6053
35060SOL     OW 7186   7.373   1.721   8.445  0.2317  0.3534  0.0876
35060SOL    HW1 7187   7.374   1.632   8.480  0.1481  0.8882  1.5301
35060SOL    HW2 7188   7.463   1.736   8.415  0.4513  0.0596  0.5915
35061SOL     OW 7189   4.906   8.449   8.120 -0.9364  1.2446  0.8068
35061SOL    HW1 7190   4.995   8.465   8.153 -0.1548 -0.9181 -0.0942
35061SOL    HW2 7191   4.850   8.505   8.174  0.9307  2.4596  1.5805
35062SOL     OW 7192   3.946   0.781   5.954  0.0982  0.4185  0.1226
35062SOL    HW1 7193   3.851   0.795   5.953  0.4311  3.0986 -0.8684
35062SOL    HW2 7194   3.972   0.798   6.044 -0.3375 -0.4051  0.4187
35063SOL     OW 7195   7.796   6.162  10.218  0.3592 -0.0967  0.5398
35063SOL    HW1 7196   7.762   6.197  10.136  0.7825 -0.0325  0.3881
35063SOL    HW2 7197   7.728   6.101  10.249  0.8084 -1.2256 -0.5959
35064SOL     OW 7198  10.384   8.837   4.126  0.0988 -0.5329  0.3802
35064SOL    HW1 7199  10.455   8.895   4.099  0.8171 -1.1115  1.0002
35064SOL    HW2 7200  10.389   8.762   4.067  0.8211 -1.1682  1.2230
35065SOL     OW 7201   9.720   2.466   7.837  0.2398  0.0996 -0.0596
35065SOL    HW1 7202   9.749   2.557   7.832 -0.8030  0.4363 -0.3038
35065SOL    HW2 7203   9.645   2.469   7.898 -0.8252 -0.3023 -1.3115
35066SOL     OW 7204   8.467   0.198   5.426 -0.1483 -0.6221 -0.3559
35066SOL    HW1 7205   8.537   0.237   5.479  1.0728 -2.0957 -0.8168
35066SOL    HW2 7206   8.431   0.271   5.376  1.0322  0.1827 -0.0659
35067SOL     OW 7207   8.513   1.120  11.093 -0.0891 -0.0116  0.1476
35067SOL    HW1 7208   8.601   1.129  11.128 -0.3405 -0.8904  1.0730
35067SOL    HW2 7209   8.488   1.029  11.114 -0.3992 -0.4863 -2.0309
35068SOL     OW 7210  10.810   8.202   9.276 -0.3755  0.5767  0.0485
35068SOL    HW1 7211  10.824   8.184   9.183  0.7366  0.7761  0.1583
35068SOL    HW2 7212  10.893   8.242   9.305 -0.6656  0.4070  1.1468
35069SOL     OW 7213   7.475   8.791   5.414  0.6376  0.2410  0.2021
35069SOL    HW1 7214   7.564   8.758   5.410  0.5215  0.0383 -1.0857
35069SOL    HW2 7215   7.421   8.718   5.381 -0.0806  0.1352  1.5290
35070SOL     OW 7216   7.113   8.179   1.258 -0.3767  0.1408 -0.1235
35070SOL    HW1 7217   7.135   8.272   1.259 -1.0586  0.3086 -0.6525
35070SOL    HW2 7218   7.136   8.149   1.346 -0.5488  0.9020  0.1941
35071SOL     OW 7219  10.088   0.301   1.337  0.2609  0.1133  0.2882
35071SOL    HW1 7220  10.033   0.253   1.399 -0.3409 -0.5082 -0.6953
35071SOL    HW2 7221  10.092   0.389   1.373 -1.5832  0.2415  0.3011
35072SOL     OW 7222   0.319   1.963   4.104 -0.2016  0.0922 -0.3581
35072SOL    HW1 7223   0.237   2.013   4.101  0.9369  2.1642  1.0114
35072SOL    HW2 7224   0.379   2.012   4.049  0.9966  0.3652  1.1383
35073SOL     OW 7225   5.442   6.788   5.750  0.2181  0.1097  0.3719
35073SOL    HW1 7226   5.530   6.779   5.711  0.3676  1.4805  0.3418
35073SOL    HW2 7227   5.445   6.872   5.796 -1.6763  1.1634 -1.2712
35074SOL     OW 7228   6.439   0.319   6.344 -1.1128  0.1037 -0.2682
35074SOL    HW1 7229   6.364   0.260   6.356 -3.7548  2.8802 -1.8350
35074SOL    HW2 7230   6.418   0.397   6.395 -0.2037  1.6820 -2.1557
35075SOL     OW 7231   2.876   8.716   0.505  0.0753  0.0447  0.0314
35075SOL    HW1 7232   2.817   8.790   0.509  1.1630  0.9337  0.1551
35075SOL    HW2 7233   2.963   8.754   0.489  0.3326 -1.3334 -2.5114
35076SOL     OW 7234  10.265   9.825   7.980  0.2699 -0.0425  0.0986
35076SOL    HW1 7235  10.171   9.838   7.985  0.2246  0.0960 -0.8496
35076SOL    HW2 7236  10.282   9.805   7.888  1.2235  0.4526  0.1459
35077SOL     OW 7237   5.345   5.268  10.351 -0.2639  0.3457  0.4279
35077SOL    HW1 7238   5.418   5.256  10.412  2.1677 -0.0975 -2.3828
35077SOL    HW2 7239   5.356   5.357  10.317 -1.2589  0.3966  0.2108
35078SOL     OW 7240   8.549  10.464   4.233  0.5715 -0.5295  0.1789
35078SOL    HW1 7241   8.564  10.548   4.192  0.6277 -0.5317  0.1947
35078SOL    HW2 7242   8.475  10.426   4.186 -0.7305  0.3534  1.4136
35079SOL     OW 7243   8.353   8.532   8.403  0.1596  0.5016 -0.3760
35079SOL    HW1 7244   8.267   8.560   8.435 -0.9847 -0.8807 -2.0033
35079SOL    HW2 7245   8.374   8.595   8.334  1.7727  2.4087  1.7260
35080SOL     OW 7246   9.425   8.479   8.290 -0.4707  0.1180 -0.0032
35080SOL    HW1 7247   9.469   8.559   8.260  0.7782 -0.4393  0.2620
35080SOL    HW2 7248   9.393   8.438   8.209 -0.3425  0.4416 -0.2220
35081SOL     OW 7249   5.318   3.894  10.601  0.0445  0.0218 -0.6772
35081SOL    HW1 7250   5.365   3.812  10.618  0.3711 -0.0907 -1.9903
35081SOL    HW2 7251   5.377   3.945  10.545 -1.0425  0.2032 -1.7192
35082SOL     OW 7252   2.216  10.014   0.353 -0.1375 -0.6603  0.2393
35082SOL    HW1 7253   2.141   9.963   0.384 -0.9594  0.1146 -0.4017
35082SOL    HW2 7254   2.193  10.038   0.263  0.6814 -0.0307  0.1820
35083SOL     OW 7255   7.616  11.033   0.698 -0.3826 -0.1363  0.4282
35083SOL    HW1 7256   7.600  10.953   0.747  0.3350 -1.0652 -0.8136
35083SOL    HW2 7257   7.554  11.030   0.625 -2.3986  1.8879  1.9043
35084SOL     OW 7258   4.235   7.770   4.326  0.2899 -0.0998 -0.5948
35084SOL    HW1 7259   4.223   7.762   4.232  0.0836 -1.9642 -0.4320
35084SOL    HW2 7260   4.246   7.681   4.358  0.0040  0.4501  1.2047
35085SOL     OW 7261   6.718   0.870   3.115 -0.7485  0.1542  0.3819
35085SOL    HW1 7262   6.674   0.852   3.032  0.6935  0.3172 -0.4455
35085SOL    HW2 7263   6.786   0.803   3.121 -0.2886  0.6660  1.0130
35086SOL     OW 7264   7.994   4.868   9.799  0.7838 -0.4176 -0.4593
35086SOL    HW1 7265   8.066   4.930   9.804  0.8436 -0.4345 -1.0729
35086SOL    HW2 7266   7.931   4.900   9.864  0.3911  0.8326 -1.4094
35087SOL     OW 7267   9.591   9.458  10.840  0.5260 -0.6197 -0.0895
35087SOL    HW1 7268   9.628   9.544  10.822  0.6120 -0.7638 -0.5994
35087SOL    HW2 7269   9.576   9.459  10.935 -0.6062  0.4059 -0.2455
35088SOL     OW 7270   4.254   2.590   9.923  0.1686 -0.0310 -0.1689
35088SOL    HW1 7271   4.230   2.682   9.930 -1.1272 -0.4168  0.8689
35088SOL    HW2 7272   4.231   2.567   9.832 -2.5130 -0.0801  0.4358
35089SOL     OW 7273   9.086   0.794   9.652  0.0028 -0.1071 -0.4429
35089SOL    HW1 7274   9.015   0.795   9.588 -4.1564  2.2428  3.6208
35089SOL    HW2 7275   9.141   0.869   9.627 -0.5621 -0.2035 -2.0827
35090SOL     OW 7276  10.419   6.325   4.505 -0.2436  0.1675  0.1422
35090SOL    HW1 7277  10.444   6.306   4.415 -0.6453  0.0007  0.0643
35090SOL    HW2 7278  10.339   6.273   4.520 -1.0579  1.3552  0.0925
35091SOL     OW 7279   4.374   1.392   8.419  0.2355  0.0088 -0.1875
35091SOL    HW1 7280   4.296   1.436   8.452  0.3252  0.1198 -0.1220
35091SOL    HW2 7281   4.372   1.407   8.325  1.3241  1.8864  0.0424
35092SOL     OW 7282   7.127   0.761  10.841 -0.2341 -0.4710 -0.4940
35092SOL    HW1 7283   7.043   0.736  10.879 -0.4700 -0.5125 -1.0308
35092SOL    HW2 7284   7.179   0.680  10.842 -0.0156 -0.3308  0.2952
35093SOL     OW 7285   8.418   7.349   6.846 -0.4592 -0.0983 -0.2796
35093SOL    HW1 7286   8.478   7.274   6.846  0.8721  0.9243 -0.3511
35093SOL    HW2 7287   8.393   7.360   6.938  2.9099  2.0332  0.5592
35094SOL     OW 7288   8.506   9.993   7.053  0.0932 -0.3586 -0.3943
35094SOL    HW1 7289   8.425   9.956   7.088  0.6427 -0.2071  1.1442
35094SOL    HW2 7290   8.485  10.086   7.040 -0.4520 -0.6325 -1.5881
35095SOL     OW 7291   3.468   2.238  10.693  0.4015  0.2505 -0.0741
35095SOL    HW1 7292   3.480   2.222  10.786 -2.3933  1.0804  0.5336
35095SOL    HW2 7293   3.373   2.242  10.682  0.6601  0.4840 -2.9180
35096SOL     OW 7294   4.724  10.964   5.699  0.1666 -0.0447  0.0548
35096SOL    HW1 7295   4.648  11.018   5.679  0.5858  0.1508 -1.0760
35096SOL    HW2 7296   4.799  11.017   5.673  0.6237 -0.8471 -0.3126
35097SOL     OW 7297   3.246   7.429  11.032  0.0296  0.1043  0.6626
35097SOL    HW1 7298   3.249   7.424  10.937 -1.0537 -0.3605  0.6374
35097SOL    HW2 7299   3.294   7.351  11.061 -0.9586 -0.6006  0.4639
35098SOL     OW 7300   7.405   5.747   2.266  0.0335 -0.1069  0.2649
35098SOL    HW1 7301   7.441   5.808   2.330  1.6683 -0.8943  0.1582
35098SOL    HW2 7302   7.410   5.662   2.308 -1.1048 -0.3387 -0.0377
35099SOL     OW 7303   3.334  10.946   5.018 -0.7729 -0.0662 -0.5361
35099SOL    HW1 7304   3.298  11.008   5.082 -0.1726  1.8409 -1.9704
35099SOL    HW2 7305   3.258  10.897   4.987 -1.2782 -0.0152  0.5473
35100SOL     OW 7306   6.134   9.375   4.243 -0.1068 -0.0176  0.2532
35100SOL    HW1 7307   6.196   9.334   4.304 -0.7102 -0.3678  0.6358
35100SOL    HW2 7308   6.048   9.354   4.279 -0.4475  2.0269  0.7503
35101SOL     OW 7309   2.012   7.340   9.700  0.0228 -0.2692  0.2455
35101SOL    HW1 7310   2.087   7.339   9.640  0.4969  0.0201  0.8319
35101SOL    HW2 7311   2.024   7.419   9.752 -1.2027  0.2927 -0.2915
35102SOL     OW 7312   4.181   9.597   2.082 -0.7167 -0.4659  0.0477
35102SOL    HW1 7313   4.188   9.506   2.051 -0.2102 -0.3032 -0.3216
35102SOL    HW2 7314   4.135   9.590   2.166 -0.2122 -1.1165  0.2762
35103SOL     OW 7315   8.670   9.421   3.877 -0.2448 -0.2676 -0.3359
35103SOL    HW1 7316   8.598   9.460   3.925 -0.3696 -0.1759 -0.5981
35103SOL    HW2 7317   8.747   9.440   3.931 -0.2867  0.4273 -0.5071
35104SOL     OW 7318   8.670   8.701   0.188 -0.0878 -0.8799 -0.7875
35104SOL    HW1 7319   8.735   8.695   0.118 -0.2760  0.3440 -1.0943
35104SOL    HW2 7320   8.641   8.792   0.186  1.8822 -0.0100  2.6622
35105SOL     OW 7321   0.567   2.109   5.924 -0.2692  0.4317 -0.0458
35105SOL    HW1 7322   0.600   2.051   5.855  1.1578 -0.7910  1.5769
35105SOL    HW2 7323   0.473   2.113   5.908  0.1793  1.5951 -3.0453
35106SOL     OW 7324   7.188   0.693   3.343 -0.0359 -0.0179  0.1301
35106SOL    HW1 7325   7.256   0.713   3.279  1.8048 -0.6491  1.7874
35106SOL    HW2 7326   7.227   0.625   3.398 -1.5219  0.5214  1.9201
35107SOL     OW 7327   4.202   4.042   7.587 -0.3090 -0.4306  0.0237
35107SOL    HW1 7328   4.284   4.013   7.626  0.9037 -0.1010 -2.1820
35107SOL    HW2 7329   4.174   3.969   7.532 -1.8166 -0.7483  1.1320
35108SOL     OW 7330   4.129   8.641   6.781 -0.0372 -0.1811  0.0417
35108SOL    HW1 7331   4.109   8.687   6.699  1.9256 -1.2453 -1.1096
35108SOL    HW2 7332   4.163   8.709   6.839 -0.8251  0.4700 -0.2465
35109SOL     OW 7333   5.986   7.283   0.406  0.4751 -0.1290  0.3173
35109SOL    HW1 7334   5.967   7.235   0.487  0.1886  0.4720  0.6129
35109SOL    HW2 7335   5.906   7.333   0.389 -1.0006 -3.0369 -2.3856
35110SOL     OW 7336   9.496   8.722  10.089  0.5161  0.0617 -0.2292
35110SOL    HW1 7337   9.482   8.646  10.032 -0.9717 -0.6126  0.9568
35110SOL    HW2 7338   9.566   8.695  10.149 -0.6594 -0.7912  0.8087
35111SOL     OW 7339  10.723   1.861   9.773 -0.1286  0.0349  0.3324
35111SOL    HW1 7340  10.793   1.915   9.736 -0.6497  1.0401  0.7958
35111SOL    HW2 7341  10.718   1.887   9.865 -1.9688  0.9375  0.0324
35112SOL     OW 7342   8.546  10.399   9.365  0.0898  0.7647  0.6210
35112SOL    HW1 7343   8.554  10.494   9.358 -0.3120  0.7258 -0.4445
35112SOL    HW2 7344   8.532  10.369   9.275  2.4704 -0.5227  0.5977
35113SOL     OW 7345   0.805  10.251  10.517 -0.0412 -0.8680 -0.1239
35113SOL    HW1 7346   0.884  10.197  10.509  0.7346  0.3382 -0.9609
35113SOL    HW2 7347   0.748  10.201  10.575  1.4614 -1.6359  0.7659
35114SOL     OW 7348   7.296  10.778   4.595  0.0580 -0.3832  0.1493
35114SOL    HW1 7349   7.231  10.724   4.550 -0.3093 -0.1012  0.3383
35114SOL    HW2 7350   7.273  10.772   4.687  0.1821 -0.1253  0.1966
35115SOL     OW 7351   7.339   5.527   1.465  0.2089  0.0004 -0.2582
35115SOL    HW1 7352   7.367   5.436   1.462  0.8658  0.2156 -0.8876
35115SOL    HW2 7353   7.367   5.558   1.551  1.0891 -0.0531 -0.5158
35116SOL     OW 7354   7.910   6.959   2.470  0.0340 -0.4325  0.0120
35116SOL    HW1 7355   7.971   6.984   2.539  0.7631 -0.3811 -0.6423
35116SOL    HW2 7356   7.862   7.039   2.450  0.4624 -0.2266 -0.1830
35117SOL     OW 7357   8.628   2.079   3.056 -0.3203  0.0525 -0.7315
35117SOL    HW1 7358   8.625   2.056   2.963 -0.8625  1.1144 -0.9924
35117SOL    HW2 7359   8.719   2.105   3.070 -0.5802  1.4226 -1.3788
35118SOL     OW 7360   4.300   7.325   8.768 -0.5009 -0.0394 -0.4712
35118SOL    HW1 7361   4.345   7.316   8.852 -1.1449  2.6416  0.2501
35118SOL    HW2 7362   4.369   7.348   8.706 -0.1478 -1.1760 -0.5148
35119SOL     OW 7363   9.209   4.949   6.642 -0.2563 -0.0705  0.3531
35119SOL    HW1 7364   9.304   4.943   6.633 -0.2496 -1.5105  1.0473
35119SOL    HW2 7365   9.193   5.037   6.675  0.6251  1.0123 -1.9430
35120SOL     OW 7366   8.950   6.680   0.943 -0.1217 -0.2246  0.2111
35120SOL    HW1 7367   8.867   6.690   0.895  1.3354  0.7135 -2.2750
35120SOL    HW2 7368   9.011   6.643   0.880  1.3302 -1.2528  2.0894
35121SOL     OW 7369  10.546   0.174  10.462 -0.0889  0.2909 -0.4253
35121SOL    HW1 7370  10.507   0.251  10.420  1.6242  1.1471 -0.5394
35121SOL    HW2 7371  10.636   0.200  10.481  0.2921 -1.4142  0.3103
35122SOL     OW 7372   2.504   1.434   7.714 -0.5505 -0.7647  0.2197
35122SOL    HW1 7373   2.446   1.428   7.638 -0.1093 -1.6971 -0.0592
35122SOL    HW2 7374   2.453   1.400   7.787  0.1741 -3.3353 -0.3590
35123SOL     OW 7375   5.133   1.845   8.737 -0.6168  0.0080  0.0006
35123SOL    HW1 7376   5.169   1.837   8.649 -1.1050 -1.2028 -0.1114
35123SOL    HW2 7377   5.203   1.813   8.794 -1.0885 -1.3421 -0.1377
35124SOL     OW 7378   7.070   2.001   1.505 -0.5813  0.1829 -0.3941
35124SOL    HW1 7379   7.079   1.912   1.539 -2.6651  0.9958  2.7155
35124SOL    HW2 7380   7.019   1.991   1.425 -0.6772 -1.4530 -0.1694
35125SOL     OW 7381   1.910   1.698   8.070  0.7458  0.2431 -0.4677
35125SOL    HW1 7382   1.842   1.748   8.025 -0.0803 -0.4365 -0.0161
35125SOL    HW2 7383   1.991   1.742   8.048  0.3957 -0.1408 -2.7143
35126SOL     OW 7384   8.338  10.935  10.790 -0.1190 -0.2052  0.1398
35126SOL    HW1 7385   8.392  10.938  10.711 -0.2760  3.5141  0.0161
35126SOL    HW2 7386   8.276  11.008  10.781 -0.8822 -0.3062  3.1929
35127SOL     OW 7387   6.942   9.932   3.519  0.4438  0.1202  0.4079
35127SOL    HW1 7388   6.981   9.882   3.591  0.5228 -0.6452 -0.1568
35127SOL    HW2 7389   6.934  10.021   3.553  0.4324 -0.2472  1.3772
35128SOL     OW 7390   7.501   4.748   2.319  0.0636  0.1109  0.0141
35128SOL    HW1 7391   7.497   4.669   2.265 -0.2688  0.1104  0.0314
35128SOL    HW2 7392   7.494   4.820   2.257  0.6474  0.1370 -0.0270
35129SOL     OW 7393   0.002   1.954  11.054 -0.0452  0.2285  0.4380
35129SOL    HW1 7394   0.041   1.919  10.973 -0.2921  0.1179  0.3666
35129SOL    HW2 7395  -0.039   2.036  11.027  2.1603  1.6068  0.9578
35130SOL     OW 7396   1.612   5.196  10.907 -0.1379  0.0567 -0.7060
35130SOL    HW1 7397   1.661   5.174  10.828 -0.8180  0.8067 -1.3618
35130SOL    HW2 7398   1.522   5.168  10.889 -0.1735 -0.3590  0.0659
35131SOL     OW 7399  10.231   6.628  10.846  0.0846 -0.6479  0.0787
35131SOL    HW1 7400  10.177   6.698  10.809 -0.4721  0.8416  3.3330
35131SOL    HW2 7401  10.264   6.580  10.770 -0.9557  2.0498 -2.2515
35132SOL     OW 7402   6.986   6.549   4.049 -0.0044 -0.1584  0.2227
35132SOL    HW1 7403   7.053   6.570   4.114 -0.9079 -0.9871  1.4371
35132SOL    HW2 7404   7.035   6.506   3.978  1.3749  2.7655 -0.8070
35133SOL     OW 7405   9.217   0.318   0.264 -0.0594 -0.5834 -0.1955
35133SOL    HW1 7406   9.305   0.311   0.227 -0.4033 -3.5827 -0.6956
35133SOL    HW2 7407   9.180   0.230   0.255 -2.5906  0.2160  1.3515
35134SOL     OW 7408   4.715   3.013   5.199  0.2119 -0.1502 -0.0330
35134SOL    HW1 7409   4.639   2.987   5.147  0.7298  0.6198 -1.2085
35134SOL    HW2 7410   4.785   2.955   5.170 -0.3203 -2.1538  2.3917
35135SOL     OW 7411   2.765  11.016   8.727  0.3923 -0.0608  0.0903
35135SOL    HW1 7412   2.727  10.986   8.645 -1.6000 -0.6744  1.1709
35135SOL    HW2 7413   2.859  11.022   8.709 -0.0535  0.7331 -2.4866
35136SOL     OW 7414   4.722   9.563   5.334  0.4810 -0.3617  0.8966
35136SOL    HW1 7415   4.733   9.620   5.410  1.6713  0.6554  0.0073
35136SOL    HW2 7416   4.746   9.476   5.364 -0.6014 -0.2662  2.0821
35137SOL     OW 7417   9.352   6.995   2.627 -0.0217 -0.4013  0.4901
35137SOL    HW1 7418   9.276   7.033   2.672 -0.1316  0.6844 -0.5653
35137SOL    HW2 7419   9.382   6.926   2.686 -1.7129 -0.7372  1.0119
35138SOL     OW 7420  11.036   5.091   1.110  0.0885 -0.7528  0.7267
35138SOL    HW1 7421  11.069   5.133   1.190 -2.1125  0.9221  0.8689
35138SOL    HW2 7422  10.995   5.163   1.061 -2.0179 -2.3801 -0.0505
35139SOL     OW 7423   8.449  10.973   2.420 -0.1992 -0.2086  0.8235
35139SOL    HW1 7424   8.501  10.895   2.439 -0.0213 -0.7146 -1.5247
35139SOL    HW2 7425   8.505  11.027   2.364 -0.8267  1.0022  1.3182
35140SOL     OW 7426   6.646   2.118   3.825 -0.0729  0.4026 -0.1223
35140SOL    HW1 7427   6.614   2.143   3.738  1.8232 -0.5613 -1.1568
35140SOL    HW2 7428   6.734   2.085   3.809  1.5659  3.0308  2.5421
35141SOL     OW 7429   4.519   1.080   1.398  0.4857 -0.0659 -0.1690
35141SOL    HW1 7430   4.467   1.004   1.372  1.9341 -1.3395  0.4449
35141SOL    HW2 7431   4.580   1.093   1.326 -1.3432  2.1824 -1.4453
35142SOL     OW 7432  10.369  10.927   8.392 -0.1887  0.5180  0.0191
35142SOL    HW1 7433  10.280  10.926   8.426  0.3258  0.8737  1.4399
35142SOL    HW2 7434  10.379  11.014   8.353 -0.8396  0.0422 -1.2875
35143SOL     OW 7435   9.850   1.567   5.127  0.5459 -0.2467 -0.1339
35143SOL    HW1 7436   9.836   1.536   5.216 -0.9907 -1.0462 -0.6244
35143SOL    HW2 7437   9.762   1.571   5.089  1.2212 -0.4789 -1.7980
35144SOL     OW 7438   2.058   7.448   0.675  0.3371  0.0183 -0.1330
35144SOL    HW1 7439   2.112   7.415   0.603  0.9874 -0.3899  0.5259
35144SOL    HW2 7440   1.977   7.477   0.633  1.6552  2.1422 -1.3820
35145SOL     OW 7441   4.925   9.990   7.441 -0.3444  0.5055  0.1902
35145SOL    HW1 7442   4.959   9.901   7.445  0.5140  0.7641 -0.9807
35145SOL    HW2 7443   4.873   9.992   7.361 -0.9680  0.8739  0.5891
35146SOL     OW 7444   8.484   2.872   4.051 -0.2189  0.6666  0.0570
35146SOL    HW1 7445   8.539   2.826   3.988 -0.6733 -0.3534  0.3801
35146SOL    HW2 7446   8.447   2.802   4.105 -1.2196  1.3860  0.3218
35147SOL     OW 7447   3.028   3.951   4.066 -0.6792  0.0652 -0.3787
35147SOL    HW1 7448   3.029   3.888   3.994 -1.6163 -0.3893 -0.0056
35147SOL    HW2 7449   2.993   3.902   4.140 -2.0063  1.1787 -0.2356
35148SOL     OW 7450   1.777   0.207   2.327  0.5493 -0.1425 -0.1879
35148SOL    HW1 7451   1.682   0.209   2.331  0.5040  0.0987 -1.2850
35148SOL    HW2 7452   1.805   0.261   2.401 -0.1846  1.2303 -0.8880
35149SOL     OW 7453   5.114   0.197   9.188  0.2086  0.1903  0.2484
35149SOL    HW1 7454   5.105   0.273   9.245 -0.9151  0.3352 -0.1000
35149SOL    HW2 7455   5.026   0.181   9.155  0.5624 -0.8341 -0.2421
35150SOL     OW 7456  10.538  10.365   9.227  0.2839 -0.6606  0.2439
35150SOL    HW1 7457  10.604  10.428   9.197  0.1676 -0.4155  0.4892
35150SOL    HW2 7458  10.463  10.420   9.251  0.6603 -0.7631  1.7371
35151SOL     OW 7459  11.100  11.011   7.551 -0.1315  0.3533  0.0042
35151SOL    HW1 7460  11.051  11.076   7.600 -0.0498  0.2438  0.2292
35151SOL    HW2 7461  11.041  10.936   7.545 -1.1273  1.2203 -2.1725
35152SOL     OW 7462   1.816   8.975   6.331 -0.0097 -0.4351  0.0899
35152SOL    HW1 7463   1.820   8.893   6.283  0.7691 -0.6807  0.5546
35152SOL    HW2 7464   1.740   8.966   6.388 -0.1707 -0.6593 -0.1581
35153SOL     OW 7465   6.355   6.735  10.136  0.0872 -0.1426 -0.1149
35153SOL    HW1 7466   6.382   6.757  10.225  0.8746  0.7223 -0.5445
35153SOL    HW2 7467   6.433   6.696  10.097 -0.7205 -2.0025  0.0329
35154SOL     OW 7468   4.830   1.368  10.436 -0.3614  0.4354 -0.2296
35154SOL    HW1 7469   4.885   1.440  10.469  0.3830 -0.3269  0.2168
35154SOL    HW2 7470   4.840   1.372  10.340  0.1127  0.5840 -0.1753
35155SOL     OW 7471   9.398  11.011   9.293 -0.2373 -0.5316  0.3056
35155SOL    HW1 7472   9.393  10.940   9.357  0.0295 -0.9475 -0.1220
35155SOL    HW2 7473   9.373  11.089   9.341 -2.0172 -1.1405  0.4173
35156SOL     OW 7474   7.179   4.980   3.208  0.3280  0.0400  0.0967
35156SOL    HW1 7475   7.237   4.953   3.137 -1.1514 -1.5347 -0.5787
35156SOL    HW2 7476   7.099   4.929   3.195 -0.4967  0.7066  2.1260
35157SOL     OW 7477   8.057   2.279  10.354  0.4415  0.2705  0.1782
35157SOL    HW1 7478   8.103   2.202  10.321 -0.0327 -0.4666  1.1720
35157SOL    HW2 7479   8.111   2.354  10.326  1.8876 -0.5201  0.7511
35158SOL     OW 7480   1.066   8.488   8.446  0.0539  0.2200 -1.3387
35158SOL    HW1 7481   1.027   8.443   8.521 -1.5142  0.7404 -1.7976
35158SOL    HW2 7482   1.158   8.497   8.469 -0.1775 -0.5929  0.0424
35159SOL     OW 7483   9.437   5.116   9.342 -0.6815 -0.2663  0.1426
35159SOL    HW1 7484   9.370   5.117   9.410 -0.7875  1.8401  0.0792
35159SOL    HW2 7485   9.388   5.112   9.260 -0.6505 -0.5735  0.1395
35160SOL     OW 7486   6.464   5.383   7.685 -0.6785  0.2047  0.1220
35160SOL    HW1 7487   6.538   5.323   7.696 -1.3741 -0.4781  1.2790
35160SOL    HW2 7488   6.419   5.351   7.607  1.4764  2.0285 -2.0586
35161SOL     OW 7489   7.545   4.560   8.485  0.2516 -0.2698  0.5292
35161SOL    HW1 7490   7.604   4.502   8.532  2.1316  0.8908 -0.2810
35161SOL    HW2 7491   7.592   4.643   8.480 -1.6595  0.8531  0.2230
35162SOL     OW 7492  10.978   8.412   6.821 -0.2406 -0.4787 -0.2631
35162SOL    HW1 7493  11.021   8.452   6.896 -0.0855 -1.4313  0.1781
35162SOL    HW2 7494  10.983   8.478   6.752 -0.2577  0.3538  0.5132
35163SOL     OW 7495   6.504   7.208   6.933  0.2307  0.0691 -0.3192
35163SOL    HW1 7496   6.466   7.186   6.848 -1.5228 -1.0059  0.6631
35163SOL    HW2 7497   6.566   7.138   6.951 -0.4852 -0.5132 -0.0855
35164SOL     OW 7498   2.882   3.924  10.114 -0.3884  0.6693  0.4689
35164SOL    HW1 7499   2.956   3.932  10.174 -1.4243 -2.3007  2.3938
35164SOL    HW2 7500   2.900   3.846  10.063 -2.6194 -0.8961  1.8662
35165SOL     OW 7501   6.575   0.188   4.933  0.7570 -0.0282  0.2702
35165SOL    HW1 7502   6.569   0.283   4.945  0.7421  0.1932 -1.3074
35165SOL    HW2 7503   6.552   0.173   4.842 -0.2578 -1.6647  0.7369
35166SOL     OW 7504   3.567   0.774   3.168  0.0894  0.3567 -0.2183
35166SOL    HW1 7505   3.529   0.708   3.110  2.2674 -0.1498 -1.1844
35166SOL    HW2 7506   3.604   0.723   3.241  2.1441  0.3591 -1.1708
35167SOL     OW 7507   0.937   2.365   3.629 -0.2284 -0.4007  0.2473
35167SOL    HW1 7508   0.891   2.282   3.638 -2.2828  0.7088  0.4875
35167SOL    HW2 7509   0.915   2.414   3.708 -2.6587  2.0122 -1.7410
35168SOL     OW 7510   5.238  10.536   1.378 -0.1482  0.2632 -0.2772
35168SOL    HW1 7511   5.209  10.584   1.456  0.1618 -0.3857  0.2408
35168SOL    HW2 7512   5.329  10.515   1.396  0.2986  1.1788 -1.3520
35169SOL     OW 7513   7.936   1.429   8.610  0.0364 -0.0976 -0.1960
35169SOL    HW1 7514   7.996   1.434   8.685  1.8816 -1.9575 -1.4407
35169SOL    HW2 7515   7.884   1.350   8.626  0.1434 -0.2668 -0.6777
35170SOL     OW 7516   2.098  10.392   8.880  0.0926  0.1905  0.2450
35170SOL    HW1 7517   2.129  10.310   8.920  1.1657  0.5274  0.1389
35170SOL    HW2 7518   2.147  10.460   8.925  1.5305  0.5777 -1.7444
35171SOL     OW 7519   7.376   3.358   2.370  0.3381 -0.2175 -0.1644
35171SOL    HW1 7520   7.466   3.363   2.403  0.1407  1.0320  0.2123
35171SOL    HW2 7521   7.342   3.447   2.378 -1.1896 -0.8218  0.3695
35172SOL     OW 7522  10.783   0.547   4.981  0.4575 -0.4969  0.2476
35172SOL    HW1 7523  10.711   0.574   5.038  0.3624 -0.7139  0.2351
35172SOL    HW2 7524  10.831   0.627   4.963 -0.8239 -0.0211 -1.2239
35173SOL     OW 7525  10.300   8.274   3.911  0.2266 -0.6627  0.4507
35173SOL    HW1 7526  10.384   8.272   3.957  0.8570 -0.7204 -0.6662
35173SOL    HW2 7527  10.322   8.257   3.820 -1.0682 -1.2000  0.2168
35174SOL     OW 7528   4.903   3.863   9.258 -0.4326 -0.2512 -0.2939
35174SOL    HW1 7529   4.965   3.801   9.220 -0.0618 -0.0876  0.0219
35174SOL    HW2 7530   4.848   3.810   9.316  0.1858 -0.2224  0.3352
35175SOL     OW 7531   4.046   9.000   2.394 -0.7377 -0.5318  0.0704
35175SOL    HW1 7532   4.019   9.024   2.482  0.5724 -1.2255  0.6881
35175SOL    HW2 7533   4.017   9.073   2.339  0.1686  0.8761  1.3794
35176SOL     OW 7534  10.474   6.026   7.588 -0.3613 -0.3393  0.1220
35176SOL    HW1 7535  10.564   6.033   7.617 -0.6977  0.2804  1.0551
35176SOL    HW2 7536  10.442   6.117   7.586 -1.4259 -0.6567  1.3550
35177SOL     OW 7537  11.020   3.801   8.729  0.5786 -0.1908  0.0413
35177SOL    HW1 7538  10.948   3.771   8.786 -0.6847 -0.0390 -1.4038
35177SOL    HW2 7539  10.984   3.876   8.683  0.6549 -1.7060 -2.7017
35178SOL     OW 7540   0.736   0.598   3.265 -0.5840 -0.3962 -0.1582
35178SOL    HW1 7541   0.652   0.641   3.281  0.0387  1.0898 -0.7080
35178SOL    HW2 7542   0.725   0.554   3.180 -0.1278  1.7303 -1.3840
35179SOL     OW 7543   2.594  10.075   4.639  0.3578 -0.2124  0.0301
35179SOL    HW1 7544   2.560  10.076   4.550 -0.9874 -1.6095  0.5038
35179SOL    HW2 7545   2.687  10.095   4.628  0.2325 -0.3638 -1.6832
35180SOL     OW 7546   7.925   9.351   4.585  0.1075  0.2195  0.1850
35180SOL    HW1 7547   7.866   9.425   4.569  0.8795  0.6216 -0.9478
35180SOL    HW2 7548   8.009   9.380   4.550  0.3364 -1.3339 -0.6358
35181SOL     OW 7549   4.996   9.789   0.195 -0.1871 -0.0426  0.0406
35181SOL    HW1 7550   4.987   9.820   0.285  0.3160  0.3023 -0.0222
35181SOL    HW2 7551   4.922   9.828   0.149  0.0781  0.5495  0.1060
35182SOL     OW 7552   8.304   7.751   0.565  0.2831 -0.1682 -0.5753
35182SOL    HW1 7553   8.332   7.821   0.623  0.3360  0.5333 -1.4186
35182SOL    HW2 7554   8.341   7.672   0.603 -0.1326  0.1956  0.6334
35183SOL     OW 7555   4.952   1.256   2.994  0.1937  0.4715  0.1353
35183SOL    HW1 7556   5.025   1.254   2.931  0.1435  0.1644  0.0873
35183SOL    HW2 7557   4.879   1.215   2.948  0.3458 -0.3642  0.6330
35184SOL     OW 7558   8.599   6.164   3.039 -0.2045 -0.1942  1.0729
35184SOL    HW1 7559   8.646   6.141   3.119 -0.2308 -1.6832  0.6897
35184SOL    HW2 7560   8.613   6.090   2.980 -2.0900 -0.1902  0.5418
35185SOL     OW 7561   8.704   5.501   5.269  0.1327 -0.1274 -0.0614
35185SOL    HW1 7562   8.704   5.434   5.201 -2.0515 -1.6890  1.3094
35185SOL    HW2 7563   8.779   5.479   5.324 -0.1659 -1.1061 -0.0130
35186SOL     OW 7564   0.497   9.749  10.392 -0.2562  0.3227 -0.0170
35186SOL    HW1 7565   0.500   9.712  10.303  0.4389 -3.8846  1.5274
35186SOL    HW2 7566   0.405   9.741  10.418 -0.0403 -0.8929  0.4559
35187SOL     OW 7567  11.009   3.671   2.373 -0.3638  0.0005 -0.5855
35187SOL    HW1 7568  11.043   3.701   2.288  1.0621 -1.0452 -0.4241
35187SOL    HW2 7569  11.087   3.649   2.423 -1.2255 -0.2575  0.6826
35188SOL     OW 7570   7.127   5.984   9.276 -0.6146 -0.2206  0.1050
35188SOL    HW1 7571   7.128   5.890   9.292 -0.2970 -0.5271 -1.5683
35188SOL    HW2 7572   7.176   6.022   9.350 -2.3697 -1.1502  1.8428
35189SOL     OW 7573   0.191  10.638   1.627 -0.6255 -0.1112 -0.1654
35189SOL    HW1 7574   0.195  10.617   1.720 -1.4388 -0.3272 -0.1660
35189SOL    HW2 7575   0.226  10.727   1.621 -1.7768  0.4121  0.5347
35190SOL     OW 7576   5.828   9.636   1.686  0.4165 -0.4585  0.2586
35190SOL    HW1 7577   5.924   9.638   1.690  0.4991 -0.8526 -1.0592
35190SOL    HW2 7578   5.805   9.712   1.632 -0.0630  0.0056  1.0951
35191SOL     OW 7579   9.861   7.354   4.710 -0.1380  0.2464 -1.2797
35191SOL    HW1 7580   9.801   7.321   4.777  0.7487  1.3374  0.1059
35191SOL    HW2 7581   9.808   7.358   4.630 -0.9367 -2.0915 -0.9373
35192SOL     OW 7582   4.692   1.948   6.848  0.5282 -0.1530  0.0345
35192SOL    HW1 7583   4.659   1.862   6.874  0.2176  0.5595  2.1457
35192SOL    HW2 7584   4.785   1.946   6.869  0.3292  0.3412  0.9918
35193SOL     OW 7585   8.292   6.577   6.759 -0.0686 -0.0630 -0.2971
35193SOL    HW1 7586   8.215   6.556   6.813  0.3742  0.6173  0.6167
35193SOL    HW2 7587   8.321   6.662   6.790  0.6532  0.0025 -1.1166
35194SOL     OW 7588   7.996   9.363  10.028 -0.5755 -0.1392 -0.4134
35194SOL    HW1 7589   7.955   9.409   9.954  0.4399  2.0982  0.3162
35194SOL    HW2 7590   8.088   9.356  10.004  0.2585  2.7069  1.4726
35195SOL     OW 7591   9.417  10.194   3.088  0.3184 -0.1298  0.2818
35195SOL    HW1 7592   9.353  10.192   3.159  2.3810 -0.4453  2.2467
35195SOL    HW2 7593   9.396  10.118   3.035 -0.2014 -0.9336  1.5807
35196SOL     OW 7594   0.940   0.835   9.049 -0.5543  0.7067  0.0167
35196SOL    HW1 7595   0.955   0.885   9.129  0.5968  0.4619 -0.0301
35196SOL    HW2 7596   0.879   0.765   9.075  1.9228 -1.0886  1.4240
35197SOL     OW 7597   2.308   9.906   9.645  0.0107  0.0862 -0.1368
35197SOL    HW1 7598   2.228   9.958   9.632 -0.3927 -0.1780  1.1403
35197SOL    HW2 7599   2.315   9.897   9.740  2.3918  1.3761 -0.1065
35198SOL     OW 7600   9.318   2.905   9.517 -0.0397 -0.0695  0.5788
35198SOL    HW1 7601   9.262   2.982   9.529  0.3778  0.4007 -0.3125
35198SOL    HW2 7602   9.256   2.833   9.507 -0.5302  0.4712 -0.6077
35199SOL     OW 7603   3.674   0.075   2.173 -0.2337 -0.4630 -0.1250
35199SOL    HW1 7604   3.716   0.083   2.259  0.3988 -0.7415 -0.4024
35199SOL    HW2 7605   3.595   0.024   2.191 -0.9286  0.7832  0.5447
35200SOL     OW 7606   3.387   6.775  10.289 -0.1779 -0.7193 -0.2093
35200SOL    HW1 7607   3.417   6.724  10.214 -1.1038 -1.0657 -0.3570
35200SOL    HW2 7608   3.449   6.754  10.359  1.8324  1.0391 -1.3511
35201SOL     OW 7609   2.625   8.524   8.782 -0.2759 -0.4314 -0.3217
35201SOL    HW1 7610   2.576   8.515   8.701 -0.7761 -1.4421  0.0774
35201SOL    HW2 7611   2.657   8.614   8.781  0.0232 -0.5412 -1.7977
35202SOL     OW 7612   9.075   8.674   7.755 -0.1500  0.4358  0.0723
35202SOL    HW1 7613   8.984   8.665   7.784 -1.0483  0.9618 -2.3834
35202SOL    HW2 7614   9.108   8.584   7.755 -1.3783 -0.0536 -1.0353
35203SOL     OW 7615   7.025   7.519  10.215 -0.0420 -0.2735  0.7125
35203SOL    HW1 7616   7.070   7.455  10.160 -0.6787  0.0676 -0.2411
35203SOL    HW2 7617   6.932   7.497  10.207 -0.1590 -0.0721  1.4704
35204SOL     OW 7618   0.175  10.080   2.680 -0.0190  0.2311  0.0734
35204SOL    HW1 7619   0.148  10.153   2.736  0.6107  0.7569 -0.2895
35204SOL    HW2 7620   0.094  10.045   2.644 -0.3723  0.3698  0.7231
35205SOL     OW 7621  10.351   4.106   9.977  0.2496 -0.2402  0.0634
35205SOL    HW1 7622  10.300   4.046  10.031  0.6721 -0.4972  0.1866
35205SOL    HW2 7623  10.307   4.107   9.892 -0.5670  0.3562  0.4817
35206SOL     OW 7624   7.392   2.237   8.097  0.3399 -0.3199 -0.1266
35206SOL    HW1 7625   7.310   2.277   8.128  0.9899 -0.2836  1.6424
35206SOL    HW2 7626   7.387   2.146   8.126  0.7670 -0.4132 -0.3380
35207SOL     OW 7627  10.555   6.762   8.407 -0.3292  0.0949 -0.2773
35207SOL    HW1 7628  10.601   6.776   8.324 -0.3530  0.0345 -0.3001
35207SOL    HW2 7629  10.541   6.850   8.442 -0.5974  0.1379 -0.4906
35208SOL     OW 7630   5.373   2.903   3.509  0.4067  0.2981 -0.3363
35208SOL    HW1 7631   5.324   2.931   3.431  0.5564  0.6261 -0.3164
35208SOL    HW2 7632   5.308   2.860   3.564  0.1385  0.7161 -0.3162
35209SOL     OW 7633   8.464   9.215   1.742  0.0727 -0.6958 -0.0433
35209SOL    HW1 7634   8.420   9.130   1.736 -0.8626 -0.1735 -0.8681
35209SOL    HW2 7635   8.412   9.273   1.687 -1.0980  1.1890  2.8288
35210SOL     OW 7636   7.003   8.724   5.153  0.2258 -0.6828 -0.0234
35210SOL    HW1 7637   7.085   8.756   5.117 -1.1651  0.6453 -2.2294
35210SOL    HW2 7638   7.007   8.629   5.143  1.4228 -0.6238 -0.2084
35211SOL     OW 7639  10.687   4.166   4.342  0.3459  0.3909 -0.3103
35211SOL    HW1 7640  10.614   4.207   4.297 -0.0988 -0.0806 -0.0463
35211SOL    HW2 7641  10.645   4.100   4.398  0.7058  2.0276  2.0279
35212SOL     OW 7642   8.010  10.917   1.902  0.2507  0.6966  0.3751
35212SOL    HW1 7643   8.068  10.915   1.825 -0.2098  0.4068  0.0273
35212SOL    HW2 7644   7.972  11.005   1.901  0.3488  0.7392  0.3477
35213SOL     OW 7645   9.832   7.237   4.251 -0.3508 -0.4304 -0.4792
35213SOL    HW1 7646   9.866   7.300   4.187  0.4088 -1.6242 -1.3027
35213SOL    HW2 7647   9.769   7.286   4.303 -1.2522  0.5196 -2.3708
35214SOL     OW 7648  11.023   2.813   7.062  0.4060  0.5490 -0.0332
35214SOL    HW1 7649  10.986   2.726   7.081 -1.2608  0.8310 -1.7130
35214SOL    HW2 7650  11.107   2.794   7.020  0.3176 -0.2217  0.1174
35215SOL     OW 7651   1.380   8.609   0.325 -0.0952  0.2483 -0.1177
35215SOL    HW1 7652   1.469   8.644   0.321 -0.7505  2.3996  1.9300
35215SOL    HW2 7653   1.384   8.544   0.396  0.1208 -0.7428 -1.0056
35216SOL     OW 7654   7.487   5.945   2.116 -0.2397  0.5098  0.2113
35216SOL    HW1 7655   7.458   5.856   2.131 -2.8997  1.1482 -0.5116
35216SOL    HW2 7656   7.436   5.974   2.039  0.7643  2.5226  0.2290
35217SOL     OW 7657   4.039   6.273   3.725  0.0910 -0.5219 -0.1768
35217SOL    HW1 7658   4.120   6.279   3.673 -1.9328 -0.2563 -3.6166
35217SOL    HW2 7659   4.030   6.359   3.765  0.4288  0.2331 -1.6316
35218SOL     OW 7660  10.189   9.193  10.641 -0.4608  0.4864 -0.0414
35218SOL    HW1 7661  10.259   9.138  10.675 -0.8075 -0.1960 -0.4121
35218SOL    HW2 7662  10.213   9.282  10.668  0.9148  0.3624 -0.7982
35219SOL     OW 7663   6.957   1.674  10.002 -0.8545  0.3322  0.0050
35219SOL    HW1 7664   6.918   1.760   9.990 -0.4981  0.5398  0.3185
35219SOL    HW2 7665   7.025   1.687  10.068  0.3497  0.1674 -1.1666
35220SOL     OW 7666   1.587   9.941   3.569  0.2165 -0.4211 -0.6855
35220SOL    HW1 7667   1.502   9.898   3.581 -0.6361  1.4983  0.7720
35220SOL    HW2 7668   1.566  10.023   3.525  0.8476  1.3084  1.9926
35221SOL     OW 7669   7.954   6.717   5.741  0.3316  0.3507 -0.1538
35221SOL    HW1 7670   8.003   6.691   5.819  0.6528  0.6197 -0.2623
35221SOL    HW2 7671   7.933   6.634   5.696 -0.5087  0.1425  0.5999
35222SOL     OW 7672  10.287   7.232   8.074 -0.0804 -0.3561 -0.3980
35222SOL    HW1 7673  10.206   7.249   8.123 -0.5608  0.5169 -1.4360
35222SOL    HW2 7674  10.320   7.150   8.109 -1.5598 -0.8644 -0.1234
35223SOL     OW 7675   2.990   3.389   9.042 -0.1235  0.1497 -0.8790
35223SOL    HW1 7676   2.929   3.400   8.970  0.4944  0.7559 -1.3290
35223SOL    HW2 7677   2.999   3.477   9.079 -0.8659 -0.2563  0.3046
35224SOL     OW 7678   1.389   7.120   2.023 -0.2074 -0.0956  0.2925
35224SOL    HW1 7679   1.459   7.183   2.008 -0.1466  0.2213  1.8369
35224SOL    HW2 7680   1.339   7.121   1.941  1.5515 -0.3172 -0.8521
35225SOL     OW 7681   8.838   1.357   8.776 -0.2702 -0.1074  0.4177
35225SOL    HW1 7682   8.790   1.392   8.701  0.1056 -0.2750  0.0962
35225SOL    HW2 7683   8.892   1.287   8.739 -0.4164 -0.4908  0.9179
35226SOL     OW 7684   0.822  10.919   1.124 -0.0583  0.0531  0.1636
35226SOL    HW1 7685   0.733  10.886   1.110  0.9478 -3.0087  0.1856
35226SOL    HW2 7686   0.843  10.891   1.213  1.1077  0.2595 -0.0428
35227SOL     OW 7687   4.350   1.024   5.716  0.5102 -0.1542  0.6656
35227SOL    HW1 7688   4.438   1.032   5.678  0.3503  0.5845  0.4505
35227SOL    HW2 7689   4.310   0.952   5.667 -0.3713  1.9683 -1.9683
35228SOL     OW 7690  10.869   9.476   4.336 -0.1143 -1.0958  0.1528
35228SOL    HW1 7691  10.797   9.450   4.279  0.5936 -0.8649 -0.8718
35228SOL    HW2 7692  10.944   9.423   4.307  0.3495 -0.7343  0.6529
35229SOL     OW 7693   6.932   0.973   7.329 -0.1802 -0.5556  0.0096
35229SOL    HW1 7694   6.945   0.906   7.261  0.2939  0.3077 -0.7732
35229SOL    HW2 7695   6.982   1.048   7.297 -1.2973  0.4184  0.5254
35230SOL     OW 7696   8.332   0.229   2.370 -0.2960  0.0163 -0.4566
35230SOL    HW1 7697   8.370   0.175   2.301 -1.3902  0.3561 -1.3642
35230SOL    HW2 7698   8.291   0.167   2.430 -0.9529 -0.2192 -1.1268
35231SOL     OW 7699  11.091   1.699   2.924  0.0264  0.8179  0.4215
35231SOL    HW1 7700  11.166   1.689   2.982 -0.6585  1.9513  1.5621
35231SOL    HW2 7701  11.060   1.788   2.939 -1.9772  0.1677  0.5591
35232SOL     OW 7702  10.617   2.551   0.335 -0.3194 -0.3386  0.0756
35232SOL    HW1 7703  10.663   2.613   0.392  0.4367 -0.1944 -0.6790
35232SOL    HW2 7704  10.627   2.587   0.247 -2.9365  0.3479 -0.0186
35233SOL     OW 7705   6.099   9.952   1.109 -0.2146  0.0776  0.2207
35233SOL    HW1 7706   6.012   9.972   1.145  0.4400  2.1639  0.7871
35233SOL    HW2 7707   6.159   9.967   1.182  0.7220 -0.2400 -0.4619
35234SOL     OW 7708   9.510   8.671   1.925  0.0133  0.0440  0.5796
35234SOL    HW1 7709   9.590   8.698   1.970 -0.7245  0.5100  1.6654
35234SOL    HW2 7710   9.440   8.719   1.970 -0.9030 -0.5183 -0.2035
35235SOL     OW 7711   9.249   2.464   3.339 -0.1522  0.4651  0.0706
35235SOL    HW1 7712   9.183   2.520   3.380 -0.0432  1.1787 -0.7102
35235SOL    HW2 7713   9.330   2.514   3.347  0.1253 -0.0051  0.2146
35236SOL     OW 7714   8.762   2.198   9.818  0.5228 -0.0392 -0.5669
35236SOL    HW1 7715   8.721   2.141   9.752 -3.9259  1.2510  0.7593
35236SOL    HW2 7716   8.748   2.287   9.786 -0.5433  0.5617  1.3931
35237SOL     OW 7717  10.250   7.220   7.816  0.0754  0.6087 -0.0707
35237SOL    HW1 7718  10.275   7.137   7.777 -2.4339  0.0244 -0.6392
35237SOL    HW2 7719  10.276   7.213   7.908 -0.7039 -1.0985  0.0442
35238SOL     OW 7720   3.360   0.099   7.511  0.1662  0.4026  0.0349
35238SOL    HW1 7721   3.337   0.079   7.602 -1.9983  0.3787 -0.4566
35238SOL    HW2 7722   3.310   0.178   7.490 -1.1535 -0.8210 -1.7608
35239SOL     OW 7723   9.660   0.823   0.575  0.3855  0.3462 -0.1955
35239SOL    HW1 7724   9.734   0.802   0.517  0.9129 -0.3918  0.7227
35239SOL    HW2 7725   9.595   0.756   0.554  0.2233  0.6084 -0.5459
35240SOL     OW 7726   0.727  10.808   5.426 -0.5046 -0.4103  0.0316
35240SOL    HW1 7727   0.752  10.747   5.494  0.3003 -1.6863 -1.3549
35240SOL    HW2 7728   0.780  10.784   5.350 -0.0646  2.0897 -0.5475
35241SOL     OW 7729   4.397   3.268  10.135 -0.1155 -0.6833 -0.1315
35241SOL    HW1 7730   4.444   3.351  10.127  0.9812 -1.1725  0.9211
35241SOL    HW2 7731   4.437   3.225  10.210 -1.7433 -1.4779  0.3227
35242SOL     OW 7732   5.793   5.354   7.610  0.1611 -0.0476 -0.1374
35242SOL    HW1 7733   5.852   5.280   7.622  1.4314  0.5461 -2.1572
35242SOL    HW2 7734   5.811   5.412   7.684  1.5919 -0.2371 -0.3160
35243SOL     OW 7735   9.104   8.993   3.448 -0.3417  0.3541  0.2985
35243SOL    HW1 7736   9.188   8.983   3.492  0.0626 -0.1038 -0.5645
35243SOL    HW2 7737   9.117   9.066   3.387  0.1565 -1.1063 -1.4528
35244SOL     OW 7738   5.278   2.399   3.237 -0.2226  0.4415 -0.3861
35244SOL    HW1 7739   5.280   2.458   3.313  0.2196 -0.7168  0.5387
35244SOL    HW2 7740   5.261   2.313   3.274 -3.6233  0.3042 -1.9692
35245SOL     OW 7741  10.036   8.453   3.563  0.0345 -0.4180  0.3400
35245SOL    HW1 7742  10.048   8.426   3.655 -0.4434  1.1346  0.8796
35245SOL    HW2 7743   9.987   8.534   3.568  2.4328  1.2551 -1.1477
35246SOL     OW 7744   9.411   4.652   2.969  0.4776 -0.0881  0.4185
35246SOL    HW1 7745   9.363   4.617   2.894  0.3648  0.4542  0.2278
35246SOL    HW2 7746   9.352   4.717   3.008  1.4895  1.5052 -0.5587
35247SOL     OW 7747   9.738  10.455   2.814 -0.3987  0.0333  0.7455
35247SOL    HW1 7748   9.752  10.387   2.880  0.4813 -0.1791  0.3422
35247SOL    HW2 7749   9.684  10.412   2.747 -0.3321 -0.0875  0.7694
35248SOL     OW 7750   8.796   7.636   3.338 -0.3995  0.3210 -0.0043
35248SOL    HW1 7751   8.818   7.545   3.354 -0.8729  0.4748  1.7376
35248SOL    HW2 7752   8.763   7.668   3.422  0.5962  2.3544 -0.3286
35249SOL     OW 7753   6.136   7.951   1.632  0.2433 -0.2594  0.7025
35249SOL    HW1 7754   6.126   7.951   1.727 -2.5056 -1.8065  0.5310
35249SOL    HW2 7755   6.064   8.006   1.600 -0.2584 -1.5525 -0.5124
35250SOL     OW 7756   8.188   1.225   8.832  0.2022 -1.1050 -0.3389
35250SOL    HW1 7757   8.150   1.163   8.770  0.2234 -1.3645 -0.0942
35250SOL    HW2 7758   8.195   1.176   8.914  0.8216 -0.9774 -0.3105
35251SOL     OW 7759   0.712  10.622   1.993  0.4291  0.3909  0.3102
35251SOL    HW1 7760   0.673  10.621   1.905  0.0242  0.7999  0.4844
35251SOL    HW2 7761   0.638  10.628   2.053  0.7018  0.0365  0.6904
35252SOL     OW 7762   9.187  11.064   5.429  0.1757  0.0817 -0.0048
35252SOL    HW1 7763   9.276  11.092   5.411  0.1439  2.0776  2.3686
35252SOL    HW2 7764   9.137  11.092   5.353  1.4297 -0.4266 -1.0527
35253SOL     OW 7765   7.706   7.637   2.316 -0.3255 -0.3621  0.3227
35253SOL    HW1 7766   7.729   7.719   2.359 -2.9585  0.5254  0.2261
35253SOL    HW2 7767   7.790   7.599   2.290  1.0817  1.2489  2.2233
35254SOL     OW 7768   5.933   0.601   6.207 -0.0197 -0.2617 -0.4611
35254SOL    HW1 7769   5.996   0.659   6.166  0.0453  2.9602  3.5676
35254SOL    HW2 7770   5.848   0.643   6.194 -0.3581 -0.7298  0.1318
35255SOL     OW 7771   5.123   6.620   8.443  0.3311 -0.0310  0.0996
35255SOL    HW1 7772   5.126   6.525   8.442  0.2529 -0.0523 -1.7784
35255SOL    HW2 7773   5.030   6.642   8.435  0.5030  0.1457 -1.8946
35256SOL     OW 7774   3.492   6.636   5.086  0.4745 -0.3836 -0.6649
35256SOL    HW1 7775   3.573   6.672   5.120  1.4098 -0.3569 -2.8084
35256SOL    HW2 7776   3.449   6.598   5.163  1.6850  1.0894  0.8003
35257SOL     OW 7777   2.910   1.603  11.056  0.3472 -0.7744 -0.1839
35257SOL    HW1 7778   2.932   1.513  11.079  1.3741 -1.4077 -3.1738
35257SOL    HW2 7779   2.994   1.648  11.051 -0.2272  0.8007  2.6022
35258SOL     OW 7780   2.513  10.199   9.785  0.3765  0.2664  0.5309
35258SOL    HW1 7781   2.449  10.230   9.849 -0.3132  1.6856 -0.7914
35258SOL    HW2 7782   2.463  10.186   9.705  1.6375  0.9212 -0.4013
35259SOL     OW 7783  10.571   4.621  10.731 -0.0558 -0.2302 -0.0926
35259SOL    HW1 7784  10.601   4.668  10.654 -0.2071 -0.2362 -0.1562
35259SOL    HW2 7785  10.538   4.690  10.790  1.6885 -0.0426  0.7268
35260SOL     OW 7786  10.782   9.848   8.050 -0.3319  0.4895 -0.5058
35260SOL    HW1 7787  10.855   9.834   7.989 -0.2622  0.9641 -0.5309
35260SOL    HW2 7788  10.713   9.887   7.997 -0.4872  0.3516 -0.4065
35261SOL     OW 7789   7.513   1.004   8.566 -0.3523 -0.2408 -0.0372
35261SOL    HW1 7790   7.506   1.078   8.627 -3.6574 -0.3210 -0.1338
35261SOL    HW2 7791   7.480   0.930   8.616  0.3538 -1.0999 -0.8239
35262SOL     OW 7792   5.813   1.826  10.284  0.0061 -0.0220  0.4261
35262SOL    HW1 7793   5.720   1.802  10.282  0.2693 -1.1612  1.0015
35262SOL    HW2 7794   5.815   1.908  10.332 -0.8837  1.0498 -1.2485
35263SOL     OW 7795   6.253   9.644  10.837  0.0322 -0.6008  0.0819
35263SOL    HW1 7796   6.344   9.664  10.815  0.1393 -0.5271  0.5815
35263SOL    HW2 7797   6.246   9.549  10.827  0.3364 -0.6879  0.6503
35264SOL     OW 7798   6.622   2.554  10.877 -0.3794 -0.8992  0.2307
35264SOL    HW1 7799   6.713   2.545  10.907 -0.1868 -0.5098 -0.2247
35264SOL    HW2 7800   6.593   2.464  10.861 -0.1387 -1.0388  0.5672
35265SOL     OW 7801   9.530   9.724   1.533  0.0931 -0.2594 -0.1932
35265SOL    HW1 7802   9.440   9.707   1.561 -0.0044 -0.8333 -0.8226
35265SOL    HW2 7803   9.527   9.719   1.438  0.4290  1.6176 -0.3379
35266SOL     OW 7804   6.533   8.841   2.851 -0.1012 -0.0762  0.2340
35266SOL    HW1 7805   6.493   8.849   2.937 -0.9936  3.3332 -0.3582
35266SOL    HW2 7806   6.486   8.904   2.797  0.8653 -1.6255 -2.6231
35267SOL     OW 7807   3.678   9.164   7.651 -0.0983 -0.4577  0.0209
35267SOL    HW1 7808   3.750   9.223   7.674 -0.6896  0.9181 -1.4829
35267SOL    HW2 7809   3.605   9.191   7.707 -0.0851 -0.4234  0.0207
35268SOL     OW 7810   6.357   7.038   3.599 -0.1274  0.2048  0.6722
35268SOL    HW1 7811   6.390   7.128   3.606 -2.7188  1.1896  1.4948
35268SOL    HW2 7812   6.303   7.026   3.677 -1.9731 -1.0872 -0.6906
35269SOL     OW 7813   8.817   8.425   9.506  0.2434  0.1352  0.3323
35269SOL    HW1 7814   8.770   8.406   9.425  2.0486  3.5076 -1.7405
35269SOL    HW2 7815   8.895   8.370   9.502  1.3446  1.7270 -1.3623
35270SOL     OW 7816   9.724  11.074   0.263 -0.4687 -0.1434 -0.8994
35270SOL    HW1 7817   9.687  11.058   0.176  0.6009  1.8010 -1.7551
35270SOL    HW2 7818   9.678  11.151   0.295 -0.7673 -0.7705  0.2418
35271SOL     OW 7819   7.626   8.898   1.523  0.0911  0.0674  0.0523
35271SOL    HW1 7820   7.639   8.815   1.477  0.6602 -0.7046  1.5162
35271SOL    HW2 7821   7.564   8.877   1.593  0.1693  0.9013  0.3817
35272SOL     OW 7822   8.842   6.911   3.976 -0.4248  0.5565  0.0334
35272SOL    HW1 7823   8.859   6.986   4.033 -0.2794  0.5133  0.0482
35272SOL    HW2 7824   8.800   6.846   4.031 -3.2197  1.6944 -0.6059
35273SOL     OW 7825   1.789  10.059   2.514  0.1339  0.2090 -0.0433
35273SOL    HW1 7826   1.818  10.049   2.605  0.4735  0.3621 -0.1329
35273SOL    HW2 7827   1.694  10.068   2.520  0.1483  0.1484  0.2921
35274SOL     OW 7828   5.938   5.760  10.311 -0.2762 -0.4083 -0.5772
35274SOL    HW1 7829   5.912   5.837  10.261 -2.2230 -0.6351  0.0081
35274SOL    HW2 7830   5.915   5.781  10.401 -0.0236 -1.3336 -0.2806
35275SOL     OW 7831  10.013   8.227   1.933 -0.1673 -0.0044 -0.3483
35275SOL    HW1 7832   9.995   8.140   1.895  0.1097 -0.4879  0.5893
35275SOL    HW2 7833   9.939   8.242   1.992 -0.8864  0.9904 -1.4518
35276SOL     OW 7834   8.570  10.703   2.422  0.4340 -0.8708  1.0439
35276SOL    HW1 7835   8.578  10.666   2.334 -1.1366  0.4529  0.2892
35276SOL    HW2 7836   8.637  10.772   2.425  0.0205 -0.4439  0.6126
35277SOL     OW 7837   1.863  10.944   9.291 -0.2562 -0.1223 -0.8709
35277SOL    HW1 7838   1.840  11.019   9.346  0.0902  0.4839 -1.5298
35277SOL    HW2 7839   1.799  10.947   9.220  0.8426  0.6465 -1.8752
35278SOL     OW 7840   9.175   8.827   0.836  0.2267  0.4887 -0.4966
35278SOL    HW1 7841   9.233   8.753   0.816 -0.1769  0.2454 -0.7823
35278SOL    HW2 7842   9.149   8.813   0.927 -1.0860 -0.5888 -1.0128
35279SOL     OW 7843   9.955   6.660   7.955 -0.1943  0.3100  0.4707
35279SOL    HW1 7844  10.045   6.692   7.947 -0.3926  0.4323 -2.1230
35279SOL    HW2 7845   9.923   6.696   8.038  1.7885  1.1268  0.9296
35280SOL     OW 7846   8.191  10.340   1.971  0.2045 -0.7159 -0.4365
35280SOL    HW1 7847   8.157  10.375   1.888  0.5600  0.9804  0.0859
35280SOL    HW2 7848   8.257  10.404   1.998 -0.3715 -0.8905  1.4927
35281SOL     OW 7849   2.481   9.462   7.498  0.5252  0.5138 -0.0350
35281SOL    HW1 7850   2.494   9.533   7.435  1.3452 -0.3995 -0.9305
35281SOL    HW2 7851   2.545   9.396   7.473  2.2007  0.8766  2.9555
35282SOL     OW 7852   8.133   7.113   0.479 -0.1080  0.5568 -0.6149
35282SOL    HW1 7853   8.199   7.153   0.422  0.8651  1.9973  1.3705
35282SOL    HW2 7854   8.158   7.020   0.482  0.0655  0.5269 -2.1399
35283SOL     OW 7855   7.692   4.370   2.374  0.2094  0.3407  0.1289
35283SOL    HW1 7856   7.744   4.418   2.309 -2.4988  0.4186 -2.1667
35283SOL    HW2 7857   7.670   4.436   2.440 -2.0028  2.0387 -2.0900
35284SOL     OW 7858   6.765   6.672   7.326  0.3279  0.6005 -0.2035
35284SOL    HW1 7859   6.682   6.679   7.373  1.6582 -0.0092  2.4275
35284SOL    HW2 7860   6.829   6.715   7.383  2.0833 -0.2925 -1.3970
35285SOL     OW 7861   9.274  10.718  10.677 -0.1292 -0.4028  0.5311
35285SOL    HW1 7862   9.187  10.759  10.680 -0.1699 -0.3570 -0.8625
35285SOL    HW2 7863   9.262  10.638  10.626  0.2945 -1.3597  1.8733
35286SOL     OW 7864   1.603   3.683   1.420  0.3237 -0.0809  0.3640
35286SOL    HW1 7865   1.587   3.616   1.487  1.0678 -0.9557 -0.3101
35286SOL    HW2 7866   1.685   3.656   1.379  0.8129  1.4367  0.3003
35287SOL     OW 7867   7.229   0.148   5.119  0.3444 -0.0170 -0.1078
35287SOL    HW1 7868   7.159   0.102   5.165 -0.5792  0.8079 -0.6614
35287SOL    HW2 7869   7.305   0.090   5.128 -0.4728 -1.0696  0.2363
35288SOL     OW 7870   9.734   5.306   6.374 -0.3542  0.0740 -0.0266
35288SOL    HW1 7871   9.663   5.299   6.311  0.6062  1.0969 -1.2770
35288SOL    HW2 7872   9.761   5.398   6.370 -0.4481  0.2351  2.1033
35289SOL     OW 7873   1.555   7.152  10.511 -0.5097 -0.3335  0.6092
35289SOL    HW1 7874   1.547   7.065  10.471  0.7413 -1.1161  1.9885
35289SOL    HW2 7875   1.641   7.182  10.484 -1.2553  0.8686 -0.5344
35290SOL     OW 7876   1.182   6.606   4.952 -0.1635  0.6941 -0.4334
35290SOL    HW1 7877   1.239   6.596   4.876  1.4736 -0.4562  0.8864
35290SOL    HW2 7878   1.203   6.532   5.008 -0.3260  2.2460  1.7956
35291SOL     OW 7879   4.461   7.743   3.197 -1.1403  0.6087  0.0705
35291SOL    HW1 7880   4.516   7.750   3.274  0.6792 -1.6672 -0.9263
35291SOL    HW2 7881   4.498   7.806   3.135 -1.0273  0.6293  0.1586
35292SOL     OW 7882   9.456   2.889   3.399  0.0120  0.4704  0.4318
35292SOL    HW1 7883   9.535   2.892   3.454 -0.9509 -0.0161  1.8876
35292SOL    HW2 7884   9.398   2.954   3.436  0.3690  2.1428 -1.7642
35293SOL     OW 7885   0.436   2.477   9.762  0.0464  0.0711  0.3241
35293SOL    HW1 7886   0.408   2.390   9.791  1.0079 -0.7559 -1.0878
35293SOL    HW2 7887   0.396   2.487   9.675 -0.5688  1.3322  0.7235
35294SOL     OW 7888   2.182   1.715   9.105  0.3626 -0.3933  0.1110
35294SOL    HW1 7889   2.188   1.638   9.161 -1.9196 -1.6185 -1.1972
35294SOL    HW2 7890   2.104   1.762   9.136 -1.1531 -1.2759 -2.1277
35295SOL     OW 7891   5.563  10.156   3.469 -0.2783  0.3426  0.1643
35295SOL    HW1 7892   5.635  10.219   3.469 -0.8278  1.0595  1.8360
35295SOL    HW2 7893   5.501  10.190   3.404 -1.0283  2.1960  1.7204
35296SOL     OW 7894   1.707   1.767   6.122  0.0257  0.6348  0.6958
35296SOL    HW1 7895   1.717   1.683   6.167 -0.8465 -0.7778 -1.5828
35296SOL    HW2 7896   1.669   1.745   6.037  1.1297  3.1933 -0.5885
35297SOL     OW 7897   8.487   2.607   5.365  0.2095  0.4303  0.4975
35297SOL    HW1 7898   8.569   2.559   5.376  0.2434  0.3947  0.0994
35297SOL    HW2 7899   8.424   2.560   5.420  0.4476  0.4337  0.7702
35298SOL     OW 7900   9.627   7.026   8.726 -0.4240 -0.2629  0.4197
35298SOL    HW1 7901   9.557   7.079   8.689 -0.2086  0.0374  0.4370
35298SOL    HW2 7902   9.690   7.090   8.760  0.8173 -0.4702 -1.3475
35299SOL     OW 7903  10.435   8.726   3.633 -0.0230 -0.7280 -0.2311
35299SOL    HW1 7904  10.428   8.799   3.572  0.2254  0.4183  1.0756
35299SOL    HW2 7905  10.524   8.693   3.622 -0.0948 -0.7739 -0.7237
35300SOL     OW 7906  10.853   9.600   1.632  0.2844 -0.1152  0.1741
35300SOL    HW1 7907  10.759   9.616   1.627 -0.3018 -2.7043  1.3407
35300SOL    HW2 7908  10.875   9.613   1.724 -0.0667 -4.1733  1.0380
35301SOL     OW 7909   1.324   5.337   7.373  0.0138 -0.0022 -0.0887
35301SOL    HW1 7910   1.277   5.304   7.296 -0.7903 -0.8145  0.7118
35301SOL    HW2 7911   1.415   5.310   7.359  0.0233  0.5030 -1.0837
35302SOL     OW 7912   9.751   7.217   8.178 -0.0419 -0.1541  0.2195
35302SOL    HW1 7913   9.846   7.219   8.189 -0.0817 -0.1077  0.5534
35302SOL    HW2 7914   9.717   7.272   8.248 -0.3067 -0.0156 -0.0146
35303SOL     OW 7915   9.501   1.909   9.272  0.0216  0.2909 -0.2878
35303SOL    HW1 7916   9.572   1.910   9.208  0.3277 -1.1388  0.0136
35303SOL    HW2 7917   9.438   1.847   9.237  0.2353 -0.5824  0.8305
35304SOL     OW 7918   7.723   5.010   7.219 -0.2836 -0.4334  0.6296
35304SOL    HW1 7919   7.783   5.037   7.150 -0.8051 -0.2942  0.2265
35304SOL    HW2 7920   7.779   4.992   7.294  0.2104  0.2366  0.4238
35305SOL     OW 7921   6.423   3.412   2.975  0.4002 -0.2891 -0.4933
35305SOL    HW1 7922   6.498   3.378   2.927  2.1316  0.7966  1.3081
35305SOL    HW2 7923   6.440   3.389   3.066 -0.8765  1.0013  0.1215
35306SOL     OW 7924   7.128   3.445   2.585 -0.0698  0.0514  0.2258
35306SOL    HW1 7925   7.147   3.460   2.492 -0.1664 -2.0974 -0.2097
35306SOL    HW2 7926   7.035   3.466   2.594  0.0274  0.6275 -0.0680
35307SOL     OW 7927   4.638   1.259   5.140  0.4133 -0.1908  0.1720
35307SOL    HW1 7928   4.607   1.335   5.091 -0.5854  1.7158  3.4158
35307SOL    HW2 7929   4.728   1.279   5.162  0.3122 -0.1762  0.5859
35308SOL     OW 7930   0.928   9.134   1.899 -0.1196 -0.0112 -0.6948
35308SOL    HW1 7931   0.959   9.153   1.987  0.5792 -1.6670 -0.5425
35308SOL    HW2 7932   0.988   9.181   1.841  1.5096 -1.5416 -0.3369
35309SOL     OW 7933   4.742   2.039   6.247 -0.8901  0.1414  0.3734
35309SOL    HW1 7934   4.784   1.956   6.225 -0.0119  0.5262  0.5790
35309SOL    HW2 7935   4.720   2.031   6.340 -1.4482 -0.1269  0.2249
35310SOL     OW 7936   9.000   7.221   8.347 -0.1371 -0.0696  0.0740
35310SOL    HW1 7937   8.956   7.262   8.421  0.8631 -0.5535  0.9757
35310SOL    HW2 7938   9.081   7.271   8.336 -0.7426  0.6436 -1.3799
35311SOL     OW 7939   0.682   2.633   4.390  0.0959 -0.2283  0.0966
35311SOL    HW1 7940   0.604   2.618   4.443 -0.2222  0.7111 -0.0942
35311SOL    HW2 7941   0.663   2.713   4.341  1.8011  0.9455  1.2523
35312SOL     OW 7942   5.349  10.856   7.919  0.1024 -0.7260 -0.1437
35312SOL    HW1 7943   5.290  10.798   7.870  0.0515 -1.9800  1.3116
35312SOL    HW2 7944   5.428  10.803   7.931 -0.7737 -1.4884  3.2134
35313SOL     OW 7945   6.939   9.522   9.666  1.0589  0.0950  0.2914
35313SOL    HW1 7946   6.953   9.430   9.688  1.6675  0.5093  1.7849
35313SOL    HW2 7947   7.009   9.569   9.711 -0.4828  1.4940  1.4000
35314SOL     OW 7948   3.672   9.794   6.574  0.8734 -0.1629 -0.2784
35314SOL    HW1 7949   3.636   9.707   6.559 -0.6078  0.4748 -0.6636
35314SOL    HW2 7950   3.684   9.800   6.669 -0.5630 -0.2417 -0.0674
35315SOL     OW 7951   1.389   9.203   2.339 -0.4081  0.5660  0.4109
35315SOL    HW1 7952   1.329   9.248   2.279  0.9760  1.4467 -0.3782
35315SOL    HW2 7953   1.425   9.131   2.288  0.6991  1.2563  0.1703
35316SOL     OW 7954   5.905  10.913   2.885 -0.0420 -0.3457 -0.6110
35316SOL    HW1 7955   5.835  10.912   2.951  1.3003 -1.5228  0.8754
35316SOL    HW2 7956   5.866  10.870   2.809 -1.8231  1.5594 -0.8836
35317SOL     OW 7957   0.157   3.569   0.131  0.0545 -0.1710  0.3257
35317SOL    HW1 7958   0.172   3.611   0.216 -0.3128 -0.2530  0.4352
35317SOL    HW2 7959   0.238   3.521   0.113  1.4649  2.4309 -0.9084
35318SOL     OW 7960   6.134   6.839   4.637  0.1383  0.0184 -0.4013
35318SOL    HW1 7961   6.161   6.769   4.577  0.8564  0.1296 -0.2097
35318SOL    HW2 7962   6.106   6.793   4.716  1.5441 -0.0234  0.0966
35319SOL     OW 7963  10.197   6.897  11.087 -0.3930  0.7095 -0.2539
35319SOL    HW1 7964  10.221   6.804  11.087  1.7344  1.2051  0.0434
35319SOL    HW2 7965  10.146   6.909  11.007  2.1241 -0.1023 -2.1182
35320SOL     OW 7966   8.552   0.540   7.033 -0.2410  0.4649 -0.1942
35320SOL    HW1 7967   8.605   0.538   7.113 -0.6611  0.6478  0.0921
35320SOL    HW2 7968   8.528   0.448   7.019  0.4042  0.3381 -0.4999
35321SOL     OW 7969   9.370   2.908  10.397 -0.2899  0.2492  0.1420
35321SOL    HW1 7970   9.433   2.902  10.469 -0.4717 -2.3273  0.1519
35321SOL    HW2 7971   9.412   2.967  10.334  0.4307  1.5522  1.7615
35322SOL     OW 7972   5.621   1.131   2.905 -0.3173  0.0896  0.5792
35322SOL    HW1 7973   5.648   1.100   2.818 -2.1792  0.0984 -0.0576
35322SOL    HW2 7974   5.700   1.126   2.958  0.7357 -0.4843 -0.9624
35323SOL     OW 7975   4.785   6.353   4.895 -0.1656 -0.1283 -0.1300
35323SOL    HW1 7976   4.796   6.390   4.983 -0.6884 -0.0839 -0.0813
35323SOL    HW2 7977   4.855   6.393   4.844 -0.8570  1.1393 -0.1392
35324SOL     OW 7978   1.058   9.774   9.352  0.1316  0.4052 -0.6812
35324SOL    HW1 7979   0.985   9.715   9.332  0.4741 -0.5154  0.6633
35324SOL    HW2 7980   1.017   9.849   9.396  0.0498 -0.4409  0.7230
35325SOL     OW 7981   8.859   3.778   4.923  0.1710  0.6163 -0.5162
35325SOL    HW1 7982   8.766   3.777   4.903  0.2700  0.2257 -0.9768
35325SOL    HW2 7983   8.875   3.696   4.969 -0.0579  1.5204  1.2458
35326SOL     OW 7984  10.009   8.417   6.257  0.4348 -0.3569 -0.1882
35326SOL    HW1 7985   9.993   8.491   6.198 -0.7267 -0.5869 -0.1835
35326SOL    HW2 7986   9.990   8.339   6.204  0.5858 -0.6061  0.1206
35327SOL     OW 7987   5.269   3.691   0.434  0.2949  0.0229  0.0573
35327SOL    HW1 7988   5.358   3.684   0.467 -0.6945 -1.5008  2.7206
35327SOL    HW2 7989   5.240   3.778   0.463  1.0463  0.7980 -1.3864
35328SOL     OW 7990   8.840   8.982   4.776  0.7531 -0.1624  0.0661
35328SOL    HW1 7991   8.874   9.060   4.733  1.9490 -0.6054  0.1627
35328SOL    HW2 7992   8.795   8.933   4.707 -0.3427  0.7687  0.0852
35329SOL     OW 7993   5.626   1.471   3.401 -0.1035  0.1485  0.0805
35329SOL    HW1 7994   5.706   1.420   3.401 -0.3688 -0.3041  1.0330
35329SOL    HW2 7995   5.606   1.484   3.494 -2.5694 -2.0820 -0.0214
35330SOL     OW 7996   2.211   1.937  10.819 -0.6904  0.2805 -0.5743
35330SOL    HW1 7997   2.235   1.899  10.735  1.3863  0.6023 -0.1955
35330SOL    HW2 7998   2.122   1.970  10.807  0.4291  2.6895 -3.5130
35331SOL     OW 7999  10.845   7.556   1.038 -0.0771 -0.4808  0.1873
35331SOL    HW1 8000  10.922   7.612   1.030 -2.9164  3.9626  0.1879
35331SOL    HW2 8001  10.842   7.532   1.130  0.3149  1.0162  0.6184
35332SOL     OW 8002   6.180   7.234   1.297 -0.1660  0.2524 -0.5866
35332SOL    HW1 8003   6.134   7.150   1.297  0.1907  0.0515 -1.1737
35332SOL    HW2 8004   6.208   7.246   1.206  1.3295  0.1687 -0.1622
35333SOL     OW 8005  10.690   3.480   3.045  0.0394  0.4656  0.1979
35333SOL    HW1 8006  10.626   3.409   3.033 -0.9470  1.3294  0.2290
35333SOL    HW2 8007  10.739   3.483   2.963 -0.1627 -0.0046  0.0554
35334SOL     OW 8008   8.985   0.453   7.864  0.3952  0.1790  0.1891
35334SOL    HW1 8009   8.908   0.461   7.809 -0.0676 -0.2368  0.7611
35334SOL    HW2 8010   9.047   0.517   7.829 -0.1039  0.3238 -0.4428
35335SOL     OW 8011   9.910   6.503   9.079 -0.2910  0.0622  0.0166
35335SOL    HW1 8012   9.879   6.593   9.084  0.2220  0.1877  1.1251
35335SOL    HW2 8013   9.991   6.508   9.028 -0.9335  0.0250 -1.0519
35336SOL     OW 8014   5.940   2.520   2.899  0.2131 -0.6493  0.0393
35336SOL    HW1 8015   5.895   2.604   2.912 -0.7422 -1.3116  1.2996
35336SOL    HW2 8016   5.874   2.454   2.921  1.0869 -1.7303 -0.4667
35337SOL     OW 8017   8.310   9.992   2.584  0.5802  0.3615  0.2492
35337SOL    HW1 8018   8.279  10.080   2.566  1.9476  0.7928 -0.0671
35337SOL    HW2 8019   8.403  10.002   2.603  0.4847 -0.8393  1.5624
35338SOL     OW 8020   9.711   3.925   1.726  0.2787  0.3405  0.4720
35338SOL    HW1 8021   9.646   3.977   1.678 -0.3089 -0.0869  0.7822
35338SOL    HW2 8022   9.790   3.929   1.672 -0.3665 -0.1288 -0.5428
35339SOL     OW 8023   2.155   7.866   9.841 -0.5893  0.1393 -0.4858
35339SOL    HW1 8024   2.215   7.856   9.767  0.6287  0.5537  0.4035
35339SOL    HW2 8025   2.110   7.949   9.825 -1.1752 -0.3180 -1.3113
35340SOL     OW 8026   9.677   1.481   6.951  0.4056 -0.4935 -0.0939
35340SOL    HW1 8027   9.719   1.561   6.985  2.9405 -1.3218 -1.0234
35340SOL    HW2 8028   9.711   1.473   6.861 -0.2685 -2.3031 -0.2239
35341SOL     OW 8029   9.207   9.127   2.097  0.3700 -0.0964  0.2506
35341SOL    HW1 8030   9.266   9.146   2.170 -0.9095  1.3436  0.9546
35341SOL    HW2 8031   9.160   9.048   2.124  1.5067 -0.8935 -0.0468
35342SOL     OW 8032   1.293  10.407   0.992  0.5865 -0.1467  0.4096
35342SOL    HW1 8033   1.305  10.448   1.078  2.2054 -0.5307  0.3962
35342SOL    HW2 8034   1.380  10.409   0.953 -0.2226  0.4641 -1.4346
35343SOL     OW 8035   7.767   2.168  11.032 -1.1270 -0.0840  0.1072
35343SOL    HW1 8036   7.737   2.139  10.945 -0.1414 -0.9680  0.0428
35343SOL    HW2 8037   7.738   2.099  11.092  0.2799 -0.7029  0.1141
35344SOL     OW 8038   0.953   9.426   3.185 -0.2205  0.2520  0.5080
35344SOL    HW1 8039   1.025   9.465   3.136 -1.9265  0.3636 -2.1005
35344SOL    HW2 8040   0.878   9.433   3.127 -1.8578 -1.9033  2.1925
35345SOL     OW 8041   8.485   9.119   1.309  0.3428 -0.3161  0.0495
35345SOL    HW1 8042   8.446   9.053   1.252  0.9395 -0.9407  0.3589
35345SOL    HW2 8043   8.429   9.119   1.387 -0.5711  0.6546 -0.5737
35346SOL     OW 8044   5.643   9.600   6.920 -0.5548 -0.0832  0.2122
35346SOL    HW1 8045   5.738   9.608   6.932 -0.3003 -0.5368 -1.3130
35346SOL    HW2 8046   5.632   9.529   6.857 -1.8007  1.2823 -1.1958
35347SOL     OW 8047   4.507   2.243   4.973  0.2063  0.4021 -0.0342
35347SOL    HW1 8048   4.569   2.169   4.976  0.0801  0.2953 -0.0716
35347SOL    HW2 8049   4.561   2.318   4.950  0.3484  0.3342  0.0732
35348SOL     OW 8050   6.883   3.495   3.407 -0.0343 -0.3983 -0.4752
35348SOL    HW1 8051   6.895   3.407   3.443 -0.1196 -0.7502 -1.2884
35348SOL    HW2 8052   6.794   3.496   3.372  0.1710 -0.1850 -1.0059
35349SOL     OW 8053   5.166   3.507  11.100 -0.3018 -0.4723  0.3807
35349SOL    HW1 8054   5.133   3.546  11.019 -0.1126  0.9831  0.9682
35349SOL    HW2 8055   5.160   3.577  11.164 -0.5963 -1.6446  1.6805
35350SOL     OW 8056   9.644   0.550   2.125  0.8079  0.2216 -0.5825
35350SOL    HW1 8057   9.569   0.589   2.080  1.1537  0.2478 -1.1345
35350SOL    HW2 8058   9.688   0.498   2.059  0.3622 -1.1290  0.1370
35351SOL     OW 8059   2.080   0.473   4.286  0.2081 -0.3524 -0.3959
35351SOL    HW1 8060   2.009   0.497   4.345  0.7421 -0.5560  0.3466
35351SOL    HW2 8061   2.158   0.470   4.342  0.9213  0.5041 -1.3049
35352SOL     OW 8062   9.183   7.753   3.694 -0.1368  0.2816 -0.3163
35352SOL    HW1 8063   9.271   7.762   3.657 -0.5804 -1.8398 -2.0358
35352SOL    HW2 8064   9.156   7.843   3.711  1.6677  1.1030 -1.4524
35353SOL     OW 8065   1.809   1.898   4.818  0.4234 -0.1116 -0.5890
35353SOL    HW1 8066   1.751   1.822   4.807  0.0781  0.0469  0.1049
35353SOL    HW2 8067   1.829   1.925   4.729 -0.8700  0.0578 -0.8515
35354SOL     OW 8068   6.717   8.718   8.428 -0.5878 -0.6198  0.0898
35354SOL    HW1 8069   6.641   8.675   8.389 -1.8066  1.3320  0.1632
35354SOL    HW2 8070   6.720   8.804   8.386  0.7454 -0.1207  1.1210
35355SOL     OW 8071   7.895   8.839   4.405 -0.3319 -0.3943  0.3839
35355SOL    HW1 8072   7.939   8.757   4.382  0.9219  0.0909  0.9781
35355SOL    HW2 8073   7.938   8.868   4.485 -0.3762  1.1348 -0.1209
35356SOL     OW 8074   5.274   2.052   7.648  0.1589 -0.5758 -0.1165
35356SOL    HW1 8075   5.363   2.086   7.653  0.1549 -0.5387 -0.2808
35356SOL    HW2 8076   5.258   2.040   7.554 -0.2090 -0.0385 -0.1270
35357SOL     OW 8077   8.924   5.562   3.060  0.2883 -0.1548  0.5716
35357SOL    HW1 8078   8.837   5.520   3.057 -0.3321  1.0665  0.9302
35357SOL    HW2 8079   8.906   5.652   3.085  1.7572 -0.1207  1.6290
35358SOL     OW 8080   2.238  10.353   2.952 -0.5213  0.2023 -0.6541
35358SOL    HW1 8081   2.316  10.323   2.906 -0.9710 -0.9846 -0.6622
35358SOL    HW2 8082   2.222  10.440   2.916  0.0726 -0.0450 -1.5637
35359SOL     OW 8083  10.477   8.667   6.095 -0.1743  0.0780 -0.3451
35359SOL    HW1 8084  10.442   8.601   6.036 -0.5475  1.3199 -1.5561
35359SOL    HW2 8085  10.568   8.678   6.067 -0.0224 -0.1374  0.0575
35360SOL     OW 8086   1.182  10.145   1.506 -0.2676  0.5628  0.1139
35360SOL    HW1 8087   1.095  10.128   1.540  0.3878 -1.4328  0.9492
35360SOL    HW2 8088   1.168  10.173   1.416 -1.7863  1.2141  0.5258
35361SOL     OW 8089   8.504   5.800  10.609 -0.8708  0.1802  0.6091
35361SOL    HW1 8090   8.434   5.790  10.545  1.2444  0.0026 -1.8618
35361SOL    HW2 8091   8.584   5.776  10.561  1.3549  3.6959  2.1522
35362SOL     OW 8092   8.350   4.459   2.358  0.0667 -0.7841  0.2944
35362SOL    HW1 8093   8.262   4.442   2.394  0.3181 -0.1153  1.2493
35362SOL    HW2 8094   8.342   4.436   2.265 -0.8122 -1.8081  0.6006
35363SOL     OW 8095   1.461   0.124   3.620  0.1668  0.4618  0.0012
35363SOL    HW1 8096   1.415   0.200   3.584  1.1254  1.8553  1.5902
35363SOL    HW2 8097   1.554   0.144   3.608  0.4758  0.2688  1.7717
35364SOL     OW 8098   1.530   3.300   4.557  0.1511 -0.1770  0.7829
35364SOL    HW1 8099   1.459   3.266   4.611  0.8034 -2.1306  0.4915
35364SOL    HW2 8100   1.609   3.261   4.593  0.8950  0.5816  0.0355
35365SOL     OW 8101   8.263   5.887   3.035 -0.6883 -0.0104  0.3717
35365SOL    HW1 8102   8.255   5.922   2.946 -2.9345  0.1030  0.5469
35365SOL    HW2 8103   8.214   5.949   3.090  1.9592  0.7840  2.0025
35366SOL     OW 8104   2.537   0.069   0.902 -0.5258  0.5839 -0.2981
35366SOL    HW1 8105   2.591   0.029   0.970 -1.1345 -2.1039 -1.2298
35366SOL    HW2 8106   2.595   0.075   0.826 -1.0573 -0.9278 -0.8682
35367SOL     OW 8107   7.400   3.371   0.933 -0.3788  0.1088 -0.3916
35367SOL    HW1 8108   7.461   3.306   0.970 -0.1341  0.2254 -0.5841
35367SOL    HW2 8109   7.335   3.385   1.002  0.2290  0.5387  0.1006
35368SOL     OW 8110   2.350  10.257   6.853 -0.0049  0.6682  0.3455
35368SOL    HW1 8111   2.395  10.193   6.797  2.2355 -0.2109  2.8833
35368SOL    HW2 8112   2.387  10.341   6.827  1.4490  0.2067  0.8205
35369SOL     OW 8113   0.439   1.709  10.451  0.3891  0.1312 -0.6821
35369SOL    HW1 8114   0.446   1.791  10.499 -1.3888 -0.0729  0.0076
35369SOL    HW2 8115   0.400   1.733  10.367 -1.0036 -0.0716 -0.1279
35370SOL     OW 8116   6.859   6.662   6.982 -0.0654  0.7762  0.0413
35370SOL    HW1 8117   6.783   6.614   7.015 -0.1477  1.1327  0.3705
35370SOL    HW2 8118   6.866   6.636   6.890  0.7511 -1.0005  0.5501
35371SOL     OW 8119   9.938   7.992   1.810  0.1629 -0.2832 -0.8323
35371SOL    HW1 8120   9.872   7.927   1.785 -2.3542  2.2503 -1.3458
35371SOL    HW2 8121  10.020   7.959   1.772 -1.0883 -2.7916 -1.5861
35372SOL     OW 8122  10.752   6.317   5.931  0.4855  0.3132  0.0815
35372SOL    HW1 8123  10.763   6.334   6.025 -1.1436  0.4061  0.2868
35372SOL    HW2 8124  10.682   6.252   5.926 -0.1885  1.0869 -1.0933
35373SOL     OW 8125   3.936   7.184   9.016  0.5915  0.5488 -0.3296
35373SOL    HW1 8126   3.934   7.246   8.943 -0.6477 -1.3216 -1.9835
35373SOL    HW2 8127   4.012   7.129   8.999  0.1503 -0.0574 -0.3724
35374SOL     OW 8128  11.011   8.529   8.496  0.4168  0.1332  0.1703
35374SOL    HW1 8129  11.064   8.454   8.522  0.0041  0.6324  2.6922
35374SOL    HW2 8130  10.950   8.494   8.431 -0.3034 -1.9528  1.8670
35375SOL     OW 8131   9.393   6.242   9.402 -0.0005 -0.5346  0.0529
35375SOL    HW1 8132   9.448   6.310   9.362 -2.2500  0.3860 -1.6479
35375SOL    HW2 8133   9.412   6.163   9.351  0.1816 -0.3716 -0.1373
35376SOL     OW 8134   5.841  10.319   9.682 -0.4205 -0.2589 -0.6439
35376SOL    HW1 8135   5.921  10.284   9.645  0.5969  0.6370  0.5832
35376SOL    HW2 8136   5.814  10.388   9.622  1.8799  2.0113  0.7240
35377SOL     OW 8137   0.581  10.630   3.868  0.3467  0.4070 -0.0462
35377SOL    HW1 8138   0.607  10.717   3.900 -2.3545  0.6691  1.6968
35377SOL    HW2 8139   0.546  10.647   3.781 -0.6139  1.1786  0.4713
35378SOL     OW 8140  10.270   8.062   1.560 -0.2106  0.0622  0.4464
35378SOL    HW1 8141  10.195   8.098   1.513 -0.7768 -1.0270  0.5020
35378SOL    HW2 8142  10.345   8.078   1.502 -0.8416 -0.9339 -0.6739
35379SOL     OW 8143   9.782   9.931   9.483 -0.3580  0.1096  0.2720
35379SOL    HW1 8144   9.853   9.918   9.420 -0.0533  0.2042  0.5946
35379SOL    HW2 8145   9.724   9.995   9.441 -1.1212 -1.1630 -0.7065
35380SOL     OW 8146   4.120   0.683   4.110  0.4260  0.2305 -0.1112
35380SOL    HW1 8147   4.068   0.657   4.034 -1.2603 -1.1555  1.3997
35380SOL    HW2 8148   4.057   0.682   4.183  2.2968 -0.1561  1.5968
35381SOL     OW 8149   6.815   6.485  10.374  0.8840 -0.5352 -0.2090
35381SOL    HW1 8150   6.826   6.576  10.401 -0.7170  0.1790 -1.7944
35381SOL    HW2 8151   6.874   6.475  10.300  0.6267 -0.5916 -0.4091
35382SOL     OW 8152   4.250   0.461   3.052 -0.0392 -0.1005  0.3657
35382SOL    HW1 8153   4.156   0.456   3.065  0.2215 -0.5495  2.3354
35382SOL    HW2 8154   4.272   0.553   3.067 -0.0575 -0.1572  0.7411
35383SOL     OW 8155  10.240   6.252   2.816  0.1122 -0.4841 -0.3640
35383SOL    HW1 8156  10.156   6.275   2.855 -0.4432 -2.0806 -0.5319
35383SOL    HW2 8157  10.297   6.327   2.833 -0.5966 -0.4380  2.0322
35384SOL     OW 8158   8.571   9.063   8.301 -0.9532 -0.5318  0.1620
35384SOL    HW1 8159   8.503   9.129   8.284  0.0123  0.9353  1.5760
35384SOL    HW2 8160   8.627   9.065   8.223 -0.3914  1.0954  0.5569
35385SOL     OW 8161   5.322   9.910   2.172  0.4566 -0.0234  0.1906
35385SOL    HW1 8162   5.281   9.825   2.157 -0.0173  0.1074  0.6868
35385SOL    HW2 8163   5.248   9.971   2.181  0.7463  1.1352 -3.6202
35386SOL     OW 8164   5.753   1.070   7.202  0.3612 -0.4804 -0.1686
35386SOL    HW1 8165   5.688   1.015   7.244  0.0966  0.5939  0.8899
35386SOL    HW2 8166   5.722   1.079   7.111  0.9545 -2.8468 -0.6572
35387SOL     OW 8167   9.455   8.417   6.441  0.0509  0.5527  0.1314
35387SOL    HW1 8168   9.394   8.472   6.392  1.1722 -0.5304 -2.7441
35387SOL    HW2 8169   9.447   8.330   6.400  1.9060 -0.1442  1.1161
35388SOL     OW 8170   0.132   7.340   9.946 -0.2837  0.1707 -0.1888
35388SOL    HW1 8171   0.059   7.321   9.887 -1.1776  1.2224  0.5601
35388SOL    HW2 8172   0.179   7.412   9.905  0.3790 -0.5351 -0.6930
35389SOL     OW 8173   5.881   4.141   4.599  0.0557 -0.1716  0.1357
35389SOL    HW1 8174   5.856   4.188   4.679 -0.4152 -0.6088  0.2510
35389SOL    HW2 8175   5.797   4.115   4.560  0.2846 -0.0427 -0.4550
35390SOL     OW 8176   4.530   9.753   9.659  0.3535  0.2698  0.3884
35390SOL    HW1 8177   4.520   9.665   9.696 -1.8025  0.8284  1.2818
35390SOL    HW2 8178   4.611   9.786   9.697  0.2425 -0.6681  1.5003
35391SOL     OW 8179   8.717  10.123   7.923 -0.0641 -0.4974  0.4415
35391SOL    HW1 8180   8.693  10.115   8.015  1.2384 -0.3011  0.8192
35391SOL    HW2 8181   8.726  10.032   7.893  0.1843 -0.5619  0.7030
35392SOL     OW 8182  10.108   6.367   2.427 -0.0924  0.0087 -0.1852
35392SOL    HW1 8183  10.181   6.356   2.366  1.5513  1.3489  1.3989
35392SOL    HW2 8184  10.134   6.442   2.481 -1.5529 -0.9605  1.9878
35393SOL     OW 8185  11.082   7.047   3.015 -0.4406 -0.2707 -0.6890
35393SOL    HW1 8186  11.111   6.959   3.039 -1.7793 -0.5322  0.0926
35393SOL    HW2 8187  11.084   7.096   3.098 -0.5491  0.1764 -0.9455
35394SOL     OW 8188   6.251   9.664   4.539  0.2717 -0.2017 -0.3572
35394SOL    HW1 8189   6.167   9.626   4.514  0.0400  0.8137 -1.2074
35394SOL    HW2 8190   6.314   9.593   4.527 -0.3862 -0.8108 -0.2442
35395SOL     OW 8191  11.001   6.361   3.635  0.2703  0.2406  0.2634
35395SOL    HW1 8192  10.979   6.441   3.587 -1.2044 -1.1146 -1.4585
35395SOL    HW2 8193  11.097   6.364   3.645  0.4581  1.2503 -1.5487
35396SOL     OW 8194  10.486  10.429   7.963 -0.2661 -0.1373 -0.1456
35396SOL    HW1 8195  10.509  10.348   8.010 -0.2005 -1.7241 -2.7125
35396SOL    HW2 8196  10.408  10.461   8.009 -0.1948 -1.5558  1.0531
35397SOL     OW 8197   3.323   5.953   7.684 -0.2368  0.2027  0.5025
35397SOL    HW1 8198   3.407   5.918   7.712 -1.5909 -2.3404  1.7996
35397SOL    HW2 8199   3.296   6.010   7.756 -0.0210  0.2953  0.5097
35398SOL     OW 8200   7.358   7.396   4.359 -0.8213  0.2269 -0.2729
35398SOL    HW1 8201   7.263   7.389   4.369 -0.8920  0.3443 -0.8624
35398SOL    HW2 8202   7.387   7.440   4.439 -1.3874  1.1337 -0.5499
35399SOL     OW 8203   1.221   2.646   5.356 -0.1761  0.5645  0.1831
35399SOL    HW1 8204   1.149   2.700   5.325  2.2846  2.6281 -2.5620
35399SOL    HW2 8205   1.209   2.561   5.312 -0.7278  1.0251 -0.5687
35400SOL     OW 8206   9.652   5.980   6.405  0.3455 -0.4053  0.3519
35400SOL    HW1 8207   9.643   5.959   6.312  0.8274  0.1252  0.1861
35400SOL    HW2 8208   9.707   5.910   6.440 -1.5347 -1.7955  0.6900
35401SOL     OW 8209   1.219   9.844   3.305  0.2511 -0.0494 -0.1516
35401SOL    HW1 8210   1.240   9.842   3.398 -1.1009 -0.6964  0.1703
35401SOL    HW2 8211   1.124   9.857   3.302  0.0691 -1.3846 -1.4080
35402SOL     OW 8212   3.357   6.817   1.607  0.0173 -0.1031 -0.2949
35402SOL    HW1 8213   3.416   6.746   1.635 -0.6740 -0.4011  0.4508
35402SOL    HW2 8214   3.403   6.897   1.630  0.5394 -0.3132 -0.5850
35403SOL     OW 8215   2.311   6.395   1.254 -0.1099 -0.3971 -0.2166
35403SOL    HW1 8216   2.327   6.391   1.348 -0.0223  0.9705 -0.1490
35403SOL    HW2 8217   2.351   6.478   1.227 -0.0115 -0.8426 -1.4856
35404SOL     OW 8218   6.304   1.251   0.353  0.6567 -0.2479  0.0150
35404SOL    HW1 8219   6.280   1.189   0.421 -1.4804 -0.0973 -0.5399
35404SOL    HW2 8220   6.348   1.197   0.286  0.2862 -0.8787  0.2725
35405SOL     OW 8221   6.606   9.328   3.482 -0.2458  0.9647 -0.6349
35405SOL    HW1 8222   6.597   9.298   3.392  0.6496  2.0664 -1.1192
35405SOL    HW2 8223   6.698   9.311   3.504 -0.6894 -0.2344  0.4451
35406SOL     OW 8224   1.551  10.918   6.421 -0.4720  0.4746 -0.3677
35406SOL    HW1 8225   1.607  10.891   6.494 -0.7741  2.1224  0.5428
35406SOL    HW2 8226   1.518  10.837   6.384 -0.0417 -0.4234  1.1285
35407SOL     OW 8227   9.296   8.054  10.137 -0.1642  0.3128  0.0600
35407SOL    HW1 8228   9.320   7.974  10.185 -0.5237 -0.5135 -1.1031
35407SOL    HW2 8229   9.368   8.115  10.156  0.8276 -0.7548 -0.1283
35408SOL     OW 8230   6.190   6.562   9.872  0.2265 -0.4034 -0.3648
35408SOL    HW1 8231   6.212   6.591   9.784 -0.6355  2.0034  0.1318
35408SOL    HW2 8232   6.120   6.621   9.900  0.2332 -1.3211  1.8006
35409SOL     OW 8233   2.366   0.638   1.034  0.3908  0.4818  0.2812
35409SOL    HW1 8234   2.409   0.633   0.948 -0.3343  1.2283 -0.1365
35409SOL    HW2 8235   2.297   0.704   1.022 -1.7831 -1.6174  0.5381
35410SOL     OW 8236   2.209   8.016   1.182 -0.2510  0.5710 -0.3626
35410SOL    HW1 8237   2.256   7.934   1.195 -1.0611  0.3504  1.5010
35410SOL    HW2 8238   2.268   8.083   1.216 -1.0815  0.3241  1.6992
35411SOL     OW 8239   3.039   3.907   8.704 -0.0452  0.6508 -0.1280
35411SOL    HW1 8240   2.976   3.961   8.751  0.6119 -0.4918  2.2328
35411SOL    HW2 8241   2.989   3.866   8.634 -1.6061  0.8180  0.8572
35412SOL     OW 8242   1.085   5.825   0.105  0.0383 -0.1934 -1.0952
35412SOL    HW1 8243   1.082   5.843   0.012 -2.2542 -2.5909 -1.6122
35412SOL    HW2 8244   1.153   5.759   0.115  1.0569  0.8555 -0.8367
35413SOL     OW 8245   9.247   2.214   3.411  0.0985  0.3062  0.2269
35413SOL    HW1 8246   9.221   2.303   3.388  0.3859  0.6814  1.2929
35413SOL    HW2 8247   9.234   2.164   3.331 -1.7836  0.9255  0.0861
35414SOL     OW 8248   6.990   7.948   7.241 -0.0062  0.2440 -0.2843
35414SOL    HW1 8249   6.997   8.014   7.172 -1.0064  0.2954 -0.3456
35414SOL    HW2 8250   7.068   7.894   7.230  1.9760  2.6207  1.0917
35415SOL     OW 8251   7.774   1.820   1.703 -0.2567  0.2527  0.1353
35415SOL    HW1 8252   7.685   1.840   1.675 -0.8298 -0.6851  1.2212
35415SOL    HW2 8253   7.820   1.796   1.622 -1.8323 -2.2310 -0.1407
35416SOL     OW 8254  10.127   4.894   9.348  0.3488 -0.0132 -0.3368
35416SOL    HW1 8255  10.116   4.944   9.428  1.6179  2.2889 -1.5054
35416SOL    HW2 8256  10.048   4.911   9.297  0.7603  0.8344 -0.7148
35417SOL     OW 8257   1.937   2.207   7.489  0.5439  0.1729  0.0145
35417SOL    HW1 8258   1.907   2.201   7.398 -1.2704  2.2174  0.3728
35417SOL    HW2 8259   1.922   2.119   7.524  1.0606 -0.5978 -1.5805
35418SOL     OW 8260   6.275  10.670   0.585 -0.0633 -0.0552 -0.7114
35418SOL    HW1 8261   6.192  10.642   0.545 -0.4666 -0.1083  0.1369
35418SOL    HW2 8262   6.341  10.654   0.518 -0.5540 -1.2687 -0.9319
35419SOL     OW 8263   3.298   2.624  10.956  0.5629 -0.7055 -0.1446
35419SOL    HW1 8264   3.265   2.700  10.908 -0.5044 -2.1525 -1.8103
35419SOL    HW2 8265   3.352   2.662  11.026 -1.3645  1.6222  0.2225
35420SOL     OW 8266  10.456   8.112   9.129  0.0721  0.0834 -0.1939
35420SOL    HW1 8267  10.507   8.031   9.135  0.1857  0.1426 -0.3662
35420SOL    HW2 8268  10.472   8.157   9.212 -1.6682 -1.0588  0.8053
35421SOL     OW 8269   1.929   4.195   4.353  0.0077  0.7599  0.4698
35421SOL    HW1 8270   1.925   4.180   4.258  0.2358  2.5666  0.1475
35421SOL    HW2 8271   1.838   4.204   4.380 -0.0244  0.9145  0.3086
35422SOL     OW 8272   8.690  10.488   3.224  0.4685 -0.0935 -0.2687
35422SOL    HW1 8273   8.747  10.414   3.245  1.0578  0.1853 -0.8859
35422SOL    HW2 8274   8.732  10.563   3.267 -1.7457 -0.5484  3.0799
35423SOL     OW 8275   6.937   0.873   9.511  0.1058 -0.2408 -0.0875
35423SOL    HW1 8276   7.009   0.923   9.551 -0.5562  1.1975 -0.6544
35423SOL    HW2 8277   6.870   0.938   9.493 -0.2658 -1.1237 -2.0738
35424SOL     OW 8278   1.320   1.481   4.332 -0.0418  0.4033 -0.1338
35424SOL    HW1 8279   1.288   1.541   4.400  1.5463  1.7560 -0.5184
35424SOL    HW2 8280   1.398   1.523   4.297 -0.6168 -0.3866 -2.6099
35425SOL     OW 8281   9.161   7.581   5.083  0.1735  0.5147 -0.2128
35425SOL    HW1 8282   9.107   7.531   5.023  1.1897  0.8583 -1.4649
35425SOL    HW2 8283   9.157   7.532   5.166 -1.8787  0.4638 -0.3102
35426SOL     OW 8284   2.337   1.104   8.769  0.0136  0.2566  0.2896
35426SOL    HW1 8285   2.373   1.045   8.834  1.0396  0.7878  0.2316
35426SOL    HW2 8286   2.410   1.163   8.747  0.1655 -0.7803 -2.3676
35427SOL     OW 8287   7.383   7.539   3.523 -0.0148  0.1903  0.2302
35427SOL    HW1 8288   7.357   7.491   3.602  1.7109  0.6528  1.1322
35427SOL    HW2 8289   7.399   7.628   3.554 -0.1605  0.5913 -0.8328
35428SOL     OW 8290   5.263   7.781   2.961  0.4718  0.2222  0.3006
35428SOL    HW1 8291   5.192   7.717   2.960 -0.3236  1.0602  1.2311
35428SOL    HW2 8292   5.308   7.767   2.877  1.4660 -2.7397  1.1955
35429SOL     OW 8293   6.947   6.666   8.917  0.3840 -0.5989 -0.6918
35429SOL    HW1 8294   6.914   6.608   8.848  2.1429 -1.1615 -1.1213
35429SOL    HW2 8295   6.943   6.613   8.996 -1.7146  0.0742 -0.2744
35430SOL     OW 8296   4.405   5.059   6.465 -0.1242 -0.6731  0.2075
35430SOL    HW1 8297   4.468   5.126   6.491 -1.5363  0.2487  1.3796
35430SOL    HW2 8298   4.393   5.073   6.371 -0.1279  0.4859  0.3700
35431SOL     OW 8299   6.230   1.277   3.371  0.9432  0.3943 -0.3251
35431SOL    HW1 8300   6.203   1.229   3.450  1.7184  0.9274  0.2777
35431SOL    HW2 8301   6.319   1.247   3.353  1.3513  1.4132 -0.0815
35432SOL     OW 8302   8.918   8.707   6.937 -0.0520  0.0419  0.0945
35432SOL    HW1 8303   8.971   8.666   7.006  2.0160  2.6085  0.1678
35432SOL    HW2 8304   8.925   8.645   6.863 -0.9459 -1.9408  1.5670
35433SOL     OW 8305   6.694   2.287   0.483 -0.5888  0.1203  0.1866
35433SOL    HW1 8306   6.669   2.245   0.400  2.2407 -1.5437  0.0107
35433SOL    HW2 8307   6.745   2.363   0.457  2.9248 -2.0101  0.0760
35434SOL     OW 8308   9.742   8.769   0.511 -0.1628 -0.0364 -0.3078
35434SOL    HW1 8309   9.714   8.812   0.592  0.3283  0.6760 -0.5047
35434SOL    HW2 8310   9.675   8.792   0.447 -1.5015 -2.0364  0.2794
35435SOL     OW 8311   0.239   9.569  10.073  0.3978 -0.2921 -0.2964
35435SOL    HW1 8312   0.170   9.515  10.111  0.0780 -0.6677 -1.3669
35435SOL    HW2 8313   0.195   9.650  10.047  0.5042 -0.2527 -0.3531
35436SOL     OW 8314   9.006  10.646   7.402 -0.7735  0.8477  0.4255
35436SOL    HW1 8315   8.990  10.741   7.407  0.1599  1.2757 -2.6289
35436SOL    HW2 8316   9.036  10.632   7.313  1.6992 -1.9903  1.5325
35437SOL     OW 8317   1.018   5.250   7.627 -0.3391  0.1651  0.1357
35437SOL    HW1 8318   1.011   5.165   7.670  0.7890  0.2517  0.5251
35437SOL    HW2 8319   1.111   5.272   7.633 -0.5762  1.3107 -0.1774
35438SOL     OW 8320  10.293   0.215   1.041 -0.5365 -0.0155 -0.3925
35438SOL    HW1 8321  10.309   0.288   1.102 -0.3945 -1.6060  1.5685
35438SOL    HW2 8322  10.219   0.244   0.988 -0.6828  1.4234  0.5360
35439SOL     OW 8323  10.361   8.956  10.543  0.4313 -0.3624  0.1813
35439SOL    HW1 8324  10.392   8.967  10.632 -0.8414  1.7743  0.4124
35439SOL    HW2 8325  10.280   8.905  10.552 -0.5481  1.1770  0.4635
35440SOL     OW 8326   7.815   8.006   6.017  0.1022  0.1821 -0.3760
35440SOL    HW1 8327   7.843   7.915   6.029  0.2398  0.5139  2.7734
35440SOL    HW2 8328   7.884   8.058   6.059 -0.2339  1.7377 -1.6656
35441SOL     OW 8329   7.398   3.483   7.979  0.9398 -0.6038 -0.9505
35441SOL    HW1 8330   7.442   3.523   7.904  0.2941  0.3259 -0.8586
35441SOL    HW2 8331   7.426   3.537   8.053 -0.5073  0.1546 -0.9229
35442SOL     OW 8332   1.814  10.988   0.607 -0.0516 -0.1455 -0.2883
35442SOL    HW1 8333   1.730  11.033   0.596  0.1965  0.5507  0.5137
35442SOL    HW2 8334   1.854  11.031   0.683  1.2048 -0.1837 -0.8988
35443SOL     OW 8335   3.182   9.053   8.985 -0.0066 -0.0345 -0.1566
35443SOL    HW1 8336   3.273   9.067   8.960 -0.1340 -0.3911 -0.8652
35443SOL    HW2 8337   3.187   8.988   9.055  0.3140  0.3082  0.1390
35444SOL     OW 8338   5.999   9.098   0.685 -0.0456  0.2213 -0.0229
35444SOL    HW1 8339   6.015   9.127   0.595 -1.0319  1.2304  0.1040
35444SOL    HW2 8340   6.008   9.003   0.681 -1.4062  0.1036 -1.4975
35445SOL     OW 8341   9.697   0.641  10.483 -0.6292  0.8573 -0.5405
35445SOL    HW1 8342   9.641   0.710  10.518  1.3603  1.7017  1.2205
35445SOL    HW2 8343   9.656   0.560  10.513 -1.8649  1.3524 -0.8404
35446SOL     OW 8344   0.855   9.082   8.869  0.4417  0.5447  0.0595
35446SOL    HW1 8345   0.801   9.135   8.811  0.5582  1.2594  0.5896
35446SOL    HW2 8346   0.830   8.992   8.850  1.0183  0.7158 -1.6297
35447SOL     OW 8347   8.436   7.751   2.337  0.5781  0.4536 -0.0160
35447SOL    HW1 8348   8.355   7.784   2.297  0.6321  0.5760 -0.0265
35447SOL    HW2 8349   8.407   7.698   2.411  0.4698  0.0942 -0.3123
35448SOL     OW 8350   9.902   0.557   7.165  0.0935  0.3469  0.1265
35448SOL    HW1 8351   9.864   0.638   7.197  1.2649  1.4513 -1.1405
35448SOL    HW2 8352   9.989   0.553   7.207 -0.1649 -0.5688  0.6211
35449SOL     OW 8353   7.149   5.323   0.802 -0.0800  0.1071  0.1055
35449SOL    HW1 8354   7.091   5.399   0.805  1.6760  1.6971 -2.3365
35449SOL    HW2 8355   7.232   5.357   0.768  1.3034 -2.6352  0.4153
35450SOL     OW 8356   0.250   7.416   0.249  0.4112  0.0075  0.1376
35450SOL    HW1 8357   0.319   7.390   0.188  0.1676 -2.4929  0.8072
35450SOL    HW2 8358   0.278   7.382   0.334 -1.9569 -1.8547  0.2731
35451SOL     OW 8359  10.648   4.157   2.473 -0.2378 -0.1300 -0.1673
35451SOL    HW1 8360  10.612   4.225   2.531 -1.0990 -1.4141  0.8456
35451SOL    HW2 8361  10.593   4.081   2.489  2.0089 -1.7441  0.3362
35452SOL     OW 8362   3.522   9.057   0.558  0.1885  0.1389  0.1131
35452SOL    HW1 8363   3.565   9.124   0.611 -1.0298  0.9904  0.0804
35452SOL    HW2 8364   3.431   9.086   0.553 -0.1245 -0.9376 -0.8537
35453SOL     OW 8365   1.436   1.025   1.853  0.7312 -0.1925 -0.3141
35453SOL    HW1 8366   1.481   1.078   1.918  0.5613  0.6462 -0.8700
35453SOL    HW2 8367   1.496   0.952   1.836  1.1220  0.0026  0.2017
35454SOL     OW 8368   7.410   6.925   2.381 -0.0007  0.5233  0.6666
35454SOL    HW1 8369   7.349   6.911   2.453 -1.4114 -2.6237 -0.9064
35454SOL    HW2 8370   7.474   6.854   2.390  1.9455  2.1853  0.7505
35455SOL     OW 8371   7.785   5.049   2.447 -0.0183 -0.6830 -0.4126
35455SOL    HW1 8372   7.777   5.132   2.402 -1.4584 -1.4441 -1.6402
35455SOL    HW2 8373   7.737   5.060   2.529 -0.2374 -0.3224 -0.5923
35456SOL     OW 8374   9.937   6.559   5.949 -0.4934 -0.1501  0.0780
35456SOL    HW1 8375   9.934   6.649   5.981  0.0767 -0.2943  0.5666
35456SOL    HW2 8376   9.950   6.506   6.028  0.0473 -0.5886 -0.2973
35457SOL     OW 8377   8.808   2.294   1.714 -0.2691  0.3283  0.2247
35457SOL    HW1 8378   8.760   2.322   1.636  1.2513  1.0525 -0.4903
35457SOL    HW2 8379   8.763   2.214   1.742 -3.2901  2.1140  0.9526
35458SOL     OW 8380   5.707   7.538   4.411  0.0004  0.1420  0.3201
35458SOL    HW1 8381   5.684   7.585   4.331  1.8264 -0.0397 -0.3401
35458SOL    HW2 8382   5.640   7.470   4.418 -0.4024  0.3911 -0.8345
35459SOL     OW 8383   6.784   3.934  10.916  0.0136 -0.0068  0.7284
35459SOL    HW1 8384   6.734   3.859  10.883 -1.9145  1.3753  0.3021
35459SOL    HW2 8385   6.875   3.914  10.893 -0.3239 -2.4749  1.1961
35460SOL     OW 8386   5.617   9.589   5.683  0.0892 -0.0218  0.0548
35460SOL    HW1 8387   5.671   9.511   5.698 -1.5666 -1.6139 -1.7851
35460SOL    HW2 8388   5.662   9.659   5.731  4.2916 -1.0067 -1.9307
35461SOL     OW 8389   1.178   7.783   2.278  0.0788 -0.1572 -0.1188
35461SOL    HW1 8390   1.265   7.744   2.283  0.3495  0.2287 -1.5809
35461SOL    HW2 8391   1.183   7.860   2.335  1.0426  0.4923 -1.0604
35462SOL     OW 8392   2.846   6.904   4.688  0.3171  0.2267  0.5756
35462SOL    HW1 8393   2.923   6.912   4.632  0.1431  0.3647  0.3570
35462SOL    HW2 8394   2.774   6.889   4.628  0.2124 -0.1754  0.7981
35463SOL     OW 8395   0.321   3.040   2.738  0.3064  0.0454  0.1028
35463SOL    HW1 8396   0.359   3.078   2.817 -0.2587 -0.1826  0.4829
35463SOL    HW2 8397   0.239   3.088   2.725 -0.3908 -0.9979  0.5574
35464SOL     OW 8398   3.893   7.537   5.646 -0.3539 -0.8136 -0.2382
35464SOL    HW1 8399   3.881   7.623   5.606 -3.7156 -1.1455 -0.2430
35464SOL    HW2 8400   3.909   7.556   5.738  0.9328 -0.1784 -0.5704
35465SOL     OW 8401   8.909   9.856   1.550 -0.2435 -0.1315 -0.1678
35465SOL    HW1 8402   8.897   9.775   1.601 -0.2363 -0.1433 -0.1850
35465SOL    HW2 8403   8.977   9.834   1.487 -1.3916 -0.6374 -1.2686
35466SOL     OW 8404   1.916  10.685   2.985 -0.2647  0.0346  0.9762
35466SOL    HW1 8405   1.916  10.599   2.943 -1.5708  0.2843  0.4003
35466SOL    HW2 8406   1.824  10.702   3.004  0.0893  0.8810  1.9863
35467SOL     OW 8407   1.035   0.649   9.438 -0.3495 -0.3061 -0.1025
35467SOL    HW1 8408   0.975   0.620   9.369  0.4242  0.5622 -1.1742
35467SOL    HW2 8409   1.057   0.569   9.486 -0.2133 -1.0935 -1.4192
35468SOL     OW 8410   6.699   8.519   3.788 -0.0576 -0.3447 -0.3564
35468SOL    HW1 8411   6.685   8.521   3.693 -0.5202  0.5886 -0.2757
35468SOL    HW2 8412   6.632   8.577   3.824  0.9095  0.3158  0.4452
35469SOL     OW 8413   9.882   6.411   6.913 -0.3981 -0.1854  0.1109
35469SOL    HW1 8414   9.844   6.479   6.968 -1.1540 -1.0032  0.6402
35469SOL    HW2 8415   9.973   6.438   6.900 -0.3642  0.3330  1.2749
35470SOL     OW 8416  10.940   6.785   2.396  0.1390 -0.4001  0.4138
35470SOL    HW1 8417  10.888   6.776   2.476 -0.1079 -2.5853  0.0686
35470SOL    HW2 8418  10.950   6.879   2.385 -2.1063  0.0490  1.5541
35471SOL     OW 8419   9.753   9.668   2.698  0.2176  0.5327 -0.3596
35471SOL    HW1 8420   9.691   9.636   2.763 -0.0411  0.0742 -0.8205
35471SOL    HW2 8421   9.708   9.656   2.614  1.5649 -1.4890 -0.8913
35472SOL     OW 8422   8.566   8.455   2.314 -0.1801  0.2324  0.6445
35472SOL    HW1 8423   8.559   8.533   2.259  0.6828 -0.7916 -1.0222
35472SOL    HW2 8424   8.660   8.446   2.331 -0.2206 -0.6288  0.4899
35473SOL     OW 8425   6.823   4.650   2.967 -0.1848  0.2961  0.5458
35473SOL    HW1 8426   6.865   4.714   2.909 -0.5721  0.1924  0.1487
35473SOL    HW2 8427   6.892   4.624   3.028 -0.0335  1.1389  0.7531
35474SOL     OW 8428   1.905   0.692   7.905 -0.7104  0.0415  0.0874
35474SOL    HW1 8429   1.843   0.761   7.931 -0.9616  0.1637 -0.7970
35474SOL    HW2 8430   1.858   0.643   7.838  1.2580  2.1165 -3.0820
35475SOL     OW 8431   8.606   9.705  11.060 -0.5960  0.8640 -0.0927
35475SOL    HW1 8432   8.560   9.766  11.119  0.9553  2.0866 -0.0894
35475SOL    HW2 8433   8.651   9.762  10.998  1.5127 -0.2206  0.3544
35476SOL     OW 8434   0.370   4.892   6.505  0.1263  0.6790 -0.0564
35476SOL    HW1 8435   0.436   4.826   6.525 -1.1082 -0.9536 -1.1285
35476SOL    HW2 8436   0.402   4.935   6.426  0.6408  0.9765  0.3061
35477SOL     OW 8437  10.336   4.204   4.878  0.2446  0.0825  0.3268
35477SOL    HW1 8438  10.423   4.180   4.847  1.2341  1.5669  1.7791
35477SOL    HW2 8439  10.312   4.135   4.939  0.1567 -0.5899 -0.4479
35478SOL     OW 8440   8.591  10.264  10.538  0.3323 -0.0252 -0.0893
35478SOL    HW1 8441   8.597  10.254  10.633  1.5954 -2.2913 -0.3489
35478SOL    HW2 8442   8.631  10.349  10.520  1.4078 -0.2021  1.3119
35479SOL     OW 8443   7.675  11.031   9.961 -0.2158  0.3668 -0.0469
35479SOL    HW1 8444   7.704  10.973   9.890 -0.1583 -0.4601  0.6355
35479SOL    HW2 8445   7.581  11.042   9.945 -0.4186 -0.6709  0.3272
35480SOL     OW 8446   3.313   2.687   0.321  0.3914  0.4631 -0.5907
35480SOL    HW1 8447   3.377   2.622   0.352  0.5402  0.1377 -1.5448
35480SOL    HW2 8448   3.342   2.709   0.233 -1.9316 -1.1970 -1.8675
35481SOL     OW 8449   3.680   6.851   5.109 -0.1372  0.3597  0.3694
35481SOL    HW1 8450   3.617   6.847   5.036 -0.4088  0.4923  0.5951
35481SOL    HW2 8451   3.644   6.917   5.168  1.1866  1.8564 -0.4017
35482SOL     OW 8452   6.200   7.191  10.151  0.1140  0.2496 -0.6586
35482SOL    HW1 8453   6.247   7.139  10.086  1.6441  0.3085  0.3643
35482SOL    HW2 8454   6.251   7.181  10.232 -1.4560  0.5815  0.4214
35483SOL     OW 8455  10.350  10.610   2.332 -0.0064  0.3651  0.7601
35483SOL    HW1 8456  10.374  10.652   2.414 -0.8401  1.9097  0.2662
35483SOL    HW2 8457  10.261  10.578   2.346  0.2004 -0.2268  0.7567
35484SOL     OW 8458   4.045   7.078   2.383 -0.4769  0.0035  0.2748
35484SOL    HW1 8459   4.043   7.011   2.451 -1.6611 -0.5246 -0.2550
35484SOL    HW2 8460   3.972   7.056   2.325 -1.5988  2.3421  0.6656
35485SOL     OW 8461   0.068   8.975   0.563  0.3272  0.4206  0.4272
35485SOL    HW1 8462   0.044   8.894   0.607 -0.8288  0.8597  0.6312
35485SOL    HW2 8463  -0.013   9.007   0.524  1.2734  0.0697 -2.0380
35486SOL     OW 8464  10.288   3.638  10.987  0.0872 -0.2997 -0.0823
35486SOL    HW1 8465  10.233   3.692  11.044  0.9322  1.6504 -1.0060
35486SOL    HW2 8466  10.261   3.661  10.898  1.6481 -0.0507 -0.5251
35487SOL     OW 8467  10.040   3.763   2.517 -0.3744 -0.0322 -0.4298
35487SOL    HW1 8468   9.949   3.737   2.535  0.0979 -0.1830  2.0456
35487SOL    HW2 8469  10.033   3.856   2.493 -1.1974 -0.0937 -0.4764
35488SOL     OW 8470   6.468   8.227   4.250 -0.3801  0.5166 -0.5457
35488SOL    HW1 8471   6.517   8.309   4.249 -1.0127  0.9065 -1.8222
35488SOL    HW2 8472   6.499   8.179   4.174  0.1236 -0.5433  0.2977
35489SOL     OW 8473   8.101   6.203   4.820 -0.1530  0.4677  0.3697
35489SOL    HW1 8474   8.187   6.245   4.818  0.8462 -1.4803  0.0494
35489SOL    HW2 8475   8.042   6.269   4.783  1.4658  1.2582 -0.9706
35490SOL     OW 8476   5.502  10.626   7.076 -0.1639  0.4900  0.3816
35490SOL    HW1 8477   5.503  10.640   7.170  1.6241 -1.1766  0.6938
35490SOL    HW2 8478   5.513  10.713   7.038 -0.3049  1.1145  1.7302
35491SOL     OW 8479   0.009   6.890   1.365 -0.3766 -0.6401 -0.4144
35491SOL    HW1 8480   0.034   6.836   1.440 -1.5017 -0.9079 -0.2223
35491SOL    HW2 8481  -0.051   6.955   1.401  1.0882  0.9085 -0.5982
35492SOL     OW 8482   8.813   9.033   1.774  0.3875  0.3512 -0.4244
35492SOL    HW1 8483   8.797   9.088   1.697  1.3634  0.8633 -0.2882
35492SOL    HW2 8484   8.891   9.072   1.815  0.2302 -0.2646  0.4953
35493SOL     OW 8485   3.570   7.254   0.274  0.0644 -0.2585 -0.1340
35493SOL    HW1 8486   3.575   7.159   0.282  3.1373 -0.2098 -0.0090
35493SOL    HW2 8487   3.632   7.276   0.204 -1.4263  1.6104 -0.9730
35494SOL     OW 8488   8.326   3.870   3.583 -0.6550 -0.2974  0.2151
35494SOL    HW1 8489   8.281   3.823   3.654 -0.7637  1.8267  1.6378
35494SOL    HW2 8490   8.290   3.959   3.587  2.1492  0.9297  0.0520
35495SOL     OW 8491   1.566   2.408   9.587  0.3820 -0.4124 -0.0466
35495SOL    HW1 8492   1.642   2.387   9.532  1.3717  0.4421  0.9383
35495SOL    HW2 8493   1.573   2.502   9.601 -1.6284 -0.0822 -1.0097
35496SOL     OW 8494  10.062   7.581   5.000 -0.8051  0.7574 -0.1994
35496SOL    HW1 8495  10.155   7.601   5.004 -0.3504 -1.4028  1.6048
35496SOL    HW2 8496  10.041   7.580   4.906  0.9070  1.4475 -0.6158
35497SOL     OW 8497   9.014   0.341   4.243  0.7714  0.6192  0.2021
35497SOL    HW1 8498   9.006   0.270   4.179 -1.6981  0.2339  0.8097
35497SOL    HW2 8499   8.953   0.317   4.313 -0.9164  3.7009  0.0040
35498SOL     OW 8500   8.439   5.503   7.876  0.2071 -0.0346  0.1239
35498SOL    HW1 8501   8.455   5.424   7.824 -1.3515 -0.0611 -0.3645
35498SOL    HW2 8502   8.483   5.573   7.829 -0.7889 -0.1411 -0.9961
35499SOL     OW 8503   7.607   1.956   7.960 -0.2196  0.2936  0.0852
35499SOL    HW1 8504   7.603   1.893   8.032 -1.9370  2.6054  2.2136
35499SOL    HW2 8505   7.698   1.985   7.959  0.4810 -1.7712 -0.6132
35500SOL     OW 8506   8.300   9.811   8.389 -0.1331 -0.1861  0.1288
35500SOL    HW1 8507   8.287   9.880   8.325 -0.9313  1.3602  1.8639
35500SOL    HW2 8508   8.307   9.731   8.337 -0.2590  1.0372 -1.8813
35501SOL     OW 8509   7.077   0.292   8.169 -0.0756 -0.0784 -0.3953
35501SOL    HW1 8510   7.134   0.298   8.245  1.3766 -1.0743 -1.3726
35501SOL    HW2 8511   7.103   0.211   8.125 -0.6219  0.6560 -2.1514
35502SOL     OW 8512   2.726   6.284   1.649 -0.1415  0.2299 -0.2753
35502SOL    HW1 8513   2.697   6.358   1.703  2.2328 -0.4655  2.1628
35502SOL    HW2 8514   2.680   6.209   1.686  2.2951 -0.4190  1.6764
35503SOL     OW 8515   7.687   9.640   2.498  0.3599  0.2380 -0.0317
35503SOL    HW1 8516   7.739   9.561   2.484  1.5155  1.2087 -1.4729
35503SOL    HW2 8517   7.746   9.699   2.544 -0.8325 -0.0557  1.9750
35504SOL     OW 8518  10.970   8.125   4.849 -0.3182 -0.0226 -0.0803
35504SOL    HW1 8519  10.877   8.124   4.826 -0.6471  0.1157  1.1505
35504SOL    HW2 8520  10.971   8.121   4.945  0.9449  0.1391 -0.0662
35505SOL     OW 8521  10.028   9.083   0.982  0.3240 -0.1121  0.7795
35505SOL    HW1 8522  10.008   9.012   0.920  2.5319 -1.2267  1.2354
35505SOL    HW2 8523  10.033   9.162   0.928  0.9819 -0.8531 -0.2742
35506SOL     OW 8524   3.052   5.759   6.643 -0.2692  0.0100  0.2155
35506SOL    HW1 8525   2.989   5.692   6.670 -1.3353  0.3170 -1.3943
35506SOL    HW2 8526   3.130   5.739   6.694 -1.4662 -0.7134  1.8889
35507SOL     OW 8527   9.729  10.922   9.148 -0.1588  0.2615  0.5071
35507SOL    HW1 8528   9.702  10.865   9.077 -1.0112 -0.5199  1.4185
35507SOL    HW2 8529   9.709  11.010   9.118 -0.0122 -0.0161 -0.4188
35508SOL     OW 8530   7.741  10.856   0.409  0.2440 -0.1485  0.1385
35508SOL    HW1 8531   7.647  10.860   0.426  0.7144  1.4204  3.0911
35508SOL    HW2 8532   7.760  10.763   0.403 -1.4086 -0.5252  0.1935
35509SOL     OW 8533   7.874   2.403  11.067  0.5150 -0.2939  0.1914
35509SOL    HW1 8534   7.838   2.314  11.071  0.0037 -0.0652  0.9084
35509SOL    HW2 8535   7.967   2.390  11.048  0.3478 -0.9601 -0.2012
35510SOL     OW 8536   9.724   4.596   2.622  0.4089 -0.2789 -0.3376
35510SOL    HW1 8537   9.761   4.511   2.646 -1.3907 -1.4095 -1.3024
35510SOL    HW2 8538   9.775   4.625   2.547  1.6207 -0.0326  0.5491
35511SOL     OW 8539   6.379   2.000   5.378 -0.2057  0.1298  0.7703
35511SOL    HW1 8540   6.332   2.040   5.452  0.5095  0.8508  0.8502
35511SOL    HW2 8541   6.457   2.054   5.368 -0.6529  0.5015 -1.0112
35512SOL     OW 8542   9.057   5.033   7.779 -0.3912  0.1902  0.2895
35512SOL    HW1 8543   9.066   5.007   7.871  1.2582 -0.9827 -0.1559
35512SOL    HW2 8544   8.977   4.990   7.749  0.1923 -1.1816  0.6265
35513SOL     OW 8545   0.487   0.234   8.799 -0.1332  0.6512  0.6049
35513SOL    HW1 8546   0.485   0.327   8.775  1.0965  0.5434  0.0321
35513SOL    HW2 8547   0.442   0.190   8.727  2.3925  0.4665 -0.9718
35514SOL     OW 8548   1.856   7.673   6.773  0.0193 -0.4792  0.0203
35514SOL    HW1 8549   1.913   7.749   6.767 -0.7579  0.4589  2.9105
35514SOL    HW2 8550   1.914   7.598   6.760  1.2266  0.5129 -0.5511
35515SOL     OW 8551   7.803   9.831   1.774 -0.3580 -0.1296  0.1167
35515SOL    HW1 8552   7.803   9.925   1.756  1.6501  0.0894  0.9673
35515SOL    HW2 8553   7.828   9.824   1.866 -0.8792 -1.4936  0.1811
35516SOL     OW 8554   6.569  10.583   5.010 -0.1732 -0.0327 -0.2810
35516SOL    HW1 8555   6.529  10.605   5.094  0.2628  2.7934 -0.7395
35516SOL    HW2 8556   6.523  10.503   4.982 -0.3926 -0.9936  2.5361
35517SOL     OW 8557   5.582   7.936   7.620  0.0174 -0.0020  0.1748
35517SOL    HW1 8558   5.527   7.973   7.690  1.5297  0.8385  0.9793
35517SOL    HW2 8559   5.657   7.995   7.616  1.2272 -1.5263 -0.3592
35518SOL     OW 8560   8.037   2.449   6.356  0.0921  0.3850 -0.8120
35518SOL    HW1 8561   7.995   2.516   6.410  2.2056  0.3610  0.9705
35518SOL    HW2 8562   8.083   2.499   6.288 -0.2199  0.5759 -0.8905
35519SOL     OW 8563   5.733   0.599   4.123 -0.0811 -0.0388 -0.6505
35519SOL    HW1 8564   5.658   0.628   4.072  0.0835  0.7036 -0.4882
35519SOL    HW2 8565   5.763   0.520   4.080 -0.4452  0.1290 -1.2157
35520SOL     OW 8566   7.404   7.087   6.721  0.1401  0.4464 -0.0795
35520SOL    HW1 8567   7.418   7.160   6.661 -0.3190 -0.7935 -1.7544
35520SOL    HW2 8568   7.410   7.009   6.667 -0.2058 -0.7476  1.5134
35521SOL     OW 8569   7.193   1.221   2.568 -0.1177 -0.4338 -0.0958
35521SOL    HW1 8570   7.120   1.172   2.605  1.2968 -1.9806  0.7861
35521SOL    HW2 8571   7.192   1.198   2.475 -1.5594  0.6804 -0.3908
35522SOL     OW 8572  10.850   2.994  10.438 -0.2676  0.0321  0.0303
35522SOL    HW1 8573  10.925   3.002  10.379 -0.7658  0.1619 -0.6003
35522SOL    HW2 8574  10.885   3.012  10.525  0.2769  0.8576 -0.3497
35523SOL     OW 8575   4.487   5.909   7.913 -0.3431  0.0070 -0.0724
35523SOL    HW1 8576   4.567   5.858   7.898 -1.2636 -0.9899 -1.8493
35523SOL    HW2 8577   4.463   5.942   7.826 -2.8508 -1.2473  0.0553
35524SOL     OW 8578   3.755   1.165   6.590 -0.1295 -0.2021  0.3246
35524SOL    HW1 8579   3.803   1.211   6.659 -0.7126 -1.8778  1.9221
35524SOL    HW2 8580   3.669   1.207   6.589 -0.5513 -0.9870  1.5510
35525SOL     OW 8581   9.221   7.047   1.355 -0.4784 -0.3576 -0.2074
35525SOL    HW1 8582   9.179   7.049   1.441 -0.3292 -0.1156 -0.1401
35525SOL    HW2 8583   9.273   6.966   1.355 -0.5258 -0.3872 -0.0927
35526SOL     OW 8584   9.928   6.058   6.262  0.2013 -0.2603 -0.1490
35526SOL    HW1 8585   9.895   6.132   6.313  0.0765  0.7838 -1.6724
35526SOL    HW2 8586  10.010   6.035   6.304  1.7060  2.6211 -1.2378
35527SOL     OW 8587   4.386   1.435   3.750 -0.0441  0.4378 -0.0114
35527SOL    HW1 8588   4.322   1.380   3.796  0.7705 -1.0508 -0.5876
35527SOL    HW2 8589   4.471   1.396   3.772  0.7953  2.7749  1.2886
35528SOL     OW 8590   4.644   7.419   7.977 -0.6631 -0.0311 -0.2026
35528SOL    HW1 8591   4.566   7.366   7.992 -1.0668  0.2599 -1.2179
35528SOL    HW2 8592   4.633   7.495   8.035 -0.4538 -0.6654  0.6813
35529SOL     OW 8593   8.023  11.008   4.853 -0.7517 -0.5617 -0.1555
35529SOL    HW1 8594   7.973  11.063   4.794 -0.4635 -0.6438 -0.4805
35529SOL    HW2 8595   7.997  11.037   4.941 -0.5465  0.1419 -0.3213
35530SOL     OW 8596   9.319   1.449   1.124 -0.6929 -0.3426  0.2055
35530SOL    HW1 8597   9.286   1.360   1.136  1.1032 -1.0614  0.0056
35530SOL    HW2 8598   9.412   1.444   1.142 -0.3304  1.2653 -0.9212
35531SOL     OW 8599   8.703   1.817   3.208  0.0168  0.6285 -0.3978
35531SOL    HW1 8600   8.655   1.824   3.126 -2.3119 -0.5911  0.7523
35531SOL    HW2 8601   8.709   1.907   3.241 -1.0479  0.8709 -0.8350
35532SOL     OW 8602   6.562   1.020   1.572  0.1466 -0.2894  0.2018
35532SOL    HW1 8603   6.547   0.953   1.639 -0.4040 -1.4240 -1.0194
35532SOL    HW2 8604   6.646   0.996   1.533  1.8977  1.9589  2.2456
35533SOL     OW 8605   0.413   6.735   7.068  0.4968 -0.1682 -0.1149
35533SOL    HW1 8606   0.407   6.779   6.983 -0.1939  0.3053  0.1619
35533SOL    HW2 8607   0.490   6.679   7.061  1.3938  1.0737 -0.4965
35534SOL     OW 8608   6.780   7.489   4.848  0.3631 -0.2181 -0.2298
35534SOL    HW1 8609   6.714   7.480   4.916  0.3899 -0.3974 -0.2292
35534SOL    HW2 8610   6.854   7.530   4.892  0.0144  0.6122 -0.3761
35535SOL     OW 8611  10.489   0.498   4.638 -0.5100  0.7927 -0.4766
35535SOL    HW1 8612  10.557   0.471   4.576 -1.5918 -0.3791 -1.2136
35535SOL    HW2 8613  10.531   0.496   4.723 -0.0370 -1.6259 -0.7084
35536SOL     OW 8614   7.442   9.878   3.380 -0.3953 -0.5371 -0.3189
35536SOL    HW1 8615   7.396   9.960   3.396 -0.2533 -0.7280  1.2488
35536SOL    HW2 8616   7.427   9.859   3.288  0.2561  1.6657 -0.9363
35537SOL     OW 8617   9.961   5.948   2.581 -0.3729  0.1617  0.4795
35537SOL    HW1 8618   9.988   5.872   2.529 -1.2672 -0.7286  1.2751
35537SOL    HW2 8619  10.034   6.009   2.573 -1.0151  0.6854 -2.9316
35538SOL     OW 8620   3.657   1.001   3.052  0.3618  0.3491  0.0835
35538SOL    HW1 8621   3.624   0.914   3.077 -1.7139  0.0575 -3.0238
35538SOL    HW2 8622   3.603   1.063   3.101 -0.6395 -0.1684 -0.3291
35539SOL     OW 8623   0.856  10.378   3.413 -0.1031  0.0517  0.9006
35539SOL    HW1 8624   0.845  10.438   3.340 -1.3888 -2.6442 -1.3120
35539SOL    HW2 8625   0.771  10.336   3.423  0.8054 -1.6446  2.0901
35540SOL     OW 8626   0.450   1.079   6.285  0.1655 -0.2239 -0.1189
35540SOL    HW1 8627   0.407   1.122   6.359 -0.3845  0.1433 -0.6406
35540SOL    HW2 8628   0.450   1.146   6.216  1.2941 -0.3233 -0.2369
35541SOL     OW 8629   1.144  10.906   4.273  0.2632  0.9181 -0.4441
35541SOL    HW1 8630   1.186  10.952   4.200  0.4619  0.0504 -0.8905
35541SOL    HW2 8631   1.060  10.877   4.237  1.3829 -1.7256 -1.2149
35542SOL     OW 8632   0.237   5.159   7.620  0.3859 -0.0046 -0.0315
35542SOL    HW1 8633   0.212   5.084   7.566  2.3147 -0.5498 -0.2134
35542SOL    HW2 8634   0.306   5.127   7.678  0.3291  1.2978  0.8130
35543SOL     OW 8635   8.320  10.604   9.643  0.1805 -0.3246 -0.0932
35543SOL    HW1 8636   8.323  10.649   9.559 -0.3818  0.8430  0.4863
35543SOL    HW2 8637   8.397  10.636   9.690 -0.5185  0.4704  0.5266
35544SOL     OW 8638   2.013   4.676   1.413  0.0021  0.0871 -0.0925
35544SOL    HW1 8639   2.070   4.600   1.407  0.2272  0.3468 -1.6535
35544SOL    HW2 8640   2.037   4.730   1.338 -2.7738 -0.1576 -1.2770
35545SOL     OW 8641   3.992   5.517  10.563  0.2504 -0.4885 -0.1459
35545SOL    HW1 8642   4.042   5.436  10.571  0.8455 -0.0734  0.5287
35545SOL    HW2 8643   3.903   5.493  10.587  0.3470 -1.0161 -0.2998
35546SOL     OW 8644   0.416   4.988   4.470  0.3076 -0.0726 -0.3026
35546SOL    HW1 8645   0.430   5.015   4.380 -0.0240  1.2966  0.0289
35546SOL    HW2 8646   0.322   4.995   4.483  0.5264  1.5284  0.6543
35547SOL     OW 8647   6.619   9.713   6.609 -0.7283 -0.0341 -0.4890
35547SOL    HW1 8648   6.649   9.804   6.618 -0.3874 -0.2740  1.1977
35547SOL    HW2 8649   6.666   9.666   6.678 -0.7778 -1.5312 -1.4542
35548SOL     OW 8650  10.129   3.313   6.780  0.5656 -0.1520 -0.1934
35548SOL    HW1 8651  10.074   3.251   6.829 -0.9363 -0.1746 -1.8076
35548SOL    HW2 8652  10.218   3.280   6.791  0.5418  0.6021  3.5843
35549SOL     OW 8653   6.829   3.475   2.928 -0.3985 -0.3742  0.2856
35549SOL    HW1 8654   6.798   3.539   2.992 -0.9193  0.0109 -0.3540
35549SOL    HW2 8655   6.750   3.443   2.885 -0.0226 -0.3760 -0.4119
35550SOL     OW 8656   9.378   4.697   9.312  0.6629 -0.6529  0.4172
35550SOL    HW1 8657   9.441   4.683   9.241  1.5131  0.1676  0.9822
35550SOL    HW2 8658   9.301   4.735   9.269  1.9288  1.8140  0.1421
35551SOL     OW 8659   4.746   8.296  11.100  0.5565 -0.3516 -0.0981
35551SOL    HW1 8660   4.726   8.311  11.008  0.1206 -0.9841 -0.1154
35551SOL    HW2 8661   4.839   8.317  11.109  0.5894 -0.2565 -0.6717
35552SOL     OW 8662   8.170   9.965   3.390 -0.0475  0.1094 -0.0646
35552SOL    HW1 8663   8.228   9.910   3.442 -0.4958  0.5836  0.9738
35552SOL    HW2 8664   8.120   9.904   3.336  0.3148 -0.4029  0.1763
35553SOL     OW 8665   9.021   7.668   6.054 -0.1700  0.3108  0.2741
35553SOL    HW1 8666   9.072   7.709   6.124 -0.2646 -0.4094  0.7768
35553SOL    HW2 8667   9.085   7.613   6.008 -0.7493 -1.8517  1.8850
35554SOL     OW 8668  10.591   3.956   8.314  0.2759  0.0381  0.6873
35554SOL    HW1 8669  10.546   3.936   8.396  1.2063 -0.5931  1.0540
35554SOL    HW2 8670  10.613   3.871   8.277 -0.4802  0.3064 -0.4291
35555SOL     OW 8671   7.703   0.274   4.551  0.1777 -0.7410 -0.4064
35555SOL    HW1 8672   7.675   0.352   4.502  2.8750 -0.7681 -2.1854
35555SOL    HW2 8673   7.667   0.200   4.501  0.6421 -0.7053 -0.7981
35556SOL     OW 8674  10.967   9.801   7.385  0.2520  0.0043 -0.4312
35556SOL    HW1 8675  11.034   9.865   7.360  0.2971 -0.0056 -0.3318
35556SOL    HW2 8676  10.895   9.817   7.324 -0.7680  1.8406  1.1686
35557SOL     OW 8677  10.995   4.492   5.362  0.6038  0.0074  0.2976
35557SOL    HW1 8678  10.925   4.471   5.424  1.7229 -0.3838  1.4519
35557SOL    HW2 8679  11.018   4.408   5.323  1.5509 -0.1413  1.1437
35558SOL     OW 8680   0.249   3.476   5.307 -0.1277  0.5642 -0.6204
35558SOL    HW1 8681   0.243   3.570   5.297  1.5247  0.6793 -0.8483
35558SOL    HW2 8682   0.320   3.449   5.247  0.1306 -0.6631  0.1844
35559SOL     OW 8683   1.635   0.395   9.203  0.0550  0.3471  0.1654
35559SOL    HW1 8684   1.569   0.354   9.147  0.3002  0.9471 -0.5724
35559SOL    HW2 8685   1.679   0.459   9.147  0.2172  1.0628  1.0693
35560SOL     OW 8686   2.990   2.974   6.579  0.7454 -0.5253 -0.1804
35560SOL    HW1 8687   3.050   3.012   6.644  1.4835  1.9116 -2.1409
35560SOL    HW2 8688   3.030   2.890   6.557  1.6795 -0.4025  0.8891
35561SOL     OW 8689   5.260   2.296   3.618  1.0723  0.1178 -0.2188
35561SOL    HW1 8690   5.250   2.223   3.557 -2.3347 -1.8467  2.3646
35561SOL    HW2 8691   5.335   2.272   3.672  0.0167 -1.5677  0.5737
35562SOL     OW 8692   5.617   6.554   5.778 -0.3202 -0.7052  0.4312
35562SOL    HW1 8693   5.647   6.538   5.868 -1.0628 -1.0965  0.6153
35562SOL    HW2 8694   5.531   6.595   5.789 -0.0370  0.0484 -0.0939
35563SOL     OW 8695   9.162   7.397   0.522  0.1697  0.1169  0.0604
35563SOL    HW1 8696   9.071   7.422   0.538  0.2262  0.8585 -0.6710
35563SOL    HW2 8697   9.192   7.360   0.605 -0.3912  1.1256  0.7387
35564SOL     OW 8698   4.758   9.130   5.224  0.3933 -0.1795 -0.0548
35564SOL    HW1 8699   4.667   9.161   5.227  0.4488 -0.1137  1.5324
35564SOL    HW2 8700   4.759   9.052   5.279  1.2588 -0.2946 -0.2227
35565SOL     OW 8701   1.899   0.123   5.629  0.5793  0.2704 -0.0626
35565SOL    HW1 8702   1.829   0.057   5.640  0.0932  0.8023  0.0936
35565SOL    HW2 8703   1.852   0.207   5.627  1.2917  0.7204  1.0742
35566SOL     OW 8704   5.297  11.045   6.878 -0.0192  0.1849 -0.0247
35566SOL    HW1 8705   5.312  11.070   6.787 -1.2280  2.8133  0.4135
35566SOL    HW2 8706   5.247  10.963   6.872 -0.2225  0.3952 -1.7417
35567SOL     OW 8707   7.763   5.590   3.743  0.4461  0.3805  0.1085
35567SOL    HW1 8708   7.805   5.654   3.800  0.2331 -0.8956  1.8083
35567SOL    HW2 8709   7.684   5.634   3.711  0.0423  0.8361  1.6442
35568SOL     OW 8710   0.483   0.682   2.798 -0.2868  0.0874  0.2167
35568SOL    HW1 8711   0.452   0.601   2.757 -1.6764  0.4961  0.3924
35568SOL    HW2 8712   0.455   0.751   2.738 -1.2087  0.5882  1.1793
35569SOL     OW 8713   0.191   4.240   1.576  0.1905  0.1179  0.0346
35569SOL    HW1 8714   0.211   4.332   1.590  0.2988 -0.1452  1.8662
35569SOL    HW2 8715   0.249   4.213   1.505  1.8920  0.8983  1.0661
35570SOL     OW 8716   9.486   1.761   1.290  0.0219  0.1741 -0.3175
35570SOL    HW1 8717   9.443   1.846   1.294  1.1553  0.7673 -0.6026
35570SOL    HW2 8718   9.547   1.767   1.217 -0.4986 -1.1876 -0.9138
35571SOL     OW 8719   6.076   6.652   6.222  0.0108 -0.0841  0.1522
35571SOL    HW1 8720   6.145   6.651   6.288 -0.5636 -1.0911  0.7649
35571SOL    HW2 8721   6.114   6.604   6.148  0.6683  1.0793 -0.3003
35572SOL     OW 8722   6.380   9.265   4.659  0.0750  0.0051 -0.4672
35572SOL    HW1 8723   6.284   9.274   4.655  0.2572  3.1871 -0.3113
35572SOL    HW2 8724   6.400   9.262   4.753  0.2633  4.3507 -0.1627
35573SOL     OW 8725   3.108   7.885   4.471  0.1357  0.0309 -0.4057
35573SOL    HW1 8726   3.141   7.960   4.520  1.1285 -0.4679 -0.2699
35573SOL    HW2 8727   3.152   7.810   4.511 -1.6551 -0.7483  0.1650
35574SOL     OW 8728   4.693   4.462   3.134 -0.7287  0.1381 -0.7644
35574SOL    HW1 8729   4.640   4.385   3.113 -0.8337 -0.0504  0.1583
35574SOL    HW2 8730   4.648   4.503   3.208 -1.6294  2.0551 -2.2453
35575SOL     OW 8731   0.759   5.319   3.705  0.2472  0.0208  0.3928
35575SOL    HW1 8732   0.759   5.386   3.637 -1.3723  0.5829  0.9089
35575SOL    HW2 8733   0.839   5.336   3.755  0.4465  0.8217 -0.1805
35576SOL     OW 8734   0.640   6.527   9.429  0.5016 -0.3176  0.4225
35576SOL    HW1 8735   0.616   6.618   9.411  0.3059 -0.3613  0.4608
35576SOL    HW2 8736   0.569   6.494   9.484  1.4048  0.0217  1.8635
35577SOL     OW 8737   2.092   9.436   8.053  0.3270  0.0289  0.0913
35577SOL    HW1 8738   2.155   9.400   8.115 -1.0012 -2.2448  0.2120
35577SOL    HW2 8739   2.011   9.389   8.071 -1.0905  1.9410 -0.9301
35578SOL     OW 8740   7.343   0.548   0.995 -0.1622 -0.1479 -0.3169
35578SOL    HW1 8741   7.290   0.591   0.928 -1.5254 -0.2171  0.6597
35578SOL    HW2 8742   7.313   0.587   1.078  0.1945 -1.3266  0.3976
35579SOL     OW 8743   9.899   9.667   7.429 -0.2885  0.2521  0.2245
35579SOL    HW1 8744   9.889   9.579   7.392  1.8396  0.2261 -0.4509
35579SOL    HW2 8745   9.831   9.718   7.386 -1.5190 -1.0276  0.5727
35580SOL     OW 8746   3.168   6.721   0.762 -0.0871  0.4189  0.2468
35580SOL    HW1 8747   3.189   6.651   0.702 -2.2374 -0.5429  0.5331
35580SOL    HW2 8748   3.236   6.788   0.746  0.6391 -0.7027 -1.6644
35581SOL     OW 8749   5.746   7.714   3.144 -0.0346 -0.2833 -0.8003
35581SOL    HW1 8750   5.671   7.656   3.130 -0.0506 -0.9817  1.6375
35581SOL    HW2 8751   5.709   7.803   3.140 -1.0121 -0.6179  0.3487
35582SOL     OW 8752   2.847   8.046   3.621  0.4664  0.1619 -0.1996
35582SOL    HW1 8753   2.768   8.008   3.660  0.2115 -1.3600 -2.0640
35582SOL    HW2 8754   2.874   8.114   3.683 -0.8360 -1.0076  1.7525
35583SOL     OW 8755   7.742   8.199   9.770  0.5708  0.0607 -0.2715
35583SOL    HW1 8756   7.723   8.251   9.692 -0.7026  1.4004  0.8710
35583SOL    HW2 8757   7.696   8.117   9.756 -0.9528  0.8852 -0.2922
35584SOL     OW 8758   0.990   8.640   4.717  0.0352  0.5066  0.1857
35584SOL    HW1 8759   0.983   8.557   4.670 -1.5188  0.9976 -0.5235
35584SOL    HW2 8760   1.027   8.700   4.652 -0.7970  0.8545  0.0299
35585SOL     OW 8761   2.231   3.018   2.105  0.0092  0.1491  0.5655
35585SOL    HW1 8762   2.252   2.925   2.118 -0.9505 -0.3550 -1.2449
35585SOL    HW2 8763   2.139   3.025   2.131 -0.2623  0.3256 -0.4186
35586SOL     OW 8764  10.411   2.140   3.160  0.9197  0.3707 -0.0951
35586SOL    HW1 8765  10.412   2.055   3.203 -0.1581  0.7253  0.6831
35586SOL    HW2 8766  10.453   2.199   3.223  0.7973  0.5914 -0.2219
35587SOL     OW 8767   4.888   5.459   3.418 -0.4360  0.6790 -0.3079
35587SOL    HW1 8768   4.903   5.439   3.511  0.1243  0.9088 -0.3475
35587SOL    HW2 8769   4.814   5.404   3.394 -1.4597  1.5711  0.6284
35588SOL     OW 8770   7.036   7.150   5.421  0.6456 -0.1079 -0.0479
35588SOL    HW1 8771   7.057   7.207   5.347  0.9685  0.0455  0.1594
35588SOL    HW2 8772   6.970   7.090   5.386  0.2854  0.4002 -0.2648
35589SOL     OW 8773   9.650  11.061   2.737  1.0636 -0.3850  0.1957
35589SOL    HW1 8774   9.670  11.155   2.743  0.3187 -0.2498  0.6533
35589SOL    HW2 8775   9.683  11.025   2.820  0.9972 -0.4652  0.1863
35590SOL     OW 8776   6.294   5.535   2.720  0.3572  0.1911  0.0421
35590SOL    HW1 8777   6.300   5.630   2.715  0.2380  0.1963 -0.0002
35590SOL    HW2 8778   6.350   5.511   2.795  0.3008  0.3027  0.1202
35591SOL     OW 8779  10.518   7.915   2.325  0.2630  0.0965  0.2149
35591SOL    HW1 8780  10.497   8.005   2.351  0.1633  0.5864 -1.4083
35591SOL    HW2 8781  10.614   7.914   2.319  0.3359 -0.2298  1.2504
35592SOL     OW 8782   4.075   1.712   2.354  0.0100 -0.0762 -0.1755
35592SOL    HW1 8783   4.049   1.724   2.445 -0.4012  1.4008 -0.4650
35592SOL    HW2 8784   3.993   1.720   2.305  0.3119 -0.3139 -0.7282
35593SOL     OW 8785   7.250  10.012   4.500 -0.4685  0.1497  0.1703
35593SOL    HW1 8786   7.303  10.017   4.579 -0.5074 -0.3219  0.2283
35593SOL    HW2 8787   7.166  10.049   4.524 -0.4158  0.1857  0.2960
35594SOL     OW 8788   8.407   6.111   2.591 -0.2336 -0.7073 -0.1427
35594SOL    HW1 8789   8.425   6.102   2.497 -0.7550 -1.3227 -0.1923
35594SOL    HW2 8790   8.450   6.193   2.616  1.4267 -1.4258 -0.5298
35595SOL     OW 8791   7.561   3.648   3.927  0.2240  0.2766  0.2804
35595SOL    HW1 8792   7.625   3.702   3.973  1.4615 -1.3982  0.5962
35595SOL    HW2 8793   7.598   3.636   3.840  0.4866 -0.9041  0.5413
35596SOL     OW 8794   0.690   9.523   1.313  0.3897  0.5678  0.2671
35596SOL    HW1 8795   0.783   9.505   1.299 -0.0582 -0.4836 -1.6362
35596SOL    HW2 8796   0.645   9.444   1.284 -1.2354  2.0635 -1.5869
35597SOL     OW 8797  11.002   4.023   6.429 -0.0722  0.3457  0.3360
35597SOL    HW1 8798  11.035   3.939   6.463 -0.0216  0.5005  0.6688
35597SOL    HW2 8799  11.078   4.081   6.432 -0.0096  0.3034 -0.2517
35598SOL     OW 8800   0.124   8.619   1.260  0.5825 -0.0004  0.6170
35598SOL    HW1 8801   0.188   8.548   1.261  0.8458  0.2394  1.5607
35598SOL    HW2 8802   0.051   8.585   1.209  0.6399 -1.0074  1.1842
35599SOL     OW 8803   7.523   4.025   9.330 -0.2195  0.6343  0.4165
35599SOL    HW1 8804   7.565   4.068   9.405  0.7861 -1.2611  1.0220
35599SOL    HW2 8805   7.578   4.048   9.256 -0.3407  1.2954  0.5285
35600SOL     OW 8806   9.771   0.348   5.228  0.1525 -0.5127  0.2942
35600SOL    HW1 8807   9.748   0.312   5.314  1.3198 -0.9161  0.4538
35600SOL    HW2 8808   9.821   0.278   5.186 -0.6481 -0.4211 -0.8345
35601SOL     OW 8809   5.420   9.212   1.119 -0.5351 -0.3117 -0.4581
35601SOL    HW1 8810   5.345   9.267   1.141  0.1044  0.6120 -0.5457
35601SOL    HW2 8811   5.402   9.179   1.031 -0.6345  0.2560 -0.6495
35602SOL     OW 8812  10.879  10.579   4.630 -0.2352  0.0525  0.3674
35602SOL    HW1 8813  10.933  10.643   4.676 -1.3445  0.2425  1.4628
35602SOL    HW2 8814  10.932  10.499   4.629  1.7044  1.2437 -2.1363
35603SOL     OW 8815   3.754   9.929   0.822  0.2708 -0.8825 -0.0076
35603SOL    HW1 8816   3.839   9.914   0.778  1.8196  1.9929  1.7151
35603SOL    HW2 8817   3.697   9.861   0.786  2.8585 -2.0125 -2.4152
35604SOL     OW 8818   5.883   9.055   8.536  0.2544 -0.0226  0.3016
35604SOL    HW1 8819   5.963   9.039   8.485  1.1452  1.0453  1.2928
35604SOL    HW2 8820   5.840   9.127   8.490 -0.1698 -0.6192 -0.2524
35605SOL     OW 8821   1.058   6.968   2.605 -0.0746 -0.4656 -0.1898
35605SOL    HW1 8822   1.042   7.062   2.593  0.0337 -0.3915  0.2393
35605SOL    HW2 8823   1.146   6.963   2.641 -0.5311 -0.6541  0.9537
35606SOL     OW 8824   5.184  10.340   7.509 -0.5443 -0.1798 -0.2257
35606SOL    HW1 8825   5.115  10.396   7.473  0.5918  1.3646 -0.0746
35606SOL    HW2 8826   5.254  10.400   7.532  1.7002 -1.8863 -2.1863
35607SOL     OW 8827   0.630   9.551   2.505  0.0665 -0.0764  0.6385
35607SOL    HW1 8828   0.581   9.578   2.582  0.0258 -0.8792  0.9034
35607SOL    HW2 8829   0.655   9.461   2.523 -1.4097 -0.8838 -0.9908
35608SOL     OW 8830   1.130  10.615   6.729  0.4702 -0.6962  0.2251
35608SOL    HW1 8831   1.186  10.663   6.668 -0.3249 -0.4120 -0.3061
35608SOL    HW2 8832   1.121  10.672   6.805 -0.4615  0.0249 -0.3988
35609SOL     OW 8833   1.822   7.676   4.131  0.5993 -0.0537  0.5649
35609SOL    HW1 8834   1.825   7.597   4.077  1.6227 -1.0577  2.0033
35609SOL    HW2 8835   1.892   7.732   4.097 -0.1669  0.2909 -0.4948
35610SOL     OW 8836   2.028   1.332   5.271  0.3376 -0.2457  0.1469
35610SOL    HW1 8837   2.104   1.275   5.255  0.6885  0.2302  0.0810
35610SOL    HW2 8838   2.066   1.412   5.307 -0.0305  0.4008 -0.8639
35611SOL     OW 8839   0.155   3.019   9.090 -0.5225 -0.2235  0.2438
35611SOL    HW1 8840   0.100   3.075   9.145 -1.0620 -1.1029  0.6239
35611SOL    HW2 8841   0.115   3.023   9.004 -1.4179 -1.1272  0.5946
35612SOL     OW 8842   6.814   2.618   4.181 -0.2030 -0.6847  0.5112
35612SOL    HW1 8843   6.778   2.702   4.212  1.4150  0.1367  0.2758
35612SOL    HW2 8844   6.809   2.560   4.257 -0.2404 -0.0142  1.0325
35613SOL     OW 8845   0.987   5.760   8.969  0.7373  0.5373 -0.3662
35613SOL    HW1 8846   0.951   5.811   9.041 -1.0333  0.3895 -1.0957
35613SOL    HW2 8847   1.030   5.686   9.011 -0.5529  0.2684  0.5627
35614SOL     OW 8848   2.065   5.909   7.197 -0.2678 -0.1914 -0.6353
35614SOL    HW1 8849   2.111   5.961   7.131 -0.1597  0.9350  0.2791
35614SOL    HW2 8850   2.115   5.923   7.278 -1.4162 -0.0459  0.0799
35615SOL     OW 8851  10.106   5.605   1.631  0.4668  0.4097  0.5146
35615SOL    HW1 8852  10.143   5.569   1.551  0.2976 -0.8970  0.9826
35615SOL    HW2 8853  10.044   5.671   1.602  1.2158  0.7395 -0.3777
35616SOL     OW 8854   5.488   3.762   0.620 -0.6011 -0.1844 -0.2116
35616SOL    HW1 8855   5.490   3.856   0.604 -1.7297 -0.1360 -0.2001
35616SOL    HW2 8856   5.511   3.753   0.713 -1.6605  0.1938  0.1029
35617SOL     OW 8857   5.418   5.597   8.363 -0.7155  0.3201 -0.0236
35617SOL    HW1 8858   5.471   5.636   8.294 -3.0412  2.2432 -0.8893
35617SOL    HW2 8859   5.334   5.579   8.321 -1.7436  0.2378  1.9539
35618SOL     OW 8860  10.186   5.956   5.956 -0.2040 -0.4635  0.4541
35618SOL    HW1 8861  10.233   5.963   5.874 -1.3697  1.3147 -0.1277
35618SOL    HW2 8862  10.145   6.042   5.968 -1.0819 -1.0716  2.2592
35619SOL     OW 8863   0.122   0.506   0.508 -0.0631 -0.6237  0.5818
35619SOL    HW1 8864   0.150   0.416   0.523  0.8750 -0.6018 -0.8494
35619SOL    HW2 8865   0.165   0.556   0.578  2.6978 -0.7649 -0.8598
35620SOL     OW 8866   4.437   1.045   0.158 -0.3686  0.1283 -0.1845
35620SOL    HW1 8867   4.449   0.954   0.131  0.3674  0.8501 -2.5311
35620SOL    HW2 8868   4.342   1.057   0.158 -0.4824 -0.6924  0.3873
35621SOL     OW 8869   8.111   2.548   1.289  0.7245 -0.1842 -0.5141
35621SOL    HW1 8870   8.139   2.478   1.230  1.0062 -2.0863  1.6914
35621SOL    HW2 8871   8.044   2.506   1.344  1.8774  0.7951  1.7925
35622SOL     OW 8872   6.185   7.188   5.416  0.6135 -0.0706  0.2254
35622SOL    HW1 8873   6.164   7.142   5.497 -0.0594  1.0051  0.6949
35622SOL    HW2 8874   6.129   7.147   5.350 -0.1933  0.2462  0.6970
35623SOL     OW 8875   5.327   6.882   0.452 -0.6642  0.3722 -0.3278
35623SOL    HW1 8876   5.380   6.931   0.516 -0.5324  0.6517 -0.6437
35623SOL    HW2 8877   5.312   6.797   0.493  2.2012 -0.7057 -1.2272
35624SOL     OW 8878  10.451   4.923   2.903 -0.1785  0.0756  0.1219
35624SOL    HW1 8879  10.411   4.909   2.989 -1.1077  0.7532 -0.1856
35624SOL    HW2 8880  10.378   4.920   2.842  0.3785  0.3493 -0.5728
35625SOL     OW 8881  10.430   5.352   1.368  0.5546  0.6299  0.1605
35625SOL    HW1 8882  10.460   5.262   1.380 -1.2165 -0.0285  0.0227
35625SOL    HW2 8883  10.451   5.372   1.276  1.8151  0.7353  0.4524
35626SOL     OW 8884   5.059   7.996   2.873 -0.4200 -0.6488  0.3576
35626SOL    HW1 8885   5.139   8.011   2.924  0.2353 -1.5013 -0.3967
35626SOL    HW2 8886   5.085   8.012   2.782 -1.5026  0.5688  0.2261
35627SOL     OW 8887  10.717   9.891   5.474  0.2358 -0.5760  0.0490
35627SOL    HW1 8888  10.746   9.910   5.564  3.1734 -3.1000 -0.1795
35627SOL    HW2 8889  10.640   9.946   5.461 -0.0239  0.2615  3.9260
35628SOL     OW 8890   1.682   1.513   6.288  0.6645  0.2760  0.1996
35628SOL    HW1 8891   1.628   1.494   6.365  0.7890  0.7973  0.4154
35628SOL    HW2 8892   1.753   1.449   6.293  0.0231 -0.4806 -0.1394
35629SOL     OW 8893   4.788   7.368   8.292  0.2265  0.4201  0.7220
35629SOL    HW1 8894   4.811   7.325   8.210 -0.4890  3.3375 -1.1380
35629SOL    HW2 8895   4.693   7.381   8.286  0.2088  0.9550  1.8910
35630SOL     OW 8896   6.819   8.892   1.753 -0.2106 -0.0903  0.9218
35630SOL    HW1 8897   6.894   8.945   1.780  0.7592 -1.5846  1.2575
35630SOL    HW2 8898   6.805   8.832   1.826 -0.1675 -1.4445 -0.1532
35631SOL     OW 8899   4.057   0.772   6.594 -0.0170  0.0379  0.0526
35631SOL    HW1 8900   4.063   0.867   6.603  0.0148  0.0088  0.3486
35631SOL    HW2 8901   4.034   0.758   6.502 -2.2344  0.4226  0.4993
35632SOL     OW 8902   1.129   1.408   2.910  0.1421  0.0125 -0.5438
35632SOL    HW1 8903   1.222   1.423   2.925  0.1831  0.2153 -1.0013
35632SOL    HW2 8904   1.110   1.326   2.956  0.7506 -0.5277 -1.2548
35633SOL     OW 8905   9.982   2.895   5.966  0.3822  0.2374  0.3572
35633SOL    HW1 8906  10.017   2.984   5.961  0.7012  0.0736 -0.5714
35633SOL    HW2 8907   9.890   2.904   5.942  0.6222  0.2056 -0.6052
35634SOL     OW 8908   0.950   8.664   1.778 -0.5821  0.3126  0.0047
35634SOL    HW1 8909   0.949   8.759   1.768 -1.6065  0.3752  0.5875
35634SOL    HW2 8910   0.860   8.637   1.761  0.1358 -0.8384 -2.4932
35635SOL     OW 8911   3.123  10.363   9.956  0.2627 -0.0089 -0.0388
35635SOL    HW1 8912   3.215  10.386   9.967  0.2823 -0.3738  0.6589
35635SOL    HW2 8913   3.123  10.300   9.884  0.3724  1.0532 -1.0014
35636SOL     OW 8914   3.061   0.424   0.782  0.5331 -0.1670 -0.1851
35636SOL    HW1 8915   3.130   0.491   0.783  0.5673 -0.2026  0.4835
35636SOL    HW2 8916   3.021   0.430   0.869 -1.6824  1.2816 -1.2028
35637SOL     OW 8917   1.427   9.998   7.053  0.1152 -0.5541  0.5745
35637SOL    HW1 8918   1.516   9.965   7.039  0.8475  0.6594  2.0113
35637SOL    HW2 8919   1.378   9.970   6.976  2.1818  0.1935 -1.1147
35638SOL     OW 8920   7.008   2.955   6.465 -0.1087  0.3893 -0.3559
35638SOL    HW1 8921   7.085   2.933   6.413 -0.3509 -0.8756 -0.2242
35638SOL    HW2 8922   6.958   2.873   6.469 -3.4161  1.9251 -3.6215
35639SOL     OW 8923   8.007   9.977   6.659  0.6107 -0.0639 -0.5390
35639SOL    HW1 8924   8.003   9.929   6.741 -1.6679 -1.8369 -1.6001
35639SOL    HW2 8925   7.921  10.017   6.649  1.2976  1.2983 -1.4288
35640SOL     OW 8926   4.471   2.923   5.098 -0.6377  0.0007 -0.1856
35640SOL    HW1 8927   4.385   2.936   5.140 -0.9689 -0.5949 -0.6560
35640SOL    HW2 8928   4.451   2.910   5.005 -0.1393 -1.1640 -0.1497
35641SOL     OW 8929   4.181   3.854   8.200  0.0566  0.2214 -0.2222
35641SOL    HW1 8930   4.178   3.906   8.280  1.7929  1.1225 -0.6979
35641SOL    HW2 8931   4.188   3.763   8.230  1.0955  0.5775  0.6784
35642SOL     OW 8932  10.175  10.679   4.049 -0.3276  0.2780 -0.1177
35642SOL    HW1 8933  10.083  10.703   4.057 -0.7479 -0.4490 -2.0406
35642SOL    HW2 8934  10.190  10.615   4.118 -0.6808  1.8579  1.4871
35643SOL     OW 8935   0.024   5.731   1.963  0.3261 -0.2746  0.7213
35643SOL    HW1 8936   0.047   5.820   1.936 -2.2780  0.4872  0.6899
35643SOL    HW2 8937   0.089   5.708   2.028 -0.4059  2.7702  2.7445
35644SOL     OW 8938   9.133  10.218   5.495 -0.2869 -0.0423 -0.8451
35644SOL    HW1 8939   9.201  10.278   5.466 -1.0707 -0.5552 -4.0336
35644SOL    HW2 8940   9.066  10.275   5.533 -0.4237  1.0364 -2.5994
35645SOL     OW 8941  10.787   4.816   4.526 -0.2215  0.0557 -0.4630
35645SOL    HW1 8942  10.731   4.874   4.473  1.3143 -0.6667 -3.0943
35645SOL    HW2 8943  10.787   4.733   4.478  0.8075 -0.8681  1.0508
35646SOL     OW 8944   6.291   5.594   3.899 -0.1067 -0.3643 -0.3606
35646SOL    HW1 8945   6.246   5.582   3.816  2.7576 -0.0667 -2.0918
35646SOL    HW2 8946   6.321   5.686   3.897 -1.5991  0.2647  1.9280
35647SOL     OW 8947   8.029   8.999   9.847 -0.0655 -0.4493  0.3946
35647SOL    HW1 8948   8.096   9.066   9.857  0.8053 -1.0626 -0.9865
35647SOL    HW2 8949   7.970   9.033   9.779  2.2635 -2.3680 -2.8703
35648SOL     OW 8950   9.437   1.862   8.061 -0.1188  0.1935 -0.7004
35648SOL    HW1 8951   9.378   1.935   8.040  0.9431  1.6229  1.0298
35648SOL    HW2 8952   9.385   1.805   8.118  0.1946  1.6320  1.1191
35649SOL     OW 8953  10.858   0.587   4.571  0.3761 -0.1613  0.8440
35649SOL    HW1 8954  10.810   0.612   4.491  1.7683  0.7964  0.2713
35649SOL    HW2 8955  10.802   0.616   4.642 -1.0258 -1.2737  0.2577
35650SOL     OW 8956   8.393   8.952   7.462  0.2704  0.0814  0.1032
35650SOL    HW1 8957   8.405   9.044   7.438 -0.4866  0.2635  0.3900
35650SOL    HW2 8958   8.435   8.945   7.548  0.8655  0.0022 -0.1850
35651SOL     OW 8959   5.363   1.836   1.239 -0.0669 -0.1748 -0.0729
35651SOL    HW1 8960   5.285   1.802   1.284  0.5476 -1.4481  0.0907
35651SOL    HW2 8961   5.433   1.829   1.303  0.0676  1.6524  0.0211
35652SOL     OW 8962   9.605   2.488   4.632 -0.5218  0.0238 -0.0968
35652SOL    HW1 8963   9.553   2.443   4.565 -1.8221  1.3219 -0.0148
35652SOL    HW2 8964   9.559   2.468   4.714 -0.0045 -0.0361  0.1829
35653SOL     OW 8965   4.078   2.281   4.675 -0.2479 -0.1347 -0.2563
35653SOL    HW1 8966   4.169   2.292   4.703  0.4944 -0.5679 -2.3308
35653SOL    HW2 8967   4.032   2.251   4.753  1.7353 -1.6063  0.4168
35654SOL     OW 8968   8.843   1.488   6.699  0.1114  0.0650  0.0387
35654SOL    HW1 8969   8.838   1.561   6.637  0.1270  1.4529  1.6152
35654SOL    HW2 8970   8.819   1.411   6.647  3.8129  0.4890 -2.6855
35655SOL     OW 8971   4.157   9.754   6.691 -0.6562 -0.2916  0.0268
35655SOL    HW1 8972   4.088   9.768   6.626 -0.2522 -1.6971 -0.7619
35655SOL    HW2 8973   4.201   9.838   6.698 -0.1630 -0.3056 -2.2007
35656SOL     OW 8974   5.427   1.113   3.653  0.1389 -0.0331  0.3577
35656SOL    HW1 8975   5.453   1.178   3.587 -1.4668  0.5319  0.2452
35656SOL    HW2 8976   5.334   1.098   3.638 -0.1008 -0.4656  2.0054
35657SOL     OW 8977   7.620  10.415   1.097  0.4891  0.2118  0.3054
35657SOL    HW1 8978   7.605  10.326   1.129 -0.8002  0.7400  1.2603
35657SOL    HW2 8979   7.609  10.408   1.002 -1.4391 -0.3282  0.5292
35658SOL     OW 8980   3.606   2.000   9.850  0.2022 -0.0383 -0.6657
35658SOL    HW1 8981   3.595   1.937   9.779 -0.5777 -2.2344  1.2962
35658SOL    HW2 8982   3.516   2.023   9.876  0.2899 -2.3738  2.1390
35659SOL     OW 8983   0.952  10.164   9.046  0.3609  0.2132 -0.2859
35659SOL    HW1 8984   0.875  10.111   9.067  1.4996 -1.7674 -0.7845
35659SOL    HW2 8985   0.963  10.221   9.121 -0.4903 -0.8250  0.6692
35660SOL     OW 8986   8.069   2.936   4.795 -0.2201 -0.3123  0.0830
35660SOL    HW1 8987   8.134   2.961   4.861 -2.3243  0.1092  2.1299
35660SOL    HW2 8988   8.094   2.848   4.769  0.9329 -0.3163  1.1247
35661SOL     OW 8989   8.034   6.121  10.930 -0.4320  0.0888 -0.3650
35661SOL    HW1 8990   7.967   6.070  10.884 -1.8276  2.2055 -0.8090
35661SOL    HW2 8991   8.114   6.069  10.921 -1.8132 -2.1462 -0.5000
35662SOL     OW 8992  10.788   8.138   8.206  0.1207 -0.2146  0.9414
35662SOL    HW1 8993  10.745   8.065   8.161  0.4382 -0.9160  1.7633
35662SOL    HW2 8994  10.716   8.195   8.232 -0.2580 -0.9169  1.4852
35663SOL     OW 8995   2.196   2.712   8.554 -0.1357  0.1384  0.1065
35663SOL    HW1 8996   2.187   2.761   8.635 -0.9020  0.3762 -0.1092
35663SOL    HW2 8997   2.122   2.741   8.500 -0.5466 -1.1555 -0.0738
35664SOL     OW 8998   8.838   7.966   9.958 -0.3935  0.3926  0.5105
35664SOL    HW1 8999   8.923   8.009   9.965  0.2079 -0.1653 -2.1795
35664SOL    HW2 9000   8.778   8.024  10.004  1.1423  1.7198  0.9375
35665SOL     OW 9001   0.537   2.454   7.672 -0.3721 -0.2032  0.3263
35665SOL    HW1 9002   0.480   2.403   7.730  0.4448 -0.9512  0.4820
35665SOL    HW2 9003   0.571   2.523   7.728 -0.5353 -0.1986  0.4228
35666SOL     OW 9004   4.596  10.081   5.955 -0.5228  0.0431  0.0828
35666SOL    HW1 9005   4.678  10.092   6.003 -0.4884 -1.4991  0.4254
35666SOL    HW2 9006   4.528  10.087   6.021 -0.6721  0.7690 -0.1228
35667SOL     OW 9007   7.511   7.903   7.621 -0.1326 -0.2494  0.8607
35667SOL    HW1 9008   7.504   7.818   7.664  0.8938  0.5662  2.7898
35667SOL    HW2 9009   7.595   7.899   7.574 -0.7223 -0.7465 -0.1803
35668SOL     OW 9010   7.603   6.522   5.796  0.4261 -0.3653  0.0720
35668SOL    HW1 9011   7.622   6.601   5.745 -2.2869  0.2578 -0.1273
35668SOL    HW2 9012   7.545   6.471   5.739 -1.5034 -0.3365  1.9121
35669SOL     OW 9013   4.919   0.903   1.910  0.0333  0.2909 -0.1787
35669SOL    HW1 9014   4.948   0.887   1.821 -0.7737 -1.2956 -0.1918
35669SOL    HW2 9015   4.830   0.937   1.901 -0.3860 -0.7121  0.0197
35670SOL     OW 9016  10.533   8.495   4.321  0.1390  0.3240 -0.8652
35670SOL    HW1 9017  10.627   8.479   4.334  0.5372  1.0562 -2.4878
35670SOL    HW2 9018  10.506   8.544   4.398  1.1610  0.3248 -0.4901
35671SOL     OW 9019   9.641   8.090   7.360 -0.2467 -0.0151 -0.5426
35671SOL    HW1 9020   9.733   8.090   7.332  0.1552 -1.6570  0.5946
35671SOL    HW2 9021   9.629   8.003   7.400 -1.9153  0.6714  0.5264
35672SOL     OW 9022   7.870   6.390   6.068  0.0937  0.2855 -0.0532
35672SOL    HW1 9023   7.871   6.336   5.989 -1.2248 -0.4928  0.4412
35672SOL    HW2 9024   7.894   6.330   6.139  2.3375  1.2005  0.0641
35673SOL     OW 9025  10.280   0.953   7.648  0.2127  0.1808  0.8434
35673SOL    HW1 9026  10.265   0.969   7.741  2.8416 -1.0951  1.5716
35673SOL    HW2 9027  10.348   0.886   7.645 -0.9551 -1.0654 -2.0213
35674SOL     OW 9028   2.276   6.370   5.988 -0.0453 -0.3903 -0.4122
35674SOL    HW1 9029   2.367   6.391   5.965 -0.1009  0.0019 -0.2767
35674SOL    HW2 9030   2.253   6.433   6.056 -0.2358 -0.8480 -0.0408
35675SOL     OW 9031   9.057  10.317   6.981 -0.0965 -0.6535 -0.2540
35675SOL    HW1 9032   8.993  10.251   6.955 -0.7389 -0.2487  0.2755
35675SOL    HW2 9033   9.051  10.321   7.077 -1.2737  1.3304 -0.3414
35676SOL     OW 9034   2.845   0.092   6.612 -0.2682 -0.2672  0.1180
35676SOL    HW1 9035   2.862   0.161   6.548  1.1120  0.9003  1.6732
35676SOL    HW2 9036   2.911   0.025   6.593  0.2842  0.1783  0.4448
35677SOL     OW 9037   9.454   0.052   4.625 -0.9536 -0.2280 -0.4676
35677SOL    HW1 9038   9.510   0.038   4.548 -0.5981  0.7034 -0.3933
35677SOL    HW2 9039   9.387   0.113   4.595 -0.0571  1.1665  0.2891
35678SOL     OW 9040   7.149   6.905   3.259 -0.6436 -0.2481 -0.3067
35678SOL    HW1 9041   7.133   6.943   3.345  0.4435 -2.0322  0.7394
35678SOL    HW2 9042   7.127   6.813   3.269  1.1530 -0.8549 -1.4036
35679SOL     OW 9043   0.338   9.118  10.202 -0.0734 -0.4021 -0.1821
35679SOL    HW1 9044   0.281   9.118  10.125  0.0215  1.8567 -0.3264
35679SOL    HW2 9045   0.422   9.151  10.169  0.5233 -1.1332  0.5609
35680SOL     OW 9046   6.542   3.500   2.215 -0.3751  0.3843 -0.7921
35680SOL    HW1 9047   6.498   3.427   2.170  0.4254 -0.0396 -0.9001
35680SOL    HW2 9048   6.632   3.471   2.224  0.0817  1.5958 -1.3102
35681SOL     OW 9049   9.686   1.522   5.352  0.0930  0.6086  0.4499
35681SOL    HW1 9050   9.677   1.518   5.447  1.5360  2.0244  0.6853
35681SOL    HW2 9051   9.622   1.459   5.319  1.7200 -2.2998  2.4405
35682SOL     OW 9052   7.752   6.877   5.959 -0.1484 -0.1901  0.0950
35682SOL    HW1 9053   7.822   6.828   6.001  0.2325 -0.9633 -1.3544
35682SOL    HW2 9054   7.757   6.852   5.866  0.0406  2.5562 -0.7322
35683SOL     OW 9055  10.678   2.527   6.534 -0.6237 -0.0740 -0.3400
35683SOL    HW1 9056  10.684   2.617   6.503 -0.0308 -0.1861 -0.5632
35683SOL    HW2 9057  10.725   2.527   6.618 -1.7216  0.1012  0.2866
35684SOL     OW 9058   2.595   7.158   1.955  0.2093 -0.3403  0.4170
35684SOL    HW1 9059   2.553   7.083   1.998 -2.4718 -0.0382 -1.4366
35684SOL    HW2 9060   2.617   7.126   1.868 -0.3851  0.8074 -0.1735
35685SOL     OW 9061   0.901   7.426   7.925  0.6088 -0.3790 -0.4335
35685SOL    HW1 9062   0.923   7.491   7.993 -0.6535  1.1749 -1.4391
35685SOL    HW2 9063   0.977   7.427   7.866  0.2828  0.7920 -0.8587
35686SOL     OW 9064   0.776   3.715   2.097 -0.3007  0.3084 -0.1559
35686SOL    HW1 9065   0.745   3.628   2.121 -1.7966  0.3314 -1.8082
35686SOL    HW2 9066   0.743   3.772   2.168  0.0057 -0.3409  0.5223
35687SOL     OW 9067   7.429   5.948   7.280  0.1958  0.3097  0.0782
35687SOL    HW1 9068   7.369   6.020   7.258  0.0302  0.0211 -0.4365
35687SOL    HW2 9069   7.420   5.937   7.375  1.7602  2.3426  0.5325
35688SOL     OW 9070   8.316   8.725   3.258 -0.5928 -0.1235 -0.2484
35688SOL    HW1 9071   8.381   8.739   3.190 -0.3331 -0.4860 -0.0804
35688SOL    HW2 9072   8.314   8.807   3.308 -0.8148  0.1568 -0.7162
35689SOL     OW 9073   7.416   8.409   4.531 -0.1508  0.2071 -0.1749
35689SOL    HW1 9074   7.361   8.465   4.586 -0.1373  0.2231 -0.1779
35689SOL    HW2 9075   7.500   8.404   4.578  0.0002  0.5636 -0.4022
35690SOL     OW 9076   9.280   0.143   8.054  0.2775 -0.1373  0.3731
35690SOL    HW1 9077   9.302   0.200   8.128 -0.4007  1.7664 -0.8144
35690SOL    HW2 9078   9.303   0.055   8.084  3.1901  0.9139  1.6207
35691SOL     OW 9079   7.219   7.102   4.286 -0.4056  0.2445  0.4689
35691SOL    HW1 9080   7.304   7.102   4.331  1.3904 -1.4878 -2.5303
35691SOL    HW2 9081   7.235   7.151   4.205 -2.2285 -0.1972 -0.2113
35692SOL     OW 9082   8.355   5.587   6.788  0.0390 -0.5738 -0.0151
35692SOL    HW1 9083   8.275   5.539   6.769 -0.2900 -0.6542  1.4394
35692SOL    HW2 9084   8.407   5.527   6.841  1.3617 -0.7564 -1.4394
35693SOL     OW 9085  10.894   4.673   3.928 -0.0462 -0.8138  0.5247
35693SOL    HW1 9086  10.803   4.660   3.902  0.4423 -0.7648 -1.3078
35693SOL    HW2 9087  10.945   4.647   3.852  1.4927 -0.7865  1.4954
35694SOL     OW 9088   8.589   5.007   7.599  0.2322  0.2209 -1.2238
35694SOL    HW1 9089   8.558   4.928   7.643  0.4731  2.2678  3.1930
35694SOL    HW2 9090   8.670   4.980   7.555  0.8867 -1.8274  1.0395
35695SOL     OW 9091   6.757   5.946   7.195  0.5066  0.3630 -0.2541
35695SOL    HW1 9092   6.823   5.946   7.264  1.6704  1.4710 -1.3177
35695SOL    HW2 9093   6.737   6.039   7.182 -1.7676  0.0442  0.4615
35696SOL     OW 9094   7.014  10.635   3.200  0.0984 -0.4631 -0.3313
35696SOL    HW1 9095   7.083  10.570   3.217 -1.1062 -1.7872 -0.2887
35696SOL    HW2 9096   6.942  10.584   3.163 -0.2071  1.1576 -2.1436
35697SOL     OW 9097   2.490   5.030   5.778 -0.0158 -0.5005  0.7013
35697SOL    HW1 9098   2.413   5.055   5.727  0.8456  0.5237 -0.1407
35697SOL    HW2 9099   2.544   4.980   5.718 -0.0105 -1.2048  1.2852
35698SOL     OW 9100   3.810  10.329   4.361  0.1258  0.1227  0.2653
35698SOL    HW1 9101   3.864  10.337   4.282  0.1009  0.8021  0.3052
35698SOL    HW2 9102   3.722  10.353   4.332 -0.2102 -1.1910  0.1540
35699SOL     OW 9103   9.429   4.703   8.786  0.1070 -0.2102 -0.7304
35699SOL    HW1 9104   9.422   4.782   8.733  2.0315  1.2854  1.0849
35699SOL    HW2 9105   9.480   4.642   8.733 -0.1319  0.3073 -1.5679
35700SOL     OW 9106  10.289   4.403   4.720 -0.5528 -0.6907  0.2031
35700SOL    HW1 9107  10.196   4.406   4.700 -0.7886  2.3163  1.1996
35700SOL    HW2 9108  10.296   4.342   4.793 -1.4977 -1.9239 -0.6847
35701SOL     OW 9109   8.836   4.759   4.217  0.4186  0.3172 -0.3164
35701SOL    HW1 9110   8.884   4.683   4.186  0.3902  0.8089 -1.6537
35701SOL    HW2 9111   8.899   4.831   4.213  0.3493  0.4383  0.6018
35702SOL     OW 9112   5.331   1.183   6.586 -0.2957  0.0560 -0.4226
35702SOL    HW1 9113   5.268   1.126   6.631  1.0085 -0.6560  0.5503
35702SOL    HW2 9114   5.391   1.122   6.543  1.9817  0.5748  1.8011
35703SOL     OW 9115  10.172  10.619   6.705  0.1949  0.1050  0.1787
35703SOL    HW1 9116  10.189  10.713   6.704  1.7831 -0.1169  1.4482
35703SOL    HW2 9117  10.193  10.590   6.616  1.6557  0.6765  0.3067
35704SOL     OW 9118   6.671   6.180   5.600  0.1801  0.2086  0.4233
35704SOL    HW1 9119   6.693   6.104   5.655 -1.6768  0.3143  1.3677
35704SOL    HW2 9120   6.744   6.240   5.612 -0.3029  0.3603  3.0496
35705SOL     OW 9121   5.716  10.366   3.673 -0.2332 -0.9233 -0.5564
35705SOL    HW1 9122   5.703  10.445   3.725 -0.9179 -0.7933 -0.9154
35705SOL    HW2 9123   5.709  10.294   3.737 -3.0013 -0.8797 -0.7133
35706SOL     OW 9124  10.186  10.949   9.778  0.1846  0.0305 -0.5343
35706SOL    HW1 9125  10.117  11.014   9.788 -1.3869 -0.8913 -3.9300
35706SOL    HW2 9126  10.140  10.866   9.763  2.0927 -1.2173  0.0722
35707SOL     OW 9127   4.398   9.966   7.019  0.6565  0.1556 -0.2131
35707SOL    HW1 9128   4.348   9.889   7.045  0.8254 -0.0527 -0.4908
35707SOL    HW2 9129   4.486   9.932   6.999  1.1936  0.6484  1.1841
35708SOL     OW 9130   1.559   9.497   4.140 -0.0659  0.4896 -0.1295
35708SOL    HW1 9131   1.492   9.540   4.193 -0.3715  0.4818 -0.5013
35708SOL    HW2 9132   1.592   9.427   4.195 -0.5216  0.3534 -0.0199
35709SOL     OW 9133   9.624   2.627   3.706 -0.0258  0.2116 -0.1818
35709SOL    HW1 9134   9.581   2.542   3.701  1.7852 -0.7154 -0.8958
35709SOL    HW2 9135   9.710   2.609   3.743 -0.0326  1.9286  0.7787
35710SOL     OW 9136   0.437   5.649   3.248  0.3225 -0.4002  0.0751
35710SOL    HW1 9137   0.529   5.648   3.276  1.0565 -1.3962 -2.1304
35710SOL    HW2 9138   0.441   5.638   3.153 -2.0421  1.2934 -0.3095
35711SOL     OW 9139   6.369   9.317   7.537  0.0524  0.5129  0.2185
35711SOL    HW1 9140   6.290   9.305   7.590 -1.9844  0.3618 -2.6097
35711SOL    HW2 9141   6.422   9.378   7.587 -1.0081 -0.7094  3.0568
35712SOL     OW 9142   2.479  10.953   3.078 -0.4852 -0.6695 -0.0140
35712SOL    HW1 9143   2.462  10.980   2.988  0.9669 -0.0863 -0.1356
35712SOL    HW2 9144   2.439  10.866   3.084 -0.9560 -0.5490 -1.0933
35713SOL     OW 9145   6.505   6.509   3.048  0.3692 -0.0987 -0.8586
35713SOL    HW1 9146   6.526   6.596   3.013  2.8222 -0.8275 -1.3932
35713SOL    HW2 9147   6.507   6.452   2.971 -1.0140 -0.6894 -0.4803
35714SOL     OW 9148   6.498   0.243   8.246 -1.1705  0.3566 -0.4861
35714SOL    HW1 9149   6.477   0.337   8.240  1.2676  1.1915  1.8005
35714SOL    HW2 9150   6.444   0.211   8.317 -0.1999  0.6991  0.4338
35715SOL     OW 9151  10.986  11.054   6.827 -0.2928  0.1771 -0.4934
35715SOL    HW1 9152  10.964  11.135   6.873 -0.7860  0.6211 -1.4709
35715SOL    HW2 9153  10.936  11.059   6.745  0.0785 -0.8737 -0.7990
35716SOL     OW 9154  10.282   9.585   6.196  0.3058 -0.0446  0.1975
35716SOL    HW1 9155  10.310   9.670   6.161  1.6266 -0.0341  1.1923
35716SOL    HW2 9156  10.196   9.602   6.234  0.4816  0.8216  0.2343
35717SOL     OW 9157   2.914   5.140  11.007 -0.2425 -0.2389 -0.1972
35717SOL    HW1 9158   2.842   5.202  11.023 -0.0560 -0.0959  0.1105
35717SOL    HW2 9159   2.980   5.164  11.072  1.3495  1.5500 -2.3301
35718SOL     OW 9160   8.585   0.197   6.285 -0.3933  0.5597 -0.2019
35718SOL    HW1 9161   8.558   0.261   6.350  0.6089 -0.7656  1.6172
35718SOL    HW2 9162   8.507   0.184   6.230 -1.1298  2.0490  0.4329
35719SOL     OW 9163   0.031   7.922   6.416 -0.3053  0.0658 -0.5813
35719SOL    HW1 9164   0.069   8.009   6.400 -1.5213  0.6783 -0.2567
35719SOL    HW2 9165   0.015   7.886   6.329 -0.2167  0.3621 -0.7195
35720SOL     OW 9166  10.379   3.437   9.275 -0.6728 -0.5080 -0.4297
35720SOL    HW1 9167  10.301   3.485   9.249 -1.3349 -1.0938  0.4182
35720SOL    HW2 9168  10.354   3.345   9.268 -0.0946 -0.7037 -0.0531
35721SOL     OW 9169   6.665   1.811   6.138  0.3979  0.0894 -0.1580
35721SOL    HW1 9170   6.582   1.774   6.168  1.5187 -1.4110  1.2401
35721SOL    HW2 9171   6.647   1.905   6.129 -1.7944 -0.3535 -1.2084
35722SOL     OW 9172   5.371   4.466   0.673 -0.1691  0.3011  0.3331
35722SOL    HW1 9173   5.421   4.449   0.593 -1.7290  0.6997 -0.7711
35722SOL    HW2 9174   5.412   4.544   0.710  1.1319 -0.4007  0.4289
35723SOL     OW 9175   9.907   7.173   1.279 -0.1166 -0.2398 -0.0434
35723SOL    HW1 9176   9.903   7.167   1.184 -0.7292  1.1178 -0.1273
35723SOL    HW2 9177   9.987   7.125   1.303  2.3949  2.7935 -1.6301
35724SOL     OW 9178   3.590   5.203   5.732 -0.2028 -0.1538  0.1280
35724SOL    HW1 9179   3.665   5.205   5.673 -0.2817 -0.3204  0.0219
35724SOL    HW2 9180   3.626   5.223   5.818 -0.0164 -0.3817  0.0996
35725SOL     OW 9181   1.907   6.514  10.715  0.0485  0.7368 -0.0047
35725SOL    HW1 9182   1.947   6.451  10.655 -0.3073  1.6212 -1.2011
35725SOL    HW2 9183   1.824   6.537  10.674 -0.3334  1.1657  0.9699
35726SOL     OW 9184   8.776   0.418   7.641 -0.4609 -0.8021  0.2517
35726SOL    HW1 9185   8.860   0.408   7.598 -0.6458 -0.0147 -0.3094
35726SOL    HW2 9186   8.713   0.376   7.582 -0.9527  1.6847 -1.1283
35727SOL     OW 9187   7.955   5.457   0.901  0.1412  0.8918 -0.4412
35727SOL    HW1 9188   7.996   5.388   0.954 -1.0792  0.2370 -0.3107
35727SOL    HW2 9189   7.897   5.410   0.841 -1.3445  1.8225  0.2008
35728SOL     OW 9190   4.629  10.950   4.060 -0.4162 -0.3725  1.0195
35728SOL    HW1 9191   4.638  10.936   4.154  2.4681 -0.4268  0.7996
35728SOL    HW2 9192   4.686  10.885   4.019 -1.4635 -0.2355 -0.7964
35729SOL     OW 9193   0.407   6.329  10.641  0.4470 -0.3079  0.4944
35729SOL    HW1 9194   0.387   6.239  10.616 -0.0796 -0.7042  2.2065
35729SOL    HW2 9195   0.397   6.330  10.736  1.8406  1.2139  0.6734
35730SOL     OW 9196   2.512  10.591   3.340  0.1905  0.4187  0.0788
35730SOL    HW1 9197   2.518  10.569   3.433  0.2138 -0.6137 -0.1633
35730SOL    HW2 9198   2.487  10.510   3.297 -0.9066  1.1344 -0.7034
35731SOL     OW 9199   7.850   2.711   7.002  0.7020 -0.6000  0.0520
35731SOL    HW1 9200   7.879   2.700   6.911 -1.0453 -2.0499 -0.3986
35731SOL    HW2 9201   7.755   2.711   6.997  0.5694 -0.4532  1.8769
35732SOL     OW 9202   9.152   0.470   1.387 -0.5663 -0.1757 -0.1624
35732SOL    HW1 9203   9.187   0.451   1.474 -0.1386 -1.1633 -0.5318
35732SOL    HW2 9204   9.145   0.565   1.384  0.0408 -0.0929  0.7142
35733SOL     OW 9205   9.674   8.735   5.418  0.6260  0.1938  0.2820
35733SOL    HW1 9206   9.659   8.797   5.347 -0.0846  0.3084  0.5246
35733SOL    HW2 9207   9.590   8.729   5.464  0.8477 -0.4930  0.6237
35734SOL     OW 9208   7.309   9.139   4.200 -0.2973 -0.0871 -0.5170
35734SOL    HW1 9209   7.276   9.111   4.115 -1.2970 -0.5185 -0.0022
35734SOL    HW2 9210   7.255   9.214   4.223 -0.7702 -0.6385  0.2194
35735SOL     OW 9211   8.611   6.354   2.489  0.1467 -0.6563 -0.0237
35735SOL    HW1 9212   8.641   6.413   2.559  3.5158  0.1558 -1.9222
35735SOL    HW2 9213   8.659   6.272   2.505  0.5392 -0.6381 -1.0434
35736SOL     OW 9214   7.034  10.288   0.925  0.0200  0.5333  0.0498
35736SOL    HW1 9215   7.077  10.257   0.845 -1.0507  2.3283 -1.3045
35736SOL    HW2 9216   7.106  10.320   0.980  0.7856 -0.8483 -0.0990
35737SOL     OW 9217   8.477   5.907   9.960  0.0923  0.0188  0.8057
35737SOL    HW1 9218   8.573   5.906   9.962  0.1036 -0.2072  0.2884
35737SOL    HW2 9219   8.454   6.000   9.960  0.2766  0.0875  1.9685
35738SOL     OW 9220   5.976   9.847   9.388 -0.3829  0.4142 -0.1525
35738SOL    HW1 9221   6.013   9.819   9.304  0.8107 -0.7049  0.6872
35738SOL    HW2 9222   6.052   9.848   9.447 -1.3663  0.1524  1.1483
35739SOL     OW 9223   7.384   7.631   6.513 -0.2437  0.3234 -0.2157
35739SOL    HW1 9224   7.412   7.665   6.598  0.6135 -0.4674 -0.1585
35739SOL    HW2 9225   7.315   7.568   6.533  0.3611 -0.2985 -0.0345
35740SOL     OW 9226   4.910   9.195   2.682 -0.0999  0.1229  0.1851
35740SOL    HW1 9227   4.829   9.247   2.681  0.4235  0.9950  1.2809
35740SOL    HW2 9228   4.976   9.253   2.645  0.1888 -0.3252 -0.0120
35741SOL     OW 9229   8.304   7.322   1.349  1.0963 -0.1756 -0.1169
35741SOL    HW1 9230   8.230   7.279   1.394  0.9324  0.1796 -0.0451
35741SOL    HW2 9231   8.369   7.334   1.418  0.8000  0.4726  0.0564
35742SOL     OW 9232   0.129   3.716   1.685 -0.5658 -0.2903  0.1093
35742SOL    HW1 9233   0.092   3.659   1.617 -0.1401  0.1729 -0.5230
35742SOL    HW2 9234   0.134   3.660   1.763 -0.0916 -1.1457 -0.5208
35743SOL     OW 9235   1.665   7.778   3.576  0.5510  0.1756 -0.0060
35743SOL    HW1 9236   1.574   7.803   3.563  0.3096 -0.2121  0.8518
35743SOL    HW2 9237   1.673   7.692   3.534 -0.5668 -1.6906  3.2064
35744SOL     OW 9238   4.029   3.176   6.939 -0.3957  0.2293 -0.0296
35744SOL    HW1 9239   3.977   3.243   6.894 -0.7752 -1.3687 -2.0850
35744SOL    HW2 9240   4.120   3.197   6.917 -0.4308  0.6626  0.2186
35745SOL     OW 9241   8.939   9.020   3.054  0.2895  0.2671 -0.2143
35745SOL    HW1 9242   8.940   8.969   3.136  0.3089  0.2973 -0.1956
35745SOL    HW2 9243   9.013   8.985   3.004 -0.3270 -0.4472 -0.6418
35746SOL     OW 9244   7.550  10.461   2.479  0.2090  0.3212  0.5267
35746SOL    HW1 9245   7.595  10.471   2.562 -1.0455 -0.2133  1.3069
35746SOL    HW2 9246   7.619  10.439   2.416  1.4052  2.2670  1.0674
35747SOL     OW 9247   5.603   7.833   7.131 -0.1512  0.6049  0.1379
35747SOL    HW1 9248   5.596   7.916   7.084 -1.5698  0.2967 -0.2426
35747SOL    HW2 9249   5.579   7.854   7.221  1.5349  0.9875  0.5349
35748SOL     OW 9250   9.068   1.625   5.275  0.5014 -0.3964  0.5697
35748SOL    HW1 9251   9.000   1.571   5.314 -1.9447  0.6458 -1.9374
35748SOL    HW2 9252   9.071   1.703   5.330 -0.8772 -0.1481  0.3228
35749SOL     OW 9253   3.957   0.590   7.408 -0.4602  0.0710 -0.4389
35749SOL    HW1 9254   3.945   0.604   7.502 -1.0620  0.4159 -0.5632
35749SOL    HW2 9255   3.894   0.649   7.367 -0.5462 -0.4410 -1.0502
35750SOL     OW 9256   9.366   8.003   3.772 -0.0036 -0.4689 -0.4601
35750SOL    HW1 9257   9.273   7.990   3.793 -0.2771  1.0330 -0.6533
35750SOL    HW2 9258   9.388   8.088   3.808  0.4440  0.6224 -3.0461
35751SOL     OW 9259   8.218   3.588   1.168 -0.3800  0.3122  0.2934
35751SOL    HW1 9260   8.196   3.548   1.084 -0.6506  0.6715  0.1933
35751SOL    HW2 9261   8.137   3.583   1.219  0.4097 -2.1820  1.4623
35752SOL     OW 9262   9.478   0.655   4.759 -0.1754  0.0649  0.3136
35752SOL    HW1 9263   9.494   0.577   4.707 -1.9343 -0.3900  0.4105
35752SOL    HW2 9264   9.535   0.721   4.720 -1.2685 -0.2992 -2.1182
35753SOL     OW 9265   8.947   2.216   1.380 -0.5362  0.2754  0.3111
35753SOL    HW1 9266   9.000   2.200   1.302  0.3193  2.3884  0.3962
35753SOL    HW2 9267   8.975   2.148   1.442 -2.1451 -2.2469 -1.5478
35754SOL     OW 9268   7.561   9.935   8.338 -0.4338  0.4248  0.4207
35754SOL    HW1 9269   7.487   9.880   8.363  0.2938 -0.4711  0.6533
35754SOL    HW2 9270   7.635   9.902   8.389  0.5378  0.1317 -1.0857
35755SOL     OW 9271   0.259   9.977   4.289 -0.6377 -0.1471 -0.2024
35755SOL    HW1 9272   0.345  10.014   4.267 -0.9216 -0.2776 -1.6105
35755SOL    HW2 9273   0.196  10.046   4.268 -0.8272  0.3673  1.9064
35756SOL     OW 9274   7.661   3.758   2.024 -0.0177  0.0232  0.1358
35756SOL    HW1 9275   7.614   3.828   1.978 -1.2770 -0.9800 -0.1456
35756SOL    HW2 9276   7.752   3.789   2.027 -0.1167  0.6760 -1.9247
35757SOL     OW 9277  10.479  10.132   2.794 -0.7794 -0.1172 -0.0440
35757SOL    HW1 9278  10.498  10.126   2.888 -0.5321 -0.3665 -0.1085
35757SOL    HW2 9279  10.564  10.151   2.754 -1.1816  2.0202 -0.0420
35758SOL     OW 9280   9.974  10.409   4.663  0.0391  0.5619 -0.4994
35758SOL    HW1 9281   9.929  10.426   4.580 -1.3738  3.5408  0.7293
35758SOL    HW2 9282   9.907  10.421   4.730  1.1724 -1.5902  1.1467
35759SOL     OW 9283  10.539   7.841   1.598  0.4014  0.1274 -0.4100
35759SOL    HW1 9284  10.500   7.924   1.570  1.0694  0.0878 -1.4876
35759SOL    HW2 9285  10.595   7.865   1.672  0.6067  0.6473 -0.7255
35760SOL     OW 9286   0.645   1.114   1.458  0.2281 -0.3905 -0.0689
35760SOL    HW1 9287   0.675   1.052   1.525 -1.2019  1.0077  1.9659
35760SOL    HW2 9288   0.634   1.197   1.505 -0.1201  0.8631 -2.2222
35761SOL     OW 9289   1.112   3.815   7.444  0.0181  0.0127 -0.2407
35761SOL    HW1 9290   1.076   3.860   7.368 -1.0722 -0.7521 -0.2082
35761SOL    HW2 9291   1.034   3.788   7.494  0.6345 -1.6990 -0.1511
35762SOL     OW 9292   6.883   5.158   6.560 -0.1412 -0.3486 -0.2118
35762SOL    HW1 9293   6.795   5.189   6.537  0.2340 -0.1747 -1.4845
35762SOL    HW2 9294   6.869   5.099   6.634 -1.1627  0.8401  0.5818
35763SOL     OW 9295  10.447   0.522   5.033 -0.0563 -0.5003  0.0547
35763SOL    HW1 9296  10.464   0.430   5.010  0.9017 -0.0750 -1.0543
35763SOL    HW2 9297  10.357   0.537   5.005  0.5488 -0.4676 -2.0311
35764SOL     OW 9298   3.244   7.787   7.724  0.1544 -0.3145  0.3479
35764SOL    HW1 9299   3.280   7.700   7.708 -2.4892 -1.6807  1.3451
35764SOL    HW2 9300   3.262   7.803   7.817 -0.9525 -0.6267  0.6283
35765SOL     OW 9301   3.978   5.172   1.605  0.3409  0.2246  0.3159
35765SOL    HW1 9302   3.920   5.117   1.659  0.0387  1.0064  0.7999
35765SOL    HW2 9303   3.939   5.167   1.518 -0.9305  1.3489  0.7878
35766SOL     OW 9304   4.042   9.874   0.225  0.4492 -0.1993  0.2003
35766SOL    HW1 9305   4.107   9.809   0.251 -0.8094 -2.5243 -2.0296
35766SOL    HW2 9306   4.053   9.882   0.130 -1.0865  0.9889  0.0855
35767SOL     OW 9307   1.990   6.457   9.235  0.1740  0.1538 -0.2526
35767SOL    HW1 9308   2.071   6.415   9.204  0.5461 -0.1084  1.0082
35767SOL    HW2 9309   1.932   6.384   9.256  0.8071  0.1925  1.9075
35768SOL     OW 9310  11.019   6.326   8.553  0.1451  0.0089  0.2823
35768SOL    HW1 9311  11.107   6.314   8.588  0.4147 -0.0473 -0.3985
35768SOL    HW2 9312  11.022   6.284   8.467 -0.5897 -0.1273  0.3182
35769SOL     OW 9313   6.432   9.576   1.497 -0.0321  0.5066 -0.0724
35769SOL    HW1 9314   6.450   9.549   1.407 -1.8960 -0.4228 -0.2209
35769SOL    HW2 9315   6.518   9.583   1.538  0.8143  0.1779 -1.7008
35770SOL     OW 9316   4.956   9.442   2.896 -0.4975 -0.4648 -0.5380
35770SOL    HW1 9317   5.047   9.420   2.916  0.8873  2.7109 -2.5563
35770SOL    HW2 9318   4.951   9.437   2.800 -2.3521 -0.1990 -0.4899
35771SOL     OW 9319   0.107   3.231   4.739  0.1898  0.4038  0.3470
35771SOL    HW1 9320   0.028   3.181   4.763 -0.2441  0.8718 -0.0905
35771SOL    HW2 9321   0.179   3.174   4.765 -0.2902 -0.5619 -0.3624
35772SOL     OW 9322   6.486   1.276   0.649 -0.2076 -0.7582  0.3070
35772SOL    HW1 9323   6.502   1.331   0.573  0.2281 -0.6899  0.4468
35772SOL    HW2 9324   6.499   1.187   0.618  0.9398 -0.6800  0.5365
35773SOL     OW 9325   6.421  10.438   8.250 -0.2096  0.3159  0.3187
35773SOL    HW1 9326   6.504  10.405   8.285 -0.7361 -0.8634  0.4965
35773SOL    HW2 9327   6.390  10.499   8.318 -0.1381 -0.2585  0.8822
35774SOL     OW 9328   5.587  10.142   4.055 -0.5201 -0.1489  0.6008
35774SOL    HW1 9329   5.538  10.093   4.121 -0.7209 -1.2170 -0.3097
35774SOL    HW2 9330   5.679  10.130   4.079 -0.6338  1.1461  1.8178
35775SOL     OW 9331   7.357   8.905   7.205  0.4733  0.0733  0.6956
35775SOL    HW1 9332   7.294   8.843   7.242  0.6649 -0.3454  0.3267
35775SOL    HW2 9333   7.389   8.955   7.280  1.7228 -1.5391  1.2960
35776SOL     OW 9334  10.780   2.755  10.615  0.1638  0.2589 -0.2480
35776SOL    HW1 9335  10.800   2.840  10.654 -1.9842  0.5645  0.3136
35776SOL    HW2 9336  10.826   2.692  10.670  0.6066  0.9617  0.2012
35777SOL     OW 9337   4.855   6.859   6.592 -0.2754  0.7209  0.3851
35777SOL    HW1 9338   4.950   6.850   6.602 -0.4268  0.5364  1.7339
35777SOL    HW2 9339   4.845   6.934   6.533  0.7029  1.6386  1.3313
35778SOL     OW 9340   8.293   8.248   3.509 -0.0781 -0.3123  0.1233
35778SOL    HW1 9341   8.294   8.343   3.496 -3.1024  0.0974  1.9148
35778SOL    HW2 9342   8.363   8.232   3.573  0.5428  0.6530 -0.2885
35779SOL     OW 9343   7.645   7.585   3.752 -0.7952  0.2942 -0.6373
35779SOL    HW1 9344   7.563   7.618   3.788 -0.6857  0.3110 -0.3995
35779SOL    HW2 9345   7.633   7.490   3.750  0.3860 -0.0334  2.5259
35780SOL     OW 9346   7.951   1.116   7.887 -0.1766  0.2643 -0.0426
35780SOL    HW1 9347   7.915   1.092   7.802  0.6327 -1.2764  0.0098
35780SOL    HW2 9348   7.911   1.055   7.949  2.2944 -1.3976  0.0337
35781SOL     OW 9349   1.299   5.814   5.599 -0.0021  0.2025  0.0392
35781SOL    HW1 9350   1.346   5.837   5.519 -1.0894 -1.4966 -1.1685
35781SOL    HW2 9351   1.363   5.825   5.669  0.7695  2.4652 -0.9202
35782SOL     OW 9352   5.001   7.556   6.602 -0.5327 -0.2352  0.7812
35782SOL    HW1 9353   4.920   7.542   6.651 -1.1746 -1.8816 -0.6512
35782SOL    HW2 9354   5.022   7.470   6.566  0.4067  0.7005 -1.0300
35783SOL     OW 9355   7.481   0.651   6.388  0.4076  0.2512  0.6189
35783SOL    HW1 9356   7.388   0.656   6.367  0.3405 -1.2539  0.4561
35783SOL    HW2 9357   7.524   0.697   6.315 -0.1506  0.1106  0.1918
35784SOL     OW 9358   9.589  10.582   4.629 -0.5103 -0.6520 -0.7347
35784SOL    HW1 9359   9.682  10.600   4.617 -0.4666 -1.8440 -2.6025
35784SOL    HW2 9360   9.566  10.626   4.710  1.3081  1.0181 -1.0666
35785SOL     OW 9361   8.159   1.006   5.320  0.0231  0.0655  0.4729
35785SOL    HW1 9362   8.124   0.926   5.358  0.6467 -1.3196 -1.6644
35785SOL    HW2 9363   8.247   1.014   5.358  0.2734 -0.7422  0.0724
35786SOL     OW 9364   9.878   1.466  10.518 -0.3628 -0.3678 -0.2728
35786SOL    HW1 9365   9.811   1.397  10.518 -1.2979  0.5093  1.0423
35786SOL    HW2 9366   9.910   1.467  10.428 -1.3433 -1.5474 -0.6685
35787SOL     OW 9367   6.300   0.347   5.679 -0.0124  0.1902 -0.1860
35787SOL    HW1 9368   6.270   0.396   5.602 -0.5557 -1.7968 -1.3310
35787SOL    HW2 9369   6.377   0.298   5.647  0.3328  0.0618  0.8101
35788SOL     OW 9370   0.727  10.411   5.003  0.1558 -0.3393 -0.1079
35788SOL    HW1 9371   0.680  10.492   4.984  0.0938 -0.2217  0.5242
35788SOL    HW2 9372   0.817  10.429   4.977 -0.1680 -0.6180 -1.4668
35789SOL     OW 9373   6.600   1.997   9.848 -0.1327  0.0182  0.0771
35789SOL    HW1 9374   6.565   2.081   9.818 -0.8646 -1.0158 -2.1644
35789SOL    HW2 9375   6.546   1.975   9.924 -2.3581 -0.0253 -1.4251
35790SOL     OW 9376   2.480   2.517   3.008  0.0827 -0.6710  0.0191
35790SOL    HW1 9377   2.557   2.515   2.951  0.6844 -0.1737  0.8006
35790SOL    HW2 9378   2.427   2.590   2.974 -0.2666 -1.2642 -0.7684
35791SOL     OW 9379  10.817   7.953   4.483 -0.1356 -0.6715 -0.0457
35791SOL    HW1 9380  10.890   7.979   4.428 -0.8717  0.2357 -0.6202
35791SOL    HW2 9381  10.739   7.979   4.433 -0.8286  1.1134  1.8268
35792SOL     OW 9382   7.410   9.656   2.484  0.1809  0.7811 -0.4494
35792SOL    HW1 9383   7.410   9.571   2.440  1.2009  2.4155 -3.9604
35792SOL    HW2 9384   7.502   9.679   2.494 -0.0444  2.2565 -1.3798
35793SOL     OW 9385   5.321   0.930   5.850  0.4624 -0.0644  0.2162
35793SOL    HW1 9386   5.229   0.941   5.826  0.8780  1.6091 -0.8096
35793SOL    HW2 9387   5.347   1.015   5.885  1.3003 -0.9100  1.7609
35794SOL     OW 9388   4.304   5.010   7.881  0.5501 -0.6811  0.4384
35794SOL    HW1 9389   4.321   4.938   7.821 -0.1275 -0.3306 -0.1853
35794SOL    HW2 9390   4.314   5.089   7.828 -1.8917 -0.4076  0.2631
35795SOL     OW 9391   5.001   8.996   3.355  0.2182  0.6406 -0.0048
35795SOL    HW1 9392   5.060   8.985   3.280 -0.8571  1.9580 -1.1248
35795SOL    HW2 9393   5.028   9.079   3.394 -0.5166  0.9793 -0.1999
35796SOL     OW 9394   0.877   8.940   1.723 -0.0615 -0.3288 -0.3305
35796SOL    HW1 9395   0.888   9.004   1.793  1.3497 -0.4814 -0.3962
35796SOL    HW2 9396   0.801   8.972   1.674  0.0795  0.8119  0.1547
35797SOL     OW 9397   2.081   2.144   6.022  0.1255 -0.0226 -0.6491
35797SOL    HW1 9398   2.145   2.073   6.026  0.5650  0.3938 -0.1757
35797SOL    HW2 9399   2.085   2.175   5.931  0.9501  0.3136 -0.5090
35798SOL     OW 9400   2.693  10.255   8.233  0.0717 -0.1473 -0.6380
35798SOL    HW1 9401   2.776  10.298   8.210  0.1828  0.0796  0.1638
35798SOL    HW2 9402   2.717  10.191   8.301 -0.5923  0.8502  0.5790
35799SOL     OW 9403   0.372   7.503   5.035 -0.5146  0.5947 -0.0186
35799SOL    HW1 9404   0.300   7.452   5.073  0.3710 -0.6858  0.0134
35799SOL    HW2 9405   0.361   7.495   4.941 -0.8323  1.0229 -0.0200
35800SOL     OW 9406   6.140   1.710   7.660  0.2219  0.2878  0.0757
35800SOL    HW1 9407   6.155   1.624   7.621  2.6717  0.2955  0.7864
35800SOL    HW2 9408   6.077   1.694   7.730  3.2208 -1.8310  2.6443
35801SOL     OW 9409   2.444  10.993   6.223 -0.3198  0.3430  0.3407
35801SOL    HW1 9410   2.433  11.032   6.309  1.2037  1.5718  0.0330
35801SOL    HW2 9411   2.539  10.992   6.209 -0.5253  0.0847 -1.2747
35802SOL     OW 9412   1.270   5.618   8.289  0.3735  0.2736 -0.2835
35802SOL    HW1 9413   1.325   5.680   8.338 -0.4477  1.8356 -1.2395
35802SOL    HW2 9414   1.204   5.673   8.247 -1.5189 -1.4549  0.2487
35803SOL     OW 9415   9.817   2.768   0.507  0.0530  0.1810  0.0767
35803SOL    HW1 9416   9.728   2.793   0.533  0.0380 -0.5736  0.8091
35803SOL    HW2 9417   9.870   2.844   0.529 -0.4375  0.7333 -0.5889
35804SOL     OW 9418   9.041   9.010   4.311 -0.0153  0.1899 -0.2873
35804SOL    HW1 9419   9.096   9.028   4.235 -2.7703 -0.9343 -2.7742
35804SOL    HW2 9420   9.074   8.928   4.347  1.7229  1.0667  0.1973
35805SOL     OW 9421   7.431   0.097  10.060  0.6060  0.4625  0.1956
35805SOL    HW1 9422   7.405   0.168  10.002 -1.3244  0.4456  0.9658
35805SOL    HW2 9423   7.380   0.022  10.031 -0.0859  0.3524  1.6238
35806SOL     OW 9424   3.041   5.477   7.726  0.4537  0.3751  0.2029
35806SOL    HW1 9425   3.097   5.554   7.715  1.5537 -0.2361  1.2157
35806SOL    HW2 9426   2.952   5.511   7.727  0.6565  1.2486 -2.8110
35807SOL     OW 9427   1.754   9.755   7.737  0.8279  0.1064  0.2382
35807SOL    HW1 9428   1.663   9.728   7.725  1.2429 -0.0550 -4.3702
35807SOL    HW2 9429   1.748   9.845   7.769 -0.9415  0.1066 -0.0035
35808SOL     OW 9430   0.480   2.435  10.958  0.0678  0.6254  0.8080
35808SOL    HW1 9431   0.558   2.390  10.925 -0.3003  1.7424 -1.7368
35808SOL    HW2 9432   0.510   2.477  11.039  2.6687  2.5365 -0.9946
35809SOL     OW 9433   5.848   2.063   4.621  0.0602  0.2115 -0.4193
35809SOL    HW1 9434   5.864   2.023   4.535 -0.1639 -1.6408  0.3496
35809SOL    HW2 9435   5.766   2.024   4.651  1.0243 -0.5653  1.3747
35810SOL     OW 9436   4.773   0.175   5.870  0.2198  0.6496 -0.5473
35810SOL    HW1 9437   4.795   0.182   5.778 -0.2846  1.0190 -0.6441
35810SOL    HW2 9438   4.677   0.167   5.872  0.1477  1.5284 -0.0145
35811SOL     OW 9439  10.727  10.764   5.156  0.2781 -0.1732  0.5928
35811SOL    HW1 9440  10.821  10.776   5.146  0.3448 -0.1213  1.2437
35811SOL    HW2 9441  10.713  10.670   5.141  0.5048 -0.2734  0.9916
35812SOL     OW 9442   8.155   0.096   5.498 -0.1715 -0.4241 -0.4587
35812SOL    HW1 9443   8.100   0.145   5.559 -0.1617  0.4180 -1.1144
35812SOL    HW2 9444   8.235   0.147   5.492  1.1167 -2.0849  1.1806
35813SOL     OW 9445   6.475   9.950   6.803  0.0191 -0.6294  0.0893
35813SOL    HW1 9446   6.563   9.944   6.765 -0.4227 -0.3490 -1.0160
35813SOL    HW2 9447   6.417   9.959   6.728 -0.9826 -0.9955  0.7966
35814SOL     OW 9448   9.919   6.652   2.680  0.6169 -0.1074 -0.0176
35814SOL    HW1 9449   9.827   6.639   2.658  0.8868 -0.0418 -1.2666
35814SOL    HW2 9450   9.929   6.610   2.766 -0.6550  0.2453  0.3200
35815SOL     OW 9451  10.830   6.479   5.720  0.0663 -0.4194 -0.6488
35815SOL    HW1 9452  10.805   6.408   5.779  0.9439 -0.8720 -0.8016
35815SOL    HW2 9453  10.791   6.557   5.759  0.4492 -0.7411  0.4271
35816SOL     OW 9454   7.012   4.901   8.584 -0.2446  0.1785  0.7120
35816SOL    HW1 9455   6.922   4.927   8.603 -0.3970  0.5824 -0.4268
35816SOL    HW2 9456   7.066   4.954   8.643 -0.6527  1.7494 -0.2450
35817SOL     OW 9457   7.659   5.170   7.483  0.1384  0.2106 -0.4219
35817SOL    HW1 9458   7.690   5.084   7.513  2.4109  0.6364 -1.3037
35817SOL    HW2 9459   7.731   5.203   7.429 -2.0061  1.2738 -2.8286
35818SOL     OW 9460   3.061   8.710   5.633  0.2897  0.2494  0.0527
35818SOL    HW1 9461   2.984   8.765   5.618 -0.8153 -1.0284  0.8577
35818SOL    HW2 9462   3.094   8.738   5.718  0.0268  0.0158  0.2327
35819SOL     OW 9463   2.986  10.695   4.730 -0.0560 -0.7957 -0.2426
35819SOL    HW1 9464   2.908  10.751   4.725  0.9133  0.6153 -0.2649
35819SOL    HW2 9465   3.060  10.757   4.730  1.0328 -2.0232  1.0942
35820SOL     OW 9466   8.802   6.776   0.488 -0.3485 -0.3196 -0.1642
35820SOL    HW1 9467   8.868   6.708   0.504 -0.1576 -0.5866 -1.9316
35820SOL    HW2 9468   8.828   6.817   0.406 -1.3248  0.8837  0.0857
35821SOL     OW 9469   0.086   5.244  10.177  0.0482  0.5717  0.0393
35821SOL    HW1 9470   0.109   5.170  10.234  0.6700 -0.2820 -1.2795
35821SOL    HW2 9471   0.163   5.299  10.177 -0.2958  1.0677  0.7571
35822SOL     OW 9472   6.001   0.098   3.135 -0.0203  0.0796  0.0453
35822SOL    HW1 9473   5.968   0.186   3.122  0.6064  0.1282 -1.4031
35822SOL    HW2 9474   6.077   0.092   3.077 -0.9086 -1.8650 -1.0090
35823SOL     OW 9475   9.308   1.026   6.224  0.1908  0.2811 -0.1548
35823SOL    HW1 9476   9.342   1.061   6.141 -0.0176 -0.7055 -0.6693
35823SOL    HW2 9477   9.363   0.951   6.243 -0.0131  0.2715  0.4054
35824SOL     OW 9478   2.520   4.045   9.519 -0.0965  0.0524  0.1786
35824SOL    HW1 9479   2.426   4.026   9.522 -0.1387  0.2262 -0.0188
35824SOL    HW2 9480   2.562   3.959   9.518 -0.3153 -0.0717 -1.8861
35825SOL     OW 9481   9.741   1.025   7.388  0.1193 -0.0571 -0.6645
35825SOL    HW1 9482   9.824   1.025   7.436  0.7799  0.4572 -1.7939
35825SOL    HW2 9483   9.708   1.115   7.397  1.3898  0.7348 -3.0539
35826SOL     OW 9484   3.173   1.406   5.791  0.0393  0.5847 -0.4731
35826SOL    HW1 9485   3.215   1.492   5.793  0.6839  0.2727 -0.1044
35826SOL    HW2 9486   3.228   1.354   5.732 -0.0814  0.2922 -0.3296
35827SOL     OW 9487   7.402   6.297   8.054 -0.3630  0.0224  0.9536
35827SOL    HW1 9488   7.472   6.252   8.007  0.2621  2.1017 -0.2176
35827SOL    HW2 9489   7.410   6.266   8.145  4.0299  2.3280  1.5921
35828SOL     OW 9490  10.299   3.099   7.683  0.1514 -0.2056 -0.3301
35828SOL    HW1 9491  10.293   3.009   7.650  2.2457 -0.6131  0.2798
35828SOL    HW2 9492  10.219   3.112   7.733 -0.8157 -1.2390 -1.5518
35829SOL     OW 9493  10.884   1.262   7.000  0.3613 -0.7416  0.3235
35829SOL    HW1 9494  10.945   1.218   7.059  0.0412 -1.0186  0.4554
35829SOL    HW2 9495  10.884   1.353   7.027  1.5834 -0.5092 -0.4160
35830SOL     OW 9496  10.106   9.424   3.419  0.3642 -0.0944  0.1797
35830SOL    HW1 9497  10.153   9.496   3.377 -2.3813  2.4746  1.0894
35830SOL    HW2 9498  10.171   9.381   3.474  2.0021  2.2046  0.1849
35831SOL     OW 9499   1.570   8.869   1.321  0.3132  0.8111 -0.5900
35831SOL    HW1 9500   1.648   8.814   1.319 -0.2021  0.0781 -0.7615
35831SOL    HW2 9501   1.589   8.940   1.259  0.2986 -0.1059 -1.6735
35832SOL     OW 9502   2.642   7.660   3.616  0.3592 -0.4111 -0.0375
35832SOL    HW1 9503   2.671   7.751   3.611 -0.0462 -0.2164  0.9124
35832SOL    HW2 9504   2.551   7.666   3.647  0.6625 -1.1686  1.0485
35833SOL     OW 9505   6.676  11.004   5.721  0.0554  0.1073 -0.5659
35833SOL    HW1 9506   6.721  10.958   5.792 -0.5617  0.7648  0.2670
35833SOL    HW2 9507   6.743  11.061   5.683 -0.0437  1.0537  0.6388
35834SOL     OW 9508   1.531   6.931   6.933  0.8522 -0.3771 -0.0497
35834SOL    HW1 9509   1.532   7.011   6.881  1.5247  0.0956  0.6775
35834SOL    HW2 9510   1.439   6.905   6.934  0.6492  0.3036 -0.4224
35835SOL     OW 9511   4.917   3.110   9.677  0.0351 -0.0387 -0.3404
35835SOL    HW1 9512   4.963   3.031   9.648 -2.2407 -1.8166  0.6038
35835SOL    HW2 9513   4.987   3.168   9.708  1.6946 -2.5604  1.0233
35836SOL     OW 9514   6.454  10.164   8.700  0.4939 -0.1179  0.0432
35836SOL    HW1 9515   6.544  10.193   8.714  0.4837 -0.0312 -0.0724
35836SOL    HW2 9516   6.402  10.244   8.702  0.5586 -0.0432 -1.0390
35837SOL     OW 9517  10.332   4.554   7.228  0.1271  0.0461  0.5047
35837SOL    HW1 9518  10.245   4.588   7.248 -0.1101 -1.2109  1.8180
35837SOL    HW2 9519  10.389   4.590   7.296  0.3812 -0.0860  0.3654
35838SOL     OW 9520   0.814   1.321   9.750  0.6049 -0.3054 -0.7420
35838SOL    HW1 9521   0.743   1.266   9.715  0.3392 -0.9796  0.7500
35838SOL    HW2 9522   0.814   1.302   9.844  2.3317  0.1980 -0.6055
35839SOL     OW 9523  10.074   9.226   7.666 -0.0442  0.6716 -0.1949
35839SOL    HW1 9524  10.012   9.248   7.736 -1.6836 -0.1857 -1.2960
35839SOL    HW2 9525  10.126   9.154   7.702  0.0435  1.1166  0.5961
35840SOL     OW 9526   4.074   0.613   0.816 -0.4295 -0.1426  0.4082
35840SOL    HW1 9527   4.155   0.571   0.844  0.2025 -0.1811 -1.3867
35840SOL    HW2 9528   4.006   0.547   0.834  0.0560 -0.5014  0.9777
35841SOL     OW 9529   9.836  10.140   1.253 -0.5532  0.5610  0.5217
35841SOL    HW1 9530   9.900  10.069   1.247  0.1194  1.2487 -0.9039
35841SOL    HW2 9531   9.767  10.117   1.191 -0.2086  1.2535 -0.1345
35842SOL     OW 9532   8.288   4.959   2.791 -0.3132 -0.3988 -0.3419
35842SOL    HW1 9533   8.308   4.988   2.880 -0.2740 -0.4351 -0.3390
35842SOL    HW2 9534   8.370   4.967   2.743 -0.6011  0.7328 -0.6796
35843SOL     OW 9535   9.121   0.421   9.259  0.0026 -0.3391 -0.3092
35843SOL    HW1 9536   9.171   0.353   9.213 -0.9499 -2.1312  1.1991
35843SOL    HW2 9537   9.031   0.408   9.229 -0.0523  0.9401 -0.7553
35844SOL     OW 9538   4.912   2.843   5.067 -0.4541  0.0309 -0.1256
35844SOL    HW1 9539   4.869   2.773   5.019  0.1260  0.2876 -1.0504
35844SOL    HW2 9540   4.959   2.893   5.000  0.2551  0.4909  0.6891
35845SOL     OW 9541   0.035   8.271   2.995 -0.1281 -0.1991 -0.2250
35845SOL    HW1 9542   0.027   8.366   3.004 -2.5932 -0.3956  0.1806
35845SOL    HW2 9543  -0.048   8.237   3.026  0.2520 -2.4446 -1.4949
35846SOL     OW 9544   7.915  11.097   5.311  0.0015 -0.0528 -0.4016
35846SOL    HW1 9545   7.985  11.116   5.374  0.3549 -2.7012  0.1317
35846SOL    HW2 9546   7.840  11.074   5.365  0.3003 -2.3384 -0.8425
35847SOL     OW 9547   3.844   4.057   2.298 -0.1086  0.1992 -0.9455
35847SOL    HW1 9548   3.857   4.054   2.203 -1.3288  1.0380 -1.1559
35847SOL    HW2 9549   3.795   4.137   2.314 -2.1201 -1.1564  0.1038
35848SOL     OW 9550   1.595   7.965  10.827 -0.2682  0.4811  0.3303
35848SOL    HW1 9551   1.626   7.875  10.836 -0.3198  0.4593  0.2794
35848SOL    HW2 9552   1.512   7.958  10.780 -1.2978  0.3737  2.0628
35849SOL     OW 9553   6.190   6.836   1.992 -0.6124 -0.2217  0.1250
35849SOL    HW1 9554   6.203   6.874   1.905 -1.4507 -0.1041  0.0438
35849SOL    HW2 9555   6.244   6.758   1.992 -0.0191  0.1798 -0.2356
35850SOL     OW 9556   8.806   2.739   7.270 -0.5716  0.0366 -0.4507
35850SOL    HW1 9557   8.901   2.733   7.270 -0.6148 -1.0076 -1.7120
35850SOL    HW2 9558   8.783   2.758   7.361  0.7799 -0.7209  0.0766
35851SOL     OW 9559   8.328  10.984   4.427 -0.5522  0.4235  0.3298
35851SOL    HW1 9560   8.298  10.948   4.510  2.3477  1.8068  2.1392
35851SOL    HW2 9561   8.363  10.909   4.380 -0.5050 -0.1029  1.1834
35852SOL     OW 9562  10.898   9.436   7.696  0.0826 -0.2748  0.3214
35852SOL    HW1 9563  10.902   9.516   7.643 -3.5617  0.3179  0.6155
35852SOL    HW2 9564  10.914   9.365   7.634  1.5107  0.5832 -0.3444
35853SOL     OW 9565   0.298  10.188   6.922 -0.4742  0.3005 -0.6335
35853SOL    HW1 9566   0.256  10.159   6.841 -0.2342 -0.0662 -0.6302
35853SOL    HW2 9567   0.392  10.183   6.905 -0.3940 -0.8181  0.0004
35854SOL     OW 9568   9.540   2.717   7.026 -0.4007 -0.3233  0.5731
35854SOL    HW1 9569   9.578   2.629   7.024 -1.7273 -0.9404  1.1683
35854SOL    HW2 9570   9.589   2.763   7.095  0.8758 -0.2968 -0.3261
35855SOL     OW 9571   4.711   9.618  10.028 -0.0860 -0.5363  0.4153
35855SOL    HW1 9572   4.764   9.544   9.997 -0.3242 -1.5196  2.2253
35855SOL    HW2 9573   4.626   9.606   9.987  0.3306 -0.3426 -0.5441
35856SOL     OW 9574   4.322  10.212   2.841  0.0311 -0.5800  0.2515
35856SOL    HW1 9575   4.272  10.262   2.776  0.9210 -0.8137 -0.6557
35856SOL    HW2 9576   4.285  10.124   2.837  0.6022 -0.7997 -0.5520
35857SOL     OW 9577   9.076   3.130   8.251 -0.1583 -0.5148 -0.1558
35857SOL    HW1 9578   9.023   3.180   8.312 -0.9428  0.3469 -1.5065
35857SOL    HW2 9579   9.157   3.111   8.299  1.0982  3.8234 -0.1858
35858SOL     OW 9580   1.282   4.771   3.699 -0.1763  0.3197  0.3372
35858SOL    HW1 9581   1.364   4.734   3.666 -1.0874 -3.5442  1.8559
35858SOL    HW2 9582   1.220   4.760   3.627 -0.4619 -1.5249  0.7938
35859SOL     OW 9583   6.979   0.014  10.048  0.0329 -0.6147 -0.1060
35859SOL    HW1 9584   6.894  -0.022  10.072 -0.3932  0.5319  0.1921
35859SOL    HW2 9585   6.962   0.063   9.967  0.7997 -1.8455 -1.0521
35860SOL     OW 9586   7.639   4.111   7.691  0.0996  0.8890  0.2876
35860SOL    HW1 9587   7.553   4.072   7.708 -0.1059  0.7231 -1.0048
35860SOL    HW2 9588   7.698   4.035   7.684  0.0918  0.9255 -0.1793
35861SOL     OW 9589   9.401   1.990   8.844  0.2138 -0.0820 -0.0295
35861SOL    HW1 9590   9.334   2.051   8.815  1.9024  1.2618 -1.3054
35861SOL    HW2 9591   9.365   1.903   8.824 -1.3854  0.5619 -0.0614
35862SOL     OW 9592   8.096  10.257   3.520 -0.2959 -0.0970 -0.2279
35862SOL    HW1 9593   8.128  10.179   3.476  1.6896  0.5626 -0.0530
35862SOL    HW2 9594   8.168  10.320   3.514 -0.3921  0.4801  2.7823
35863SOL     OW 9595   4.500   0.893   3.468  0.3180  0.3826 -0.8980
35863SOL    HW1 9596   4.478   0.873   3.377  0.7637  0.5331 -1.0437
35863SOL    HW2 9597   4.532   0.810   3.504  1.0561  0.5494 -1.1612
35864SOL     OW 9598   0.614   0.061   9.880 -0.3968  0.6486 -0.3724
35864SOL    HW1 9599   0.619   0.148   9.841 -0.0170  1.7747  2.0344
35864SOL    HW2 9600   0.603   0.077   9.974  2.5555 -1.8239  0.5595
35865SOL     OW 9601   9.214   5.407   1.198 -0.1142 -0.0246  0.5260
35865SOL    HW1 9602   9.143   5.471   1.189 -1.2414 -1.4986 -2.1823
35865SOL    HW2 9603   9.169   5.323   1.210  1.0365 -1.1176 -2.0766
35866SOL     OW 9604   9.771   7.518  10.455  0.2241 -0.3599  0.0248
35866SOL    HW1 9605   9.832   7.464  10.404 -1.1273 -0.9336 -1.0207
35866SOL    HW2 9606   9.817   7.601  10.466  2.0669 -1.4366  1.0610
35867SOL     OW 9607   5.721   9.602   6.603 -0.2332 -0.2074 -0.5836
35867SOL    HW1 9608   5.742   9.545   6.677 -0.7291  1.5151  0.9575
35867SOL    HW2 9609   5.713   9.689   6.641 -1.9490  0.5311 -2.4191
35868SOL     OW 9610   0.889   8.538   2.683  0.8290 -0.5650  0.2702
35868SOL    HW1 9611   0.857   8.627   2.693  2.2083 -0.1855  1.7146
35868SOL    HW2 9612   0.895   8.525   2.589 -0.6661  0.3670  0.0133
35869SOL     OW 9613   5.182   8.160   4.044 -0.3439  0.0751 -0.0056
35869SOL    HW1 9614   5.153   8.119   3.962  1.9137 -0.9506 -0.3593
35869SOL    HW2 9615   5.245   8.099   4.080  0.9034  1.8700  1.0082
35870SOL     OW 9616   4.653   2.336   4.728  0.6469  0.4332 -0.2616
35870SOL    HW1 9617   4.669   2.376   4.813 -1.0838 -0.4877  0.5559
35870SOL    HW2 9618   4.736   2.296   4.703  1.1696  0.7209  0.9864
35871SOL     OW 9619   6.618   7.728   4.662  0.8247 -0.0963  0.0669
35871SOL    HW1 9620   6.612   7.635   4.685 -0.0230  0.2248  1.2822
35871SOL    HW2 9621   6.637   7.729   4.569 -1.5361 -1.5047 -0.5278
35872SOL     OW 9622   5.680   9.406   7.993 -0.5236 -0.0524  0.0387
35872SOL    HW1 9623   5.681   9.486   8.045  0.2197 -0.9969  1.5418
35872SOL    HW2 9624   5.599   9.362   8.018  0.3118 -0.9873  1.2127
35873SOL     OW 9625   4.708  10.418   0.023  0.1499 -0.3215 -0.1955
35873SOL    HW1 9626   4.731  10.359   0.095  2.3578 -0.4764 -0.9667
35873SOL    HW2 9627   4.776  10.404  -0.042 -0.5059  1.5031 -1.3393
35874SOL     OW 9628  10.958   1.111   8.779  0.4903  0.1972  0.3766
35874SOL    HW1 9629  11.019   1.037   8.782  0.1588 -0.1154 -0.3775
35874SOL    HW2 9630  11.010   1.184   8.744  0.4822 -0.0165 -0.0816
35875SOL     OW 9631   9.939   9.686   6.072 -0.3329  0.0299 -0.1956
35875SOL    HW1 9632   9.910   9.698   6.162  0.4030  0.8229 -0.0564
35875SOL    HW2 9633   9.890   9.609   6.041 -0.2387 -0.5348  1.0207
35876SOL     OW 9634   4.111  10.656   6.615 -0.4411 -0.1070 -0.2158
35876SOL    HW1 9635   4.112  10.689   6.705 -0.6541 -1.5674  0.3497
35876SOL    HW2 9636   4.033  10.697   6.576 -2.1823 -1.7916  1.2421
35877SOL     OW 9637   0.270   0.710   2.372 -0.0429 -0.3388  0.2589
35877SOL    HW1 9638   0.227   0.628   2.396 -0.3815 -0.6133 -1.1633
35877SOL    HW2 9639   0.203   0.759   2.326  0.4394  0.3354  0.2631
35878SOL     OW 9640   6.506   0.427   2.718 -0.1612  0.7232  0.1162
35878SOL    HW1 9641   6.467   0.501   2.764  0.8366  1.0980  0.3844
35878SOL    HW2 9642   6.506   0.356   2.781 -0.8770  0.5731 -0.0533
35879SOL     OW 9643   3.557   8.937   6.317 -0.2758  0.5900  0.3391
35879SOL    HW1 9644   3.517   8.931   6.404 -0.0599  0.6502  0.4436
35879SOL    HW2 9645   3.651   8.938   6.334 -0.1979 -0.5857  0.0313
35880SOL     OW 9646   9.045   1.184   7.472  0.1263 -0.3658 -0.4165
35880SOL    HW1 9647   9.085   1.266   7.442 -1.6385  1.0859  0.9500
35880SOL    HW2 9648   8.962   1.180   7.425 -1.1992  0.2792  1.7415
35881SOL     OW 9649  10.040   0.709   6.134 -0.0986  0.5767  1.1503
35881SOL    HW1 9650  10.054   0.716   6.228  0.7536  0.2771  1.0537
35881SOL    HW2 9651  10.128   0.699   6.097 -0.3588  1.3188  0.2688
35882SOL     OW 9652   8.768   1.280   6.526  0.1101 -0.6023 -1.1750
35882SOL    HW1 9653   8.755   1.187   6.508 -0.8182 -0.6330 -0.4409
35882SOL    HW2 9654   8.849   1.303   6.480  1.7383 -2.3755  0.6356
35883SOL     OW 9655   7.508   7.369   1.057  0.1920  0.1964  0.6798
35883SOL    HW1 9656   7.480   7.461   1.056 -0.4063  0.0301  1.5665
35883SOL    HW2 9657   7.436   7.322   1.014  0.8664  0.2216 -0.5353
35884SOL     OW 9658   0.157   6.692   2.354 -0.1773 -0.1775 -0.1863
35884SOL    HW1 9659   0.137   6.652   2.270 -1.2151  1.8277 -0.9571
35884SOL    HW2 9660   0.073   6.723   2.387  0.2192 -0.8132  1.5747
35885SOL     OW 9661   9.035   1.452   1.672 -0.1408  0.0125  0.2149
35885SOL    HW1 9662   9.051   1.374   1.724  2.2456  0.5662  0.4555
35885SOL    HW2 9663   8.972   1.425   1.605 -1.4900 -1.3168  1.9653
35886SOL     OW 9664   1.217   5.695   4.104  0.5253 -0.4186 -0.7324
35886SOL    HW1 9665   1.137   5.740   4.129  1.3932  0.7257  0.0831
35886SOL    HW2 9666   1.222   5.620   4.163  1.3780  0.9864  1.0810
35887SOL     OW 9667   2.854   8.124   4.168 -0.2533 -0.0629  0.2554
35887SOL    HW1 9668   2.835   8.036   4.134 -1.6006 -0.0870  0.9999
35887SOL    HW2 9669   2.943   8.118   4.202 -0.2780 -1.1006  0.1747
35888SOL     OW 9670   2.665   6.841   5.568  0.1066 -0.0362  0.3418
35888SOL    HW1 9671   2.697   6.930   5.560 -0.5936  0.2304  0.4418
35888SOL    HW2 9672   2.620   6.839   5.652 -0.5345 -0.2719  0.0013
35889SOL     OW 9673   8.215   5.498   9.799  0.1757  0.1635  0.5196
35889SOL    HW1 9674   8.149   5.430   9.787  1.9044 -1.5588  0.2577
35889SOL    HW2 9675   8.210   5.550   9.719 -1.1627  0.3691  0.7088
35890SOL     OW 9676   8.656   6.566  10.886 -0.6919 -0.7172  0.3248
35890SOL    HW1 9677   8.572   6.520  10.884 -1.1396  0.0988 -1.1595
35890SOL    HW2 9678   8.644   6.640  10.827  1.0147 -0.4471  0.2724
35891SOL     OW 9679  10.264   2.789   9.744  0.3785 -0.4780 -0.4476
35891SOL    HW1 9680  10.315   2.770   9.666  0.5456 -3.5651  0.2933
35891SOL    HW2 9681  10.328   2.795   9.815  0.3531  3.3426 -0.5129
35892SOL     OW 9682   4.750  10.867   2.898  0.2467 -0.2796  0.1271
35892SOL    HW1 9683   4.827  10.920   2.877  0.3027  0.0932  1.2268
35892SOL    HW2 9684   4.767  10.782   2.857  0.0278  0.6129 -1.8960
35893SOL     OW 9685   6.481  11.058   9.769 -0.0512 -0.7008  0.1394
35893SOL    HW1 9686   6.425  11.112   9.714  0.2402 -0.2239  0.3079
35893SOL    HW2 9687   6.457  11.084   9.859  1.6479  0.7777  0.2124
35894SOL     OW 9688   6.876   2.259   4.858 -0.4572 -0.2934  0.0560
35894SOL    HW1 9689   6.810   2.241   4.791 -1.0668  3.8245 -0.7317
35894SOL    HW2 9690   6.826   2.288   4.934  0.3732 -1.5221  1.1191
35895SOL     OW 9691   5.590   0.345   8.515  0.0178 -0.0505 -0.0698
35895SOL    HW1 9692   5.685   0.329   8.516 -0.3590 -2.8128  0.2007
35895SOL    HW2 9693   5.553   0.264   8.481 -2.2782  1.0147 -0.2718
35896SOL     OW 9694   7.525   2.088   5.087 -0.2585  0.7362 -0.8049
35896SOL    HW1 9695   7.490   2.131   5.009 -0.7138 -0.5052 -1.3154
35896SOL    HW2 9696   7.451   2.082   5.147 -0.3050  0.3331 -0.8964
35897SOL     OW 9697   7.057   8.417  10.717  0.1615  0.1890  0.8899
35897SOL    HW1 9698   7.080   8.335  10.761  1.1181  0.1980  0.4150
35897SOL    HW2 9699   7.137   8.444  10.672 -0.7751  0.1950 -0.8511
35898SOL     OW 9700   4.219   2.472  10.506  0.2177  0.1341 -0.3226
35898SOL    HW1 9701   4.130   2.445  10.488  0.3425 -0.0603 -0.6460
35898SOL    HW2 9702   4.274   2.408  10.462  0.5533 -0.9732  1.5918
35899SOL     OW 9703   1.702   5.918   3.379  0.0514 -0.6280 -0.2719
35899SOL    HW1 9704   1.659   5.840   3.414  1.7405 -0.4723  2.4557
35899SOL    HW2 9705   1.795   5.903   3.396  0.5158  1.5121 -0.6664
35900SOL     OW 9706   7.075   5.379   6.682 -0.1071  0.4665 -0.2836
35900SOL    HW1 9707   7.027   5.310   6.637  0.3325 -0.4992  0.6688
35900SOL    HW2 9708   7.090   5.446   6.616 -2.4771  0.6749 -0.6889
35901SOL     OW 9709   1.471   4.327   4.722 -0.2504  0.2410  0.6026
35901SOL    HW1 9710   1.565   4.320   4.706 -0.1637  2.4163 -0.1637
35901SOL    HW2 9711   1.433   4.349   4.637 -1.9469 -3.5915  0.1717
35902SOL     OW 9712   1.263  10.050   3.732  0.4907  0.3897  0.0410
35902SOL    HW1 9713   1.191  10.025   3.789 -0.2228 -0.5264 -1.2200
35902SOL    HW2 9714   1.341  10.012   3.773 -0.0292 -0.4067  0.3057
35903SOL     OW 9715   8.900   7.750   0.442  0.4928  0.2671  0.0759
35903SOL    HW1 9716   8.834   7.812   0.410 -1.0219 -1.5717 -0.5328
35903SOL    HW2 9717   8.981   7.776   0.398 -0.1222  1.7003 -0.2683
35904SOL     OW 9718  10.499   2.267   1.651 -0.6568 -0.6065 -0.0980
35904SOL    HW1 9719  10.569   2.329   1.671 -0.5216 -1.0605  0.8953
35904SOL    HW2 9720  10.521   2.189   1.702 -0.6922 -1.5772 -1.4934
35905SOL     OW 9721   9.288   0.397   7.313  0.0359 -0.2340 -0.2646
35905SOL    HW1 9722   9.255   0.485   7.296  0.0252  0.0334  1.0641
35905SOL    HW2 9723   9.349   0.407   7.386  0.2784 -1.2806 -0.3023
35906SOL     OW 9724   7.539   0.199   6.842  0.2895 -0.6534  0.5550
35906SOL    HW1 9725   7.475   0.252   6.891  1.4097  0.4436  0.8720
35906SOL    HW2 9726   7.526   0.224   6.751 -0.3564 -1.1403  0.5000
35907SOL     OW 9727   9.404   9.768   7.367  0.1583 -0.6134 -0.0510
35907SOL    HW1 9728   9.403   9.802   7.457 -3.5812 -2.0187  0.6069
35907SOL    HW2 9729   9.344   9.824   7.319  1.7830 -0.1515 -1.6516
35908SOL     OW 9730   5.757   2.890   9.898 -0.7253 -0.1186  0.3961
35908SOL    HW1 9731   5.837   2.899   9.949 -0.6268  3.2214 -0.1555
35908SOL    HW2 9732   5.687   2.924   9.954 -0.8954  1.8729 -0.9392
35909SOL     OW 9733   7.724   0.647  11.044  0.2574 -0.5196  0.0397
35909SOL    HW1 9734   7.701   0.618  10.956  3.6924 -2.2601 -0.4788
35909SOL    HW2 9735   7.772   0.573  11.082 -0.3185  0.5093  3.0715
35910SOL     OW 9736   3.932   6.528   8.917  0.0560 -0.8030 -0.1571
35910SOL    HW1 9737   3.895   6.616   8.918  0.4950 -0.6199 -0.2483
35910SOL    HW2 9738   3.942   6.506   9.010  1.2599 -0.2081 -0.1372
35911SOL     OW 9739   1.035  10.665   9.969  0.5947 -0.4103 -0.2001
35911SOL    HW1 9740   1.055  10.757   9.982 -0.6627 -0.3134  1.3234
35911SOL    HW2 9741   1.003  10.660   9.878  1.5844  0.4494 -0.6194
35912SOL     OW 9742   4.670   5.248   0.612  0.2721  0.1885  0.3030
35912SOL    HW1 9743   4.653   5.161   0.648 -0.5041  0.5033  0.7108
35912SOL    HW2 9744   4.763   5.264   0.630 -0.0443  0.2594  2.0160
35913SOL     OW 9745   6.337   0.857   7.923 -0.1260 -0.1021 -0.3535
35913SOL    HW1 9746   6.267   0.856   7.858 -0.7752  0.7980  0.3049
35913SOL    HW2 9747   6.315   0.785   7.983  2.0372 -2.8883 -2.6498
35914SOL     OW 9748   0.206  10.017   4.870  0.0003 -0.0911  0.0698
35914SOL    HW1 9749   0.149  10.094   4.879 -1.4893 -1.2805  1.4275
35914SOL    HW2 9750   0.146   9.944   4.855  1.2724 -1.1980  0.2054
35915SOL     OW 9751   7.225   6.933   6.201  0.3301  0.1813 -0.6714
35915SOL    HW1 9752   7.200   6.891   6.283 -1.8885  0.2002 -1.2809
35915SOL    HW2 9753   7.144   6.941   6.152  1.7460 -1.0171 -3.4478
35916SOL     OW 9754   2.095   5.854   4.512 -0.0765 -0.1027 -0.5758
35916SOL    HW1 9755   2.046   5.935   4.507  1.0763  0.6179 -0.6401
35916SOL    HW2 9756   2.184   5.881   4.536 -0.4042 -1.6167  2.8482
35917SOL     OW 9757   6.627   5.761   7.012  0.6811 -0.1568  0.1089
35917SOL    HW1 9758   6.624   5.820   6.936 -0.3128  0.1669  0.3896
35917SOL    HW2 9759   6.689   5.803   7.071  1.7773 -0.6155 -0.6696
35918SOL     OW 9760   4.358   2.665   6.707 -0.1948 -0.4534  0.4745
35918SOL    HW1 9761   4.379   2.595   6.645 -2.3494 -0.4282 -0.3491
35918SOL    HW2 9762   4.374   2.746   6.659  1.6845 -0.3084  1.2262
35919SOL     OW 9763   4.470   8.881  10.296  0.0190  0.1340 -0.0667
35919SOL    HW1 9764   4.520   8.933  10.359 -1.6146  1.4175  0.2196
35919SOL    HW2 9765   4.430   8.945  10.238  0.9655 -0.9997 -2.0742
35920SOL     OW 9766   0.588   0.195   0.447  0.5467 -0.2966 -0.2948
35920SOL    HW1 9767   0.560   0.210   0.357  0.5880 -0.6085 -0.3604
35920SOL    HW2 9768   0.615   0.104   0.449  1.1255 -0.1249 -0.1157
35921SOL     OW 9769   6.684   0.897   7.770 -0.0201  0.5871  0.3101
35921SOL    HW1 9770   6.779   0.896   7.782  0.2384  2.2980 -1.2184
35921SOL    HW2 9771   6.652   0.954   7.840 -0.4067 -2.7301  3.0860
35922SOL     OW 9772   2.498   1.724   3.394 -0.0588  0.0384 -0.0869
35922SOL    HW1 9773   2.461   1.641   3.362  2.0702 -0.2914 -1.9226
35922SOL    HW2 9774   2.482   1.785   3.322  0.6249  0.5479  0.1941
35923SOL     OW 9775   4.719   1.339   6.058 -0.0218  0.0502 -0.0183
35923SOL    HW1 9776   4.629   1.344   6.024  0.4955  0.5755 -1.4122
35923SOL    HW2 9777   4.755   1.260   6.018  0.1956 -0.0540  0.3810
35924SOL     OW 9778   9.210   8.388   0.884  0.0618  0.1167 -0.2027
35924SOL    HW1 9779   9.247   8.453   0.945 -1.4337 -0.2471  1.1429
35924SOL    HW2 9780   9.130   8.358   0.927  0.8707 -2.8936 -0.6237
35925SOL     OW 9781   1.524   1.959   9.671 -0.1735 -0.4317 -0.4780
35925SOL    HW1 9782   1.480   1.879   9.642  1.0071 -1.1285 -0.4071
35925SOL    HW2 9783   1.466   1.994   9.739 -0.5546 -1.3906 -0.2868
35926SOL     OW 9784   6.630   9.543   0.624  0.0902 -0.3747  0.1585
35926SOL    HW1 9785   6.540   9.540   0.590  0.6389  1.4947 -1.6395
35926SOL    HW2 9786   6.660   9.631   0.604  1.6043 -0.2125  2.7651
35927SOL     OW 9787   7.502   5.816  10.920  0.0492 -0.2980 -0.5493
35927SOL    HW1 9788   7.411   5.835  10.898 -0.1224 -0.7397 -0.2387
35927SOL    HW2 9789   7.513   5.851  11.008  0.4468  0.5673 -0.9329
35928SOL     OW 9790   8.875   1.873   9.689  0.2536 -0.1810  0.5200
35928SOL    HW1 9791   8.891   1.944   9.626 -0.9759  1.1205  1.5912
35928SOL    HW2 9792   8.780   1.859   9.685  0.1952 -0.2729  1.8397
35929SOL     OW 9793   1.190   2.883   3.227  0.0333 -0.0255  0.3287
35929SOL    HW1 9794   1.108   2.848   3.260  0.1685 -1.4177 -0.7002
35929SOL    HW2 9795   1.247   2.890   3.304 -0.8424  0.4210  0.9534
35930SOL     OW 9796   5.430  10.648   0.015 -0.1310 -0.1687 -0.0640
35930SOL    HW1 9797   5.382  10.567   0.027 -1.4856  0.0222 -3.2725
35930SOL    HW2 9798   5.511  10.621  -0.029  0.3039  0.0623  0.5764
35931SOL     OW 9799   9.155   8.046   1.964  0.0878  0.5849 -0.5838
35931SOL    HW1 9800   9.126   8.129   1.926  1.3776  1.5059  0.3755
35931SOL    HW2 9801   9.200   8.001   1.893 -0.2461  0.8829 -0.9920
35932SOL     OW 9802   9.225   6.737   9.520  0.5142  0.7709  0.1787
35932SOL    HW1 9803   9.267   6.655   9.545  0.3012  0.5827 -0.0729
35932SOL    HW2 9804   9.140   6.734   9.564  1.0624  1.5197  1.3571
35933SOL     OW 9805  10.257   5.995   8.762 -0.3220  0.6821 -0.6018
35933SOL    HW1 9806  10.350   5.984   8.782  0.1004 -0.0604 -2.6901
35933SOL    HW2 9807  10.211   5.958   8.838  1.0725  0.6951  0.2802
35934SOL     OW 9808   9.488   1.008   4.886  0.2176 -0.2797 -0.0089
35934SOL    HW1 9809   9.404   0.991   4.843  0.2222  1.1923 -0.6609
35934SOL    HW2 9810   9.548   0.944   4.848 -0.2861 -0.4115 -0.6005
35935SOL     OW 9811   8.834   0.966   5.446 -0.3685  0.0897 -0.2880
35935SOL    HW1 9812   8.816   1.024   5.372  1.5289  2.3569  0.8737
35935SOL    HW2 9813   8.895   0.901   5.412 -1.8791 -0.7880 -1.4187
35936SOL     OW 9814  10.127   8.089   3.011 -0.4305 -0.7428  0.2248
35936SOL    HW1 9815  10.194   8.149   3.044  0.1592 -0.9889 -0.5167
35936SOL    HW2 9816  10.050   8.107   3.066 -0.1134  0.3430  0.3328
35937SOL     OW 9817   8.971  10.343   1.487 -0.7417  0.0394  0.4750
35937SOL    HW1 9818   9.062  10.313   1.492 -0.8934 -0.2608  1.6205
35937SOL    HW2 9819   8.921  10.276   1.533 -1.8532 -0.9157 -1.9160
35938SOL     OW 9820   0.482   4.161   2.766  0.1409  0.0996  0.2089
35938SOL    HW1 9821   0.570   4.127   2.782  1.6986  3.7080  0.3459
35938SOL    HW2 9822   0.448   4.180   2.853 -0.9365 -1.4888  0.1688
35939SOL     OW 9823   5.838  10.720   3.443 -0.4063 -0.0169 -0.1828
35939SOL    HW1 9824   5.752  10.721   3.401 -0.9005  1.4258  0.8024
35939SOL    HW2 9825   5.819  10.704   3.536  0.5853 -2.0708 -0.2619
35940SOL     OW 9826   3.359   0.973   0.063 -0.2660  0.0282  0.1658
35940SOL    HW1 9827   3.301   0.985  -0.012 -0.3377 -2.5129 -0.2488
35940SOL    HW2 9828   3.333   0.890   0.101  1.1784  0.2474  1.7602
35941SOL     OW 9829   1.672   4.265   6.294 -0.3827 -0.4683 -0.1658
35941SOL    HW1 9830   1.622   4.193   6.334 -0.8223 -0.3682 -0.5154
35941SOL    HW2 9831   1.692   4.324   6.367  0.8017 -1.3943  0.2944
35942SOL     OW 9832   5.730   8.533   9.617 -0.3620  0.4173  0.1840
35942SOL    HW1 9833   5.683   8.600   9.567 -0.1174 -0.5984 -1.4451
35942SOL    HW2 9834   5.805   8.580   9.654 -1.5741  1.6224  1.2828
35943SOL     OW 9835   8.606   5.405   6.943  0.6476 -0.3362 -0.1069
35943SOL    HW1 9836   8.590   5.468   7.013  2.6286  0.1170 -0.0187
35943SOL    HW2 9837   8.550   5.330   6.964 -0.6222  0.7799  0.5907
35944SOL     OW 9838   2.553   2.051   5.893  0.2392 -0.0017  0.4788
35944SOL    HW1 9839   2.575   1.998   5.816 -1.3718 -1.6888  1.1135
35944SOL    HW2 9840   2.468   2.089   5.872 -1.2650 -2.1576  2.1159
35945SOL     OW 9841   2.700   7.873   8.975  0.2994 -0.3260  0.0927
35945SOL    HW1 9842   2.771   7.903   9.031  0.7400  2.6566 -1.8583
35945SOL    HW2 9843   2.743   7.816   8.911  0.4962 -0.4314  0.3151
35946SOL     OW 9844  10.961   2.750   8.307  0.6671  0.3178 -0.1363
35946SOL    HW1 9845  11.054   2.747   8.329  0.8890  0.2859 -1.0278
35946SOL    HW2 9846  10.929   2.828   8.352  1.2759  0.6935 -0.3341
35947SOL     OW 9847  10.003   1.261   6.215  0.0562  0.2632  0.0734
35947SOL    HW1 9848  10.023   1.170   6.193  0.9784  0.4632  0.0454
35947SOL    HW2 9849   9.940   1.255   6.287  0.2018 -0.3957  0.1485
35948SOL     OW 9850   0.993  11.089   7.446 -0.7742  0.0146 -0.1466
35948SOL    HW1 9851   0.900  11.103   7.432 -0.7216  1.3886  0.7244
35948SOL    HW2 9852   1.033  11.176   7.436  0.4327 -0.5649 -0.6318
35949SOL     OW 9853   0.580   3.026   8.025  0.0487 -0.2810  0.8523
35949SOL    HW1 9854   0.637   3.098   8.053 -1.5380  1.2494  0.3033
35949SOL    HW2 9855   0.524   3.065   7.958  0.3853 -2.5399 -0.8461
35950SOL     OW 9856   9.977   8.801   8.358  0.2492  0.8068  0.4123
35950SOL    HW1 9857  10.009   8.797   8.268  1.0342  0.9899  0.6752
35950SOL    HW2 9858   9.882   8.793   8.350  0.4084 -0.7753 -0.3167
35951SOL     OW 9859   9.897  10.054   7.669 -0.7841  0.1343 -0.1301
35951SOL    HW1 9860   9.966  10.105   7.712 -0.4652 -0.8213  0.5285
35951SOL    HW2 9861   9.900  10.081   7.577  1.6419 -1.1154 -0.4997
35952SOL     OW 9862   3.034   2.199   4.467 -0.3430  0.3416  0.5725
35952SOL    HW1 9863   3.013   2.128   4.407  0.6346  1.2192 -0.8971
35952SOL    HW2 9864   3.104   2.165   4.522  1.1390  0.5655 -1.0832
35953SOL     OW 9865   3.071   2.817   8.769 -0.0660  0.1886 -0.4189
35953SOL    HW1 9866   3.146   2.756   8.768  0.4625  0.7725  1.2872
35953SOL    HW2 9867   2.998   2.764   8.739  0.1962 -1.6232  1.8288
35954SOL     OW 9868   2.877   1.115  10.243  0.0147 -0.2941  0.1163
35954SOL    HW1 9869   2.880   1.152  10.331  0.7598  0.5989 -0.2592
35954SOL    HW2 9870   2.865   1.021  10.257  2.3993 -0.5241  1.2896
35955SOL     OW 9871   9.440   1.063   5.996  0.7172  0.1837  0.1748
35955SOL    HW1 9872   9.534   1.049   5.987  1.5427  3.3172  2.2052
35955SOL    HW2 9873   9.403   1.028   5.915  3.7782  0.0501 -1.3330
35956SOL     OW 9874   3.854   8.289   7.105 -0.5333  0.4914 -0.0889
35956SOL    HW1 9875   3.913   8.311   7.033  0.3179 -1.6221 -0.1228
35956SOL    HW2 9876   3.899   8.320   7.184  0.7071 -1.1161 -0.1129
35957SOL     OW 9877   8.623   5.313   0.248 -0.4242  0.0872 -0.0861
35957SOL    HW1 9878   8.556   5.245   0.256 -0.6405  0.3941  0.7422
35957SOL    HW2 9879   8.580   5.393   0.278  0.1861  0.3663  0.0610
35958SOL     OW 9880   6.642  10.041  10.583 -0.5580  0.1863  0.1436
35958SOL    HW1 9881   6.642  10.015  10.491 -0.7095  0.5444  0.0433
35958SOL    HW2 9882   6.549  10.038  10.609 -0.6730  1.4648 -0.1021
35959SOL     OW 9883   8.830   3.094   1.543  0.2053  0.0496 -0.6276
35959SOL    HW1 9884   8.736   3.078   1.548  0.0228 -0.6377 -4.0840
35959SOL    HW2 9885   8.847   3.157   1.614 -2.8414  0.2692  0.0461
35960SOL     OW 9886   8.980   9.803   5.727  0.1380 -0.4118 -0.5234
35960SOL    HW1 9887   9.027   9.741   5.782  0.1229 -0.7830 -0.9189
35960SOL    HW2 9888   9.039   9.817   5.652  0.4408  0.5730 -0.1102
35961SOL     OW 9889  10.206   0.734   9.650  0.2933  0.3639 -0.5455
35961SOL    HW1 9890  10.186   0.774   9.565 -0.4534  0.1012 -0.5056
35961SOL    HW2 9891  10.223   0.807   9.708 -2.5166  0.7918 -0.0921
35962SOL     OW 9892   5.469   9.073   2.923  0.7192 -0.1735 -0.4400
35962SOL    HW1 9893   5.489   9.073   2.830 -1.4727 -0.6773 -0.9666
35962SOL    HW2 9894   5.459   9.165   2.946 -0.8159 -0.1117 -1.2426
35963SOL     OW 9895  10.353   5.055   9.646  0.6002 -0.1449  0.0413
35963SOL    HW1 9896  10.266   5.020   9.666  0.5396  0.7117  1.4496
35963SOL    HW2 9897  10.337   5.141   9.609  0.8156 -0.7957 -1.6774
35964SOL     OW 9898   7.111   8.767   2.517 -0.4446  0.0536 -0.0104
35964SOL    HW1 9899   7.167   8.814   2.455 -1.4074 -0.4408 -1.2922
35964SOL    HW2 9900   7.086   8.833   2.581  2.1025  0.1503  1.0186
35965SOL     OW 9901   5.678   2.441   2.948  0.3712 -0.5240 -0.0151
35965SOL    HW1 9902   5.697   2.530   2.918 -0.0722  0.1658  1.6524
35965SOL    HW2 9903   5.582   2.435   2.945  0.4321 -1.6845 -2.0101
35966SOL     OW 9904   8.433   3.898   7.739  0.1655  0.3679 -0.2505
35966SOL    HW1 9905   8.516   3.910   7.786  0.7212 -0.0354 -1.0840
35966SOL    HW2 9906   8.366   3.925   7.801  1.0242  2.9739 -0.3231
35967SOL     OW 9907   7.700   2.279   6.506  0.0064  0.1656 -0.5547
35967SOL    HW1 9908   7.787   2.243   6.486  0.4848  1.8195 -1.6585
35967SOL    HW2 9909   7.714   2.373   6.512 -1.4443  0.3179  0.9477
35968SOL     OW 9910   5.632   1.230   9.471 -1.0099 -0.0076  0.7015
35968SOL    HW1 9911   5.547   1.189   9.488 -0.7907 -0.8410 -0.0958
35968SOL    HW2 9912   5.694   1.157   9.469 -0.3882  0.5107  0.5422
35969SOL     OW 9913   3.762   1.719   8.074  0.4743  0.0869  0.2841
35969SOL    HW1 9914   3.856   1.738   8.077  0.4720  0.4458 -1.0012
35969SOL    HW2 9915   3.756   1.634   8.030  0.1341  1.4802 -2.6477
35970SOL     OW 9916   6.093   2.748   9.757 -0.0554  0.9855  0.0724
35970SOL    HW1 9917   6.146   2.816   9.798 -0.6004  0.4298  1.7748
35970SOL    HW2 9918   6.022   2.796   9.713  1.2319  1.6647 -1.3837
35971SOL     OW 9919   8.354   3.003   6.629 -0.0799 -0.1081 -0.4170
35971SOL    HW1 9920   8.376   3.064   6.700  0.7755  0.2281 -0.9532
35971SOL    HW2 9921   8.436   2.990   6.582  0.0307 -2.5545  0.3203
35972SOL     OW 9922   6.439   7.340   0.788 -0.0580  0.4096 -0.1009
35972SOL    HW1 9923   6.437   7.386   0.704  0.1816  0.3160 -0.1586
35972SOL    HW2 9924   6.506   7.387   0.839 -0.5506  0.7801  0.2214
35973SOL     OW 9925   6.541   9.794   4.534 -0.4792  0.6322 -0.3683
35973SOL    HW1 9926   6.507   9.720   4.483 -0.2366  1.0160 -1.1058
35973SOL    HW2 9927   6.487   9.795   4.613  0.4726 -1.2385  0.3748
35974SOL     OW 9928   1.101   8.608   3.732  0.4992  0.2640  0.1198
35974SOL    HW1 9929   1.088   8.698   3.701 -1.1688 -0.4746 -1.5043
35974SOL    HW2 9930   1.071   8.610   3.823  0.6146  1.3748  0.1509
35975SOL     OW 9931   2.782   9.305   6.905 -0.1981  0.4222  0.0511
35975SOL    HW1 9932   2.741   9.255   6.834 -0.2050  0.7602 -0.1873
35975SOL    HW2 9933   2.876   9.303   6.884 -0.3539  2.1882 -1.0883
35976SOL     OW 9934   2.529   8.728   0.834 -0.4459 -0.5243  0.0257
35976SOL    HW1 9935   2.507   8.799   0.774  0.0760  0.6125  1.1374
35976SOL    HW2 9936   2.508   8.648   0.785  0.5408  0.3276 -1.8993
35977SOL     OW 9937   5.034   2.453   1.641  0.1543 -0.1910 -0.2696
35977SOL    HW1 9938   5.034   2.478   1.734  0.8491 -0.2420 -0.2515
35977SOL    HW2 9939   5.088   2.519   1.599 -0.6639  0.1877 -0.7452
35978SOL     OW 9940   6.520   2.121   0.985 -0.4212 -0.0225  0.2243
35978SOL    HW1 9941   6.532   2.182   0.912  0.6266 -0.5465 -0.0574
35978SOL    HW2 9942   6.596   2.137   1.042 -1.1229  0.2388  1.1089
35979SOL     OW 9943   4.528   8.595   5.282 -0.0928  0.6380 -0.1080
35979SOL    HW1 9944   4.598   8.583   5.218  0.6009  0.0534  0.7470
35979SOL    HW2 9945   4.572   8.598   5.367 -1.1839 -0.9354  0.5659
35980SOL     OW 9946   1.654   0.603   8.154  0.5886  0.1652  0.5018
35980SOL    HW1 9947   1.650   0.680   8.211 -1.2717  0.8160 -0.4303
35980SOL    HW2 9948   1.663   0.639   8.066 -0.4499 -0.6505  0.0394
35981SOL     OW 9949   2.168   0.967   8.595 -0.3669  0.2504  0.0653
35981SOL    HW1 9950   2.228   0.966   8.520 -0.2680 -0.6958  0.1403
35981SOL    HW2 9951   2.216   1.009   8.665  0.2038 -0.4555  0.1090
35982SOL     OW 9952   1.597   2.929   4.285  0.3066  0.0814  0.3723
35982SOL    HW1 9953   1.555   2.897   4.204  0.2697 -1.9006  1.1275
35982SOL    HW2 9954   1.559   2.876   4.354  1.8164  0.3667  1.4665
35983SOL     OW 9955   6.850   0.330  10.421 -0.7908 -0.0322  0.6136
35983SOL    HW1 9956   6.909   0.397  10.455  1.0656 -0.7883 -0.9593
35983SOL    HW2 9957   6.907   0.259  10.392 -2.4645 -0.8479 -0.9187
35984SOL     OW 9958   6.754   7.746   2.986  0.1226  0.5209 -0.1905
35984SOL    HW1 9959   6.727   7.755   2.895 -1.6352 -0.9483  0.1278
35984SOL    HW2 9960   6.795   7.659   2.991  0.0822  0.5313  0.4354
35985SOL     OW 9961   1.243  10.016   5.704  0.3193  0.2351  0.0898
35985SOL    HW1 9962   1.258   9.946   5.640 -0.7765 -0.6824  0.7841
35985SOL    HW2 9963   1.175  10.070   5.665 -3.2462 -2.4742  1.8967
35986SOL     OW 9964   1.399   0.351   8.500  0.6746 -0.0655  0.1993
35986SOL    HW1 9965   1.470   0.410   8.477  2.4979 -2.7228 -1.6372
35986SOL    HW2 9966   1.406   0.279   8.437 -2.5520 -1.3656  1.0845
35987SOL     OW 9967   5.105   6.209   6.993 -0.3631  0.1177 -0.3513
35987SOL    HW1 9968   5.193   6.197   6.958 -0.6210 -1.1924 -0.6330
35987SOL    HW2 9969   5.063   6.124   6.980 -0.9473  0.0071  1.8200
35988SOL     OW 9970   0.799  10.437   5.908  0.3167  0.2075 -0.3695
35988SOL    HW1 9971   0.723  10.382   5.926  2.3288 -1.6410  3.7216
35988SOL    HW2 9972   0.859  10.379   5.861  1.0138  0.0355  0.7020
35989SOL     OW 9973   4.858   9.039   7.716 -0.0102  0.0993  0.3939
35989SOL    HW1 9974   4.849   8.969   7.780  0.9592 -0.2022  0.2146
35989SOL    HW2 9975   4.885   9.115   7.767 -0.2089  0.1216  0.4685
35990SOL     OW 9976   6.705   4.689   8.802  0.8142  0.1697  0.2011
35990SOL    HW1 9977   6.741   4.616   8.852 -1.4566  0.5528  2.6189
35990SOL    HW2 9978   6.649   4.735   8.864 -0.5817  1.9246 -2.1969
35991SOL     OW 9979   8.530   9.607   5.594  0.3178  0.1697  0.1573
35991SOL    HW1 9980   8.618   9.643   5.611  0.8715  0.1925 -2.3963
35991SOL    HW2 9981   8.489   9.670   5.535 -1.5940  0.3146  1.5413
35992SOL     OW 9982   2.540   3.635   7.965 -0.0353  0.7467 -0.4470
35992SOL    HW1 9983   2.580   3.623   7.879  0.5844 -0.1321 -0.0541
35992SOL    HW2 9984   2.612   3.664   8.022 -0.2484  0.5138 -0.0498
35993SOL     OW 9985   5.434  10.806   9.884 -0.0770 -0.0070 -0.1842
35993SOL    HW1 9986   5.433  10.847   9.797  2.0868 -1.0154 -0.7473
35993SOL    HW2 9987   5.493  10.860   9.936  0.8933 -0.9936 -0.2217
35994SOL     OW 9988   0.448   4.245   3.079 -0.2207  0.0164 -0.0989
35994SOL    HW1 9989   0.384   4.222   3.147  0.3312  1.0689  0.7839
35994SOL    HW2 9990   0.452   4.340   3.080  0.0171  0.0400 -1.4191
35995SOL     OW 9991   9.093   3.506  11.083 -0.3579  0.0107  0.0047
35995SOL    HW1 9992   9.137   3.513  10.998  2.3826 -0.5731  1.2457
35995SOL    HW2 9993   9.125   3.423  11.119 -2.0760 -0.1456  1.3154
35996SOL     OW 9994   8.454  10.009  10.524  0.3349  0.0714  0.0663
35996SOL    HW1 9995   8.497  10.093  10.539 -0.6998  0.5901  0.1743
35996SOL    HW2 9996   8.437  10.007  10.430  0.3860 -0.0333  0.0585
35997SOL     OW 9997   8.443   9.811   7.991 -0.1826  0.4093 -0.2033
35997SOL    HW1 9998   8.505   9.739   7.998 -1.5599 -0.8564 -0.3290
35997SOL    HW2 9999   8.471   9.860   7.914 -0.1208 -0.9565 -1.0875
35998SOL     OW10000   8.982  10.626   3.929 -0.2983 -0.5972  0.2904
35998SOL    HW110001   8.971  10.635   3.835  1.4002  1.3587  0.2045
35998SOL    HW210002   9.030  10.543   3.940 -1.3671 -1.3312 -0.4538
35999SOL     OW10003  11.054   2.046   2.324  0.0507  0.0014 -0.3851
35999SOL    HW110004  11.058   2.037   2.420 -0.7213 -0.4537 -0.3857
35999SOL    HW210005  11.062   2.140   2.308  1.7009 -0.0381  0.0314
36000SOL     OW10006  10.538   6.144   5.944 -0.3007  0.3413 -0.1872
36000SOL    HW110007  10.460   6.139   5.999 -0.4387 -2.8115 -0.4436
36000SOL    HW210008  10.568   6.053   5.938  1.6547  1.0399 -2.5732
36001SOL     OW10009   8.425   1.885   9.018  0.1357 -0.4382 -0.1438
36001SOL    HW110010   8.446   1.927   9.102  2.2167  1.5912 -1.5305
36001SOL    HW210011   8.509   1.880   8.973 -1.1455  0.0441 -2.7363
36002SOL     OW10012   8.277   5.999   4.576  0.2986  0.3510 -0.1970
36002SOL    HW110013   8.323   6.006   4.659 -0.3330 -0.7102  0.2654
36002SOL    HW210014   8.184   6.003   4.599  0.0940 -0.9578 -0.7328
36003SOL     OW10015   8.608   3.320   7.708 -0.8157  0.4569  0.1542
36003SOL    HW110016   8.563   3.278   7.782 -0.7713  1.3902  0.7194
36003SOL    HW210017   8.570   3.278   7.631 -1.9029  0.4792  0.6570
36004SOL     OW10018   9.192  10.307   6.393 -0.0466 -0.8464  0.0861
36004SOL    HW110019   9.151  10.236   6.442  0.6619 -1.5741 -0.3432
36004SOL    HW210020   9.205  10.271   6.305  2.0934 -0.8941  0.3706
36005SOL     OW10021   0.433   1.542  10.676  0.3264 -0.2152  0.4015
36005SOL    HW110022   0.426   1.592  10.595 -1.8081 -0.4204  0.4009
36005SOL    HW210023   0.527   1.535  10.692  0.7589  0.8631 -1.3963
36006SOL     OW10024   0.518   8.900   3.825 -0.0691 -0.1761  0.0148
36006SOL    HW110025   0.486   8.871   3.910  2.3292  0.9118  1.3787
36006SOL    HW210026   0.494   8.993   3.820 -0.9110 -0.4217 -0.9000
36007SOL     OW10027  10.511   9.462   3.322 -0.7475 -0.5192 -0.0439
36007SOL    HW110028  10.542   9.423   3.241 -1.7885 -0.1880 -0.6127
36007SOL    HW210029  10.422   9.492   3.303 -1.8150 -2.2556  1.7836
36008SOL     OW10030   6.952   0.884   7.798  0.0014  0.4106 -0.8551
36008SOL    HW110031   7.033   0.935   7.792  1.3001 -1.2687  1.1373
36008SOL    HW210032   6.978   0.794   7.780 -1.3048 -0.2565  0.3433
36009SOL     OW10033   6.551   7.768   0.564  0.6155 -0.2989 -0.2510
36009SOL    HW110034   6.456   7.776   0.572  0.1231 -2.6640 -2.2202
36009SOL    HW210035   6.574   7.830   0.495  0.1278 -1.1486 -1.2099
36010SOL     OW10036   8.794   9.175   2.741  0.0147 -0.5626 -0.6501
36010SOL    HW110037   8.878   9.206   2.776 -0.5290  1.8687 -1.2727
36010SOL    HW210038   8.818   9.127   2.662  0.8815 -1.2139 -0.0202
36011SOL     OW10039   3.176   0.153   9.924 -0.0377  0.3170 -0.3002
36011SOL    HW110040   3.101   0.208   9.951  1.4307  1.8294  0.9333
36011SOL    HW210041   3.197   0.101  10.001  0.3347  0.0764 -0.5590
36012SOL     OW10042   8.550   4.038   4.824  0.2942 -0.2925 -0.4589
36012SOL    HW110043   8.481   4.020   4.759  0.8903 -0.0390 -1.1675
36012SOL    HW210044   8.584   3.951   4.846 -0.7265 -0.4894  0.4434
36013SOL     OW10045   5.955   5.453   9.758 -0.2585  0.0458 -0.0553
36013SOL    HW110046   5.944   5.540   9.797 -0.6890 -0.6282  1.3774
36013SOL    HW210047   5.914   5.460   9.672 -1.3995  0.9191  0.5353
36014SOL     OW10048   6.359   1.799  10.760  0.1575  0.2646  0.3059
36014SOL    HW110049   6.442   1.818  10.804  1.5180 -0.9957 -1.5438
36014SOL    HW210050   6.300   1.869  10.789  2.1071  1.7125  1.0285
36015SOL     OW10051  10.535   4.567   6.060 -0.0934 -0.3609  0.5695
36015SOL    HW110052  10.456   4.538   6.014  0.3382  0.3253 -0.6565
36015SOL    HW210053  10.588   4.488   6.068 -0.6412 -0.7083  0.8634
36016SOL     OW10054   6.034   5.319   0.824 -0.1273  0.7886  0.1682
36016SOL    HW110055   5.939   5.330   0.830 -0.1549  0.6911 -0.0758
36016SOL    HW210056   6.047   5.256   0.753  0.1251  0.9243  0.0891
36017SOL     OW10057   0.049   9.390   4.715 -0.2074 -0.5242 -0.0687
36017SOL    HW110058   0.104   9.463   4.745 -0.0027 -1.3648  1.7304
36017SOL    HW210059   0.110   9.327   4.677  0.1229 -1.4109  1.8329
36018SOL     OW10060   8.762   2.512   5.163 -0.7017  0.2005  0.5692
36018SOL    HW110061   8.813   2.431   5.169 -1.3773 -0.1931  1.2712
36018SOL    HW210062   8.671   2.482   5.166 -0.9614  1.0260  1.6839
36019SOL     OW10063   9.278   3.949   8.075  0.1377 -0.1308 -0.7762
36019SOL    HW110064   9.313   3.866   8.107  0.7295 -0.4492 -2.1692
36019SOL    HW210065   9.208   3.971   8.135 -0.2783 -1.8439 -0.6048
36020SOL     OW10066   4.414   8.027   1.809 -0.0390  0.3197  0.2057
36020SOL    HW110067   4.322   8.043   1.787 -0.7309  1.7994  3.5228
36020SOL    HW210068   4.454   8.114   1.807  0.1584  0.3756  2.8561
36021SOL     OW10069   4.457   1.981   2.402  0.0378 -0.4081  0.0121
36021SOL    HW110070   4.389   1.971   2.335 -0.7630  0.3670  0.6881
36021SOL    HW210071   4.477   2.075   2.403  1.8481 -0.7290 -0.8486
36022SOL     OW10072   7.310  10.613   4.144  0.1184 -0.0616  0.6335
36022SOL    HW110073   7.315  10.651   4.057  1.3087 -0.5773  0.4532
36022SOL    HW210074   7.252  10.671   4.193 -0.1709  0.5009 -0.3609
36023SOL     OW10075  10.756   8.397  10.957  0.8083  0.4691 -0.3438
36023SOL    HW110076  10.833   8.446  10.987  0.1396  0.7959  0.9360
36023SOL    HW210077  10.692   8.465  10.936  0.8805  0.1979 -1.4567
36024SOL     OW10078   8.618   2.487   2.190  0.1044  0.4142  0.1352
36024SOL    HW110079   8.624   2.459   2.098 -1.7919 -0.7135  0.3103
36024SOL    HW210080   8.654   2.414   2.239  1.1367  1.0274  0.3336
36025SOL     OW10081   0.271  10.150   8.935  0.0291 -0.1384  0.3314
36025SOL    HW110082   0.365  10.148   8.916 -0.1045 -1.3869 -0.3638
36025SOL    HW210083   0.262  10.208   9.010  1.2343  0.7854 -0.2101
36026SOL     OW10084   7.912   7.179   1.066  0.2795  0.0316 -0.4596
36026SOL    HW110085   7.952   7.264   1.050  0.7240 -0.1183 -0.1591
36026SOL    HW210086   7.946   7.123   0.997  0.8404 -0.1741 -0.0243
36027SOL     OW10087  10.910   5.894   9.362 -0.3149 -0.5278 -0.1215
36027SOL    HW110088  10.878   5.895   9.452 -0.5066 -1.3935 -0.1669
36027SOL    HW210089  10.870   5.970   9.321 -0.3451 -0.2100  0.4868
36028SOL     OW10090   6.626   5.381   2.674 -0.3610  0.4408 -0.0979
36028SOL    HW110091   6.640   5.286   2.680  0.9180  0.5964 -0.3138
36028SOL    HW210092   6.652   5.414   2.759 -0.4213  0.6491 -0.1601
36029SOL     OW10093  10.440   5.519   3.349 -0.2640  0.0742  0.3485
36029SOL    HW110094  10.391   5.459   3.293 -2.0179 -0.0220  1.8813
36029SOL    HW210095  10.532   5.495   3.336 -0.8544 -2.6214  0.5074
36030SOL     OW10096  10.449   4.487   6.976  0.0961 -0.7666  0.0661
36030SOL    HW110097  10.398   4.481   7.057  0.9175 -1.4759  0.5433
36030SOL    HW210098  10.453   4.581   6.957 -1.8658 -0.7160 -0.3083
36031SOL     OW10099   8.596  10.430   8.952  0.5238  0.2537 -0.1367
36031SOL    HW110100   8.528  10.458   8.891  1.0957  0.2080 -0.8118
36031SOL    HW210101   8.565  10.347   8.987  0.3358  0.1221 -0.6123
36032SOL     OW10102   8.896  10.339   7.235 -0.1128  0.0140  0.1749
36032SOL    HW110103   8.876  10.376   7.321 -0.2076  0.8097 -0.1805
36032SOL    HW210104   8.845  10.259   7.231 -0.4222  0.1792  0.7058
36033SOL     OW10105   7.287   7.238   5.818  0.1241 -0.2069  0.1671
36033SOL    HW110106   7.225   7.285   5.763 -1.1908 -1.5727  0.4024
36033SOL    HW210107   7.321   7.169   5.762 -0.3468 -0.8908  0.7053
36034SOL     OW10108   8.249   2.786   1.757 -0.2858 -0.2945 -0.1752
36034SOL    HW110109   8.304   2.805   1.834 -0.6846 -0.3733  0.1319
36034SOL    HW210110   8.307   2.739   1.697  0.2582  0.4798 -0.2665
36035SOL     OW10111  10.249   3.422  10.555 -0.0069  0.4315 -0.0590
36035SOL    HW110112  10.189   3.489  10.589  1.6775  1.4433  1.1131
36035SOL    HW210113  10.285   3.381  10.634  2.1407  1.0992 -0.6257
36036SOL     OW10114   3.368   8.251   8.262  0.0233  0.4864 -0.3234
36036SOL    HW110115   3.402   8.161   8.260 -0.6970  0.1946  0.0248
36036SOL    HW210116   3.273   8.240   8.272  0.0821  1.3068  1.5032
36037SOL     OW10117   2.252   0.770   9.188  0.2523 -0.1118  0.4523
36037SOL    HW110118   2.204   0.697   9.227 -0.4882  0.4311  0.5788
36037SOL    HW210119   2.314   0.728   9.129 -0.8023 -0.8220 -0.1939
36038SOL     OW10120   3.137  10.837  10.464 -0.1072 -0.3698  0.1872
36038SOL    HW110121   3.159  10.925  10.495 -0.3954 -0.3885  0.4460
36038SOL    HW210122   3.216  10.808  10.417  0.8227 -0.8333  1.9414
36039SOL     OW10123   7.124   4.630   0.724 -0.0936  0.4723  0.1395
36039SOL    HW110124   7.073   4.609   0.646 -1.5842  0.4202  1.0894
36039SOL    HW210125   7.093   4.717   0.750  0.1317  0.3489  0.8515
36040SOL     OW10126   2.866   1.150   8.879 -0.0496  0.1069  0.1758
36040SOL    HW110127   2.836   1.216   8.817 -0.2595 -1.8458 -1.9219
36040SOL    HW210128   2.797   1.146   8.945 -1.4822 -0.0532 -1.2741
36041SOL     OW10129   1.521  10.084   1.228  0.0204 -0.2375  0.4055
36041SOL    HW110130   1.510  10.179   1.234 -0.5664 -0.3657  1.5550
36041SOL    HW210131   1.612  10.069   1.253  0.1123  0.0158  0.2277
36042SOL     OW10132  11.077  10.104   5.820 -0.1152 -0.6479 -0.5362
36042SOL    HW110133  11.000  10.110   5.764 -1.3367  1.4993  1.2630
36042SOL    HW210134  11.072  10.179   5.878  1.7261 -2.1055  1.7072
36043SOL     OW10135   5.581   9.956   9.612 -0.4001  0.3269 -0.1228
36043SOL    HW110136   5.645   9.904   9.564 -0.4594  1.1206 -1.0764
36043SOL    HW210137   5.497   9.935   9.571 -0.3432  1.6725 -0.9801
36044SOL     OW10138  10.479   0.022   2.182 -0.1870 -0.1019 -0.3908
36044SOL    HW110139  10.449   0.095   2.129 -0.4385 -1.5850 -2.3930
36044SOL    HW210140  10.400  -0.026   2.205  0.0976 -0.5163 -0.2653
36045SOL     OW10141   2.926  10.099   9.874 -0.0857  0.2595  0.2537
36045SOL    HW110142   3.018  10.080   9.890  0.1668  0.0677 -1.3168
36045SOL    HW210143   2.893  10.023   9.827  0.0397  1.9936 -2.9275
36046SOL     OW10144   8.551   2.263   6.844 -0.0731  0.1427 -0.0008
36046SOL    HW110145   8.635   2.272   6.890  0.3035  0.0885 -0.6538
36046SOL    HW210146   8.487   2.300   6.903  0.1854 -1.1816  1.1638
36047SOL     OW10147   9.484   8.397   8.581  0.1260 -0.4772  1.1717
36047SOL    HW110148   9.518   8.429   8.498 -0.9733 -1.8541  0.1502
36047SOL    HW210149   9.549   8.423   8.646 -0.0578  2.6331  0.2578
36048SOL     OW10150  10.687   9.928  10.904  0.2163  0.3527  0.6724
36048SOL    HW110151  10.653  10.017  10.897 -1.1495 -0.1037  1.1971
36048SOL    HW210152  10.733   9.914  10.822 -0.7195  1.0735  0.0012
36049SOL     OW10153   4.286  10.649   6.992  0.3098  0.4693 -0.5123
36049SOL    HW110154   4.331  10.577   7.035  0.8218 -0.2042 -2.0829
36049SOL    HW210155   4.201  10.613   6.967 -0.0333  0.8923  0.0253
36050SOL     OW10156   9.578   9.149   3.944  0.6161  0.2476 -0.0540
36050SOL    HW110157   9.663   9.104   3.942 -0.5179 -2.0258 -0.6240
36050SOL    HW210158   9.548   9.147   3.853  0.3211  1.8590 -0.0169
36051SOL     OW10159   2.429   9.937   0.034  0.0992 -0.0322  0.0147
36051SOL    HW110160   2.360  10.002   0.050 -1.0555 -1.0209 -0.7256
36051SOL    HW210161   2.415   9.871   0.102  0.5269 -0.0801  0.0564
36052SOL     OW10162   0.967   7.885   8.132  0.2835 -0.8747 -0.1584
36052SOL    HW110163   1.035   7.932   8.180  0.9556 -3.0477  1.1941
36052SOL    HW210164   0.949   7.939   8.056  0.9767  1.5037  1.2670
36053SOL     OW10165   0.503   9.211   8.303  0.1280  0.0073 -0.3805
36053SOL    HW110166   0.566   9.173   8.242 -0.8428 -1.7656 -0.3365
36053SOL    HW210167   0.419   9.172   8.279 -0.4662  0.1184  1.3557
36054SOL     OW10168   9.145  10.221   8.263  0.5934 -0.0140  0.2297
36054SOL    HW110169   9.202  10.293   8.238  2.0826 -0.9989  0.6810
36054SOL    HW210170   9.071  10.227   8.202  1.2897  1.1396 -0.5327
36055SOL     OW10171   5.159   3.190   1.061  0.1562 -0.6328  0.0814
36055SOL    HW110172   5.097   3.243   1.111 -0.5966 -0.4593 -1.0072
36055SOL    HW210173   5.217   3.254   1.020  1.8573 -0.8229  2.0243
36056SOL     OW10174  10.448   0.762  10.821 -0.4224  0.2033  0.4049
36056SOL    HW110175  10.365   0.806  10.802  0.9665  1.9881 -2.0306
36056SOL    HW210176  10.472   0.794  10.908 -1.9685  0.0733  0.9258
36057SOL     OW10177  10.234   4.538  10.453 -0.3051 -0.6222 -0.0035
36057SOL    HW110178  10.311   4.564  10.402 -0.2064 -1.2280 -0.1758
36057SOL    HW210179  10.161   4.545  10.391 -0.3211 -0.4702  0.0341
36058SOL     OW10180   0.180   2.499   7.906  0.0726 -0.0102  0.4801
36058SOL    HW110181   0.265   2.463   7.932  0.9923  1.7625  0.0807
36058SOL    HW210182   0.185   2.592   7.930 -1.0056  0.5490 -1.2495
36059SOL     OW10183   5.954   8.434   6.391 -0.1522 -0.0770  0.2100
36059SOL    HW110184   6.014   8.507   6.373 -0.4305 -0.0215 -0.5341
36059SOL    HW210185   5.879   8.475   6.436 -0.5359  0.1848 -0.6513
36060SOL     OW10186   0.119   9.765   2.430  0.0301  0.7060  0.0044
36060SOL    HW110187   0.105   9.671   2.436  0.2460  0.7482  2.8541
36060SOL    HW210188   0.214   9.774   2.421  0.0700  0.6439  0.3430
36061SOL     OW10189   8.613  10.491   7.411  0.0787 -0.1122 -0.2465
36061SOL    HW110190   8.599  10.399   7.386  0.0330  0.2263 -1.5373
36061SOL    HW210191   8.703  10.493   7.444  0.2836 -0.5274 -0.7573
36062SOL     OW10192   7.522   0.211   7.776 -0.0856 -0.0497  0.0948
36062SOL    HW110193   7.537   0.231   7.684 -1.2197  1.3470  0.1887
36062SOL    HW210194   7.438   0.250   7.796  1.4731  2.4225  2.4926
36063SOL     OW10195   2.618   2.552  10.745  0.1835 -0.6725 -0.2975
36063SOL    HW110196   2.598   2.597  10.663  1.4755  1.1890  0.3264
36063SOL    HW210197   2.714   2.552  10.749  0.1572  0.7661  1.9155
36064SOL     OW10198   4.196  10.481   8.189  0.2172 -0.3765  0.2124
36064SOL    HW110199   4.289  10.473   8.170 -0.1748 -1.6543 -1.4421
36064SOL    HW210200   4.171  10.394   8.220 -0.5902 -0.3215 -0.2495
36065SOL     OW10201   3.983   0.346   7.822 -0.7130  0.1159 -0.5181
36065SOL    HW110202   4.053   0.309   7.769 -0.5776 -1.2850  0.5631
36065SOL    HW210203   3.903   0.313   7.783 -0.5997 -1.2262  0.3190
36066SOL     OW10204   1.568   4.699   6.249 -0.2283  0.8853 -0.2823
36066SOL    HW110205   1.589   4.626   6.192  0.0990  1.2609 -0.6438
36066SOL    HW210206   1.596   4.776   6.201 -1.0200  1.2858 -0.1144
36067SOL     OW10207   1.404   6.040   0.766  0.2763  0.1082  0.0027
36067SOL    HW110208   1.433   5.965   0.713  0.2155 -0.2385  0.4583
36067SOL    HW210209   1.315   6.058   0.734 -0.1012 -0.6676  0.5898
36068SOL     OW10210   7.641   0.472   7.360  0.3492  0.2956 -0.1259
36068SOL    HW110211   7.677   0.560   7.358 -1.9673  1.3072 -1.4005
36068SOL    HW210212   7.579   0.469   7.287  1.7158 -3.0662 -1.3601
36069SOL     OW10213  10.288   8.123   7.715 -0.3588 -0.7752  0.2072
36069SOL    HW110214  10.198   8.110   7.746 -0.2031  0.0543  1.0472
36069SOL    HW210215  10.277   8.166   7.630 -0.8258  2.7784  1.8564
36070SOL     OW10216   0.001  10.359  10.373  0.2945 -0.1883  0.2635
36070SOL    HW110217   0.077  10.325  10.326  0.4924  0.8486 -0.1983
36070SOL    HW210218   0.005  10.453  10.360 -0.1752  0.0382  1.5969
36071SOL     OW10219   5.868   1.548   8.361 -0.6733  0.4781 -0.0127
36071SOL    HW110220   5.957   1.574   8.337 -0.3327 -1.4950 -1.1137
36071SOL    HW210221   5.879   1.489   8.436 -1.2791  1.9232  1.2785
36072SOL     OW10222   2.415   0.424   2.590  0.3621  0.8323 -0.1986
36072SOL    HW110223   2.348   0.392   2.530  0.1984  1.8330 -0.5754
36072SOL    HW210224   2.491   0.440   2.533  0.0772  2.1794 -0.2386
36073SOL     OW10225   6.481   5.192   7.466 -0.1882  0.3656  0.4132
36073SOL    HW110226   6.534   5.114   7.447 -0.7027  0.4164 -1.5352
36073SOL    HW210227   6.544   5.263   7.475  0.1719  0.3020 -1.1963
36074SOL     OW10228   3.078   1.549   6.950 -0.2995 -0.0427 -0.3097
36074SOL    HW110229   3.095   1.549   7.044 -0.2469  0.0748 -0.3180
36074SOL    HW210230   2.984   1.563   6.942 -0.4401 -0.9590 -0.2580
36075SOL     OW10231   9.500   0.020   7.624 -0.0642  0.0994 -0.3251
36075SOL    HW110232   9.473   0.033   7.533 -0.5115 -1.7914 -0.4896
36075SOL    HW210233   9.470   0.099   7.669 -0.8284  0.5682 -1.5991
36076SOL     OW10234   2.257   2.767   6.023  0.3569 -0.1788 -0.2495
36076SOL    HW110235   2.239   2.809   5.939 -1.8543 -1.5738 -0.5720
36076SOL    HW210236   2.313   2.693   6.001 -2.8238 -2.5347 -1.1835
36077SOL     OW10237   4.119   9.533   7.916 -0.4514  0.0844 -0.4754
36077SOL    HW110238   4.136   9.588   7.992 -0.5880 -1.2591  0.5475
36077SOL    HW210239   4.193   9.472   7.913 -0.9167 -0.4745 -0.8546
36078SOL     OW10240  10.024   9.249   3.202 -0.1193  0.4620  0.5058
36078SOL    HW110241  10.061   9.273   3.287  0.3076 -0.4135  0.5808
36078SOL    HW210242  10.066   9.166   3.180  0.6657  1.2271 -1.1120
36079SOL     OW10243   5.935   6.776   7.543  0.1399 -0.3383 -0.0929
36079SOL    HW110244   6.022   6.807   7.570  0.7439 -2.1995  0.2530
36079SOL    HW210245   5.889   6.855   7.514  2.6666  0.4746 -2.3126
36080SOL     OW10246   5.997   6.255   0.034  0.0755 -0.2268 -0.0039
36080SOL    HW110247   5.975   6.189   0.100  1.6005 -0.7740  0.0103
36080SOL    HW210248   5.939   6.237  -0.039 -0.7448 -0.4502  0.6918
36081SOL     OW10249   9.666   7.674   9.695  0.0065  0.0564 -0.1781
36081SOL    HW110250   9.696   7.625   9.771 -0.5869  0.0246  0.0391
36081SOL    HW210251   9.599   7.733   9.729  1.0638  1.4168 -0.3346
36082SOL     OW10252   8.635   0.526   9.275  0.1439 -0.0405  0.3688
36082SOL    HW110253   8.611   0.468   9.203 -2.8602  1.0504  0.3780
36082SOL    HW210254   8.662   0.467   9.345  1.0527 -1.1901 -0.8831
36083SOL     OW10255   2.767   6.241   9.286 -0.2173  0.1068  0.6326
36083SOL    HW110256   2.833   6.283   9.231 -0.3741 -1.3947 -0.7818
36083SOL    HW210257   2.694   6.303   9.287 -0.2239  0.1745 -0.9188
36084SOL     OW10258   9.837   7.996   0.708  0.0692 -0.0589 -0.0639
36084SOL    HW110259   9.830   7.957   0.795  0.5446  0.0999  0.0496
36084SOL    HW210260   9.891   7.935   0.658  0.8046  0.4323  0.1108
36085SOL     OW10261   7.787   8.207   4.624 -0.3571 -0.6467  0.4485
36085SOL    HW110262   7.864   8.163   4.660  0.1717  0.6386  0.9645
36085SOL    HW210263   7.776   8.170   4.537  1.6890  0.0851 -0.1783
36086SOL     OW10264   7.926   0.099   4.657  0.2258  0.0057 -0.1574
36086SOL    HW110265   8.008   0.087   4.608  0.4075 -0.3784  0.2390
36086SOL    HW210266   7.861   0.051   4.607  0.8577 -2.4157  1.1932
36087SOL     OW10267  10.693  10.815   9.433  0.2877 -0.4216  0.0462
36087SOL    HW110268  10.683  10.796   9.340  0.8266  0.0400 -0.1090
36087SOL    HW210269  10.643  10.896   9.446  0.9615  0.0176 -0.0371
36088SOL     OW10270   4.392   2.465   6.997  0.0535  0.2231 -0.6329
36088SOL    HW110271   4.432   2.389   7.039  1.3352  1.1570 -0.0869
36088SOL    HW210272   4.336   2.429   6.929  0.2762 -1.2191 -0.0813
36089SOL     OW10273   8.497   3.120   4.473  0.4937  0.1441 -0.2899
36089SOL    HW110274   8.476   3.182   4.403  1.6010  2.3696  1.2335
36089SOL    HW210275   8.437   3.142   4.544  1.6052  0.2073  0.6631
36090SOL     OW10276  10.200   9.650  10.625  0.4934 -0.2837 -0.2427
36090SOL    HW110277  10.211   9.597  10.546 -1.3983  2.1036 -2.2723
36090SOL    HW210278  10.251   9.729  10.608  0.2354  0.1744  1.0285
36091SOL     OW10279   6.197   9.751   5.207  0.4912 -0.6020 -0.6121
36091SOL    HW110280   6.220   9.736   5.115 -0.5656 -2.6652 -0.6168
36091SOL    HW210281   6.144   9.830   5.207  0.1064 -0.8444 -1.8685
36092SOL     OW10282   1.155   0.463   2.025  0.1178 -0.1081  0.2890
36092SOL    HW110283   1.144   0.424   1.938 -0.4089 -0.1391  0.3672
36092SOL    HW210284   1.102   0.543   2.023 -0.3834 -0.4183  0.7752
36093SOL     OW10285   5.999   2.096  10.038  0.3445 -0.1253 -0.3505
36093SOL    HW110286   5.968   2.014  10.000 -2.4798 -0.1087  1.5978
36093SOL    HW210287   6.021   2.073  10.129  1.8100  0.8350 -0.4412
36094SOL     OW10288   2.616   2.537   1.922 -0.6142  0.1390 -0.0150
36094SOL    HW110289   2.664   2.607   1.879  3.4369 -3.5148 -2.1416
36094SOL    HW210290   2.650   2.536   2.012  0.1994  0.1624 -0.3194
36095SOL     OW10291   5.611   9.509   8.676 -0.4253 -0.2928 -0.3817
36095SOL    HW110292   5.553   9.451   8.626 -0.4972 -1.3098  0.8522
36095SOL    HW210293   5.679   9.452   8.710 -0.0686  0.4810  0.2244
36096SOL     OW10294   7.365   8.302   6.828 -0.0160 -0.2955 -0.0210
36096SOL    HW110295   7.366   8.218   6.782  0.0133 -0.2882 -0.0339
36096SOL    HW210296   7.451   8.339   6.810 -0.3947  0.1967 -0.8655
36097SOL     OW10297   7.076   9.508   8.321  0.6599 -0.1371 -0.7858
36097SOL    HW110298   7.005   9.522   8.259 -1.9060 -2.5358  1.3776
36097SOL    HW210299   7.093   9.413   8.317  2.0324  0.0165  0.5433
36098SOL     OW10300   2.207   2.960   0.673 -0.1652 -0.2605  0.1162
36098SOL    HW110301   2.262   3.012   0.731  0.3888 -0.2824 -0.3734
36098SOL    HW210302   2.257   2.955   0.591 -0.0163 -1.8868  0.2716
36099SOL     OW10303   5.343   8.041   9.660  0.1475 -0.1147 -0.1552
36099SOL    HW110304   5.399   7.977   9.704 -0.3018 -1.5233 -1.5367
36099SOL    HW210305   5.366   8.125   9.701  3.3561 -0.5681 -0.7265
36100SOL     OW10306  10.782   6.772   8.931 -0.2883 -0.3457  0.3415
36100SOL    HW110307  10.811   6.683   8.910  0.8966 -0.0970  0.8987
36100SOL    HW210308  10.706   6.759   8.988  0.4382 -0.9987  1.1778
36101SOL     OW10309   6.596   9.342   8.152 -0.6878  0.6560  0.0313
36101SOL    HW110310   6.516   9.395   8.149 -0.6282  0.8801  1.5749
36101SOL    HW210311   6.662   9.401   8.187  0.1219  0.3947 -0.9895
36102SOL     OW10312   2.996   3.559   6.787 -0.4943  0.2212  0.3116
36102SOL    HW110313   2.920   3.601   6.826  0.0669  0.4707  1.1633
36102SOL    HW210314   2.961   3.482   6.741 -1.2649  0.4143  0.5700
36103SOL     OW10315   7.374   8.046  11.086 -0.0720 -0.2306 -0.7007
36103SOL    HW110316   7.371   8.019  10.994 -0.6474 -1.8329 -0.2474
36103SOL    HW210317   7.467   8.054  11.105  0.0464  0.6905 -1.5580
36104SOL     OW10318   9.363   4.545   9.547 -0.1315 -0.1657 -0.1333
36104SOL    HW110319   9.377   4.613   9.481  0.8454 -1.5927 -1.4824
36104SOL    HW210320   9.444   4.545   9.598  0.3858 -1.1177 -0.9311
36105SOL     OW10321   2.286   3.218  10.956 -0.1631 -0.2805 -0.2535
36105SOL    HW110322   2.304   3.291  10.896  1.1288 -0.0255  0.4205
36105SOL    HW210323   2.212   3.173  10.916 -0.8598  1.2675 -0.8089
36106SOL     OW10324   1.922  10.611  10.349  0.2245  0.2712  0.3110
36106SOL    HW110325   2.014  10.594  10.372  0.3004 -3.1511 -1.7291
36106SOL    HW210326   1.876  10.531  10.377 -1.4304  0.3739 -1.8654
36107SOL     OW10327   2.966  10.060   5.560 -0.6028  0.0200  0.0158
36107SOL    HW110328   3.040  10.038   5.504 -0.4195  0.5617  0.0446
36107SOL    HW210329   2.931   9.975   5.587  1.0332 -0.2766  1.3720
36108SOL     OW10330   7.361   9.216   9.837  0.1284  0.4282 -0.2488
36108SOL    HW110331   7.392   9.249   9.921 -0.5715 -0.6533  0.4506
36108SOL    HW210332   7.397   9.277   9.773  1.1457  0.9386  0.7811
36109SOL     OW10333   8.111   4.447   7.530 -1.0798  0.3485  0.4971
36109SOL    HW110334   8.088   4.533   7.496  0.8391  0.7052 -0.0281
36109SOL    HW210335   8.056   4.436   7.608 -1.6868  1.8280  0.3045
36110SOL     OW10336  10.771   8.722   0.463 -0.5350  0.0513 -0.1973
36110SOL    HW110337  10.860   8.720   0.428 -0.5303  0.3817 -0.2115
36110SOL    HW210338  10.774   8.666   0.541 -0.3845 -0.1639 -0.3570
36111SOL     OW10339  10.733   6.677  10.369  0.7413  0.4224  0.6716
36111SOL    HW110340  10.687   6.618  10.429 -0.9271  0.4328 -0.5282
36111SOL    HW210341  10.782   6.619  10.310 -0.1251  0.2558  0.1008
36112SOL     OW10342   2.005   3.557   3.626  0.1336 -0.1964  0.0321
36112SOL    HW110343   1.953   3.495   3.676  1.2040  0.0475  1.5232
36112SOL    HW210344   2.093   3.549   3.662  0.7723  0.6032 -1.2690
36113SOL     OW10345   6.867   9.292  10.426 -0.1858  0.7374 -0.1860
36113SOL    HW110346   6.943   9.255  10.471 -1.8986  0.3551  2.6012
36113SOL    HW210347   6.792   9.244  10.461 -1.8571  1.9184 -1.9264
36114SOL     OW10348   7.673   9.002  10.362  0.3825 -0.1604 -0.3215
36114SOL    HW110349   7.709   8.915  10.374  0.9405  0.1105 -0.0340
36114SOL    HW210350   7.613   9.014  10.435  0.0028 -0.4550 -0.5814
36115SOL     OW10351   3.194   9.934   8.144 -0.1454  0.0510  0.1239
36115SOL    HW110352   3.107   9.973   8.129 -1.0537 -1.5902  0.8869
36115SOL    HW210353   3.176   9.842   8.164  1.6555 -0.0190  1.7183
36116SOL     OW10354   6.772  10.774   6.189  0.0436  0.0413  0.3814
36116SOL    HW110355   6.809  10.696   6.231 -0.0083 -0.2755 -0.1503
36116SOL    HW210356   6.767  10.839   6.259  1.4473  0.0387  0.5054
36117SOL     OW10357   1.717   0.944   2.827 -0.2482  0.1627 -0.1720
36117SOL    HW110358   1.635   0.918   2.784 -0.7311  2.1808 -0.5756
36117SOL    HW210359   1.771   0.865   2.824 -1.3427 -0.5987 -1.9359
36118SOL     OW10360   0.755   0.486   2.042  0.3659  0.0137  0.3679
36118SOL    HW110361   0.678   0.465   1.990 -0.2148 -0.3432  1.3518
36118SOL    HW210362   0.816   0.525   1.980 -0.5961  0.2737 -0.4301
36119SOL     OW10363  10.401   2.304   9.745  0.9526  0.1345 -0.7726
36119SOL    HW110364  10.360   2.245   9.681  0.5833 -2.4201  1.6286
36119SOL    HW210365  10.341   2.379   9.750 -3.4024 -3.0610  1.9683
36120SOL     OW10366   9.385   2.532   5.991 -0.4172  0.2973 -0.0126
36120SOL    HW110367   9.427   2.455   5.952  1.0299  0.1134  1.7549
36120SOL    HW210368   9.386   2.514   6.085 -2.9338  1.1076  0.2397
36121SOL     OW10369   9.301   4.757   3.230 -0.4863  0.1514 -0.2604
36121SOL    HW110370   9.377   4.702   3.248 -1.4494 -0.3426  2.9704
36121SOL    HW210371   9.306   4.826   3.296 -0.5176  2.7580 -2.8256
36122SOL     OW10372   9.299  10.529   0.792 -0.0216  0.1524 -0.6999
36122SOL    HW110373   9.348  10.537   0.709  3.0703 -0.4588  0.9118
36122SOL    HW210374   9.300  10.435   0.811  1.3170  0.4796  1.0722
36123SOL     OW10375   3.793   0.944  10.204 -0.1336 -0.3729  0.4716
36123SOL    HW110376   3.842   0.989  10.272 -0.7674  2.1962 -0.6549
36123SOL    HW210377   3.756   0.867  10.247  0.4628  0.5349  2.7101
36124SOL     OW10378   9.183   4.062   2.689 -0.2308 -0.1497 -0.5058
36124SOL    HW110379   9.256   4.114   2.723  2.4109 -2.6020 -1.9861
36124SOL    HW210380   9.169   4.095   2.600 -0.6622 -0.0045 -0.3912
36125SOL     OW10381   9.379   1.772   8.656 -0.0087  0.4814 -0.8581
36125SOL    HW110382   9.444   1.745   8.720 -1.9224  0.2159  1.0704
36125SOL    HW210383   9.344   1.690   8.620 -1.6004  0.4531  0.6161
36126SOL     OW10384   3.839   5.112   6.653  0.4425  0.1071  0.6511
36126SOL    HW110385   3.784   5.120   6.575  1.4205  2.1925  0.1003
36126SOL    HW210386   3.810   5.030   6.694 -1.0280 -0.3637 -1.1528
36127SOL     OW10387  11.017  10.196   9.986 -0.1325 -0.1861 -0.4771
36127SOL    HW110388  10.929  10.199  10.024  0.1028 -0.5420  0.1072
36127SOL    HW210389  11.020  10.112   9.940 -0.2797  0.0684 -0.9630
36128SOL     OW10390   1.651   8.644   4.976 -0.5192  0.4692  0.1841
36128SOL    HW110391   1.643   8.692   5.059 -0.3758  1.9024 -0.5963
36128SOL    HW210392   1.570   8.593   4.970 -1.1527  1.4011  0.5731
36129SOL     OW10393   7.527   8.297  10.395 -0.0140 -0.0181 -0.0828
36129SOL    HW110394   7.525   8.333  10.306 -0.8442 -1.0560 -0.5022
36129SOL    HW210395   7.561   8.208  10.384  1.3653  0.3476  0.8572
36130SOL     OW10396   5.748   6.115   7.089  0.1550 -0.1583 -0.3987
36130SOL    HW110397   5.693   6.059   7.035  1.4858 -1.0563 -0.8557
36130SOL    HW210398   5.709   6.110   7.176  0.8643 -2.7133 -0.1598
36131SOL     OW10399   4.834   0.241   5.603  0.1008 -0.5493  0.6462
36131SOL    HW110400   4.865   0.155   5.575 -1.6140 -0.4504 -1.8566
36131SOL    HW210401   4.756   0.257   5.550  0.6529  2.7925  0.6335
36132SOL     OW10402   8.939   7.849   1.806  0.2549  0.7003 -0.0200
36132SOL    HW110403   9.032   7.832   1.794  0.0613 -0.1254 -0.4558
36132SOL    HW210404   8.923   7.831   1.898  0.4551  0.4153 -0.0375
36133SOL     OW10405   9.029  10.455   3.240 -0.5924 -0.2274 -0.7486
36133SOL    HW110406   8.959  10.390   3.253 -1.5580  0.7429 -0.8879
36133SOL    HW210407   9.050  10.484   3.329  0.6369 -1.4985 -0.5897
36134SOL     OW10408   1.460   9.938   0.979  0.0780  0.4426  0.0484
36134SOL    HW110409   1.513   9.982   1.045 -1.7543  1.2873  1.0287
36134SOL    HW210410   1.405  10.007   0.942 -2.3776 -0.7965  1.1389
36135SOL     OW10411   9.270  10.265   0.839  0.9126  0.1124  0.1494
36135SOL    HW110412   9.297  10.206   0.769 -0.0532  1.7914 -1.7348
36135SOL    HW210413   9.202  10.216   0.886  2.1240 -1.3369  0.4596
36136SOL     OW10414   7.233   7.711  10.194 -0.3873  0.2257  1.0988
36136SOL    HW110415   7.178   7.639  10.227  0.1962 -0.3008  0.9465
36136SOL    HW210416   7.173   7.786  10.189 -1.2374 -0.4710  0.3837
36137SOL     OW10417   0.883   9.060   4.110  0.1393 -0.5432 -0.0352
36137SOL    HW110418   0.952   9.049   4.176  2.3911  1.7005 -1.7942
36137SOL    HW210419   0.911   9.006   4.037 -0.4271 -0.2565 -0.4740
36138SOL     OW10420   2.227   6.415   9.133 -0.1916 -0.4079 -0.5355
36138SOL    HW110421   2.287   6.342   9.153  0.8069  0.4769 -0.2110
36138SOL    HW210422   2.252   6.443   9.045  1.8270  1.7312  0.5927
36139SOL     OW10423   0.172   1.004   8.245 -0.3040 -0.3744 -0.4380
36139SOL    HW110424   0.156   0.928   8.301  0.6390 -0.9073 -0.8706
36139SOL    HW210425   0.267   1.015   8.246 -0.2777 -0.2793 -1.7546
36140SOL     OW10426   3.431   8.661   6.265 -0.2146  0.3514 -0.0775
36140SOL    HW110427   3.485   8.729   6.306 -2.3284  1.3797  1.1819
36140SOL    HW210428   3.417   8.597   6.335 -1.0048  0.3597 -0.2186
36141SOL     OW10429   4.699   8.469   3.461 -0.8971  0.3100  0.3972
36141SOL    HW110430   4.623   8.472   3.403 -0.6584  1.3815  0.1122
36141SOL    HW210431   4.736   8.557   3.456  0.0963 -0.0639  0.8908
36142SOL     OW10432   0.874   5.800  10.001  0.2762 -0.3028 -0.1481
36142SOL    HW110433   0.906   5.821  10.089  0.4502 -0.4039 -0.1868
36142SOL    HW210434   0.900   5.876   9.948 -1.0477  0.4049  0.1726
36143SOL     OW10435   5.483   3.090   7.480 -0.4976  0.1623 -0.1120
36143SOL    HW110436   5.434   3.020   7.436 -0.4992 -0.3126  0.6231
36143SOL    HW210437   5.417   3.136   7.531 -0.2740 -0.1561  0.4756
36144SOL     OW10438   9.081   4.542  11.013 -0.3155  0.5370  0.4927
36144SOL    HW110439   9.009   4.494  10.971  0.6230 -1.3554  0.9350
36144SOL    HW210440   9.044   4.575  11.095 -1.7549  3.0404 -1.0034
36145SOL     OW10441   0.628   5.050   6.568  0.1729  0.0897  0.6161
36145SOL    HW110442   0.639   5.050   6.473  1.4684 -0.9352  0.7363
36145SOL    HW210443   0.660   4.964   6.596 -1.0262  0.0244  1.8976
36146SOL     OW10444   7.012   8.441   5.161  0.8733  0.0119  0.0174
36146SOL    HW110445   6.971   8.389   5.230  0.1532 -0.6008 -0.8510
36146SOL    HW210446   7.047   8.376   5.099  1.4871  0.5508 -0.2164
36147SOL     OW10447   0.135   9.817   3.695 -0.0207  0.0771 -0.4077
36147SOL    HW110448   0.046   9.841   3.718 -0.5623 -1.8219 -0.2964
36147SOL    HW210449   0.163   9.882   3.630 -1.4968  0.6517 -0.4921
36148SOL     OW10450   8.598   4.892   9.160 -0.6971  0.2053 -0.0973
36148SOL    HW110451   8.639   4.937   9.234 -2.0070  1.2772  0.0185
36148SOL    HW210452   8.536   4.956   9.125 -2.3339 -1.3760 -0.2127
36149SOL     OW10453   1.607   2.585   9.099  0.1074  0.6896 -0.3891
36149SOL    HW110454   1.529   2.535   9.074 -0.5879  1.3570  0.3599
36149SOL    HW210455   1.625   2.557   9.189  0.2650  1.0942 -0.2910
36150SOL     OW10456   5.154   9.833   9.746  0.4675  0.9126  0.2854
36150SOL    HW110457   5.249   9.831   9.755  0.5637  0.7252 -0.6488
36150SOL    HW210458   5.137   9.899   9.678 -0.2433  2.7948  2.1775
36151SOL     OW10459   6.261   9.103   0.195  0.2300  0.3195  0.4937
36151SOL    HW110460   6.352   9.072   0.194 -0.3423 -1.5108 -0.6323
36151SOL    HW210461   6.226   9.070   0.277  0.7762  1.7949  1.3628
36152SOL     OW10462   6.849   5.337   3.811 -0.1448  0.4548 -0.3670
36152SOL    HW110463   6.761   5.302   3.822  0.3030 -0.8045 -0.6943
36152SOL    HW210464   6.903   5.288   3.874  0.2317  1.6067  0.2412
36153SOL     OW10465   9.268   8.859  10.040  0.2177  0.2126 -0.2196
36153SOL    HW110466   9.230   8.792   9.983  0.8575 -1.3276  1.0586
36153SOL    HW210467   9.349   8.819  10.072  0.2906  1.3490  1.1096
36154SOL     OW10468   9.142   5.756   7.315 -0.0480  0.8746  0.4126
36154SOL    HW110469   9.231   5.729   7.293 -0.3529  0.1839 -0.0127
36154SOL    HW210470   9.150   5.795   7.402  0.3083 -1.3557  1.4610
36155SOL     OW10471   6.658   2.957   4.014  0.5431 -0.1190 -0.1305
36155SOL    HW110472   6.626   2.917   4.095 -2.7452 -0.4011 -1.3992
36155SOL    HW210473   6.702   2.886   3.967 -1.7441 -1.3188 -0.6066
36156SOL     OW10474   4.444   9.883   8.811  0.5258 -0.3137 -0.6802
36156SOL    HW110475   4.378   9.843   8.868 -1.6111  1.6394 -1.5715
36156SOL    HW210476   4.433   9.977   8.825  2.6080  0.0895 -1.4876
36157SOL     OW10477  10.045  10.727   4.916 -0.2952  0.4411 -0.0501
36157SOL    HW110478  10.004  10.685   4.991 -1.1466  1.3308  0.0168
36157SOL    HW210479  10.123  10.675   4.898 -0.7409 -0.5086  0.6761
36158SOL     OW10480   4.514   3.221   0.075 -0.7074 -0.0562  0.0038
36158SOL    HW110481   4.509   3.316   0.087  0.5947 -0.2791  3.1686
36158SOL    HW210482   4.478   3.184   0.156 -1.1502 -2.2925 -1.1259
36159SOL     OW10483   8.439   7.483  10.750  0.2703 -0.2023 -0.3863
36159SOL    HW110484   8.442   7.544  10.676  0.8501 -0.0032 -0.1996
36159SOL    HW210485   8.405   7.535  10.823  0.7256 -0.1124 -0.2378
36160SOL     OW10486   7.664  10.039   9.692 -0.3545  0.2109  0.2939
36160SOL    HW110487   7.605   9.964   9.703 -1.5434  0.9348 -0.8713
36160SOL    HW210488   7.722  10.014   9.620 -1.6988  0.9223 -1.0984
36161SOL     OW10489   6.105   0.258  10.669  0.0059 -0.2783 -0.4667
36161SOL    HW110490   6.192   0.275  10.634 -0.0073  0.2386 -0.2586
36161SOL    HW210491   6.103   0.304  10.753 -0.5196 -0.1417 -0.5457
36162SOL     OW10492  10.649   8.050   8.493 -0.2916  0.1530 -0.6989
36162SOL    HW110493  10.577   8.021   8.436  1.1473  0.2288 -2.6906
36162SOL    HW210494  10.647   7.989   8.566 -1.6166 -0.6183 -1.3222
36163SOL     OW10495   8.417   5.834   7.715 -0.2555  0.1604  0.4807
36163SOL    HW110496   8.359   5.759   7.705  1.2967 -0.8914 -1.1996
36163SOL    HW210497   8.503   5.796   7.731  0.8153  1.5138 -1.6788
36164SOL     OW10498   6.184   9.850   9.581  0.0380  0.3217  0.2364
36164SOL    HW110499   6.224   9.767   9.606  0.8684  0.8584  0.7385
36164SOL    HW210500   6.257   9.910   9.570 -0.5410  0.9507 -0.2960
36165SOL     OW10501   0.952   0.719  10.914  0.2808 -0.2020 -0.0577
36165SOL    HW110502   1.018   0.779  10.947  0.3414  1.3683 -2.7355
36165SOL    HW210503   1.001   0.648  10.874  0.2552 -0.5944  0.5898
36166SOL     OW10504   0.816   9.396  10.726 -0.6622  0.1416  0.0565
36166SOL    HW110505   0.735   9.419  10.681  0.4806 -0.5966 -2.5408
36166SOL    HW210506   0.817   9.300  10.726  0.2790  0.1459 -0.0902
36167SOL     OW10507   9.260   2.761   9.866 -0.8824 -0.2522 -0.4260
36167SOL    HW110508   9.273   2.712   9.947 -1.6703 -0.4094 -0.3956
36167SOL    HW210509   9.344   2.753   9.820 -0.8573 -1.2501 -0.2190
36168SOL     OW10510   0.133   9.964   9.576  0.0931 -0.5162 -0.0942
36168SOL    HW110511   0.207  10.013   9.611 -0.9495  0.7574  0.4072
36168SOL    HW210512   0.061  10.028   9.574 -0.4450 -1.0978 -2.5933
36169SOL     OW10513  10.207   9.337   5.447  0.5266 -0.0925  0.3811
36169SOL    HW110514  10.274   9.369   5.506  0.5778  0.5515 -0.0218
36169SOL    HW210515  10.247   9.340   5.360 -0.4681  1.6463 -0.0614
36170SOL     OW10516   1.618   9.960   2.247  0.1555  0.4330  0.1807
36170SOL    HW110517   1.604  10.002   2.162  2.8072 -0.2820 -0.7223
36170SOL    HW210518   1.569   9.878   2.241 -0.0807  0.6112 -0.4661
36171SOL     OW10519   7.786   7.492   1.064 -0.5389  0.5108 -0.0255
36171SOL    HW110520   7.815   7.531   0.981 -0.4265 -0.2485 -0.3579
36171SOL    HW210521   7.715   7.432   1.038  0.4297 -0.7951  0.2160
36172SOL     OW10522   3.504   3.946   6.518  0.0364  0.1240  0.0047
36172SOL    HW110523   3.499   4.036   6.486  0.9799 -0.1724 -1.0481
36172SOL    HW210524   3.413   3.921   6.533 -0.4555  0.4252 -2.1140
36173SOL     OW10525   0.012   9.001   6.477  0.1132  0.2724 -0.3990
36173SOL    HW110526  -0.062   9.036   6.427 -0.9885 -0.2872  0.7735
36173SOL    HW210527   0.044   8.929   6.423 -1.2555 -0.5200 -0.2181
36174SOL     OW10528   8.662   4.445   1.848  0.4453  0.4612  0.3273
36174SOL    HW110529   8.681   4.425   1.940 -0.5694  1.3386  0.7421
36174SOL    HW210530   8.570   4.421   1.837  0.4887  0.6133 -0.3958
36175SOL     OW10531   1.902   0.774  10.289  0.2976 -0.4637  0.3452
36175SOL    HW110532   1.982   0.731  10.321  1.7699 -0.0311 -2.4078
36175SOL    HW210533   1.934   0.843  10.231 -2.1030  0.3831 -0.0836
36176SOL     OW10534   4.620   9.430   4.568  0.1002 -0.2286  0.3344
36176SOL    HW110535   4.525   9.427   4.558  0.0125  0.6258  0.7816
36176SOL    HW210536   4.646   9.512   4.525  0.6267 -0.4268  0.2627
36177SOL     OW10537  10.972   2.154  10.897 -0.7333  0.2347  0.1022
36177SOL    HW110538  10.892   2.107  10.922 -1.4600  0.7051 -1.1951
36177SOL    HW210539  10.942   2.220  10.834  0.1146  3.1149  2.4991
36178SOL     OW10540   1.827   8.696   0.060  0.1762 -0.5996 -0.1073
36178SOL    HW110541   1.738   8.672   0.034  0.0359 -0.8308  0.5613
36178SOL    HW210542   1.875   8.613   0.060  0.1177 -0.6363  0.5775
36179SOL     OW10543  10.712   3.426   9.684  0.3712 -0.2993 -0.0089
36179SOL    HW110544  10.700   3.353   9.744 -0.5057 -0.1718 -0.0200
36179SOL    HW210545  10.803   3.453   9.697  0.4187 -0.7771  0.6881
36180SOL     OW10546   7.768   1.318   3.667  0.2807  0.4546 -0.0073
36180SOL    HW110547   7.735   1.305   3.579 -0.4863 -0.7733  0.4344
36180SOL    HW210548   7.787   1.230   3.699  0.7627  0.8965  0.9692
36181SOL     OW10549   6.453   0.658   2.827 -0.1713 -0.2235  0.1360
36181SOL    HW110550   6.366   0.685   2.799  0.2230 -0.1892 -1.1227
36181SOL    HW210551   6.502   0.740   2.835 -0.0361 -0.2976  0.0707
36182SOL     OW10552  11.080   8.730   3.420 -0.5003 -0.2656 -0.2061
36182SOL    HW110553  11.095   8.695   3.508 -0.9180 -0.4827 -0.2184
36182SOL    HW210554  11.121   8.666   3.361 -0.5652 -0.3219 -0.1902
36183SOL     OW10555   1.121   9.975   8.368 -0.3286  0.1182 -0.3982
36183SOL    HW110556   1.053  10.036   8.340 -1.1914  0.2827  1.8101
36183SOL    HW210557   1.077   9.916   8.429  1.3770 -0.0673  0.7497
36184SOL     OW10558   5.347   5.199   8.536  0.4739 -0.2966  0.1834
36184SOL    HW110559   5.373   5.110   8.562  2.4282  0.3964  0.7736
36184SOL    HW210560   5.264   5.187   8.489  0.8058 -2.4526  0.0442
36185SOL     OW10561   9.000   9.409   6.608 -0.5743  0.0632 -0.5565
36185SOL    HW110562   9.016   9.315   6.602  0.6039  0.1814  0.2763
36185SOL    HW210563   8.917   9.417   6.654 -0.7588 -0.5770 -0.7826
36186SOL     OW10564   0.126   3.229   0.243 -0.2204  0.1682 -0.1223
36186SOL    HW110565   0.162   3.167   0.179  0.9659 -0.3111  0.9531
36186SOL    HW210566   0.193   3.296   0.253 -0.8653  0.8344 -0.1842
36187SOL     OW10567   7.603   9.445   0.217  0.5640  0.1055 -0.0103
36187SOL    HW110568   7.512   9.438   0.247  0.2296  1.0711 -0.7233
36187SOL    HW210569   7.628   9.356   0.194 -0.7376  0.0152 -1.2615
36188SOL     OW10570   4.000   4.502   4.581 -0.3595  0.3797  0.8851
36188SOL    HW110571   3.934   4.545   4.526  0.3170  1.6555  1.0276
36188SOL    HW210572   4.023   4.422   4.533 -0.3469  1.0770 -0.3139
36189SOL     OW10573   7.882   7.214   5.489 -0.3618  0.4516  0.2350
36189SOL    HW110574   7.880   7.283   5.423  1.2800  0.8713  0.5774
36189SOL    HW210575   7.944   7.245   5.555  1.4141 -1.8332 -0.2050
36190SOL     OW10576   6.824   5.353   1.013  0.2903 -0.4408 -0.0751
36190SOL    HW110577   6.779   5.431   1.046 -0.6480 -0.4145 -1.3481
36190SOL    HW210578   6.909   5.385   0.983  0.4393 -0.1581  0.6239
36191SOL     OW10579   2.624   3.129   9.863  0.3543 -0.2458 -0.0205
36191SOL    HW110580   2.622   3.221   9.837  0.2201 -0.9570 -2.8572
36191SOL    HW210581   2.532   3.105   9.875  0.3553 -0.1483  0.1836
36192SOL     OW10582   3.432   0.555   8.949  0.7588 -0.0889  0.7963
36192SOL    HW110583   3.388   0.634   8.915  0.6229 -0.4464  0.1336
36192SOL    HW210584   3.517   0.586   8.979  0.4026  0.4545  1.2701
36193SOL     OW10585   2.992  10.365   6.700 -0.1583  0.3457  0.1736
36193SOL    HW110586   2.916  10.329   6.745 -2.2123  1.8341 -1.8596
36193SOL    HW210587   2.990  10.324   6.613  2.1259 -0.4570  0.4128
36194SOL     OW10588   6.134   1.055   2.547  0.8999  0.7835 -0.1521
36194SOL    HW110589   6.074   1.127   2.564  0.6929  0.6116 -0.1472
36194SOL    HW210590   6.190   1.087   2.476  1.4391  1.3085  0.5039
36195SOL     OW10591   9.878   9.902   2.804 -0.0160  0.2431 -0.1430
36195SOL    HW110592   9.839   9.986   2.781 -1.8754 -0.5697 -0.1011
36195SOL    HW210593   9.823   9.837   2.761  2.0429 -0.9552 -1.1163
36196SOL     OW10594   2.184   0.112   2.577 -0.0923 -0.6939  0.0929
36196SOL    HW110595   2.186   0.205   2.558 -0.3697 -0.9384 -1.2564
36196SOL    HW210596   2.172   0.070   2.492 -1.9615 -1.8769  0.8480
36197SOL     OW10597   6.028   8.761   8.112 -0.0347 -0.3096  0.2489
36197SOL    HW110598   6.119   8.784   8.093 -0.0555 -0.6202 -0.2327
36197SOL    HW210599   6.025   8.753   8.207  0.2620  0.4522  0.3327
36198SOL     OW10600  10.784   1.398   8.792  0.3500  0.6836 -0.1258
36198SOL    HW110601  10.794   1.407   8.697  1.2962 -0.1670 -0.1134
36198SOL    HW210602  10.861   1.441   8.828  0.1371  0.7432  0.2600
36199SOL     OW10603   3.721   6.419   2.888 -0.6067  0.0664  0.1807
36199SOL    HW110604   3.630   6.443   2.902 -0.1448  2.6506 -0.6473
36199SOL    HW210605   3.770   6.500   2.903  0.9757  0.3512 -4.7136
36200SOL     OW10606  10.917   9.237   4.050 -0.3493 -0.3413 -0.2478
36200SOL    HW110607  10.967   9.249   3.970 -0.7025 -0.4278 -0.4820
36200SOL    HW210608  10.979   9.259   4.120  0.1107 -0.7552 -0.5188
36201SOL     OW10609   1.137  10.694   5.658  0.0821 -0.6323 -0.0492
36201SOL    HW110610   1.232  10.691   5.671  0.3182  0.4704 -1.3616
36201SOL    HW210611   1.106  10.754   5.727  0.3172 -1.0563  0.4322
36202SOL     OW10612   0.783   5.159   8.513 -0.0505 -0.0994 -0.3156
36202SOL    HW110613   0.777   5.068   8.484  2.4647 -0.2398 -0.5608
36202SOL    HW210614   0.839   5.157   8.590 -0.8249  1.1482  0.3253
36203SOL     OW10615   9.027  10.945   7.822 -0.7081  0.4770 -0.5942
36203SOL    HW110616   9.085  10.898   7.762  1.0451  0.4223  1.0438
36203SOL    HW210617   9.079  11.020   7.852 -2.2071  1.5517 -0.5262
36204SOL     OW10618   7.803  10.379   6.022  0.1656  0.3371  0.2520
36204SOL    HW110619   7.726  10.433   6.039  1.6112  2.4025  0.5657
36204SOL    HW210620   7.795  10.355   5.930 -0.7766  0.6355  0.2467
36205SOL     OW10621   9.219   5.279   0.167 -0.1061  0.1519  0.6232
36205SOL    HW110622   9.215   5.184   0.177 -1.5461  0.2930  1.7601
36205SOL    HW210623   9.162   5.298   0.093 -0.5403  0.1886  0.9622
36206SOL     OW10624   0.391   5.627  10.966 -0.2345 -0.1684 -0.4589
36206SOL    HW110625   0.329   5.554  10.964  0.5051 -0.8148 -0.2007
36206SOL    HW210626   0.340   5.700  11.001 -0.0172 -1.5373  3.1253
36207SOL     OW10627   0.267   7.741   0.840 -0.4499 -0.2885  0.2105
36207SOL    HW110628   0.289   7.697   0.922 -0.1879 -0.2199  0.1795
36207SOL    HW210629   0.335   7.808   0.830 -0.3672 -0.4216 -0.1586
36208SOL     OW10630  10.758   6.110   1.873  0.3957  0.2283  0.3024
36208SOL    HW110631  10.689   6.130   1.809  1.7024  2.4232 -0.5086
36208SOL    HW210632  10.734   6.162   1.950 -0.6756 -1.7150  1.3782
36209SOL     OW10633   8.951   3.108   1.982  0.3560 -0.4009  0.4321
36209SOL    HW110634   9.033   3.063   1.961  0.0591 -1.2366  0.9988
36209SOL    HW210635   8.889   3.037   2.001 -0.4261  0.2241  0.2825
36210SOL     OW10636  10.929   5.869   8.756 -0.2719  0.5552  0.0350
36210SOL    HW110637  10.884   5.807   8.813  1.0207  0.0525  0.5618
36210SOL    HW210638  11.006   5.820   8.725 -0.4142  1.1647 -1.3189
36211SOL     OW10639   9.121   5.032   1.220  0.0764  0.5166 -0.2107
36211SOL    HW110640   9.094   5.084   1.295 -1.0658  0.5361 -0.6106
36211SOL    HW210641   9.191   5.082   1.179 -0.5224  1.3994 -0.1792
36212SOL     OW10642   7.472   8.194   2.115  0.1283 -0.1949 -0.6778
36212SOL    HW110643   7.452   8.133   2.044 -1.0358  0.6300 -1.0790
36212SOL    HW210644   7.397   8.188   2.174 -0.5636  1.6911 -1.3152
36213SOL     OW10645   3.636   6.955   9.849 -0.2133  0.6523  0.0407
36213SOL    HW110646   3.672   7.023   9.792 -1.2140 -0.9032 -2.6596
36213SOL    HW210647   3.594   6.894   9.788 -1.0378 -1.3549  2.4873
36214SOL     OW10648   0.438  10.448   3.139  0.4835  0.7435 -0.1218
36214SOL    HW110649   0.395  10.503   3.073  0.9337 -1.6390 -2.6214
36214SOL    HW210650   0.453  10.365   3.093  1.5351 -0.8123  2.8279
36215SOL     OW10651   7.607   2.636   8.186 -0.7537  0.0544  0.2523
36215SOL    HW110652   7.640   2.695   8.254  1.1486 -0.4509 -0.1942
36215SOL    HW210653   7.599   2.691   8.108 -2.3026  0.4768  0.6655
36216SOL     OW10654   5.905   5.614   1.971 -0.7587 -0.0090  0.1557
36216SOL    HW110655   5.908   5.577   1.883 -0.4006 -1.5441  0.7858
36216SOL    HW210656   5.992   5.651   1.984 -0.2900 -1.1476  0.4034
36217SOL     OW10657   1.049   4.190   7.001 -0.1242  0.8478 -0.0555
36217SOL    HW110658   1.101   4.247   7.058 -0.1575  1.4016 -0.5642
36217SOL    HW210659   1.017   4.248   6.932  0.0891  0.1541 -0.7562
36218SOL     OW10660   5.307   9.008   1.811 -0.3756  0.6002  0.3706
36218SOL    HW110661   5.243   8.939   1.795 -0.0275  0.5932 -1.2024
36218SOL    HW210662   5.293   9.033   1.902 -0.7061 -1.3259  0.8936
36219SOL     OW10663   8.598   7.969   3.501 -0.4043 -0.4907  0.2594
36219SOL    HW110664   8.670   7.910   3.525  0.8027 -1.1123 -4.0608
36219SOL    HW210665   8.535   7.912   3.458 -2.5575  0.4370  1.9957
36220SOL     OW10666   9.986   5.959   1.676 -0.2185 -0.4412  0.2300
36220SOL    HW110667   9.978   6.047   1.714 -0.8523 -0.6579  0.6112
36220SOL    HW210668  10.003   5.974   1.583 -1.7939  0.0917  0.0023
36221SOL     OW10669   4.616   1.408   1.268 -0.1130  0.1533 -0.3948
36221SOL    HW110670   4.699   1.454   1.258  0.6882 -1.3159 -0.6296
36221SOL    HW210671   4.550   1.477   1.258  1.0057  1.0117 -2.4782
36222SOL     OW10672   9.890  10.890   1.347 -0.2261 -0.0456 -0.1131
36222SOL    HW110673   9.844  10.877   1.264  0.0892 -1.7361 -0.0535
36222SOL    HW210674   9.910  10.802   1.378 -1.4359  0.4892  2.4248
36223SOL     OW10675   1.895   5.984   4.948  0.4510  0.4442 -0.2878
36223SOL    HW110676   1.944   5.903   4.962  0.1750  0.2549 -0.4229
36223SOL    HW210677   1.961   6.053   4.955  0.6002  0.2433  0.3412
36224SOL     OW10678   7.544   1.591   1.480  0.1795  0.2128 -0.0844
36224SOL    HW110679   7.636   1.616   1.469 -0.7635  3.7209 -1.2351
36224SOL    HW210680   7.522   1.544   1.400  0.0748  2.9125 -1.7898
36225SOL     OW10681   9.596   2.027   6.064 -0.6926 -0.2388 -0.0710
36225SOL    HW110682   9.586   2.074   6.147  0.1611 -0.7351  0.3222
36225SOL    HW210683   9.523   1.965   6.063 -0.2110 -0.8330  0.7270
36226SOL     OW10684   1.266   9.392   9.805 -0.0629 -0.4681 -0.0063
36226SOL    HW110685   1.178   9.373   9.772  0.7883 -0.6196 -2.4064
36226SOL    HW210686   1.283   9.323   9.869 -2.3623  0.6695  1.9434
36227SOL     OW10687   8.221   0.498   5.463 -0.1717 -0.8021  0.3891
36227SOL    HW110688   8.143   0.507   5.407 -0.9147 -1.4439  1.2890
36227SOL    HW210689   8.290   0.469   5.403 -0.6946 -0.5087 -0.3723
36228SOL     OW10690   1.415   2.509   4.152  0.2922  0.4426  0.3595
36228SOL    HW110691   1.364   2.449   4.098 -1.4959  0.8589  1.4923
36228SOL    HW210692   1.403   2.477   4.241  2.2126  0.4605  0.6753
36229SOL     OW10693   3.436  10.254   9.012 -0.5772  0.1989  0.0141
36229SOL    HW110694   3.513  10.309   8.996 -0.6927  0.1957 -0.5929
36229SOL    HW210695   3.400  10.286   9.095 -0.2257  0.5554  0.0311
36230SOL     OW10696   1.078   4.440   7.560 -0.0062  0.0335 -0.0300
36230SOL    HW110697   1.101   4.532   7.563 -0.6922  0.2380 -0.7320
36230SOL    HW210698   1.162   4.394   7.550  0.2341  0.6615 -1.0014
36231SOL     OW10699   0.619   9.014   3.138 -0.3127  0.7855 -0.5731
36231SOL    HW110700   0.706   9.055   3.139 -0.0826  0.3492 -1.4220
36231SOL    HW210701   0.558   9.086   3.148  0.1772  0.9464  1.6340
36232SOL     OW10702  10.638   0.380   7.280  0.5132  0.4008 -0.2500
36232SOL    HW110703  10.676   0.307   7.330  2.8631  1.4678 -0.3912
36232SOL    HW210704  10.705   0.447   7.280 -1.1351  2.1407 -1.1710
36233SOL     OW10705  10.898   1.219   5.697  0.1399  0.4020  0.3339
36233SOL    HW110706  10.967   1.285   5.698 -0.0736  0.7612 -2.0749
36233SOL    HW210707  10.934   1.147   5.645 -1.0219  0.3056 -0.3823
36234SOL     OW10708   7.750   3.200   5.213 -0.0899  0.3923 -0.4896
36234SOL    HW110709   7.713   3.238   5.134 -1.8910  0.2594  0.2311
36234SOL    HW210710   7.731   3.106   5.205 -0.9892  0.4729  0.4082
36235SOL     OW10711   6.806   6.017   8.506  0.0784 -0.0673  0.5252
36235SOL    HW110712   6.801   6.056   8.593 -1.3934 -0.3524  0.5953
36235SOL    HW210713   6.779   5.926   8.519  0.1429 -0.1875 -0.1705
36236SOL     OW10714   8.552   9.634   3.653  0.5831 -0.0975  0.0046
36236SOL    HW110715   8.612   9.586   3.710  0.5198 -0.0774  0.0876
36236SOL    HW210716   8.526   9.569   3.587  0.7675 -0.0804 -0.0856
36237SOL     OW10717   1.724  10.791   1.352 -0.1099 -0.4100 -0.3542
36237SOL    HW110718   1.792  10.828   1.297  0.0502 -0.4164 -0.1614
36237SOL    HW210719   1.751  10.811   1.442 -0.7733  0.2978 -0.2982
36238SOL     OW10720   1.340   2.257  10.535  0.4041  0.4372 -0.3593
36238SOL    HW110721   1.333   2.188  10.602  1.5022  0.6639  0.0138
36238SOL    HW210722   1.300   2.333  10.576 -2.7910 -0.4451 -1.5636
36239SOL     OW10723   3.228   5.385   5.624 -0.0395 -0.2862  0.7544
36239SOL    HW110724   3.248   5.340   5.543  1.6787 -1.2897  1.6870
36239SOL    HW210725   3.202   5.316   5.685 -0.0084  0.3000  1.4479
36240SOL     OW10726   2.741   0.446   9.344 -0.4055 -0.4169 -0.0498
36240SOL    HW110727   2.814   0.407   9.296 -0.5494 -1.5997  0.6403
36240SOL    HW210728   2.768   0.537   9.359  1.7016 -1.1927  1.5691
36241SOL     OW10729   1.089   7.668   8.810  0.5234 -0.2868 -0.2586
36241SOL    HW110730   1.037   7.726   8.866 -0.0563  1.0865 -2.1109
36241SOL    HW210731   1.049   7.581   8.821  0.4075 -0.0482  1.3783
36242SOL     OW10732   6.156   4.821   7.579  0.2111  0.3463 -0.1145
36242SOL    HW110733   6.200   4.787   7.657 -3.0649 -2.7645  0.6155
36242SOL    HW210734   6.191   4.910   7.570  3.8624 -0.5774  2.3122
36243SOL     OW10735   0.695  10.879  10.923 -0.7582 -0.5954  0.2610
36243SOL    HW110736   0.663  10.868  10.833 -1.4277 -1.7561  0.6066
36243SOL    HW210737   0.714  10.790  10.953 -0.7275 -0.2531  1.3305
36244SOL     OW10738  10.026  10.656  10.691 -0.5074 -0.0274  0.1689
36244SOL    HW110739   9.979  10.615  10.619  0.8332 -1.7866  0.2326
36244SOL    HW210740  10.115  10.670  10.658 -0.0856 -0.1335  1.1974
36245SOL     OW10741   9.270   3.012   9.136  0.2221 -0.6088  0.5417
36245SOL    HW110742   9.243   2.920   9.145 -0.6495 -0.2944  1.2389
36245SOL    HW210743   9.216   3.059   9.200  0.9249  0.3415  0.4419
36246SOL     OW10744   1.451   0.455   0.089 -0.1894  0.4341  0.0214
36246SOL    HW110745   1.508   0.508   0.144  0.1677 -0.1803  0.2544
36246SOL    HW210746   1.391   0.413   0.151 -1.0055  1.1949 -0.2343
36247SOL     OW10747  10.441   3.304   7.963 -0.0261  1.0539  0.3899
36247SOL    HW110748  10.360   3.349   7.940  0.1697  2.1909  1.7654
36247SOL    HW210749  10.420   3.259   8.045  0.6377  1.0817  0.5787
36248SOL     OW10750   9.327   3.086   8.883 -0.2133 -0.4211  0.6216
36248SOL    HW110751   9.304   3.098   8.975 -0.3067  0.1995  0.5217
36248SOL    HW210752   9.367   3.168   8.858 -2.1062  0.2340 -0.4662
36249SOL     OW10753  10.807   8.546   8.295  0.0448 -0.2886  0.0751
36249SOL    HW110754  10.821   8.639   8.316  0.6179 -0.8079  2.2013
36249SOL    HW210755  10.829   8.540   8.202 -3.7426  2.4105 -1.2664
36250SOL     OW10756   0.364   8.779   8.286 -0.3155 -0.3425 -0.4996
36250SOL    HW110757   0.369   8.684   8.277 -0.3014 -0.3638 -0.2503
36250SOL    HW210758   0.318   8.794   8.368 -3.1491 -0.1341 -2.0074
36251SOL     OW10759  10.838   3.151   5.977 -0.6743  0.4211 -0.3908
36251SOL    HW110760  10.902   3.211   6.015 -0.5243 -0.7974  1.3788
36251SOL    HW210761  10.890   3.082   5.936 -0.8479  0.2446 -0.3176
36252SOL     OW10762   5.842   7.698   8.139 -0.0570  0.0297 -0.0125
36252SOL    HW110763   5.792   7.618   8.154  0.4563 -0.6850 -1.8844
36252SOL    HW210764   5.776   7.766   8.130 -0.5906 -0.5236 -0.3301
36253SOL     OW10765   0.013   0.331   8.696 -0.5711  0.1236  0.0154
36253SOL    HW110766   0.059   0.322   8.613 -0.4961  0.0387  0.0654
36253SOL    HW210767  -0.060   0.390   8.677 -0.0319  0.8299  0.0963
36254SOL     OW10768   4.927   0.187   4.223 -0.5745 -0.0269 -0.3755
36254SOL    HW110769   4.839   0.176   4.188 -0.3616 -0.4753 -0.7777
36254SOL    HW210770   4.962   0.098   4.230 -0.9464 -0.0568  1.8904
36255SOL     OW10771   1.864   9.725   7.377 -0.6914  0.7808  0.2650
36255SOL    HW110772   1.884   9.780   7.453 -0.2351  1.8671 -0.5945
36255SOL    HW210773   1.832   9.643   7.413  1.6626  0.3938  1.7017
36256SOL     OW10774   3.547   7.651   7.894 -0.1964 -0.4600 -0.0338
36256SOL    HW110775   3.594   7.651   7.977  0.2871 -1.3984 -0.2907
36256SOL    HW210776   3.608   7.691   7.832 -0.0427 -0.9483 -0.2014
36257SOL     OW10777   7.954  10.610   5.944  0.4861  0.1680  0.2755
36257SOL    HW110778   7.902  10.667   6.002  1.2478  0.4082  0.7372
36257SOL    HW210779   7.952  10.524   5.986 -0.8555 -0.2220 -0.5409
36258SOL     OW10780   4.384  10.171  10.487 -0.4257 -0.4220 -0.2042
36258SOL    HW110781   4.478  10.153  10.485 -0.5262 -1.0006 -0.0154
36258SOL    HW210782   4.378  10.266  10.496  0.1354 -0.3029 -0.9242
36259SOL     OW10783   1.116   2.556   0.860  0.4703 -0.5782  0.5546
36259SOL    HW110784   1.122   2.463   0.838  0.5007 -0.7983  1.4369
36259SOL    HW210785   1.206   2.580   0.883  0.9238  0.2684 -1.8548
36260SOL     OW10786  10.740   4.983   0.817 -0.2852 -0.5187 -0.0889
36260SOL    HW110787  10.674   4.933   0.865 -1.0028  0.2846 -0.2174
36260SOL    HW210788  10.786   5.033   0.885 -0.6543 -0.1254 -0.1200
36261SOL     OW10789   2.404   6.712   5.400 -0.2375  0.2373 -0.9416
36261SOL    HW110790   2.456   6.774   5.451 -0.2211  0.6718 -1.4798
36261SOL    HW210791   2.394   6.753   5.315 -1.3317  0.0778 -0.9003
36262SOL     OW10792  10.278  10.009   3.686  0.5116 -0.4047 -0.6642
36262SOL    HW110793  10.319   9.983   3.769  1.3483 -0.4354 -1.0792
36262SOL    HW210794  10.222  10.083   3.709  0.7740 -0.3805 -0.0830
36263SOL     OW10795   1.438   4.967   0.815 -0.4598  0.1246 -0.2930
36263SOL    HW110796   1.387   4.887   0.803  1.2942 -1.3115  1.1229
36263SOL    HW210797   1.525   4.946   0.780  0.4609  0.8455  1.4030
36264SOL     OW10798   0.958   8.108   7.295  0.0037  0.4715 -0.1783
36264SOL    HW110799   1.053   8.105   7.301 -0.0714 -0.8736  0.8869
36264SOL    HW210800   0.934   8.027   7.250 -0.6587  0.5626 -0.0081
36265SOL     OW10801  10.638  10.785   8.928 -0.2510  0.0836  0.2950
36265SOL    HW110802  10.731  10.760   8.923 -0.6301 -1.4975  0.6259
36265SOL    HW210803  10.623  10.840   8.851  1.4146  2.0207  1.2423
36266SOL     OW10804   3.738  10.582   7.904 -0.8368 -0.5321  0.1664
36266SOL    HW110805   3.678  10.516   7.939 -0.7693 -1.0993 -0.7573
36266SOL    HW210806   3.825  10.544   7.916 -0.8422 -0.9350 -1.0225
36267SOL     OW10807   8.685   7.851   3.219  0.6611  0.4859  0.0422
36267SOL    HW110808   8.728   7.772   3.252 -0.6544 -0.8461 -1.2721
36267SOL    HW210809   8.725   7.867   3.134  0.0488  0.4682 -0.2568
36268SOL     OW10810   2.259   7.896   4.653  0.0919 -0.5775  0.1593
36268SOL    HW110811   2.258   7.841   4.575  0.4273 -0.7851  0.2945
36268SOL    HW210812   2.271   7.834   4.725  1.6250 -0.2421  0.2241
36269SOL     OW10813   9.771   2.348   5.642  0.2155  0.9358  0.3251
36269SOL    HW110814   9.799   2.329   5.731  0.3568  0.0918  0.1070
36269SOL    HW210815   9.852   2.365   5.594  0.0524  4.9416  1.0685
36270SOL     OW10816   4.164   1.877   1.693  0.2918 -0.5226 -0.7822
36270SOL    HW110817   4.226   1.807   1.714 -2.0613 -2.8352 -0.8648
36270SOL    HW210818   4.150   1.869   1.599 -1.3693 -1.2989 -0.5197
36271SOL     OW10819   5.108   7.473   7.720 -0.6704  0.0459 -0.1313
36271SOL    HW110820   5.087   7.534   7.650 -2.1295  1.3468  1.3597
36271SOL    HW210821   5.023   7.438   7.748 -0.2383  0.3007  1.6061
36272SOL     OW10822   2.052   3.445   7.983 -0.2168  0.3859 -0.6525
36272SOL    HW110823   1.995   3.405   7.917 -0.5673 -1.7814  0.8709
36272SOL    HW210824   1.994   3.468   8.055  0.4297  0.8054 -0.2550
36273SOL     OW10825   6.781   3.536  10.524  0.3685 -0.5182 -0.6301
36273SOL    HW110826   6.690   3.535  10.555  0.6290  0.1403  0.1951
36273SOL    HW210827   6.806   3.629  10.527  1.3159 -0.7762 -0.0841
36274SOL     OW10828   1.750   2.237  10.553 -0.5876 -0.1738  0.2859
36274SOL    HW110829   1.723   2.155  10.595  0.3158  0.0461  1.3497
36274SOL    HW210830   1.844   2.227  10.538 -0.5054  0.5891  0.2585
36275SOL     OW10831   9.108  10.672   0.027  0.5304  0.3030  0.0544
36275SOL    HW110832   9.192  10.676  -0.020  0.2384  0.2300 -0.4782
36275SOL    HW210833   9.103  10.756   0.073  0.9615  0.2498  0.2098
36276SOL     OW10834   2.875   7.976   9.969 -0.3425  0.2861 -0.1127
36276SOL    HW110835   2.780   7.976   9.966 -0.3557 -1.5781 -1.2359
36276SOL    HW210836   2.900   7.884   9.962  1.5251  0.3852  3.1342
36277SOL     OW10837   4.938   9.463   9.991 -0.2475 -0.0661  0.4571
36277SOL    HW110838   4.949   9.402   9.918 -0.2228  0.0301  0.3803
36277SOL    HW210839   5.026   9.476  10.026 -0.0883  0.7746 -0.2184
36278SOL     OW10840   6.757   3.951   3.024 -0.4424  0.3257  0.5701
36278SOL    HW110841   6.745   4.042   3.049 -1.7352  0.4165 -0.3161
36278SOL    HW210842   6.708   3.901   3.089 -1.5761  0.4036 -0.2120
36279SOL     OW10843   8.904   0.680   6.985 -0.4756 -0.0781 -0.2204
36279SOL    HW110844   8.858   0.708   7.063  0.0879 -1.1896  0.5329
36279SOL    HW210845   8.995   0.705   7.000 -0.0502 -1.7254  0.2474
36280SOL     OW10846   9.641  10.733   3.809 -0.1696  0.5705  0.0786
36280SOL    HW110847   9.674  10.715   3.721  2.8287  0.7349  1.0688
36280SOL    HW210848   9.657  10.652   3.858 -2.7600  0.1147  0.3000
36281SOL     OW10849  10.548   6.923   1.188 -0.3755 -0.0169 -0.7375
36281SOL    HW110850  10.631   6.962   1.215 -0.0520 -0.5348 -0.9497
36281SOL    HW210851  10.523   6.868   1.262 -1.0874  0.9633 -0.2317
36282SOL     OW10852   6.948   0.753   1.812 -0.2665  0.4754 -0.1692
36282SOL    HW110853   7.031   0.706   1.802 -0.5589 -0.0266 -0.2482
36282SOL    HW210854   6.888   0.689   1.849 -1.5769 -0.1903 -3.1960
36283SOL     OW10855   2.630   1.607  11.062  0.9008  0.0028 -0.1932
36283SOL    HW110856   2.603   1.698  11.059  4.1562  1.0613 -2.2868
36283SOL    HW210857   2.725   1.610  11.074  1.2967 -3.0532 -1.5939
36284SOL     OW10858   3.356  10.233  10.615 -0.4094  0.6710 -0.4209
36284SOL    HW110859   3.374  10.188  10.698 -1.5038  0.9158 -0.0393
36284SOL    HW210860   3.285  10.183  10.575  0.1210  0.5426 -1.2368
36285SOL     OW10861   0.079   1.766   8.756  0.1325  0.3666  0.0200
36285SOL    HW110862   0.131   1.686   8.758  0.0544  0.3066 -0.4435
36285SOL    HW210863   0.004   1.747   8.812  0.3901  0.3103  0.3539
36286SOL     OW10864   2.822   0.381   8.998  0.4661 -0.9237  0.1829
36286SOL    HW110865   2.850   0.322   8.928 -1.1546  0.9138 -2.1775
36286SOL    HW210866   2.733   0.354   9.019 -0.0021  0.1280 -0.3572
36287SOL     OW10867   4.465   0.919   8.082 -0.1471  0.7493  0.1538
36287SOL    HW110868   4.391   0.907   8.023  0.2314  0.2568 -0.2312
36287SOL    HW210869   4.537   0.874   8.039  0.5857  1.9056  0.1327
36288SOL     OW10870   1.925   8.854   4.736 -0.0083 -0.1201  0.2871
36288SOL    HW110871   1.910   8.937   4.691 -2.0807  0.8041  2.5046
36288SOL    HW210872   1.882   8.789   4.681 -0.0094  0.5209 -0.4955
36289SOL     OW10873   4.087   5.309   3.717  0.0724 -0.5632  0.3242
36289SOL    HW110874   4.124   5.381   3.769  0.1794 -0.5538  0.2379
36289SOL    HW210875   4.079   5.346   3.629  0.0567 -0.6340  0.2963
36290SOL     OW10876   9.383   9.442   3.327  0.2061  0.4616  0.6957
36290SOL    HW110877   9.453   9.501   3.299 -0.9069  1.5133  0.0327
36290SOL    HW210878   9.384   9.447   3.423  2.2504 -1.0305  0.8195
36291SOL     OW10879  10.062   4.149   2.682 -0.3094 -0.4862  0.2814
36291SOL    HW110880  10.041   4.121   2.771 -0.3598 -0.7120  0.1995
36291SOL    HW210881  10.127   4.219   2.694  1.1732 -1.8367  0.4560
36292SOL     OW10882   7.349   0.129   3.304  0.4480  0.0844  0.8160
36292SOL    HW110883   7.276   0.067   3.301  1.2844 -0.9149 -0.0960
36292SOL    HW210884   7.340   0.181   3.224  1.3516 -0.8242  0.0936
36293SOL     OW10885   9.941   0.297   1.809  0.0680 -0.3035 -0.0547
36293SOL    HW110886   9.993   0.218   1.793  1.5193  0.5637  0.1206
36293SOL    HW210887   9.956   0.352   1.732 -1.8959 -0.6549 -0.7361
36294SOL     OW10888   0.516  10.907   2.189  0.1045 -0.1825  0.4648
36294SOL    HW110889   0.482  10.898   2.278 -1.6990  0.4423 -0.1188
36294SOL    HW210890   0.537  10.818   2.162 -0.6945 -0.5455  1.0103
36295SOL     OW10891   2.107   4.352   0.527  0.3706  0.2250  0.3607
36295SOL    HW110892   2.177   4.288   0.542  1.4227  0.8555 -1.4780
36295SOL    HW210893   2.152   4.426   0.486 -1.4662  0.4007 -1.4727
36296SOL     OW10894   0.424   9.180   3.793  0.5643 -0.3268  0.0982
36296SOL    HW110895   0.494   9.244   3.804  0.8021 -0.6203  0.3086
36296SOL    HW210896   0.368   9.192   3.870  1.0249 -0.8816  0.5315
36297SOL     OW10897   0.452   8.625   1.056  0.2949  0.1387 -0.5686
36297SOL    HW110898   0.387   8.673   1.107 -0.6478 -1.4284 -0.2173
36297SOL    HW210899   0.528   8.619   1.114  0.1237  0.4946 -0.3063
36298SOL     OW10900   7.183  10.495   1.047  0.5061  0.7585 -0.0299
36298SOL    HW110901   7.241  10.569   1.065  0.8009  0.9512 -1.5805
36298SOL    HW210902   7.221  10.422   1.096  1.0165  1.3088  0.4047
36299SOL     OW10903   3.050   5.073   1.279  0.4650  0.5587  0.0700
36299SOL    HW110904   3.058   5.017   1.356  0.8206  0.7408  0.1697
36299SOL    HW210905   2.958   5.066   1.253  0.3936  0.3271  0.3817
36300SOL     OW10906   7.230   3.758   3.192  0.2192 -0.8543 -0.1392
36300SOL    HW110907   7.250   3.818   3.264  0.9225 -1.5610  0.2646
36300SOL    HW210908   7.137   3.740   3.201  0.3425 -1.1141  0.7448
36301SOL     OW10909   3.927  10.206   3.100 -0.1706 -0.1870  0.0332
36301SOL    HW110910   4.022  10.201   3.104 -0.0104  1.0231 -1.2416
36301SOL    HW210911   3.900  10.217   3.191  0.8338 -1.2905  0.4895
36302SOL     OW10912   4.290  11.020   6.908  0.3638  0.0049 -0.3270
36302SOL    HW110913   4.382  10.993   6.914  0.6316  0.6813 -1.3497
36302SOL    HW210914   4.292  11.115   6.914 -0.1754  0.0934 -1.3857
36303SOL     OW10915   3.688   8.933   2.806 -0.0697 -0.6149 -0.7477
36303SOL    HW110916   3.685   8.844   2.840  2.1427  0.0460  1.5396
36303SOL    HW210917   3.779   8.946   2.779 -0.0705  1.2359 -0.0217
36304SOL     OW10918   0.227   1.552   7.065 -1.0205  0.1477 -0.6041
36304SOL    HW110919   0.269   1.553   6.979 -2.7548  0.0207 -1.4799
36304SOL    HW210920   0.259   1.632   7.108 -0.1672  0.2293 -1.3609
36305SOL     OW10921   6.248   0.520   8.371  0.2473  0.2162 -0.5124
36305SOL    HW110922   6.285   0.565   8.447  2.4552  1.1987 -2.0267
36305SOL    HW210923   6.320   0.517   8.308 -1.4494 -0.5966 -2.5547
36306SOL     OW10924   8.941   0.901   7.798  0.3440 -0.4090 -0.3241
36306SOL    HW110925   8.967   0.878   7.709  1.3636 -0.2097 -0.0942
36306SOL    HW210926   8.927   0.996   7.795  1.3955 -0.2301 -0.0519
36307SOL     OW10927   4.734  10.730   5.815  0.4491  0.0982  0.0664
36307SOL    HW110928   4.730  10.813   5.767 -0.4518  0.3361  0.5386
36307SOL    HW210929   4.693  10.749   5.899  3.3562  0.1197  1.5962
36308SOL     OW10930  11.045  10.206   8.388  0.3989 -0.1771 -0.2154
36308SOL    HW110931  11.084  10.282   8.345 -2.3185  0.8874 -0.9752
36308SOL    HW210932  11.041  10.231   8.481 -0.8766  0.8339 -0.5220
36309SOL     OW10933   4.744   0.504   8.580  0.4863 -0.0397  0.5143
36309SOL    HW110934   4.672   0.443   8.566  1.0539 -0.8912  1.2193
36309SOL    HW210935   4.777   0.524   8.492 -0.2654 -0.0475  0.2275
36310SOL     OW10936   8.735   7.551   1.031  0.1335 -0.0141  0.2098
36310SOL    HW110937   8.734   7.497   0.952 -0.0560  1.8593 -1.1497
36310SOL    HW210938   8.675   7.506   1.091 -0.8777 -0.7443 -1.2669
36311SOL     OW10939   9.410   5.734   7.886 -0.5483 -0.2901  0.4810
36311SOL    HW110940   9.395   5.640   7.875  0.6397 -0.4433  0.1140
36311SOL    HW210941   9.451   5.762   7.804 -3.3171  1.1241 -0.5667
36312SOL     OW10942  10.751   3.648   7.829  0.1001  0.8217  0.7780
36312SOL    HW110943  10.675   3.705   7.815 -0.2131 -0.0024 -1.3875
36312SOL    HW210944  10.718   3.578   7.885 -1.0598  0.0232 -0.8048
36313SOL     OW10945   0.085   9.497   5.141 -0.6792  0.2678 -0.5190
36313SOL    HW110946   0.121   9.584   5.161  0.0459 -0.4131  1.3140
36313SOL    HW210947  -0.010   9.511   5.138 -0.5305  1.2939 -1.2682
36314SOL     OW10948   4.634   6.091   2.786  0.6762  0.3672 -0.2525
36314SOL    HW110949   4.720   6.094   2.829  1.0609  1.8145 -1.0722
36314SOL    HW210950   4.628   6.002   2.750  0.9752 -0.3952  1.4494
36315SOL     OW10951   9.099   6.795   1.665  0.0109  0.3539 -0.3719
36315SOL    HW110952   9.052   6.775   1.746  1.0373  2.2306  0.7571
36315SOL    HW210953   9.094   6.715   1.614  0.0735 -1.2064  1.9246
36316SOL     OW10954   0.736   7.297   3.367 -0.0033  0.8923 -0.0555
36316SOL    HW110955   0.712   7.204   3.364 -0.8513  1.1048 -0.0695
36316SOL    HW210956   0.796   7.308   3.294  2.0647 -0.1622  1.3780
36317SOL     OW10957   3.937   4.729   8.929 -0.5359  0.3000 -0.9281
36317SOL    HW110958   3.868   4.665   8.915  0.1506 -0.5592 -0.4400
36317SOL    HW210959   3.947   4.734   9.024  1.3587 -1.0346 -0.9920
36318SOL     OW10960  10.390   8.880   7.884 -0.0726 -0.3991 -0.0799
36318SOL    HW110961  10.455   8.950   7.885 -0.4819  0.0158 -1.0620
36318SOL    HW210962  10.416   8.822   7.956  0.3551  0.6820  0.6674
36319SOL     OW10963  10.839   8.856   7.938 -0.5864  0.3054  0.1985
36319SOL    HW110964  10.907   8.920   7.916 -1.9268  1.0195 -2.2965
36319SOL    HW210965  10.869   8.775   7.898 -1.1431  0.6083 -0.8584
36320SOL     OW10966   7.772   2.833   9.572  0.1084  0.2975 -0.3935
36320SOL    HW110967   7.856   2.800   9.606  0.5753  1.7058 -0.1277
36320SOL    HW210968   7.716   2.755   9.568  1.3281 -0.6157 -0.2829
36321SOL     OW10969   2.448  10.035   9.182  0.1153 -0.1829  0.9303
36321SOL    HW110970   2.478  10.126   9.181 -2.2023  0.6776  1.9524
36321SOL    HW210971   2.353  10.041   9.190 -0.0151 -2.6951  2.6013
36322SOL     OW10972   2.698   9.943   3.096 -0.5293  0.1592  0.3457
36322SOL    HW110973   2.712   9.848   3.096 -0.1750  0.2030  1.1186
36322SOL    HW210974   2.772   9.978   3.045 -0.8859 -0.0000 -0.2930
36323SOL     OW10975   8.250   7.588   8.716  0.0554  0.3003  0.1381
36323SOL    HW110976   8.185   7.658   8.713 -0.0013  0.2213 -0.8101
36323SOL    HW210977   8.214   7.524   8.778 -0.3157  0.6968  0.3320
36324SOL     OW10978  10.832   0.282   6.321  0.5534 -0.0968  0.3377
36324SOL    HW110979  10.808   0.334   6.398  1.5541 -1.4397  1.6380
36324SOL    HW210980  10.868   0.201   6.358  0.8387 -0.8929 -1.5689
36325SOL     OW10981   0.625   1.097   1.173  0.0654 -0.0134  0.0602
36325SOL    HW110982   0.660   1.009   1.159  1.1900  0.0896  1.9834
36325SOL    HW210983   0.599   1.099   1.265 -3.3977  0.5293 -0.7879
36326SOL     OW10984   3.635   2.261   9.965  0.2761  0.6986  0.0192
36326SOL    HW110985   3.588   2.203  10.025  1.7300 -0.1539  0.4051
36326SOL    HW210986   3.621   2.223   9.879 -0.8964  1.2835 -0.0686
36327SOL     OW10987   9.268   9.889   0.926 -0.0208  0.2223  0.3467
36327SOL    HW110988   9.328   9.874   0.853 -0.8894  0.5295 -0.4513
36327SOL    HW210989   9.208   9.956   0.894 -0.3458  0.4435  1.3968
36328SOL     OW10990  10.042   6.722   2.304  0.2587 -0.2064 -0.1712
36328SOL    HW110991   9.995   6.649   2.263 -0.6233  0.4176 -0.3084
36328SOL    HW210992  10.094   6.681   2.373  2.8889 -1.4911 -2.6970
36329SOL     OW10993   0.451   1.601   6.892 -0.1993  0.2336  0.2245
36329SOL    HW110994   0.511   1.625   6.962  0.8710  1.0915 -0.9354
36329SOL    HW210995   0.474   1.510   6.871  1.0144  0.6839 -0.4876
36330SOL     OW10996   8.229   6.336   6.533 -0.2086 -0.2761  0.0906
36330SOL    HW110997   8.245   6.400   6.603 -2.6773  0.9645 -0.3642
36330SOL    HW210998   8.184   6.263   6.576 -1.0448  0.1504 -0.0329
36331SOL     OW10999   4.926   2.553  10.333  0.3764  0.4653 -0.2610
36331SOL    HW111000   4.867   2.587  10.401  2.3789  1.9319  0.8469
36331SOL    HW211001   4.887   2.582  10.251 -1.2705  0.0142  0.3152
36332SOL     OW11002   3.812   8.884   6.353  0.3650  0.3624  0.6021
36332SOL    HW111003   3.852   8.949   6.411 -0.5030  1.5931 -0.1381
36332SOL    HW211004   3.887   8.836   6.317  0.9032 -0.9259  3.2237
36333SOL     OW11005   5.185   2.296   4.384  0.0017  0.4888 -1.0068
36333SOL    HW111006   5.246   2.308   4.458 -2.1048  0.5992  0.8225
36333SOL    HW211007   5.188   2.379   4.337 -0.3675  1.3448  0.4049
36334SOL     OW11008   6.901   8.749   2.249  0.0381  0.6180 -0.6255
36334SOL    HW111009   6.959   8.699   2.306  1.0101  3.1938  0.8106
36334SOL    HW211010   6.917   8.713   2.161 -1.3388 -3.3215  0.5269
36335SOL     OW11011   7.432   9.478   2.117  0.7164  0.4079  0.0275
36335SOL    HW111012   7.515   9.524   2.102  1.6130 -1.2710 -0.4351
36335SOL    HW211013   7.446   9.431   2.200  0.0397  0.4976  0.1956
36336SOL     OW11014   1.416   0.995   8.600  0.0580 -0.2327  0.0776
36336SOL    HW111015   1.487   1.042   8.557 -1.7373  1.1102 -1.6191
36336SOL    HW211016   1.439   0.902   8.591  2.1286  0.1847  0.6421
36337SOL     OW11017   8.052   6.692   1.917 -0.5092 -0.0421 -0.4860
36337SOL    HW111018   8.078   6.655   2.002 -2.2033  1.4074  0.7379
36337SOL    HW211019   8.127   6.745   1.890  0.3097 -1.0458 -0.2395
36338SOL     OW11020   2.064   3.231   9.801 -0.0432  0.4087  0.1029
36338SOL    HW111021   2.126   3.281   9.748  0.5920  1.2483  1.5737
36338SOL    HW211022   2.048   3.286   9.877 -2.0097 -0.1486  0.1411
36339SOL     OW11023   9.834   0.929   1.507 -0.3178  0.1150  0.1664
36339SOL    HW111024   9.914   0.954   1.461  1.3108 -0.3236  2.5580
36339SOL    HW211025   9.811   1.007   1.558  0.0977 -0.5608  1.4319
36340SOL     OW11026   8.763  10.900  11.022 -0.2319  0.6261  0.6940
36340SOL    HW111027   8.708  10.909  10.944  0.3827  0.3271  0.2208
36340SOL    HW211028   8.759  10.985  11.064 -0.6871  0.7468  0.4209
36341SOL     OW11029   1.877  10.571   0.362 -0.9908 -0.2612 -0.1012
36341SOL    HW111030   1.797  10.539   0.405  0.3327 -1.4896  1.5793
36341SOL    HW211031   1.916  10.630   0.426  0.0702 -0.6294 -0.3919
36342SOL     OW11032   7.313   2.590   0.459 -0.1177 -0.3938 -0.4427
36342SOL    HW111033   7.284   2.500   0.443  0.0957 -0.3225 -1.2949
36342SOL    HW211034   7.408   2.585   0.460 -0.0149 -0.8172  3.4381
36343SOL     OW11035   9.054   0.323   3.822 -0.1463  0.0912 -0.0462
36343SOL    HW111036   8.977   0.342   3.769 -0.7760  1.5384  1.2815
36343SOL    HW211037   9.113   0.397   3.805  0.3756 -0.3121 -0.0202
36344SOL     OW11038   6.729   1.830   1.060 -0.0411 -0.0918  0.1370
36344SOL    HW111039   6.763   1.877   0.984 -2.1065  1.3686  0.0178
36344SOL    HW211040   6.691   1.750   1.024 -0.5537  0.3495 -0.3154
36345SOL     OW11041   9.520   3.720   8.788  0.3702  0.6487 -0.3288
36345SOL    HW111042   9.504   3.632   8.824  0.2108  0.8287  0.0449
36345SOL    HW211043   9.434   3.747   8.754 -0.0231  1.3922  1.1833
36346SOL     OW11044   6.570   4.766   6.569  0.5509  0.1936 -0.2349
36346SOL    HW111045   6.595   4.853   6.539 -1.2946  1.3711  1.4444
36346SOL    HW211046   6.500   4.781   6.633  0.0905 -2.5270  0.0281
36347SOL     OW11047  10.937   2.333   0.347  0.2240  0.0385  0.3259
36347SOL    HW111048  10.904   2.373   0.266 -0.9774 -0.6590  0.4440
36347SOL    HW211049  10.863   2.282   0.380  0.5734  0.6084  2.0700
36348SOL     OW11050   8.069   0.714  10.034  0.5234  0.5147 -0.2516
36348SOL    HW111051   8.084   0.620  10.050 -0.5663  0.4649  0.6170
36348SOL    HW211052   8.077   0.723   9.939 -0.8636 -0.7710 -0.5416
36349SOL     OW11053   9.657   5.185   8.111  0.2353 -0.2556  0.7485
36349SOL    HW111054   9.685   5.182   8.019 -0.8601 -0.5990  0.3987
36349SOL    HW211055   9.698   5.263   8.147  0.1264  0.2746 -0.2371
36350SOL     OW11056   2.328   1.494  10.325  0.1226  0.1800 -0.0347
36350SOL    HW111057   2.361   1.474  10.413  1.3907  1.0304 -0.2888
36350SOL    HW211058   2.387   1.446  10.266 -0.5307 -0.1390 -0.4374
36351SOL     OW11059   0.187   8.099   0.661 -0.2821 -0.3304 -0.1444
36351SOL    HW111060   0.280   8.121   0.667 -0.5696  1.0565 -0.3870
36351SOL    HW211061   0.162   8.076   0.750  0.1827 -0.2066  0.0210
36352SOL     OW11062   1.813   2.992   5.353  0.0118 -0.2987  0.2574
36352SOL    HW111063   1.766   3.041   5.420  0.0517  0.9334 -0.5906
36352SOL    HW211064   1.862   2.925   5.402 -1.8257 -0.9914  1.2289
36353SOL     OW11065   7.449  10.023   3.060 -0.1156 -0.0265  0.1573
36353SOL    HW111066   7.369  10.021   3.007 -1.3827 -2.0004  1.9899
36353SOL    HW211067   7.478   9.931   3.061  1.3603  0.4290  0.7244
36354SOL     OW11068   8.269   7.179   2.215  0.1539  0.1250  0.2106
36354SOL    HW111069   8.348   7.139   2.250  0.5774 -1.1152 -1.9231
36354SOL    HW211070   8.223   7.107   2.171 -0.6800  1.3599 -1.0586
36355SOL     OW11071   1.928   7.897   2.104 -0.6226 -0.1355 -0.2105
36355SOL    HW111072   1.846   7.862   2.137  0.6807 -1.3142  2.0122
36355SOL    HW211073   1.977   7.820   2.075  0.5790  0.2483  0.6914
36356SOL     OW11074   7.527   2.621   9.636 -0.6716 -0.6377 -0.1406
36356SOL    HW111075   7.469   2.656   9.568  1.4964  1.0763 -1.2195
36356SOL    HW211076   7.586   2.562   9.589  0.5590  0.2085  0.3106
36357SOL     OW11077   4.308   3.642   3.078 -0.1033  0.4472 -0.0163
36357SOL    HW111078   4.291   3.576   3.011  0.0820  1.8033 -1.4714
36357SOL    HW211079   4.234   3.634   3.138 -0.2196 -0.8761 -0.3016
36358SOL     OW11080   4.733   2.175   4.354 -0.1242 -0.1389  0.5939
36358SOL    HW111081   4.792   2.200   4.425 -1.4527  0.4337  1.5578
36358SOL    HW211082   4.660   2.131   4.398 -1.2569  0.7293 -0.3268
36359SOL     OW11083   9.072   3.025   0.987  0.1721 -0.0824  0.0231
36359SOL    HW111084   9.011   2.971   1.037 -0.0790  0.9604  0.8798
36359SOL    HW211085   9.059   3.114   1.021  1.4874  0.3108 -0.4343
36360SOL     OW11086   9.576   7.310  10.217  0.1881 -0.5656  0.3708
36360SOL    HW111087   9.519   7.285  10.144 -1.2581 -0.3855  1.4026
36360SOL    HW211088   9.657   7.261  10.201 -0.9582 -2.4134 -0.0722
36361SOL     OW11089  10.877   6.716   5.128  0.4237  0.3213  0.0203
36361SOL    HW111090  10.899   6.805   5.159  0.1744 -0.0677  1.4099
36361SOL    HW211091  10.952   6.663   5.155  0.1975 -0.0367 -0.0536
36362SOL     OW11092   0.312   6.125   6.854 -0.7586 -0.2911 -0.3357
36362SOL    HW111093   0.341   6.050   6.801 -0.4526  1.2828 -2.5087
36362SOL    HW211094   0.217   6.118   6.855 -1.1868  1.9043 -4.8827
36363SOL     OW11095   4.715   6.062   0.377 -0.0041  0.2607  0.0680
36363SOL    HW111096   4.748   6.020   0.298  0.5773  0.5132  0.1680
36363SOL    HW211097   4.793   6.076   0.431 -0.0111  2.4322 -0.4112
36364SOL     OW11098   3.192   3.919   8.367  0.4415 -0.0702 -0.2561
36364SOL    HW111099   3.263   3.969   8.408  0.7921  0.6402 -1.6362
36364SOL    HW211100   3.232   3.880   8.289 -0.4557 -0.4263 -0.5536
36365SOL     OW11101   9.738   8.494   9.301  0.1458  0.5258  0.3991
36365SOL    HW111102   9.737   8.522   9.210 -0.9499 -0.4155  0.0812
36365SOL    HW211103   9.670   8.547   9.343 -0.5233 -0.2088  0.2634
36366SOL     OW11104   6.546   9.210   7.059  0.3071 -0.1953  0.6299
36366SOL    HW111105   6.507   9.207   7.147 -3.7240 -0.4688 -0.9989
36366SOL    HW211106   6.534   9.300   7.030  0.4955 -0.4071 -0.1213
36367SOL     OW11107   2.105   5.934   1.095  0.1995  0.2666 -0.3539
36367SOL    HW111108   2.166   6.002   1.065 -2.2967  2.2153 -1.4114
36367SOL    HW211109   2.106   5.941   1.190  1.4963  0.3210 -0.3499
36368SOL     OW11110   1.507   5.720   7.208 -0.0160 -0.1511 -0.4320
36368SOL    HW111111   1.565   5.796   7.205  0.9708 -0.9064 -1.0651
36368SOL    HW211112   1.518   5.685   7.296  0.5621 -0.3418 -0.5772
36369SOL     OW11113  10.096  10.359   6.285  0.2099  0.5629 -0.6488
36369SOL    HW111114  10.107  10.289   6.220  1.1340  0.5397 -0.4892
36369SOL    HW211115  10.003  10.359   6.304  0.3035 -1.3003  0.0652
36370SOL     OW11116  10.689   0.657   8.847  0.1082 -0.6351  0.4461
36370SOL    HW111117  10.612   0.613   8.883  1.3598 -1.5625  2.1362
36370SOL    HW211118  10.696   0.737   8.899  0.2245 -0.4875  0.2052
36371SOL     OW11119   9.451   6.455   7.458 -0.1587 -0.3697  0.0747
36371SOL    HW111120   9.475   6.530   7.403  1.0953 -0.3985  0.5451
36371SOL    HW211121   9.520   6.390   7.442 -1.2962 -1.4901 -0.4199
36372SOL     OW11122   5.503   5.320  10.007  1.0243 -0.2685 -0.2987
36372SOL    HW111123   5.429   5.369   9.970  0.1790 -1.7719 -0.6748
36372SOL    HW211124   5.580   5.355   9.962  0.8576  2.7607  1.5318
36373SOL     OW11125  10.201   5.337   9.989 -0.1049 -0.0653  0.7028
36373SOL    HW111126  10.246   5.253   9.998  0.2016  0.0333  0.1638
36373SOL    HW211127  10.261   5.401  10.028 -0.3311 -0.0899  1.0992
36374SOL     OW11128   7.788   5.858   8.084 -0.1821  0.4941 -0.3318
36374SOL    HW111129   7.849   5.812   8.026 -0.3743  0.9864 -0.9229
36374SOL    HW211130   7.748   5.925   8.029  0.2090  1.4825  0.5487
36375SOL     OW11131   7.985   4.566   2.718 -0.6027  0.2352 -0.1412
36375SOL    HW111132   8.019   4.649   2.752  0.4509 -0.7875  1.4442
36375SOL    HW211133   8.062   4.518   2.689 -1.3008  0.2041 -2.0525
36376SOL     OW11134   2.303  10.081   6.309 -0.3830  0.3740  0.3769
36376SOL    HW111135   2.261  10.163   6.283 -1.2639  0.0553  0.7547
36376SOL    HW211136   2.271  10.064   6.397  0.1054 -0.1793  0.4582
36377SOL     OW11137   8.063   0.220   0.471 -0.0320 -0.0574  0.1397
36377SOL    HW111138   7.999   0.232   0.541  1.1310  0.6562  1.1365
36377SOL    HW211139   8.110   0.140   0.494  0.8520  0.5740  0.6287
36378SOL     OW11140  10.779   7.812   8.205  0.3353  0.1093 -0.5826
36378SOL    HW111141  10.851   7.752   8.185 -0.0623 -0.9861  1.0976
36378SOL    HW211142  10.810   7.861   8.282 -1.4662 -1.8623  1.5184
36379SOL     OW11143   0.329   2.695  11.081  0.0153  0.5576  0.4079
36379SOL    HW111144   0.236   2.706  11.103 -0.1332 -0.2398  0.1978
36379SOL    HW211145   0.336   2.732  10.993  0.0768  1.3812  0.7489
36380SOL     OW11146   0.010  10.700   9.565 -0.2843  0.2309  0.7197
36380SOL    HW111147  -0.082  10.707   9.591 -0.7711  2.7853 -1.2466
36380SOL    HW211148   0.038  10.791   9.551  1.9270 -0.5712 -0.6649
36381SOL     OW11149   8.166   4.373   9.187 -0.3449  0.1994 -0.5953
36381SOL    HW111150   8.124   4.293   9.221 -0.1361 -0.1266 -1.1030
36381SOL    HW211151   8.124   4.444   9.236  2.2391 -0.3672  2.8815
36382SOL     OW11152  10.922   2.973   8.808  1.0291  0.3829 -0.6410
36382SOL    HW111153  10.855   3.041   8.807 -1.0461 -1.3973  2.0034
36382SOL    HW211154  10.901   2.918   8.732 -1.2365 -0.6254  0.5884
36383SOL     OW11155   1.790   4.120   5.948  0.2634 -0.5766  0.1421
36383SOL    HW111156   1.812   4.129   6.040  1.1934 -1.0304 -0.0223
36383SOL    HW211157   1.695   4.132   5.944  0.4601  1.6837  0.8572
36384SOL     OW11158   5.284   3.620   6.751 -0.7627  1.0292  1.0171
36384SOL    HW111159   5.238   3.572   6.683  0.7297 -0.4305  0.9451
36384SOL    HW211160   5.319   3.697   6.707  0.8711 -0.2951 -0.1626
36385SOL     OW11161   9.678   7.314   5.186  0.2294 -0.0327 -0.0871
36385SOL    HW111162   9.729   7.276   5.258  1.4673 -0.2331 -1.0351
36385SOL    HW211163   9.587   7.300   5.211  0.6418 -1.6586  0.6239
36386SOL     OW11164  10.329   4.379   1.931 -0.2948  0.0342  0.0394
36386SOL    HW111165  10.337   4.465   1.890 -1.0433 -0.4161 -1.1006
36386SOL    HW211166  10.265   4.332   1.877 -2.0230 -0.2891  2.2289
36387SOL     OW11167   7.205   4.717   8.675  0.1058  0.2702  0.1622
36387SOL    HW111168   7.191   4.710   8.769 -1.3116  1.4868  0.0770
36387SOL    HW211169   7.132   4.770   8.643 -1.2657 -2.6407 -2.0907
36388SOL     OW11170   5.029   9.671   0.893  0.3945  0.5882 -0.0635
36388SOL    HW111171   4.944   9.641   0.924  0.1298 -2.5169 -3.1296
36388SOL    HW211172   5.010   9.753   0.846 -1.1563 -0.4881 -1.4249
36389SOL     OW11173   3.303   4.632   6.455 -0.4656 -0.8005  0.1189
36389SOL    HW111174   3.238   4.689   6.414  0.0286  0.5941  1.2171
36389SOL    HW211175   3.387   4.673   6.436 -0.1814 -0.4894  1.9227
36390SOL     OW11176   4.624  10.025   0.001 -0.4613 -0.8856 -0.0107
36390SOL    HW111177   4.605  10.112  -0.033 -0.2877 -1.3243 -1.2825
36390SOL    HW211178   4.558  10.011   0.070  0.4145  0.7994  1.2461
36391SOL     OW11179  10.838  10.131   6.239 -0.3690  0.3030  0.1671
36391SOL    HW111180  10.768  10.070   6.262  0.7734 -1.5137 -0.9187
36391SOL    HW211181  10.845  10.125   6.144  1.7054 -0.1092  0.3022
36392SOL     OW11182   4.863   4.589   8.528 -0.3564 -0.2806 -0.3804
36392SOL    HW111183   4.935   4.608   8.589  1.4227  1.1693 -2.7485
36392SOL    HW211184   4.855   4.669   8.475 -1.5908 -1.5492 -2.2225
36393SOL     OW11185   9.400   0.566   4.076 -0.3886 -0.8603  0.2558
36393SOL    HW111186   9.409   0.591   3.984  0.0436 -0.9730  0.2662
36393SOL    HW211187   9.324   0.615   4.107  0.0470 -0.0706  0.0983
36394SOL     OW11188   8.805   8.005   2.820 -0.5471 -0.0658  0.3419
36394SOL    HW111189   8.714   8.032   2.836 -0.8763 -1.8266  1.7158
36394SOL    HW211190   8.814   8.009   2.725 -1.5439  1.6497  0.2615
36395SOL     OW11191   0.434  10.453   3.429 -0.3516  0.5188 -0.0872
36395SOL    HW111192   0.427  10.476   3.336  0.0353  1.5688  0.1305
36395SOL    HW211193   0.512  10.398   3.434  0.6706  1.9057 -0.1473
36396SOL     OW11194   8.868   1.707   0.018  0.2282 -0.0001 -0.1209
36396SOL    HW111195   8.883   1.616   0.044 -0.2808  0.3604  1.5481
36396SOL    HW211196   8.777   1.709  -0.010  1.2993 -0.8759 -4.4307
36397SOL     OW11197   9.047   2.428   9.516 -0.4327  0.4377 -0.6076
36397SOL    HW111198   9.052   2.368   9.441 -0.2643  0.7577 -0.8556
36397SOL    HW211199   9.134   2.422   9.557 -0.5586  0.1839 -0.3736
36398SOL     OW11200   0.331   6.074  11.096 -0.4066  0.2489  0.1900
36398SOL    HW111201   0.274   6.044  11.025 -2.2241  1.6680  0.9612
36398SOL    HW211202   0.296   6.033  11.174  0.7200 -0.2031  0.4721
36399SOL     OW11203   9.761   9.869   8.021  0.5821  0.0255 -0.1889
36399SOL    HW111204   9.763   9.872   8.117 -0.7521 -1.1108 -0.0944
36399SOL    HW211205   9.668   9.867   7.999  0.8199  2.1641 -1.6117
36400SOL     OW11206  10.204  11.079  10.768 -0.3336 -0.1923 -0.0110
36400SOL    HW111207  10.168  11.036  10.690  0.1098 -1.5715  0.5106
36400SOL    HW211208  10.299  11.072  10.758 -0.2073  1.4929 -0.3301
36401SOL     OW11209   8.860   1.163  10.763  0.7034 -0.2261  0.1332
36401SOL    HW111210   8.884   1.122  10.847  0.3446 -1.6361 -0.4180
36401SOL    HW211211   8.943   1.174  10.717  0.7986 -0.4914  0.2355
36402SOL     OW11212   9.600  10.891   4.040 -0.0354 -0.1467  0.0966
36402SOL    HW111213   9.624  10.858   3.954  0.4956 -0.2507  0.2838
36402SOL    HW211214   9.514  10.853   4.057 -0.1941 -0.0421 -0.4285
36403SOL     OW11215   9.003   5.835   1.648 -0.4427 -0.1142 -0.5100
36403SOL    HW111216   8.916   5.836   1.688  0.6228  2.2008  2.0599
36403SOL    HW211217   9.057   5.786   1.710  0.6339  0.9022 -0.6160
36404SOL     OW11218  10.793  11.081   1.880 -0.4828  0.5598  0.1698
36404SOL    HW111219  10.820  11.043   1.796  0.4493 -1.0574  1.1528
36404SOL    HW211220  10.872  11.123   1.914 -1.0556  1.8925 -0.0881
36405SOL     OW11221   4.887   1.664   0.003 -0.2838  0.6818  0.1553
36405SOL    HW111222   4.809   1.720  -0.003 -0.9739 -0.2299  0.2397
36405SOL    HW211223   4.914   1.670   0.094 -0.7657  0.3614  0.3241
36406SOL     OW11224   9.863   0.224  10.896 -0.0133  0.2224  0.7555
36406SOL    HW111225   9.872   0.245  10.989 -0.1761 -0.3101  0.8934
36406SOL    HW211226   9.949   0.245  10.859 -0.9719  4.1226  0.2479
36407SOL     OW11227   7.994   2.687   6.117 -0.1899 -0.2445  0.5897
36407SOL    HW111228   8.083   2.664   6.142 -0.4691 -2.5745 -0.3502
36407SOL    HW211229   7.999   2.703   6.022 -0.9231 -1.3970  0.3390
36408SOL     OW11230   1.663   2.698   0.479  0.1468  0.3238 -0.2489
36408SOL    HW111231   1.690   2.635   0.546 -1.7672  0.0635  0.3476
36408SOL    HW211232   1.577   2.729   0.508 -0.3340  0.8930 -2.1065
36409SOL     OW11233   1.054   4.162   0.794 -0.2501 -0.0478 -0.0489
36409SOL    HW111234   0.995   4.193   0.863 -1.3390 -1.3532 -0.3543
36409SOL    HW211235   1.020   4.202   0.714 -0.1046 -0.0046 -0.0901
36410SOL     OW11236   9.654  10.022   2.692 -0.1083  0.0354  0.3886
36410SOL    HW111237   9.619   9.972   2.619 -0.6904  0.4321  0.3923
36410SOL    HW211238   9.642  10.113   2.667  0.8189  0.1825  0.4418
36411SOL     OW11239  10.732  10.813   0.712 -0.2117 -0.2299  0.1747
36411SOL    HW111240  10.678  10.879   0.757 -1.6608  2.4112 -4.7644
36411SOL    HW211241  10.813  10.858   0.691  0.5400 -1.4756  0.2900
36412SOL     OW11242  10.552  10.110   3.065 -0.0429 -0.0191 -0.3322
36412SOL    HW111243  10.605  10.112   3.144  0.3634  1.3022 -0.6215
36412SOL    HW211244  10.489  10.182   3.077 -0.9446 -0.7441 -0.5676
36413SOL     OW11245   7.421  10.425  10.211  0.2629  0.3590 -0.4906
36413SOL    HW111246   7.414  10.520  10.204  0.6504  0.2912 -2.2200
36413SOL    HW211247   7.507  10.410  10.250  0.4313  0.7046 -0.7235
36414SOL     OW11248   8.080   4.519   9.508 -0.0284 -0.7543  0.2005
36414SOL    HW111249   8.116   4.555   9.427  0.4822  0.7616  1.0592
36414SOL    HW211250   7.991   4.493   9.484 -0.5333  1.3607 -0.4495
36415SOL     OW11251   1.301   5.033  11.059 -0.6162 -0.2709 -0.1355
36415SOL    HW111252   1.248   4.954  11.051  0.7855 -1.1790 -0.7138
36415SOL    HW211253   1.343   5.043  10.974  1.2425 -0.3952  0.7209
36416SOL     OW11254   5.859   7.479   0.056 -0.0526  0.2902 -0.2571
36416SOL    HW111255   5.928   7.489  -0.010 -0.5910  0.4330 -0.8058
36416SOL    HW211256   5.778   7.478   0.006 -0.4502  0.0585  0.3809
36417SOL     OW11257   8.667   9.531   8.561  0.0303  0.8537  0.5551
36417SOL    HW111258   8.758   9.523   8.587  0.5045 -0.7861 -1.3147
36417SOL    HW211259   8.620   9.556   8.641  2.0447  1.3730  1.6234
36418SOL     OW11260   3.516   5.160   4.389  0.4765 -0.0342 -0.4090
36418SOL    HW111261   3.440   5.216   4.408 -0.4472 -1.2713 -0.3409
36418SOL    HW211262   3.502   5.132   4.298  1.2804  0.3570 -0.6627
36419SOL     OW11263   7.897   2.371   3.856  0.0764  0.0185 -0.0470
36419SOL    HW111264   7.891   2.459   3.892  1.2857 -0.1060  0.5282
36419SOL    HW211265   7.965   2.378   3.788  0.0918 -0.4414 -0.0819
36420SOL     OW11266  10.800   7.413   2.558  0.1283  0.3547 -0.3452
36420SOL    HW111267  10.833   7.483   2.503  0.2233  0.3397 -0.3061
36420SOL    HW211268  10.704   7.422   2.554  0.1450  0.5983 -0.1917
36421SOL     OW11269   4.176   8.127  11.000 -0.3051  0.3717 -0.1380
36421SOL    HW111270   4.146   8.057  10.941 -0.8198  1.5745 -1.3504
36421SOL    HW211271   4.263   8.098  11.028 -1.7641 -2.3893  2.1501
36422SOL     OW11272   8.985   6.414   9.367 -0.2584 -0.1139  0.1770
36422SOL    HW111273   9.068   6.448   9.333 -0.5021 -0.1392 -0.4610
36422SOL    HW211274   8.981   6.446   9.457  1.2386 -1.5224  0.8003
36423SOL     OW11275   9.157   3.721   3.669 -0.3662 -0.1680  0.4054
36423SOL    HW111276   9.231   3.782   3.663 -0.5588 -0.0653 -1.2712
36423SOL    HW211277   9.110   3.732   3.587 -1.9696 -0.6254  1.2179
36424SOL     OW11278  10.302   7.577   1.068  0.1750 -0.4874  0.0878
36424SOL    HW111279  10.299   7.500   1.125  0.9949 -0.0671  0.7094
36424SOL    HW211280  10.395   7.595   1.056 -0.0017  0.0437 -0.5619
36425SOL     OW11281   0.962   5.043  10.673  0.1034 -0.6280  0.7225
36425SOL    HW111282   0.992   5.069  10.761  0.2616 -1.5607  0.9557
36425SOL    HW211283   0.879   4.998  10.689  0.6701 -1.7670  0.5141
36426SOL     OW11284   5.666   4.345   8.596  0.2527  0.8747  0.5902
36426SOL    HW111285   5.588   4.294   8.617  1.5460 -0.7165  1.9403
36426SOL    HW211286   5.691   4.386   8.680  1.4334  0.4798  0.4545
36427SOL     OW11287   5.682  10.565  11.014  0.0486 -0.5506  0.1190
36427SOL    HW111288   5.720  10.644  10.976 -0.2685 -0.1250  0.6714
36427SOL    HW211289   5.719  10.494  10.963 -1.9165  0.0864 -2.3714
36428SOL     OW11290   5.982   9.556   0.900  0.7667 -0.4230  0.3573
36428SOL    HW111291   6.063   9.546   0.951  1.5740  0.4010 -0.7306
36428SOL    HW211292   5.961   9.467   0.870  0.6764 -0.8065  1.4971
36429SOL     OW11293  10.070   6.382   1.249  0.5270  0.1977  0.2581
36429SOL    HW111294  10.123   6.379   1.170 -0.7097  0.3518 -0.6041
36429SOL    HW211295   9.979   6.381   1.218  0.0009 -0.6120  1.7030
36430SOL     OW11296   7.321   5.589   3.329  0.0419 -0.6545  0.3253
36430SOL    HW111297   7.263   5.635   3.390  0.9936 -1.0217  1.5415
36430SOL    HW211298   7.281   5.503   3.318 -0.1331 -0.5873  0.4193
36431SOL     OW11299   4.104   7.053  10.473  0.2190 -0.4157  0.1903
36431SOL    HW111300   4.046   7.121  10.440  0.7568  0.5835  1.2067
36431SOL    HW211301   4.049   6.975  10.481 -0.6326  0.1369 -0.1770
36432SOL     OW11302   1.720   8.789   4.025  0.3468  0.0264  0.3790
36432SOL    HW111303   1.729   8.770   3.932  1.0206  3.3528 -0.3308
36432SOL    HW211304   1.626   8.777   4.042  0.5353 -2.9403 -0.0247
36433SOL     OW11305  10.544   5.251   9.915  0.2291  0.0490 -0.2449
36433SOL    HW111306  10.607   5.190   9.954 -0.5266  0.8166  2.3935
36433SOL    HW211307  10.574   5.337   9.942 -0.5627  0.6148 -1.0977
36434SOL     OW11308   7.268   7.368   7.828 -0.1599  0.5175  0.2509
36434SOL    HW111309   7.226   7.296   7.781 -1.1819  1.0172  0.3594
36434SOL    HW211310   7.331   7.326   7.886  0.0494 -0.2068 -0.4952
36435SOL     OW11311   7.202   1.751   5.058 -0.2122  0.2243  0.1137
36435SOL    HW111312   7.232   1.840   5.075 -0.4024 -0.0148  1.8856
36435SOL    HW211313   7.115   1.761   5.020  0.2702  0.8149 -0.8495
36436SOL     OW11314   1.394   8.559   4.896 -0.3355  0.0641 -0.5875
36436SOL    HW111315   1.337   8.594   4.965  0.7249  1.1006 -0.2028
36436SOL    HW211316   1.351   8.587   4.814 -1.6605 -1.2774 -0.3836
36437SOL     OW11317   1.510   3.282   0.691  0.0747  0.4646  0.1912
36437SOL    HW111318   1.568   3.227   0.638 -1.0324 -0.8232  0.2613
36437SOL    HW211319   1.563   3.307   0.767 -0.2352 -3.0552  1.7310
36438SOL     OW11320   3.053   1.920   0.065  0.3437  0.0793 -0.4675
36438SOL    HW111321   3.141   1.883   0.066  1.6210  2.8471  1.3743
36438SOL    HW211322   3.056   1.987  -0.003  0.2274  1.2837  0.6667
36439SOL     OW11323   4.978   8.812   8.132 -0.4868  0.5336 -0.3299
36439SOL    HW111324   4.938   8.806   8.219  0.6229  1.7177  0.2883
36439SOL    HW211325   5.044   8.742   8.131 -1.2621 -0.2122 -0.6616
36440SOL     OW11326   9.383   7.329   3.556 -0.3737  0.3725 -0.0861
36440SOL    HW111327   9.380   7.424   3.543  0.8882  0.4431  0.0185
36440SOL    HW211328   9.388   7.318   3.651  0.4085  0.2414 -0.1400
36441SOL     OW11329   5.141   3.984   7.564  0.2818 -0.5201 -0.7571
36441SOL    HW111330   5.152   4.069   7.522  1.4894  0.1187  0.7473
36441SOL    HW211331   5.051   3.985   7.597  0.6032  0.6429  0.1628
36442SOL     OW11332   1.819   2.506   1.766  0.5602  0.3494 -0.3205
36442SOL    HW111333   1.753   2.571   1.740 -0.1950 -0.8546 -1.5656
36442SOL    HW211334   1.865   2.486   1.684  1.1119 -0.3183  0.1525
36443SOL     OW11335   6.251   5.687   9.880  0.4159 -0.2116  0.3136
36443SOL    HW111336   6.289   5.600   9.887  1.8208  0.4805  1.9791
36443SOL    HW211337   6.318   5.745   9.917 -0.1524  1.6771 -1.4153
36444SOL     OW11338   3.778   0.899   9.298  0.8354 -0.4182  0.4068
36444SOL    HW111339   3.698   0.916   9.348  1.2912  1.0448  0.7001
36444SOL    HW211340   3.831   0.978   9.311  1.7214 -0.7599 -0.9559
36445SOL     OW11341   8.664   0.185   3.235  0.3919  0.7924  0.2681
36445SOL    HW111342   8.602   0.218   3.170  1.0935  1.3573 -0.1444
36445SOL    HW211343   8.710   0.114   3.190 -0.3901 -0.0712  0.7976
36446SOL     OW11344   9.476   9.709  10.994 -0.4821 -0.2827  0.2748
36446SOL    HW111345   9.525   9.791  10.993 -0.1938 -0.4523 -0.1527
36446SOL    HW211346   9.444   9.699  10.904 -1.0083 -0.3489  0.4657
36447SOL     OW11347   8.511   5.280   4.435  0.1714  0.5692 -0.2058
36447SOL    HW111348   8.429   5.286   4.387  0.7871 -1.2227 -1.5513
36447SOL    HW211349   8.485   5.275   4.527 -1.0558  3.0710 -0.3285
36448SOL     OW11350   9.456  10.982   6.551 -0.1210 -0.0574  0.2945
36448SOL    HW111351   9.517  10.962   6.481 -0.9248  0.8579 -0.6987
36448SOL    HW211352   9.512  10.999   6.627  0.7219 -4.5692  0.9939
36449SOL     OW11353   5.441   0.615   2.789 -0.2582 -0.2103  0.0740
36449SOL    HW111354   5.487   0.673   2.728  0.4628  0.3133  1.0895
36449SOL    HW211355   5.486   0.531   2.779 -0.1736 -0.1409 -0.1480
36450SOL     OW11356   0.768   3.402   7.710 -0.0280  0.2845 -0.2969
36450SOL    HW111357   0.692   3.394   7.653 -0.3017 -1.0521  0.2251
36450SOL    HW211358   0.839   3.429   7.651 -0.1959 -1.4683 -1.3993
36451SOL     OW11359   8.622   2.044   2.793 -0.6013 -0.0137  0.1129
36451SOL    HW111360   8.650   2.107   2.728 -0.7264  0.5135  0.5658
36451SOL    HW211361   8.535   2.016   2.764 -0.4100 -0.2323 -0.2629
36452SOL     OW11362   2.948   0.663   5.820  0.2889 -0.3095 -0.2226
36452SOL    HW111363   2.867   0.712   5.833  0.9532  0.4929  1.0224
36452SOL    HW211364   2.925   0.573   5.842 -0.1470 -0.0042  0.5921
36453SOL     OW11365   4.210   0.759   0.223 -0.4295  0.3840  0.0732
36453SOL    HW111366   4.171   0.719   0.145 -1.8008 -0.7339  1.2672
36453SOL    HW211367   4.216   0.687   0.286  0.5938  1.2715  1.0281
36454SOL     OW11368   9.761   9.933   4.371  0.3321  0.2220 -0.1928
36454SOL    HW111369   9.671   9.933   4.402  0.2875 -0.8792 -0.2702
36454SOL    HW211370   9.801  10.009   4.412  0.1828 -0.9605  2.3112
36455SOL     OW11371   8.379   8.189   2.711 -0.1342 -0.8246  0.0486
36455SOL    HW111372   8.375   8.259   2.646  0.9455 -0.2494  0.5692
36455SOL    HW211373   8.290   8.183   2.746  0.1740  1.8068  1.5360
36456SOL     OW11374   8.626   3.320   5.658  0.0244 -0.1383 -0.1380
36456SOL    HW111375   8.549   3.289   5.706  0.8687 -0.7372  0.8671
36456SOL    HW211376   8.678   3.242   5.644  0.0847  0.1331 -1.5272
36457SOL     OW11377   4.731   4.145   8.442 -0.3484 -0.1329  1.1611
36457SOL    HW111378   4.701   4.233   8.465  1.1695  0.3810  1.2723
36457SOL    HW211379   4.824   4.155   8.421  0.0323 -1.8254  1.8479
36458SOL     OW11380   0.191   1.677   3.137  0.4187  0.1601 -0.4022
36458SOL    HW111381   0.251   1.607   3.164 -0.9842  0.3263  3.9939
36458SOL    HW211382   0.239   1.725   3.070  4.5997 -0.6195  1.6625
36459SOL     OW11383   4.182   7.463   1.530  0.0307  0.0257  0.0143
36459SOL    HW111384   4.231   7.442   1.610  0.1628  0.9167  0.1763
36459SOL    HW211385   4.095   7.488   1.562  0.6368  2.2646  0.0787
36460SOL     OW11386   2.016   7.620  10.309 -0.2050 -0.3541  0.0050
36460SOL    HW111387   2.063   7.680  10.251 -0.4846  0.6862  0.8049
36460SOL    HW211388   1.928   7.616  10.273 -0.0797 -0.5958 -0.2746
36461SOL     OW11389   1.474   8.391  10.550 -0.2063 -0.0507  0.0332
36461SOL    HW111390   1.522   8.409  10.631 -0.4044 -1.2392  0.4400
36461SOL    HW211391   1.388   8.362  10.579  0.0569 -1.4921 -0.5437
36462SOL     OW11392   1.064   2.119   8.294 -0.3492  0.0445 -0.5160
36462SOL    HW111393   1.142   2.160   8.330  0.2493 -0.4209 -1.2629
36462SOL    HW211394   1.022   2.078   8.370  1.4242 -1.7981 -0.4624
36463SOL     OW11395   8.358   3.208   0.835 -0.2414  0.1139 -0.1172
36463SOL    HW111396   8.312   3.250   0.909 -0.0067  1.2776 -0.6040
36463SOL    HW211397   8.444   3.249   0.835 -0.7139  1.2049 -1.8915
36464SOL     OW11398   8.021   5.969   8.825 -0.1739 -0.1597 -0.1272
36464SOL    HW111399   7.986   5.931   8.906  0.9611  0.0719  0.4931
36464SOL    HW211400   8.063   5.895   8.780 -0.2550 -0.1605 -0.2019
36465SOL     OW11401   3.375   2.198   1.140  0.6733 -0.9327 -0.1568
36465SOL    HW111402   3.373   2.127   1.205 -0.2874 -0.2258  0.6097
36465SOL    HW211403   3.310   2.173   1.075  0.2289 -0.6831  0.1909
36466SOL     OW11404   2.861   6.637   7.109 -0.1693  0.2332  0.0038
36466SOL    HW111405   2.782   6.674   7.069  0.8234  1.3576 -0.9668
36466SOL    HW211406   2.924   6.631   7.038  0.8178 -0.1193  0.8909
36467SOL     OW11407   2.848   7.656   4.186 -0.2383 -0.1437 -0.0626
36467SOL    HW111408   2.924   7.637   4.241  1.3349  2.2857 -1.2474
36467SOL    HW211409   2.864   7.610   4.104 -1.0812 -1.2592  0.3704
36468SOL     OW11410   2.363   3.479   7.296 -0.2109  0.3760  0.2604
36468SOL    HW111411   2.317   3.430   7.363 -1.4739 -0.6651 -1.2857
36468SOL    HW211412   2.303   3.480   7.221  0.7977  2.1862 -0.5959
36469SOL     OW11413   3.937   0.549   5.766 -0.1197 -0.9193 -0.4731
36469SOL    HW111414   3.959   0.617   5.829 -0.2125 -1.6409  0.3601
36469SOL    HW211415   3.843   0.535   5.777 -0.2629 -0.6192 -1.2247
36470SOL     OW11416  10.957   2.732  10.415  0.4485  0.4070  0.0302
36470SOL    HW111417  10.883   2.741  10.476 -0.5825  0.8980 -1.2484
36470SOL    HW211418  10.921   2.755  10.330  1.8821 -0.1807 -0.7724
36471SOL     OW11419   0.220  10.132   3.841  0.8626 -0.6508 -0.3403
36471SOL    HW111420   0.192  10.064   3.903 -0.3650 -0.7457 -0.9585
36471SOL    HW211421   0.145  10.142   3.782  0.5979  1.9791  0.3437
36472SOL     OW11422   2.371   9.582   9.742 -0.9642  0.3379  0.4029
36472SOL    HW111423   2.315   9.519   9.785 -1.6159 -0.6709 -1.7700
36472SOL    HW211424   2.315   9.622   9.675  0.7801 -0.5750 -1.7232
36473SOL     OW11425   9.858   5.065   3.637  0.3078 -0.0383  0.0363
36473SOL    HW111426   9.829   5.054   3.727  0.4708  2.1690  0.4060
36473SOL    HW211427   9.777   5.073   3.586  0.2161 -1.2968 -0.0488
36474SOL     OW11428   9.934   3.866   6.690  0.1915 -0.3505 -0.1904
36474SOL    HW111429   9.954   3.926   6.618  2.4733  0.2156  0.8480
36474SOL    HW211430  10.016   3.822   6.709 -0.8032 -1.8384  0.8975
36475SOL     OW11431   8.424   8.799   1.808  0.3970  0.3704  0.0307
36475SOL    HW111432   8.351   8.828   1.753  0.4325  0.0867 -0.1726
36475SOL    HW211433   8.382   8.756   1.883  0.3461  0.9058  0.3151
36476SOL     OW11434   9.348   0.919   2.196  0.0012  0.3629  0.0937
36476SOL    HW111435   9.444   0.923   2.207 -0.0055 -0.4415  0.5116
36476SOL    HW211436   9.314   0.931   2.285 -0.3129  1.2731 -0.1448
36477SOL     OW11437   7.422   8.823   3.502 -0.0096  0.0070  0.3342
36477SOL    HW111438   7.507   8.796   3.469 -0.6801  0.6634 -2.1603
36477SOL    HW211439   7.394   8.752   3.561  1.3539 -1.1854 -0.4112
36478SOL     OW11440   1.359   9.477   7.717  0.2701  0.1016 -0.0026
36478SOL    HW111441   1.421   9.434   7.776 -0.6906  0.3554  1.2153
36478SOL    HW211442   1.289   9.412   7.705  1.2889 -0.6883 -2.3712
36479SOL     OW11443  10.727   1.116   9.641 -0.2148 -0.3601  0.2398
36479SOL    HW111444  10.717   1.211   9.629 -1.1876 -0.3242  1.1804
36479SOL    HW211445  10.676   1.077   9.570  1.3036 -0.2125 -0.9835
36480SOL     OW11446   8.129   9.397   1.813  0.0797 -0.5965  0.1218
36480SOL    HW111447   8.195   9.433   1.753  0.4309 -1.8188 -0.2473
36480SOL    HW211448   8.049   9.443   1.790  0.8817  1.3322  0.9538
36481SOL     OW11449   9.273   4.367   3.519 -0.1098 -0.3541  0.5926
36481SOL    HW111450   9.189   4.376   3.564  0.2552 -0.2093  1.2457
36481SOL    HW211451   9.335   4.417   3.572  0.1210  0.7199 -0.6350
36482SOL     OW11452   7.327   3.017   4.651 -0.6924  0.2123 -0.1161
36482SOL    HW111453   7.369   2.931   4.650  0.4987  0.7563  0.7793
36482SOL    HW211454   7.397   3.078   4.629 -1.3302  1.0238  0.0741
36483SOL     OW11455   6.014   1.457   8.617  0.2643 -0.1152  0.5977
36483SOL    HW111456   6.074   1.495   8.681  0.7627  0.5112 -0.2298
36483SOL    HW211457   5.927   1.489   8.643  0.7014  1.9911 -0.3142
36484SOL     OW11458   9.017   1.720   6.432 -0.1656 -0.0103  0.1523
36484SOL    HW111459   9.000   1.692   6.341  0.3011 -1.7622  0.5549
36484SOL    HW211460   8.931   1.721   6.473 -0.4807  1.5708 -0.4820
36485SOL     OW11461   1.106   4.024   5.754  0.2015  0.0739 -0.0925
36485SOL    HW111462   1.197   4.008   5.781  0.0452 -0.6941  0.0179
36485SOL    HW211463   1.098   3.978   5.671 -0.3477 -0.6974  0.3675
36486SOL     OW11464   0.114   1.207   4.438  0.0432  0.8295 -0.7584
36486SOL    HW111465   0.082   1.128   4.397 -1.3333  0.8652  0.1770
36486SOL    HW211466   0.143   1.262   4.366  0.1526 -0.1486 -1.4735
36487SOL     OW11467  10.447   0.149   0.227 -0.2680 -0.3175 -0.5645
36487SOL    HW111468  10.461   0.188   0.141  0.9541 -1.6430 -1.0173
36487SOL    HW211469  10.353   0.157   0.243 -0.3036  1.1582 -1.4070
36488SOL     OW11470   9.431  11.046   2.222  0.2994  0.2350  0.8054
36488SOL    HW111471   9.517  11.074   2.188  1.4830  0.5996  3.7750
36488SOL    HW211472   9.435  10.951   2.221  0.9684  0.2463  1.3618
36489SOL     OW11473   8.767   9.873   1.856  0.2193  0.0439 -0.3475
36489SOL    HW111474   8.693   9.814   1.840  1.2420 -1.1705 -0.7972
36489SOL    HW211475   8.727   9.959   1.870 -1.2696 -0.5929 -0.5122
36490SOL     OW11476   0.066   7.439   4.692  0.3233  0.9565  0.9160
36490SOL    HW111477   0.065   7.402   4.780 -0.8046 -0.5526  0.3137
36490SOL    HW211478  -0.022   7.423   4.658  0.9566  0.7825 -0.7713
36491SOL     OW11479   3.384   5.143   3.563 -0.1157 -0.0338  0.0034
36491SOL    HW111480   3.373   5.220   3.620  0.8253 -0.1776  0.4132
36491SOL    HW211481   3.313   5.084   3.588 -1.0497  0.8240 -0.5441
36492SOL     OW11482   9.633   2.733   9.340 -0.1796  0.4446  0.2789
36492SOL    HW111483   9.676   2.702   9.260 -0.0455 -1.1604  0.9499
36492SOL    HW211484   9.669   2.821   9.353  2.2609 -0.5006  0.3274
36493SOL     OW11485   6.433   3.879   2.117  0.4834  0.5562 -0.0935
36493SOL    HW111486   6.352   3.931   2.121 -0.1931 -0.4381  3.8950
36493SOL    HW211487   6.497   3.931   2.166  1.5356  0.1940 -1.0511
36494SOL     OW11488   9.817   8.985   1.159  0.2752 -0.3939  0.2229
36494SOL    HW111489   9.797   8.996   1.252 -0.2071  3.6701 -0.1845
36494SOL    HW211490   9.912   9.000   1.154  0.2922 -0.5626  0.0379
36495SOL     OW11491   2.532   5.419   7.310 -0.7826  0.3163 -0.0106
36495SOL    HW111492   2.478   5.484   7.264 -2.6118 -0.4999  0.8893
36495SOL    HW211493   2.491   5.410   7.396 -0.0772 -1.4294  0.1809
36496SOL     OW11494   9.830   7.395   6.544  0.5397 -0.0302 -0.1225
36496SOL    HW111495   9.823   7.484   6.577 -0.5457 -0.0375 -0.3121
36496SOL    HW211496   9.863   7.405   6.455 -0.9630  0.2924 -0.6669
36497SOL     OW11497   0.509   6.937   2.071  0.0315 -0.2225  0.1465
36497SOL    HW111498   0.516   6.872   2.142  1.7021 -0.5596 -0.2740
36497SOL    HW211499   0.579   6.999   2.089 -0.5950  0.6238 -0.3069
36498SOL     OW11500   8.193   4.399   4.673  0.3367 -0.1074 -0.0274
36498SOL    HW111501   8.157   4.320   4.632 -0.4712 -0.0861  0.6082
36498SOL    HW211502   8.252   4.436   4.608  1.9939 -2.1038  0.2330
36499SOL     OW11503   7.190   2.326   8.250 -0.1941  0.2846  0.1211
36499SOL    HW111504   7.114   2.272   8.231  0.4328 -0.3930 -0.5068
36499SOL    HW211505   7.169   2.411   8.211  0.7518 -0.8409 -3.1394
36500SOL     OW11506   3.258   9.664   9.576 -0.1346 -0.1427 -0.1627
36500SOL    HW111507   3.343   9.628   9.604 -0.1326 -0.4477 -0.5596
36500SOL    HW211508   3.280   9.726   9.507  0.1495  2.7733  2.3165
36501SOL     OW11509   7.160   2.347   9.517 -0.2819  0.6784 -0.4705
36501SOL    HW111510   7.210   2.316   9.442  1.4207 -0.4211  1.0605
36501SOL    HW211511   7.111   2.271   9.547  0.1040  0.7449  0.3461
36502SOL     OW11512   7.069   5.000   3.514  0.0180  0.1519  0.3460
36502SOL    HW111513   7.013   4.926   3.538  1.1930 -1.2721 -1.1105
36502SOL    HW211514   7.128   4.965   3.447  1.4897  2.0615  0.5545
36503SOL     OW11515   1.271   1.764   7.911 -0.0893  0.6696 -0.2024
36503SOL    HW111516   1.363   1.746   7.931  0.0483  1.3067 -0.2595
36503SOL    HW211517   1.246   1.830   7.975 -1.0319 -0.7796  1.0080
36504SOL     OW11518   0.870  10.785   2.872 -0.0764 -0.2678  0.4290
36504SOL    HW111519   0.831  10.699   2.859  0.7246 -0.4381 -1.1983
36504SOL    HW211520   0.828  10.840   2.806 -0.6568  0.6376  1.5236
36505SOL     OW11521   2.072   7.252   1.488  0.4354  0.1687  0.1764
36505SOL    HW111522   2.092   7.281   1.399  0.3721  0.8846  0.3850
36505SOL    HW211523   1.985   7.288   1.506  1.2718  1.8247  1.2511
36506SOL     OW11524   7.028   9.807   6.531 -0.1796 -0.0895 -0.1706
36506SOL    HW111525   6.959   9.772   6.474  1.0572 -2.1631 -0.5036
36506SOL    HW211526   7.064   9.882   6.483 -2.1038  1.0116 -0.0058
36507SOL     OW11527   0.016  10.958   1.980  0.3356  0.3558 -0.1225
36507SOL    HW111528  -0.039  10.880   1.966 -0.7390  0.9565  0.6426
36507SOL    HW211529   0.104  10.930   1.952  0.0452 -1.2416  0.4267
36508SOL     OW11530   9.887   9.678   8.547 -0.3950 -0.2855 -0.1692
36508SOL    HW111531   9.796   9.708   8.538 -0.5475  0.2026  2.3338
36508SOL    HW211532   9.939   9.751   8.514 -0.8781  0.6474  1.0549
36509SOL     OW11533   5.845   5.563   7.380 -0.0443  0.0967 -0.0805
36509SOL    HW111534   5.900   5.604   7.313  0.2898  0.6534  0.5226
36509SOL    HW211535   5.797   5.495   7.333 -0.4439  1.0261 -1.0604
36510SOL     OW11536   4.502   1.300   8.094  0.3249  0.2380  0.4722
36510SOL    HW111537   4.423   1.259   8.059  0.9408 -0.1119 -0.5318
36510SOL    HW211538   4.530   1.360   8.025  0.7974  0.5560  0.9332
36511SOL     OW11539   0.278  10.239   1.868 -0.3966 -0.0271  0.0450
36511SOL    HW111540   0.267  10.325   1.909 -1.3079  0.4206 -1.0749
36511SOL    HW211541   0.367  10.213   1.890 -0.9966 -0.0661  2.7175
36512SOL     OW11542   8.721   6.140  10.858  0.2861  0.4656 -0.3190
36512SOL    HW111543   8.753   6.125  10.769 -3.2213  0.0094 -1.6816
36512SOL    HW211544   8.755   6.226  10.882  1.5428  0.4693 -1.9717
36513SOL     OW11545  10.475  10.355   4.457  0.2263 -0.5842  0.2509
36513SOL    HW111546  10.413  10.295   4.416 -0.0786 -0.7246  0.9074
36513SOL    HW211547  10.426  10.395   4.529  1.1459 -1.3508  1.3398
36514SOL     OW11548   7.905   0.342  10.838 -0.3094 -0.3777 -0.3103
36514SOL    HW111549   7.832   0.400  10.815  0.3122  0.8905  0.7342
36514SOL    HW211550   7.866   0.279  10.899 -0.4335  0.7292  0.8151
36515SOL     OW11551   4.779   8.257   2.791 -0.1173  0.0702 -0.7073
36515SOL    HW111552   4.787   8.183   2.731  0.0169 -0.5646  0.0773
36515SOL    HW211553   4.786   8.218   2.879 -1.2493  0.8465 -0.2456
36516SOL     OW11554   0.259   6.148   1.783 -0.5021  0.1786 -0.0852
36516SOL    HW111555   0.338   6.105   1.749  0.9287  0.6691  2.4038
36516SOL    HW211556   0.198   6.146   1.709  1.8352 -0.1358 -2.1713
36517SOL     OW11557   1.504   1.099   4.181  0.5518 -0.7318 -0.2383
36517SOL    HW111558   1.469   1.027   4.128 -1.1383 -1.8403  2.1910
36517SOL    HW211559   1.431   1.159   4.193  1.2892  0.2014 -0.2648
36518SOL     OW11560   7.911   8.404   3.717 -0.3880 -0.4901 -0.2224
36518SOL    HW111561   7.964   8.479   3.741 -0.0941 -0.6750 -0.2872
36518SOL    HW211562   7.962   8.359   3.650 -1.2637  0.1092 -1.3321
36519SOL     OW11563  10.271   0.813   8.941 -0.6588  0.0338  0.2942
36519SOL    HW111564  10.311   0.726   8.949 -1.4069 -0.3382  0.1255
36519SOL    HW211565  10.341   0.874   8.961  0.3025 -0.5570 -1.1505
36520SOL     OW11566   6.741   0.563   1.887  0.6214  0.2133 -0.8416
36520SOL    HW111567   6.770   0.511   1.812 -0.6539 -0.8554 -0.6398
36520SOL    HW211568   6.784   0.523   1.963  0.2438 -0.0583 -0.7702
36521SOL     OW11569   7.716  10.861   7.118  0.1215  0.1313  0.2269
36521SOL    HW111570   7.624  10.886   7.129 -0.3178 -1.4023  0.3075
36521SOL    HW211571   7.726  10.846   7.024  0.0284 -0.5601  0.3175
36522SOL     OW11572   1.864   9.457   0.733  0.2197 -0.1411 -0.2340
36522SOL    HW111573   1.895   9.542   0.764  0.1454 -0.1783 -0.0592
36522SOL    HW211574   1.771   9.472   0.713  0.4040  0.0363 -0.9905
36523SOL     OW11575   9.919   4.231   6.126 -0.2576  0.3189  0.0942
36523SOL    HW111576   9.854   4.277   6.073  0.4099 -1.1185 -2.1126
36523SOL    HW211577   9.880   4.145   6.142  1.0115 -0.5384 -1.2131
36524SOL     OW11578   0.214   3.470   2.132 -0.4412  0.5135  0.3074
36524SOL    HW111579   0.158   3.547   2.143  1.8264  2.5032 -1.2506
36524SOL    HW211580   0.191   3.435   2.046 -0.5698  0.2061  0.4641
36525SOL     OW11581   5.868   1.876   8.942  0.1569 -0.3675  0.1550
36525SOL    HW111582   5.944   1.831   8.904 -1.1436 -0.0166 -3.2175
36525SOL    HW211583   5.858   1.954   8.888 -2.9565 -0.7397  0.0196
36526SOL     OW11584   6.930   6.204   7.013 -0.5128  0.8889  0.6988
36526SOL    HW111585   6.962   6.241   6.931 -1.0350  0.0473  0.0938
36526SOL    HW211586   6.845   6.165   6.990 -0.2094 -0.2339  1.4006
36527SOL     OW11587   4.697   7.815   7.965 -0.3374 -0.3294  0.3719
36527SOL    HW111588   4.731   7.874   8.032  1.5875 -0.4239 -0.4641
36527SOL    HW211589   4.647   7.750   8.015  1.2291 -0.5385  1.7768
36528SOL     OW11590  10.866  10.258   3.845  0.4134  0.4030 -0.7128
36528SOL    HW111591  10.947  10.231   3.802  0.6427  0.8019 -0.5385
36528SOL    HW211592  10.853  10.194   3.915  0.0429 -0.2455 -1.3550
36529SOL     OW11593   8.431   7.759   2.956  0.4977 -0.0492 -0.0754
36529SOL    HW111594   8.507   7.816   2.971  1.3995 -1.2455  0.1020
36529SOL    HW211595   8.447   7.720   2.870  1.0408 -1.6755  0.7128
36530SOL     OW11596  10.160  10.869   2.954 -0.2812  0.4769 -0.2187
36530SOL    HW111597  10.214  10.944   2.930 -0.3263  0.5687 -0.0451
36530SOL    HW211598  10.202  10.794   2.914 -0.9365  0.7501 -1.4679
36531SOL     OW11599   3.831   7.838   3.486 -0.2421 -0.6251  0.2517
36531SOL    HW111600   3.749   7.821   3.532 -0.5069  1.5338  0.6945
36531SOL    HW211601   3.898   7.837   3.554 -0.5521  1.9542  0.6989
36532SOL     OW11602  11.006   2.666   3.764  0.3754  0.3294  0.1009
36532SOL    HW111603  11.022   2.659   3.858 -0.9130 -1.5044  0.2201
36532SOL    HW211604  10.939   2.734   3.756 -0.2036 -0.1714  0.6047
36533SOL     OW11605   5.701   4.942   8.622 -0.2156  0.4681 -0.4443
36533SOL    HW111606   5.767   4.885   8.662 -0.4089 -0.2128 -1.0618
36533SOL    HW211607   5.748   5.022   8.600 -0.2453  1.1202  1.6896
36534SOL     OW11608   0.839   8.636   3.458 -0.3461 -0.3346 -0.4029
36534SOL    HW111609   0.902   8.697   3.496  0.8810 -0.3899 -2.2217
36534SOL    HW211610   0.797   8.685   3.388 -0.5086 -1.0735 -0.8337
36535SOL     OW11611  10.849   8.826   9.548  0.1987  0.0063 -0.5652
36535SOL    HW111612  10.779   8.781   9.501 -1.5005  0.8225  1.0621
36535SOL    HW211613  10.928   8.775   9.529 -0.9667 -1.4078 -1.8121
36536SOL     OW11614   9.363   8.262   3.929  0.3581  0.0959  0.4994
36536SOL    HW111615   9.416   8.341   3.938  1.9548 -0.7514 -1.0079
36536SOL    HW211616   9.330   8.245   4.017  2.6692  0.6126  1.5249
36537SOL     OW11617   2.198  10.434   4.717  0.4925 -0.4053  0.1183
36537SOL    HW111618   2.154  10.352   4.743  0.7112 -0.5052  0.1753
36537SOL    HW211619   2.291  10.412   4.716  0.9673  0.7418  3.7673
36538SOL     OW11620   7.559   2.361   1.213  0.4094 -0.0047  0.2408
36538SOL    HW111621   7.495   2.311   1.162 -0.8747  0.5453  1.2435
36538SOL    HW211622   7.542   2.452   1.189  0.1102  0.2215  1.2750
36539SOL     OW11623   8.562   3.862   1.475  0.4961 -0.2252  0.1846
36539SOL    HW111624   8.550   3.767   1.478 -0.8181 -0.0906  0.0171
36539SOL    HW211625   8.636   3.879   1.533 -2.0453 -0.9435  3.9967
36540SOL     OW11626   1.433   0.530   5.685 -0.0188 -0.6251 -0.0392
36540SOL    HW111627   1.427   0.606   5.742  0.6532 -0.5002 -0.1284
36540SOL    HW211628   1.480   0.562   5.607  1.3422 -1.3968  0.4259
36541SOL     OW11629   8.052   0.519   5.654 -0.2935 -0.1460  0.8311
36541SOL    HW111630   7.983   0.567   5.608 -1.1867  0.4683  2.6887
36541SOL    HW211631   8.122   0.508   5.589 -0.3868  2.9513  0.0328
36542SOL     OW11632   9.495  10.413   1.053 -0.1700  0.6559 -0.3869
36542SOL    HW111633   9.496  10.318   1.044  0.3616  0.7318 -1.2101
36542SOL    HW211634   9.403  10.434   1.069 -0.2455 -0.0169  0.1032
36543SOL     OW11635   5.117   0.377   6.110  0.1706  0.2404  0.1566
36543SOL    HW111636   5.043   0.423   6.069 -0.6458 -0.0343  1.2783
36543SOL    HW211637   5.193   0.430   6.086 -0.7545  2.4209  1.6137
36544SOL     OW11638   3.335   7.077   0.429 -0.0670 -0.2458 -0.0088
36544SOL    HW111639   3.256   7.111   0.385  0.7379 -1.0290 -2.1918
36544SOL    HW211640   3.387   7.155   0.448 -1.1810  0.2495  1.1406
36545SOL     OW11641   3.441   8.162   0.186 -0.4833  0.0139  0.0520
36545SOL    HW111642   3.373   8.096   0.201 -0.1627  0.0505  1.8910
36545SOL    HW211643   3.394   8.237   0.149 -1.0282 -0.7954 -0.9756
36546SOL     OW11644   7.831   2.397   3.357 -0.1575 -0.0306  0.1742
36546SOL    HW111645   7.758   2.453   3.386  0.0179  1.0723 -1.3879
36546SOL    HW211646   7.903   2.420   3.415 -0.4041  0.5669  0.2567
36547SOL     OW11647  10.414   7.134   0.959 -0.6371 -0.3591 -0.5319
36547SOL    HW111648  10.337   7.175   0.997 -1.0041 -1.9549  0.5508
36547SOL    HW211649  10.488   7.173   1.006 -0.8235  0.6126 -1.0343
36548SOL     OW11650   2.884   1.021   2.912  0.4699 -0.0242  0.5439
36548SOL    HW111651   2.803   1.052   2.870  0.8826  0.4661  0.1036
36548SOL    HW211652   2.891   1.072   2.992  0.7709  0.5105  0.1773
36549SOL     OW11653   8.793   6.101   0.484  0.0177  0.6719 -0.2910
36549SOL    HW111654   8.738   6.022   0.480 -0.9903  1.2900  0.6416
36549SOL    HW211655   8.758   6.158   0.415  1.4593 -0.1030 -1.7059
36550SOL     OW11656   0.769   0.777   2.295  0.7633  0.4132  0.5807
36550SOL    HW111657   0.820   0.761   2.216  0.5307  2.1307  0.0456
36550SOL    HW211658   0.686   0.732   2.280  1.8015 -1.8364  1.1783
36551SOL     OW11659   9.088   9.381   5.397 -0.0889  0.0665 -0.1021
36551SOL    HW111660   9.161   9.345   5.346  1.6981  0.4804  1.9837
36551SOL    HW211661   9.125   9.458   5.441 -2.3160  1.3379 -0.2947
36552SOL     OW11662  10.303   3.962   2.349 -0.5128  0.3057  0.1010
36552SOL    HW111663  10.255   4.044   2.336 -1.2754 -0.0978  0.2826
36552SOL    HW211664  10.237   3.900   2.381  0.1865 -0.1998  0.6182
36553SOL     OW11665  10.290   2.908   8.104  0.3950 -0.5379 -0.0112
36553SOL    HW111666  10.268   3.001   8.094 -0.5430 -0.5109  1.9036
36553SOL    HW211667  10.220   2.862   8.058 -0.6522 -0.3246  1.3195
36554SOL     OW11668   1.185   6.963   8.803  0.2481  0.2240 -0.2575
36554SOL    HW111669   1.205   6.886   8.856  0.7453  0.9780  0.6730
36554SOL    HW211670   1.116   6.933   8.744  0.5903 -0.9991 -0.0769
36555SOL     OW11671   4.494   3.462   4.294  0.8585 -0.3243 -0.7574
36555SOL    HW111672   4.423   3.415   4.337  1.3093  0.4172  0.8683
36555SOL    HW211673   4.450   3.531   4.243  0.4126  0.6367  0.8686
36556SOL     OW11674   4.883   5.132   2.440  0.2723 -0.8901  0.0732
36556SOL    HW111675   4.821   5.196   2.405 -0.2759 -0.2680  2.0661
36556SOL    HW211676   4.969   5.169   2.421  0.0481 -1.1994 -1.6936
36557SOL     OW11677   4.638   0.638   3.532  1.0973 -0.0592  0.7356
36557SOL    HW111678   4.648   0.551   3.570 -0.2803 -0.4948  0.1431
36557SOL    HW211679   4.615   0.622   3.441  2.0772  0.9534  0.2799
36558SOL     OW11680   7.059   3.105   8.390 -0.2942  0.0902 -0.5993
36558SOL    HW111681   7.096   3.035   8.335 -1.9087 -1.0509 -0.2829
36558SOL    HW211682   7.026   3.169   8.327  1.1920  0.6208 -0.8928
36559SOL     OW11683   1.765  10.142   5.386  0.6108  0.0504 -0.8903
36559SOL    HW111684   1.844  10.118   5.337  0.2651 -0.0735 -1.3918
36559SOL    HW211685   1.762  10.237   5.381 -0.5056 -0.0290 -2.8721
36560SOL     OW11686   0.872   4.813   0.985 -0.1376  0.4451  0.6360
36560SOL    HW111687   0.794   4.814   0.930  0.9184  1.2471 -0.9586
36560SOL    HW211688   0.938   4.858   0.932  1.0485  0.9565  2.4658
36561SOL     OW11689   9.929   3.417   3.696  0.1644 -0.2372  0.3971
36561SOL    HW111690   9.926   3.440   3.789  0.6962 -1.1621  0.6625
36561SOL    HW211691  10.022   3.417   3.675  0.1771 -1.6640  0.3220
36562SOL     OW11692   9.089   7.141   6.898 -0.0679  0.1814  0.4257
36562SOL    HW111693   9.096   7.069   6.961 -1.2697  0.0679  0.4569
36562SOL    HW211694   9.166   7.131   6.842  0.9119  0.1585  1.7168
36563SOL     OW11695   9.834   4.678   9.636 -0.0787  0.5754 -0.7165
36563SOL    HW111696   9.814   4.673   9.542  0.0136 -0.4076 -0.6942
36563SOL    HW211697   9.751   4.658   9.679  0.1839 -0.3223 -0.6061
36564SOL     OW11698   6.914   2.345   0.734 -0.1912 -0.2470 -0.1903
36564SOL    HW111699   6.853   2.299   0.676  0.1281  0.0999 -0.7955
36564SOL    HW211700   6.880   2.434   0.739  0.6608  0.1346 -1.0932
36565SOL     OW11701   2.840   2.495   3.461  0.0764  0.9076 -0.2785
36565SOL    HW111702   2.812   2.437   3.390 -1.0401  1.3165 -0.2016
36565SOL    HW211703   2.879   2.436   3.526 -0.3398  0.3351 -0.5358
36566SOL     OW11704   2.706   4.413   6.205  0.9521 -0.0108  0.7740
36566SOL    HW111705   2.719   4.480   6.272  2.6177 -1.9007  2.4717
36566SOL    HW211706   2.618   4.378   6.223  1.8571 -1.4040  2.9879
36567SOL     OW11707   1.483   8.777   0.705 -0.5326  0.0152 -0.1431
36567SOL    HW111708   1.427   8.784   0.782 -1.5079 -1.4015 -0.6825
36567SOL    HW211709   1.452   8.847   0.647 -0.3964  0.5104  0.3743
36568SOL     OW11710   8.161   5.265   0.977 -0.2636 -0.0866 -0.0079
36568SOL    HW111711   8.196   5.273   0.889 -2.7162  0.5103 -1.0017
36568SOL    HW211712   8.162   5.171   0.995  1.7425 -0.1004  0.0311
36569SOL     OW11713   7.172   3.151   1.212  0.0881  0.2703 -0.7909
36569SOL    HW111714   7.251   3.151   1.266 -1.3813  1.9201  1.5658
36569SOL    HW211715   7.164   3.241   1.181 -1.6061  0.5169  0.2488
36570SOL     OW11716   9.143   5.040   2.112 -0.1743 -0.3870  0.3913
36570SOL    HW111717   9.144   4.971   2.178 -0.1356 -1.0233 -0.2654
36570SOL    HW211718   9.075   5.012   2.049 -2.1164  1.4971  1.5084
36571SOL     OW11719   9.786   6.903   1.452 -0.3501  0.2057  0.2574
36571SOL    HW111720   9.743   6.982   1.419 -1.5514 -0.1937  0.8068
36571SOL    HW211721   9.726   6.869   1.517 -0.0443 -1.4022 -0.2714
36572SOL     OW11722   4.802   8.897   3.097  0.1923  0.1244 -0.0489
36572SOL    HW111723   4.775   8.988   3.101 -1.0631 -0.1430 -1.6376
36572SOL    HW211724   4.894   8.899   3.071  0.2689  0.9267  0.2708
36573SOL     OW11725   8.433   9.312   5.908 -0.2919  0.1891  0.4179
36573SOL    HW111726   8.434   9.220   5.937  2.1714 -0.0826 -0.2978
36573SOL    HW211727   8.390   9.310   5.823  1.1311 -0.5974 -0.3133
36574SOL     OW11728   1.627   0.837   1.286  0.0806 -0.2722  0.0357
36574SOL    HW111729   1.653   0.929   1.282 -0.5643 -0.1123 -1.0363
36574SOL    HW211730   1.536   0.840   1.315  0.4251 -0.6584  1.1949
36575SOL     OW11731  10.137   2.836   4.474 -0.0263 -0.0626 -0.2850
36575SOL    HW111732  10.058   2.879   4.441  0.6867  1.3036 -0.2875
36575SOL    HW211733  10.121   2.824   4.567 -0.5203 -0.4764 -0.4165
36576SOL     OW11734   4.403   7.402   0.869 -0.0474  0.0016 -0.7171
36576SOL    HW111735   4.357   7.485   0.859 -1.3445 -0.6942 -0.6437
36576SOL    HW211736   4.419   7.396   0.963  0.1282  0.1945 -0.7314
36577SOL     OW11737   2.087   1.142   4.187 -0.0090 -0.3153  0.0357
36577SOL    HW111738   2.171   1.139   4.142  0.7960  1.1464  1.3141
36577SOL    HW211739   2.037   1.209   4.140  0.7761  1.1055  1.1338
36578SOL     OW11740   6.734   0.605   2.549  0.2037  0.5382 -0.4877
36578SOL    HW111741   6.661   0.560   2.593  0.4397 -0.1986 -0.8400
36578SOL    HW211742   6.697   0.634   2.466 -0.0845  1.4367 -0.0572
36579SOL     OW11743  10.225   4.751   2.334 -0.4073  0.4971  0.0715
36579SOL    HW111744  10.202   4.702   2.256 -0.4605  0.6514 -0.0105
36579SOL    HW211745  10.319   4.737   2.345 -0.5234 -0.0922  0.3787
36580SOL     OW11746  10.308   5.969   5.196 -0.1564  0.3018 -0.8839
36580SOL    HW111747  10.215   5.947   5.187  0.3754 -1.4959 -2.8239
36580SOL    HW211748  10.316   6.001   5.286 -2.4755 -0.3929 -0.3479
36581SOL     OW11749   8.652   0.879   3.916  0.0707 -0.5282  0.1191
36581SOL    HW111750   8.736   0.845   3.886  0.5689  0.0597  0.8315
36581SOL    HW211751   8.588   0.818   3.881  0.8112 -1.1343 -0.2044
36582SOL     OW11752   1.065   9.125   4.680  0.1327 -0.2854  0.0486
36582SOL    HW111753   1.136   9.102   4.621  0.0087 -0.6526  0.0428
36582SOL    HW211754   1.109   9.145   4.763  0.4836  2.0043 -0.6272
36583SOL     OW11755   2.738   8.506   0.729  0.1572  0.1499  0.1237
36583SOL    HW111756   2.645   8.493   0.750  0.0851  0.5254  0.0394
36583SOL    HW211757   2.743   8.500   0.634 -0.1333  2.2102 -0.0809
36584SOL     OW11758   8.130   1.148   9.113  0.0547  0.6141 -0.3284
36584SOL    HW111759   8.125   1.242   9.130 -0.8413  0.2858  1.5402
36584SOL    HW211760   8.195   1.116   9.175 -0.1816 -0.0993 -0.4428
36585SOL     OW11761   7.230   8.829   4.708  0.1711  0.2468 -0.5251
36585SOL    HW111762   7.245   8.842   4.801  3.0866 -0.5982 -0.7768
36585SOL    HW211763   7.135   8.830   4.698 -0.1750  2.3432  2.1216
36586SOL     OW11764   5.337   3.050   6.298 -0.8021  0.1146 -0.3190
36586SOL    HW111765   5.318   3.142   6.280 -1.3076 -0.0606 -0.6785
36586SOL    HW211766   5.432   3.047   6.307 -0.7609  0.6303 -0.5434
36587SOL     OW11767   3.064   2.292   3.908  0.1138 -0.4616  0.1180
36587SOL    HW111768   2.997   2.227   3.930  1.4288 -1.9057 -0.0224
36587SOL    HW211769   3.107   2.312   3.991  0.1979 -0.3260  0.0430
36588SOL     OW11770   7.396   3.186   0.654  0.1892  0.4807 -0.4474
36588SOL    HW111771   7.328   3.207   0.718 -0.8264 -2.0347 -0.5898
36588SOL    HW211772   7.458   3.131   0.703  1.2644  1.3691 -0.7656
36589SOL     OW11773   2.291   3.722   2.904 -0.2649  0.7200 -0.0001
36589SOL    HW111774   2.337   3.638   2.899 -0.9754  0.3271 -0.1018
36589SOL    HW211775   2.298   3.748   2.996 -0.2489  0.4231  0.0841
36590SOL     OW11776  10.046   0.242   6.552  0.1775  0.5634 -0.0922
36590SOL    HW111777  10.061   0.331   6.585  1.3596  0.4637 -0.3318
36590SOL    HW211778   9.987   0.253   6.478  0.9984  1.2585 -0.6672
36591SOL     OW11779  10.537   0.325   2.916 -0.2717 -0.4411  0.1956
36591SOL    HW111780  10.514   0.233   2.903 -1.9135 -0.0971  0.4544
36591SOL    HW211781  10.485   0.353   2.992 -0.2431  0.8501 -0.2276
36592SOL     OW11782   6.516   3.393   6.727  0.1008 -0.3801 -0.0605
36592SOL    HW111783   6.484   3.325   6.667  2.0942 -0.4021 -1.1829
36592SOL    HW211784   6.485   3.475   6.688  0.8427 -0.4353 -0.7959
36593SOL     OW11785   5.425   7.637   6.234  0.3029 -0.0951 -0.4541
36593SOL    HW111786   5.495   7.671   6.177 -0.1848 -1.6118 -2.0495
36593SOL    HW211787   5.364   7.710   6.244  1.8636  1.1290  0.6305
36594SOL     OW11788   3.019   9.886   2.242  0.1687  0.0307  0.5702
36594SOL    HW111789   3.068   9.887   2.160  1.0445  1.0233  1.0827
36594SOL    HW211790   2.994   9.794   2.254  1.3419 -0.3917 -0.0473
36595SOL     OW11791   9.205   0.735   7.084 -0.2228  0.0839  0.6252
36595SOL    HW111792   9.204   0.653   7.034 -2.7688 -0.6112  1.6736
36595SOL    HW211793   9.255   0.713   7.163  1.0887  0.2761 -0.1107
36596SOL     OW11794  10.804   9.264   2.326 -0.6394  0.2163  0.4326
36596SOL    HW111795  10.799   9.208   2.248  0.2824 -1.0233  1.2159
36596SOL    HW211796  10.714   9.269   2.357 -0.7883 -0.5819  0.1638
36597SOL     OW11797   4.848   5.268   0.868 -0.2714  0.9742 -0.8192
36597SOL    HW111798   4.932   5.298   0.902 -0.0392 -1.6068  1.1892
36597SOL    HW211799   4.869   5.231   0.782  0.0138  3.1043 -1.7394
36598SOL     OW11800  10.876   6.140   1.589  0.0584  0.3809  0.0098
36598SOL    HW111801  10.926   6.078   1.642  0.7479  2.9635  2.5846
36598SOL    HW211802  10.784   6.117   1.606  0.1488  2.2014  4.0514
36599SOL     OW11803   8.265   6.169   5.167 -0.5488 -0.3761 -0.6132
36599SOL    HW111804   8.173   6.143   5.161 -0.3736 -1.1354 -0.1634
36599SOL    HW211805   8.294   6.135   5.252  0.1200 -0.0452 -0.6981
36600SOL     OW11806  10.452   2.430   1.187 -0.5951 -0.4267 -0.4094
36600SOL    HW111807  10.461   2.489   1.262  0.4191  1.0866 -1.6795
36600SOL    HW211808  10.468   2.343   1.224  1.3018  0.4007  0.8959
36601SOL     OW11809   9.727   5.364   2.804  0.1327 -0.1471 -0.3922
36601SOL    HW111810   9.705   5.370   2.897  1.0046  0.8752 -0.2391
36601SOL    HW211811   9.698   5.277   2.779 -0.5210 -0.2782  0.7284
36602SOL     OW11812   7.719   3.672   6.189  0.0154  0.1584  0.2485
36602SOL    HW111813   7.706   3.580   6.214  1.1247 -0.1417 -0.1819
36602SOL    HW211814   7.812   3.687   6.206  0.7545  0.1039 -3.0628
36603SOL     OW11815   8.291   1.275   3.956  0.3752 -0.2231  0.0118
36603SOL    HW111816   8.283   1.189   3.915 -0.6640 -0.0383 -0.2136
36603SOL    HW211817   8.345   1.326   3.896  1.6069 -0.9251  0.5023
36604SOL     OW11818   8.522   2.840   3.676  0.7875 -0.3204 -0.2162
36604SOL    HW111819   8.544   2.929   3.701  1.3269 -0.7233  0.7782
36604SOL    HW211820   8.548   2.786   3.750 -0.6915 -1.1825 -0.2828
36605SOL     OW11821   0.112   1.453   7.293 -0.1766 -0.6258 -0.0629
36605SOL    HW111822   0.160   1.454   7.210  0.6671 -1.8339  0.3809
36605SOL    HW211823   0.134   1.368   7.332 -0.6237 -0.1085  1.3578
36606SOL     OW11824   0.338   1.195   2.740 -0.4983 -0.6461  0.0599
36606SOL    HW111825   0.388   1.123   2.778 -0.2946 -1.0638 -0.9520
36606SOL    HW211826   0.260   1.202   2.795 -1.0245 -2.3382 -0.3859
36607SOL     OW11827   7.507   0.915   5.095  0.0147  0.5224 -0.0562
36607SOL    HW111828   7.477   0.941   5.182  0.7127  1.8221 -0.1744
36607SOL    HW211829   7.501   0.995   5.043  0.8611  0.0914 -0.8459
36608SOL     OW11830  10.989   0.627   2.547  0.1996 -0.0870  0.5734
36608SOL    HW111831  11.068   0.585   2.513  1.5805  1.8673  1.1500
36608SOL    HW211832  10.920   0.604   2.484  1.9356  0.7718 -1.7944
36609SOL     OW11833   6.727   8.329   2.472  0.7458  0.3891  0.2029
36609SOL    HW111834   6.700   8.241   2.448 -0.4206  0.9082 -0.4661
36609SOL    HW211835   6.719   8.333   2.567  1.0624 -0.2927  0.2626
36610SOL     OW11836   5.529   6.623   0.431  0.3838 -0.3357 -0.3934
36610SOL    HW111837   5.484   6.592   0.353 -0.8939 -0.2551  0.2697
36610SOL    HW211838   5.525   6.719   0.425  0.5458 -0.3295 -0.3883
36611SOL     OW11839   5.264   2.228   1.708 -0.2900 -0.0713  0.0112
36611SOL    HW111840   5.202   2.203   1.776  0.3245 -0.9851  0.2512
36611SOL    HW211841   5.268   2.151   1.650  2.4333 -1.0498  1.3377
36612SOL     OW11842   4.103  10.217  10.924  0.2930  0.1426  0.3660
36612SOL    HW111843   4.124  10.278  10.854 -0.0099  0.0325  0.1795
36612SOL    HW211844   4.155  10.139  10.905  1.4909  0.7166  1.1817
36613SOL     OW11845   8.387   4.577   5.029 -0.3562  0.2406 -0.1711
36613SOL    HW111846   8.421   4.487   5.035  3.4772  1.5441  0.4122
36613SOL    HW211847   8.354   4.584   4.940  0.2643 -1.4725 -0.5765
36614SOL     OW11848   0.725   3.638   3.879  0.4270 -0.1541 -0.1826
36614SOL    HW111849   0.629   3.643   3.886  0.4366 -0.4481  0.2153
36614SOL    HW211850   0.757   3.682   3.957  0.5715 -1.8822  0.7943
36615SOL     OW11851   8.408  10.963   3.839  0.3449  0.2441 -0.1215
36615SOL    HW111852   8.321  11.000   3.820 -0.1552 -0.2654  1.0753
36615SOL    HW211853   8.460  11.038   3.867  0.2640  0.5352 -0.7341
36616SOL     OW11854   1.076   9.536   6.353 -0.3138  0.1908 -0.5962
36616SOL    HW111855   1.137   9.571   6.418 -0.1799 -0.5959 -0.2884
36616SOL    HW211856   1.131   9.499   6.285 -0.4544  1.1168 -1.2339
36617SOL     OW11857   7.543   3.999   8.526 -0.1229 -0.3693  0.2124
36617SOL    HW111858   7.606   4.044   8.470 -1.4241 -0.6805 -1.6102
36617SOL    HW211859   7.458   4.032   8.497 -1.0433 -2.8946 -0.2306
36618SOL     OW11860   0.251  10.787   9.174 -0.1821 -0.0308  0.2508
36618SOL    HW111861   0.252  10.774   9.269 -2.5308  2.3545  0.7339
36618SOL    HW211862   0.178  10.733   9.143  0.5540 -0.7737 -0.2317
36619SOL     OW11863   0.694   6.697   6.189 -0.4858 -0.0399 -0.0119
36619SOL    HW111864   0.722   6.789   6.190  0.0691 -0.2019 -0.0509
36619SOL    HW211865   0.653   6.683   6.274  0.7938 -0.1578  0.6109
36620SOL     OW11866  11.051   3.254   9.617  0.0458  0.5735  0.4160
36620SOL    HW111867  10.960   3.240   9.590 -0.2296 -0.4170  1.7364
36620SOL    HW211868  11.068   3.184   9.680  1.1966  1.7233  1.4413
36621SOL     OW11869   6.402   2.598   6.282 -0.0807 -0.1977 -0.1442
36621SOL    HW111870   6.379   2.667   6.219 -0.4310 -0.1234  0.0615
36621SOL    HW211871   6.338   2.608   6.352  0.7048  0.1214  0.5388
36622SOL     OW11872   5.767   7.247   9.649  0.1042 -0.3149  0.7613
36622SOL    HW111873   5.751   7.229   9.741 -0.7521  0.0696  0.6918
36622SOL    HW211874   5.688   7.291   9.618  0.5719 -0.0041 -0.0400
36623SOL     OW11875   8.102   7.434   8.887 -0.0109  0.3710 -0.6031
36623SOL    HW111876   8.051   7.499   8.936  1.5002  0.6177  0.7285
36623SOL    HW211877   8.141   7.378   8.954  2.8119  1.2189 -1.3619
36624SOL     OW11878   7.584   1.602   4.825 -0.3039  0.1185  0.0490
36624SOL    HW111879   7.601   1.693   4.798  0.9549 -0.0207  0.2956
36624SOL    HW211880   7.646   1.587   4.897 -0.5819 -0.8992  0.0829
36625SOL     OW11881  10.333   6.377   2.253  0.0509  0.1239 -0.6782
36625SOL    HW111882  10.342   6.462   2.209 -0.4103 -0.1070 -1.2192
36625SOL    HW211883  10.406   6.376   2.315  0.7801  0.4110 -1.5055
36626SOL     OW11884   9.700   1.630   2.437  0.1339  0.0122 -0.0692
36626SOL    HW111885   9.688   1.722   2.461  1.1222 -0.3370  2.0264
36626SOL    HW211886   9.758   1.596   2.505  0.5233 -1.9420 -1.3311
36627SOL     OW11887   1.230   2.872   6.910 -0.4708  0.1204 -0.5707
36627SOL    HW111888   1.290   2.810   6.869 -1.7376 -0.3995 -1.7246
36627SOL    HW211889   1.264   2.959   6.885  0.6761 -0.1097  0.1256
36628SOL     OW11890   7.316   9.527   0.680 -0.1371  0.6405  0.4086
36628SOL    HW111891   7.335   9.435   0.697  1.8593  0.9832  0.2470
36628SOL    HW211892   7.228   9.540   0.716 -0.7170 -1.4526 -0.1080
36629SOL     OW11893   7.278  10.486   8.055 -0.4589 -0.1144 -0.1766
36629SOL    HW111894   7.354  10.464   8.109  0.9946  0.5876 -1.8343
36629SOL    HW211895   7.310  10.553   7.994 -1.7009 -1.5644 -2.5809
36630SOL     OW11896   3.562   4.367   3.972  0.6563 -0.3517 -0.3263
36630SOL    HW111897   3.611   4.449   3.981  1.2780 -0.4952 -1.9452
36630SOL    HW211898   3.538   4.343   4.061 -1.1538  2.5294  0.0765
36631SOL     OW11899  10.272   1.203   4.888 -0.6211  0.7123 -0.2270
36631SOL    HW111900  10.345   1.141   4.896 -0.1461  1.2691 -0.1972
36631SOL    HW211901  10.209   1.157   4.833  0.2331  0.6343 -1.1994
36632SOL     OW11902   0.524   5.083   1.141 -0.0841  0.1875 -0.0896
36632SOL    HW111903   0.498   5.135   1.217  0.6740  2.4548 -1.3111
36632SOL    HW211904   0.571   5.144   1.084 -0.5200 -1.4571 -2.3531
36633SOL     OW11905   1.314   6.069   3.588  0.6921  0.1543 -0.3640
36633SOL    HW111906   1.396   6.119   3.580  0.5361  0.5428  0.3244
36633SOL    HW211907   1.246   6.135   3.596  0.5420 -0.1286  1.1605
36634SOL     OW11908   3.431   3.057  10.768  0.3397  0.3685 -0.3311
36634SOL    HW111909   3.357   3.054  10.828  1.1548  0.0129  0.6932
36634SOL    HW211910   3.500   3.009  10.813  1.6041  1.7790 -0.7029
36635SOL     OW11911   9.636   7.382   7.057  0.3095  0.0022  0.0240
36635SOL    HW111912   9.705   7.339   7.007  0.6819 -0.4549  0.9187
36635SOL    HW211913   9.602   7.314   7.114 -1.7682 -0.1349 -1.2668
36636SOL     OW11914   0.084   0.047   1.754  0.0718  0.7369 -0.1573
36636SOL    HW111915   0.001   0.079   1.718  0.1144  0.1564 -0.8015
36636SOL    HW211916   0.060  -0.036   1.797  0.3983  0.3070 -0.7932
36637SOL     OW11917   6.865   0.361   2.864  0.5330 -0.9338  0.1600
36637SOL    HW111918   6.831   0.352   2.775  0.0339 -0.9408  0.3531
36637SOL    HW211919   6.909   0.447   2.864  1.4379 -1.3784 -0.3873
36638SOL     OW11920   3.919   3.062   5.898 -0.3116  0.1153 -1.0742
36638SOL    HW111921   3.871   3.144   5.892 -0.1200  0.2882 -0.3574
36638SOL    HW211922   3.987   3.079   5.964 -1.8076 -1.3673  0.9718
36639SOL     OW11923   6.837   6.998   1.194 -0.1782  0.0656 -0.2632
36639SOL    HW111924   6.769   6.970   1.255  0.6098  0.2489  0.7420
36639SOL    HW211925   6.901   6.927   1.195 -0.0686  0.1515 -0.7467
36640SOL     OW11926   2.629   0.711  11.085 -0.1333 -0.0375 -0.2167
36640SOL    HW111927   2.553   0.761  11.116  0.1641  0.2642  0.0291
36640SOL    HW211928   2.680   0.693  11.164 -0.2314 -0.7328 -0.3010
36641SOL     OW11929   8.603   0.022   5.792 -0.8166  0.2797 -0.2445
36641SOL    HW111930   8.674   0.018   5.856 -0.1669  2.9670 -0.6455
36641SOL    HW211931   8.530  -0.023   5.834  0.1502  0.3276  1.5961
36642SOL     OW11932  10.358  10.323   8.264 -0.1706  0.1864 -0.4295
36642SOL    HW111933  10.435  10.281   8.226 -1.1352 -1.2505 -0.8853
36642SOL    HW211934  10.298  10.251   8.281 -1.2347  1.2288  0.3590
36643SOL     OW11935   8.860  10.275   3.286 -0.4756  0.0303 -0.5942
36643SOL    HW111936   8.923  10.213   3.248  1.2741  0.2694  1.7241
36643SOL    HW211937   8.830  10.232   3.366 -0.4571  1.5115  0.2290
36644SOL     OW11938   0.743   3.864   9.874 -0.0061  0.1405 -0.2580
36644SOL    HW111939   0.682   3.917   9.823 -0.3921  1.2946  1.2867
36644SOL    HW211940   0.830   3.892   9.845 -0.1992 -0.4662 -1.4553
36645SOL     OW11941   8.149   9.841   4.020 -0.4419  0.4271 -0.0327
36645SOL    HW111942   8.187   9.769   4.069 -0.1060  0.3620 -0.3851
36645SOL    HW211943   8.175   9.919   4.068  1.0309  0.4624 -0.8254
36646SOL     OW11944   8.303   5.385   7.030 -0.2909  0.2389  0.0897
36646SOL    HW111945   8.295   5.322   7.101 -1.6192  1.7151  1.3148
36646SOL    HW211946   8.302   5.331   6.950  0.7131 -1.4075  1.1326
36647SOL     OW11947   6.452  10.862   5.874  0.3482  0.0917  0.1851
36647SOL    HW111948   6.411  10.776   5.876  1.5041 -0.5190 -1.2083
36647SOL    HW211949   6.417  10.904   5.795 -0.1097  0.8676  0.7814
36648SOL     OW11950   5.965  10.571   5.477  0.1738  0.4437 -0.5106
36648SOL    HW111951   5.970  10.579   5.572  2.0054  0.9993 -0.6274
36648SOL    HW211952   5.878  10.605   5.455 -0.4235 -0.0333  0.9741
36649SOL     OW11953  10.998   4.547   7.428  0.2889  0.1010 -0.7003
36649SOL    HW111954  11.002   4.466   7.379 -0.6183  0.0887 -0.7711
36649SOL    HW211955  10.920   4.538   7.483  0.3725  0.7764 -0.4627
36650SOL     OW11956  10.351   7.653   4.344  0.1553 -0.4217 -0.1570
36650SOL    HW111957  10.445   7.649   4.325  0.3229 -1.4277  0.7921
36650SOL    HW211958  10.345   7.641   4.439 -1.0405 -2.6667 -0.4384
36651SOL     OW11959   1.123   3.373   4.090  1.0512  0.1894  0.3246
36651SOL    HW111960   1.099   3.321   4.166  1.0478  1.0271  0.9128
36651SOL    HW211961   1.106   3.463   4.117 -0.4079  0.4101 -1.2046
36652SOL     OW11962   0.558  10.258   2.051 -0.1931 -0.2122 -0.6407
36652SOL    HW111963   0.646  10.233   2.023  0.3723  0.3069  0.5887
36652SOL    HW211964   0.557  10.242   2.146 -1.2646  0.2168 -0.5613
36653SOL     OW11965   9.006  10.116   6.484 -0.4417 -0.1472 -0.3480
36653SOL    HW111966   8.938  10.183   6.479 -1.7309 -1.4050 -0.0885
36653SOL    HW211967   8.987  10.056   6.412  1.0429  0.0516 -0.9364
36654SOL     OW11968   0.540   8.901  10.801  0.1011  0.0817 -0.2116
36654SOL    HW111969   0.514   8.811  10.819 -1.0198  0.2399 -0.9323
36654SOL    HW211970   0.606   8.921  10.867  0.5741 -1.3581 -0.2275
36655SOL     OW11971  10.491   2.630   1.354  0.0542  0.3294  0.2253
36655SOL    HW111972  10.562   2.688   1.326 -1.1992  2.5161  1.3459
36655SOL    HW211973  10.481   2.649   1.447 -0.3697 -1.8011  0.6656
36656SOL     OW11974   8.494   6.180   9.634  0.1184 -0.1808 -0.1226
36656SOL    HW111975   8.578   6.227   9.634 -0.5049  0.9714 -0.3976
36656SOL    HW211976   8.445   6.219   9.707 -0.2730 -0.6783 -0.1152
36657SOL     OW11977  10.286   7.470   2.343  0.4172 -0.1412  0.5249
36657SOL    HW111978  10.204   7.512   2.318  0.1166  0.0806  1.8139
36657SOL    HW211979  10.260   7.400   2.403  1.1730 -0.0763  0.9411
36658SOL     OW11980   0.321   1.580  10.027 -0.3447 -0.0361 -0.5213
36658SOL    HW111981   0.246   1.625  10.064 -1.2828 -1.1601 -0.9831
36658SOL    HW211982   0.353   1.638   9.958 -0.8989  0.3708 -0.4394
36659SOL     OW11983   8.974   1.175   1.040 -0.5367  0.4045  0.4451
36659SOL    HW111984   8.951   1.265   1.017  2.3499  0.9680 -0.6020
36659SOL    HW211985   9.044   1.152   0.980 -2.0839 -3.1001 -0.2387
36660SOL     OW11986   8.350   8.099   5.325  0.6915  0.2247 -0.4457
36660SOL    HW111987   8.421   8.053   5.371 -1.8835 -0.4095  3.2876
36660SOL    HW211988   8.300   8.029   5.283  0.1147  0.2299  0.2206
36661SOL     OW11989   0.565   4.807   3.318  0.0195  0.0119 -0.2698
36661SOL    HW111990   0.476   4.817   3.282  0.2460  0.5054 -0.7053
36661SOL    HW211991   0.563   4.858   3.399 -0.5977 -1.3909  0.6353
36662SOL     OW11992   2.943   1.894   9.233 -0.2827 -0.5686 -0.1140
36662SOL    HW111993   2.922   1.811   9.276 -0.0880  0.2280  1.5926
36662SOL    HW211994   3.013   1.872   9.171  1.3159 -1.3525  1.8527
36663SOL     OW11995   9.469   1.326   9.776  0.2419  0.3561 -0.1041
36663SOL    HW111996   9.379   1.350   9.752  0.5403  0.6864 -0.9432
36663SOL    HW211997   9.465   1.232   9.794  0.1654 -0.1752 -2.4998
36664SOL     OW11998   5.195   1.728   9.929  0.2257 -0.2217  0.3281
36664SOL    HW111999   5.199   1.736   9.834  0.9565 -4.3878 -0.1712
36664SOL    HW212000   5.287   1.728   9.957  0.0329  0.4123  1.0125
36665SOL     OW12001   0.053   9.229   5.066  0.2265  0.0342 -0.1008
36665SOL    HW112002   0.108   9.287   5.119  0.0530 -0.5864  0.7703
36665SOL    HW212003  -0.035   9.267   5.073  0.4622  0.8588 -1.2576
36666SOL     OW12004   6.551   1.496   0.474  0.3614  0.1315 -0.5323
36666SOL    HW112005   6.461   1.528   0.475  1.0444  2.2370 -0.9482
36666SOL    HW212006   6.568   1.476   0.382  0.0959 -0.9820 -0.3446
36667SOL     OW12007   7.101   1.483   2.584  0.0582  0.4625  0.0971
36667SOL    HW112008   7.141   1.396   2.584  0.9213  0.8310 -1.0046
36667SOL    HW212009   7.164   1.538   2.630 -1.0170  0.3174  1.8317
36668SOL     OW12010   0.228   8.227   2.796  0.3715  0.5471 -0.3804
36668SOL    HW112011   0.167   8.252   2.866 -0.8974 -1.1972 -0.7990
36668SOL    HW212012   0.268   8.146   2.828  0.5577  0.3059 -1.2134
36669SOL     OW12013   2.936   1.541   0.993  0.0752 -0.4667  0.2489
36669SOL    HW112014   2.845   1.539   0.963  0.4637  1.2313 -1.2925
36669SOL    HW212015   2.982   1.482   0.933  0.5138  1.3940 -1.3726
36670SOL     OW12016   1.254   9.850  10.452  0.1127 -0.8591  0.7150
36670SOL    HW112017   1.305   9.931  10.446  0.8071 -1.3843 -3.3290
36670SOL    HW212018   1.166   9.875  10.422  0.3809 -1.5927 -0.7362
36671SOL     OW12019   4.940   7.938   9.329 -0.2236 -0.2947 -0.2778
36671SOL    HW112020   4.929   7.877   9.255 -1.3581  0.5529 -0.8422
36671SOL    HW212021   4.869   8.001   9.318  0.7687  0.9785  0.4517
36672SOL     OW12022   3.318   4.681   0.177 -0.0061 -0.1298 -0.0808
36672SOL    HW112023   3.282   4.769   0.190  1.4906  0.4510  0.3732
36672SOL    HW212024   3.350   4.655   0.264  2.1584  0.1129 -0.7346
36673SOL     OW12025   0.750  10.645  10.341  0.1484  0.4573  0.3671
36673SOL    HW112026   0.843  10.643  10.320  0.1348 -0.6316  0.3494
36673SOL    HW212027   0.742  10.592  10.420 -0.3142  1.4350  0.9853
36674SOL     OW12028   9.649   3.375   6.220  0.0468  0.3147 -0.6740
36674SOL    HW112029   9.567   3.400   6.178 -0.8239 -0.9986  0.1696
36674SOL    HW212030   9.655   3.431   6.297 -0.5005 -0.1606 -0.2791
36675SOL     OW12031   0.471   2.921   6.172 -0.7780 -0.0582 -0.8045
36675SOL    HW112032   0.376   2.932   6.182 -0.6093  1.8405 -0.9894
36675SOL    HW212033   0.499   2.998   6.123  1.0585  0.1034  0.4095
36676SOL     OW12034   9.862   3.861   0.166 -0.0329  0.3475  0.1918
36676SOL    HW112035   9.920   3.849   0.241 -1.7242  1.3452  1.7323
36676SOL    HW212036   9.805   3.783   0.167  0.9381 -0.4223 -1.0573
36677SOL     OW12037   9.492   4.821   0.231 -0.0052  0.2413  0.2323
36677SOL    HW112038   9.556   4.823   0.301  0.7352 -0.4479 -0.4027
36677SOL    HW212039   9.436   4.746   0.250  0.8012 -0.5492 -0.4060
36678SOL     OW12040   2.804  10.648   6.163 -0.0022  0.3114 -0.1068
36678SOL    HW112041   2.865  10.699   6.216  2.0292 -0.2518 -1.7496
36678SOL    HW212042   2.719  10.660   6.205  0.9959  2.2339  1.5154
36679SOL     OW12043   8.194   2.990   9.282 -0.1405 -0.2841 -0.1348
36679SOL    HW112044   8.265   3.053   9.286 -0.8241  0.4437  1.2102
36679SOL    HW212045   8.123   3.036   9.238 -0.0042 -0.8038 -0.9262
36680SOL     OW12046  10.469   4.357  10.048 -0.0496 -0.0101  0.2002
36680SOL    HW112047  10.502   4.385   9.963  0.2792 -0.2650  0.2406
36680SOL    HW212048  10.449   4.264  10.037  2.4381 -0.7389  1.0792
36681SOL     OW12049   3.635  10.684   2.981 -0.6674 -0.3229  0.1859
36681SOL    HW112050   3.574  10.657   2.912  0.4126 -0.4500 -0.7525
36681SOL    HW212051   3.719  10.644   2.956 -0.3708 -0.8816  1.9011
36682SOL     OW12052   9.821   7.906   9.931  0.1985  0.2805  0.1699
36682SOL    HW112053   9.820   7.834   9.994 -1.8321  1.4645  1.6084
36682SOL    HW212054   9.913   7.918   9.909  0.7929 -1.2239  1.6807
36683SOL     OW12055   5.365   1.136   9.512  0.2127  0.2581  0.4650
36683SOL    HW112056   5.353   1.145   9.417 -0.7474  0.5665  0.6076
36683SOL    HW212057   5.321   1.054   9.534 -0.2540  0.5794  0.7524
36684SOL     OW12058   4.302   4.697   6.014 -0.5056  0.0020 -0.1094
36684SOL    HW112059   4.308   4.624   6.076 -1.2150  0.5669  0.6480
36684SOL    HW212060   4.392   4.730   6.007 -0.2362 -0.7379 -0.2111
36685SOL     OW12061   7.967  10.695   9.242 -0.3383 -0.1244 -0.2004
36685SOL    HW112062   7.894  10.757   9.231 -1.0130 -0.6349  1.1132
36685SOL    HW212063   7.929  10.610   9.221  0.0497 -0.3246 -0.0875
36686SOL     OW12064   9.540   7.383   7.394  0.0190 -0.2855 -0.1579
36686SOL    HW112065   9.478   7.319   7.428  0.2418 -0.9670 -1.0095
36686SOL    HW212066   9.608   7.331   7.353 -0.7678  0.4856 -2.6076
36687SOL     OW12067   0.799  10.019   4.671 -0.4045  0.7672  0.1161
36687SOL    HW112068   0.763  10.084   4.731  0.5846 -0.3340  1.9896
36687SOL    HW212069   0.891  10.012   4.696 -0.0961 -0.1506 -1.1712
36688SOL     OW12070   0.301   7.516   4.777  0.2445 -0.0801 -0.6539
36688SOL    HW112071   0.220   7.489   4.734 -0.8212  1.7521  0.1073
36688SOL    HW212072   0.311   7.609   4.753  1.8921 -0.1467 -0.3609
36689SOL     OW12073   2.439   7.755   8.701  0.0278 -0.2213  0.0505
36689SOL    HW112074   2.379   7.788   8.634  0.7035  1.0887  0.0573
36689SOL    HW212075   2.501   7.827   8.716  3.2397 -2.3101 -1.8324
36690SOL     OW12076   5.733   3.569   4.025 -0.8510  0.0407 -0.2278
36690SOL    HW112077   5.671   3.510   4.067 -0.1629 -0.1309  0.5671
36690SOL    HW212078   5.806   3.576   4.087 -1.4473  2.7171  0.3244
36691SOL     OW12079  10.344   1.232  10.271 -0.2436  0.2745  0.0316
36691SOL    HW112080  10.281   1.173  10.230  0.9405 -1.4044  0.5334
36691SOL    HW212081  10.336   1.314  10.222 -1.0830 -0.6650 -1.4742
36692SOL     OW12082   4.385   0.787   2.358 -0.0377 -0.3613  1.0695
36692SOL    HW112083   4.350   0.736   2.431  0.0655 -1.4407  0.4014
36692SOL    HW212084   4.479   0.787   2.372  0.2250 -2.5551 -0.2238
36693SOL     OW12085   0.966   5.490   8.597  0.1236  0.1015  0.1278
36693SOL    HW112086   0.966   5.404   8.639 -0.1146 -0.4046 -0.8696
36693SOL    HW212087   0.957   5.471   8.504 -1.8535  1.2712  0.0181
36694SOL     OW12088   4.296   1.989  10.137 -0.5162  0.1589 -0.6249
36694SOL    HW112089   4.268   2.068  10.182 -0.0383  0.8610 -1.5321
36694SOL    HW212090   4.390   1.983  10.157 -0.3921  0.2471 -1.1829
36695SOL     OW12091   6.916   6.212  10.405 -0.5099 -0.1360  0.0644
36695SOL    HW112092   6.880   6.300  10.392  0.8676  0.1844 -2.2336
36695SOL    HW212093   7.000   6.214  10.358 -0.9095 -2.9782 -0.9535
36696SOL     OW12094   6.421   1.558   8.569 -0.3296 -0.9708  0.0797
36696SOL    HW112095   6.395   1.482   8.516 -0.1131 -0.8444 -0.2114
36696SOL    HW212096   6.458   1.619   8.505 -1.5060 -0.1607  0.1433
36697SOL     OW12097   1.573   2.032  10.379  0.1558 -0.0033  0.0754
36697SOL    HW112098   1.495   1.983  10.355 -0.1981  0.6569 -0.1524
36697SOL    HW212099   1.548   2.124  10.368 -0.1148  0.3845  3.1760
36698SOL     OW12100   0.056  10.063  10.294 -0.2765 -0.4895 -0.2255
36698SOL    HW112101   0.001  10.096  10.222  0.1677 -1.6520 -1.1305
36698SOL    HW212102   0.138  10.111  10.284 -0.7363  0.4882  0.4896
36699SOL     OW12103   9.250   1.938   0.701  0.1332  0.2773  0.0537
36699SOL    HW112104   9.328   1.894   0.735 -0.7581  0.3370  2.3873
36699SOL    HW212105   9.187   1.867   0.686 -1.0568  0.4963  3.1410
36700SOL     OW12106   5.896   0.484   8.550  0.4424  0.1831 -0.2930
36700SOL    HW112107   5.968   0.534   8.589  0.2014  0.6950 -0.4965
36700SOL    HW212108   5.817   0.518   8.592  0.4074 -1.4709  1.1050
36701SOL     OW12109   8.559   1.212   3.365  0.1996  0.2786 -0.4198
36701SOL    HW112110   8.526   1.297   3.336 -0.6426 -0.3057 -1.2017
36701SOL    HW212111   8.492   1.178   3.424  0.7103  0.3134  0.1910
36702SOL     OW12112   6.491   1.372   9.597 -0.0662 -0.4489  0.3580
36702SOL    HW112113   6.464   1.446   9.543  3.1360  0.0302 -0.8474
36702SOL    HW212114   6.513   1.411   9.682  0.1915 -0.2280  0.1935
36703SOL     OW12115   2.630   2.720   7.238  0.0029 -1.2782  0.5768
36703SOL    HW112116   2.587   2.658   7.178 -3.6886  0.5371  1.0529
36703SOL    HW212117   2.658   2.793   7.182 -0.6638 -0.9506  0.6621
36704SOL     OW12118   0.053   4.051   3.652 -0.0438 -0.8401 -0.2544
36704SOL    HW112119  -0.043   4.055   3.656 -0.0649 -0.3200 -1.0633
36704SOL    HW212120   0.083   4.121   3.710 -0.1700 -0.4251 -0.6851
36705SOL     OW12121   0.686   8.570   1.196  0.0814  0.1984 -0.6446
36705SOL    HW112122   0.665   8.485   1.233  0.1622 -0.5899 -2.3257
36705SOL    HW212123   0.705   8.625   1.272 -0.4957 -1.1202  0.4999
36706SOL     OW12124   1.170   3.905   3.840  0.3882 -0.0261  0.4466
36706SOL    HW112125   1.164   3.940   3.751  0.5764  1.6886  1.0660
36706SOL    HW212126   1.154   3.811   3.830 -1.9917  0.4619 -1.1118
36707SOL     OW12127   1.092   6.274   9.661 -0.5924  0.0749 -0.0734
36707SOL    HW112128   1.002   6.304   9.659 -1.1671 -1.2491  2.1671
36707SOL    HW212129   1.131   6.318   9.737  0.1755 -0.5345 -0.0965
36708SOL     OW12130   0.632   9.816   3.528 -0.3194  0.0544  0.2650
36708SOL    HW112131   0.647   9.890   3.588  0.8169 -0.0731  0.1681
36708SOL    HW212132   0.716   9.805   3.483 -0.7645 -0.7024 -0.3987
36709SOL     OW12133  10.224   2.685   3.673  0.3519  0.6292 -0.5572
36709SOL    HW112134  10.222   2.642   3.587 -0.2827 -1.6359  0.5108
36709SOL    HW212135  10.260   2.619   3.732 -0.0580  1.8203  1.0856
36710SOL     OW12136   5.490   3.325   4.841  0.0198  0.0585 -0.2456
36710SOL    HW112137   5.562   3.285   4.792 -0.5233  0.8592 -1.7679
36710SOL    HW212138   5.470   3.262   4.910  2.2940 -0.0983  0.3549
36711SOL     OW12139   7.024   2.908  10.044 -0.6574  0.0263  0.3329
36711SOL    HW112140   6.941   2.873  10.076 -0.7469 -0.3813 -0.3295
36711SOL    HW212141   7.057   2.961  10.117  0.0587 -2.3650  1.8735
36712SOL     OW12142   2.417   3.568   3.407  0.2516 -0.0206 -0.7848
36712SOL    HW112143   2.420   3.617   3.489 -1.0454  0.0928 -0.7821
36712SOL    HW212144   2.409   3.476   3.435 -1.6010  0.1184 -0.7396
36713SOL     OW12145   4.583   9.126   7.882  0.3340 -0.2916  0.3673
36713SOL    HW112146   4.665   9.107   7.838  0.4570 -0.9677  0.8815
36713SOL    HW212147   4.549   9.204   7.837  1.0099 -0.2982 -0.1615
36714SOL     OW12148   8.569   6.636   1.887 -0.1885  0.0960  0.2410
36714SOL    HW112149   8.541   6.583   1.961 -0.0790 -0.8495 -0.3807
36714SOL    HW212150   8.505   6.618   1.819  1.2931 -1.3139 -0.8647
36715SOL     OW12151   7.290   6.241   7.264  0.3718 -0.9495 -0.0044
36715SOL    HW112152   7.244   6.315   7.302  0.7669 -1.0037  0.5843
36715SOL    HW212153   7.382   6.268   7.261  0.0848  0.1876 -3.5154
36716SOL     OW12154   7.678   7.252   3.979 -0.4695  0.0842  0.4293
36716SOL    HW112155   7.710   7.172   3.938  0.8592  0.3941  0.8406
36716SOL    HW212156   7.633   7.299   3.907  0.4304 -0.1257 -0.2843
36717SOL     OW12157  10.668  10.163   5.065 -0.0155  0.2132 -0.2010
36717SOL    HW112158  10.588  10.117   5.091  1.2744 -1.4868  0.9586
36717SOL    HW212159  10.737  10.097   5.071  1.5555  1.7280 -0.7879
36718SOL     OW12160   1.226   2.647  10.028  0.0403  0.2349  0.1331
36718SOL    HW112161   1.237   2.685  10.115 -1.8534  0.0507  0.5137
36718SOL    HW212162   1.137   2.610  10.030  1.4728 -3.7307 -0.3924
36719SOL     OW12163   1.598   1.361   4.016  0.7540  0.8386 -0.4292
36719SOL    HW112164   1.614   1.370   3.922 -0.2105  1.2967 -0.5616
36719SOL    HW212165   1.607   1.268   4.033  1.0555  0.7648 -0.9474
36720SOL     OW12166   1.731  10.110   4.301  0.1695  0.0462  0.1833
36720SOL    HW112167   1.656  10.138   4.249 -0.8003 -0.5761  1.1942
36720SOL    HW212168   1.773  10.191   4.331 -0.8314  0.4198  0.6139
36721SOL     OW12169   8.673   1.384   4.945  0.3803  0.7098  0.1405
36721SOL    HW112170   8.761   1.360   4.916 -0.5738 -1.1664 -1.4596
36721SOL    HW212171   8.631   1.418   4.865 -0.6938  0.4642  0.5868
36722SOL     OW12172   1.011   6.640   1.617 -0.4757  0.1660 -0.0417
36722SOL    HW112173   0.962   6.565   1.582 -1.1677  0.5666  0.0382
36722SOL    HW212174   0.963   6.716   1.585  0.9599  0.6314 -1.2020
36723SOL     OW12175   3.860   6.416  11.098 -0.3643 -0.0971  0.1910
36723SOL    HW112176   3.862   6.334  11.148  1.2021 -0.1899  0.0354
36723SOL    HW212177   3.907   6.479  11.154  3.4939 -0.7578 -1.9621
36724SOL     OW12178   4.932   0.312   4.630 -0.0691 -0.2352  0.1617
36724SOL    HW112179   4.849   0.339   4.669 -0.4791 -0.7923 -0.3059
36724SOL    HW212180   4.995   0.378   4.659 -0.6200  0.0560  0.7239
36725SOL     OW12181   4.060   5.935   1.410 -0.1384 -0.4341  0.2808
36725SOL    HW112182   4.066   5.844   1.381  0.3348 -0.6126  0.9343
36725SOL    HW212183   4.057   5.930   1.505 -0.9063  0.1948  0.3000
36726SOL     OW12184   3.611  11.098   9.229 -0.3953  0.3976  0.2477
36726SOL    HW112185   3.558  11.097   9.308 -1.5396  1.3260 -0.4790
36726SOL    HW212186   3.701  11.088   9.260 -0.8913 -0.1476  1.5756
36727SOL     OW12187   6.005   7.758   5.824 -0.0994  0.3520  0.4491
36727SOL    HW112188   5.952   7.757   5.745 -1.7776 -1.2460  1.5219
36727SOL    HW212189   6.022   7.851   5.840 -4.2203  1.2173  0.9962
36728SOL     OW12190   8.471   8.265   6.815 -0.0671  0.4013 -1.0185
36728SOL    HW112191   8.537   8.286   6.749  0.4763  0.6778 -0.3954
36728SOL    HW212192   8.387   8.273   6.769  0.2449  1.6720 -1.3901
36729SOL     OW12193   7.832   6.701   3.172 -0.0798 -0.2146  0.4168
36729SOL    HW112194   7.916   6.722   3.132  1.2047 -1.8380  2.0979
36729SOL    HW212195   7.767   6.724   3.105  1.6755  0.9211 -0.9884
36730SOL     OW12196   9.220   0.558   4.688 -0.3094 -0.0700 -0.0457
36730SOL    HW112197   9.294   0.614   4.711 -0.8440  0.8414 -0.5145
36730SOL    HW212198   9.160   0.566   4.762 -0.3069 -0.1766 -0.0308
36731SOL     OW12199   9.893  10.959   0.036  0.1247  0.1780  0.0471
36731SOL    HW112200   9.923  10.909   0.112 -0.2150  0.3005  0.2608
36731SOL    HW212201   9.800  10.937   0.027  0.5163 -1.1430 -1.3437
36732SOL     OW12202   3.556   5.185   3.869  0.5763 -0.4510 -0.6457
36732SOL    HW112203   3.647   5.215   3.865  0.0488  1.1085 -1.9190
36732SOL    HW212204   3.505   5.259   3.836 -1.2411 -1.0017  0.7820
36733SOL     OW12205   5.094   7.036   1.201  0.0510 -0.6625  0.3401
36733SOL    HW112206   5.162   7.074   1.256 -0.4374 -1.3152  1.4477
36733SOL    HW212207   5.016   7.036   1.257 -0.6706 -0.6016 -0.6446
36734SOL     OW12208   0.602   6.890  10.818  0.0982 -0.4158 -0.0707
36734SOL    HW112209   0.567   6.977  10.835 -0.1884 -0.2152 -1.5942
36734SOL    HW212210   0.669   6.903  10.752  0.0697 -1.3460 -0.3026
36735SOL     OW12211   8.054   8.011   1.464 -0.0612  0.1978 -0.0762
36735SOL    HW112212   7.974   8.032   1.512 -0.4472  0.3464 -0.7664
36735SOL    HW212213   8.067   7.917   1.479 -0.7945  0.0077 -0.5738
36736SOL     OW12214   7.183   0.012   1.878  0.2198  0.0038  0.4863
36736SOL    HW112215   7.267   0.023   1.922  0.4787 -0.3465  0.0821
36736SOL    HW212216   7.143  -0.064   1.921 -0.5950  1.0968  1.7560
36737SOL     OW12217   0.726   1.567   4.520  0.1502  0.0608 -0.5106
36737SOL    HW112218   0.794   1.537   4.580  0.3361 -0.6376 -1.0470
36737SOL    HW212219   0.745   1.521   4.438 -0.2180  0.8319 -1.0396
36738SOL     OW12220   8.971   9.224   2.244  0.2669 -0.6486 -0.3745
36738SOL    HW112221   9.055   9.213   2.201 -0.1170 -1.3298 -0.9835
36738SOL    HW212222   8.986   9.290   2.312  0.8952  0.4256 -1.5238
36739SOL     OW12223  10.227   5.522   1.403  0.2775 -0.5710 -0.0534
36739SOL    HW112224  10.221   5.566   1.319 -0.3364  1.5310  1.0055
36739SOL    HW212225  10.313   5.480   1.403  0.9494  0.7453 -1.1175
36740SOL     OW12226   7.383   4.533   5.982  0.3832 -0.5274  0.2466
36740SOL    HW112227   7.325   4.607   5.963  0.2004 -0.3113  1.5725
36740SOL    HW212228   7.430   4.559   6.061  1.8919 -0.9429 -0.4734
36741SOL     OW12229   0.582   9.911   8.519 -0.4987 -0.2148  0.1735
36741SOL    HW112230   0.501   9.953   8.549 -0.5028  0.8234 -1.1936
36741SOL    HW212231   0.559   9.819   8.506 -1.3409 -0.0104  0.1805
36742SOL     OW12232   2.109   6.614   9.581  0.2014  0.2031  0.3575
36742SOL    HW112233   2.110   6.666   9.500  0.0908 -1.3489 -0.6965
36742SOL    HW212234   2.162   6.664   9.643  0.2416  1.4678 -0.6533
36743SOL     OW12235   1.745   3.948   2.630 -0.2192 -0.1951 -0.5234
36743SOL    HW112236   1.801   4.026   2.627 -1.2927  0.7346  1.5961
36743SOL    HW212237   1.781   3.896   2.702  0.9065 -2.0896 -2.3422
36744SOL     OW12238   8.784   2.435   3.179 -0.4059 -0.4735  0.2171
36744SOL    HW112239   8.880   2.431   3.180 -0.4196 -1.3868 -0.6161
36744SOL    HW212240   8.762   2.456   3.088 -0.9848  0.8780  0.6368
36745SOL     OW12241   8.272   8.328   4.543  0.3406 -0.5379 -0.6950
36745SOL    HW112242   8.249   8.420   4.555 -0.3119 -0.5484 -1.7372
36745SOL    HW212243   8.197   8.279   4.577  1.7867 -0.8406  2.4623
36746SOL     OW12244   8.712   3.368   2.983 -0.1190  0.5972  0.1246
36746SOL    HW112245   8.766   3.319   2.920  0.1417  0.7767  0.2066
36746SOL    HW212246   8.695   3.306   3.053  1.4736  1.0409  0.9696
36747SOL     OW12247   1.390   5.542   8.688 -0.5733 -0.3798 -0.6882
36747SOL    HW112248   1.382   5.448   8.702  0.5658 -0.3624  0.2107
36747SOL    HW212249   1.311   5.579   8.728  0.0584 -0.7905  1.0324
36748SOL     OW12250   6.745  10.205   7.861  0.2002 -0.3605  0.0941
36748SOL    HW112251   6.731  10.295   7.830 -0.0210 -1.0829 -2.0521
36748SOL    HW212252   6.830  10.209   7.906 -0.5917  1.2473  1.5803
36749SOL     OW12253   8.646   0.660   1.445  0.0525 -0.1646 -0.4251
36749SOL    HW112254   8.579   0.650   1.376  0.9499 -0.7029 -1.2447
36749SOL    HW212255   8.720   0.701   1.400  0.0822  0.9512  0.6073
36750SOL     OW12256   5.139   2.319   2.406  0.0680  0.1088  0.2225
36750SOL    HW112257   5.097   2.397   2.371  0.5047  0.6927  0.9698
36750SOL    HW212258   5.077   2.286   2.472  0.0563  0.0426  0.1785
36751SOL     OW12259   8.287   7.362   3.387 -0.0542 -0.0086  0.0146
36751SOL    HW112260   8.231   7.390   3.315 -0.1098  0.1638  0.1246
36751SOL    HW212261   8.228   7.319   3.448  0.4137 -3.0708 -1.4905
36752SOL     OW12262   8.418   2.676   9.771  0.0979  0.5295 -0.2230
36752SOL    HW112263   8.498   2.687   9.720  0.1357 -0.0415 -0.2913
36752SOL    HW212264   8.449   2.663   9.861  0.0585  0.7916 -0.1684
36753SOL     OW12265   5.330   5.780   3.751  0.5119  0.3949  0.1001
36753SOL    HW112266   5.416   5.787   3.710  1.0597  2.3571  1.4149
36753SOL    HW212267   5.318   5.864   3.796 -1.4758 -0.3710  1.1433
36754SOL     OW12268   0.158   2.793   8.906  0.0127  0.1877 -0.7860
36754SOL    HW112269   0.183   2.701   8.918 -0.6070  0.1614  0.3758
36754SOL    HW212270   0.239   2.842   8.920  1.1370 -0.2894 -4.4608
36755SOL     OW12271   7.983   4.626   3.589 -0.1729 -0.1143 -0.1251
36755SOL    HW112272   7.990   4.557   3.655 -1.2472  0.8946  1.1078
36755SOL    HW212273   7.969   4.706   3.640 -0.5689  0.7687 -1.5673
36756SOL     OW12274   2.273  10.339   5.146 -0.3746  0.2443  0.4430
36756SOL    HW112275   2.245  10.430   5.142 -1.1034  0.0456  0.8819
36756SOL    HW212276   2.291  10.323   5.239 -0.3095 -0.0794  0.3755
36757SOL     OW12277   9.489   9.569   0.130  0.1578  0.2144  0.5173
36757SOL    HW112278   9.433   9.492   0.145  0.7649 -0.4640 -0.4841
36757SOL    HW212279   9.472   9.592   0.038  2.2348 -0.6508 -0.1436
36758SOL     OW12280   4.916  10.134   6.457  0.2589  0.3612 -0.3182
36758SOL    HW112281   4.983  10.079   6.496  2.3608  2.3885 -0.8677
36758SOL    HW212282   4.964  10.205   6.414 -2.1768  1.2305 -1.8557
36759SOL     OW12283  10.200   3.827   5.694  0.7537  0.5821  0.1937
36759SOL    HW112284  10.287   3.799   5.668 -0.0426 -2.2789  0.3018
36759SOL    HW212285  10.141   3.764   5.653 -1.4423  3.2550 -1.1016
36760SOL     OW12286   0.260   3.015   7.615  0.0807  0.0995 -0.2345
36760SOL    HW112287   0.314   3.078   7.664  0.3584  0.2455 -0.7278
36760SOL    HW212288   0.170   3.049   7.624 -0.2144 -1.0599  2.0330
36761SOL     OW12289   5.342   9.762  10.068  0.4811  0.0928 -0.0893
36761SOL    HW112290   5.309   9.850  10.051  0.3885  0.1884  0.5298
36761SOL    HW212291   5.431   9.761  10.033  0.9799  0.8722  1.1007
36762SOL     OW12292   5.783   0.395   6.907  0.0604 -0.1475 -0.2804
36762SOL    HW112293   5.815   0.309   6.933 -0.5174 -0.0253  0.8910
36762SOL    HW212294   5.862   0.449   6.901  0.4650 -0.8249 -1.3744
36763SOL     OW12295   7.828   1.947   8.973  0.0339 -0.2330 -0.4683
36763SOL    HW112296   7.868   1.884   8.914  2.7415  1.2821 -0.4076
36763SOL    HW212297   7.827   1.903   9.058 -0.8312 -1.2002 -0.9527
36764SOL     OW12298   1.015   3.748   6.511 -0.1561  0.3795  0.6744
36764SOL    HW112299   1.048   3.791   6.590  0.1383  0.0042  0.7598
36764SOL    HW212300   1.046   3.803   6.439  2.8090 -1.2045  0.5694
36765SOL     OW12301  10.593  10.624   9.614 -0.0482 -0.7681 -0.4395
36765SOL    HW112302  10.512  10.578   9.595 -0.5197  0.1222 -0.5991
36765SOL    HW212303  10.586  10.707   9.567 -0.7008  0.9588  2.4431
36766SOL     OW12304   6.412   1.203   1.156 -0.0991  0.2336 -0.6083
36766SOL    HW112305   6.445   1.204   1.066  0.3592 -0.6763 -0.4610
36766SOL    HW212306   6.317   1.197   1.146  0.0138 -0.9651 -1.0353
36767SOL     OW12307   5.002   4.370   3.433 -0.2116  0.4115  0.2747
36767SOL    HW112308   4.980   4.335   3.346  0.1344  0.0192  0.3405
36767SOL    HW212309   4.939   4.440   3.447  0.3231  1.0984 -0.6867
36768SOL     OW12310   9.844   0.802   7.296  0.6114  0.6672 -0.7026
36768SOL    HW112311   9.878   0.758   7.374  1.2411  0.0937 -1.2897
36768SOL    HW212312   9.803   0.882   7.329 -1.5667 -0.8431  0.5522
36769SOL     OW12313   8.018   0.445   4.643 -0.1855 -0.0222  0.0089
36769SOL    HW112314   7.995   0.538   4.649 -1.3871 -0.3872  1.8344
36769SOL    HW212315   8.030   0.430   4.549 -0.7134  1.7984 -0.3977
36770SOL     OW12316   6.422  10.803  10.733  0.6847  0.1110 -0.3505
36770SOL    HW112317   6.396  10.779  10.644 -0.8912 -2.0184  0.5879
36770SOL    HW212318   6.345  10.846  10.770  0.3199 -1.4231  0.7800
36771SOL     OW12319   0.161  11.005   9.849 -0.3565  0.1202  0.5464
36771SOL    HW112320   0.232  11.062   9.819 -0.1258 -0.3240  0.2363
36771SOL    HW212321   0.126  11.049   9.926 -1.3340  1.6019 -0.6676
36772SOL     OW12322   0.705   2.344   6.605  0.1628 -0.4144 -0.4564
36772SOL    HW112323   0.697   2.361   6.511 -1.7997  0.8968 -0.0909
36772SOL    HW212324   0.647   2.407   6.647 -0.9708 -2.5705  1.4960
36773SOL     OW12325   9.438  10.166   8.203 -0.0861 -0.2991  0.1189
36773SOL    HW112326   9.411  10.151   8.112  0.3478 -0.7315  0.0575
36773SOL    HW212327   9.494  10.243   8.199  0.5555 -0.7662 -0.1041
36774SOL     OW12328   0.519   4.434  10.943 -0.9556  0.3605  0.8784
36774SOL    HW112329   0.563   4.481  10.872 -1.4005  0.4806  0.6806
36774SOL    HW212330   0.585   4.428  11.012  0.0118 -1.1083 -0.1152
36775SOL     OW12331   6.414   5.680   6.306  0.9160  0.3343 -0.1831
36775SOL    HW112332   6.335   5.662   6.253  0.4343  0.6649  0.4136
36775SOL    HW212333   6.380   5.697   6.394  1.6470  0.7001  0.0298
36776SOL     OW12334   6.780   7.030   2.983  0.4388 -0.3163  0.4380
36776SOL    HW112335   6.862   7.050   3.029 -0.6683 -2.0404  3.4074
36776SOL    HW212336   6.725   7.106   3.000  1.0132  0.3735 -0.6646
36777SOL     OW12337   7.149  10.151   7.570  0.0372 -0.0044 -0.0618
36777SOL    HW112338   7.197  10.103   7.503 -0.2802 -1.6632  0.8584
36777SOL    HW212339   7.068  10.102   7.582 -0.0490  0.4333  1.3179
36778SOL     OW12340   6.702   3.740   8.561  0.0273 -0.4543 -0.1795
36778SOL    HW112341   6.674   3.656   8.599 -0.4183  0.4707  1.6440
36778SOL    HW212342   6.774   3.769   8.616  1.2896 -0.3651 -1.7860
36779SOL     OW12343   3.656   9.437   9.279  0.3822 -0.6603  0.0678
36779SOL    HW112344   3.608   9.354   9.284  1.1678 -1.0556  1.8397
36779SOL    HW212345   3.743   9.416   9.314  1.1772  0.5301 -1.0952
36780SOL     OW12346   1.045   3.208   4.333 -0.1828  0.4150 -0.2627
36780SOL    HW112347   1.109   3.251   4.390  2.4008  0.5153 -2.9591
36780SOL    HW212348   1.077   3.119   4.324 -0.9103  0.2174 -1.0056
36781SOL     OW12349   3.134  10.737   8.896 -0.3235 -0.6838  0.1296
36781SOL    HW112350   3.215  10.692   8.920  0.3863  1.1719  1.4402
36781SOL    HW212351   3.088  10.748   8.979 -1.1719 -0.3050 -0.3860
36782SOL     OW12352  10.010   8.839   0.818 -0.3370 -0.1126  0.3904
36782SOL    HW112353  10.002   8.750   0.853  0.8712 -0.1697  0.5374
36782SOL    HW212354  10.060   8.830   0.737 -1.8461  0.2140 -0.6261
36783SOL     OW12355   0.961   4.800   3.800 -0.0644 -0.2386 -0.4007
36783SOL    HW112356   0.993   4.884   3.832 -1.8118 -0.4653  2.2615
36783SOL    HW212357   0.866   4.811   3.796 -0.3668 -2.1783  0.4077
36784SOL     OW12358   9.933   7.201   3.635 -1.0998 -0.0847 -0.0112
36784SOL    HW112359  10.008   7.260   3.622 -2.3237  1.5289  0.0000
36784SOL    HW212360   9.941   7.173   3.726  0.7326 -1.7666 -0.6286
36785SOL     OW12361   7.388   4.893   3.026  0.2034 -0.5240  0.1610
36785SOL    HW112362   7.405   4.798   3.023  1.7985 -0.2550 -1.5117
36785SOL    HW212363   7.472   4.931   3.054 -0.4225  0.4078  0.8240
36786SOL     OW12364   6.018   5.310   2.511 -0.8966 -0.4736 -0.4666
36786SOL    HW112365   6.074   5.259   2.570 -0.7654 -0.0445 -0.2191
36786SOL    HW212366   6.028   5.400   2.540 -3.5539 -0.6071  1.1156
36787SOL     OW12367   6.366  10.786   9.771 -0.7343 -0.1578 -0.0544
36787SOL    HW112368   6.397  10.877   9.768  1.2017 -0.7972 -1.9182
36787SOL    HW212369   6.429  10.741   9.827 -0.7990 -0.6299 -0.3507
36788SOL     OW12370   7.130   9.069   4.579 -0.5254  0.0153 -0.0808
36788SOL    HW112371   7.074   9.059   4.655 -0.7491 -0.8089 -0.3387
36788SOL    HW212372   7.084   9.130   4.522 -0.8426 -0.1446  0.0038
36789SOL     OW12373   0.632  10.777   6.232 -0.1950 -0.1548 -0.0276
36789SOL    HW112374   0.557  10.753   6.287  0.1396 -2.6961 -0.5847
36789SOL    HW212375   0.594  10.795   6.146 -0.3341  0.1987  0.1076
36790SOL     OW12376   3.373   1.221   1.110 -0.1671 -0.3095  0.2054
36790SOL    HW112377   3.394   1.208   1.018  0.1005  1.8333 -0.0915
36790SOL    HW212378   3.325   1.143   1.135  1.5801 -1.9104 -1.1661
36791SOL     OW12379   3.571   1.117   3.454  0.0658 -0.6179  0.2397
36791SOL    HW112380   3.557   1.120   3.360  0.4457 -0.9611  0.1734
36791SOL    HW212381   3.568   1.024   3.477  2.5434 -0.7822  0.1625
36792SOL     OW12382  11.045   4.048   6.994  0.0826 -0.0974  0.3978
36792SOL    HW112383  11.023   4.141   6.990  1.4059  0.2247  0.0331
36792SOL    HW212384  11.075   4.035   7.084 -0.7581 -0.3381  0.6488
36793SOL     OW12385  10.120   3.112   2.749  0.4253  0.1147 -0.1821
36793SOL    HW112386  10.047   3.054   2.728  0.4444  0.5366 -1.5463
36793SOL    HW212387  10.106   3.188   2.691  1.4205  0.6180  0.2285
36794SOL     OW12388   6.879   4.593   6.281 -0.1039 -0.3943 -0.5715
36794SOL    HW112389   6.915   4.601   6.192 -0.0035  1.1602 -0.4235
36794SOL    HW212390   6.806   4.656   6.282  0.9378  0.8561  0.9242
36795SOL     OW12391   9.074   0.310   7.001  0.0327 -0.0432  0.5558
36795SOL    HW112392   8.991   0.352   6.979  1.0759  3.6422  2.7654
36795SOL    HW212393   9.054   0.257   7.078 -0.5733 -0.6024  0.0251
36796SOL     OW12394   3.449   1.775  10.882 -0.0139  0.4651  0.0421
36796SOL    HW112395   3.438   1.767  10.787  1.8191 -0.0437 -0.1805
36796SOL    HW212396   3.500   1.856  10.894  0.7476 -0.0585  0.4708
36797SOL     OW12397   0.197   2.969   5.469 -0.1968 -0.6891 -0.0861
36797SOL    HW112398   0.276   2.959   5.522  1.3478 -0.6636 -2.2764
36797SOL    HW212399   0.125   2.948   5.529  1.3813  0.1826  2.2223
36798SOL     OW12400   4.381   7.580  10.635  0.0691 -0.3517 -0.5628
36798SOL    HW112401   4.429   7.497  10.642  0.2941 -0.0840  2.4554
36798SOL    HW212402   4.449   7.647  10.643 -0.3508  0.0767 -0.5987
36799SOL     OW12403   2.232   9.618   0.115  0.2898 -0.4351  0.3986
36799SOL    HW112404   2.141   9.594   0.096  0.7047 -1.7632 -0.0743
36799SOL    HW212405   2.277   9.534   0.122  1.4883  0.2096  0.6107
36800SOL     OW12406   8.574   5.647   5.448  0.1734 -0.2165  0.3835
36800SOL    HW112407   8.604   5.570   5.400 -1.1536 -0.4552 -0.1191
36800SOL    HW212408   8.589   5.626   5.540 -0.7101 -1.3352  0.2946
36801SOL     OW12409   9.744   7.955   4.407 -0.5269 -0.5076  0.2143
36801SOL    HW112410   9.780   7.869   4.430  0.0157 -0.2985  0.1482
36801SOL    HW212411   9.804   7.989   4.341  0.4059  0.7800  1.6603
36802SOL     OW12412   3.810   8.695   1.283 -0.1319  0.3715  0.3402
36802SOL    HW112413   3.720   8.679   1.253 -0.3274  0.1695  1.0104
36802SOL    HW212414   3.819   8.639   1.361  0.0700  1.5093  1.1630
36803SOL     OW12415  10.559   7.658   6.832 -1.0328  0.1595  0.7347
36803SOL    HW112416  10.526   7.602   6.762  1.0299 -0.1135 -0.1118
36803SOL    HW212417  10.490   7.723   6.846 -2.7569 -1.5462  0.5498
36804SOL     OW12418   1.319   8.012   4.222 -0.0025 -0.1867  0.3401
36804SOL    HW112419   1.404   7.971   4.204 -0.0833  0.3830 -1.6095
36804SOL    HW212420   1.255   7.942   4.208  0.0777 -0.3435  0.7487
36805SOL     OW12421   3.040   5.280   1.459 -0.1155 -0.5867  0.2177
36805SOL    HW112422   2.947   5.299   1.445  0.0803 -0.1920 -0.5812
36805SOL    HW212423   3.067   5.230   1.382  0.2329 -1.0820  0.6563
36806SOL     OW12424   1.171   3.864  10.203 -0.2084 -0.2022  0.7629
36806SOL    HW112425   1.098   3.924  10.222 -0.6306 -0.1986 -0.7299
36806SOL    HW212426   1.183   3.815  10.284 -1.1063  0.6143  1.4142
36807SOL     OW12427   8.560   5.950   1.236 -0.7126 -0.6691 -0.0991
36807SOL    HW112428   8.532   5.860   1.250  0.7336 -1.1539 -0.1434
36807SOL    HW212429   8.616   5.946   1.159  1.1208 -0.1341  1.1410
36808SOL     OW12430   4.577   1.175   0.367  0.5898  0.3644 -0.1003
36808SOL    HW112431   4.540   1.157   0.281  1.0786 -2.1084  0.1176
36808SOL    HW212432   4.665   1.209   0.349  1.1193 -1.1958 -0.6290
36809SOL     OW12433   7.342   1.173   6.273  0.3268  0.1961 -0.1092
36809SOL    HW112434   7.264   1.139   6.230  0.5558 -0.0618 -0.3248
36809SOL    HW212435   7.326   1.158   6.366  0.8609 -1.4696 -0.2529
36810SOL     OW12436   4.958  10.866   5.971  0.0450  0.6262  0.3466
36810SOL    HW112437   4.878  10.907   6.005 -0.2386  0.8092 -0.5084
36810SOL    HW212438   4.927  10.799   5.911  0.5321 -0.0529  0.8414
36811SOL     OW12439   5.200   3.334   4.808 -0.0245  0.6898  0.1759
36811SOL    HW112440   5.294   3.342   4.790  0.0927 -2.1647 -1.0793
36811SOL    HW212441   5.196   3.288   4.892 -0.1573 -1.4679 -0.9422
36812SOL     OW12442   1.395   9.911   0.203 -0.0874  0.5716  0.1485
36812SOL    HW112443   1.435   9.961   0.132 -1.0925  2.0359  0.5791
36812SOL    HW212444   1.459   9.842   0.222  1.2114  1.5092 -0.6545
36813SOL     OW12445   4.266   7.527   8.155  0.6234 -0.2778  0.1599
36813SOL    HW112446   4.222   7.443   8.164 -0.7433  0.4630  0.5908
36813SOL    HW212447   4.251   7.572   8.238  0.6545  0.7104 -0.3534
36814SOL     OW12448   0.757   8.980  10.307 -0.1795  0.0336  0.5484
36814SOL    HW112449   0.727   9.062  10.346 -2.2761  0.0726 -0.9601
36814SOL    HW212450   0.700   8.913  10.346  0.8004 -0.5714  0.9736
36815SOL     OW12451   9.368   6.429   0.419  0.2609  0.0964  0.3628
36815SOL    HW112452   9.412   6.356   0.374 -0.6344  0.0619 -0.4872
36815SOL    HW212453   9.386   6.505   0.363  0.1496  0.2953  0.5972
36816SOL     OW12454   1.810   6.333   4.754 -0.4648  0.1709 -0.4528
36816SOL    HW112455   1.871   6.406   4.766 -0.1844 -0.0068 -0.7850
36816SOL    HW212456   1.740   6.350   4.816 -0.4530  0.7821 -0.6034
36817SOL     OW12457   7.557  10.087   5.098  0.1292  0.2336 -0.1404
36817SOL    HW112458   7.476  10.042   5.076 -0.1945  0.7322  0.0038
36817SOL    HW212459   7.578  10.138   5.020 -0.5682  1.3483  0.3639
36818SOL     OW12460   2.958   3.980  10.883  0.1822  0.2514 -0.1562
36818SOL    HW112461   2.891   3.958  10.818  0.8652 -0.1685 -0.7315
36818SOL    HW212462   2.969   4.075  10.875  0.6626  0.1369 -1.0707
36819SOL     OW12463  10.605  10.039   8.938 -0.2314 -1.0426 -0.0447
36819SOL    HW112464  10.621  10.061   8.846  1.8209 -0.1464  0.4721
36819SOL    HW212465  10.527  10.089   8.962  0.9987  1.2080 -0.4984
36820SOL     OW12466  10.926   0.413   4.243 -0.0550 -0.2477  0.0380
36820SOL    HW112467  10.977   0.342   4.203  0.9372 -0.0272  0.8422
36820SOL    HW212468  10.912   0.383   4.333 -1.1689 -0.1944 -0.1128
36821SOL     OW12469   0.866   9.015   4.546 -0.1084  0.5693 -0.0092
36821SOL    HW112470   0.942   9.046   4.595  1.3466 -1.3122 -0.9182
36821SOL    HW212471   0.800   8.995   4.612  2.1169 -2.8025  1.4293
36822SOL     OW12472   7.300   8.736   5.911  0.1093 -0.0649 -0.4804
36822SOL    HW112473   7.219   8.785   5.928  0.3040  0.9695 -2.2949
36822SOL    HW212474   7.325   8.701   5.997 -2.0170 -0.0629  0.2017
36823SOL     OW12475   4.198   0.931   1.663 -0.8113 -0.2917 -0.0935
36823SOL    HW112476   4.139   0.855   1.661  0.6076 -1.5146 -3.9847
36823SOL    HW212477   4.143   1.004   1.636 -1.2867 -0.7282 -0.3285
36824SOL     OW12478   5.070   7.815   4.094 -0.6201 -0.0704 -0.2766
36824SOL    HW112479   5.034   7.796   4.181 -1.5959 -1.8190 -1.0277
36824SOL    HW212480   5.001   7.866   4.051 -0.2828  0.4934 -0.1561
36825SOL     OW12481  10.399   9.921   2.657  0.0150  0.2416  0.7521
36825SOL    HW112482  10.303   9.919   2.667 -0.5539  2.2434 -2.6671
36825SOL    HW212483  10.425  10.004   2.695 -0.0826  1.0115 -0.7857
36826SOL     OW12484   5.685   7.470   1.298  0.1377 -0.0792 -0.1065
36826SOL    HW112485   5.660   7.501   1.385 -0.4576  0.6554 -0.5294
36826SOL    HW212486   5.780   7.464   1.301  0.2036  0.9662  0.2696
36827SOL     OW12487   9.899   4.110   0.707 -0.2225  0.2618  0.2349
36827SOL    HW112488   9.910   4.189   0.655 -1.6809 -0.3832 -1.1326
36827SOL    HW212489   9.863   4.046   0.646  1.9843 -1.8656  0.9625
36828SOL     OW12490   4.829  10.391   5.227  0.0449 -0.7843 -0.1564
36828SOL    HW112491   4.738  10.382   5.257 -0.2451  0.8689 -0.4095
36828SOL    HW212492   4.822  10.439   5.144  1.1477 -0.4881 -0.0984
36829SOL     OW12493   9.404   9.718   5.695  0.3113 -0.3972 -0.3541
36829SOL    HW112494   9.476   9.661   5.723  1.4565  1.8798  1.7051
36829SOL    HW212495   9.446   9.793   5.655 -0.9034  0.8873  0.6877
36830SOL     OW12496   7.727   2.001   6.329  0.7247 -0.1760  0.3020
36830SOL    HW112497   7.743   2.093   6.350 -1.8150  0.4167 -0.0415
36830SOL    HW212498   7.789   1.953   6.384  1.5658  1.6886  1.0817
36831SOL     OW12499   4.811   2.605   7.699  0.2611 -0.0164 -0.1301
36831SOL    HW112500   4.806   2.538   7.767 -0.1103  0.0955 -0.0452
36831SOL    HW212501   4.900   2.640   7.705 -0.4440  1.6032  1.8335
36832SOL     OW12502   0.066   9.907   5.638 -0.4855 -0.0661  0.5938
36832SOL    HW112503   0.002   9.945   5.698 -0.5349 -1.3029  1.3615
36832SOL    HW212504   0.150   9.944   5.664 -0.7838  1.1554 -0.0760
36833SOL     OW12505   2.287   4.447   8.795 -0.1995  0.9558  0.2451
36833SOL    HW112506   2.377   4.477   8.779 -0.1070  1.3572  1.3674
36833SOL    HW212507   2.274   4.462   8.889 -1.2214  0.2976  0.2243
36834SOL     OW12508   9.517   3.411   0.467  0.2095 -0.4319  0.4060
36834SOL    HW112509   9.426   3.442   0.464  0.7107  1.0886 -0.4099
36834SOL    HW212510   9.510   3.316   0.475 -1.4957 -0.5732 -1.8688
36835SOL     OW12511   9.400   0.196   1.914 -0.1073 -0.3431  0.2053
36835SOL    HW112512   9.468   0.180   1.980  0.7200 -1.4228 -0.8679
36835SOL    HW212513   9.448   0.205   1.832 -1.0364  2.1072 -0.1385
36836SOL     OW12514   4.207   8.991   2.125 -0.5447  0.1476 -0.6624
36836SOL    HW112515   4.112   8.997   2.118 -0.5819  1.0681  0.3035
36836SOL    HW212516   4.225   9.006   2.217  0.6755  2.4315 -1.1977
36837SOL     OW12517   5.617   3.654   3.012  0.0819  0.4703 -0.3195
36837SOL    HW112518   5.660   3.611   2.938 -0.9100  1.6082 -1.5942
36837SOL    HW212519   5.551   3.591   3.041  0.9488 -0.2765  0.1061
36838SOL     OW12520   9.322   0.454   0.764 -0.1391 -0.0278  0.7985
36838SOL    HW112521   9.306   0.544   0.792 -0.4617 -0.2470  1.3473
36838SOL    HW212522   9.319   0.457   0.669  2.6903  1.0747  0.6509
36839SOL     OW12523   8.158   1.704   5.060  0.3057  0.1047 -0.3209
36839SOL    HW112524   8.162   1.609   5.062 -1.5897  0.0002  0.4697
36839SOL    HW212525   8.228   1.732   5.119 -0.4240 -0.8882  1.0773
36840SOL     OW12526   3.138   5.808   0.262  0.3707  0.2082  0.1167
36840SOL    HW112527   3.147   5.716   0.240 -1.8487  0.2120 -1.0856
36840SOL    HW212528   3.059   5.812   0.317  1.0072  1.2741  0.9868
36841SOL     OW12529   7.456   2.126   2.338  0.1117 -0.0460 -0.0217
36841SOL    HW112530   7.549   2.133   2.359 -0.3219 -0.4430  2.3626
36841SOL    HW212531   7.423   2.216   2.341  0.4207  0.0989 -0.9158
36842SOL     OW12532   3.567   2.749   4.266 -0.0167  0.0270  0.2316
36842SOL    HW112533   3.582   2.814   4.335 -2.1509  1.1286 -0.2379
36842SOL    HW212534   3.524   2.676   4.311  0.9717 -0.4098  0.4902
36843SOL     OW12535   0.775   6.811   0.759  0.0494  0.5279  0.6662
36843SOL    HW112536   0.856   6.796   0.711  0.2416  1.3383  0.7328
36843SOL    HW212537   0.708   6.766   0.707  0.5847 -0.4173  0.7813
36844SOL     OW12538   9.345   9.681   5.162 -0.1905  0.3842  0.4929
36844SOL    HW112539   9.392   9.748   5.112  0.9782  0.1960  1.2944
36844SOL    HW212540   9.412   9.616   5.184 -1.2349 -0.9166 -0.0137
36845SOL     OW12541  10.090   4.727   7.186  0.8168  0.2192 -0.0923
36845SOL    HW112542  10.085   4.822   7.183 -2.6499  0.2075  0.6630
36845SOL    HW212543  10.019   4.701   7.246  1.2173 -2.8481 -0.7685
36846SOL     OW12544   5.291   2.829   1.825  0.1042 -0.0150  0.0313
36846SOL    HW112545   5.267   2.829   1.917 -1.4229 -0.9838 -0.3295
36846SOL    HW212546   5.387   2.834   1.825  0.3181 -2.3649  1.7655
36847SOL     OW12547   4.102   8.241   1.155  0.1751 -0.6543 -0.1608
36847SOL    HW112548   4.100   8.148   1.178 -1.4832 -0.6589 -0.1688
36847SOL    HW212549   4.025   8.278   1.198  0.3663  0.5582 -0.8087
36848SOL     OW12550   1.260   0.693   1.680  0.2588 -0.1685  0.3096
36848SOL    HW112551   1.248   0.702   1.775  0.2640 -1.1346  0.4136
36848SOL    HW212552   1.315   0.615   1.670 -0.7414 -0.7932 -0.5241
36849SOL     OW12553   2.343   1.632   0.146  0.5909 -0.5555  0.0294
36849SOL    HW112554   2.363   1.645   0.053  0.6657  1.0224  0.2350
36849SOL    HW212555   2.421   1.665   0.192  0.5216 -1.2505  0.6657
36850SOL     OW12556   2.524   3.536   3.059 -0.2074 -0.4228  0.0942
36850SOL    HW112557   2.465   3.582   3.119 -0.0490 -0.3845  0.2203
36850SOL    HW212558   2.505   3.443   3.074 -1.3967 -0.3860 -1.0320
36851SOL     OW12559   3.974   0.315   5.243 -0.5076 -0.1506 -0.5752
36851SOL    HW112560   3.926   0.252   5.296 -1.7750  0.5604 -0.8276
36851SOL    HW212561   4.066   0.300   5.265 -0.8541 -1.3583  0.1445
36852SOL     OW12562  10.587   5.569   5.133  0.2089  0.5479 -0.5176
36852SOL    HW112563  10.522   5.510   5.169  0.2944 -0.3988 -1.8441
36852SOL    HW212564  10.599   5.636   5.201 -3.0938  1.5354 -0.7624
36853SOL     OW12565   1.649   6.445   3.472  0.2026  0.4400  0.5121
36853SOL    HW112566   1.623   6.354   3.460  0.4230  0.5396 -0.8345
36853SOL    HW212567   1.581   6.482   3.529 -1.0521 -0.0316 -0.6272
36854SOL     OW12568  10.830   0.087   8.388 -0.6601  0.0446  0.2785
36854SOL    HW112569  10.764   0.024   8.416 -0.1960  0.6934  3.0724
36854SOL    HW212570  10.913   0.041   8.399 -0.4512  0.3881  0.1483
36855SOL     OW12571   7.598   8.437   9.080 -0.0912 -0.1774 -0.0216
36855SOL    HW112572   7.616   8.399   8.994  0.0611 -0.4825  0.1429
36855SOL    HW212573   7.542   8.513   9.062 -0.3701 -0.4603 -0.3605
36856SOL     OW12574   4.567   6.991   4.385  0.1568 -0.0454  0.5486
36856SOL    HW112575   4.593   7.003   4.476 -0.7315 -0.3082  0.8533
36856SOL    HW212576   4.552   6.897   4.376 -0.1654  0.0304  0.2535
36857SOL     OW12577  10.064   2.948   7.792  0.3506 -0.3314 -0.0613
36857SOL    HW112578  10.076   2.879   7.858 -0.7397 -1.5516 -1.0771
36857SOL    HW212579   9.977   2.983   7.809 -0.1068 -0.9306 -1.0463
36858SOL     OW12580   0.770   1.450   2.611 -0.0181 -0.0316  0.2248
36858SOL    HW112581   0.743   1.521   2.552  2.5672  0.7186 -0.2129
36858SOL    HW212582   0.760   1.370   2.559 -0.7585  0.2672 -0.1048
36859SOL     OW12583   5.391   8.886   3.559  0.0907 -0.4710 -0.6597
36859SOL    HW112584   5.309   8.927   3.533  0.5204  0.1381 -1.0860
36859SOL    HW212585   5.419   8.935   3.636 -0.3132 -1.1584 -0.0662
36860SOL     OW12586   1.811  10.464  11.045  0.5053 -0.0698  0.2520
36860SOL    HW112587   1.807  10.533  11.111  1.8992 -0.3905  0.7149
36860SOL    HW212588   1.771  10.388  11.088 -0.2934  0.2221  0.0354
36861SOL     OW12589   6.961   0.179   4.688  0.1235  0.5194  0.0037
36861SOL    HW112590   6.993   0.240   4.755  0.2464 -0.1921  0.6077
36861SOL    HW212591   7.039   0.154   4.640  0.3633 -0.5293  0.9069
36862SOL     OW12592  11.019   2.574   2.438 -0.8530 -0.2818 -0.5028
36862SOL    HW112593  11.089   2.542   2.495 -2.4711 -3.7121 -0.1533
36862SOL    HW212594  11.004   2.664   2.466  1.7499 -0.2382  1.0390
36863SOL     OW12595   8.710   8.539   3.091 -0.1134  0.7389 -0.1472
36863SOL    HW112596   8.739   8.576   3.174  2.1679  0.4828 -0.7339
36863SOL    HW212597   8.678   8.452   3.112  1.4253  0.2698  0.3756
36864SOL     OW12598   7.915   0.350   0.949  0.3419  0.0994  0.5400
36864SOL    HW112599   7.908   0.445   0.939 -0.5582  0.0065  0.1420
36864SOL    HW212600   7.854   0.330   1.021  0.8267 -0.1376  0.8904
36865SOL     OW12601   1.584   2.685   0.125  0.2666  0.1186  0.1985
36865SOL    HW112602   1.627   2.672   0.040  0.4874 -1.5985  0.5503
36865SOL    HW212603   1.635   2.632   0.186 -0.5561  0.4563  1.2036
36866SOL     OW12604   7.604   8.999   5.696 -0.0913 -0.3703  0.2656
36866SOL    HW112605   7.667   8.926   5.695 -0.4606 -0.7051  0.8518
36866SOL    HW212606   7.614   9.040   5.610  2.1126  0.6150  0.9085
36867SOL     OW12607   8.810   9.470   4.580 -0.0039 -0.0117 -0.4192
36867SOL    HW112608   8.790   9.423   4.499  2.8702  1.6515 -2.2538
36867SOL    HW212609   8.735   9.528   4.594 -0.4715 -0.2117 -1.9741
36868SOL     OW12610   9.421   3.925   6.860 -0.2043  0.0607  0.3661
36868SOL    HW112611   9.451   3.876   6.936  3.2720  1.2963 -0.0438
36868SOL    HW212612   9.425   3.861   6.788  4.4878  0.6179 -0.2092
36869SOL     OW12613   6.278   9.111   8.088 -0.0904 -0.6045  0.0262
36869SOL    HW112614   6.194   9.077   8.057 -0.3157  1.7513 -2.2535
36869SOL    HW212615   6.310   9.164   8.016  4.4368 -3.0238 -0.0643
36870SOL     OW12616   8.186  10.808   5.527  0.6440  0.1049  0.1564
36870SOL    HW112617   8.185  10.857   5.609 -0.1685 -0.1730  0.3195
36870SOL    HW212618   8.102  10.762   5.525  0.7721 -0.1135 -0.6954
36871SOL     OW12619   9.860   5.079   2.188 -0.4062  0.4322 -0.4913
36871SOL    HW112620   9.946   5.067   2.229 -0.7473 -0.8767 -0.1016
36871SOL    HW212621   9.820   5.151   2.236 -0.1541 -0.0255  0.4301
36872SOL     OW12622   9.858   4.481   3.723  0.0644  0.1955 -0.3159
36872SOL    HW112623   9.949   4.483   3.695  0.0799  0.0345 -0.2782
36872SOL    HW212624   9.808   4.505   3.645  0.1485  0.4362 -0.2948
36873SOL     OW12625   0.896   0.109   9.561  0.4932 -0.5460  0.0478
36873SOL    HW112626   0.883   0.042   9.494  0.7423 -0.1422 -0.4105
36873SOL    HW212627   0.911   0.059   9.642  0.0080 -1.0364 -0.1548
36874SOL     OW12628   8.001   8.470   8.662 -0.4423 -0.2599  0.0053
36874SOL    HW112629   8.083   8.440   8.701  0.4246 -0.9433 -2.2252
36874SOL    HW212630   7.948   8.390   8.654 -1.6185  0.2482  1.9091
36875SOL     OW12631   9.148   1.325  10.396  0.0682 -0.4061 -0.4373
36875SOL    HW112632   9.140   1.239  10.353 -0.2938 -0.4035 -0.3778
36875SOL    HW212633   9.066   1.370  10.375  0.5650  0.2153 -1.0875
36876SOL     OW12634   6.622   1.858   1.317 -0.3525  0.1244 -0.4230
36876SOL    HW112635   6.676   1.832   1.242 -1.9489 -3.7063 -0.4950
36876SOL    HW212636   6.537   1.880   1.278 -1.3946 -2.5222  0.1471
36877SOL     OW12637   6.068   9.380   5.232 -0.0927 -0.7548  0.0941
36877SOL    HW112638   6.111   9.350   5.151  0.2728 -1.1003  0.4151
36877SOL    HW212639   6.039   9.469   5.212 -2.7114 -1.8310 -1.4901
36878SOL     OW12640   0.523   2.124   8.336  0.5130 -0.0616 -0.1291
36878SOL    HW112641   0.551   2.094   8.250  2.0184 -1.0125  0.6454
36878SOL    HW212642   0.474   2.051   8.373  3.2550 -1.3274  1.3261
36879SOL     OW12643   1.721   2.581   9.368  0.0581 -0.1253  0.3998
36879SOL    HW112644   1.806   2.614   9.339 -0.1793 -0.6960 -1.0764
36879SOL    HW212645   1.692   2.643   9.435 -0.0343  2.2974 -1.7044
36880SOL     OW12646   8.709   7.311   5.705  0.0700  0.4796 -0.0424
36880SOL    HW112647   8.774   7.311   5.775  0.1545 -1.8218 -0.0355
36880SOL    HW212648   8.748   7.257   5.636 -2.4272 -2.6431  0.6957
36881SOL     OW12649   0.235   1.917   6.448 -0.1189  0.4138  0.2890
36881SOL    HW112650   0.274   1.911   6.535 -0.2257  1.3191  0.4097
36881SOL    HW212651   0.157   1.971   6.459 -1.3110 -1.1703 -0.0056
36882SOL     OW12652   8.333   3.650   4.886 -0.2257 -0.5392 -0.0028
36882SOL    HW112653   8.270   3.653   4.959 -0.0890 -2.4329  0.2331
36882SOL    HW212654   8.285   3.686   4.812 -0.2104  1.9463  1.0587
36883SOL     OW12655   4.696   1.141   7.283  0.2599 -0.3888 -0.0337
36883SOL    HW112656   4.738   1.227   7.279 -1.3115  0.3740 -1.1635
36883SOL    HW212657   4.742   1.095   7.353  0.8202  1.5502  0.9468
36884SOL     OW12658   8.965   2.640   4.029 -0.3365 -0.1900  0.1016
36884SOL    HW112659   8.886   2.649   4.083  0.1969 -2.1199  1.2629
36884SOL    HW212660   8.958   2.553   3.991  1.6290 -0.7234  0.8831
36885SOL     OW12661  10.276   2.292   5.086  0.0585  0.4396 -0.0713
36885SOL    HW112662  10.190   2.251   5.095  0.0420  0.4624 -0.1290
36885SOL    HW212663  10.338   2.220   5.088 -0.1210  0.0271 -3.5571
36886SOL     OW12664   9.004   8.252   8.208  0.0957 -0.4322 -0.5191
36886SOL    HW112665   8.949   8.174   8.217 -0.7734  0.0689 -1.3735
36886SOL    HW212666   9.083   8.220   8.165 -0.9189 -0.6038 -2.3799
36887SOL     OW12667   0.690   0.426   4.699  0.1141  0.0833 -0.0646
36887SOL    HW112668   0.772   0.402   4.655  1.2485  0.8534  1.5215
36887SOL    HW212669   0.657   0.501   4.650 -0.5000 -1.1322 -1.6305
36888SOL     OW12670   5.027   4.601  10.064 -0.0954  0.1221 -0.1896
36888SOL    HW112671   5.078   4.670  10.023 -1.0459  0.4089 -0.9341
36888SOL    HW212672   5.089   4.553  10.119  0.5355  1.6833  0.4924
36889SOL     OW12673   2.468   2.942   5.515  0.8138  0.1272 -0.0836
36889SOL    HW112674   2.501   2.951   5.604  0.3767  0.5209  0.0417
36889SOL    HW212675   2.379   2.977   5.518  0.1189 -1.5240 -0.2692
36890SOL     OW12676  10.514   5.022   6.230 -0.6927  0.1147 -0.3553
36890SOL    HW112677  10.560   5.033   6.313 -0.6875 -1.1500 -0.1839
36890SOL    HW212678  10.567   5.072   6.167  0.3284 -0.4481  0.0392
36891SOL     OW12679  10.058   3.576   3.406 -0.5008  0.3148  0.4110
36891SOL    HW112680  10.143   3.616   3.428  1.3289 -1.9797 -1.8693
36891SOL    HW212681  10.059   3.492   3.450 -1.8803  0.4913  0.8010
36892SOL     OW12682   7.742  10.990   3.024 -0.1586  0.0105  0.1299
36892SOL    HW112683   7.823  10.993   3.075 -0.4603 -1.9674  0.7925
36892SOL    HW212684   7.748  11.065   2.965  0.4442  2.0994  2.6749
36893SOL     OW12685   2.585   1.804   0.190  0.8656 -0.2318  0.3637
36893SOL    HW112686   2.676   1.806   0.159  0.5996  0.0457 -0.4250
36893SOL    HW212687   2.568   1.893   0.222  0.3479  0.2238 -1.0933
36894SOL     OW12688   6.180   4.181   7.326 -0.6859  0.2238 -0.2132
36894SOL    HW112689   6.242   4.109   7.321  0.1801  0.9765 -0.5366
36894SOL    HW212690   6.226   4.256   7.289 -1.5268  0.9793  0.2108
36895SOL     OW12691   7.526  10.426   6.487  0.0828 -0.0470  0.2217
36895SOL    HW112692   7.525  10.501   6.427  0.9218  0.9250  1.3766
36895SOL    HW212693   7.443  10.432   6.534 -0.6395 -0.8923 -0.9063
36896SOL     OW12694   1.203   8.400   9.007 -0.0073 -0.2677 -0.2217
36896SOL    HW112695   1.170   8.469   8.950  1.3989 -0.1305 -0.9156
36896SOL    HW212696   1.293   8.385   8.977 -0.0024 -1.8116  0.4680
36897SOL     OW12697   9.403   1.656   3.404 -0.1736  0.1041 -0.3694
36897SOL    HW112698   9.335   1.591   3.388 -0.3451  0.3227 -0.5503
36897SOL    HW212699   9.427   1.645   3.496 -2.2683  1.7112  0.4428
36898SOL     OW12700   8.818   9.060   8.446 -0.8859  0.3242 -0.6774
36898SOL    HW112701   8.813   9.135   8.505 -0.9761 -0.6233  0.5487
36898SOL    HW212702   8.730   9.052   8.410 -1.9253 -1.4006  2.0309
36899SOL     OW12703   1.877   6.321   5.065  0.3219 -0.0322  0.4118
36899SOL    HW112704   1.920   6.361   4.989  1.7535 -0.9382  0.7009
36899SOL    HW212705   1.783   6.332   5.048  0.6121 -0.0896 -1.4242
36900SOL     OW12706  10.149   1.702   5.382  0.3244  0.2893  0.4339
36900SOL    HW112707  10.151   1.685   5.288 -0.1663  1.5005  0.1852
36900SOL    HW212708  10.062   1.673   5.410  0.6448 -0.5282  0.6282
36901SOL     OW12709   1.129  10.653   8.013  0.3260  0.0713 -0.2115
36901SOL    HW112710   1.204  10.701   7.976  0.5419  0.4189  0.6402
36901SOL    HW212711   1.112  10.583   7.950  1.4058 -0.0461 -0.3988
36902SOL     OW12712   9.157   2.884   5.400 -0.0878 -0.2391  0.6784
36902SOL    HW112713   9.183   2.853   5.314 -2.0751  0.2163 -0.1434
36902SOL    HW212714   9.208   2.832   5.462  2.2902  0.2720 -0.7579
36903SOL     OW12715   1.299   9.995   2.151 -0.7451  0.1515  0.0768
36903SOL    HW112716   1.337   9.913   2.118  1.1151 -0.1390  2.6570
36903SOL    HW212717   1.316  10.058   2.081  2.3067 -0.5822 -0.0032
36904SOL     OW12718   0.011   8.081   2.098  0.0060 -0.1139  0.2768
36904SOL    HW112719  -0.062   8.140   2.078 -0.6126 -0.5716  1.1031
36904SOL    HW212720   0.060   8.125   2.167  0.4738  0.1589 -0.2267
36905SOL     OW12721   7.371   1.959   3.161 -0.4129  0.3386 -0.0605
36905SOL    HW112722   7.311   2.011   3.108 -1.5993 -0.2658  0.6341
36905SOL    HW212723   7.408   1.895   3.100 -2.7057 -1.1601  0.0139
36906SOL     OW12724   2.615   9.924   3.749  0.4301  0.0191  0.1674
36906SOL    HW112725   2.522   9.904   3.741  0.5646  0.1467 -2.9056
36906SOL    HW212726   2.658   9.861   3.690  2.1447  0.8219  0.4939
36907SOL     OW12727   4.438   9.603   2.193  0.0280  0.0252 -0.1962
36907SOL    HW112728   4.460   9.633   2.105  0.5644 -0.9631 -0.4178
36907SOL    HW212729   4.342   9.597   2.192  0.0042  0.3681 -0.5896
36908SOL     OW12730   6.511   4.028   7.982 -0.3468  0.0472 -0.2079
36908SOL    HW112731   6.419   4.006   7.969  0.0902 -0.5035 -3.0018
36908SOL    HW212732   6.510   4.107   8.036 -2.3573 -0.8194  1.1224
36909SOL     OW12733   2.550   3.211   6.248 -0.1841 -0.1997 -0.2219
36909SOL    HW112734   2.614   3.142   6.236 -0.5541 -0.4707 -0.6553
36909SOL    HW212735   2.465   3.168   6.238 -0.4054  0.5993 -2.1435
36910SOL     OW12736   6.252   1.470   0.956  0.2161  0.2700  0.0935
36910SOL    HW112737   6.180   1.507   1.007  0.6319 -0.3166  1.1272
36910SOL    HW212738   6.256   1.378   0.983  2.0060  0.5306  0.8238
36911SOL     OW12739   3.521   7.968   5.511  0.4112  0.1418  0.0047
36911SOL    HW112740   3.511   8.009   5.425  1.0978 -0.1168 -0.2053
36911SOL    HW212741   3.603   8.004   5.546 -0.4922  1.2165  1.1092
36912SOL     OW12742   1.322   9.858   0.475  0.2459 -0.3568  0.3660
36912SOL    HW112743   1.227   9.853   0.478  0.2526 -0.5266  0.3207
36912SOL    HW212744   1.342   9.865   0.382  0.3507 -1.9473  0.2461
36913SOL     OW12745   9.028   9.274   2.846 -0.8180  0.5640  0.0155
36913SOL    HW112746   9.113   9.260   2.805 -1.3142 -0.5173 -0.6672
36913SOL    HW212747   9.045   9.262   2.940 -0.4416 -0.8645 -0.2096
36914SOL     OW12748   7.705   4.090  10.138 -0.4459 -0.0993  0.1565
36914SOL    HW112749   7.702   3.995  10.128 -3.2063 -0.0349 -0.5760
36914SOL    HW212750   7.738   4.104  10.227 -2.1161 -1.8826  1.1432
36915SOL     OW12751   4.180  10.151   5.527  0.4696  0.5809  0.5100
36915SOL    HW112752   4.178  10.063   5.490  0.3496  0.3523  1.0431
36915SOL    HW212753   4.115  10.149   5.598  1.2691  0.7513  1.2669
36916SOL     OW12754   2.617   7.973   4.976 -0.0281 -0.3245 -0.6745
36916SOL    HW112755   2.653   7.991   5.063  1.7495 -0.8265 -1.2626
36916SOL    HW212756   2.612   8.060   4.934 -1.1418 -0.0481 -0.0147
36917SOL     OW12757   9.628   6.991   8.124 -0.8453  0.0505  0.3755
36917SOL    HW112758   9.672   7.075   8.140  1.4434 -1.4454  3.0106
36917SOL    HW212759   9.580   6.974   8.205 -1.0501 -1.2825 -0.0053
36918SOL     OW12760   5.780   9.775   2.105 -0.1418 -0.0994 -0.2451
36918SOL    HW112761   5.820   9.847   2.057  1.1996 -0.1866  0.7015
36918SOL    HW212762   5.723   9.732   2.041 -0.5805  1.4819 -0.9560
36919SOL     OW12763   0.608   1.108   0.709 -0.5092 -0.4608 -0.0297
36919SOL    HW112764   0.609   1.114   0.613  2.8291  0.7859 -0.0408
36919SOL    HW212765   0.628   1.016   0.726 -2.4331 -1.0069 -0.4336
36920SOL     OW12766   2.591   9.263   3.541 -0.4165  0.1700  0.0123
36920SOL    HW112767   2.654   9.226   3.480  0.3314  2.2243 -0.5414
36920SOL    HW212768   2.625   9.240   3.628 -1.1594 -2.2281 -0.2524
36921SOL     OW12769   9.823   2.181  10.695 -0.1815 -0.5820  0.5241
36921SOL    HW112770   9.795   2.252  10.753  1.7612  1.1597 -0.5406
36921SOL    HW212771   9.823   2.219  10.608 -0.6788 -2.4237 -0.3357
36922SOL     OW12772   5.649   7.445   6.013 -0.3360 -0.2440  0.2669
36922SOL    HW112773   5.735   7.424   5.976 -0.9999  0.4085 -1.8207
36922SOL    HW212774   5.668   7.495   6.092  1.1861 -1.5469  0.7864
36923SOL     OW12775   8.235   6.688   6.525 -0.3402 -0.0587  0.1393
36923SOL    HW112776   8.151   6.730   6.542 -0.9001 -1.3010  0.6005
36923SOL    HW212777   8.244   6.625   6.596  0.1352 -1.1651 -0.8708
36924SOL     OW12778   2.399   4.628   4.618  0.0295 -0.2668  0.1211
36924SOL    HW112779   2.409   4.707   4.671  0.1243 -0.7894  0.9001
36924SOL    HW212780   2.489   4.597   4.604  0.0897  0.4616 -1.2915
36925SOL     OW12781   8.242   3.875   6.858 -0.1466 -0.2372 -0.4648
36925SOL    HW112782   8.332   3.845   6.852 -0.0528 -0.2359  0.7209
36925SOL    HW212783   8.230   3.899   6.950 -1.8437 -1.8336 -0.1972
36926SOL     OW12784   0.077   4.723   8.427  0.0449  0.1459  1.0786
36926SOL    HW112785   0.086   4.779   8.349  1.7037 -0.9628  0.4143
36926SOL    HW212786   0.121   4.772   8.496  0.8552  0.0356  0.6665
36927SOL     OW12787   5.654   3.232   2.115 -0.2209 -0.2816 -0.2371
36927SOL    HW112788   5.583   3.179   2.150 -0.0491 -0.5535 -0.2979
36927SOL    HW212789   5.624   3.322   2.127 -0.4574 -0.3868 -0.0155
36928SOL     OW12790   2.632   7.832   4.051  0.5786 -0.0106 -0.5136
36928SOL    HW112791   2.723   7.846   4.026  0.9323 -0.0875  0.6971
36928SOL    HW212792   2.599   7.919   4.073  0.7326 -0.1432  0.2592
36929SOL     OW12793  10.628   2.914   4.389 -0.1769  0.5746 -0.4674
36929SOL    HW112794  10.567   2.863   4.336  0.5818  0.4148 -1.2020
36929SOL    HW212795  10.713   2.875   4.372  0.6152  2.7747 -1.9489
36930SOL     OW12796   3.482   1.940   2.140 -0.6908  0.3472  0.0312
36930SOL    HW112797   3.494   1.881   2.066 -1.3076 -0.2726  0.4058
36930SOL    HW212798   3.565   1.937   2.187 -0.8430 -0.5704  0.2733
36931SOL     OW12799   4.105   9.183   6.274  0.4174  0.1264 -0.2607
36931SOL    HW112800   4.017   9.213   6.252 -0.0082 -1.3321 -0.6546
36931SOL    HW212801   4.154   9.189   6.192  0.7850  1.1639  0.0110
36932SOL     OW12802   8.146  10.569   3.118  0.0511  0.1464  0.0736
36932SOL    HW112803   8.226  10.527   3.089  0.2683  1.1023 -0.7528
36932SOL    HW212804   8.164  10.594   3.209  0.0905 -1.0568  0.4175
36933SOL     OW12805   6.433   5.167   8.592 -0.0091 -0.2791 -0.2443
36933SOL    HW112806   6.446   5.163   8.686 -1.4360  0.7748  0.0227
36933SOL    HW212807   6.441   5.076   8.563  0.6019 -0.5912  0.8580
36934SOL     OW12808   0.986   2.564  10.069  0.0348 -0.1393 -0.0371
36934SOL    HW112809   0.895   2.549  10.043 -0.1829  0.4013  0.3795
36934SOL    HW212810   0.980   2.595  10.160  0.6462 -0.2634  0.0489
36935SOL     OW12811   2.454  10.948   0.324  0.0685 -0.2195  0.0175
36935SOL    HW112812   2.500  10.918   0.245  0.2213  0.4115 -0.1355
36935SOL    HW212813   2.522  10.951   0.391  0.2969  0.8399 -0.2409
36936SOL     OW12814   1.595   9.346   6.773  0.4855 -0.4710  0.2910
36936SOL    HW112815   1.596   9.345   6.677 -2.4143 -0.3987  0.1835
36936SOL    HW212816   1.673   9.397   6.797 -0.4115  2.3560 -2.1692
36937SOL     OW12817   8.075   2.101   8.936  0.0131  0.5128  0.0816
36937SOL    HW112818   7.983   2.080   8.952  0.3894 -1.0322  0.3418
36937SOL    HW212819   8.122   2.055   9.005  1.0111  1.1034 -0.1908
36938SOL     OW12820   8.818   3.300   9.997  0.3376  0.3094  0.0683
36938SOL    HW112821   8.817   3.325   9.905  1.7613  0.9116  0.1883
36938SOL    HW212822   8.898   3.247  10.006 -0.3874 -0.7167  0.7311
36939SOL     OW12823   8.156  10.407   5.945  0.6309  0.0304 -0.1046
36939SOL    HW112824   8.162  10.497   5.976 -2.5746  0.2111  0.3257
36939SOL    HW212825   8.155  10.414   5.850  2.1367  0.2133 -0.1426
36940SOL     OW12826   9.823   3.640   3.565  0.0145  0.3994 -0.1695
36940SOL    HW112827   9.901   3.644   3.509 -0.3271 -1.3475 -0.8588
36940SOL    HW212828   9.829   3.554   3.608 -1.6048  0.1430 -0.3998
36941SOL     OW12829   2.002   9.411   8.972 -0.0509  0.5036  0.3815
36941SOL    HW112830   1.975   9.329   8.930  1.1656 -0.6089  1.6481
36941SOL    HW212831   2.062   9.452   8.910  0.2012 -0.1347  0.1986
36942SOL     OW12832   9.527   1.977   6.652  0.6374  0.2677 -0.1410
36942SOL    HW112833   9.501   1.957   6.562  0.8554 -1.2398  0.0978
36942SOL    HW212834   9.576   1.900   6.680 -0.3703  0.2102  1.6449
36943SOL     OW12835   1.623   7.375   4.270  0.2157  0.0556 -0.2431
36943SOL    HW112836   1.554   7.350   4.208 -1.6620 -0.7148  2.0135
36943SOL    HW212837   1.607   7.468   4.286 -0.4074 -0.1505  0.3714
36944SOL     OW12838   4.861   9.872   0.744 -0.1143  0.3187 -0.2619
36944SOL    HW112839   4.841   9.937   0.676  0.4306  0.5996 -0.1608
36944SOL    HW212840   4.860   9.921   0.826  1.1052  0.3871 -0.2671
36945SOL     OW12841   0.591   2.375   0.150 -0.0897 -0.2552  0.4286
36945SOL    HW112842   0.612   2.467   0.166  0.6619 -0.2011 -0.7797
36945SOL    HW212843   0.576   2.339   0.237 -0.1688  0.9523  0.9379
36946SOL     OW12844   5.862   2.745   7.225 -0.3144  0.1200  0.2474
36946SOL    HW112845   5.836   2.781   7.310 -0.4350 -1.4366  0.9081
36946SOL    HW212846   5.865   2.650   7.239  0.4179 -0.1171 -1.2883
36947SOL     OW12847   2.033   3.880   9.697  0.0972 -0.0854  0.2643
36947SOL    HW112848   2.078   3.809   9.653  0.4469  0.5907 -0.4957
36947SOL    HW212849   1.956   3.898   9.643  0.2541  0.4059  0.1921
36948SOL     OW12850   6.830   7.011   6.330 -0.5939  0.0763  0.2718
36948SOL    HW112851   6.846   7.010   6.236 -0.6365 -0.1356  0.2663
36948SOL    HW212852   6.830   6.919   6.356  0.4708  0.1737  0.6604
36949SOL     OW12853   7.453   1.229   4.359  0.0785 -0.6002 -0.3055
36949SOL    HW112854   7.421   1.313   4.323  0.9292 -0.5158 -0.8911
36949SOL    HW212855   7.404   1.163   4.310  0.2396 -0.4607 -0.6614
36950SOL     OW12856   6.766   8.270   3.599  0.2009  0.3773 -0.5530
36950SOL    HW112857   6.748   8.207   3.669 -2.1650 -1.1384 -2.3630
36950SOL    HW212858   6.768   8.217   3.519  0.6767  2.2919 -1.8780
36951SOL     OW12859   3.607  11.058   0.405  0.1182  0.1142 -0.9930
36951SOL    HW112860   3.537  11.111   0.444  0.1573  0.0009 -0.7656
36951SOL    HW212861   3.563  10.976   0.381  0.7924 -1.4237  2.3272
36952SOL     OW12862   0.038   5.163   2.655  0.4805 -0.1038  0.1721
36952SOL    HW112863  -0.002   5.082   2.689  1.6701 -0.5421  0.5747
36952SOL    HW212864  -0.021   5.233   2.684 -0.5489 -0.8130 -0.1509
36953SOL     OW12865   3.867   0.494   6.630  0.0918 -0.0126  0.3242
36953SOL    HW112866   3.828   0.430   6.571 -1.2476  1.2500 -0.2039
36953SOL    HW212867   3.862   0.453   6.717 -0.4817 -0.7308 -0.0414
36954SOL     OW12868   1.794   7.546   3.725  0.0934 -0.2026  0.4318
36954SOL    HW112869   1.764   7.634   3.749  1.1480  0.3253 -0.1051
36954SOL    HW212870   1.741   7.487   3.778 -0.9266  0.7385  0.4962
36955SOL     OW12871   9.562   9.500   5.268  0.0235 -0.2134 -0.0892
36955SOL    HW112872   9.639   9.507   5.325 -0.6098 -0.8326  0.8512
36955SOL    HW212873   9.592   9.446   5.195  0.5748 -0.1626  0.0925
36956SOL     OW12874   5.427   3.595   9.019 -0.2368  0.1031 -0.1110
36956SOL    HW112875   5.370   3.518   9.016  0.5522 -0.4758 -0.3445
36956SOL    HW212876   5.370   3.667   8.991 -0.5812 -0.6418 -1.4142
36957SOL     OW12877  10.899   7.445   2.846 -0.4319  0.1729 -0.3938
36957SOL    HW112878  10.820   7.499   2.844 -0.2366  0.4533 -0.6698
36957SOL    HW212879  10.866   7.355   2.854 -0.8208  0.2034 -1.3888
36958SOL     OW12880   3.968   9.912  10.674  0.1025  0.0012 -0.0902
36958SOL    HW112881   4.054   9.947  10.651  0.0816 -0.7880 -1.4941
36958SOL    HW212882   3.956   9.935  10.766  1.9023 -0.0322  0.1809
36959SOL     OW12883   2.411   5.472   7.542  0.2263  0.4387 -0.2625
36959SOL    HW112884   2.317   5.464   7.558 -0.1572  0.9469 -2.0950
36959SOL    HW212885   2.432   5.562   7.567  0.5338 -0.0664  1.4260
36960SOL     OW12886  10.254  10.027   3.177 -0.4968 -0.1094  0.9976
36960SOL    HW112887  10.315  10.043   3.104 -0.7017 -1.2332  0.5579
36960SOL    HW212888  10.169  10.012   3.135 -0.8442  0.3067  1.5382
36961SOL     OW12889   2.186   1.681   0.684  0.5667 -0.2112  0.4853
36961SOL    HW112890   2.233   1.713   0.761 -0.6204 -1.8046  1.9468
36961SOL    HW212891   2.106   1.733   0.681  0.7681  0.0857  0.0924
36962SOL     OW12892   3.991   4.090   6.468  0.2834  0.3627 -0.0002
36962SOL    HW112893   3.952   4.033   6.401 -0.0593 -0.0077  0.5087
36962SOL    HW212894   3.971   4.047   6.551  0.9836  0.6575  0.3270
36963SOL     OW12895   9.351   8.115   4.793  0.0227 -0.4195  0.4488
36963SOL    HW112896   9.281   8.073   4.743 -0.3567  0.2237  0.4285
36963SOL    HW212897   9.313   8.131   4.879 -0.1461  0.6897  0.1816
36964SOL     OW12898   0.032   9.431   3.536  0.0859 -0.0417  0.1490
36964SOL    HW112899  -0.026   9.364   3.499  1.3228  1.2002 -4.6219
36964SOL    HW212900   0.120   9.394   3.528  0.5747  1.1535 -0.2028
36965SOL     OW12901   0.961   8.678   6.018 -0.4617  0.7275  0.2992
36965SOL    HW112902   0.947   8.693   5.925  0.3843  2.5811  0.4208
36965SOL    HW212903   1.009   8.596   6.023  0.1618  0.9975 -0.9549
36966SOL     OW12904   3.258   3.553  10.043 -0.0125 -0.1158  0.0348
36966SOL    HW112905   3.236   3.468  10.005 -1.0714 -0.1329  0.6444
36966SOL    HW212906   3.295   3.531  10.129  0.8732  0.0016 -0.2977
36967SOL     OW12907   8.270   1.427   4.642  0.7332 -0.4561  0.1001
36967SOL    HW112908   8.262   1.511   4.597 -0.8504  0.1981  1.5002
36967SOL    HW212909   8.263   1.362   4.572 -0.9063  0.5410 -0.7317
36968SOL     OW12910   5.276   3.073   4.274  0.4847 -0.5224 -1.1579
36968SOL    HW112911   5.188   3.042   4.253  0.2123  0.3265 -1.2733
36968SOL    HW212912   5.333   3.000   4.249 -0.2454 -1.4394 -0.2330
36969SOL     OW12913   2.679   1.550  10.025  0.4456 -0.1127 -0.3513
36969SOL    HW112914   2.610   1.517  10.084  0.6064 -0.8739 -0.5808
36969SOL    HW212915   2.656   1.642  10.012 -0.7122 -0.4265 -0.6655
36970SOL     OW12916   9.738   4.367   4.457  0.6531 -0.1278 -0.3558
36970SOL    HW112917   9.831   4.376   4.436  0.8585 -0.4406  0.4110
36970SOL    HW212918   9.727   4.414   4.539  0.2784 -0.7059 -0.0697
36971SOL     OW12919   0.747   4.075   2.806 -0.0558 -0.2087 -0.0029
36971SOL    HW112920   0.836   4.108   2.792 -0.3152  0.4553 -0.1466
36971SOL    HW212921   0.733   4.084   2.900  0.5044 -1.5822  0.2329
36972SOL     OW12922  11.006   9.276   0.745 -0.1466 -0.4077  0.3485
36972SOL    HW112923  11.013   9.370   0.760 -1.2333 -0.0432 -1.1291
36972SOL    HW212924  11.094   9.249   0.719  0.5002 -0.0918  2.0762
36973SOL     OW12925   7.065  10.114   5.620  0.3302  0.5720 -0.2173
36973SOL    HW112926   6.982  10.150   5.589  1.4672  1.6842 -2.1327
36973SOL    HW212927   7.074  10.031   5.572 -1.5920 -1.8627  3.1323
36974SOL     OW12928   1.918   5.654   7.748 -0.1382  0.4892  0.0866
36974SOL    HW112929   1.844   5.708   7.721 -0.7744 -0.3234  0.1755
36974SOL    HW212930   1.955   5.700   7.823 -0.2003  1.1915 -0.3024
36975SOL     OW12931   1.324   0.534   8.092 -0.1256  0.1642 -0.3124
36975SOL    HW112932   1.278   0.614   8.067  0.0858  0.5782  0.5860
36975SOL    HW212933   1.415   0.548   8.066 -0.1520  0.0779 -0.4534
36976SOL     OW12934   6.123   0.132   9.472  0.3012 -0.0894 -0.7031
36976SOL    HW112935   6.120   0.222   9.504  0.2365  0.1148 -1.2715
36976SOL    HW212936   6.085   0.080   9.543 -1.4664  0.5590 -1.1332
36977SOL     OW12937   3.079   9.170   0.364 -0.3654 -0.0814  0.1554
36977SOL    HW112938   3.123   9.169   0.449  0.3420 -0.7491 -0.2060
36977SOL    HW212939   2.994   9.210   0.382 -0.6142 -1.0588  1.3791
36978SOL     OW12940   5.903   4.684   1.570 -0.2674 -0.1135 -0.5037
36978SOL    HW112941   5.972   4.685   1.504  0.2603  2.6209 -0.0329
36978SOL    HW212942   5.881   4.776   1.584 -2.0177 -0.7321  1.4401
36979SOL     OW12943   1.705   9.885   2.879  0.4582 -0.4033  0.4089
36979SOL    HW112944   1.709   9.981   2.870  1.1551 -0.4999 -0.3226
36979SOL    HW212945   1.781   9.863   2.933  0.1717 -0.5276  0.7656
36980SOL     OW12946   8.847  10.108   9.350  0.0649 -0.5330 -0.6036
36980SOL    HW112947   8.861  10.024   9.394  0.1039  0.3692  1.1855
36980SOL    HW212948   8.935  10.137   9.325  0.4331  0.3317  1.4742
36981SOL     OW12949   0.098   2.018   4.339  0.4137  0.1755 -0.2102
36981SOL    HW112950   0.016   1.992   4.297 -0.4604  1.4553  0.6408
36981SOL    HW212951   0.141   1.935   4.361 -1.6025 -0.5836  1.1488
36982SOL     OW12952   2.946   0.342   5.053  0.5243 -0.7036 -0.1234
36982SOL    HW112953   2.948   0.343   4.957 -0.3048  1.1925 -0.1527
36982SOL    HW212954   2.888   0.269   5.075 -0.8725  0.0611 -1.1306
36983SOL     OW12955   9.111   7.375  10.346  0.3561 -0.0361 -0.4686
36983SOL    HW112956   9.171   7.426  10.400  0.3194  0.3256 -0.7648
36983SOL    HW212957   9.159   7.294  10.328 -0.2780 -0.9085  1.4844
36984SOL     OW12958  10.243  11.032   0.761 -0.7186  0.4647 -0.4578
36984SOL    HW112959  10.306  10.961   0.773 -1.0975  0.1580 -0.2847
36984SOL    HW212960  10.228  11.035   0.666 -0.7894  0.2360 -0.4549
36985SOL     OW12961   7.866   3.365   9.168  0.0664 -0.3348  0.3135
36985SOL    HW112962   7.919   3.289   9.195  0.6031 -0.0897 -0.0407
36985SOL    HW212963   7.929   3.437   9.164 -0.0381 -0.3073 -1.3593
36986SOL     OW12964   9.461   9.861   7.706 -0.8851 -0.6232 -0.1827
36986SOL    HW112965   9.544   9.816   7.693 -0.3941 -0.3334  1.7618
36986SOL    HW212966   9.480   9.952   7.683 -0.5680 -0.4988  0.5476
36987SOL     OW12967   1.050   0.408   6.542  0.1590 -0.1091 -0.0119
36987SOL    HW112968   1.121   0.472   6.544 -0.0189  0.1268 -0.9114
36987SOL    HW212969   0.991   0.439   6.473  0.0776 -1.2520 -0.4713
36988SOL     OW12970   2.081   6.064   6.832  0.7059  0.0266  0.1742
36988SOL    HW112971   2.121   6.047   6.747  3.3394 -1.5848  1.6103
36988SOL    HW212972   2.143   6.121   6.877  0.0429 -0.2450  1.4928
36989SOL     OW12973   7.000   1.996   7.330  0.7194  0.0826  0.0935
36989SOL    HW112974   7.047   2.072   7.362  0.2214  0.0592  0.9257
36989SOL    HW212975   6.908   2.014   7.351  0.5646 -0.6158  0.0576
36990SOL     OW12976   3.051   2.386  10.395  0.1582 -0.2202  0.0347
36990SOL    HW112977   2.985   2.441  10.353  0.1973 -1.4163 -1.6965
36990SOL    HW212978   3.124   2.385  10.333  0.4796 -1.5350  0.4059
36991SOL     OW12979   4.090   9.187   7.964  0.3064  0.1686  0.1633
36991SOL    HW112980   4.021   9.233   8.012 -0.8244 -1.7542  0.5033
36991SOL    HW212981   4.170   9.208   8.012  0.0330  2.4923 -0.2714
36992SOL     OW12982   1.151   9.838   0.049  0.1063 -0.4941 -0.2966
36992SOL    HW112983   1.211   9.883   0.109  0.0251  0.8060 -1.1561
36992SOL    HW212984   1.151   9.892  -0.030 -1.9965 -0.6055 -0.4164
36993SOL     OW12985   6.792   0.050   1.613  0.1160 -0.4128 -0.3437
36993SOL    HW112986   6.887   0.051   1.625  0.0039 -0.5395  0.6639
36993SOL    HW212987   6.777   0.107   1.538  0.7592  2.2830  1.4147
36994SOL     OW12988   5.321   0.461   9.469 -0.4880  0.7963 -0.1594
36994SOL    HW112989   5.230   0.429   9.473 -0.0861 -0.2779  0.8664
36994SOL    HW212990   5.374   0.382   9.459  0.4611  1.1884  1.3352
36995SOL     OW12991   2.952   1.291  10.070 -0.0442  0.6503  0.3154
36995SOL    HW112992   2.915   1.241  10.143  1.1957  0.1826  0.6518
36995SOL    HW212993   2.893   1.273   9.996 -0.1907 -0.4832  0.6919
36996SOL     OW12994   0.881   9.614   6.938 -0.4087  0.2995 -0.8808
36996SOL    HW112995   0.941   9.543   6.914 -1.2846 -1.0661  0.7346
36996SOL    HW212996   0.795   9.586   6.906 -0.8980  0.2357  0.4274
36997SOL     OW12997  10.015  10.154   7.434 -0.5297 -0.0368  0.2087
36997SOL    HW112998  10.100  10.112   7.444 -1.1223 -1.3372  0.0141
36997SOL    HW212999  10.027  10.242   7.470  0.0120 -1.2609  3.3221
36998SOL     OW13000   4.384   2.748   2.732 -0.5526 -0.2022  0.1496
36998SOL    HW113001   4.466   2.703   2.751 -0.0506 -0.5791 -2.4566
36998SOL    HW213002   4.376   2.814   2.800  1.9901 -0.0668  0.4228
36999SOL     OW13003   1.683   6.333   2.277 -0.1830  0.2905 -0.6591
36999SOL    HW113004   1.774   6.322   2.305 -0.4871  0.8864  0.6380
36999SOL    HW213005   1.685   6.403   2.213  0.1983  0.7562 -0.1464
37000SOL     OW13006   8.970   2.093   6.192 -0.8234  0.3305 -0.3050
37000SOL    HW113007   9.018   2.111   6.273  1.8639 -1.2740 -1.4206
37000SOL    HW213008   8.879   2.081   6.220 -0.0086  0.0052  2.4474
37001SOL     OW13009  10.376   5.305   9.458 -0.0731  0.1758  0.2989
37001SOL    HW113010  10.282   5.293   9.445 -0.2504  0.0997  1.4915
37001SOL    HW213011  10.404   5.360   9.386 -1.1668  0.7565  0.2941
37002SOL     OW13012   2.704   2.432  10.237  0.4284  0.7233  0.7164
37002SOL    HW113013   2.613   2.430  10.207  1.2611  0.3833 -2.0918
37002SOL    HW213014   2.756   2.421  10.157  2.9387 -2.9930  2.5744
37003SOL     OW13015   8.249   4.762  10.233  0.0933 -0.8582  0.3295
37003SOL    HW113016   8.293   4.715  10.303 -0.7659 -2.6670 -0.2799
37003SOL    HW213017   8.311   4.760  10.160  1.7982  2.6801  1.4664
37004SOL     OW13018   0.062   4.524  10.897 -0.7565 -0.2607  0.8457
37004SOL    HW113019   0.091   4.435  10.880  0.0235  0.1226  0.0490
37004SOL    HW213020  -0.006   4.516  10.964 -0.4272 -1.4075  1.0511
37005SOL     OW13021   9.405   1.755   0.509  0.3920  0.4151 -0.0744
37005SOL    HW113022   9.457   1.703   0.570  0.4943  0.9577  0.3078
37005SOL    HW213023   9.448   1.743   0.424 -1.2391 -2.4940 -0.6707
37006SOL     OW13024   5.924   3.853   0.193 -0.7434 -0.1958  0.0452
37006SOL    HW113025   5.866   3.922   0.225 -0.8441 -0.4101  0.3260
37006SOL    HW213026   5.931   3.869   0.099 -1.9527 -0.6734 -0.1396
37007SOL     OW13027   9.256   1.802   3.936  0.1489 -0.0176  0.1685
37007SOL    HW113028   9.344   1.828   3.962  0.3433 -1.3314  0.8890
37007SOL    HW213029   9.261   1.707   3.927 -0.6622  0.0751 -1.8585
37008SOL     OW13030   7.665   4.063   7.075  0.1937 -0.3693  0.4767
37008SOL    HW113031   7.732   3.998   7.096 -0.7475 -1.7334 -0.5933
37008SOL    HW213032   7.692   4.099   6.991 -1.0126 -1.8234 -0.5792
37009SOL     OW13033   6.014   1.013   8.159  0.0036 -0.2272 -0.1292
37009SOL    HW113034   6.097   0.983   8.195  0.0321  1.3624  1.2682
37009SOL    HW213035   5.959   0.935   8.154  0.3384 -0.6928  2.5333
37010SOL     OW13036   1.788   2.516   0.644  0.8996  0.3127  0.6385
37010SOL    HW113037   1.791   2.477   0.731  1.7420  0.6770  0.7843
37010SOL    HW213038   1.870   2.565   0.637  2.0470 -1.6879 -1.2873
37011SOL     OW13039   6.906   9.106   4.172  0.2595  0.5600  0.3962
37011SOL    HW113040   6.893   9.082   4.264 -0.9757  1.7529  0.5658
37011SOL    HW213041   6.955   9.033   4.135 -0.0566 -0.3938  1.7751
37012SOL     OW13042   0.088  10.698   7.736 -0.1482 -0.3123  0.3254
37012SOL    HW113043   0.172  10.657   7.715  0.0299  0.8387 -1.4324
37012SOL    HW213044   0.022  10.635   7.708  0.1261  0.3332 -1.9742
37013SOL     OW13045  10.089   1.991   7.576 -0.5371 -0.1740 -0.2315
37013SOL    HW113046  10.028   1.940   7.629  0.0962  0.4158  1.1047
37013SOL    HW213047  10.176   1.957   7.600 -0.1678  0.9328  0.0418
37014SOL     OW13048   0.051  10.951   7.862  0.4584 -0.0503  0.3623
37014SOL    HW113049   0.146  10.961   7.870  0.4860 -0.4963  0.6848
37014SOL    HW213050   0.040  10.867   7.817  0.2274  0.4695 -0.5697
37015SOL     OW13051   7.559  11.080   6.347 -0.1828  0.0456  0.0371
37015SOL    HW113052   7.558  11.003   6.290 -0.1841 -0.4897  0.7356
37015SOL    HW213053   7.642  11.124   6.328 -0.4830  0.2415 -0.8410
37016SOL     OW13054   2.555   2.556   7.042  0.1769  0.6251  0.2447
37016SOL    HW113055   2.617   2.535   6.972 -0.2994 -0.0217 -0.0005
37016SOL    HW213056   2.479   2.592   6.996  0.2005  1.0103  0.5064
37017SOL     OW13057   0.853   1.715   6.947  0.3535  0.3810 -0.2444
37017SOL    HW113058   0.780   1.665   6.984  0.3402  1.5393  1.4069
37017SOL    HW213059   0.814   1.769   6.879 -0.2273  0.5039  0.1790
37018SOL     OW13060  10.357   9.449   5.652  0.1849 -0.2735 -0.0072
37018SOL    HW113061  10.440   9.493   5.671 -0.0111 -0.6185  1.8857
37018SOL    HW213062  10.291   9.518   5.658  0.4016  0.3668 -3.1986
37019SOL     OW13063   7.021   2.098   3.198 -0.2255  0.4241  0.1606
37019SOL    HW113064   7.072   2.092   3.278  0.1703 -0.4494 -0.1531
37019SOL    HW213065   7.086   2.103   3.128 -0.5511 -0.3969 -0.2165
37020SOL     OW13066   0.509   9.219   5.417  0.1797 -0.3853  0.0325
37020SOL    HW113067   0.508   9.252   5.507 -3.0980 -0.4926  0.1523
37020SOL    HW213068   0.528   9.297   5.363  0.6757 -0.0228  0.7120
37021SOL     OW13069   9.141   1.565   6.617  0.1031 -0.1664  0.0343
37021SOL    HW113070   9.121   1.567   6.710  2.2715 -1.1539  0.5948
37021SOL    HW213071   9.120   1.653   6.585  0.4213  0.5456  1.6980
37022SOL     OW13072   9.792   6.417   4.233 -0.5053 -0.2183  0.1669
37022SOL    HW113073   9.747   6.437   4.151 -0.5084  2.1008  0.6387
37022SOL    HW213074   9.761   6.331   4.258 -1.3645 -0.4894 -1.6918
37023SOL     OW13075  10.040   9.954   6.895  0.3578 -0.3661 -0.7117
37023SOL    HW113076  10.088   9.872   6.902 -0.7676 -0.9500  0.3785
37023SOL    HW213077  10.101  10.020   6.929  1.2810 -0.7112 -1.6302
37024SOL     OW13078   7.220  10.155   8.480 -0.3204 -0.1294 -0.5565
37024SOL    HW113079   7.168  10.082   8.446  0.7278 -1.9710  1.5519
37024SOL    HW213080   7.279  10.177   8.408 -0.9909 -1.0072 -1.4116
37025SOL     OW13081  11.075   0.619  11.028 -0.0357  0.6342 -0.4805
37025SOL    HW113082  11.143   0.592  11.090 -0.2137  1.3458  0.0387
37025SOL    HW213083  11.033   0.537  11.002  1.1439  0.1607 -0.9640
37026SOL     OW13084  10.690   2.070   0.769 -0.4161 -0.1571 -0.0743
37026SOL    HW113085  10.747   2.139   0.803 -2.0544  2.3178 -1.9719
37026SOL    HW213086  10.608   2.082   0.816 -0.1866 -2.2200  0.9946
37027SOL     OW13087   8.834   2.302   6.932 -0.0811 -0.0278  0.1286
37027SOL    HW113088   8.805   2.352   7.008 -1.2960  1.9718 -1.5447
37027SOL    HW213089   8.889   2.363   6.883 -0.6749 -0.6852 -1.4119
37028SOL     OW13090   8.535   1.375   5.614  0.2884 -0.5488 -0.1812
37028SOL    HW113091   8.528   1.336   5.527  1.1115  0.5545 -0.7707
37028SOL    HW213092   8.628   1.370   5.635  0.0941 -0.8357  0.6637
37029SOL     OW13093  10.569   1.003   0.276 -0.2181  0.0938 -0.6148
37029SOL    HW113094  10.558   1.035   0.186  1.0748  1.9618 -0.1627
37029SOL    HW213095  10.664   0.995   0.287 -0.4161 -1.9876  0.0087
37030SOL     OW13096   0.596   6.512   2.033 -0.0016  0.2261 -0.4416
37030SOL    HW113097   0.646   6.496   2.113  2.2780  1.7427 -1.4542
37030SOL    HW213098   0.523   6.450   2.038  1.6219 -1.7309  1.4345
37031SOL     OW13099   0.450   4.734   9.115 -0.2603 -0.7827 -0.0084
37031SOL    HW113100   0.361   4.702   9.098  0.1543 -1.1456 -1.6753
37031SOL    HW213101   0.506   4.659   9.097  0.5570  0.1431 -1.6543
37032SOL     OW13102   3.257   9.028   5.917 -0.1312  0.1334  0.3176
37032SOL    HW113103   3.194   8.959   5.936 -1.2997  1.3463  1.0686
37032SOL    HW213104   3.265   9.077   6.000 -0.9201  2.0875 -0.6841
37033SOL     OW13105   2.262   3.779   5.640 -0.0889  0.5235  0.0106
37033SOL    HW113106   2.260   3.716   5.568  0.2364  0.5997 -0.0682
37033SOL    HW213107   2.174   3.815   5.643 -0.3112 -0.0377  0.1492
37034SOL     OW13108   2.212   6.310   3.402  0.2128 -0.0910  0.3246
37034SOL    HW113109   2.232   6.404   3.401 -0.6665  0.1238 -1.4448
37034SOL    HW213110   2.267   6.274   3.332 -1.0214 -0.5076 -0.4531
37035SOL     OW13111   8.688  10.575   6.642 -0.0218 -0.3381  0.5938
37035SOL    HW113112   8.729  10.613   6.565  0.0223 -1.2998  0.1239
37035SOL    HW213113   8.735  10.614   6.716  0.0663  0.4399  0.1321
37036SOL     OW13114   5.860   1.112   2.018 -0.9302 -0.1493  0.1900
37036SOL    HW113115   5.849   1.096   1.924 -1.0668 -0.2396  0.2226
37036SOL    HW213116   5.775   1.094   2.056 -0.7901 -0.4257  0.3765
37037SOL     OW13117  10.339   9.333   6.280 -0.7926  0.0601 -0.4791
37037SOL    HW113118  10.332   9.422   6.246  0.9109  0.7395  0.7864
37037SOL    HW213119  10.275   9.282   6.230 -0.1002  1.4748 -2.9643
37038SOL     OW13120   3.318   3.473   8.906  0.0202 -0.2102 -0.1651
37038SOL    HW113121   3.241   3.518   8.871  0.0056 -0.0230  0.1040
37038SOL    HW213122   3.291   3.442   8.992  0.1860 -0.3088 -0.1478
37039SOL     OW13123   4.572   7.762   4.213  0.2282  0.3608 -0.4137
37039SOL    HW113124   4.626   7.712   4.274 -1.9430  0.1541  1.4700
37039SOL    HW213125   4.526   7.697   4.160 -0.0081  0.4507 -0.3232
37040SOL     OW13126   1.418   0.347   6.243 -0.0076  0.5848 -0.0790
37040SOL    HW113127   1.449   0.357   6.333  2.8462  0.6570 -0.9989
37040SOL    HW213128   1.322   0.345   6.251  0.1777 -0.1926  3.0029
37041SOL     OW13129   0.330   5.090  10.647  0.4402 -0.3448 -0.1049
37041SOL    HW113130   0.412   5.052  10.678  0.4268  1.0417  1.8039
37041SOL    HW213131   0.265   5.021  10.660  0.8324 -0.5315  0.9555
37042SOL     OW13132   4.855   2.933   0.092  0.4458  0.4123 -0.0912
37042SOL    HW113133   4.818   3.017   0.119 -1.0093  0.0041 -0.7327
37042SOL    HW213134   4.910   2.955   0.016  0.0669  0.7986 -0.2623
37043SOL     OW13135   2.648   8.299   6.739  0.0152 -0.6113 -0.0806
37043SOL    HW113136   2.687   8.278   6.824  0.2022  0.6493  0.1702
37043SOL    HW213137   2.669   8.392   6.725  0.2575 -0.8632 -1.6489
37044SOL     OW13138  10.826   9.511   8.280  0.2315 -0.5804  0.5318
37044SOL    HW113139  10.814   9.604   8.295  0.0040 -0.0591 -2.2514
37044SOL    HW213140  10.919   9.495   8.299  0.4661  0.4047  0.2588
37045SOL     OW13141   1.677   5.805   9.466  0.4191  0.2634  0.2933
37045SOL    HW113142   1.700   5.712   9.470 -3.7214 -0.9589 -0.4050
37045SOL    HW213143   1.634   5.823   9.549 -1.7989  0.5390 -0.8374
37046SOL     OW13144   8.956  10.963   1.228  0.3148 -0.2327 -0.1511
37046SOL    HW113145   9.020  11.033   1.219  0.6160 -0.5678 -0.6333
37046SOL    HW213146   8.900  10.970   1.151  0.1273 -0.3012 -0.0230
37047SOL     OW13147   1.758   3.059   8.083 -0.5542  0.9662  0.2004
37047SOL    HW113148   1.710   3.085   8.161  1.9707 -0.5433  2.4528
37047SOL    HW213149   1.785   2.969   8.100  1.7204  1.2139 -1.5267
37048SOL     OW13150   7.616   6.896   4.316  0.2558  0.4090  0.0099
37048SOL    HW113151   7.527   6.866   4.296  0.5961 -0.4239 -0.2739
37048SOL    HW213152   7.620   6.895   4.412  0.8046 -2.1565  0.0208
37049SOL     OW13153  10.452   9.147   7.451 -0.0066  0.4768  0.1521
37049SOL    HW113154  10.477   9.217   7.511 -2.6810  0.9349  0.8727
37049SOL    HW213155  10.409   9.082   7.507  0.9550 -0.9789 -0.7406
37050SOL     OW13156   8.584   7.219   5.072 -0.2079  0.4818  0.0063
37050SOL    HW113157   8.569   7.145   5.015 -1.0013  1.0955 -0.6007
37050SOL    HW213158   8.673   7.248   5.052  0.0481 -0.2039  0.1453
37051SOL     OW13159  10.620   0.430   4.201 -0.5348  0.1714 -0.5728
37051SOL    HW113160  10.619   0.355   4.259  0.4877 -0.5792 -1.4864
37051SOL    HW213161  10.630   0.506   4.259 -1.8054 -0.3587  0.3722
37052SOL     OW13162   1.921   2.785   2.486  0.1342 -0.1427  0.5611
37052SOL    HW113163   1.885   2.697   2.488 -2.2968  0.7549  0.1043
37052SOL    HW213164   1.859   2.837   2.537  0.3150  1.6608 -0.9408
37053SOL     OW13165   8.843   3.719   0.697 -0.6897 -0.2551 -0.2270
37053SOL    HW113166   8.863   3.812   0.703  0.4877 -0.4950 -0.1816
37053SOL    HW213167   8.774   3.713   0.631 -0.1079  0.5619 -0.9297
37054SOL     OW13168   2.398   2.081   0.579  0.0859  0.1195  0.3526
37054SOL    HW113169   2.347   2.003   0.555 -0.3461  0.5801 -0.2624
37054SOL    HW213170   2.382   2.091   0.673 -3.2021  1.7787 -0.2247
37055SOL     OW13171   0.257   3.751   6.231  0.3923 -0.1292 -0.0176
37055SOL    HW113172   0.259   3.761   6.326  1.2324 -0.2585 -0.0123
37055SOL    HW213173   0.304   3.828   6.198 -0.7510  0.4259 -0.3782
37056SOL     OW13174   6.734  10.899   2.462  0.0287 -0.3128 -0.1925
37056SOL    HW113175   6.717  10.993   2.475 -0.2939 -0.6476  2.2410
37056SOL    HW213176   6.804  10.879   2.523  0.2207 -1.6347 -0.8214
37057SOL     OW13177   7.785   5.592   1.095  0.0903  0.1625 -0.1257
37057SOL    HW113178   7.758   5.511   1.139 -1.4933  0.5417 -0.3663
37057SOL    HW213179   7.828   5.563   1.015  0.6903 -0.4609  0.4043
37058SOL     OW13180   9.986   0.663   4.210 -0.4782 -0.0911 -0.0134
37058SOL    HW113181  10.076   0.668   4.242 -0.5992 -0.2334  0.3522
37058SOL    HW213182   9.952   0.752   4.216 -0.2373  0.0385 -0.5215
37059SOL     OW13183   3.718   4.913   9.174 -0.0057  0.4438 -0.0082
37059SOL    HW113184   3.635   4.889   9.216 -0.6942  0.7873 -1.1297
37059SOL    HW213185   3.710   5.006   9.156  0.3725  0.3596 -0.6581
37060SOL     OW13186   7.490   3.688   3.086 -0.2831 -0.4367 -0.6546
37060SOL    HW113187   7.424   3.728   3.143  0.3801  1.2350 -1.0034
37060SOL    HW213188   7.511   3.756   3.022  1.1438 -1.2381 -1.0782
37061SOL     OW13189   4.364   4.173   7.882 -0.2351 -0.9428 -0.5695
37061SOL    HW113190   4.328   4.219   7.806  2.5636  0.4831 -1.1393
37061SOL    HW213191   4.459   4.177   7.871  0.2802 -1.2400  2.6827
37062SOL     OW13192   6.386   1.302   8.457  0.3783  0.8386 -0.0421
37062SOL    HW113193   6.402   1.227   8.400  0.7324  0.8043  0.0985
37062SOL    HW213194   6.291   1.306   8.465  0.3154  1.0097 -0.8513
37063SOL     OW13195   2.440   9.911   1.249 -0.3015  0.5886  0.0699
37063SOL    HW113196   2.370   9.848   1.267 -1.2376  1.6039  0.0651
37063SOL    HW213197   2.413   9.956   1.170  0.4792  0.8474 -0.0625
37064SOL     OW13198   7.382   4.413   3.857  0.5832 -0.3958 -0.8814
37064SOL    HW113199   7.302   4.377   3.819 -0.7141  2.1651 -0.8228
37064SOL    HW213200   7.376   4.393   3.950  0.1029 -0.3779 -0.9071
37065SOL     OW13201   5.944   0.883   2.922 -0.6396 -0.1215  0.1937
37065SOL    HW113202   5.906   0.810   2.972 -1.6507 -0.0269 -0.3961
37065SOL    HW213203   6.038   0.878   2.939 -0.5454 -2.1979 -0.6354
37066SOL     OW13204   2.413   1.011   9.053  0.0316 -0.0100 -0.0625
37066SOL    HW113205   2.378   1.098   9.069 -0.8303 -0.2168 -0.7449
37066SOL    HW213206   2.338   0.952   9.066  0.0570 -0.4545 -1.7207
37067SOL     OW13207   5.161   1.582   1.932  0.1445 -0.1907  0.3592
37067SOL    HW113208   5.094   1.517   1.914  0.9243 -1.0342  0.4473
37067SOL    HW213209   5.112   1.661   1.958 -0.8374 -0.3618 -0.9106
37068SOL     OW13210   3.435   9.826   4.610 -0.0425  0.6782  0.4888
37068SOL    HW113211   3.471   9.886   4.545  2.6391 -0.9625  0.3166
37068SOL    HW213212   3.474   9.854   4.692  0.4798 -0.2214  0.5549
37069SOL     OW13213   9.297   7.283   2.275 -0.3948  0.2276  0.0948
37069SOL    HW113214   9.230   7.351   2.279 -0.9840 -0.3713  0.7018
37069SOL    HW213215   9.338   7.286   2.362 -0.2322 -0.0017  0.0256
37070SOL     OW13216   3.529   5.494   5.890  0.0641  0.2854 -0.1954
37070SOL    HW113217   3.434   5.486   5.884 -0.0414 -0.0094  1.4434
37070SOL    HW213218   3.559   5.409   5.921  0.8969  0.3307 -0.8355
37071SOL     OW13219  10.492   7.944   6.558  0.3395 -0.0582 -0.4519
37071SOL    HW113220  10.517   7.926   6.467 -2.0360 -0.5885 -1.0891
37071SOL    HW213221  10.432   8.019   6.551 -0.2738 -0.4361  0.6109
37072SOL     OW13222   9.755   4.225   7.919  0.0598 -0.2077  0.5710
37072SOL    HW113223   9.755   4.149   7.976 -0.6529 -0.1826  0.6088
37072SOL    HW213224   9.768   4.299   7.978  0.3961 -0.2666  0.5737
37073SOL     OW13225   4.854   4.834   7.981 -1.0040 -0.2381  0.1175
37073SOL    HW113226   4.759   4.845   7.976 -0.8578  0.5397 -1.4694
37073SOL    HW213227   4.886   4.855   7.893  0.4780 -2.1998  0.1100
37074SOL     OW13228   9.620   0.285   6.008 -0.1663  0.1934 -0.1215
37074SOL    HW113229   9.636   0.357   5.946 -0.2487 -0.8220 -1.3710
37074SOL    HW213230   9.532   0.301   6.042 -0.8471 -0.1522 -1.6241
37075SOL     OW13231  11.087   5.926   6.371  0.2697 -0.3393 -0.3574
37075SOL    HW113232  11.180   5.933   6.351  0.4482 -0.3862  0.3996
37075SOL    HW213233  11.060   5.842   6.334  0.6461 -0.5442 -0.1737
37076SOL     OW13234   9.379   5.210   8.057  0.0098 -0.3992  0.4230
37076SOL    HW113235   9.370   5.275   7.987 -0.4933 -1.0766 -0.1571
37076SOL    HW213236   9.473   5.192   8.062 -0.0849 -1.7114 -1.3870
37077SOL     OW13237  10.101   1.016   6.125 -0.1993 -0.3962 -0.0287
37077SOL    HW113238  10.196   1.007   6.122 -0.1730 -0.2389  0.2792
37077SOL    HW213239  10.069   0.926   6.138 -0.1628 -0.6222 -1.3552
37078SOL     OW13240   1.349   9.445   6.591  0.0526 -0.6862 -0.4002
37078SOL    HW113241   1.340   9.363   6.542  2.8707 -0.3342 -1.6883
37078SOL    HW213242   1.425   9.488   6.552  0.2225  1.3427  1.9512
37079SOL     OW13243   4.774  10.800   0.427  0.1759 -0.0062 -0.0558
37079SOL    HW113244   4.796  10.802   0.334 -0.9765 -1.7357 -0.4041
37079SOL    HW213245   4.752  10.709   0.445 -1.5594  0.6518  1.4567
37080SOL     OW13246   0.656   3.816   2.759  0.2908 -0.0099 -0.9007
37080SOL    HW113247   0.716   3.769   2.701 -0.4666  0.9126 -2.4900
37080SOL    HW213248   0.703   3.897   2.780  0.0560  0.2223 -1.2626
37081SOL     OW13249   8.192   3.936   4.072 -0.2527 -0.3273  0.3877
37081SOL    HW113250   8.125   3.961   4.009 -0.0244  2.2805  1.0702
37081SOL    HW213251   8.274   3.943   4.024 -0.0885  1.5490  0.8735
37082SOL     OW13252   3.378   0.299   7.010 -0.8683  0.4125 -0.8522
37082SOL    HW113253   3.311   0.358   7.046 -0.9196 -1.4128  2.4978
37082SOL    HW213254   3.334   0.214   7.003  1.0456 -0.9963  2.0391
37083SOL     OW13255   7.741   4.563   5.982 -0.4824  0.2225 -0.0465
37083SOL    HW113256   7.708   4.529   5.898 -2.2777  1.2833  0.1831
37083SOL    HW213257   7.770   4.652   5.962 -0.2688  0.2425  0.3360
37084SOL     OW13258   9.140   1.651   1.886 -0.1360  0.4961 -0.4318
37084SOL    HW113259   9.103   1.566   1.909  1.7708 -0.0615  0.8386
37084SOL    HW213260   9.091   1.714   1.939 -1.7788  0.2881 -1.6155
37085SOL     OW13261   2.598   5.158   6.331  0.4564  0.2265  0.5497
37085SOL    HW113262   2.524   5.105   6.304  1.5433 -0.7787 -0.6052
37085SOL    HW213263   2.669   5.132   6.272  1.4490  1.8879  0.9344
37086SOL     OW13264   6.756   5.008   6.765  0.4292  0.0789  0.1092
37086SOL    HW113265   6.746   4.930   6.820  1.9964  0.4711  1.0387
37086SOL    HW213266   6.765   5.080   6.828  1.2691  0.6775 -0.6684
37087SOL     OW13267   8.465   2.032   3.270 -0.4165  0.5164 -0.3484
37087SOL    HW113268   8.495   2.073   3.189  0.5641  0.5382  0.0133
37087SOL    HW213269   8.543   2.030   3.326 -1.1066  0.6176  0.6384
37088SOL     OW13270   3.998   4.288   8.990 -0.2638 -0.4388  0.4828
37088SOL    HW113271   4.002   4.335   8.907  0.9357 -2.0597 -0.4506
37088SOL    HW213272   3.909   4.252   8.993 -0.2349 -0.5916 -0.2411
37089SOL     OW13273   5.417   1.176   5.974 -0.0645  0.1290 -0.1630
37089SOL    HW113274   5.434   1.187   6.067 -0.7836  0.0598 -0.0180
37089SOL    HW213275   5.440   1.261   5.935 -0.2659  0.3337  0.1594
37090SOL     OW13276  10.238   1.349   5.336 -0.6425 -0.3961 -0.3513
37090SOL    HW113277  10.303   1.329   5.404 -1.3327  1.8808  1.1041
37090SOL    HW213278  10.283   1.329   5.254  1.2937 -0.5438  0.6679
37091SOL     OW13279   9.868   7.467   7.839  0.1791 -0.7194 -0.1823
37091SOL    HW113280   9.929   7.540   7.831 -0.0924 -0.4863 -0.1395
37091SOL    HW213281   9.898   7.404   7.774 -0.5336  0.1127 -1.3600
37092SOL     OW13282  10.301   0.588   6.412  0.3362  0.2490 -0.1740
37092SOL    HW113283  10.366   0.536   6.459  0.7938 -0.6682 -1.7624
37092SOL    HW213284  10.228   0.596   6.474  0.3549 -2.0771  0.2346
37093SOL     OW13285   5.899   4.722   7.500  0.4561  0.0337  0.3696
37093SOL    HW113286   5.913   4.627   7.502 -0.7145 -0.2493 -1.5625
37093SOL    HW213287   5.987   4.759   7.496  0.9159 -1.0769 -0.4228
37094SOL     OW13288   1.217   2.178   4.868 -0.1557 -0.5218  0.0349
37094SOL    HW113289   1.304   2.138   4.873 -0.7673 -1.9281 -0.0969
37094SOL    HW213290   1.172   2.146   4.946 -0.9400 -0.7910 -0.5214
37095SOL     OW13291   9.851   8.979   4.468 -0.2683 -0.2365  0.0768
37095SOL    HW113292   9.867   8.886   4.451  1.4476  0.0034  0.2450
37095SOL    HW213293   9.934   9.012   4.503 -0.6559  1.5020 -0.5473
37096SOL     OW13294   5.072   0.240   4.933  0.3563  0.2255  0.3479
37096SOL    HW113295   4.979   0.246   4.912  0.1000 -1.6409  0.7877
37096SOL    HW213296   5.111   0.317   4.892 -0.8343 -0.6965 -2.7822
37097SOL     OW13297   8.669   4.342   2.878 -0.1368 -0.2814 -0.0895
37097SOL    HW113298   8.757   4.305   2.866  0.0325  0.0684  0.0555
37097SOL    HW213299   8.683   4.437   2.878  0.0118 -0.1497  3.4115
37098SOL     OW13300   4.248   3.551   3.343 -0.2113 -0.3439 -0.4533
37098SOL    HW113301   4.313   3.579   3.278  0.5316 -2.1890 -0.5461
37098SOL    HW213302   4.191   3.490   3.296 -3.0090  2.2710 -0.7847
37099SOL     OW13303   9.075   4.842   1.561 -0.2968 -1.3200 -0.0201
37099SOL    HW113304   9.162   4.861   1.525 -0.6081 -2.2446 -1.3611
37099SOL    HW213305   9.059   4.913   1.623  0.3318  0.3781 -1.6864
37100SOL     OW13306   1.911   8.431   7.665  0.0608 -0.0034  0.2661
37100SOL    HW113307   1.885   8.345   7.696  0.8828 -0.3422  0.0338
37100SOL    HW213308   1.967   8.466   7.734  1.6248 -0.6245 -0.6283
37101SOL     OW13309   9.033   6.520   9.598  0.3986  0.0244  0.9838
37101SOL    HW113310   9.106   6.459   9.589  0.2670 -0.1343  0.9870
37101SOL    HW213311   8.993   6.498   9.682  0.0149 -0.2532  0.7279
37102SOL     OW13312   7.587   1.178   1.685  0.2066 -0.2278 -0.2291
37102SOL    HW113313   7.680   1.194   1.668  1.1782 -3.3345  1.4253
37102SOL    HW213314   7.559   1.118   1.616 -0.0100 -0.8504  0.3862
37103SOL     OW13315   7.980   8.981  10.328 -0.5388  1.2301 -0.1791
37103SOL    HW113316   8.065   8.943  10.352 -0.2808  1.6821 -0.3653
37103SOL    HW213317   7.916   8.919  10.361 -0.1365  0.9582  0.0971
37104SOL     OW13318   8.028   4.452   7.813 -0.1162  0.0817  0.5027
37104SOL    HW113319   7.987   4.421   7.894 -1.0001  1.9839  0.8273
37104SOL    HW213320   8.108   4.495   7.842 -1.0126  1.8013  0.5367
37105SOL     OW13321   0.727   5.291   7.173  0.3401 -0.1796  0.2300
37105SOL    HW113322   0.691   5.272   7.259  0.4881 -0.6315  0.1944
37105SOL    HW213323   0.755   5.383   7.178 -0.6261  0.1200  0.3197
37106SOL     OW13324   6.582   1.529   7.632  0.1623 -0.0920 -0.5080
37106SOL    HW113325   6.542   1.496   7.551 -1.8890 -1.2195  0.8684
37106SOL    HW213326   6.510   1.568   7.681  0.9118 -1.1574  1.5995
37107SOL     OW13327   9.877   2.546   7.395 -0.2541  0.5195 -0.0902
37107SOL    HW113328   9.908   2.624   7.440  1.3730  0.1519 -0.5158
37107SOL    HW213329   9.902   2.473   7.452 -1.4827  0.2664  0.1584
37108SOL     OW13330   7.283   2.333   0.918  0.7025 -0.2273 -0.1380
37108SOL    HW113331   7.226   2.401   0.955  0.1310 -0.1845 -1.0544
37108SOL    HW213332   7.371   2.369   0.926  0.5486 -0.0063  0.6996
37109SOL     OW13333   7.567   0.488   0.849 -0.4661  0.5277 -0.1095
37109SOL    HW113334   7.566   0.393   0.844  0.0460  0.4352  1.2691
37109SOL    HW213335   7.494   0.510   0.907 -0.8346  1.0155 -0.7359
37110SOL     OW13336   7.880   1.145   6.613 -0.3321  0.7051 -0.6167
37110SOL    HW113337   7.954   1.105   6.568 -0.4649  0.1381 -0.3465
37110SOL    HW213338   7.886   1.111   6.703 -0.3103  1.4874 -0.3127
37111SOL     OW13339   5.518   0.209   5.841  0.1661  0.1509 -0.2843
37111SOL    HW113340   5.613   0.196   5.849 -0.1754 -4.2748 -0.9375
37111SOL    HW213341   5.499   0.187   5.750 -1.5623  0.2624  0.0212
37112SOL     OW13342   2.258   8.796   0.978  1.1115 -0.2670 -0.2392
37112SOL    HW113343   2.308   8.749   1.045 -0.0173 -0.9813  0.1392
37112SOL    HW213344   2.323   8.843   0.928  2.1150 -0.8044  0.5258
37113SOL     OW13345  10.782   3.452   8.331 -0.5453 -0.0279  0.4343
37113SOL    HW113346  10.835   3.424   8.256 -1.5787  0.1714 -0.4023
37113SOL    HW213347  10.845   3.463   8.402  0.3263 -1.2856 -0.0959
37114SOL     OW13348   0.371   1.101   3.739  0.2495  0.5876  0.2453
37114SOL    HW113349   0.373   1.194   3.760  1.0288  0.7452 -0.4798
37114SOL    HW213350   0.459   1.070   3.762  0.6049  0.4315 -1.2550
37115SOL     OW13351   1.120   2.626   3.903 -0.7294  0.3964 -0.3396
37115SOL    HW113352   1.051   2.560   3.909  0.3762 -0.6981  1.0181
37115SOL    HW213353   1.129   2.661   3.992 -0.3806  1.4165 -0.7576
37116SOL     OW13354   8.129   3.547   8.664  0.1602  0.5118  0.5596
37116SOL    HW113355   8.198   3.557   8.598 -0.0466  0.3138  0.3085
37116SOL    HW213356   8.053   3.591   8.626  0.0466  0.4151  0.6759
37117SOL     OW13357   0.307   9.318   4.007 -0.4226 -0.0256 -0.6456
37117SOL    HW113358   0.267   9.379   3.946 -2.2647 -2.1945 -1.7286
37117SOL    HW213359   0.350   9.374   4.072 -1.4551  2.3728 -1.9129
37118SOL     OW13360  10.098  11.077  11.027 -0.5051 -0.5808  0.0944
37118SOL    HW113361  10.104  11.069  10.932  1.1256 -0.0469  0.1367
37118SOL    HW213362  10.019  11.027  11.050 -0.4583 -1.4138 -1.4428
37119SOL     OW13363   4.598   2.986   6.273  0.2911  0.2048  0.2870
37119SOL    HW113364   4.609   3.051   6.342 -1.0313  0.6162  0.1548
37119SOL    HW213365   4.682   2.942   6.266  1.6261  2.6896 -0.4021
37120SOL     OW13366   7.630   9.367   8.612 -0.2085  0.0996 -0.0970
37120SOL    HW113367   7.685   9.302   8.568 -1.0373  0.0944 -1.1850
37120SOL    HW213368   7.556   9.318   8.647  0.3964  0.1204  1.2792
37121SOL     OW13369  10.460   1.033   8.944 -0.3125  0.3890 -0.5183
37121SOL    HW113370  10.474   1.126   8.958 -0.6169  0.5170 -1.0288
37121SOL    HW213371  10.518   1.010   8.871 -0.9921  0.4129 -1.0801
37122SOL     OW13372   6.450   4.229   1.014 -0.3968 -0.2628 -0.0427
37122SOL    HW113373   6.392   4.207   1.087  1.4857 -1.2853  1.2519
37122SOL    HW213374   6.416   4.180   0.940 -1.0361 -1.0738  0.7571
37123SOL     OW13375   8.623   1.322   8.191  0.3885  0.5722 -0.2577
37123SOL    HW113376   8.606   1.250   8.129 -0.7882  0.4163  0.2286
37123SOL    HW213377   8.626   1.279   8.276  0.7399  0.9655 -0.0711
37124SOL     OW13378   6.072  10.243   6.707  0.2524 -0.2955  0.4598
37124SOL    HW113379   6.059  10.177   6.775  1.9854 -0.4475  0.6972
37124SOL    HW213380   6.022  10.211   6.633 -1.2264 -0.4126  1.4610
37125SOL     OW13381   8.725  10.578   7.935  0.5848  0.2933 -1.1116
37125SOL    HW113382   8.641  10.572   7.981  0.8264  0.1016 -0.6928
37125SOL    HW213383   8.738  10.671   7.920  1.3179  0.5366  0.7427
37126SOL     OW13384  10.884   8.347  10.626 -0.0595 -0.4382  0.1029
37126SOL    HW113385  10.793   8.376  10.627  0.0801  0.0280 -0.4199
37126SOL    HW213386  10.881   8.259  10.589 -0.1886  0.0042 -0.9817
37127SOL     OW13387   8.500   5.264   1.946  0.3590 -0.3702 -0.8776
37127SOL    HW113388   8.410   5.249   1.919  0.5830 -2.0556 -0.7947
37127SOL    HW213389   8.511   5.360   1.943 -0.0970 -0.2601 -5.1759
37128SOL     OW13390   5.528   2.192   7.685  0.2173  0.5673 -0.4653
37128SOL    HW113391   5.466   2.247   7.734 -1.3648 -1.9338  0.5653
37128SOL    HW213392   5.610   2.199   7.734 -1.0889 -1.1625  2.1881
37129SOL     OW13393   9.531   0.835   3.069  0.4316  0.5679  0.9107
37129SOL    HW113394   9.451   0.885   3.053  0.9197  1.2656  0.6190
37129SOL    HW213395   9.600   0.901   3.072  1.5537 -0.2886 -2.5312
37130SOL     OW13396  11.056   9.131  10.041 -0.3073  0.0242 -0.3492
37130SOL    HW113397  10.987   9.197  10.043 -2.0680 -1.6999  0.8618
37130SOL    HW213398  11.034   9.075   9.966  1.3299  0.9097 -1.5489
37131SOL     OW13399   0.260   2.767   3.187 -0.0798  0.1626  0.0316
37131SOL    HW113400   0.302   2.846   3.153  0.9392 -0.2122  0.3784
37131SOL    HW213401   0.184   2.800   3.235  0.1896  0.9164 -0.0355
37132SOL     OW13402  10.755  10.438   5.093 -0.5815 -0.2321 -0.3222
37132SOL    HW113403  10.782  10.362   5.041 -1.3769 -0.7189 -0.0300
37132SOL    HW213404  10.829  10.453   5.152 -1.9830 -3.5004  2.6635
37133SOL     OW13405   9.320   1.653   8.274  0.4105 -0.4910  0.7355
37133SOL    HW113406   9.316   1.570   8.321  1.0612  0.3316  2.3055
37133SOL    HW213407   9.254   1.644   8.205 -0.5381 -1.7618  1.7535
37134SOL     OW13408   4.197   6.914   5.268 -0.4000 -1.1919 -0.1650
37134SOL    HW113409   4.114   6.924   5.221 -0.6162  2.2607  0.6073
37134SOL    HW213410   4.172   6.885   5.356 -0.7318 -0.8520 -0.1464
37135SOL     OW13411   2.499   6.404   6.248  0.4876  0.4067  0.2522
37135SOL    HW113412   2.576   6.453   6.220 -0.0380  0.9862 -0.2122
37135SOL    HW213413   2.434   6.471   6.270  0.2116 -0.0674  0.9156
37136SOL     OW13414   3.289   2.166   1.648  0.5059 -0.1758  0.4001
37136SOL    HW113415   3.355   2.128   1.705  0.1673 -0.3829  0.6543
37136SOL    HW213416   3.254   2.092   1.598  2.1748  0.2402 -1.5324
37137SOL     OW13417   3.957  10.788   9.183  0.0796  0.1213 -0.0967
37137SOL    HW113418   3.931  10.779   9.275  1.0459 -1.9822  0.0178
37137SOL    HW213419   3.898  10.855   9.149  0.0392  1.3477  2.1679
37138SOL     OW13420   8.252   0.385   3.865  0.3494  0.0609 -0.1741
37138SOL    HW113421   8.219   0.369   3.953 -1.0534 -0.8431 -0.8430
37138SOL    HW213422   8.345   0.402   3.878  0.1978 -0.1764  1.4686
37139SOL     OW13423   9.533   9.728   7.103  0.0430 -0.0342 -0.2858
37139SOL    HW113424   9.488   9.662   7.051 -0.9163 -0.2204  0.7519
37139SOL    HW213425   9.489   9.726   7.188  0.7346  1.1617  0.1216
37140SOL     OW13426   7.764   3.202  10.551 -0.1424  0.2555  0.2791
37140SOL    HW113427   7.761   3.107  10.562  0.2873 -0.1498 -2.3787
37140SOL    HW213428   7.769   3.236  10.640 -3.9971 -1.9701  1.5888
37141SOL     OW13429   9.008   1.521   3.838  0.2650  0.0099  0.0558
37141SOL    HW113430   8.915   1.504   3.829  0.1701  0.3453  0.3934
37141SOL    HW213431   9.023   1.601   3.788  0.4612 -0.2994 -0.3901
37142SOL     OW13432   4.559   2.984   4.021 -0.1858 -0.6182 -0.7808
37142SOL    HW113433   4.611   3.016   4.095 -2.3855  0.1352  0.5339
37142SOL    HW213434   4.597   3.028   3.945  0.2168  1.0092  0.2998
37143SOL     OW13435   6.895   8.658   9.358  0.3094 -0.0085 -0.7444
37143SOL    HW113436   6.949   8.692   9.429 -1.1968 -1.5219  1.2215
37143SOL    HW213437   6.958   8.631   9.291  1.9741 -0.9880  1.1265
37144SOL     OW13438   2.909   1.332   1.411  0.1119 -0.3839 -0.4469
37144SOL    HW113439   2.815   1.353   1.410 -0.0895 -0.2877  3.8786
37144SOL    HW213440   2.921   1.276   1.334 -3.0247  1.1977 -2.2998
37145SOL     OW13441   3.723   4.090   5.910 -0.5096 -0.8521 -0.3778
37145SOL    HW113442   3.674   4.088   5.992 -2.3260 -0.5848 -1.4127
37145SOL    HW213443   3.735   4.183   5.891  0.8250 -0.9062  0.0709
37146SOL     OW13444   9.270   6.647   7.600  0.0041  0.3642 -0.5709
37146SOL    HW113445   9.303   6.577   7.543 -0.8853  0.5295 -1.3060
37146SOL    HW213446   9.348   6.697   7.623  0.3817  0.3121 -1.6845
37147SOL     OW13447   0.684   1.622   2.405  0.1846  0.2047 -0.3367
37147SOL    HW113448   0.612   1.561   2.392 -0.0859  0.6043 -0.7473
37147SOL    HW213449   0.641   1.703   2.432  0.6145 -0.1372  1.5076
37148SOL     OW13450   7.489   9.001   6.473 -0.0290 -0.1099  0.1635
37148SOL    HW113451   7.468   8.908   6.469  1.1547 -0.4825  1.4059
37148SOL    HW213452   7.511   9.015   6.565 -0.8276  1.5625  0.1251
37149SOL     OW13453   2.141   1.377   8.396 -0.1236 -0.5542  0.7803
37149SOL    HW113454   2.074   1.433   8.358  2.3943  1.8055 -0.5561
37149SOL    HW213455   2.179   1.330   8.321 -0.3878 -2.0580  1.5401
37150SOL     OW13456   3.359   0.145  10.409 -0.2400  0.5452  0.1595
37150SOL    HW113457   3.368   0.201  10.332  1.9005 -1.2928 -1.0642
37150SOL    HW213458   3.427   0.079  10.398 -2.1076 -1.8488  1.9029
37151SOL     OW13459   9.857  10.992  10.033 -0.5332 -0.1605  0.0832
37151SOL    HW113460   9.842  10.955   9.946 -1.9843  2.3457 -0.8181
37151SOL    HW213461   9.770  11.012  10.067  0.1025  3.1607  0.0814
37152SOL     OW13462   9.399   1.561   7.650 -0.1520 -0.2810  0.3948
37152SOL    HW113463   9.392   1.476   7.692 -0.5769 -1.0060 -1.0761
37152SOL    HW213464   9.310   1.598   7.657 -0.2307 -0.4157  0.1086
37153SOL     OW13465   8.721   9.312   7.485  0.0914 -0.4940 -0.5447
37153SOL    HW113466   8.753   9.260   7.412  0.0240 -3.7842  1.5405
37153SOL    HW213467   8.779   9.388   7.489  1.1398 -1.0879 -2.9098
37154SOL     OW13468  10.030  10.827   3.192  0.1095 -1.0005  0.0436
37154SOL    HW113469  10.029  10.741   3.149 -0.9452 -1.2659  0.5503
37154SOL    HW213470  10.069  10.886   3.128 -0.3129 -1.6175 -0.7969
37155SOL     OW13471   6.731   1.951   4.693  0.3145 -0.3520 -0.4582
37155SOL    HW113472   6.825   1.945   4.673  0.6064  0.9966  0.3754
37155SOL    HW213473   6.693   1.994   4.616  0.4632 -0.4177 -0.5700
37156SOL     OW13474   1.615   1.745   4.738  0.2011  0.9253 -0.2259
37156SOL    HW113475   1.562   1.792   4.674  2.1275  1.5768 -1.4427
37156SOL    HW213476   1.661   1.678   4.686  1.8521  1.5125  0.4100
37157SOL     OW13477   9.352   8.597   7.493  0.1206 -0.0490  1.0450
37157SOL    HW113478   9.343   8.506   7.523 -0.4485  0.1329  1.4378
37157SOL    HW213479   9.341   8.592   7.398  0.2167 -0.4075  1.0489
37158SOL     OW13480   9.526   1.339  10.705  0.3751 -0.3271 -0.4666
37158SOL    HW113481   9.551   1.287  10.781  1.2055  0.5238 -0.1469
37158SOL    HW213482   9.551   1.285  10.630 -0.3067 -1.1001 -0.1609
37159SOL     OW13483   0.191   3.692   9.958  0.1790 -0.4890 -0.1045
37159SOL    HW113484   0.168   3.604   9.988  0.6210 -0.6108 -0.1157
37159SOL    HW213485   0.167   3.749  10.031 -0.1138 -0.6202 -0.0992
37160SOL     OW13486   2.636  10.390   7.082  0.2557 -0.1553 -1.0258
37160SOL    HW113487   2.663  10.337   7.157  1.9937  1.0024 -0.7723
37160SOL    HW213488   2.630  10.327   7.009  1.3168 -0.8741 -0.5288
37161SOL     OW13489   2.336   5.338   8.240 -1.0493 -0.0581 -0.0507
37161SOL    HW113490   2.286   5.257   8.226  0.2078 -0.7931 -0.4585
37161SOL    HW213491   2.284   5.387   8.305 -2.0626 -0.9742 -0.1330
37162SOL     OW13492   9.750   1.804   5.828  0.1665  0.0946  0.2631
37162SOL    HW113493   9.704   1.846   5.900  0.3658  1.3090 -0.3053
37162SOL    HW213494   9.814   1.747   5.872  2.1210  2.7637  1.1651
37163SOL     OW13495   7.671   7.804   1.022  0.0836 -0.8262 -0.2283
37163SOL    HW113496   7.724   7.859   0.965 -2.2769  1.0025 -0.8097
37163SOL    HW213497   7.727   7.786   1.097  1.6192  0.6966 -0.9426
37164SOL     OW13498   7.601   3.632   5.915  0.5219  0.2530 -0.4281
37164SOL    HW113499   7.612   3.724   5.941  0.1774 -0.0378  0.8374
37164SOL    HW213500   7.506   3.620   5.909  0.5297 -0.2462  0.3269
37165SOL     OW13501   3.471   2.589   3.120  0.1163  0.4426  0.3705
37165SOL    HW113502   3.416   2.625   3.190  0.0724 -1.1038  1.1590
37165SOL    HW213503   3.547   2.647   3.119  0.2246  0.3777  1.8648
37166SOL     OW13504   0.133   7.780   0.620 -0.3173 -0.4043 -0.0407
37166SOL    HW113505   0.173   7.770   0.706  0.1054  1.0311 -0.0409
37166SOL    HW213506   0.056   7.834   0.635  0.0221  0.2568 -0.6087
37167SOL     OW13507   5.076   3.385   2.370  0.0113  0.3747 -0.6792
37167SOL    HW113508   5.015   3.349   2.434  0.8090  0.4309  0.1347
37167SOL    HW213509   5.022   3.439   2.312 -0.9554 -0.8232 -0.9367
37168SOL     OW13510   2.031   4.085  11.043 -0.2442 -0.3097 -0.1565
37168SOL    HW113511   1.957   4.080  10.982 -1.9615  0.4256  1.7510
37168SOL    HW213512   2.048   4.179  11.051 -0.4748 -0.3589  0.9604
37169SOL     OW13513   7.493   2.886   5.943 -0.2010  0.1099  0.4681
37169SOL    HW113514   7.576   2.928   5.963 -1.0738  0.9217  2.7136
37169SOL    HW213515   7.516   2.795   5.924  1.2304  0.4632  0.3865
37170SOL     OW13516   4.366   2.575   0.653 -0.1710  0.1459  0.0842
37170SOL    HW113517   4.357   2.590   0.559 -1.1942 -0.3849  0.0814
37170SOL    HW213518   4.443   2.626   0.678  0.8013 -0.5679 -1.2387
37171SOL     OW13519   1.402   9.715   6.826  0.5081 -0.4062 -0.0374
37171SOL    HW113520   1.457   9.726   6.749 -0.9529  0.6997 -0.9898
37171SOL    HW213521   1.461   9.731   6.900  1.8445 -1.0536 -0.9211
37172SOL     OW13522  10.980   1.165   3.843 -0.0009 -0.6095 -0.0769
37172SOL    HW113523  10.984   1.253   3.882 -1.2116 -0.7725  0.4462
37172SOL    HW213524  10.930   1.113   3.906  1.2293 -1.8553 -0.0917
37173SOL     OW13525   4.691   8.286   7.431 -0.1075  0.1893  0.7919
37173SOL    HW113526   4.680   8.356   7.367  1.2515 -0.0615  0.2510
37173SOL    HW213527   4.681   8.329   7.516 -1.5267  0.5977  0.4584
37174SOL     OW13528   0.881   5.647   6.407 -0.0726 -0.1210 -0.4418
37174SOL    HW113529   0.881   5.552   6.399  1.7004 -0.3767  1.5903
37174SOL    HW213530   0.970   5.669   6.436 -1.1306  1.8493  1.7217
37175SOL     OW13531   0.802  11.100   5.934  0.3505 -0.2461 -0.2603
37175SOL    HW113532   0.784  11.106   6.027  2.2893  0.6254  0.0998
37175SOL    HW213533   0.790  11.190   5.901  0.2853 -0.4225 -0.7345
37176SOL     OW13534   9.893   5.499   9.127 -0.1658 -0.2297  0.4285
37176SOL    HW113535   9.856   5.421   9.085 -0.6889  0.2068  0.0663
37176SOL    HW213536   9.848   5.503   9.211  0.3534 -0.6935  0.7370
37177SOL     OW13537   1.456   3.397   4.324  0.3196 -0.2219 -0.1603
37177SOL    HW113538   1.518   3.349   4.270  2.1832  1.0197  0.7770
37177SOL    HW213539   1.479   3.374   4.414 -1.7352 -1.0529  0.2145
37178SOL     OW13540   0.065   9.329   8.643 -0.2663 -0.3350  0.4125
37178SOL    HW113541   0.006   9.257   8.665 -0.2936 -0.1660  0.9111
37178SOL    HW213542   0.053   9.393   8.714 -0.0536  0.0458  0.1137
37179SOL     OW13543   0.947  10.028  10.117 -0.0298  0.3938  0.2238
37179SOL    HW113544   0.865  10.065  10.086  0.3224  0.0429 -1.1669
37179SOL    HW213545   0.935   9.933  10.110  1.1138  0.3380 -1.7808
37180SOL     OW13546   8.642  10.210   7.580  0.3593 -0.5921 -0.2602
37180SOL    HW113547   8.633  10.291   7.630 -1.5217 -0.1689 -1.1983
37180SOL    HW213548   8.736  10.199   7.568  0.6725  1.1241  0.4227
37181SOL     OW13549   0.634   1.476  10.390 -0.0631  0.0438 -0.2363
37181SOL    HW113550   0.644   1.563  10.429 -0.6619  0.3844 -0.8318
37181SOL    HW213551   0.667   1.416  10.457  2.2660  0.8349 -0.5597
37182SOL     OW13552   9.324  10.469   6.974 -0.4097  0.2480 -0.1269
37182SOL    HW113553   9.337  10.564   6.975 -1.7027  0.4953  2.4435
37182SOL    HW213554   9.297  10.449   6.885  1.0575  2.0866 -1.0389
37183SOL     OW13555   5.464   5.025   2.272  0.1245 -0.7182 -0.1135
37183SOL    HW113556   5.407   5.065   2.337  0.5819  2.7923 -1.6242
37183SOL    HW213557   5.548   5.013   2.317  0.1118  0.5982  0.3094
37184SOL     OW13558   9.388   5.272   6.753 -0.2989 -0.1098  0.4584
37184SOL    HW113559   9.473   5.244   6.718 -0.5033 -2.0443  1.3625
37184SOL    HW213560   9.353   5.332   6.687  1.0130 -0.6365 -0.7674
37185SOL     OW13561  10.876   8.829   8.238  0.0879 -0.3403 -0.5610
37185SOL    HW113562  10.804   8.843   8.178  0.2788 -1.0180 -0.9538
37185SOL    HW213563  10.952   8.867   8.194 -0.0799  0.7450  0.0301
37186SOL     OW13564   0.209   0.569   1.876 -0.1041 -0.1087 -0.4200
37186SOL    HW113565   0.184   0.541   1.788 -3.9663  1.2938  0.0700
37186SOL    HW213566   0.182   0.497   1.933  0.4993 -0.1368 -0.1568
37187SOL     OW13567   0.044   4.733   0.629 -0.7844 -0.3977  0.4850
37187SOL    HW113568  -0.024   4.746   0.695 -0.9651 -1.3848  0.5140
37187SOL    HW213569   0.123   4.771   0.668 -1.0262 -0.4206  1.0064
37188SOL     OW13570   5.665   9.462   4.436  0.3102  0.4009  0.5627
37188SOL    HW113571   5.619   9.546   4.433  0.5341  0.5673  1.4486
37188SOL    HW213572   5.642   9.425   4.522 -1.6883 -1.5498 -0.7071
37189SOL     OW13573   7.586   1.996   1.236 -0.0424  0.7417 -0.1696
37189SOL    HW113574   7.510   1.960   1.282 -0.2352  0.5187 -0.6557
37189SOL    HW213575   7.622   2.060   1.297  0.7986 -0.8316  1.0557
37190SOL     OW13576   0.704   8.075   6.200 -0.4088 -0.3420  0.6047
37190SOL    HW113577   0.703   8.163   6.238 -0.4266 -0.3244  0.5633
37190SOL    HW213578   0.673   8.018   6.270 -0.9687 -0.2373  0.4410
37191SOL     OW13579  10.290   1.600   9.820 -0.8119 -0.8540  0.2322
37191SOL    HW113580  10.354   1.661   9.783 -0.6158  0.3865  2.4588
37191SOL    HW213581  10.299   1.521   9.767  1.9216 -0.4105 -0.1062
37192SOL     OW13582   6.629   8.936   1.547  0.5852  0.7828 -0.0195
37192SOL    HW113583   6.699   8.930   1.613  0.2069  2.4245  0.5685
37192SOL    HW213584   6.576   9.010   1.575 -2.3835 -1.3175  0.4544
37193SOL     OW13585   5.221   2.356   7.405  0.6823 -0.0642  0.0619
37193SOL    HW113586   5.243   2.277   7.356  0.0001 -0.6200  0.6295
37193SOL    HW213587   5.182   2.415   7.340  2.4020  0.3396 -0.6357
37194SOL     OW13588   4.949   0.475   8.813  0.5671 -0.7174 -0.0144
37194SOL    HW113589   4.972   0.468   8.720  0.2041  0.5853 -0.2239
37194SOL    HW213590   4.857   0.500   8.813  0.8171  0.2655  0.6603
37195SOL     OW13591   4.532   8.100   2.127 -0.2128  0.5822  0.0569
37195SOL    HW113592   4.467   8.122   2.061 -0.8605  0.2066  0.5540
37195SOL    HW213593   4.608   8.154   2.105 -1.3542  2.5207  0.5851
37196SOL     OW13594   6.144   7.370   9.860 -0.1821 -0.0473 -0.1649
37196SOL    HW113595   6.216   7.339   9.805 -0.1537 -0.7342  0.2505
37196SOL    HW213596   6.069   7.316   9.834 -0.4331  0.3300 -0.2456
37197SOL     OW13597   7.204   7.253   3.294 -0.8898  0.3776  0.3117
37197SOL    HW113598   7.122   7.289   3.327 -2.0943 -0.2324 -1.8186
37197SOL    HW213599   7.203   7.272   3.200  1.1682 -0.1220  0.1348
37198SOL     OW13600   7.668   3.705   8.547  0.1788 -0.1662 -0.3669
37198SOL    HW113601   7.659   3.681   8.639  0.6996 -0.9955 -0.5256
37198SOL    HW213602   7.622   3.789   8.539  0.3051  0.0048  0.6818
37199SOL     OW13603   9.561   0.869   6.885  0.1709  0.6454  0.4335
37199SOL    HW113604   9.590   0.937   6.824  1.8721  0.0003  0.4666
37199SOL    HW213605   9.585   0.903   6.972  0.4323  0.2911  0.5008
37200SOL     OW13606   7.050   8.325  10.051 -0.1360 -0.1520  0.4174
37200SOL    HW113607   7.143   8.317  10.071  0.1411  2.2067  0.3073
37200SOL    HW213608   7.041   8.293   9.962  0.3762 -1.2455  0.7352
37201SOL     OW13609   5.822   5.779   8.448 -0.5833  0.5462 -0.0349
37201SOL    HW113610   5.767   5.768   8.526 -0.6142  0.0527 -0.1221
37201SOL    HW213611   5.760   5.789   8.376 -0.5614  0.2475 -0.0975
37202SOL     OW13612   0.693   1.411   5.330  0.1372 -0.3038 -0.2213
37202SOL    HW113613   0.716   1.504   5.330  0.4265 -0.3460 -1.5966
37202SOL    HW213614   0.599   1.409   5.350  0.4642  0.1549  1.4427
37203SOL     OW13615   7.561   2.992   3.555  0.1531  0.6394 -0.8071
37203SOL    HW113616   7.582   2.992   3.648  2.6418  1.2410 -1.2978
37203SOL    HW213617   7.520   2.907   3.539 -1.5335  1.0421  1.0303
37204SOL     OW13618   1.237   3.018   9.378  0.2129 -0.0561 -0.3252
37204SOL    HW113619   1.326   2.986   9.384 -0.5610 -2.2768  0.1235
37204SOL    HW213620   1.185   2.943   9.348 -1.5841  0.9908 -0.0294
37205SOL     OW13621   0.805   7.665   0.923 -0.3741 -0.0902 -0.3040
37205SOL    HW113622   0.888   7.619   0.908 -0.9087 -1.0185 -0.4406
37205SOL    HW213623   0.771   7.683   0.836  0.2589  1.3889 -0.2768
37206SOL     OW13624   8.724   5.775   5.111 -0.3605  0.1722  0.2140
37206SOL    HW113625   8.677   5.696   5.137  2.6569 -1.5174  1.0003
37206SOL    HW213626   8.721   5.831   5.188 -1.9240  0.6109 -0.1196
37207SOL     OW13627   0.182   0.447  10.202  0.5076  0.3760  0.0257
37207SOL    HW113628   0.134   0.471  10.282  0.2206 -0.2324  0.0439
37207SOL    HW213629   0.153   0.510  10.136 -1.6835 -1.0254 -0.4391
37208SOL     OW13630   8.835   5.733   3.716 -0.3447 -0.2615 -0.0719
37208SOL    HW113631   8.856   5.692   3.632 -1.8102 -0.2665 -0.4589
37208SOL    HW213632   8.740   5.743   3.715 -0.1309  2.6297  0.2490
37209SOL     OW13633   1.147   9.484   0.707 -0.5832 -0.1559 -0.6112
37209SOL    HW113634   1.078   9.451   0.649 -1.7342  1.3348 -0.1786
37209SOL    HW213635   1.204   9.535   0.650 -1.0671  0.3579 -0.6516
37210SOL     OW13636   1.835   1.773   3.951 -0.1261  0.2836  0.2474
37210SOL    HW113637   1.844   1.692   4.002 -1.6153 -0.8232 -1.1270
37210SOL    HW213638   1.823   1.743   3.861 -0.1922  2.0787 -0.3731
37211SOL     OW13639   1.178   4.665   7.383  0.5090 -0.3033 -0.0643
37211SOL    HW113640   1.106   4.639   7.325 -1.2608  0.5538  1.6507
37211SOL    HW213641   1.257   4.656   7.329 -0.9202 -0.7826 -2.1738
37212SOL     OW13642   7.883   4.113   8.686 -0.7331  0.5420 -0.4557
37212SOL    HW113643   7.956   4.159   8.727 -1.7922  2.3297 -0.4912
37212SOL    HW213644   7.808   4.133   8.741 -1.2899 -1.1030 -0.5444
37213SOL     OW13645   8.520   2.806   9.043  0.5951  0.5259  0.8357
37213SOL    HW113646   8.564   2.868   8.985  2.2546 -0.0094  1.4571
37213SOL    HW213647   8.505   2.728   8.990  1.0516  0.4626  0.7937
37214SOL     OW13648   9.238   9.712  10.473  0.0238  0.1043 -0.0092
37214SOL    HW113649   9.218   9.684  10.562 -0.4021 -1.8877 -0.6933
37214SOL    HW213650   9.328   9.745  10.477  0.6809 -1.6692  0.8274
37215SOL     OW13651   3.181   0.176   8.430  0.0563 -0.1071 -0.2855
37215SOL    HW113652   3.128   0.251   8.406 -0.1154 -0.2203 -0.2573
37215SOL    HW213653   3.272   0.205   8.417 -0.0165  0.0321 -0.4841
37216SOL     OW13654   7.587   0.743   1.452 -1.0322  0.5586  0.6508
37216SOL    HW113655   7.673   0.708   1.431 -2.0278 -0.4882 -2.0733
37216SOL    HW213656   7.532   0.665   1.464 -1.7083  1.2132  2.0451
37217SOL     OW13657   9.996   3.450   9.637 -0.8404  0.2990 -0.1390
37217SOL    HW113658  10.000   3.468   9.544  1.1020  2.2285  0.2446
37217SOL    HW213659  10.078   3.406   9.657 -0.5543  1.2515  0.8822
37218SOL     OW13660   1.482   6.275  10.539  0.3699 -0.0397 -0.2764
37218SOL    HW113661   1.496   6.222  10.617 -1.5375  0.6338  0.5879
37218SOL    HW213662   1.388   6.295  10.540  0.6993  1.8234 -1.5540
37219SOL     OW13663   2.856   5.035   7.669 -0.2495  0.0342 -0.3177
37219SOL    HW113664   2.941   5.064   7.634 -0.8754  1.1871 -0.9367
37219SOL    HW213665   2.804   5.115   7.674 -1.0129 -0.5075  0.9439
37220SOL     OW13666   8.352   5.213  10.950 -0.0243  0.0412 -0.2424
37220SOL    HW113667   8.397   5.129  10.952 -0.0530  0.0360  0.5764
37220SOL    HW213668   8.348   5.237  10.857 -0.8054 -1.2776 -0.5741
37221SOL     OW13669   3.187   4.407  10.701 -0.0673 -0.3586 -0.2086
37221SOL    HW113670   3.134   4.448  10.770  0.0172 -1.2330  0.3869
37221SOL    HW213671   3.240   4.342  10.747  0.1754 -0.7777 -1.0681
37222SOL     OW13672   6.845  10.357   0.565  0.0599 -0.0235  0.4128
37222SOL    HW113673   6.801  10.440   0.547 -0.5908 -0.2279  1.0029
37222SOL    HW213674   6.888  10.334   0.483 -1.9618 -0.4112 -0.5973
37223SOL     OW13675   9.017   7.783  10.860  0.1692  0.1951  0.9942
37223SOL    HW113676   9.051   7.859  10.908 -0.6996  0.9918  0.3907
37223SOL    HW213677   9.029   7.806  10.768  1.7069 -1.2601  0.7832
37224SOL     OW13678   0.857  10.952   3.617  0.1541 -0.3558  0.2646
37224SOL    HW113679   0.890  11.008   3.547 -2.8362  2.2988  0.7685
37224SOL    HW213680   0.887  10.994   3.698  0.0743 -0.9879  0.6302
37225SOL     OW13681   1.276   2.104  10.283 -0.6655 -0.0673  0.4897
37225SOL    HW113682   1.276   2.166  10.356 -1.0924  0.5324 -0.0106
37225SOL    HW213683   1.201   2.130  10.229  0.5286  0.4618 -0.9794
37226SOL     OW13684   3.550   0.565   5.291  0.3945  0.1583  0.0696
37226SOL    HW113685   3.493   0.516   5.350  0.4058  0.8166  0.6478
37226SOL    HW213686   3.531   0.530   5.204 -1.0936  0.5449  0.2142
37227SOL     OW13687   4.574   2.662   5.118  0.1727 -0.2516  0.2816
37227SOL    HW113688   4.564   2.751   5.084  0.0521 -1.2772 -2.6842
37227SOL    HW213689   4.488   2.641   5.155 -0.7103 -0.0425 -1.5356
37228SOL     OW13690   0.745   0.877   4.535  0.2092  0.0931 -0.4717
37228SOL    HW113691   0.686   0.943   4.500  0.3820  0.5445  0.0839
37228SOL    HW213692   0.822   0.926   4.565  0.2360 -0.3269  0.1627
37229SOL     OW13693   8.080   8.619   4.019 -0.1607 -0.0571  0.1282
37229SOL    HW113694   8.127   8.541   3.989 -1.3217  0.3865 -3.1692
37229SOL    HW213695   8.143   8.690   4.011  1.0692 -0.5361  3.6269
37230SOL     OW13696   8.334   6.829   1.325 -0.1040  0.2002  0.0982
37230SOL    HW113697   8.382   6.906   1.296 -3.3081  2.1264 -0.5671
37230SOL    HW213698   8.319   6.779   1.245 -0.4479  0.3390  0.0777
37231SOL     OW13699  10.979   1.553   9.698  0.5335 -0.3739  0.1139
37231SOL    HW113700  11.046   1.487   9.715 -0.5677 -1.3975  0.6162
37231SOL    HW213701  10.907   1.529   9.756  0.6999  2.2514  1.5759
37232SOL     OW13702   3.430   3.162   5.740  0.8705  0.5157 -0.3256
37232SOL    HW113703   3.424   3.145   5.834  0.0316  0.3406 -0.3985
37232SOL    HW213704   3.370   3.236   5.726 -0.9195 -0.9874 -1.0743
37233SOL     OW13705   4.289   2.705   3.191 -0.6613 -0.1682  0.3846
37233SOL    HW113706   4.233   2.760   3.136 -1.3908 -0.0506  1.2298
37233SOL    HW213707   4.256   2.717   3.280  0.5779 -0.2642  0.8804
37234SOL     OW13708   7.932   9.911   7.664 -0.0355 -0.1202 -0.5606
37234SOL    HW113709   8.005   9.895   7.603  0.0779  0.6818 -0.6390
37234SOL    HW213710   7.901   9.823   7.687  1.8473 -0.5623  0.5480
37235SOL     OW13711   1.514   2.840  10.298 -0.1459  0.5589 -0.0770
37235SOL    HW113712   1.489   2.926  10.265 -0.4964  0.0753 -1.1459
37235SOL    HW213713   1.556   2.797  10.224  0.5271  0.0076  0.6078
37236SOL     OW13714   3.335   5.357   3.731 -0.5223 -0.5025 -0.0822
37236SOL    HW113715   3.273   5.290   3.758  0.4351 -0.8963  1.2725
37236SOL    HW213716   3.294   5.440   3.757 -1.3551 -0.6030 -1.0410
37237SOL     OW13717   6.908   1.813   8.875  0.1097  0.2384  0.4195
37237SOL    HW113718   6.887   1.856   8.792 -0.6338  2.5023  1.6789
37237SOL    HW213719   7.000   1.835   8.890  0.3684 -0.5400  0.0061
37238SOL     OW13720   7.874   9.612   7.233 -0.2044 -0.5909 -0.0064
37238SOL    HW113721   7.876   9.708   7.232  0.5868 -0.5992  0.1843
37238SOL    HW213722   7.880   9.588   7.140  0.8900 -0.4629  0.0166
37239SOL     OW13723   8.563  10.120   0.059  0.9862  0.6101  0.4309
37239SOL    HW113724   8.474  10.116   0.024  1.4909 -0.3523 -0.8255
37239SOL    HW213725   8.586  10.213   0.054 -0.1989  0.9862  1.4907
37240SOL     OW13726   9.282   8.330   9.359 -0.1813  0.5547 -0.2510
37240SOL    HW113727   9.323   8.359   9.441  0.6097  0.1767 -0.4954
37240SOL    HW213728   9.331   8.251   9.336 -1.9335 -0.7046  0.1378
37241SOL     OW13729   6.058   2.073   9.188  0.2316  0.4648  0.2093
37241SOL    HW113730   6.031   2.127   9.115 -0.4016 -2.4342 -1.8667
37241SOL    HW213731   5.981   2.020   9.209  0.9393  0.0040  1.8321
37242SOL     OW13732   2.995   1.860   7.297 -0.1677  0.0247 -0.2602
37242SOL    HW113733   3.089   1.874   7.289 -0.3788  0.7291 -1.6669
37242SOL    HW213734   2.962   1.939   7.339  0.1244 -1.2003  2.5656
37243SOL     OW13735  10.168   2.122   8.335  0.1373 -0.1584 -0.1439
37243SOL    HW113736  10.246   2.066   8.343 -0.7430 -1.3453  0.4564
37243SOL    HW213737  10.116   2.082   8.266 -0.9218 -0.6308  0.8914
37244SOL     OW13738   1.352   0.795   1.348  0.2490  0.0765 -0.1505
37244SOL    HW113739   1.293   0.842   1.290 -0.0819 -1.6975 -1.3331
37244SOL    HW213740   1.344   0.703   1.322  1.8749 -0.4963  1.1404
37245SOL     OW13741   7.913   0.174   8.800 -0.1932 -0.2827  0.3253
37245SOL    HW113742   7.929   0.171   8.706 -2.4827  1.7545 -0.2438
37245SOL    HW213743   7.890   0.265   8.818 -2.6219 -1.1530  2.2861
37246SOL     OW13744   6.901   7.649   5.608  0.1212 -0.3632  0.1306
37246SOL    HW113745   6.909   7.570   5.662 -1.1637 -1.1311 -0.7422
37246SOL    HW213746   6.928   7.622   5.521  0.5336  0.4091  0.0110
37247SOL     OW13747   0.164   0.658   5.517  0.1735 -0.1977  0.0097
37247SOL    HW113748   0.162   0.644   5.422  0.8858 -1.0183  0.1025
37247SOL    HW213749   0.132   0.576   5.554  1.4624 -0.5024  0.5111
37248SOL     OW13750   3.679   5.294   9.406  0.0294  0.2061 -0.3838
37248SOL    HW113751   3.691   5.269   9.315 -0.4889  0.1361 -0.4392
37248SOL    HW213752   3.585   5.283   9.421  0.0176  0.7852 -0.0125
37249SOL     OW13753  10.593   7.177   6.699  0.3723  0.1620  0.0171
37249SOL    HW113754  10.605   7.180   6.604  0.4581  0.8098  0.0449
37249SOL    HW213755  10.562   7.265   6.723 -1.5948 -0.5644  0.3368
37250SOL     OW13756   0.151   4.753   6.357 -0.4095  0.7280  0.0663
37250SOL    HW113757   0.147   4.769   6.263  1.2252 -0.5905 -0.2903
37250SOL    HW213758   0.196   4.829   6.393  1.8558 -0.1351 -0.7311
37251SOL     OW13759   4.651   0.568   2.516  0.4708  0.2206  0.1515
37251SOL    HW113760   4.621   0.486   2.478 -0.4611  0.4854  0.2932
37251SOL    HW213761   4.632   0.634   2.450  0.4501  0.4411  0.3748
37252SOL     OW13762   6.450   9.202   7.305 -0.2750 -0.3230  0.9844
37252SOL    HW113763   6.430   9.244   7.389 -0.8951 -0.5386  0.9525
37252SOL    HW213764   6.460   9.109   7.328  0.2728 -0.2763  0.9301
37253SOL     OW13765   3.176   8.573   4.331  0.1390 -0.3946 -0.8458
37253SOL    HW113766   3.167   8.502   4.395 -1.8146 -1.2353 -1.9610
37253SOL    HW213767   3.184   8.652   4.384  0.3985 -1.2534  0.4396
37254SOL     OW13768  10.880   4.173   9.876  0.2907 -0.1803  0.6661
37254SOL    HW113769  10.846   4.250   9.830 -0.1001  0.9383  2.6979
37254SOL    HW213770  10.803   4.136   9.920  1.0407  0.3096  2.4606
37255SOL     OW13771   5.450   5.234   9.682  0.2150  0.1329 -0.2287
37255SOL    HW113772   5.459   5.139   9.689 -2.0717 -0.1830 -0.7911
37255SOL    HW213773   5.502   5.268   9.754 -2.9952 -1.8191  3.4046
37256SOL     OW13774   9.782  10.475   9.012  0.1681 -0.2045 -0.1658
37256SOL    HW113775   9.835  10.536   9.064  0.4527 -1.0091  0.5047
37256SOL    HW213776   9.840  10.449   8.941 -0.8043  2.2947 -2.0300
37257SOL     OW13777  10.968   9.748   2.106 -0.1670 -0.5186 -0.2505
37257SOL    HW113778  10.913   9.674   2.131  0.4466 -1.4650 -1.5667
37257SOL    HW213779  11.003   9.782   2.188 -1.4950 -0.8486  0.4755
37258SOL     OW13780   8.821   5.429   9.706 -0.3991 -0.4175 -0.1512
37258SOL    HW113781   8.813   5.345   9.751  2.2094  0.1328  1.5399
37258SOL    HW213782   8.871   5.408   9.626 -2.0302 -0.8330 -1.1069
37259SOL     OW13783   0.754   7.611   0.061  0.3471  0.4981 -0.0072
37259SOL    HW113784   0.676   7.667   0.068  0.6139  1.0861 -1.3284
37259SOL    HW213785   0.816   7.664   0.011  1.0602 -0.5224 -0.2257
37260SOL     OW13786   5.954   0.195   4.068  0.0463 -0.0880  0.7613
37260SOL    HW113787   5.942   0.214   3.975 -0.2058  0.4547  0.9010
37260SOL    HW213788   5.971   0.280   4.108  1.4878 -0.4696  1.0174
37261SOL     OW13789   6.847   2.475   7.956  0.2183 -0.2760 -0.4518
37261SOL    HW113790   6.893   2.554   7.984  0.6363 -0.6434 -0.0863
37261SOL    HW213791   6.894   2.447   7.877  1.5611 -1.4345  0.6864
37262SOL     OW13792  10.455   4.212   1.620 -0.1880 -0.0863 -0.4198
37262SOL    HW113793  10.454   4.164   1.703  0.4275 -0.0797 -0.4027
37262SOL    HW213794  10.363   4.229   1.601 -0.3020  0.7586  0.7504
37263SOL     OW13795   7.105  10.770   7.490 -0.0728 -0.2805  0.3880
37263SOL    HW113796   7.062  10.845   7.531 -0.5141  0.2932 -1.0600
37263SOL    HW213797   7.038  10.732   7.433  1.1750  0.4419 -1.6749
37264SOL     OW13798   8.631   8.586   8.044  0.3504 -0.0126 -0.2281
37264SOL    HW113799   8.632   8.586   7.948 -0.9081 -0.1435 -0.2586
37264SOL    HW213800   8.723   8.586   8.069  0.6948 -0.4762 -1.4360
37265SOL     OW13801   6.504   1.627   7.887 -0.4554  0.3027  0.7724
37265SOL    HW113802   6.540   1.638   7.975 -0.8449  0.2035  0.9475
37265SOL    HW213803   6.451   1.547   7.893  0.2804 -0.2347  0.1962
37266SOL     OW13804   6.911   2.193   1.668 -0.5765 -0.0008  0.2217
37266SOL    HW113805   6.847   2.193   1.598 -1.4178 -0.4462  0.9605
37266SOL    HW213806   6.962   2.113   1.654 -0.3671  0.2030 -0.1973
37267SOL     OW13807   6.298   8.783   8.544  0.8301 -0.3455  0.7577
37267SOL    HW113808   6.345   8.824   8.471 -0.1647 -0.2180  0.1594
37267SOL    HW213809   6.315   8.840   8.619 -0.5166  1.2171 -0.0509
37268SOL     OW13810   7.211   0.370   3.949  0.2902 -0.1040  0.0504
37268SOL    HW113811   7.170   0.446   3.992 -2.6674 -1.6440  0.2365
37268SOL    HW213812   7.176   0.371   3.860  0.1735 -1.2712  0.0733
37269SOL     OW13813   7.986  10.240   9.647 -0.8855 -0.3116 -0.0881
37269SOL    HW113814   7.985  10.255   9.553 -0.5699 -0.4769 -0.1199
37269SOL    HW213815   7.994  10.328   9.685  0.3062 -0.3300 -0.2575
37270SOL     OW13816   1.740   3.707  10.520  0.6487 -0.7460 -0.4091
37270SOL    HW113817   1.666   3.766  10.515  1.6236  0.3966 -2.0597
37270SOL    HW213818   1.788   3.735  10.599 -0.1595 -0.9218  0.1565
37271SOL     OW13819   0.508   7.642   5.431 -0.2212  0.2325  0.5026
37271SOL    HW113820   0.429   7.643   5.485  0.5911 -2.0131  1.8845
37271SOL    HW213821   0.551   7.724   5.451 -1.4918  0.8436  0.8469
37272SOL     OW13822   3.834   2.377   6.518 -1.0053  0.4176 -0.1045
37272SOL    HW113823   3.916   2.356   6.563 -1.4437  3.1182  2.1988
37272SOL    HW213824   3.862   2.406   6.431  0.3465 -0.0418  0.1537
37273SOL     OW13825   2.840   7.233  10.905 -0.4598 -0.2670 -0.0262
37273SOL    HW113826   2.909   7.224  10.971 -0.0625 -0.8522 -0.5080
37273SOL    HW213827   2.786   7.155  10.916 -0.5998 -0.1878 -0.1573
37274SOL     OW13828   3.268   1.797   8.278 -0.7548  0.0166 -0.3438
37274SOL    HW113829   3.287   1.774   8.187  0.1099 -2.1479  0.3061
37274SOL    HW213830   3.225   1.719   8.314 -1.7175  1.0870  0.9336
37275SOL     OW13831   2.068   0.741   3.196  0.6445  0.4326 -0.0558
37275SOL    HW113832   2.119   0.736   3.277  0.7860 -0.0250 -0.1718
37275SOL    HW213833   2.116   0.687   3.133 -0.4988 -0.8671  0.1154
37276SOL     OW13834   9.311   1.722   9.170 -0.3641 -0.0335  0.0557
37276SOL    HW113835   9.297   1.718   9.076 -0.7234 -2.2251  0.1562
37276SOL    HW213836   9.312   1.630   9.199  1.7172  0.4582  1.8975
37277SOL     OW13837  11.007  10.619   5.712  0.3725 -0.1766  0.1828
37277SOL    HW113838  11.046  10.701   5.742 -2.3698  1.0316  0.7541
37277SOL    HW213839  11.063  10.551   5.749  2.9080  1.3686 -0.5397
37278SOL     OW13840   9.013   0.627   8.641 -0.5732 -0.0983 -0.0541
37278SOL    HW113841   8.949   0.574   8.689 -1.3709 -0.7316 -1.7349
37278SOL    HW213842   9.011   0.592   8.552  1.5277  0.4241 -0.3615
37279SOL     OW13843   6.252   1.375   4.267  0.2280 -0.1376 -0.5663
37279SOL    HW113844   6.338   1.390   4.307 -0.4774  4.3513 -0.2263
37279SOL    HW213845   6.192   1.365   4.340 -0.4055  3.6250 -0.4200
37280SOL     OW13846  10.419   0.412   5.551  0.2658  0.3730  0.0373
37280SOL    HW113847  10.418   0.457   5.466 -2.3230  0.7081  0.1706
37280SOL    HW213848  10.492   0.452   5.598 -0.3545  2.6381 -0.7935
37281SOL     OW13849   1.152   1.343   1.222  0.1349 -0.2267 -0.0291
37281SOL    HW113850   1.185   1.281   1.157  0.6109  0.1452 -0.1522
37281SOL    HW213851   1.123   1.289   1.295 -1.8884 -0.7588 -1.1692
37282SOL     OW13852  10.359   6.581   3.656  0.0638  0.1266  0.2343
37282SOL    HW113853  10.268   6.586   3.626 -0.1356 -0.1901  0.7758
37282SOL    HW213854  10.352   6.582   3.751  0.6850  1.0415  0.2748
37283SOL     OW13855   5.216   3.741   4.065 -0.1676 -0.1503  0.2043
37283SOL    HW113856   5.149   3.791   4.112 -0.6572  0.5770 -1.2052
37283SOL    HW213857   5.296   3.792   4.075  0.3787 -1.3432  2.4323
37284SOL     OW13858   1.018   9.884   1.598  0.6094  0.2093  0.4838
37284SOL    HW113859   1.002   9.801   1.643  0.9623  0.2725  0.7240
37284SOL    HW213860   0.982   9.871   1.510 -3.2946  1.1947  1.7080
37285SOL     OW13861  11.032   2.484   8.501  0.6588  0.3058 -0.6416
37285SOL    HW113862  11.079   2.485   8.417  3.0016 -0.5795  0.5671
37285SOL    HW213863  11.057   2.401   8.541 -2.0278 -0.2134  0.1319
37286SOL     OW13864   2.996   9.588   9.642 -0.1631 -0.6898 -0.5580
37286SOL    HW113865   3.090   9.600   9.633 -0.1975 -0.6497 -0.8556
37286SOL    HW213866   2.984   9.559   9.733  0.2337 -1.7500 -0.8341
37287SOL     OW13867  11.031   7.131   6.300  0.3736  0.9258  0.9329
37287SOL    HW113868  11.065   7.205   6.350  1.6845 -0.0705  1.5629
37287SOL    HW213869  11.064   7.054   6.345 -1.1750 -0.0707  0.4358
37288SOL     OW13870   5.650   4.041   0.079  0.1504  0.1619 -0.0151
37288SOL    HW113871   5.722   4.103   0.089  0.2965 -0.2149  1.3828
37288SOL    HW213872   5.614   4.030   0.167 -2.4936  1.3552 -0.8198
37289SOL     OW13873   9.477   8.210   7.858 -0.5075  0.0765 -0.1103
37289SOL    HW113874   9.565   8.243   7.839 -0.0331 -2.1762 -2.4647
37289SOL    HW213875   9.482   8.116   7.837 -3.0787 -0.4376  1.2320
37290SOL     OW13876   1.463   8.040   8.060  0.1115  0.2761  0.4161
37290SOL    HW113877   1.516   8.096   8.116  2.1447 -0.4009 -0.7068
37290SOL    HW213878   1.401   7.998   8.119  2.0896 -0.3326  2.1718
37291SOL     OW13879   6.702   1.334   9.370 -0.8061 -0.4733 -0.2076
37291SOL    HW113880   6.632   1.347   9.434 -1.5843 -0.9945 -0.9271
37291SOL    HW213881   6.656   1.332   9.286  0.0044 -1.4700 -0.6379
37292SOL     OW13882   0.271   4.786   2.961 -0.5921  0.1970  0.1792
37292SOL    HW113883   0.314   4.858   2.915 -2.4522  1.3958  0.2308
37292SOL    HW213884   0.181   4.815   2.973 -0.7527 -1.0672  2.5432
37293SOL     OW13885   0.178   4.672   9.076  0.6031 -0.0133  0.0501
37293SOL    HW113886   0.145   4.740   9.017  2.3464  1.1668  0.3790
37293SOL    HW213887   0.232   4.616   9.020 -0.0501 -0.5835 -0.0232
37294SOL     OW13888   4.041   3.734   1.719  0.6314  0.2742 -0.0027
37294SOL    HW113889   3.972   3.669   1.707  0.2578  0.2711  1.8733
37294SOL    HW213890   4.122   3.683   1.716  0.4051 -0.1121  0.3182
37295SOL     OW13891   1.257   4.112   3.994 -0.4627 -0.6959 -0.1708
37295SOL    HW113892   1.238   4.029   3.951 -1.8938  0.3876 -1.7348
37295SOL    HW213893   1.172   4.145   4.023 -0.2843  1.3148 -1.7030
37296SOL     OW13894  10.709   3.816   1.012 -0.0545  0.0404 -0.3783
37296SOL    HW113895  10.803   3.829   1.006  0.0035  0.4251  0.9703
37296SOL    HW213896  10.698   3.721   1.025  0.1350 -0.0165 -0.6319
37297SOL     OW13897   6.539   1.513   3.350  0.0135 -0.4863 -0.1628
37297SOL    HW113898   6.577   1.496   3.436 -0.1099 -0.0460 -0.0237
37297SOL    HW213899   6.612   1.500   3.289  1.1634  2.9576  0.2836
37298SOL     OW13900   1.735   6.646  10.332  0.5536 -0.0737 -0.1534
37298SOL    HW113901   1.684   6.634  10.252  0.4054  0.4776 -0.1435
37298SOL    HW213902   1.693   6.589  10.396  0.9879 -0.9291 -0.5998
37299SOL     OW13903   8.268   0.937  11.001 -0.0409  0.4450  0.3217
37299SOL    HW113904   8.192   0.920  11.057 -0.1042  0.6586  0.2994
37299SOL    HW213905   8.244   1.014  10.950  0.0990  0.3753  0.1475
37300SOL     OW13906   7.784   2.927  10.532  0.3882  0.1874  0.5123
37300SOL    HW113907   7.775   2.833  10.546  0.8843 -0.0902 -0.8202
37300SOL    HW213908   7.739   2.943  10.448 -0.8381  1.3781  1.3556
37301SOL     OW13909   6.417   0.965   1.330  0.5048 -0.1599  0.3902
37301SOL    HW113910   6.434   1.026   1.403  0.8099 -0.6165  0.7066
37301SOL    HW213911   6.411   1.021   1.253  3.4972  0.0771  0.2242
37302SOL     OW13912  10.875   2.888   4.971  0.5037  0.8881 -0.3012
37302SOL    HW113913  10.813   2.842   4.914  0.3467  1.0516 -0.2607
37302SOL    HW213914  10.938   2.928   4.911 -0.6707  2.5780 -0.4729
37303SOL     OW13915  10.584   9.995  10.525  0.0846 -0.3592  0.0984
37303SOL    HW113916  10.605  10.068  10.582  0.4250  0.4966 -1.0868
37303SOL    HW213917  10.554  10.035  10.444 -0.2787 -1.5429 -0.3840
37304SOL     OW13918   7.337   4.832   6.166  0.1003 -0.2594 -0.0575
37304SOL    HW113919   7.345   4.879   6.083 -0.7437  0.8056  0.4453
37304SOL    HW213920   7.428   4.819   6.194  0.5341 -2.6458 -2.1947
37305SOL     OW13921   1.611   2.138   5.911 -0.8265  0.4841 -0.2091
37305SOL    HW113922   1.672   2.204   5.877  1.2787 -0.6846  1.0100
37305SOL    HW213923   1.527   2.183   5.914  0.4921  3.1750  0.6205
37306SOL     OW13924   5.767   1.657  10.669  0.2465 -0.5771 -0.1728
37306SOL    HW113925   5.755   1.709  10.748  1.4893  2.1501 -1.6406
37306SOL    HW213926   5.681   1.658  10.626  0.5590  1.5819 -0.8587
37307SOL     OW13927   8.291   8.025   0.689 -0.1491 -0.3141 -0.0758
37307SOL    HW113928   8.218   8.071   0.649  1.0487 -0.0330 -2.0525
37307SOL    HW213929   8.302   8.067   0.774 -1.0258  0.9608 -0.5672
37308SOL     OW13930   6.595   5.403   6.772 -0.2551 -0.4579  0.3208
37308SOL    HW113931   6.672   5.430   6.822  0.2842 -2.5245  0.7299
37308SOL    HW213932   6.521   5.422   6.830 -0.1864  2.1832 -0.3545
37309SOL     OW13933   2.806   9.555   1.794  0.5042  0.6609 -0.2199
37309SOL    HW113934   2.746   9.615   1.749  1.1624  0.3685 -1.5308
37309SOL    HW213935   2.893   9.587   1.771  0.8648  0.0269  0.2353
37310SOL     OW13936   6.097   3.897   1.929  0.1227 -0.2905  0.3228
37310SOL    HW113937   6.133   3.959   1.866 -1.8904  1.6341  0.9267
37310SOL    HW213938   6.149   3.911   2.008  0.4496 -0.2312  0.0997
37311SOL     OW13939   6.179   2.161   7.590  0.3568  0.2817  0.4201
37311SOL    HW113940   6.232   2.202   7.658 -1.7482  1.0968  1.6508
37311SOL    HW213941   6.104   2.124   7.636 -1.6815  1.7413 -1.4847
37312SOL     OW13942   5.079   1.079   4.582 -0.1568  0.0132  0.4318
37312SOL    HW113943   5.100   1.060   4.673 -0.0699 -0.7344  0.2643
37312SOL    HW213944   5.080   1.174   4.576  2.3884  0.0710  0.6435
37313SOL     OW13945   0.751   2.368   6.341 -0.0762  0.1591  0.8766
37313SOL    HW113946   0.656   2.372   6.332 -0.0252 -0.9663 -0.4905
37313SOL    HW213947   0.781   2.324   6.261  1.4949 -0.6644  1.8660
37314SOL     OW13948  10.268   8.079   6.140  0.1499 -0.1584  0.3449
37314SOL    HW113949  10.261   8.165   6.181 -2.0469 -0.6360  1.0915
37314SOL    HW213950  10.265   8.017   6.213  3.1740 -0.9279 -0.0326
37315SOL     OW13951   8.337   0.163   6.157  0.4281 -0.2177  0.3055
37315SOL    HW113952   8.308   0.105   6.086  1.8327 -1.0071  0.3502
37315SOL    HW213953   8.348   0.248   6.116  2.3701 -0.9231 -0.7352
37316SOL     OW13954   5.416   5.494   0.748 -0.8952  0.2672  0.3313
37316SOL    HW113955   5.325   5.476   0.725 -0.2695 -0.4762 -1.7682
37316SOL    HW213956   5.456   5.527   0.668  0.2814  2.3933  1.6824
37317SOL     OW13957   0.616   8.450   7.198  0.1424 -0.3297 -0.4025
37317SOL    HW113958   0.695   8.414   7.237 -0.3603 -1.7453 -0.6290
37317SOL    HW213959   0.574   8.375   7.154 -2.4702 -0.1832  1.5864
37318SOL     OW13960   5.536   7.849   2.755  0.6618  0.4550  0.1763
37318SOL    HW113961   5.504   7.938   2.766  0.5101  0.6311 -1.4678
37318SOL    HW213962   5.457   7.797   2.736  0.7289 -0.0741  1.2616
37319SOL     OW13963   7.176  10.810   9.802 -0.8782 -0.1321  0.1436
37319SOL    HW113964   7.115  10.832   9.731  0.1062 -1.7372 -1.2760
37319SOL    HW213965   7.158  10.718   9.822 -0.0385 -0.1583  0.8347
37320SOL     OW13966  11.078   8.471   1.997  1.0358  0.0610  0.4084
37320SOL    HW113967  11.049   8.396   2.049 -0.3084 -0.7517 -1.3806
37320SOL    HW213968  11.001   8.497   1.947  1.7049  2.1295  0.3335
37321SOL     OW13969   3.680   8.824   4.639  0.3170 -0.3267 -0.1117
37321SOL    HW113970   3.661   8.736   4.672 -1.1403  0.3858  1.1246
37321SOL    HW213971   3.670   8.881   4.716 -1.7871  1.2571 -1.4302
37322SOL     OW13972   4.483   6.878  10.417  0.1227  0.5109 -0.2571
37322SOL    HW113973   4.549   6.830  10.367  0.2677  1.0636 -0.6109
37322SOL    HW213974   4.419   6.907  10.352 -0.3767  0.1338  0.0603
37323SOL     OW13975   8.208   3.408  10.166 -0.1421  0.4226 -0.0549
37323SOL    HW113976   8.251   3.404  10.252 -1.4393  1.2397  0.6679
37323SOL    HW213977   8.197   3.502  10.149  1.5948  0.3532 -1.9314
37324SOL     OW13978   5.995   1.418  11.079  0.1257 -0.0147  0.1170
37324SOL    HW113979   5.982   1.377  10.994  0.1120 -0.1715  0.1943
37324SOL    HW213980   6.090   1.412  11.094 -0.0075 -1.0006  0.6187
37325SOL     OW13981   6.760   1.069   7.544  0.3732 -0.3594 -0.7795
37325SOL    HW113982   6.826   1.028   7.487  0.8558  0.6376 -0.9557
37325SOL    HW213983   6.792   1.053   7.633  0.1040 -1.1118 -0.8139
37326SOL     OW13984   1.067  11.094   2.020 -0.3761  0.3704  0.7950
37326SOL    HW113985   1.143  11.099   1.962 -0.6671 -0.0858  0.3738
37326SOL    HW213986   1.084  11.018   2.076  0.3291  1.3322  1.9252
37327SOL     OW13987   1.339   2.817   3.887  0.3342 -0.7710 -0.4161
37327SOL    HW113988   1.284   2.875   3.835  0.4519  2.3144  2.5379
37327SOL    HW213989   1.279   2.751   3.923 -0.8147  0.4398 -0.0459
37328SOL     OW13990   6.843   3.218   4.550  0.2947 -0.0145 -0.1051
37328SOL    HW113991   6.832   3.303   4.593  1.2742 -0.2477  0.6662
37328SOL    HW213992   6.863   3.239   4.459 -1.0229  0.5223 -0.2801
37329SOL     OW13993  10.353   2.276   9.301 -0.4358 -0.2439 -0.1731
37329SOL    HW113994  10.262   2.282   9.329 -0.3945  0.0842 -0.1064
37329SOL    HW213995  10.396   2.224   9.369 -0.5905 -0.4794 -0.2527
37330SOL     OW13996   8.586   1.800   8.183  0.1096  0.2279  0.2036
37330SOL    HW113997   8.561   1.709   8.199  1.2734 -0.2057 -0.2994
37330SOL    HW213998   8.642   1.795   8.105 -0.2388  1.4429 -0.1345
37331SOL     OW13999   5.921   4.983   2.095  0.1918  0.0620 -0.3097
37331SOL    HW114000   5.843   5.037   2.085 -1.2483 -1.0761  3.0840
37331SOL    HW214001   5.977   5.033   2.155 -0.0879 -1.0949  0.9619
37332SOL     OW14002   0.164   3.072   2.148  0.2918 -0.4202  0.1915
37332SOL    HW114003   0.142   3.150   2.197 -0.0294 -0.8519  0.7379
37332SOL    HW214004   0.112   3.002   2.187  0.9239 -1.0043  0.0279
37333SOL     OW14005   5.844   5.448   2.783  0.6262 -0.1952  0.0035
37333SOL    HW114006   5.906   5.434   2.712 -0.0271 -0.9176 -0.4326
37333SOL    HW214007   5.860   5.538   2.811  2.8285 -0.7831  0.8393
37334SOL     OW14008   5.840  10.503   6.843  0.1365  0.3908  0.3312
37334SOL    HW114009   5.901  10.454   6.788  2.0545  2.9684 -0.0187
37334SOL    HW214010   5.760  10.507   6.791 -0.1558 -2.2743  0.4064
37335SOL     OW14011   8.039   7.954  11.038 -0.5449  0.0498  0.6159
37335SOL    HW114012   8.045   7.866  11.000  1.3232  0.3194  0.1771
37335SOL    HW214013   8.102   8.006  10.987 -1.0200  1.4427  1.4015
37336SOL     OW14014   5.345   4.510   8.891  0.0275 -0.1151 -0.3926
37336SOL    HW114015   5.274   4.562   8.928 -0.7986 -0.8403 -0.9203
37336SOL    HW214016   5.398   4.573   8.842 -1.2553  0.1714 -1.4752
37337SOL     OW14017   8.039   3.208   9.307 -0.4290  0.0721 -0.0740
37337SOL    HW114018   7.988   3.153   9.368  1.0087 -0.1463  0.9880
37337SOL    HW214019   8.075   3.277   9.362  3.2384 -1.6737  0.0490
37338SOL     OW14020   2.857  10.278   2.742  0.1400 -0.0301  0.4012
37338SOL    HW114021   2.824  10.326   2.665 -1.7064 -1.9581 -0.1063
37338SOL    HW214022   2.805  10.311   2.815  2.0908  2.0111  0.9810
37339SOL     OW14023   6.916   3.520   7.731  0.3700  0.1341 -0.0187
37339SOL    HW114024   6.916   3.614   7.749 -0.9327 -0.0665  1.1671
37339SOL    HW214025   6.991   3.486   7.780  0.0189  0.3571  0.6726
37340SOL     OW14026  10.991   3.826   1.359 -0.2353  0.8016 -0.1618
37340SOL    HW114027  10.981   3.754   1.421 -1.0717  1.4449  0.4808
37340SOL    HW214028  11.085   3.846   1.360 -0.2895  1.1380  1.3249
37341SOL     OW14029   8.331   0.894   6.662  0.2927 -0.0653 -0.5339
37341SOL    HW114030   8.317   0.966   6.601  5.6297  1.5451 -0.4312
37341SOL    HW214031   8.360   0.821   6.607 -0.5874 -0.6291 -0.2734
37342SOL     OW14032  10.658   6.147   4.750 -0.5425 -0.2256  0.1211
37342SOL    HW114033  10.674   6.169   4.658  1.4639 -0.4138  0.3716
37342SOL    HW214034  10.668   6.231   4.796  3.9061 -0.8290  0.7038
37343SOL     OW14035   7.506   5.542   1.702 -0.1861 -0.4487  0.5343
37343SOL    HW114036   7.483   5.629   1.672  0.3453 -0.5292 -0.1200
37343SOL    HW214037   7.594   5.552   1.738 -0.2403 -0.6572  0.7267
37344SOL     OW14038   2.107   1.235   2.446  0.1249 -0.0029  0.3337
37344SOL    HW114039   2.017   1.203   2.453 -0.2562  0.6835 -1.1030
37344SOL    HW214040   2.100   1.329   2.462  0.5423  0.0993 -0.0838
37345SOL     OW14041   5.693   4.366   1.562 -0.4483  0.4406 -0.0315
37345SOL    HW114042   5.691   4.425   1.488 -0.2166 -0.7886 -1.0568
37345SOL    HW214043   5.661   4.283   1.527 -0.0960 -0.2275  1.1738
37346SOL     OW14044   2.466  10.265   0.024 -0.4233 -0.3302  0.2095
37346SOL    HW114045   2.407  10.300   0.091 -0.0997 -0.5210  0.6054
37346SOL    HW214046   2.548  10.250   0.071 -0.0826 -0.1387 -0.3134
37347SOL     OW14047   4.295   7.278  10.413 -1.0270  0.9639 -0.8658
37347SOL    HW114048   4.263   7.310  10.329 -1.9950 -1.9557 -1.7518
37347SOL    HW214049   4.223   7.224  10.446  0.1791  0.2786  0.7593
37348SOL     OW14050   0.305   3.353   9.169  0.4252 -0.0495 -0.1440
37348SOL    HW114051   0.368   3.303   9.118  1.0024 -0.3869  0.8601
37348SOL    HW214052   0.285   3.297   9.244 -0.5293  0.3542 -0.0793
37349SOL     OW14053   8.782   5.663   0.554 -0.1721 -0.1165  0.1895
37349SOL    HW114054   8.799   5.569   0.559 -1.4571 -0.3113  2.3815
37349SOL    HW214055   8.813   5.689   0.468 -0.0634 -2.6057 -0.5914
37350SOL     OW14056   9.116   0.054   0.061 -0.1094 -0.0642 -0.6216
37350SOL    HW114057   9.043   0.042  -0.000 -0.7111  0.3152  0.0003
37350SOL    HW214058   9.116  -0.026   0.113  0.2045 -0.2534 -0.9106
37351SOL     OW14059   0.841   1.980   3.176  0.3292  0.1393  0.4718
37351SOL    HW114060   0.880   1.959   3.091  1.3249  0.3957  0.8477
37351SOL    HW214061   0.747   1.969   3.163  0.3750  1.1890 -0.9525
37352SOL     OW14062   4.322  10.585   3.778 -0.1373 -0.2441  0.1529
37352SOL    HW114063   4.398  10.601   3.835 -0.4589  3.0419 -0.1816
37352SOL    HW214064   4.358  10.583   3.690 -0.2040 -0.7461  0.1343
37353SOL     OW14065   5.528   6.368  10.318  0.0529  0.2926  0.0898
37353SOL    HW114066   5.587   6.312  10.369  1.0353  0.0351 -1.2605
37353SOL    HW214067   5.495   6.311  10.248  0.4579  1.1707 -0.8482
37354SOL     OW14068  10.037   7.807   8.499 -0.0734 -0.5339 -0.4287
37354SOL    HW114069   9.970   7.862   8.459  0.6389 -0.3256 -1.3810
37354SOL    HW214070  10.071   7.859   8.572 -1.3404 -0.8855  0.4289
37355SOL     OW14071   3.102   3.558   3.362 -0.0280  0.0711 -0.1591
37355SOL    HW114072   3.041   3.507   3.309  0.6587 -0.0949 -0.8131
37355SOL    HW214073   3.108   3.510   3.445 -0.0893 -0.4068 -0.4288
37356SOL     OW14074   0.835   8.291   7.738 -0.1192 -0.0807  0.3881
37356SOL    HW114075   0.813   8.306   7.646  0.8351 -0.4038  0.0992
37356SOL    HW214076   0.778   8.351   7.787 -1.1702 -0.4445 -0.3684
37357SOL     OW14077   5.227   7.458  10.357  0.0308  0.1984  0.2474
37357SOL    HW114078   5.322   7.460  10.353 -0.0058  0.7366 -0.6542
37357SOL    HW214079   5.201   7.392  10.293 -0.1580 -1.5032  1.9848
37358SOL     OW14080   9.175   9.812   7.747 -0.0666  0.3468  0.0645
37358SOL    HW114081   9.255   9.863   7.758  1.1940 -1.1610 -1.4853
37358SOL    HW214082   9.197   9.726   7.783 -0.0165 -0.9000 -2.7079
37359SOL     OW14083   5.814   6.455   0.294 -0.0798  0.0425  0.0151
37359SOL    HW114084   5.845   6.510   0.222  0.1480 -0.3059 -0.1536
37359SOL    HW214085   5.726   6.489   0.314 -0.3724 -0.2091 -0.7904
37360SOL     OW14086  10.179   7.876   7.958  0.3218  0.0640  0.0226
37360SOL    HW114087  10.272   7.853   7.960  0.1998 -0.7136 -1.5632
37360SOL    HW214088  10.137   7.813   8.017  0.8069  0.4226  0.7467
37361SOL     OW14089  10.534   3.133   5.887 -0.1726 -0.4971  0.3265
37361SOL    HW114090  10.535   3.137   5.982 -2.3096 -0.7379  0.4263
37361SOL    HW214091  10.588   3.057   5.865 -0.9824 -1.4592  1.4841
37362SOL     OW14092   3.960   2.384  10.811 -0.4009  0.0580 -0.6336
37362SOL    HW114093   3.990   2.321  10.876 -0.2908 -0.2962 -1.0211
37362SOL    HW214094   4.005   2.465  10.833 -1.1309  0.2187  0.3357
37363SOL     OW14095  10.266   8.346   1.974 -0.1930  0.0618  0.2603
37363SOL    HW114096  10.293   8.279   2.037 -1.2060  1.9013  2.8368
37363SOL    HW214097  10.185   8.312   1.936  0.2005 -0.8911  0.2437
37364SOL     OW14098   5.980   2.175   8.223  0.2318 -0.5492  0.0201
37364SOL    HW114099   6.013   2.182   8.134  0.1600  1.0352  0.0976
37364SOL    HW214100   5.918   2.101   8.219 -0.9682  0.4564 -1.6441
37365SOL     OW14101  10.910  10.595   2.129 -0.2829 -0.0828 -0.0964
37365SOL    HW114102  10.854  10.654   2.079  0.0948  0.7476  0.4419
37365SOL    HW214103  10.964  10.552   2.063 -2.7916 -2.3669 -0.8706
37366SOL     OW14104   0.788  10.541   6.178 -0.4792  0.0085  0.0793
37366SOL    HW114105   0.818  10.573   6.093 -1.5053 -1.0664 -0.7199
37366SOL    HW214106   0.728  10.608   6.209 -2.8093 -1.1186 -1.6966
37367SOL     OW14107  10.810   5.245   4.439  0.0002 -0.2656  0.4260
37367SOL    HW114108  10.726   5.216   4.475 -1.4660  1.6583 -1.1916
37367SOL    HW214109  10.788   5.279   4.352  2.2567  1.4538  0.4416
37368SOL     OW14110   5.239   2.589   0.474  0.4075  0.2199  0.0141
37368SOL    HW114111   5.325   2.567   0.511 -0.0229  0.0872  0.9706
37368SOL    HW214112   5.215   2.671   0.518  0.0005  0.1984 -0.1698
37369SOL     OW14113   0.473   3.587  11.042  0.6335 -0.0530 -0.0807
37369SOL    HW114114   0.456   3.498  11.012 -1.1735 -0.8502  2.9143
37369SOL    HW214115   0.397   3.637  11.012  0.4156 -0.1081  0.3756
37370SOL     OW14116   3.155   4.788   2.381  0.0037 -0.3292  0.3443
37370SOL    HW114117   3.110   4.872   2.375 -0.0407 -0.3775 -0.0460
37370SOL    HW214118   3.180   4.780   2.473  3.3246  1.8752 -0.1682
37371SOL     OW14119   6.080   6.618  10.722  0.5885 -0.7142  0.5076
37371SOL    HW114120   6.015   6.581  10.782 -1.2523  0.4906 -0.6604
37371SOL    HW214121   6.057   6.710  10.714  3.7724  0.3465  1.6712
37372SOL     OW14122   5.499   3.265  10.586 -0.6072  0.0800  0.0025
37372SOL    HW114123   5.475   3.238  10.497  2.8174 -0.1092 -1.0015
37372SOL    HW214124   5.510   3.183  10.634 -0.0293  0.0628 -0.1487
37373SOL     OW14125   7.166   0.312   5.560 -0.2372  0.0439 -0.1077
37373SOL    HW114126   7.247   0.295   5.512  0.3101 -0.2971  0.9124
37373SOL    HW214127   7.130   0.391   5.518  0.0545 -0.4096 -1.2640
37374SOL     OW14128   4.056   2.773  10.163 -0.0639  0.1265 -0.5767
37374SOL    HW114129   3.973   2.742  10.198  0.6263  0.3028  1.3409
37374SOL    HW214130   4.107   2.798  10.240  1.5222  0.6573 -1.7358
37375SOL     OW14131   9.268   8.595   8.965  0.0608  0.1927 -0.2064
37375SOL    HW114132   9.237   8.682   8.937 -0.8548 -0.0349  0.0554
37375SOL    HW214133   9.196   8.560   9.017  0.3299 -0.8262 -0.4986
37376SOL     OW14134   5.554   7.972   6.653 -0.3542  0.2281  0.0926
37376SOL    HW114135   5.488   8.039   6.671 -0.2246  0.4782 -0.3394
37376SOL    HW214136   5.504   7.892   6.639 -0.4937  0.1553  0.9258
37377SOL     OW14137  11.018   9.397   1.253  0.5594  0.2895 -0.1014
37377SOL    HW114138  10.944   9.373   1.308  0.5685 -0.7991 -0.5523
37377SOL    HW214139  10.980   9.456   1.187  0.5034  1.3961  0.8885
37378SOL     OW14140   0.646   7.766   6.850 -0.5866  0.1841 -0.2278
37378SOL    HW114141   0.611   7.763   6.761 -0.0126 -1.8629 -0.4306
37378SOL    HW214142   0.577   7.809   6.902 -1.0177  1.2037 -1.5941
37379SOL     OW14143   2.078   9.776   8.476 -0.3250 -0.0702 -0.8277
37379SOL    HW114144   2.139   9.703   8.462 -1.2802 -1.2666  0.7990
37379SOL    HW214145   2.101   9.810   8.562 -0.6236  0.8182 -1.0887
37380SOL     OW14146   9.080   9.974   1.747  0.3338 -0.1012 -0.0671
37380SOL    HW114147   9.019   9.935   1.683  2.2584 -1.2056 -1.3110
37380SOL    HW214148   9.068   9.921   1.826 -1.3179  0.6216  0.2270
37381SOL     OW14149   9.749   0.516   0.718 -0.0729  0.5252  0.3169
37381SOL    HW114150   9.660   0.489   0.693 -0.3198 -0.3252  1.9842
37381SOL    HW214151   9.736   0.596   0.769  0.2987  1.3834 -0.8843
37382SOL     OW14152  10.988  10.486   3.097  0.0379  0.0221 -0.1967
37382SOL    HW114153  11.011  10.567   3.052  0.8368  0.2799  0.6468
37382SOL    HW214154  10.918  10.512   3.157 -0.3771 -0.1265 -0.6097
37383SOL     OW14155   4.098   1.216   4.422 -0.1892  0.0114  0.3222
37383SOL    HW114156   4.085   1.301   4.463 -0.3864  0.4620 -0.6444
37383SOL    HW214157   4.192   1.199   4.430 -0.2823 -0.0729  1.2609
37384SOL     OW14158   8.663   4.322   5.599 -0.4301 -0.1936 -0.0331
37384SOL    HW114159   8.707   4.243   5.629 -0.3990 -0.8558 -1.7479
37384SOL    HW214160   8.691   4.333   5.508 -0.2231  1.9525  0.2346
37385SOL     OW14161   7.149   8.551   6.350 -0.1692  0.1833  1.0480
37385SOL    HW114162   7.084   8.621   6.336 -0.2059  0.2022  1.3188
37385SOL    HW214163   7.195   8.577   6.429 -0.6004 -0.4219  1.5045
37386SOL     OW14164   0.598   1.433   7.996  0.4438 -0.6112 -0.0550
37386SOL    HW114165   0.512   1.452   8.032  0.5405 -0.5828  0.1606
37386SOL    HW214166   0.642   1.518   7.991  0.8874 -0.7751  0.9438
37387SOL     OW14167  10.853   1.198   2.742  0.2449  0.9451 -0.0528
37387SOL    HW114168  10.923   1.133   2.746 -0.7196 -0.2558 -1.3394
37387SOL    HW214169  10.816   1.198   2.831 -0.4252 -1.1284 -0.2631
37388SOL     OW14170   8.144   6.666   7.437  0.0570  0.0134  0.1730
37388SOL    HW114171   8.058   6.672   7.477  1.0518  3.5264  2.2452
37388SOL    HW214172   8.194   6.608   7.494 -0.0575  0.6344  0.9170
37389SOL     OW14173   0.488   1.227  10.679  0.6531  0.2358  0.2083
37389SOL    HW114174   0.505   1.204  10.588 -0.4075 -0.2195  0.1097
37389SOL    HW214175   0.452   1.315  10.676 -2.2819 -0.8624 -0.1626
37390SOL     OW14176   9.146   0.861  10.760 -0.2300 -0.4587  0.1445
37390SOL    HW114177   9.186   0.782  10.724 -0.8082 -0.6425 -0.1077
37390SOL    HW214178   9.059   0.833  10.789 -0.1857 -0.0677  0.6864
37391SOL     OW14179   9.428   4.966   6.910  0.2144 -0.1806 -0.2917
37391SOL    HW114180   9.401   4.882   6.875  0.3479 -0.2643 -0.1964
37391SOL    HW214181   9.524   4.966   6.901  0.1409  0.3997 -1.2892
37392SOL     OW14182   7.371   1.156   1.861 -0.1566  0.0169  0.0245
37392SOL    HW114183   7.433   1.164   1.934  0.6787  2.4813 -0.8570
37392SOL    HW214184   7.389   1.232   1.806  0.5627 -2.6332 -3.7918
37393SOL     OW14185  10.079   5.147   8.620  0.5162 -0.4343 -0.2627
37393SOL    HW114186  10.098   5.238   8.599  0.4292  0.4700  2.9966
37393SOL    HW214187   9.986   5.147   8.645  1.2895 -0.5992  2.9983
37394SOL     OW14188   6.780   0.306   2.591 -0.1993 -0.1246  0.5444
37394SOL    HW114189   6.823   0.379   2.546  0.0102 -1.4536 -1.5522
37394SOL    HW214190   6.687   0.317   2.570 -0.2104 -0.2570  0.5228
37395SOL     OW14191   5.905   6.110   1.977 -0.2850 -0.1753 -0.7605
37395SOL    HW114192   5.872   6.168   1.909  1.6781  1.1166 -0.6838
37395SOL    HW214193   5.863   6.026   1.959 -1.9851  0.8442 -1.8279
37396SOL     OW14194   9.120   2.795   6.695 -0.0303 -0.4846  0.2995
37396SOL    HW114195   9.209   2.765   6.715  0.3968  0.5416 -0.0172
37396SOL    HW214196   9.073   2.787   6.778  0.3973 -0.8735  0.5090
37397SOL     OW14197  10.174   3.649   6.136  0.0911  0.3103 -1.0174
37397SOL    HW114198  10.210   3.703   6.066  0.3301  0.4529 -0.7854
37397SOL    HW214199  10.186   3.700   6.215 -0.1556  0.1381 -0.8652
37398SOL     OW14200   9.090   8.679   2.277 -0.5897  0.0886 -0.4142
37398SOL    HW114201   9.137   8.738   2.336 -1.5573  1.0099 -0.5407
37398SOL    HW214202   9.057   8.609   2.334 -1.9126  1.2100  0.2420
37399SOL     OW14203   9.672   4.797   4.629 -0.2272 -0.1461  0.3170
37399SOL    HW114204   9.596   4.823   4.682 -0.4945  0.8673 -0.5339
37399SOL    HW214205   9.747   4.817   4.684 -0.5427 -1.1068  1.1495
37400SOL     OW14206   7.635   9.495   3.076  0.0125  0.5324  0.1542
37400SOL    HW114207   7.723   9.462   3.094 -0.3723 -1.2309 -0.9959
37400SOL    HW214208   7.622   9.477   2.983 -1.6201  0.6591  0.3412
37401SOL     OW14209   2.223   4.385   5.796 -0.2455  0.3193 -0.3203
37401SOL    HW114210   2.210   4.290   5.787 -0.1757  0.2231  0.4407
37401SOL    HW214211   2.189   4.423   5.716  0.1848 -0.3977 -0.8525
37402SOL     OW14212   0.748  10.490   3.024 -0.1556 -0.3335 -0.6097
37402SOL    HW114213   0.775  10.563   3.080  1.8128 -2.0689  0.8307
37402SOL    HW214214   0.665  10.461   3.062 -0.4333  0.4774 -0.5690
37403SOL     OW14215   3.513   0.327   9.425  0.2031  0.2925 -0.4146
37403SOL    HW114216   3.459   0.374   9.362 -1.1639 -0.9767 -0.2587
37403SOL    HW214217   3.463   0.247   9.445  0.7760  0.4399  1.9465
37404SOL     OW14218   3.506   6.677   0.918 -0.0388  0.8729  0.2541
37404SOL    HW114219   3.493   6.583   0.910 -2.7112  0.9251  2.4386
37404SOL    HW214220   3.460   6.701   0.999  1.5653  3.8933  0.4327
37405SOL     OW14221   3.918   3.350   2.353  0.6151 -0.0738 -0.0878
37405SOL    HW114222   3.898   3.437   2.319 -1.4580 -0.1364  0.8053
37405SOL    HW214223   3.957   3.366   2.439  0.5015 -0.0343 -0.0443
37406SOL     OW14224   5.199   4.675  10.832  0.9231 -0.2258  0.5469
37406SOL    HW114225   5.110   4.647  10.812  0.2250  1.0997  1.6939
37406SOL    HW214226   5.251   4.595  10.826 -0.1960 -0.8967 -0.8324
37407SOL     OW14227   1.649   6.028   1.740 -0.2821  0.0474  0.1560
37407SOL    HW114228   1.727   6.024   1.796 -1.0561 -1.7786  1.2215
37407SOL    HW214229   1.672   5.976   1.663 -0.1487  0.2286  0.0748
37408SOL     OW14230   0.944   0.406   4.591  0.4429 -0.4335 -0.3117
37408SOL    HW114231   0.980   0.482   4.546 -2.0324  1.5927  0.8459
37408SOL    HW214232   1.010   0.384   4.657  1.2516  0.6858 -0.7139
37409SOL     OW14233   8.454   4.023   4.030 -0.2900  0.0165 -0.5811
37409SOL    HW114234   8.518   4.095   4.030 -0.8612  0.6817  2.7118
37409SOL    HW214235   8.506   3.946   4.010  1.4766  0.6588  1.1594
37410SOL     OW14236   8.774   2.092   6.630  0.3697 -0.0705 -0.1119
37410SOL    HW114237   8.728   2.008   6.639 -1.7121  1.0596  0.5265
37410SOL    HW214238   8.790   2.120   6.720  1.1085  0.2138 -0.3239
37411SOL     OW14239   0.380   0.483   3.019 -0.1831 -0.0607 -0.3000
37411SOL    HW114240   0.353   0.575   3.029  2.4525  0.9047 -1.3213
37411SOL    HW214241   0.454   0.473   3.079 -2.5035 -2.6435  2.4926
37412SOL     OW14242   6.669   1.647   9.581 -0.3361  0.0831 -0.1658
37412SOL    HW114243   6.599   1.708   9.555 -0.7197 -0.4194 -0.3174
37412SOL    HW214244   6.637   1.606   9.661 -1.2975 -1.8693 -1.4578
37413SOL     OW14245  11.047   1.375   1.461 -0.5195  0.1284 -0.1555
37413SOL    HW114246  11.095   1.363   1.543 -0.3452  0.2010 -0.2439
37413SOL    HW214247  10.956   1.355   1.482 -0.6871  1.3799  0.3564
37414SOL     OW14248   2.480   8.026   3.551  0.3548 -0.0884 -0.2372
37414SOL    HW114249   2.525   8.103   3.516  2.3022 -1.5049 -1.0175
37414SOL    HW214250   2.401   8.061   3.592 -0.1026  2.0709 -2.6904
37415SOL     OW14251   4.715   8.949   5.427  0.5665  0.1581 -0.1762
37415SOL    HW114252   4.640   9.006   5.440  0.0610 -0.6292  0.4140
37415SOL    HW214253   4.681   8.861   5.437  0.9033 -0.4153 -3.0697
37416SOL     OW14254   4.468   9.481   6.417 -0.3880 -0.3261 -0.2731
37416SOL    HW114255   4.374   9.463   6.419 -0.3770 -0.4991 -1.0614
37416SOL    HW214256   4.506   9.409   6.467 -0.7006 -0.0220  0.4218
37417SOL     OW14257   8.264   7.745   8.178 -0.0445 -0.9157  0.6641
37417SOL    HW114258   8.273   7.659   8.136 -0.6455 -1.2639  1.2293
37417SOL    HW214259   8.318   7.740   8.257  1.1543 -0.2306 -0.0838
37418SOL     OW14260   8.573   4.097   7.365  0.1807  0.0021  0.1654
37418SOL    HW114261   8.637   4.164   7.388  0.5143 -0.7062  1.4348
37418SOL    HW214262   8.504   4.105   7.431  1.2160 -2.1655  1.6591
37419SOL     OW14263   2.139   6.831   4.097  0.2856 -0.2090 -0.6421
37419SOL    HW114264   2.208   6.782   4.051  1.0176  0.9069 -0.7683
37419SOL    HW214265   2.186   6.886   4.160 -0.4059  1.1082 -1.2259
37420SOL     OW14266  10.600   1.610  10.037 -0.0444  0.4703  0.2270
37420SOL    HW114267  10.695   1.618  10.045 -0.0587 -0.4045  1.6610
37420SOL    HW214268  10.567   1.697  10.062  0.3714  0.8818 -0.6086
37421SOL     OW14269  10.004   3.888   8.045  0.0595  0.6064  0.2314
37421SOL    HW114270   9.935   3.891   7.979 -0.2800 -1.3138  0.4369
37421SOL    HW214271  10.082   3.860   7.997 -0.1815 -0.7659  0.6025
37422SOL     OW14272   1.106  10.940  10.022  0.1069  0.6937 -0.0151
37422SOL    HW114273   1.041  10.999  10.059 -0.3495 -0.7347  1.6354
37422SOL    HW214274   1.159  10.912  10.097  1.4942  0.4334 -1.0355
37423SOL     OW14275   3.315   2.390   5.404 -0.5396  0.1581 -0.4290
37423SOL    HW114276   3.380   2.410   5.471  0.5965  0.5354 -1.6063
37423SOL    HW214277   3.263   2.319   5.442 -0.9650  1.4306  1.4879
37424SOL     OW14278   5.596   4.510   8.161 -0.2417  0.2894 -0.3096
37424SOL    HW114279   5.616   4.523   8.254 -0.3521 -0.6438 -0.1425
37424SOL    HW214280   5.540   4.432   8.160 -0.6068  0.5550 -1.1223
37425SOL     OW14281   5.867   4.566   0.539  0.6801 -0.7862  0.6759
37425SOL    HW114282   5.855   4.659   0.562  1.3612 -0.6128  0.3551
37425SOL    HW214283   5.897   4.525   0.620  1.2445 -0.5472  0.5928
37426SOL     OW14284   9.727   3.424   7.258  0.0228 -0.6090  0.1571
37426SOL    HW114285   9.737   3.504   7.310 -0.4120 -0.8223  0.5856
37426SOL    HW214286   9.714   3.355   7.324 -1.4410 -0.7557 -0.2404
37427SOL     OW14287   7.881   7.124   7.366  0.0193  0.3134 -0.8095
37427SOL    HW114288   7.802   7.071   7.361 -0.1994 -0.3604  4.2999
37427SOL    HW214289   7.950   7.061   7.388  0.5773  1.5440  1.2029
37428SOL     OW14290   2.930   5.275   5.922  0.3379 -0.0721  0.1893
37428SOL    HW114291   2.952   5.257   6.013 -0.8396  0.3378  0.5778
37428SOL    HW214292   2.849   5.326   5.927  1.0799  1.2809 -1.0354
37429SOL     OW14293   9.388   2.794   6.205 -0.4332  0.4467 -0.3177
37429SOL    HW114294   9.314   2.782   6.266 -0.4621  0.1787 -0.4043
37429SOL    HW214295   9.388   2.888   6.187 -0.3927  0.5400  0.1352
37430SOL     OW14296   7.909  10.488   2.999 -0.3412 -0.1144 -0.3646
37430SOL    HW114297   7.888  10.420   3.063 -0.7896  1.4507  1.2644
37430SOL    HW214298   7.975  10.542   3.043 -0.6330  0.9980 -1.2349
37431SOL     OW14299   0.183   9.168   0.997  0.0003  0.1156 -0.3306
37431SOL    HW114300   0.133   9.086   0.994  0.7891 -0.4623  0.9895
37431SOL    HW214301   0.248   9.153   1.067  0.5900  1.6289 -0.5201
37432SOL     OW14302   6.868   6.830   8.087  0.1223 -0.1449  0.0543
37432SOL    HW114303   6.776   6.815   8.066 -0.2952  0.5928  1.2410
37432SOL    HW214304   6.915   6.809   8.007 -1.4137  3.5546 -2.0983
37433SOL     OW14305   9.134   6.926   0.491 -0.0651 -0.6491 -0.4607
37433SOL    HW114306   9.130   6.831   0.493  1.6974 -0.7385  0.0991
37433SOL    HW214307   9.226   6.947   0.480 -0.4251  1.0052 -0.6864
37434SOL     OW14308   5.218   3.038   5.773  0.2486  0.4581 -0.7586
37434SOL    HW114309   5.310   3.053   5.750  0.0918  0.8472 -1.1442
37434SOL    HW214310   5.218   2.952   5.816  0.6678  0.0397 -1.5616
37435SOL     OW14311   9.173   4.618   6.473 -0.3847 -0.0398  0.2994
37435SOL    HW114312   9.212   4.659   6.551 -0.9173  1.9109 -0.3955
37435SOL    HW214313   9.241   4.559   6.441  0.4056  0.2099  1.4351
37436SOL     OW14314  10.565   3.143   7.773  0.2469 -0.7955 -0.4941
37436SOL    HW114315  10.540   3.208   7.838 -0.2516 -2.5063  1.1234
37436SOL    HW214316  10.484   3.126   7.724  0.0893 -1.0296 -0.1513
37437SOL     OW14317   2.129   1.126   3.598 -0.8278  0.1619  0.4207
37437SOL    HW114318   2.115   1.216   3.626  0.8613 -0.1833  2.6537
37437SOL    HW214319   2.098   1.073   3.672 -1.3754 -1.1056 -0.6693
37438SOL     OW14320   2.602   1.197   6.614 -0.4968  0.3039  0.6882
37438SOL    HW114321   2.660   1.235   6.681  0.0089 -1.1641  1.1210
37438SOL    HW214322   2.582   1.110   6.647 -0.3076 -0.4317 -1.0507
37439SOL     OW14323   3.635   0.479   2.231  0.1901  0.7254  0.1394
37439SOL    HW114324   3.606   0.567   2.257 -1.1983  0.6052 -0.9220
37439SOL    HW214325   3.577   0.420   2.278 -0.9898  0.4684 -1.5577
37440SOL     OW14326   9.503   6.752   7.681 -0.0877 -0.0732 -0.0350
37440SOL    HW114327   9.560   6.822   7.650 -1.6855  1.2943  0.0418
37440SOL    HW214328   9.536   6.732   7.769  1.0922 -0.2513 -0.4997
37441SOL     OW14329   9.601   6.560   2.027 -0.3015 -0.1258  0.7542
37441SOL    HW114330   9.662   6.630   2.049 -1.9265  1.3208  0.8101
37441SOL    HW214331   9.617   6.542   1.934  0.8712 -0.4822  1.0060
37442SOL     OW14332   8.876   4.961  10.650  0.4074 -0.3293  0.0287
37442SOL    HW114333   8.948   4.954  10.586  1.2633 -0.8663  1.0317
37442SOL    HW214334   8.832   5.042  10.626  1.8764  0.4730 -0.0860
37443SOL     OW14335   9.673   0.798   4.181 -0.6089 -0.6410 -0.0417
37443SOL    HW114336   9.723   0.759   4.109  0.2612  0.4208 -0.0319
37443SOL    HW214337   9.638   0.723   4.229 -2.0011 -1.3779 -2.0810
37444SOL     OW14338   1.585   4.256   9.891 -0.2321 -0.0744  0.4686
37444SOL    HW114339   1.493   4.277   9.877  0.1677  0.9899 -0.7182
37444SOL    HW214340   1.624   4.261   9.804  1.4849  2.2283  1.2866
37445SOL     OW14341   8.906   2.480   9.830 -0.3898  0.2292  0.0975
37445SOL    HW114342   8.991   2.436   9.823  0.4230  1.8851 -0.9706
37445SOL    HW214343   8.925   2.560   9.879 -1.7061 -0.2048  1.3863
37446SOL     OW14344   6.401   7.282   5.573  0.1407 -0.5009 -0.5952
37446SOL    HW114345   6.365   7.242   5.652  0.2190  0.5211 -0.0321
37446SOL    HW214346   6.405   7.210   5.510  0.0393 -1.3241  0.3122
37447SOL     OW14347   4.588   3.993   9.368  0.5594 -0.3702 -0.3568
37447SOL    HW114348   4.613   4.069   9.315  1.3434  0.5536  1.2473
37447SOL    HW214349   4.647   3.996   9.444 -1.1529 -1.0475  1.0778
37448SOL     OW14350   4.311   0.288   1.517  0.3079  0.2065 -0.5919
37448SOL    HW114351   4.369   0.243   1.579 -0.1091  2.6991  1.7552
37448SOL    HW214352   4.369   0.347   1.469  0.5117 -1.2341 -2.2504
37449SOL     OW14353   5.946   9.361   6.692  0.3130 -0.6995 -0.5044
37449SOL    HW114354   5.915   9.323   6.774 -0.4641 -1.3469 -1.0816
37449SOL    HW214355   6.015   9.301   6.662  2.1276  0.6928  0.7363
37450SOL     OW14356   4.168   4.959   0.547 -0.1797  0.2123 -0.1272
37450SOL    HW114357   4.072   4.952   0.545 -0.1557 -0.2040 -1.7991
37450SOL    HW214358   4.188   4.989   0.635 -1.9120  1.1402  0.0054
37451SOL     OW14359   8.608   9.189   9.404  0.3356 -0.2773 -0.3893
37451SOL    HW114360   8.673   9.259   9.411 -1.6711  1.6377  0.0652
37451SOL    HW214361   8.543   9.222   9.342 -1.6533 -0.8822  1.2627
37452SOL     OW14362   3.527   2.604   9.898 -0.1728  0.6422  0.0952
37452SOL    HW114363   3.610   2.587   9.942  0.0551 -2.0594 -1.1446
37452SOL    HW214364   3.552   2.641   9.813 -0.0404 -1.5649 -0.8986
37453SOL     OW14365   0.165  11.029   0.134 -0.0977  0.2320  0.3567
37453SOL    HW114366   0.144  10.936   0.145 -1.4693  0.5052  0.2317
37453SOL    HW214367   0.137  11.069   0.217  2.2585  0.2856  1.2039
37454SOL     OW14368  10.048   8.460  10.690  0.2545  0.1641 -0.1628
37454SOL    HW114369   9.987   8.508  10.634  0.8570 -0.9692 -1.8914
37454SOL    HW214370  10.118   8.522  10.709 -0.2361  0.7349 -0.2085
37455SOL     OW14371   9.850   8.483   1.713  0.8163 -0.7169 -0.4395
37455SOL    HW114372   9.888   8.468   1.799 -0.9480 -0.4057  0.4434
37455SOL    HW214373   9.772   8.428   1.711  1.1311 -1.1772 -2.0980
37456SOL     OW14374   2.796   1.421   9.626  0.6521  0.5422 -0.5639
37456SOL    HW114375   2.841   1.504   9.613  2.0512 -0.1421 -0.3579
37456SOL    HW214376   2.796   1.409   9.721  4.2466 -1.5552 -0.6290
37457SOL     OW14377  10.236   9.261   4.705  0.2725  0.3170 -0.3765
37457SOL    HW114378  10.304   9.307   4.657 -0.1048 -0.2043 -1.4552
37457SOL    HW214379  10.196   9.327   4.761  2.0127  0.5151  0.7147
37458SOL     OW14380   3.670   9.879   3.288 -0.0153 -0.0360 -0.1174
37458SOL    HW114381   3.579   9.850   3.288  0.1626 -0.7177  1.5765
37458SOL    HW214382   3.666   9.973   3.273 -1.0393  0.0274  0.4904
37459SOL     OW14383   7.556   2.600   7.385  0.0775 -0.1765 -0.0076
37459SOL    HW114384   7.558   2.690   7.418  1.1549  0.0897 -0.7329
37459SOL    HW214385   7.639   2.590   7.339  0.2344 -1.7550  0.5734
37460SOL     OW14386   7.197   1.549   9.051 -0.2407  0.0824  0.0915
37460SOL    HW114387   7.250   1.483   9.096  0.4085  0.1098 -0.6247
37460SOL    HW214388   7.141   1.585   9.120 -0.3169 -0.9204  0.5789
37461SOL     OW14389   6.132   1.904   9.839  0.7923  0.1516 -0.1966
37461SOL    HW114390   6.097   1.904   9.750  2.6047  0.2066 -0.9607
37461SOL    HW214391   6.201   1.970   9.837 -1.1501  2.4539  2.1621
37462SOL     OW14392   3.092   2.835   9.685 -0.5610 -0.2045  0.6632
37462SOL    HW114393   3.140   2.760   9.651 -1.4054 -1.0163  1.2273
37462SOL    HW214394   3.003   2.803   9.697 -1.0172  0.9961  0.5789
37463SOL     OW14395   0.916  10.318   1.273 -0.3762  0.3887  0.2268
37463SOL    HW114396   0.885  10.329   1.183 -4.6083 -0.3604  1.4006
37463SOL    HW214397   0.938  10.225   1.279  1.4012  0.7343 -0.3524
37464SOL     OW14398   3.215   8.002   7.331  0.0213 -0.5793  0.2070
37464SOL    HW114399   3.161   8.020   7.254 -0.3474 -1.5719  0.2091
37464SOL    HW214400   3.275   7.933   7.301 -0.7055 -1.6031  1.0328
37465SOL     OW14401   6.398   2.401   9.362  0.2749  0.6199  0.7641
37465SOL    HW114402   6.366   2.375   9.449 -1.9046 -2.1690 -0.6702
37465SOL    HW214403   6.345   2.477   9.338 -1.1385 -0.2968  0.8487
37466SOL     OW14404   9.860   2.985   2.733  0.0030 -0.5492 -0.3268
37466SOL    HW114405   9.812   3.066   2.752  0.6042 -0.8173  2.8701
37466SOL    HW214406   9.791   2.919   2.725 -0.4327  0.0477 -1.9658
37467SOL     OW14407   8.322  10.937   2.760  0.1157  0.3907  0.3855
37467SOL    HW114408   8.242  10.971   2.802  0.3049 -0.7047  1.6689
37467SOL    HW214409   8.381  11.012   2.757 -0.1808  0.6760  1.4087
37468SOL     OW14410   2.376  10.743   9.362  0.5720  0.5660 -0.4967
37468SOL    HW114411   2.300  10.738   9.421 -0.3643  0.4696 -1.6578
37468SOL    HW214412   2.439  10.682   9.399 -1.4415 -2.4013 -1.5417
37469SOL     OW14413   8.981   2.849   1.572  0.6824 -0.2266  0.1816
37469SOL    HW114414   9.024   2.854   1.487 -0.3643  0.3166 -0.3437
37469SOL    HW214415   8.910   2.914   1.566  0.7863  0.0341  1.5800
37470SOL     OW14416   8.267   5.900   7.380 -0.0020 -0.0289 -0.0957
37470SOL    HW114417   8.302   5.969   7.436  0.0679  0.3179 -0.5632
37470SOL    HW214418   8.260   5.824   7.438  1.2245 -0.0221  0.0828
37471SOL     OW14419   6.939   9.877   8.130  0.4680  0.4135 -0.0394
37471SOL    HW114420   6.960   9.867   8.037  1.6628  0.4312  0.2101
37471SOL    HW214421   7.023   9.892   8.172 -0.2308  2.1463  0.8392
37472SOL     OW14422   1.181   8.399   3.584  0.0624 -0.4235 -0.0532
37472SOL    HW114423   1.133   8.322   3.617  0.4898 -0.1727  1.1853
37472SOL    HW214424   1.172   8.464   3.653 -0.3709  0.6994 -1.1354
37473SOL     OW14425   6.411   2.440   2.521  0.1302 -1.0884  0.2292
37473SOL    HW114426   6.475   2.509   2.541 -0.2256 -0.5044 -0.5785
37473SOL    HW214427   6.328   2.487   2.511  0.2795 -1.2522 -2.7079
37474SOL     OW14428   9.015   2.009   3.860 -0.2464 -0.1368  0.2800
37474SOL    HW114429   9.081   2.025   3.927  0.2219  1.3123 -0.4829
37474SOL    HW214430   9.041   2.065   3.787 -1.6897 -0.3884 -0.4645
37475SOL     OW14431   7.094   4.306   0.718 -0.9696 -0.0113  0.3273
37475SOL    HW114432   7.163   4.283   0.781 -1.8533 -0.6062  1.1002
37475SOL    HW214433   7.065   4.222   0.682  0.2376  0.3724 -1.6950
37476SOL     OW14434   7.485   4.634   3.253  0.1426  0.0704 -0.2577
37476SOL    HW114435   7.411   4.592   3.209  0.6589 -0.1521 -0.9322
37476SOL    HW214436   7.546   4.656   3.182  0.3655  0.9823  0.2015
37477SOL     OW14437   1.575   0.533  10.526  0.4094 -0.1756  0.3074
37477SOL    HW114438   1.546   0.444  10.503 -0.8190  0.7593 -2.0671
37477SOL    HW214439   1.651   0.519  10.582  0.3395 -2.7317 -0.0996
37478SOL     OW14440  10.841   4.577   1.913  0.2541  0.4435  0.0315
37478SOL    HW114441  10.862   4.598   2.004 -0.2334 -1.4673  0.6359
37478SOL    HW214442  10.861   4.484   1.905 -1.1102  0.2361 -1.3996
37479SOL     OW14443   4.261   6.668   0.419 -0.1593  0.1222  0.2533
37479SOL    HW114444   4.189   6.702   0.471 -0.9084 -0.0042 -0.6764
37479SOL    HW214445   4.325   6.638   0.484  0.0061  2.1427  1.1066
37480SOL     OW14446   0.605   2.715   7.125 -0.1920  0.6850  0.3697
37480SOL    HW114447   0.692   2.729   7.087 -0.2646  0.1544 -0.0049
37480SOL    HW214448   0.622   2.682   7.213  0.0453 -1.6802 -0.4854
37481SOL     OW14449   8.114   4.645   6.402  0.5099 -0.3064  0.1193
37481SOL    HW114450   8.153   4.733   6.396  0.2676 -0.1391  0.8393
37481SOL    HW214451   8.179   4.587   6.363  0.7774  0.1657 -0.1513
37482SOL     OW14452   8.176   2.734   9.169  0.1075  0.0919 -0.0336
37482SOL    HW114453   8.168   2.823   9.205  1.0761  1.1224 -2.1874
37482SOL    HW214454   8.193   2.747   9.076 -0.6810 -2.4029 -0.6097
37483SOL     OW14455   9.263   1.669   8.904 -0.3126  0.6005 -0.1665
37483SOL    HW114456   9.217   1.673   8.820 -1.8605 -2.0027  0.4213
37483SOL    HW214457   9.340   1.616   8.886  0.6023  1.9683 -0.3879
37484SOL     OW14458   4.818   3.375   2.980 -0.1758 -0.5868 -0.5581
37484SOL    HW114459   4.803   3.443   2.914 -1.3530  1.0350  1.2644
37484SOL    HW214460   4.892   3.407   3.031 -0.5724 -0.7753  0.1518
37485SOL     OW14461   0.148   8.097   1.404  0.7677 -0.2594 -0.0913
37485SOL    HW114462   0.080   8.052   1.455 -0.4138  0.1492 -1.2442
37485SOL    HW214463   0.100   8.138   1.332  2.0287  1.5397  0.0481
37486SOL     OW14464   7.508   4.545   0.318  0.0417 -0.3732 -0.1121
37486SOL    HW114465   7.541   4.635   0.329 -0.0063 -0.2293 -1.0880
37486SOL    HW214466   7.435   4.554   0.257 -0.3329 -1.0057  0.2403
37487SOL     OW14467   8.192   6.301   7.633 -0.4213 -0.1946  0.1413
37487SOL    HW114468   8.214   6.217   7.673 -1.0089 -1.2222 -1.6015
37487SOL    HW214469   8.227   6.295   7.544 -2.2097  0.6005 -0.6542
37488SOL     OW14470   5.113  10.628   1.610  0.3863  0.1835  0.0952
37488SOL    HW114471   5.024  10.663   1.602  0.5148  0.7005  0.7977
37488SOL    HW214472   5.150  10.675   1.685  1.1851 -0.1693 -0.0699
37489SOL     OW14473   7.288  10.023   4.929 -0.8741 -0.3559  0.1194
37489SOL    HW114474   7.356  10.060   4.874 -0.5143  0.0555  0.8280
37489SOL    HW214475   7.248  10.098   4.972 -0.5286 -0.7222  1.1254
37490SOL     OW14476   1.201   1.348   5.743 -0.1936  0.3994  0.2521
37490SOL    HW114477   1.267   1.281   5.762 -1.2290 -0.4669  0.8921
37490SOL    HW214478   1.242   1.403   5.676  1.2636  0.0344  0.8009
37491SOL     OW14479   6.928   7.273  10.759 -0.3972 -0.1251  0.2608
37491SOL    HW114480   6.900   7.297  10.847  2.3143  1.4199  0.8307
37491SOL    HW214481   6.847   7.267  10.708 -1.9871 -0.4352  2.6894
37492SOL     OW14482   2.412   2.343  10.262  0.2217  0.4338 -0.1121
37492SOL    HW114483   2.443   2.341  10.352 -0.4205 -0.1543  0.1061
37492SOL    HW214484   2.436   2.257  10.227  2.8294  1.5487 -1.3473
37493SOL     OW14485   7.779   3.959   6.406  0.1703 -0.8583 -0.1443
37493SOL    HW114486   7.772   3.940   6.312 -0.2477 -0.3024 -0.2342
37493SOL    HW214487   7.823   4.044   6.410  0.0866 -0.8277  0.1541
37494SOL     OW14488   5.125  10.931   9.388 -0.0162  0.0031 -0.6405
37494SOL    HW114489   5.216  10.934   9.358 -0.0223  4.2861 -0.8515
37494SOL    HW214490   5.074  10.949   9.309 -0.6935  1.7253  0.1418
37495SOL     OW14491   6.625   5.121   2.391 -0.1026  0.4592 -0.2177
37495SOL    HW114492   6.672   5.139   2.472  1.9727 -0.2557 -1.1993
37495SOL    HW214493   6.532   5.129   2.415  0.4391  0.2715  2.1993
37496SOL     OW14494  10.081   9.798   2.099  0.7281  0.0450  0.1719
37496SOL    HW114495  10.098   9.782   2.192  1.0155 -0.3736  0.0492
37496SOL    HW214496   9.992   9.832   2.097  0.7354  0.0973  0.6075
37497SOL     OW14497   7.293   3.870   2.946  0.1023  0.0218 -0.3141
37497SOL    HW114498   7.290   3.798   3.010  0.5888 -1.5730 -1.9852
37497SOL    HW214499   7.205   3.906   2.946 -0.4944 -1.3724 -0.2559
37498SOL     OW14500   1.845   4.200   6.827 -0.5902 -0.1355 -0.2893
37498SOL    HW114501   1.821   4.205   6.734 -0.7421 -1.3636 -0.3273
37498SOL    HW214502   1.932   4.241   6.831 -1.0698  0.9692 -0.7651
37499SOL     OW14503   9.754   5.724   5.838 -0.3875 -0.0926 -0.4801
37499SOL    HW114504   9.830   5.770   5.875 -1.2615  1.3867 -0.4649
37499SOL    HW214505   9.732   5.657   5.903 -0.2374  0.7032  0.4033
37500SOL     OW14506  10.943   3.421   1.666  0.3052 -0.1938 -0.0946
37500SOL    HW114507  10.910   3.446   1.752  0.6978 -0.3574  0.1070
37500SOL    HW214508  11.021   3.475   1.654 -0.4790  0.8137 -0.9293
37501SOL     OW14509  10.455   1.120   9.220  0.7854  0.0251  0.0340
37501SOL    HW114510  10.511   1.175   9.166  0.0816  0.4592 -0.2753
37501SOL    HW214511  10.366   1.141   9.190  0.5364 -2.0199 -0.8100
37502SOL     OW14512   7.731   0.737   8.794  0.2882 -0.2227  0.4985
37502SOL    HW114513   7.758   0.829   8.796  1.7715 -0.6460  0.8651
37502SOL    HW214514   7.683   0.725   8.875  0.4195  0.1338  0.6350
37503SOL     OW14515   0.889  10.967   4.170 -0.3542  0.0322 -0.3172
37503SOL    HW114516   0.903  11.012   4.087 -2.3085 -0.7088 -1.1102
37503SOL    HW214517   0.837  11.028   4.222  0.1571  0.1620  0.0449
37504SOL     OW14518   7.533   0.168  10.298  0.3925 -0.6687 -0.3718
37504SOL    HW114519   7.616   0.214  10.285 -0.2409  0.2638 -1.2225
37504SOL    HW214520   7.498   0.156  10.210 -0.6768 -0.4969  0.0259
37505SOL     OW14521   1.280   8.722   6.363  0.0837  0.4883  0.6041
37505SOL    HW114522   1.209   8.783   6.344  0.3904  0.9752  0.9882
37505SOL    HW214523   1.358   8.765   6.328 -0.0766 -1.0597 -1.9112
37506SOL     OW14524   0.259   6.946   8.879  0.1299 -0.2527 -0.1162
37506SOL    HW114525   0.287   6.964   8.969 -1.2193  0.8422  0.1163
37506SOL    HW214526   0.172   6.907   8.888  0.0602 -0.3035 -0.9490
37507SOL     OW14527   2.736   9.050   0.269  0.0967  0.3206  0.6073
37507SOL    HW114528   2.784   9.028   0.189  0.5067  0.7317  0.7322
37507SOL    HW214529   2.670   9.113   0.240  1.4426  1.9259  0.8664
37508SOL     OW14530   7.799   0.811   1.193  0.0310  0.0563 -0.0840
37508SOL    HW114531   7.886   0.839   1.167  0.5128 -1.2437  0.0395
37508SOL    HW214532   7.812   0.768   1.278 -0.8764  0.6209  0.3647
37509SOL     OW14533   5.190   2.639   4.484 -0.0914 -0.2659 -0.2179
37509SOL    HW114534   5.189   2.734   4.494 -3.0085 -0.2749  0.7624
37509SOL    HW214535   5.262   2.610   4.539 -0.0334  1.3067  0.5993
37510SOL     OW14536   2.770   8.721   1.850  0.2057  0.3514 -0.7119
37510SOL    HW114537   2.716   8.673   1.787 -0.0251  1.4040 -1.3430
37510SOL    HW214538   2.860   8.702   1.824  0.2277 -1.6818  0.5468
37511SOL     OW14539   0.735   1.444  10.945 -0.5389 -0.3511 -0.2790
37511SOL    HW114540   0.663   1.505  10.962 -1.4169 -1.1306 -1.0466
37511SOL    HW214541   0.777   1.432  11.030 -1.5420 -0.1374  0.2655
37512SOL     OW14542   1.301   2.075   4.141  0.2367  0.6918  0.0345
37512SOL    HW114543   1.251   2.157   4.136  0.2788  0.6679 -0.9778
37512SOL    HW214544   1.244   2.016   4.190  0.5921  1.5849  1.5906
37513SOL     OW14545   6.011   5.367   3.835  0.3518  0.2159 -0.2175
37513SOL    HW114546   6.027   5.419   3.914 -0.1810  2.4448 -1.5169
37513SOL    HW214547   5.968   5.287   3.868  0.2399  1.0214  1.7483
37514SOL     OW14548   9.587  10.713   2.940 -0.2527  0.1454 -0.0314
37514SOL    HW114549   9.550  10.626   2.956 -1.5563  0.5382 -0.7931
37514SOL    HW214550   9.555  10.738   2.853  0.5441  1.1714 -0.0565
37515SOL     OW14551   9.076   7.289   5.581  0.2935 -0.4839  0.6127
37515SOL    HW114552   9.110   7.379   5.584  1.3926 -0.9110  1.4316
37515SOL    HW214553   9.125   7.248   5.510 -1.5105  0.0349 -1.0264
37516SOL     OW14554   8.097   1.485  10.600 -0.3537 -0.2769  0.6394
37516SOL    HW114555   8.164   1.417  10.600  0.1990  0.2252 -0.7625
37516SOL    HW214556   8.040   1.462  10.527 -1.5967 -0.5603  1.6653
37517SOL     OW14557   6.275   2.886   0.450  0.3623 -0.3761 -0.0761
37517SOL    HW114558   6.299   2.967   0.494 -0.9066  0.3919 -0.7336
37517SOL    HW214559   6.231   2.834   0.517  0.7423 -0.3270  0.2169
37518SOL     OW14560   2.774   4.327   6.510 -0.3926 -0.0627  0.2419
37518SOL    HW114561   2.816   4.399   6.557  0.7979 -0.6047  0.0563
37518SOL    HW214562   2.683   4.353   6.502 -0.1212  1.1127  0.7719
37519SOL     OW14563   0.325   0.662   9.900  0.3577  0.1205 -0.5906
37519SOL    HW114564   0.350   0.705   9.982 -0.9750 -0.0411 -0.0655
37519SOL    HW214565   0.369   0.713   9.832 -0.8171  2.1233  0.0343
37520SOL     OW14566   7.326   8.013   7.050 -0.1880  0.0536 -0.3438
37520SOL    HW114567   7.272   8.088   7.074 -1.3357 -0.6756 -0.5743
37520SOL    HW214568   7.329   8.015   6.954 -1.8730 -1.2682 -0.4764
37521SOL     OW14569   8.240   3.336   7.474 -0.2194 -0.0050  0.6118
37521SOL    HW114570   8.292   3.416   7.481 -0.2673  0.1488 -0.5915
37521SOL    HW214571   8.165   3.361   7.419  0.0062 -0.9812 -0.1677
37522SOL     OW14572   3.451   3.193   4.108  0.5262 -0.1261 -0.3767
37522SOL    HW114573   3.492   3.148   4.035  1.4096  0.2700 -0.1363
37522SOL    HW214574   3.417   3.122   4.164  2.6007 -0.5787  0.4043
37523SOL     OW14575   9.500   1.731   0.035  0.6219  0.5330 -0.2494
37523SOL    HW114576   9.441   1.775  -0.026  0.1037  0.7611  0.4015
37523SOL    HW214577   9.581   1.717  -0.015  0.2388  0.7996 -0.9494
37524SOL     OW14578  10.461   1.610   1.957 -0.5677 -0.2556  0.5653
37524SOL    HW114579  10.440   1.652   2.041  0.4330  1.7110 -0.0937
37524SOL    HW214580  10.556   1.601   1.958 -0.4778  0.3813 -0.5984
37525SOL     OW14581   5.654   9.582   8.175  0.0233  0.0916 -0.0695
37525SOL    HW114582   5.730   9.610   8.227  0.8945  0.5991 -1.5654
37525SOL    HW214583   5.585   9.567   8.240  0.8330  1.4618  1.1746
37526SOL     OW14584   8.100   3.701  10.087 -0.4255 -0.0641  0.3886
37526SOL    HW114585   8.065   3.670  10.004 -2.5497  2.1544  0.3464
37526SOL    HW214586   8.180   3.749  10.063 -0.1061 -0.8265 -0.1304
37527SOL     OW14587   2.931   0.422   1.013  0.3570 -0.2802 -0.4435
37527SOL    HW114588   2.923   0.338   1.059  0.6846 -0.8101 -1.3348
37527SOL    HW214589   2.862   0.476   1.051  0.6876 -0.6576  0.7604
37528SOL     OW14590  10.597   5.269   9.642  0.5885 -0.0992  0.5425
37528SOL    HW114591  10.527   5.314   9.595  2.4463  1.0736 -1.2680
37528SOL    HW214592  10.566   5.264   9.732 -0.8143  2.6195  0.3218
37529SOL     OW14593   3.342  10.031   2.641 -0.0482 -0.9694 -0.5556
37529SOL    HW114594   3.353   9.985   2.558  0.2057  0.0456 -1.1061
37529SOL    HW214595   3.431  10.043   2.674 -0.0177  0.0141 -0.9388
37530SOL     OW14596   8.412   5.782   1.842  0.1628 -0.2308  0.2849
37530SOL    HW114597   8.397   5.856   1.901  0.7850 -1.0793  1.5181
37530SOL    HW214598   8.324   5.756   1.814 -0.0428  1.6104 -1.0288
37531SOL     OW14599   6.830   5.372   1.747 -0.4212  0.4887 -0.5064
37531SOL    HW114600   6.777   5.299   1.715 -1.1691  1.2964 -1.1782
37531SOL    HW214601   6.821   5.369   1.842  1.9710 -2.0665 -0.2368
37532SOL     OW14602   0.887   1.119   0.679 -0.0217 -0.1169  0.5698
37532SOL    HW114603   0.793   1.107   0.691 -0.3659 -0.0517 -1.5543
37532SOL    HW214604   0.902   1.211   0.703 -0.4234 -0.2193  1.2493
37533SOL     OW14605  10.178   6.146   3.287 -0.2301  0.1816  0.1660
37533SOL    HW114606  10.266   6.124   3.316 -0.1475  0.3985  0.0803
37533SOL    HW214607  10.177   6.126   3.194  0.7630  3.2330 -0.6169
37534SOL     OW14608   8.163   4.209   2.496 -0.0309 -0.1724  0.0805
37534SOL    HW114609   8.116   4.159   2.563  0.6940 -0.3034  0.4933
37534SOL    HW214610   8.109   4.199   2.417 -0.1683 -1.1636  0.2889
37535SOL     OW14611  10.682   9.152   2.779  0.7299 -0.0809  0.4912
37535SOL    HW114612  10.631   9.220   2.735 -1.2169 -0.3552  2.1494
37535SOL    HW214613  10.640   9.070   2.752  0.4448 -0.3336  1.6418
37536SOL     OW14614  10.283   8.127   4.519  0.1329 -0.2030 -0.5232
37536SOL    HW114615  10.323   8.201   4.566  1.3347  0.0772 -1.9170
37536SOL    HW214616  10.279   8.156   4.428  2.4655 -2.5632 -1.4886
37537SOL     OW14617  10.118   0.403   7.792 -0.8144  0.1381 -0.2283
37537SOL    HW114618  10.132   0.491   7.828  0.0827 -0.0921  0.0150
37537SOL    HW214619  10.200   0.383   7.746  0.2162 -1.7343  2.2024
37538SOL     OW14620   6.126   0.695   9.650  0.4970  0.2067 -0.1265
37538SOL    HW114621   6.143   0.788   9.664  1.4832 -0.1146  0.9098
37538SOL    HW214622   6.102   0.689   9.557 -1.7351  1.7792  0.2649
37539SOL     OW14623   6.027   7.128   0.648 -0.2878  0.6795 -0.2444
37539SOL    HW114624   6.083   7.051   0.662 -2.1917 -0.7254  0.1367
37539SOL    HW214625   6.040   7.181   0.727 -0.7487 -0.4826  0.6517
37540SOL     OW14626   9.820   2.415   8.881  0.4402 -1.0857 -0.1869
37540SOL    HW114627   9.759   2.386   8.813 -0.7261 -1.2016  0.8741
37540SOL    HW214628   9.771   2.407   8.963  1.2336  0.6113  0.5168
37541SOL     OW14629   6.086   2.755  10.446  0.1452 -0.7528  0.3526
37541SOL    HW114630   6.057   2.847  10.444  0.1519 -0.7409  0.6887
37541SOL    HW214631   6.118   2.743  10.535  1.9713 -0.5332 -0.2457
37542SOL     OW14632   5.527   5.795   1.488 -0.3105  0.4739  0.0175
37542SOL    HW114633   5.523   5.815   1.581 -0.1155  0.3132  0.0608
37542SOL    HW214634   5.500   5.703   1.482  0.0738  0.3620 -0.0398
37543SOL     OW14635   7.538   9.536   8.070  0.0516 -0.2577  0.2361
37543SOL    HW114636   7.594   9.581   8.133  1.5335 -1.2236 -0.3356
37543SOL    HW214637   7.515   9.604   8.007  0.1579  0.2763  0.7619
37544SOL     OW14638   8.673   4.606   8.621  0.0321  0.8601 -0.6887
37544SOL    HW114639   8.592   4.555   8.621  0.1584  0.6564 -0.5680
37544SOL    HW214640   8.655   4.681   8.564 -1.5293  2.9305  2.2919
37545SOL     OW14641   9.179   3.518   9.274 -0.0241 -0.0955 -0.1660
37545SOL    HW114642   9.201   3.529   9.367 -2.7455  0.1947  0.5358
37545SOL    HW214643   9.146   3.604   9.247 -0.7694 -0.5983 -0.9188
37546SOL     OW14644   4.284   3.194   2.958 -0.4789 -0.7465 -0.1400
37546SOL    HW114645   4.258   3.233   3.042 -0.2216  1.2477 -0.9401
37546SOL    HW214646   4.377   3.215   2.950 -1.0466  1.4233 -2.0643
37547SOL     OW14647   1.106   3.620   8.225  0.7989 -0.6059  0.0399
37547SOL    HW114648   1.014   3.623   8.200  1.3058  1.0924 -1.8650
37547SOL    HW214649   1.144   3.548   8.174  0.3950 -1.9082  1.5080
37548SOL     OW14650   1.948   3.813   9.320 -0.2317 -0.4190 -0.0735
37548SOL    HW114651   2.034   3.841   9.287 -0.8396  1.0568 -0.5207
37548SOL    HW214652   1.886   3.845   9.254 -1.2051 -0.5407  0.7598
37549SOL     OW14653   8.693   1.808   1.622 -0.4561  0.1379  0.3834
37549SOL    HW114654   8.696   1.824   1.528  0.1843 -1.1803  0.1668
37549SOL    HW214655   8.617   1.751   1.634 -1.0666  1.0085  0.7966
37550SOL     OW14656  10.134   2.446   9.363 -0.3049 -0.2807  0.3648
37550SOL    HW114657  10.207   2.503   9.340  0.1461 -0.6696  0.8048
37550SOL    HW214658  10.069   2.505   9.402 -0.5801  0.1905 -0.7702
37551SOL     OW14659   6.266   3.584  10.104 -0.1788  0.5001  0.8133
37551SOL    HW114660   6.344   3.551  10.147  0.8296  0.4850 -0.9255
37551SOL    HW214661   6.215   3.505  10.083 -0.3781  0.4679  1.3923
37552SOL     OW14662   2.881  10.315   4.768  1.2400 -0.1123 -0.4481
37552SOL    HW114663   2.867  10.226   4.735 -0.2026 -0.1053  0.0873
37552SOL    HW214664   2.825  10.370   4.714  0.4900  0.1765  0.5998
37553SOL     OW14665   4.634   2.090   8.408 -0.1831 -0.3158  0.0017
37553SOL    HW114666   4.666   2.034   8.478 -1.3057 -0.4954  0.3998
37553SOL    HW214667   4.618   2.030   8.335  0.3017 -0.2395 -0.1678
37554SOL     OW14668   1.153   9.525  10.587 -0.7358 -0.6310 -0.9003
37554SOL    HW114669   1.232   9.536  10.534 -1.1173 -0.3471 -1.4223
37554SOL    HW214670   1.151   9.603  10.643 -0.9753 -0.3248 -1.3296
37555SOL     OW14671   0.940   4.103   9.883 -0.7160 -0.7845 -0.5761
37555SOL    HW114672   0.966   4.011   9.884 -0.9767 -0.8612  0.2373
37555SOL    HW214673   1.023   4.152   9.886 -0.4685 -0.9338 -3.0422
37556SOL     OW14674   4.171   4.813   2.564  0.5370  0.1169 -0.5051
37556SOL    HW114675   4.249   4.857   2.597 -0.1909  0.2282  1.1728
37556SOL    HW214676   4.113   4.884   2.536  0.5466  0.0872 -0.6011
37557SOL     OW14677   7.774   5.633   1.682  0.5863  0.0616  0.1483
37557SOL    HW114678   7.791   5.615   1.590  0.6418 -0.3595  0.2398
37557SOL    HW214679   7.822   5.565   1.729 -1.0627 -0.9522  0.4309
37558SOL     OW14680   6.371   0.575   7.780 -0.3842 -0.3523  0.2399
37558SOL    HW114681   6.306   0.567   7.710  1.1800 -1.7008 -1.1399
37558SOL    HW214682   6.352   0.502   7.839 -0.1961 -0.7015 -0.1241
37559SOL     OW14683   2.932   2.344   1.093 -0.2882 -0.3393  0.5134
37559SOL    HW114684   2.954   2.312   1.006 -1.7321  0.2066 -0.0844
37559SOL    HW214685   2.996   2.413   1.110 -0.3127 -0.0954 -0.3396
37560SOL     OW14686   3.010   4.735   9.542 -0.2189  0.0639 -0.3090
37560SOL    HW114687   2.990   4.812   9.489  0.0465  0.5437  0.2698
37560SOL    HW214688   3.069   4.683   9.488  2.4101  1.9111  0.5222
37561SOL     OW14689  10.020   7.522   1.869 -0.0822 -0.5118 -0.7761
37561SOL    HW114690  10.001   7.461   1.797  0.3415 -1.2664 -0.2709
37561SOL    HW214691   9.965   7.491   1.941  1.1410 -1.1834 -0.0809
37562SOL     OW14692   6.627   6.269   1.470 -0.3376 -0.4006  0.2726
37562SOL    HW114693   6.652   6.196   1.412  0.5914 -0.8657  1.2346
37562SOL    HW214694   6.704   6.326   1.470 -1.5766  1.4273 -1.6646
37563SOL     OW14695   1.532   7.470   9.448  0.2663  0.3118 -0.5136
37563SOL    HW114696   1.581   7.416   9.387 -0.8613 -1.6921  0.2547
37563SOL    HW214697   1.441   7.460   9.421 -0.0490  1.1483  0.1787
37564SOL     OW14698   6.373   0.339   0.163 -0.0604  0.0111  0.4114
37564SOL    HW114699   6.322   0.337   0.244 -0.4535 -1.0609  0.1560
37564SOL    HW214700   6.457   0.377   0.188 -0.1953 -0.2744  1.3157
37565SOL     OW14701   8.165   2.274   4.627  0.1430 -0.0611  0.1689
37565SOL    HW114702   8.216   2.193   4.635 -2.3017 -1.7963 -0.5972
37565SOL    HW214703   8.210   2.323   4.559  0.1821 -2.0888 -1.3829
37566SOL     OW14704   9.718  10.521   3.144  0.2971  0.4248 -0.0919
37566SOL    HW114705   9.679  10.601   3.110  1.9615  1.2214 -0.2477
37566SOL    HW214706   9.811  10.529   3.123  0.4538 -1.7199 -0.4107
37567SOL     OW14707  10.459   0.878  10.134  0.0078  0.5600  1.0904
37567SOL    HW114708  10.405   0.836  10.201 -0.1314  0.5520  0.9756
37567SOL    HW214709  10.513   0.941  10.182  0.0668  0.3998  1.2374
37568SOL     OW14710   1.768   5.814   3.847 -0.1722  0.4499 -0.3644
37568SOL    HW114711   1.759   5.809   3.942  0.2334  1.6744 -0.2374
37568SOL    HW214712   1.742   5.728   3.815  2.4279 -0.9883  1.0599
37569SOL     OW14713   9.220   4.432   0.743 -0.3700 -0.1604 -0.3114
37569SOL    HW114714   9.278   4.508   0.742 -0.0192 -0.4185 -1.2889
37569SOL    HW214715   9.133   4.466   0.723 -0.4083  0.1228  0.3396
37570SOL     OW14716   2.211   5.469   2.191 -0.4288 -0.0785  0.0088
37570SOL    HW114717   2.160   5.540   2.230 -2.6523 -0.7823 -1.4147
37570SOL    HW214718   2.247   5.507   2.110 -1.0154 -0.3207 -0.3789
37571SOL     OW14719   2.740   7.422   1.891  0.1321  0.0188  0.4363
37571SOL    HW114720   2.747   7.328   1.874  0.2522 -0.2908  2.0214
37571SOL    HW214721   2.646   7.440   1.889  0.0586 -0.2992  0.8650
37572SOL     OW14722   9.749   4.830   5.349 -0.3535  0.8102 -0.2344
37572SOL    HW114723   9.791   4.893   5.290 -0.5558 -0.0769 -1.3774
37572SOL    HW214724   9.670   4.875   5.380 -0.2266  1.3115 -0.6276
37573SOL     OW14725   3.278   2.409   0.827  0.1631  0.4520 -0.0388
37573SOL    HW114726   3.319   2.348   0.766 -0.3701  0.6401 -0.6050
37573SOL    HW214727   3.327   2.400   0.908  0.9702  0.2820 -0.5340
37574SOL     OW14728   9.115   7.615   2.723  0.1278 -0.1942  0.7279
37574SOL    HW114729   9.079   7.669   2.652  0.4815 -1.9011 -0.8535
37574SOL    HW214730   9.041   7.598   2.781 -0.9143 -1.0274 -0.7627
37575SOL     OW14731   2.745  10.908   0.420 -0.1992  0.0137  0.1242
37575SOL    HW114732   2.753  10.816   0.446 -2.0520 -0.3171 -0.3547
37575SOL    HW214733   2.791  10.913   0.337 -0.9031 -0.7138 -0.3203
37576SOL     OW14734   9.937   2.777   7.568 -0.2146  0.1096  0.3195
37576SOL    HW114735   9.844   2.785   7.548 -0.1208  0.5282  0.0387
37576SOL    HW214736   9.943   2.796   7.662 -0.1884  2.0191 -0.0287
37577SOL     OW14737   9.181  10.261   2.062 -0.1069  0.4998  0.1430
37577SOL    HW114738   9.240  10.237   1.991 -0.5123 -2.0463  0.5832
37577SOL    HW214739   9.174  10.357   2.056  0.2322  0.4333 -2.9186
37578SOL     OW14740   9.752   1.704   2.074 -0.3625 -0.3497  0.1684
37578SOL    HW114741   9.688   1.735   2.010 -0.1642  0.0494  0.1644
37578SOL    HW214742   9.823   1.767   2.070  0.1750 -0.9518 -0.0447
37579SOL     OW14743   9.949   8.127   6.527 -0.3683  0.5566  0.2448
37579SOL    HW114744   9.863   8.128   6.568  0.0746  1.2327  1.1867
37579SOL    HW214745  10.011   8.130   6.600  0.4900 -1.1047 -0.3550
37580SOL     OW14746   3.610   0.592   3.391 -0.6280  0.3755  0.1129
37580SOL    HW114747   3.533   0.564   3.440 -1.0381  0.5889 -0.3928
37580SOL    HW214748   3.677   0.608   3.457 -2.0673  3.7365  0.9498
37581SOL     OW14749   3.227   9.623   6.560 -0.1554  0.1062 -0.5330
37581SOL    HW114750   3.255   9.684   6.491  0.2734 -0.8369 -1.2181
37581SOL    HW214751   3.243   9.536   6.522 -0.1977 -0.4287  0.6505
37582SOL     OW14752  10.933  10.592   0.068 -0.3453 -0.1599 -0.4888
37582SOL    HW114753  10.924  10.687   0.062 -1.8265 -0.3301 -1.3572
37582SOL    HW214754  10.939  10.563  -0.023  0.1135 -0.9043 -0.2289
37583SOL     OW14755   8.937   8.520   1.053  0.4918  0.1687 -0.1035
37583SOL    HW114756   8.947   8.430   1.022 -0.0538  0.1188 -0.1501
37583SOL    HW214757   8.844   8.527   1.076  0.4107  0.8725 -0.6044
37584SOL     OW14758   2.091   5.755   9.984  0.0073 -0.2069  0.1132
37584SOL    HW114759   2.144   5.835   9.988  0.1980 -0.3270 -0.0080
37584SOL    HW214760   2.141   5.690  10.034 -0.4216 -0.0972  0.6970
37585SOL     OW14761   2.758   1.920   0.497 -0.1411 -0.1952  0.0833
37585SOL    HW114762   2.767   1.872   0.416 -1.5319 -3.0452  1.4719
37585SOL    HW214763   2.672   1.964   0.490 -1.1993 -2.0578  0.6959
37586SOL     OW14764   2.417  10.749   8.634  0.4528 -0.2404  0.4163
37586SOL    HW114765   2.386  10.826   8.585  1.2392 -0.8427 -1.0864
37586SOL    HW214766   2.337  10.708   8.667  0.0002  1.0496  1.0223
37587SOL     OW14767   9.944   9.932   9.760  0.2277  0.3710 -0.5705
37587SOL    HW114768   9.969   9.931   9.668  1.3780 -0.6724 -0.2687
37587SOL    HW214769  10.015   9.979   9.804  0.2774 -0.1714 -0.0612
37588SOL     OW14770   5.064   2.887   8.070  0.0486  0.2827  0.2850
37588SOL    HW114771   5.076   2.877   7.975 -0.5334 -0.3606  0.2693
37588SOL    HW214772   4.971   2.870   8.084 -0.1368  1.6255  0.8260
37589SOL     OW14773   6.689   1.065   2.393  0.3893 -0.4137 -0.2361
37589SOL    HW114774   6.680   1.023   2.478  0.7333 -1.3074 -0.6248
37589SOL    HW214775   6.678   1.158   2.411  2.6749 -0.3385  1.1394
37590SOL     OW14776   7.337   9.256   0.798  0.4285 -0.5965 -0.2725
37590SOL    HW114777   7.282   9.180   0.778  0.4777 -0.6766 -0.1032
37590SOL    HW214778   7.419   9.239   0.751 -0.2215  0.2501 -1.8006
37591SOL     OW14779   2.119   9.731   5.986 -0.0609 -0.1108 -0.1592
37591SOL    HW114780   2.138   9.646   6.025 -1.0869  1.0710  3.2595
37591SOL    HW214781   2.206   9.770   5.971  0.8356  1.1525  5.6672
37592SOL     OW14782   5.311   2.280   4.665  0.3077 -0.2430  0.1885
37592SOL    HW114783   5.312   2.184   4.673  1.7036 -0.2119  0.5391
37592SOL    HW214784   5.223   2.305   4.694  0.7044 -1.2385  2.4036
37593SOL     OW14785   8.437   6.364   5.077 -0.1048  0.1342 -0.1355
37593SOL    HW114786   8.397   6.281   5.104 -1.4451  0.8858  0.2605
37593SOL    HW214787   8.375   6.402   5.015  0.4645  0.8799 -0.2699
37594SOL     OW14788   5.064   5.237  10.065 -0.0739  0.4288 -0.0152
37594SOL    HW114789   4.978   5.278  10.061  0.5684  1.7738 -0.3994
37594SOL    HW214790   5.064   5.190  10.149 -2.0979 -1.7519 -1.1144
37595SOL     OW14791  11.015   1.970   6.236 -0.1773  0.2697 -0.0071
37595SOL    HW114792  10.967   2.047   6.266 -0.8690  0.7020 -2.0735
37595SOL    HW214793  10.997   1.904   6.303  0.8424  1.9726  2.0837
37596SOL     OW14794   0.347   6.199   8.323  0.1724 -0.1367 -0.0259
37596SOL    HW114795   0.403   6.254   8.269 -0.4473  0.4064 -0.1162
37596SOL    HW214796   0.276   6.172   8.266 -1.2300  1.5459  0.8306
37597SOL     OW14797   0.506   0.493   0.313 -0.2856  0.1133 -0.0092
37597SOL    HW114798   0.595   0.520   0.337 -0.2525  0.9005 -0.9475
37597SOL    HW214799   0.454   0.510   0.392  0.3165  0.0322  0.4101
37598SOL     OW14800   9.409   2.825   2.809  0.3885  0.1650  0.0274
37598SOL    HW114801   9.349   2.878   2.755 -0.8109 -2.5831 -1.5594
37598SOL    HW214802   9.394   2.856   2.898 -2.5269  0.4866 -0.4648
37599SOL     OW14803   8.729   9.439   6.693 -0.3374 -0.1382  0.3343
37599SOL    HW114804   8.672   9.427   6.769 -2.3645  1.6541 -0.8011
37599SOL    HW214805   8.688   9.388   6.624  1.4542 -1.7084  0.3346
37600SOL     OW14806   6.612   2.364   3.110 -0.8111  0.1619  0.2465
37600SOL    HW114807   6.551   2.289   3.104 -0.2110 -0.2749 -0.7166
37600SOL    HW214808   6.631   2.386   3.019 -0.1519  0.8205  0.5347
37601SOL     OW14809   1.379   1.835   0.849 -0.3748  0.1705 -0.4342
37601SOL    HW114810   1.425   1.752   0.839  1.0063  0.9165 -0.4598
37601SOL    HW214811   1.380   1.874   0.761  1.5934  1.5145  0.1283
37602SOL     OW14812   1.162   7.813   2.972 -0.0914 -0.6061  0.0556
37602SOL    HW114813   1.118   7.811   2.887  2.2787 -2.4772 -1.2414
37602SOL    HW214814   1.190   7.723   2.987  2.4713  0.2864  1.2142
37603SOL     OW14815   4.983  10.540  10.765 -0.4545 -0.1827 -0.2923
37603SOL    HW114816   4.919  10.579  10.705 -0.9151  2.0902  1.5335
37603SOL    HW214817   5.054  10.604  10.769  0.5159 -1.2550  0.0396
37604SOL     OW14818  10.329   6.282   8.881 -0.3283 -0.3682 -0.3354
37604SOL    HW114819  10.350   6.222   8.810  1.1338  1.9326 -1.9960
37604SOL    HW214820  10.390   6.259   8.951  0.0362 -0.9881 -0.8512
37605SOL     OW14821   8.038   6.261   2.706 -0.2760  0.1653 -0.5482
37605SOL    HW114822   8.013   6.337   2.759  0.2197  0.5606 -0.8727
37605SOL    HW214823   7.957   6.210   2.699 -0.8709  1.1414 -1.0983
37606SOL     OW14824   8.887   1.064   0.413 -0.1301 -0.8128  0.1199
37606SOL    HW114825   8.816   1.006   0.386  0.1390 -2.0017  1.7834
37606SOL    HW214826   8.914   1.109   0.333 -0.8242 -2.4887 -1.0975
37607SOL     OW14827   3.745   5.969   5.384  0.3791 -0.0093 -0.5860
37607SOL    HW114828   3.813   5.935   5.442 -0.5429 -0.3545  0.3237
37607SOL    HW214829   3.713   5.893   5.336 -1.8640 -0.6254  1.6357
37608SOL     OW14830   4.403   3.422   3.574 -0.1801  0.0255  0.1448
37608SOL    HW114831   4.426   3.472   3.496 -2.6482  3.1211  1.1804
37608SOL    HW214832   4.426   3.479   3.647 -1.4763 -1.0853  1.4907
37609SOL     OW14833   6.187   0.815   3.178 -0.2976 -0.4636  0.3410
37609SOL    HW114834   6.116   0.873   3.206  0.0454  0.5460 -0.8019
37609SOL    HW214835   6.226   0.860   3.103  1.8980 -0.7138  1.2492
37610SOL     OW14836   0.020   8.920   0.203 -0.1336 -0.0227 -0.3391
37610SOL    HW114837  -0.009   8.885   0.287 -0.5833  2.0389  0.4227
37610SOL    HW214838  -0.055   8.970   0.171  0.4074  0.1110 -1.4569
37611SOL     OW14839   0.738   1.962   2.532  0.7532 -0.1847  0.4200
37611SOL    HW114840   0.745   1.943   2.626  1.6947 -1.2698  0.1510
37611SOL    HW214841   0.827   1.950   2.499  0.0888 -1.5650 -0.9314
37612SOL     OW14842   6.269  10.638   1.999  0.3185 -0.0030  0.4037
37612SOL    HW114843   6.303  10.642   1.909  1.2561  1.0059  0.7729
37612SOL    HW214844   6.197  10.701   2.000 -0.8362 -1.2763 -0.0700
37613SOL     OW14845   9.897   3.724  10.274  0.2174  0.1576 -0.9196
37613SOL    HW114846   9.943   3.803  10.302 -1.9205  1.8153 -1.7612
37613SOL    HW214847   9.952   3.686  10.206  2.4096 -0.4332  1.0758
37614SOL     OW14848  10.520   8.591   1.634  0.1747 -0.5321  0.0258
37614SOL    HW114849  10.593   8.561   1.580  0.5208 -1.7812  1.1543
37614SOL    HW214850  10.476   8.511   1.663 -0.6264  0.1454  0.7390
37615SOL     OW14851   1.944   2.976   0.621  0.3190 -0.1154 -0.0700
37615SOL    HW114852   2.038   2.992   0.633  0.2783  0.0910 -0.0173
37615SOL    HW214853   1.936   2.944   0.532  0.4309 -0.0537 -0.1028
37616SOL     OW14854   7.408   5.795   1.619  0.2826  0.2509  0.7889
37616SOL    HW114855   7.429   5.869   1.676  0.3330  2.2238 -1.6306
37616SOL    HW214856   7.412   5.831   1.531  1.7318 -3.0005 -0.6332
37617SOL     OW14857   3.370   6.466  10.624  0.4614 -0.4561 -0.4665
37617SOL    HW114858   3.360   6.371  10.614  0.8274 -0.7198  1.3500
37617SOL    HW214859   3.370   6.480  10.719  0.1136  1.4051 -0.7090
37618SOL     OW14860   5.371   3.430   8.295 -0.2322 -0.1970 -0.5121
37618SOL    HW114861   5.290   3.476   8.271  0.6904  0.2648 -3.0499
37618SOL    HW214862   5.408   3.483   8.365 -1.0452  0.8427 -0.8301
37619SOL     OW14863   6.375   4.930   3.395 -0.2657  0.0761 -0.0668
37619SOL    HW114864   6.284   4.909   3.375  0.3963 -1.3608 -1.8297
37619SOL    HW214865   6.376   4.943   3.490 -2.1533 -0.6662  0.1015
37620SOL     OW14866   0.775   4.176   8.297 -0.1196 -0.0383 -0.1671
37620SOL    HW114867   0.796   4.083   8.302  0.1191  0.0024 -0.3741
37620SOL    HW214868   0.860   4.220   8.302 -0.1955  0.1492 -0.4727
37621SOL     OW14869   0.473   8.662   0.413  0.0980  0.5509 -0.0872
37621SOL    HW114870   0.555   8.618   0.390 -0.2249  0.3097 -0.8099
37621SOL    HW214871   0.475   8.744   0.363 -0.3603  0.2779 -0.5551
37622SOL     OW14872   9.619   2.649   8.875 -0.4662 -0.3996  0.0299
37622SOL    HW114873   9.603   2.585   8.806  2.3825  1.1718 -2.3288
37622SOL    HW214874   9.537   2.699   8.880 -1.0033 -1.0119 -1.7128
37623SOL     OW14875   7.313   5.540  11.033  0.3018 -0.7058  0.0350
37623SOL    HW114876   7.384   5.477  11.019  0.9846  0.0116  0.2083
37623SOL    HW214877   7.354   5.626  11.025 -0.7202 -0.2594 -0.7148
37624SOL     OW14878   9.987   4.092   1.231  0.4519  0.2341  0.0591
37624SOL    HW114879   9.892   4.087   1.237  0.5141 -2.1727  0.1192
37624SOL    HW214880  10.006   4.086   1.137  0.5718 -2.4925  0.1888
37625SOL     OW14881   0.816   7.166   9.331  0.1917  0.0968 -0.2010
37625SOL    HW114882   0.889   7.122   9.375 -0.9034 -0.8115  0.7816
37625SOL    HW214883   0.740   7.145   9.385 -0.7854  1.1077 -1.1445
37626SOL     OW14884   5.489   9.897   2.421  0.0173  0.3139  0.1206
37626SOL    HW114885   5.448   9.870   2.338  0.8636  1.3064 -0.6523
37626SOL    HW214886   5.576   9.857   2.418  0.6816  1.7211 -0.2848
37627SOL     OW14887   1.315   2.355   9.649 -0.3676 -0.0159 -0.3480
37627SOL    HW114888   1.397   2.366   9.601  0.1991 -1.8395  0.1142
37627SOL    HW214889   1.319   2.419   9.719  0.3414  0.3909 -0.7457
37628SOL     OW14890   7.042   2.917   3.563 -0.5603 -0.0785  0.1017
37628SOL    HW114891   7.069   2.848   3.503 -0.3930 -0.3654  0.5049
37628SOL    HW214892   7.106   2.987   3.551 -1.5257  0.6141 -1.3450
37629SOL     OW14893   9.819   9.897   2.115 -0.2329  0.0654 -0.3372
37629SOL    HW114894   9.789   9.961   2.051 -2.6410 -0.3011  0.3109
37629SOL    HW214895   9.765   9.819   2.098  1.4638 -1.2391 -0.0323
37630SOL     OW14896  10.625   3.508   0.227 -0.1974 -0.0501 -0.1398
37630SOL    HW114897  10.537   3.518   0.191 -0.2832  0.5986  0.2324
37630SOL    HW214898  10.626   3.565   0.304  0.0723 -1.2118  0.7354
37631SOL     OW14899   0.446   5.103   0.803  0.3581 -0.3848 -0.0591
37631SOL    HW114900   0.392   5.152   0.741 -2.2253 -1.1251  1.4754
37631SOL    HW214901   0.532   5.099   0.762 -0.1245  2.7233 -1.6543
37632SOL     OW14902   2.436   3.153   8.856 -0.2595  0.8225  0.8706
37632SOL    HW114903   2.408   3.158   8.764 -1.4019  0.3761  1.1806
37632SOL    HW214904   2.530   3.133   8.851 -0.3871  0.3997 -0.2010
37633SOL     OW14905  10.354   7.950   3.936  0.0900  0.3019  0.3446
37633SOL    HW114906  10.402   7.947   3.854 -0.8653 -1.6109 -0.2017
37633SOL    HW214907  10.264   7.969   3.911  0.0969  1.5018  1.1393
37634SOL     OW14908   3.456   3.961   9.146 -0.1499 -0.4898  0.0127
37634SOL    HW114909   3.516   3.942   9.218 -0.6226  0.9907  0.8413
37634SOL    HW214910   3.513   3.981   9.072  0.3435 -1.9131 -0.0226
37635SOL     OW14911   9.361   9.487   3.031  1.0722 -0.2246  0.5163
37635SOL    HW114912   9.353   9.483   3.126  0.4730 -2.0420  0.4299
37635SOL    HW214913   9.448   9.523   3.016  1.4961 -0.6585  1.7721
37636SOL     OW14914   9.414   0.491  10.233 -0.2132  0.4076 -0.2957
37636SOL    HW114915   9.458   0.408  10.249 -2.0883 -0.5089  0.3586
37636SOL    HW214916   9.359   0.505  10.310  0.4049  2.5256 -0.1510
37637SOL     OW14917   5.347   8.356   3.458 -0.4448 -0.4108 -0.0475
37637SOL    HW114918   5.355   8.265   3.489  2.0314  0.2262  1.4552
37637SOL    HW214919   5.323   8.406   3.536  0.2697  0.4858 -0.3811
37638SOL     OW14920   8.956   2.116   2.546  0.1584 -0.3019 -0.3698
37638SOL    HW114921   8.921   2.057   2.479  0.7170 -0.4912 -0.4982
37638SOL    HW214922   9.046   2.134   2.518  0.7676 -1.2553  0.8788
37639SOL     OW14923  11.068   4.222  11.013 -0.1240  0.0621  0.1099
37639SOL    HW114924  10.992   4.260  10.969  1.6032  1.7548 -1.6098
37639SOL    HW214925  11.031   4.157  11.073 -2.9086  0.9887 -0.4556
37640SOL     OW14926   9.073   6.132   8.685 -0.6363 -0.1687 -0.0821
37640SOL    HW114927   9.062   6.221   8.720 -0.4756  0.0093 -0.4797
37640SOL    HW214928   8.984   6.096   8.685 -0.6835 -0.0552  0.2066
37641SOL     OW14929   7.213   0.306   8.437 -0.4302  0.6823 -0.0877
37641SOL    HW114930   7.182   0.371   8.500  1.4465  1.1879  0.3715
37641SOL    HW214931   7.192   0.222   8.477  0.3313  1.0040  1.0210
37642SOL     OW14932  10.373   8.681   4.512  0.2881  0.1872  0.6572
37642SOL    HW114933  10.326   8.627   4.576  0.0852  0.5643  0.8244
37642SOL    HW214934  10.310   8.696   4.442  0.4168  0.0197  0.5050
37643SOL     OW14935   0.110  10.560   1.187  0.6610  0.0831  0.0207
37643SOL    HW114936   0.147  10.524   1.268 -2.8954  0.3933  1.9542
37643SOL    HW214937   0.048  10.494   1.158 -0.9721  1.6635 -0.2121
37644SOL     OW14938   7.109   3.093  10.240  0.1874  0.0266  0.1424
37644SOL    HW114939   7.193   3.084  10.194 -0.3239 -0.0724 -0.8015
37644SOL    HW214940   7.063   3.162  10.192 -0.4606 -0.2568  0.3440
37645SOL     OW14941   4.297   6.758   3.416 -0.2681  0.1794  0.2077
37645SOL    HW114942   4.211   6.716   3.419 -0.3618  0.2468 -0.9213
37645SOL    HW214943   4.357   6.691   3.449 -0.6788 -0.0829  0.4387
37646SOL     OW14944   6.060  10.756  10.226  0.4095 -0.3809 -0.4196
37646SOL    HW114945   6.083  10.673  10.184  2.4569  0.8595 -1.9416
37646SOL    HW214946   6.016  10.807  10.157  0.5991  0.3664 -0.0038
37647SOL     OW14947   3.982   5.595   4.753  0.1556 -0.5491  0.0845
37647SOL    HW114948   3.907   5.578   4.809 -1.1056  2.0681 -0.6361
37647SOL    HW214949   3.956   5.562   4.667 -1.1103  2.0110 -0.6312
37648SOL     OW14950  10.891   4.295   5.878 -0.1825  0.1173 -0.0971
37648SOL    HW114951  10.894   4.388   5.858 -0.3623  0.0485 -0.4443
37648SOL    HW214952  10.845   4.256   5.804  0.7638 -0.3760 -0.4497
37649SOL     OW14953  10.047   7.916   1.166 -0.0002 -0.1302 -0.2565
37649SOL    HW114954  10.074   7.831   1.199  1.3229  0.1082 -0.6661
37649SOL    HW214955  10.034   7.969   1.244  1.8631  0.0626 -0.0367
37650SOL     OW14956   6.732   2.906   4.993 -0.2473  0.6906  0.2523
37650SOL    HW114957   6.790   2.849   4.942  1.7005  1.2069  1.7631
37650SOL    HW214958   6.652   2.911   4.941  0.5413 -1.1565 -1.2793
37651SOL     OW14959   7.478   8.686   8.442  0.3682  0.1324 -0.0659
37651SOL    HW114960   7.509   8.595   8.437 -0.9284 -0.3332 -0.1844
37651SOL    HW214961   7.551   8.738   8.410  2.0514 -0.6409  2.1713
37652SOL     OW14962   0.734   1.585   8.171 -0.4353  0.5647  0.2757
37652SOL    HW114963   0.757   1.653   8.233 -0.2247 -0.2173  1.0774
37652SOL    HW214964   0.800   1.516   8.184 -0.4924  0.3077 -0.6854
37653SOL     OW14965   9.379   7.316  10.889 -0.2537  0.0264  0.5110
37653SOL    HW114966   9.450   7.373  10.917 -0.9287  0.5399  1.2237
37653SOL    HW214967   9.384   7.241  10.948  0.4519 -0.5346 -0.2389
37654SOL     OW14968   0.479   5.999   5.692  0.1247  0.3479  0.6377
37654SOL    HW114969   0.410   6.037   5.638 -0.1699 -0.6643  0.2870
37654SOL    HW214970   0.484   5.907   5.664  3.3974  0.9496 -1.2624
37655SOL     OW14971   7.438  10.733  10.556  0.3621  0.4571 -0.8400
37655SOL    HW114972   7.432  10.648  10.600 -0.1288  1.0510  0.2809
37655SOL    HW214973   7.374  10.727  10.485 -1.2850  0.6336  0.5695
37656SOL     OW14974   0.840   1.154   0.102 -0.5234 -0.1655  0.2770
37656SOL    HW114975   0.883   1.111   0.176  0.5223 -1.7113 -1.1749
37656SOL    HW214976   0.816   1.083   0.043  0.1001  1.1109 -1.6177
37657SOL     OW14977   5.882  10.651   2.123 -0.1412  0.5325  0.0730
37657SOL    HW114978   5.805  10.663   2.178 -0.5298 -2.1248  0.2446
37657SOL    HW214979   5.954  10.634   2.185  0.2893  1.4879 -0.1422
37658SOL     OW14980   3.270   3.477  10.752  0.5740  0.2479  0.3040
37658SOL    HW114981   3.225   3.420  10.691  2.0984 -0.9844  0.2586
37658SOL    HW214982   3.337   3.521  10.699  3.8314 -2.9256  1.3771
37659SOL     OW14983   7.001   2.834   5.991  0.2150 -0.1794 -0.0835
37659SOL    HW114984   7.070   2.883   6.037 -1.3441  1.9490  0.1308
37659SOL    HW214985   7.048   2.786   5.923  1.9141  1.5143 -0.2197
37660SOL     OW14986   6.925   6.860   0.365 -0.5818 -0.1069  0.1917
37660SOL    HW114987   6.943   6.927   0.299  1.3367 -0.2575  0.5046
37660SOL    HW214988   6.870   6.905   0.429 -1.4396  0.4037 -0.8702
37661SOL     OW14989   1.756   2.044   8.727  0.0545 -0.0561 -0.4616
37661SOL    HW114990   1.795   2.043   8.814  0.6167 -1.8929 -0.6884
37661SOL    HW214991   1.829   2.024   8.668 -0.7857 -1.3926 -1.0953
37662SOL     OW14992   1.147   1.019   9.958 -0.0170 -0.0189 -0.1889
37662SOL    HW114993   1.174   1.075   9.885 -0.7731  0.9844  0.2621
37662SOL    HW214994   1.206   0.944   9.954  1.7018  1.2636 -0.2302
37663SOL     OW14995   7.703   2.613   9.222  0.1201 -0.4563 -0.4382
37663SOL    HW114996   7.744   2.685   9.174 -0.0466  0.0099  0.1008
37663SOL    HW214997   7.642   2.574   9.159 -0.5865  0.5630 -0.4216
37664SOL     OW14998   8.331   3.316   4.344 -0.5557  0.5004 -0.0831
37664SOL    HW114999   8.287   3.343   4.425 -0.1222  0.3274  0.2120
37664SOL    HW215000   8.397   3.383   4.328 -0.0087  0.0420  0.2220
37665SOL     OW15001   8.856   7.560  10.930  0.5975  0.0352 -0.2684
37665SOL    HW115002   8.856   7.641  10.878 -0.3544  0.3885  0.2639
37665SOL    HW215003   8.874   7.589  11.020 -0.9146 -0.1840  0.1275
37666SOL     OW15004   8.469  10.322   3.700  0.1396  0.1207  0.0068
37666SOL    HW115005   8.432  10.263   3.766  1.5611 -0.6241  0.1886
37666SOL    HW215006   8.398  10.336   3.638 -0.5060 -1.0855  0.4372
37667SOL     OW15007   0.187  10.454   7.549 -0.3790  0.1770  0.0586
37667SOL    HW115008   0.226  10.377   7.507 -0.7976 -0.3323  0.5923
37667SOL    HW215009   0.245  10.472   7.623  0.3061  1.0200 -0.6553
37668SOL     OW15010   4.741   9.343   1.287  0.4645 -0.3949 -0.1278
37668SOL    HW115011   4.720   9.410   1.352  0.6017 -0.8281  0.3761
37668SOL    HW215012   4.715   9.260   1.328 -0.4021 -0.5956 -1.0400
37669SOL     OW15013   6.602   4.673   8.272 -0.1008  0.2972 -0.1370
37669SOL    HW115014   6.686   4.686   8.315  0.7726 -0.6609 -1.4614
37669SOL    HW215015   6.540   4.656   8.343  0.7944  1.0919  0.8643
37670SOL     OW15016   0.686  10.084   7.900 -0.0093 -0.9952  0.1711
37670SOL    HW115017   0.671  10.035   7.820  0.3926 -0.6399 -0.1225
37670SOL    HW215018   0.672  10.020   7.970  1.7754 -1.8853 -0.2233
37671SOL     OW15019   6.863   3.222   0.055 -0.0991  0.6416  0.4141
37671SOL    HW115020   6.866   3.304   0.104  0.0219  1.1954 -0.4930
37671SOL    HW215021   6.852   3.249  -0.036 -0.1684 -0.3579  0.1119
37672SOL     OW15022   5.189   8.937  10.172 -0.5775 -0.7636 -0.1227
37672SOL    HW115023   5.191   8.995  10.096  0.3284 -0.0907  0.3926
37672SOL    HW215024   5.108   8.958  10.217  0.3737  1.1141  0.7975
37673SOL     OW15025   7.809   4.142   5.967 -0.9921 -0.3401 -0.0073
37673SOL    HW115026   7.812   4.065   6.024  0.1416 -0.0843  0.3026
37673SOL    HW215027   7.724   4.182   5.985 -1.1600 -0.9480  0.5854
37674SOL     OW15028   7.608   3.031   3.824 -0.6663 -0.2694 -0.0057
37674SOL    HW115029   7.521   3.007   3.853 -1.3934 -1.9196 -3.0528
37674SOL    HW215030   7.598   3.118   3.785 -0.8753 -0.3037 -0.0269
37675SOL     OW15031   2.872   9.981   1.870 -0.1788 -0.0592  0.2552
37675SOL    HW115032   2.947   9.970   1.929 -0.4188  0.1275  0.5987
37675SOL    HW215033   2.887   9.917   1.800 -0.1624 -0.6646  0.7998
37676SOL     OW15034   3.015   4.208   1.334  0.0541 -0.4946  0.1392
37676SOL    HW115035   3.039   4.284   1.281 -0.7893 -1.2989 -1.4667
37676SOL    HW215036   3.095   4.155   1.338 -0.3115 -1.2792 -1.8914
37677SOL     OW15037   8.658   4.706   1.765 -0.3434 -0.2061  0.1611
37677SOL    HW115038   8.683   4.749   1.846 -0.1466 -0.4854  0.2497
37677SOL    HW215039   8.666   4.612   1.784  0.9513 -0.2559 -0.5792
37678SOL     OW15040   1.281   9.124   6.951 -0.2149  0.8559  0.7124
37678SOL    HW115041   1.290   9.054   6.886  0.2109  0.7082  0.9243
37678SOL    HW215042   1.187   9.128   6.970 -0.2126  0.1629  0.8903
37679SOL     OW15043   4.482  10.358   8.578 -0.1652 -0.3218 -0.3217
37679SOL    HW115044   4.535  10.310   8.642 -0.3718  0.3659  0.3846
37679SOL    HW215045   4.542  10.378   8.507  0.9739  1.7295  1.1060
37680SOL     OW15046   1.270   1.893   7.647 -0.2192  0.2150  0.2333
37680SOL    HW115047   1.179   1.891   7.678 -0.9783  0.0035 -1.7989
37680SOL    HW215048   1.275   1.975   7.597 -0.3215 -1.2646 -2.3569
37681SOL     OW15049   7.074   3.467   3.992 -0.2853  0.0092 -0.0136
37681SOL    HW115050   7.062   3.478   3.898  0.8629 -0.4027 -0.2205
37681SOL    HW215051   7.157   3.421   4.001 -0.7708 -0.6849  1.1720
37682SOL     OW15052   0.324   4.366   4.600  0.1199  0.7007  0.5679
37682SOL    HW115053   0.352   4.298   4.661  1.2862  0.7747  0.1493
37682SOL    HW215054   0.319   4.445   4.654 -1.3869  0.2758  1.0854
37683SOL     OW15055   6.939   0.235   2.138  0.1614 -0.0230  0.1595
37683SOL    HW115056   6.862   0.196   2.096  1.8079 -2.2350 -1.0130
37683SOL    HW215057   6.982   0.284   2.069  1.7007 -1.8557 -0.2853
37684SOL     OW15058   5.377   2.663  10.990 -0.2849 -0.2545  0.1881
37684SOL    HW115059   5.390   2.758  10.983  0.2731 -0.3653 -0.3159
37684SOL    HW215060   5.319   2.653  11.065 -0.1599  0.4732  0.3927
37685SOL     OW15061   7.364   1.506   4.247  0.1357  0.3589 -0.3348
37685SOL    HW115062   7.459   1.515   4.246  0.2610 -0.6528  0.7842
37685SOL    HW215063   7.338   1.522   4.156  1.2234  1.8799 -0.4329
37686SOL     OW15064   1.107   2.435   6.186 -0.5672 -0.0896 -0.1334
37686SOL    HW115065   1.183   2.461   6.134  0.2871 -0.5718  0.8364
37686SOL    HW215066   1.047   2.396   6.123  0.3758 -0.5454 -0.7818
37687SOL     OW15067   9.911   3.384   0.657 -0.5691  0.0533  0.4994
37687SOL    HW115068   9.864   3.309   0.695 -0.0659  0.5902  2.3077
37687SOL    HW215069   9.999   3.378   0.696 -0.6586  1.8154  1.0416
37688SOL     OW15070   0.132   6.157   9.804 -0.2717  0.2065  0.3629
37688SOL    HW115071   0.163   6.150   9.895  0.7669  0.6404  0.0518
37688SOL    HW215072   0.173   6.083   9.760  1.4338  1.5179 -0.3464
37689SOL     OW15073   5.664   1.620   5.164  0.1052 -0.1509 -0.2806
37689SOL    HW115074   5.702   1.655   5.245  0.3458  1.4168 -1.0373
37689SOL    HW215075   5.643   1.697   5.112 -0.8572 -1.1085 -1.3666
37690SOL     OW15076   3.579   7.264   8.116  0.2148 -0.0922 -0.0483
37690SOL    HW115077   3.620   7.340   8.075 -0.4816  0.8773  1.0026
37690SOL    HW215078   3.636   7.190   8.093  3.2376  1.3130  2.2628
37691SOL     OW15079   8.361   1.430   3.298  0.2453  0.2922 -0.0121
37691SOL    HW115080   8.269   1.407   3.283  0.3115  0.8740 -1.4798
37691SOL    HW215081   8.370   1.518   3.260  1.2749  0.4880  0.6387
37692SOL     OW15082   4.889   9.858   2.274  0.5052 -0.1165 -0.1522
37692SOL    HW115083   4.836   9.850   2.194 -2.1839  1.4684  1.3271
37692SOL    HW215084   4.881   9.773   2.317  1.1112 -0.6388 -1.0465
37693SOL     OW15085   7.958   4.409   1.427  0.3805  0.6548  0.3019
37693SOL    HW115086   7.878   4.358   1.415  0.8797 -0.1790  0.3854
37693SOL    HW215087   7.955   4.476   1.359 -0.6246  0.9516  0.6213
37694SOL     OW15088   3.800   9.327   2.413 -0.3087 -0.2624 -0.5737
37694SOL    HW115089   3.878   9.327   2.469  0.1611  2.3637 -1.1011
37694SOL    HW215090   3.727   9.344   2.472  0.0728  1.5253 -0.5561
37695SOL     OW15091   8.957  10.358   1.204  0.2000 -0.4394 -0.0622
37695SOL    HW115092   8.885  10.305   1.171 -1.0091  2.1330 -1.8177
37695SOL    HW215093   8.952  10.350   1.299 -2.5302 -0.2214 -0.1272
37696SOL     OW15094   0.504   9.777   7.137  0.0493 -0.0257 -0.1493
37696SOL    HW115095   0.451   9.700   7.116 -1.2097  0.1531  2.0331
37696SOL    HW215096   0.594   9.745   7.136 -0.4496 -1.5755  0.8099
37697SOL     OW15097   7.102  10.891  10.082 -0.1049  0.6305  0.1870
37697SOL    HW115098   7.110  10.864   9.990  1.9293  0.7016  0.2934
37697SOL    HW215099   7.059  10.976  10.079 -0.4550  0.4328 -0.6596
37698SOL     OW15100  10.646   3.062   3.314  0.2118  0.4106 -0.2946
37698SOL    HW115101  10.627   3.093   3.225 -2.4796  1.6530  0.6268
37698SOL    HW215102  10.588   2.987   3.326  0.4916  0.3091  0.4734
37699SOL     OW15103   1.832   2.879  10.856 -0.3925 -0.2549 -0.3767
37699SOL    HW115104   1.790   2.810  10.805  2.7191 -2.1629 -0.6497
37699SOL    HW215105   1.833   2.845  10.946 -0.5829  0.3720 -0.1281
37700SOL     OW15106   4.940   5.831   1.094 -0.2595  0.0595 -0.5745
37700SOL    HW115107   4.997   5.905   1.072  0.8498 -0.3630  0.7409
37700SOL    HW215108   4.980   5.757   1.049  0.9112 -0.4377  1.1680
37701SOL     OW15109   2.220   1.836   4.192  0.7950  0.0152 -0.5885
37701SOL    HW115110   2.304   1.880   4.185  1.4430 -0.6386  2.1044
37701SOL    HW215111   2.241   1.746   4.214 -0.6120 -0.8820 -2.5595
37702SOL     OW15112   2.492  11.043   7.684  0.2865 -0.5526  0.4795
37702SOL    HW115113   2.495  10.962   7.633  2.0619  0.6373 -1.4401
37702SOL    HW215114   2.434  11.022   7.757  2.2551 -4.2077  1.2496
37703SOL     OW15115   5.666   1.435   4.066  0.5053 -0.1025  0.2166
37703SOL    HW115116   5.678   1.472   4.154 -0.8826 -1.4176  1.0192
37703SOL    HW215117   5.661   1.340   4.081 -1.2984 -0.2577 -1.0613
37704SOL     OW15118   4.383   9.781   7.900  0.5116 -0.2360 -0.3511
37704SOL    HW115119   4.461   9.813   7.946  0.1022  1.3334 -0.6891
37704SOL    HW215120   4.406   9.789   7.807 -0.3008  0.9892 -0.4722
37705SOL     OW15121   5.626   0.940   0.953  0.3212 -0.2185 -0.1837
37705SOL    HW115122   5.590   0.906   1.034 -1.2037 -1.1722 -1.2022
37705SOL    HW215123   5.721   0.942   0.967  0.0365  0.6088  1.9408
37706SOL     OW15124   4.489   1.438  10.749 -0.1977 -0.3441 -0.1443
37706SOL    HW115125   4.508   1.519  10.701 -0.7812 -1.2882 -2.1040
37706SOL    HW215126   4.396   1.445  10.772  0.0226  0.0049  0.6490
37707SOL     OW15127   3.503   6.604   1.742  0.5237 -0.4095  0.4271
37707SOL    HW115128   3.556   6.665   1.794  1.7559 -0.7788 -0.3479
37707SOL    HW215129   3.523   6.518   1.777  1.0319 -0.6202 -0.3479
37708SOL     OW15130   1.927   1.416   0.255 -0.2794  0.4692 -0.3672
37708SOL    HW115131   1.916   1.321   0.260  0.6418  0.3962  0.5299
37708SOL    HW215132   1.899   1.439   0.166 -1.0699 -0.5568 -0.3999
37709SOL     OW15133   2.786   2.365   6.030 -0.3674 -0.0692 -0.2818
37709SOL    HW115134   2.793   2.433   6.097  1.1805 -0.6154  0.1723
37709SOL    HW215135   2.840   2.398   5.957 -0.4288 -0.3608 -0.4589
37710SOL     OW15136   8.796   7.974   4.504  0.1450  0.1126 -0.0603
37710SOL    HW115137   8.848   7.898   4.476  0.7878  0.3909  0.3531
37710SOL    HW215138   8.787   7.964   4.598  0.0289  0.4298 -0.0359
37711SOL     OW15139   1.215   0.902   2.602 -0.0716  0.3496  0.3216
37711SOL    HW115140   1.208   0.920   2.508  0.2937  0.1706  0.2612
37711SOL    HW215141   1.124   0.907   2.633 -0.0631  1.7320  0.2055
37712SOL     OW15142   5.126   2.978   0.398 -0.2565 -0.1264 -0.3052
37712SOL    HW115143   5.085   2.903   0.356 -0.5995  0.3215 -0.7849
37712SOL    HW215144   5.078   3.054   0.364  0.8823  0.3991 -0.7856
37713SOL     OW15145   3.727   8.749   4.029  0.5720  0.0490 -0.0907
37713SOL    HW115146   3.649   8.774   4.077  0.9869  1.2273  0.0014
37713SOL    HW215147   3.799   8.795   4.073  1.2721 -0.7010 -0.4074
37714SOL     OW15148   2.846   3.883  10.624 -0.0025 -0.3221 -0.2393
37714SOL    HW115149   2.816   3.793  10.614 -2.3067  0.4262 -0.6666
37714SOL    HW215150   2.853   3.916  10.534  0.1296  0.1288 -0.0682
37715SOL     OW15151   6.955   1.215   9.515 -0.5934  0.4144  0.7289
37715SOL    HW115152   6.878   1.259   9.480 -0.1440  2.7721  2.4217
37715SOL    HW215153   7.020   1.220   9.444 -1.7285 -1.0490 -0.4796
37716SOL     OW15154   8.841   0.211  10.706  0.3448 -0.1210  0.2246
37716SOL    HW115155   8.934   0.194  10.697  0.2282 -0.0081 -1.7098
37716SOL    HW215156   8.811   0.229  10.617 -1.8059 -1.5712  0.5751
37717SOL     OW15157   8.449   7.720   1.414 -0.2249  0.0473 -0.6338
37717SOL    HW115158   8.373   7.693   1.362 -0.4950 -0.1383 -0.1470
37717SOL    HW215159   8.411   7.766   1.489  0.1577  0.1206 -0.4859
37718SOL     OW15160   3.263   3.700   4.712 -0.3623  0.0015 -0.3078
37718SOL    HW115161   3.214   3.781   4.724 -0.1287  0.0759  0.1556
37718SOL    HW215162   3.242   3.647   4.789  1.8521  0.8398  0.9702
37719SOL     OW15163   7.310  10.419   3.664  0.8135  0.3013  0.6732
37719SOL    HW115164   7.402  10.404   3.645  0.6206  0.4955 -0.4695
37719SOL    HW215165   7.305  10.512   3.688  0.9590  0.2188  1.0260
37720SOL     OW15166  10.816   6.919   3.240  0.3144 -0.2271 -0.2431
37720SOL    HW115167  10.750   6.986   3.227  0.0138 -0.2045  1.1735
37720SOL    HW215168  10.873   6.955   3.309  0.0185 -1.4855  0.7025
37721SOL     OW15169   4.624   9.468   3.389  0.4875 -0.3262  0.0375
37721SOL    HW115170   4.597   9.452   3.298  0.2969  0.0160  0.0350
37721SOL    HW215171   4.558   9.527   3.424  0.9602  0.1306  0.1783
37722SOL     OW15172   8.757   3.675   6.184  0.0152  0.0620 -0.2269
37722SOL    HW115173   8.851   3.680   6.163  0.2693  0.4299  0.9180
37722SOL    HW215174   8.715   3.733   6.121  0.8074  1.5958  0.5964
37723SOL     OW15175   0.176   3.268   9.479 -0.3823 -0.2004 -0.7394
37723SOL    HW115176   0.088   3.269   9.516  0.2939 -1.2910  1.0246
37723SOL    HW215177   0.221   3.341   9.522  0.2649 -1.1657  0.2682
37724SOL     OW15178   8.635   8.001   5.369  0.1715  0.1989  0.2885
37724SOL    HW115179   8.665   7.917   5.405  0.5613 -0.7408 -2.0498
37724SOL    HW215180   8.715   8.044   5.339 -0.1022  1.1067  0.8382
37725SOL     OW15181   3.198   3.302   7.496 -0.0332  0.0992 -0.1173
37725SOL    HW115182   3.232   3.296   7.407  0.9693 -2.7786  0.3251
37725SOL    HW215183   3.113   3.258   7.493  0.9454 -2.0063  0.6421
37726SOL     OW15184   9.063   0.945   2.882 -0.3463  0.0640 -0.3745
37726SOL    HW115185   9.153   0.935   2.911 -0.3638  1.6523  0.2839
37726SOL    HW215186   9.016   0.874   2.926  0.2441  0.4012  0.8363
37727SOL     OW15187   0.388   0.166   2.236 -0.1200 -0.4984 -0.1116
37727SOL    HW115188   0.480   0.180   2.261 -0.2207 -0.1213  0.0581
37727SOL    HW215189   0.393   0.126   2.150  0.2003  0.0169 -0.3414
37728SOL     OW15190   8.412  10.493   3.164 -0.0589 -0.0728  0.6356
37728SOL    HW115191   8.392  10.411   3.210 -0.4616 -1.8038 -2.3239
37728SOL    HW215192   8.507  10.499   3.167  0.3132 -2.5707 -1.8360
37729SOL     OW15193   9.087   2.823   0.137  0.1050 -0.2792 -0.3427
37729SOL    HW115194   9.071   2.917   0.142 -1.1012 -0.4982  0.1916
37729SOL    HW215195   9.006   2.786   0.104 -1.0273 -1.5267  3.3446
37730SOL     OW15196   4.044   8.259   3.803 -0.1668 -0.5640 -0.7925
37730SOL    HW115197   3.951   8.237   3.816  0.0667 -0.5143  1.3941
37730SOL    HW215198   4.056   8.340   3.854  1.0722 -0.5422 -1.1009
37731SOL     OW15199   8.022   2.084   3.535  0.2281 -0.7586 -0.7315
37731SOL    HW115200   8.024   2.037   3.619 -0.1761 -1.3649 -1.0541
37731SOL    HW215201   8.113   2.080   3.504  0.7270  0.8172  0.3902
37732SOL     OW15202   4.966   5.465   8.434 -0.0762 -0.1418  0.4797
37732SOL    HW115203   5.017   5.542   8.457  0.4873 -0.4600  0.3283
37732SOL    HW215204   4.973   5.458   8.339 -0.4730 -0.1440  0.4463
37733SOL     OW15205   2.653   1.150   9.066 -1.0212  0.2712 -0.1754
37733SOL    HW115206   2.574   1.098   9.075 -0.9020  0.2222  0.6242
37733SOL    HW215207   2.624   1.241   9.075 -0.5772  0.1750  3.7381
37734SOL     OW15208   0.796   9.064   8.482  0.1947  0.8207 -0.6436
37734SOL    HW115209   0.825   9.010   8.556 -1.2327  2.6081  1.3151
37734SOL    HW215210   0.706   9.036   8.466  0.0443  1.3893 -0.8056
37735SOL     OW15211  10.244   7.476   1.659  0.1203  0.3335 -0.0556
37735SOL    HW115212  10.233   7.421   1.737 -0.6912  1.3698  0.5819
37735SOL    HW215213  10.199   7.557   1.681  0.2665  0.8035 -1.4528
37736SOL     OW15214   6.221   3.264   1.754  0.2883 -0.0721  0.0570
37736SOL    HW115215   6.205   3.183   1.705 -1.4582  0.8291 -0.9415
37736SOL    HW215216   6.177   3.332   1.703  0.2919  1.2465  1.7350
37737SOL     OW15217   5.866   3.285   4.245 -0.2812 -0.2930  0.0691
37737SOL    HW115218   5.947   3.236   4.260  0.3418  0.3489 -1.0365
37737SOL    HW215219   5.884   3.371   4.282 -0.1974  0.0496 -0.7332
37738SOL     OW15220   1.174   3.376   7.416  0.0049 -0.5259 -0.5210
37738SOL    HW115221   1.137   3.306   7.363 -1.0511  0.0154 -0.5331
37738SOL    HW215222   1.098   3.420   7.455  0.6575  0.3395 -0.1733
37739SOL     OW15223  10.645   0.203   4.650  0.0179 -0.0476  0.3001
37739SOL    HW115224  10.687   0.122   4.679 -2.2203 -2.0260 -1.5397
37739SOL    HW215225  10.595   0.234   4.726 -0.4434 -1.3655  0.5503
37740SOL     OW15226   7.349   9.122   4.802 -0.0565  0.8234 -0.0911
37740SOL    HW115227   7.405   9.098   4.876 -0.3300  2.5120  0.7043
37740SOL    HW215228   7.267   9.151   4.843 -0.8045  0.2726 -1.1474
37741SOL     OW15229   9.322   6.705   4.857 -0.3668  0.3254  0.3291
37741SOL    HW115230   9.285   6.704   4.945 -0.9359 -0.6923  0.0900
37741SOL    HW215231   9.386   6.634   4.856  0.5402  1.1256  0.2844
37742SOL     OW15232   1.440   0.254   4.420  0.6368  0.0899 -0.0101
37742SOL    HW115233   1.374   0.314   4.455 -0.8107 -2.3986  1.9525
37742SOL    HW215234   1.521   0.279   4.463  0.4318  1.5080 -0.3817
37743SOL     OW15235   8.927   3.120   5.390 -0.8206  0.4372  0.2231
37743SOL    HW115236   9.018   3.102   5.412 -0.8499  0.1509  0.1122
37743SOL    HW215237   8.929   3.206   5.348 -0.4001 -0.1962 -1.1011
37744SOL     OW15238   8.838   2.440   3.566  0.3139 -0.0313  0.1895
37744SOL    HW115239   8.903   2.370   3.557 -0.7244 -0.9258 -0.6451
37744SOL    HW215240   8.888   2.521   3.553  1.4118 -0.6366  0.4893
37745SOL     OW15241  10.090   5.972   8.023  0.1871 -0.8042 -0.3145
37745SOL    HW115242  10.153   5.906   7.994  1.8158  0.6505 -0.2588
37745SOL    HW215243  10.027   5.923   8.076  1.8025 -2.1907  0.4295
37746SOL     OW15244   4.079   3.506   3.585 -0.0640  0.0798  0.9037
37746SOL    HW115245   4.109   3.417   3.605  2.0714  0.9865  1.9928
37746SOL    HW215246   4.148   3.543   3.530 -2.3126  0.1774 -2.1031
37747SOL     OW15247   7.519  10.492  10.861  0.2791 -0.4947  0.3247
37747SOL    HW115248   7.514  10.455  10.772 -1.9529 -2.6881  1.2358
37747SOL    HW215249   7.461  10.437  10.913  0.0544  1.8583  2.7934
37748SOL     OW15250   2.055   4.350   6.009  0.0739 -0.2209  0.0541
37748SOL    HW115251   2.124   4.367   5.944  0.0675  0.1874  0.1515
37748SOL    HW215252   1.983   4.314   5.957  0.4768 -0.9868 -0.0004
37749SOL     OW15253   0.758   1.213   3.206 -0.0785  0.3194 -0.1989
37749SOL    HW115254   0.704   1.135   3.216 -1.1386  0.8165 -1.7112
37749SOL    HW215255   0.827   1.187   3.145 -0.8290  0.7079 -1.2535
37750SOL     OW15256   8.144   8.446   6.283 -0.2995  0.0902  0.2601
37750SOL    HW115257   8.190   8.514   6.234 -2.0681  0.4483 -0.9834
37750SOL    HW215258   8.208   8.374   6.289  0.1118  0.1263 -2.4081
37751SOL     OW15259   0.003   0.483   8.430  0.2098  0.2443 -0.0252
37751SOL    HW115260  -0.091   0.481   8.417  0.4296 -1.1887 -1.8488
37751SOL    HW215261   0.027   0.576   8.425 -1.2637  0.8473  2.3959
37752SOL     OW15262   0.368  10.153   5.559 -0.1920  0.8523  0.0590
37752SOL    HW115263   0.336  10.128   5.646 -0.0818  0.6600  0.0457
37752SOL    HW215264   0.298  10.128   5.499 -0.0462  0.4799  0.0358
37753SOL     OW15265   9.610   7.180   2.641 -0.0327  0.0025  0.2353
37753SOL    HW115266   9.582   7.089   2.629  0.0092  0.0034  0.1227
37753SOL    HW215267   9.543   7.219   2.697 -0.4037  0.0741 -0.2437
37754SOL     OW15268   1.929   2.022   8.502 -0.0622  0.7404 -0.1423
37754SOL    HW115269   1.924   2.109   8.464 -0.4032  0.8449  0.1390
37754SOL    HW215270   2.020   2.015   8.532 -0.1772  1.2136  0.3354
37755SOL     OW15271   0.575   4.338   1.533  0.0393  0.0709 -0.5428
37755SOL    HW115272   0.573   4.378   1.620  0.3836 -2.2056  0.5750
37755SOL    HW215273   0.662   4.359   1.499  0.8224 -1.0349  0.7007
37756SOL     OW15274   2.848   4.025   3.113 -0.1973  0.0173  0.2159
37756SOL    HW115275   2.845   3.950   3.172 -2.3276 -0.1392 -0.0373
37756SOL    HW215276   2.907   3.997   3.042 -0.6447 -1.2738  0.3199
37757SOL     OW15277   4.492   2.116   6.157 -0.5020  0.7249  0.3553
37757SOL    HW115278   4.580   2.081   6.174 -0.3183  0.1044 -1.6781
37757SOL    HW215279   4.463   2.147   6.243  0.5705 -1.6354  1.6837
37758SOL     OW15280   2.651   6.654   3.518 -0.1813 -0.0517 -0.1182
37758SOL    HW115281   2.729   6.600   3.504  0.8648  1.4343 -0.2594
37758SOL    HW215282   2.607   6.655   3.433  0.9905  1.0738 -0.7585
37759SOL     OW15283   6.792   8.046   5.976  0.6710  0.5468 -0.2207
37759SOL    HW115284   6.796   8.000   6.060  0.8081  0.6700 -0.1601
37759SOL    HW215285   6.853   8.118   5.985  0.8717  0.4149 -0.5171
37760SOL     OW15286   5.770   1.058   1.747  0.4779  0.7307  0.0065
37760SOL    HW115287   5.834   0.992   1.720 -1.5643 -1.1191 -0.6172
37760SOL    HW215288   5.687   1.011   1.748 -0.9027  3.0480  0.7258
37761SOL     OW15289   0.065   3.087   5.037  0.8903 -0.1673  0.3336
37761SOL    HW115290   0.019   3.083   4.954  2.8285 -1.0645 -0.7672
37761SOL    HW215291   0.100   3.176   5.041  2.0244 -0.5374 -0.5763
37762SOL     OW15292   8.437   0.457   9.599 -0.3757 -0.2654  0.7889
37762SOL    HW115293   8.359   0.468   9.653 -1.2901  1.5616 -0.7528
37762SOL    HW215294   8.403   0.447   9.510  1.1252 -0.4136  0.2032
37763SOL     OW15295  10.902   3.398   0.466 -0.2053 -0.0793 -0.0692
37763SOL    HW115296  10.901   3.412   0.560  0.5047  1.3175 -0.2486
37763SOL    HW215297  10.962   3.325   0.453  0.1321  0.0884  0.5266
37764SOL     OW15298   2.160   9.564   7.427  0.4924  0.2091 -0.0585
37764SOL    HW115299   2.238   9.516   7.397  1.0925  1.7203 -1.0149
37764SOL    HW215300   2.113   9.586   7.347  0.5705  1.7672  0.3012
37765SOL     OW15301   1.469   8.442   2.342  0.3676 -0.2243 -0.6365
37765SOL    HW115302   1.410   8.486   2.281 -0.5547  1.3507  1.2953
37765SOL    HW215303   1.530   8.510   2.370  0.9085 -0.9652  0.0230
37766SOL     OW15304   5.545   2.559   3.316  0.0830 -0.0886  0.2150
37766SOL    HW115305   5.560   2.502   3.392 -1.9686 -1.2367 -0.1500
37766SOL    HW215306   5.571   2.646   3.346 -2.5776 -0.0704  3.0677
37767SOL     OW15307   7.874   3.056   3.367  0.0300 -0.0387 -0.2517
37767SOL    HW115308   7.781   3.054   3.343 -0.1063 -0.9446  0.2875
37767SOL    HW215309   7.878   3.118   3.440  0.0158  0.7482 -0.9181
37768SOL     OW15310  10.168   1.705  10.435  0.1639  0.0371  0.2339
37768SOL    HW115311  10.094   1.731  10.379 -0.1452 -1.1707  0.0619
37768SOL    HW215312  10.243   1.749  10.396 -0.4882  1.5406  0.5924
37769SOL     OW15313   2.772   5.581   7.811  0.2752  0.1423 -0.1926
37769SOL    HW115314   2.812   5.588   7.897 -0.2188  0.3310  0.0294
37769SOL    HW215315   2.678   5.588   7.828  0.2392  2.1426 -0.9216
37770SOL     OW15316   2.225   3.681   1.673  0.4606 -0.8796  0.0468
37770SOL    HW115317   2.279   3.724   1.607  1.3042  0.6140  1.6287
37770SOL    HW215318   2.138   3.718   1.661  0.3553 -1.4048 -0.8804
37771SOL     OW15319   2.238   1.965   3.268  0.2390 -0.1007 -0.1860
37771SOL    HW115320   2.219   2.044   3.218 -0.8462 -2.2679 -3.5909
37771SOL    HW215321   2.334   1.957   3.265  0.3701  1.0995  0.3038
37772SOL     OW15322  10.626   8.018   3.560  0.1132  0.2338  0.5173
37772SOL    HW115323  10.634   7.946   3.497 -2.1149  0.6924 -0.3687
37772SOL    HW215324  10.553   7.992   3.616  0.2058  1.1691  1.0803
37773SOL     OW15325   8.397   7.131   3.943  0.6982  0.2169 -0.5748
37773SOL    HW115326   8.450   7.161   4.016 -0.9544 -1.4527  1.4487
37773SOL    HW215327   8.411   7.036   3.941 -1.4025 -0.1548 -0.5584
37774SOL     OW15328   2.380   0.159   8.478  0.4772 -0.0168 -0.2126
37774SOL    HW115329   2.335   0.157   8.562 -0.9536 -0.3359 -0.9596
37774SOL    HW215330   2.387   0.251   8.456  0.5180  0.0484  0.0661
37775SOL     OW15331  10.999   2.157   6.908 -0.7671  0.0185  0.6191
37775SOL    HW115332  11.062   2.223   6.937 -0.4628 -0.8211  1.9380
37775SOL    HW215333  11.053   2.084   6.879 -1.1251 -0.0439  0.0816
37776SOL     OW15334  10.469   8.610   1.162 -0.3538  0.9674 -0.3155
37776SOL    HW115335  10.431   8.681   1.213  0.7309  3.2513 -2.4913
37776SOL    HW215336  10.426   8.615   1.077  1.1580  0.3312 -1.1599
37777SOL     OW15337  10.865   4.330   4.451 -0.1845 -0.2653 -0.1265
37777SOL    HW115338  10.864   4.345   4.545  1.1009 -1.0150  0.0223
37777SOL    HW215339  10.793   4.267   4.436  1.2617 -2.2220  0.7620
37778SOL     OW15340   3.121   4.493   8.410  0.3489 -0.3920  0.1931
37778SOL    HW115341   3.068   4.527   8.482  1.3764  0.5369  0.5350
37778SOL    HW215342   3.205   4.470   8.451  0.7334 -0.4229 -0.5998
37779SOL     OW15343  10.977   1.456   2.912 -0.1847  0.0400  0.1993
37779SOL    HW115344  11.027   1.536   2.928  1.1486 -0.2248 -2.1339
37779SOL    HW215345  10.930   1.440   2.993 -1.0867  3.5833  0.5355
37780SOL     OW15346   7.970   3.004  10.088 -0.6154  0.6783 -0.6321
37780SOL    HW115347   7.877   3.002  10.112 -0.7584 -3.6146 -0.7443
37780SOL    HW215348   8.016   3.004  10.171 -0.7795  0.3426 -0.5397
37781SOL     OW15349   7.835   1.026   4.087 -0.4088  0.4175 -0.1865
37781SOL    HW115350   7.776   1.101   4.086  0.6048  1.2378 -0.4341
37781SOL    HW215351   7.892   1.040   4.012  0.5542  0.0298  0.4565
37782SOL     OW15352   3.787  10.864   7.877 -0.3889 -0.2797 -0.4013
37782SOL    HW115353   3.878  10.878   7.902 -0.2904 -1.2235 -0.1973
37782SOL    HW215354   3.769  10.773   7.901 -1.1282 -0.3667 -1.2167
37783SOL     OW15355  11.078   2.462   8.784  0.7093  0.2529  0.1453
37783SOL    HW115356  11.016   2.485   8.853  2.1473  1.3631  1.1348
37783SOL    HW215357  11.049   2.511   8.708 -0.3645 -0.2668  0.2043
37784SOL     OW15358   7.654   4.574  10.268  0.0286  0.3841 -0.4375
37784SOL    HW115359   7.647   4.500  10.328 -0.4788 -1.1897 -2.3508
37784SOL    HW215360   7.571   4.621  10.278 -0.2426 -0.1328 -0.2588
37785SOL     OW15361   9.235   6.973   3.356  0.0196 -0.3270  0.0017
37785SOL    HW115362   9.211   6.900   3.413 -0.8327  0.3417  0.5357
37785SOL    HW215363   9.313   7.011   3.397 -1.8633  1.5708  2.1606
37786SOL     OW15364   2.452   8.068   6.421  0.2443  0.0703 -0.1571
37786SOL    HW115365   2.425   8.083   6.330  0.1527  1.6706  0.1031
37786SOL    HW215366   2.546   8.085   6.421  0.3974 -0.7315 -0.0984
37787SOL     OW15367   5.301  10.745   2.452  0.2130  0.1175  0.0942
37787SOL    HW115368   5.260  10.825   2.418 -0.4570 -0.3205 -0.1419
37787SOL    HW215369   5.392  10.751   2.423  0.2804  0.9903  0.4255
37788SOL     OW15370   0.632   2.186   1.390  0.1640 -0.4034  0.0822
37788SOL    HW115371   0.619   2.145   1.305  0.9077  0.8122 -0.6586
37788SOL    HW215372   0.719   2.156   1.418  0.9499  1.0100 -0.7153
37789SOL     OW15373   1.386   4.273  10.147  0.1091 -0.4436 -0.2533
37789SOL    HW115374   1.474   4.299  10.118  0.8650 -0.6414  1.7089
37789SOL    HW215375   1.376   4.183  10.116  0.7702 -0.5592 -0.1388
37790SOL     OW15376   8.911   9.991   5.939  0.1131  0.2128 -0.2067
37790SOL    HW115377   8.932   9.939   5.861 -0.7109 -0.0243 -0.2802
37790SOL    HW215378   8.947   9.941   6.012  0.4361  0.1780 -0.3870
37791SOL     OW15379  10.968   7.399   9.050 -0.7911  0.1040  0.4361
37791SOL    HW115380  11.051   7.443   9.036 -0.6735 -0.8026 -2.3332
37791SOL    HW215381  10.991   7.317   9.096 -0.3709  0.5025  0.9491
37792SOL     OW15382   4.910   4.163  10.794  0.1261 -0.3508  0.1103
37792SOL    HW115383   4.824   4.201  10.814  0.1860 -0.3277  0.3293
37792SOL    HW215384   4.948   4.144  10.880  1.0031  1.1035  0.0694
37793SOL     OW15385   1.005   0.143   6.952  0.6271  0.1201  0.4176
37793SOL    HW115386   0.957   0.189   6.883  0.3567 -1.6974 -0.6706
37793SOL    HW215387   0.982   0.189   7.032 -1.7680  0.2508 -0.2667
37794SOL     OW15388   7.047   5.021   0.542 -0.1121 -0.6295 -0.5556
37794SOL    HW115389   7.136   5.013   0.506 -0.0852  0.2051 -0.6860
37794SOL    HW215390   7.003   5.082   0.483 -0.6902 -0.8189 -0.3261
37795SOL     OW15391   4.134   2.257   2.465  0.1040  0.6262 -0.0973
37795SOL    HW115392   4.103   2.204   2.538 -0.2101  1.5526  0.4561
37795SOL    HW215393   4.213   2.212   2.435  0.6396  0.6044  1.2623
37796SOL     OW15394  11.044   8.079   5.120  0.6959 -0.5670 -0.5988
37796SOL    HW115395  11.117   8.033   5.162 -0.3517 -1.2094  0.5841
37796SOL    HW215396  10.966   8.036   5.154 -0.2485 -0.8313 -2.9182
37797SOL     OW15397   7.601   5.758   6.920  0.5046 -0.1630 -0.0074
37797SOL    HW115398   7.611   5.815   6.844  0.3462 -0.9705 -0.6495
37797SOL    HW215399   7.508   5.758   6.939  0.5046 -0.2255 -0.0087
37798SOL     OW15400   7.381   3.145   1.705 -1.2275 -0.3637  0.5094
37798SOL    HW115401   7.430   3.227   1.699 -1.8210 -0.0211  0.2453
37798SOL    HW215402   7.311   3.163   1.768 -1.4075 -0.6453  0.3919
37799SOL     OW15403   2.876   3.368   1.335 -0.3018 -0.1974  0.0749
37799SOL    HW115404   2.862   3.275   1.316  1.0494 -0.2826 -0.7186
37799SOL    HW215405   2.817   3.414   1.275  1.0123 -0.5394 -1.5637
37800SOL     OW15406   6.068   0.905   6.757  0.2911  0.1122 -0.0533
37800SOL    HW115407   6.130   0.873   6.692  0.7985  0.8313  0.0586
37800SOL    HW215408   5.985   0.911   6.711  0.4479 -0.2562 -0.3834
37801SOL     OW15409   8.828   9.997  10.429  0.2374  0.3796  0.0854
37801SOL    HW115410   8.899  10.019  10.490  1.8767  0.5476 -1.7791
37801SOL    HW215411   8.872   9.957  10.354 -1.4873  1.5928 -1.6988
37802SOL     OW15412   1.276   1.005   4.396  0.3289 -0.2014 -0.2162
37802SOL    HW115413   1.331   1.081   4.378  1.9972 -0.9878  1.1915
37802SOL    HW215414   1.316   0.934   4.346 -0.9176 -0.2795 -1.1340
37803SOL     OW15415   7.439   7.651   1.046  0.1365 -0.4414  0.2013
37803SOL    HW115416   7.513   7.712   1.053  0.2221 -0.5324  0.0802
37803SOL    HW215417   7.373   7.699   0.995  0.9771 -1.1958 -1.6709
37804SOL     OW15418   7.462   0.865   7.797  0.3315  0.0766 -0.1552
37804SOL    HW115419   7.379   0.907   7.820  0.3927  0.5011 -0.6947
37804SOL    HW215420   7.529   0.928   7.825  0.3836  1.1737 -2.5303
37805SOL     OW15421   0.888   9.977   0.677  0.1619 -0.7078 -0.5851
37805SOL    HW115422   0.878   9.884   0.693 -4.1270 -0.6905 -1.7949
37805SOL    HW215423   0.854  10.019   0.756  1.2701 -0.1720 -0.3834
37806SOL     OW15424   0.634   5.934   3.222  0.3045  0.4142 -0.0960
37806SOL    HW115425   0.633   5.871   3.295  0.9427 -0.4184 -0.7786
37806SOL    HW215426   0.542   5.948   3.202  0.0769  1.3868  1.4587
37807SOL     OW15427   8.507   1.723   5.005  0.0642  0.5342 -0.0175
37807SOL    HW115428   8.452   1.645   4.998  2.2035 -1.0358 -0.7116
37807SOL    HW215429   8.459   1.782   5.062 -1.3216 -1.6362  1.2111
37808SOL     OW15430  10.885   2.014   5.930  0.1870  0.2002 -0.1936
37808SOL    HW115431  10.935   1.960   5.992  0.6718  2.0646  1.1582
37808SOL    HW215432  10.803   2.033   5.976  0.3420  1.2018 -0.3004
37809SOL     OW15433   9.326   2.016   7.313 -0.6908  0.1425  0.4777
37809SOL    HW115434   9.308   2.030   7.406 -1.5457  0.2980  0.3046
37809SOL    HW215435   9.397   1.953   7.311  0.4821  1.3888  1.2480
37810SOL     OW15436   9.437   4.600   1.315 -0.2319  0.2296 -0.5356
37810SOL    HW115437   9.507   4.602   1.250 -0.1412  0.0910 -0.4432
37810SOL    HW215438   9.455   4.522   1.367  1.5786  1.9891  1.7074
37811SOL     OW15439  10.556   5.266   0.271  0.0061 -1.1931 -0.0781
37811SOL    HW115440  10.531   5.257   0.363  1.6072 -0.3642  0.4690
37811SOL    HW215441  10.498   5.334   0.237  0.0237 -0.8482  0.5673
37812SOL     OW15442  10.649   4.473  10.314 -0.5427  0.5196 -0.5354
37812SOL    HW115443  10.666   4.567  10.307 -0.8646  0.7191  0.9690
37812SOL    HW215444  10.585   4.455  10.245  0.1785  1.2189 -1.4082
37813SOL     OW15445   9.326   2.031   7.627  0.0221  0.0687  0.1819
37813SOL    HW115446   9.239   2.020   7.588  0.7404  2.4260 -2.3754
37813SOL    HW215447   9.312   2.020   7.721 -3.1059  0.6614 -0.1228
37814SOL     OW15448   0.883   0.456   3.519  0.4714  0.3349 -0.1701
37814SOL    HW115449   0.827   0.514   3.467 -0.2209 -0.1784 -0.0273
37814SOL    HW215450   0.824   0.385   3.547  1.5648 -1.1263 -1.3950
37815SOL     OW15451   6.034   9.716   3.476  0.0046  0.0069 -0.3726
37815SOL    HW115452   5.949   9.698   3.435  0.4023 -0.9376 -0.8280
37815SOL    HW215453   6.055   9.806   3.452 -0.2683 -0.1863 -1.3663
37816SOL     OW15454   9.731   3.251   3.547  0.4852  0.1425 -0.4526
37816SOL    HW115455   9.693   3.182   3.603 -0.3222 -1.8274 -3.2306
37816SOL    HW215456   9.788   3.300   3.606 -0.4586 -1.6436  2.1487
37817SOL     OW15457   5.287   0.584   7.120 -0.3107  0.1779  0.5586
37817SOL    HW115458   5.306   0.565   7.212 -0.1541 -0.2848  0.4317
37817SOL    HW215459   5.335   0.665   7.102  2.1590 -1.2810  0.0659
37818SOL     OW15460   3.604   8.053   3.579  0.0324 -0.0898 -0.0443
37818SOL    HW115461   3.578   7.963   3.602  1.0977 -0.5403 -0.5645
37818SOL    HW215462   3.522   8.103   3.584 -0.3131 -0.7664  1.7292
37819SOL     OW15463   1.387   2.613   9.825  0.2641 -0.1033  0.6517
37819SOL    HW115464   1.478   2.601   9.855 -0.2482 -3.6085  1.2130
37819SOL    HW215465   1.335   2.607   9.905 -0.7219 -3.6006 -0.1060
37820SOL     OW15466   1.219   4.442   5.236 -0.1729  0.0471  0.3992
37820SOL    HW115467   1.258   4.377   5.178  0.2425 -0.0918  0.8350
37820SOL    HW215468   1.285   4.511   5.245 -1.1875  1.3349 -1.3294
37821SOL     OW15469   1.537   9.518   3.433  0.4735 -0.4297  0.5068
37821SOL    HW115470   1.599   9.571   3.382  0.0112 -0.3856 -0.0153
37821SOL    HW215471   1.474   9.581   3.467  0.8251 -0.4505  1.2059
37822SOL     OW15472   1.876   2.846   3.590 -0.6110  0.1260  0.8840
37822SOL    HW115473   1.836   2.811   3.670 -2.3767 -0.4303 -0.1997
37822SOL    HW215474   1.966   2.814   3.593 -0.5612  0.3063  2.7456
37823SOL     OW15475   1.638   6.002   7.155  0.1066 -0.4104  0.7033
37823SOL    HW115476   1.640   6.047   7.071 -0.0826 -3.3487 -1.0168
37823SOL    HW215477   1.612   6.069   7.218 -0.0621  1.8299 -1.5949
37824SOL     OW15478  10.208   8.618   0.314  0.4825  0.3804 -0.0714
37824SOL    HW115479  10.127   8.669   0.303  0.2551  0.2559  0.9406
37824SOL    HW215480  10.208   8.593   0.406  0.1279 -2.2287 -0.6998
37825SOL     OW15481   9.914   9.672   7.052  0.9053 -0.0675  0.1005
37825SOL    HW115482   9.870   9.587   7.056  1.4261 -0.3139  0.5813
37825SOL    HW215483   9.874   9.723   7.122 -1.0170  0.8811 -1.5613
37826SOL     OW15484   6.365   7.446   8.646 -0.2170 -0.5592  0.7699
37826SOL    HW115485   6.385   7.371   8.703 -0.5926 -2.4628 -1.4372
37826SOL    HW215486   6.270   7.442   8.635 -0.2479  0.3027  0.7116
37827SOL     OW15487   6.084   2.443   4.428  0.3129 -0.2411  0.6899
37827SOL    HW115488   6.120   2.364   4.390  0.9518  1.0421 -1.5542
37827SOL    HW215489   5.994   2.420   4.451  0.6598 -1.7454  0.6140
37828SOL     OW15490  10.340   6.609   3.926 -0.2302 -0.2813  0.6865
37828SOL    HW115491  10.301   6.684   3.970 -3.4316 -0.0912 -2.0608
37828SOL    HW215492  10.273   6.541   3.931  0.8250 -1.4797 -0.6292
37829SOL     OW15493   3.125   0.584   8.586 -0.1090  0.1867  0.5879
37829SOL    HW115494   3.116   0.634   8.668 -1.0077  0.4457  0.3447
37829SOL    HW215495   3.153   0.497   8.614 -0.6891  0.1845  1.2031
37830SOL     OW15496   5.479   3.189   3.002  0.6774 -0.1006  0.1425
37830SOL    HW115497   5.558   3.184   3.055  0.2839  1.4082  0.9368
37830SOL    HW215498   5.498   3.255   2.935  0.0619  0.3525  0.4056
37831SOL     OW15499   7.465   3.420   1.664 -0.2228  0.3063 -0.2848
37831SOL    HW115500   7.382   3.438   1.619  0.1382 -1.5635 -1.8421
37831SOL    HW215501   7.532   3.457   1.606  0.1052  0.8430  0.4225
37832SOL     OW15502   1.385   5.043   2.262  0.2034  0.3186  0.2104
37832SOL    HW115503   1.347   5.054   2.349 -1.7286  0.3813 -0.5915
37832SOL    HW215504   1.371   5.126   2.218  1.5659  0.4358 -0.0375
37833SOL     OW15505   8.754   3.577   5.405 -0.2504 -0.3139 -1.0058
37833SOL    HW115506   8.790   3.636   5.471 -0.6376  0.6729 -1.6399
37833SOL    HW215507   8.664   3.560   5.434  0.0465 -1.0904 -0.5129
37834SOL     OW15508   9.342   9.201   6.069  0.0532  0.1448 -0.3814
37834SOL    HW115509   9.428   9.162   6.051 -0.3973 -1.0088 -0.1215
37834SOL    HW215510   9.345   9.222   6.163  0.1110  0.2912 -0.4145
37835SOL     OW15511   7.656   6.586   5.458  0.1601  0.2643  0.2058
37835SOL    HW115512   7.626   6.495   5.456  1.6133 -0.2295 -0.3201
37835SOL    HW215513   7.710   6.592   5.537  0.7809  0.4188 -0.2229
37836SOL     OW15514   7.880   0.202   2.333  0.3245  0.0773  0.1060
37836SOL    HW115515   7.883   0.117   2.378 -1.5069  0.3021  0.7225
37836SOL    HW215516   7.812   0.251   2.379  1.2886  1.8724 -0.2917
37837SOL     OW15517   0.294   5.537   7.240 -0.2857 -0.2340  0.1019
37837SOL    HW115518   0.219   5.514   7.294 -1.4173  1.1329 -0.8130
37837SOL    HW215519   0.280   5.491   7.158 -0.8260  1.0034 -0.5279
37838SOL     OW15520   9.229   6.184   5.814 -0.1154  0.3327  0.4182
37838SOL    HW115521   9.197   6.262   5.860 -0.8969 -0.5179  1.3430
37838SOL    HW215522   9.300   6.151   5.870 -0.2645 -0.0276  0.3947
37839SOL     OW15523   1.693   5.606   8.751 -0.1811 -0.4731  0.4162
37839SOL    HW115524   1.693   5.581   8.843  0.4950  0.0772  0.5721
37839SOL    HW215525   1.618   5.666   8.742  0.8356  0.9371  1.0347
37840SOL     OW15526   5.003   0.062   5.228  0.1113 -0.4481  0.5839
37840SOL    HW115527   4.919   0.018   5.241 -0.1409 -0.0084  0.4753
37840SOL    HW215528   4.986   0.125   5.158  0.3089  0.2180  1.1219
37841SOL     OW15529   0.677   2.393   1.111 -0.0870 -0.0225  0.4192
37841SOL    HW115530   0.623   2.329   1.065 -0.4364 -1.1893  2.3373
37841SOL    HW215531   0.626   2.416   1.189  1.5289 -0.0694  1.5572
37842SOL     OW15532   8.887   2.880   6.110 -0.2469  0.0638 -0.5646
37842SOL    HW115533   8.827   2.807   6.093  0.0299  0.0844 -1.6926
37842SOL    HW215534   8.929   2.897   6.026  2.6002 -1.0555  0.5078
37843SOL     OW15535   2.190   6.463   3.891  0.5549 -0.5737  0.1308
37843SOL    HW115536   2.245   6.537   3.864 -0.1796  0.6554  1.8582
37843SOL    HW215537   2.100   6.496   3.884  0.2620 -0.8707  1.9940
37844SOL     OW15538   8.872   6.696   4.359 -0.0519 -0.3752 -1.3813
37844SOL    HW115539   8.870   6.600   4.365 -1.6495 -0.3031  0.0365
37844SOL    HW215540   8.962   6.719   4.382  0.1661 -1.5216 -0.9844
37845SOL     OW15541   9.049   8.085   8.750  0.4202 -0.1829 -0.3370
37845SOL    HW115542   8.996   8.145   8.698  0.2107 -0.9917 -1.0912
37845SOL    HW215543   9.138   8.119   8.741 -0.0551  2.0257  2.1092
37846SOL     OW15544   1.555   1.709   2.749  0.0197 -0.1477 -0.2840
37846SOL    HW115545   1.564   1.675   2.839 -2.0394  0.7639  0.3168
37846SOL    HW215546   1.537   1.631   2.696  0.9910 -0.6623  0.1104
37847SOL     OW15547   4.943   0.254   2.424  0.4155 -0.6575 -0.2192
37847SOL    HW115548   4.943   0.189   2.494 -0.5611  0.5168  0.9337
37847SOL    HW215549   4.959   0.337   2.469  0.1960  0.0719 -1.4524
37848SOL     OW15550   5.876   0.380   3.110 -0.4391  0.0933 -0.3705
37848SOL    HW115551   5.836   0.395   3.196  1.3321 -1.1234  0.7553
37848SOL    HW215552   5.940   0.450   3.101  0.7964 -0.8923  0.2939
37849SOL     OW15553  10.865   4.061   3.825  0.4372 -0.1969 -0.3131
37849SOL    HW115554  10.872   4.093   3.915 -0.4815 -2.1601  0.5159
37849SOL    HW215555  10.855   4.140   3.772 -1.0272  0.9344  1.5258
37850SOL     OW15556   0.052   4.480   0.574 -0.2066  0.7173 -0.8934
37850SOL    HW115557  -0.029   4.433   0.597  0.4313 -0.2636 -0.5789
37850SOL    HW215558   0.029   4.572   0.584 -1.2535  0.4544 -0.6769
37851SOL     OW15559   1.576  10.920   1.077  0.1294  0.1091  0.9390
37851SOL    HW115560   1.568  10.873   1.160  1.5215 -0.5486  0.7253
37851SOL    HW215561   1.660  10.891   1.041  0.6089  2.0651  0.3541
37852SOL     OW15562   0.111   6.311   1.443 -0.4140 -0.2808  0.2184
37852SOL    HW115563   0.074   6.341   1.526  1.6092 -0.2128  1.1417
37852SOL    HW215564   0.198   6.280   1.465 -0.3868 -1.7021 -1.6538
37853SOL     OW15565  10.198   0.497   4.956 -0.7935 -0.1769 -0.1645
37853SOL    HW115566  10.126   0.560   4.954 -1.2541 -0.6797  0.5300
37853SOL    HW215567  10.165   0.421   4.909 -1.6351 -1.3544  2.1842
37854SOL     OW15568   5.571   6.451   2.276 -0.1500 -0.6074  0.4899
37854SOL    HW115569   5.567   6.391   2.350  0.6940 -0.9901  0.2360
37854SOL    HW215570   5.638   6.415   2.219 -0.9368 -0.4364 -0.5790
37855SOL     OW15571   0.430   5.763   5.522  0.2493  0.3217  0.0053
37855SOL    HW115572   0.344   5.778   5.483  0.7424  1.5449 -0.6848
37855SOL    HW215573   0.438   5.668   5.527 -2.2521  0.0986  2.6568
37856SOL     OW15574   6.074   5.334   9.969 -0.2292 -0.2620 -0.0700
37856SOL    HW115575   6.034   5.365   9.888 -0.4913  0.2365  0.2437
37856SOL    HW215576   6.035   5.388  10.038 -1.0431 -1.5880  0.5520
37857SOL     OW15577   5.155  10.535   2.037  0.7057 -0.0738 -0.0174
37857SOL    HW115578   5.166  10.604   1.972  0.3079 -0.6471 -0.7071
37857SOL    HW215579   5.244  10.516   2.068  0.9727 -0.2552 -0.8766
37858SOL     OW15580   4.922   6.208   0.661  0.3680  0.3987 -0.2637
37858SOL    HW115581   4.852   6.143   0.670  0.9754 -0.5820 -2.1162
37858SOL    HW215582   4.987   6.182   0.726 -0.2591  0.3517  0.3590
37859SOL     OW15583   1.906   4.544   5.629 -0.2900 -0.1934  0.3345
37859SOL    HW115584   1.849   4.497   5.690  1.8436 -0.6138  2.1317
37859SOL    HW215585   1.927   4.479   5.562  0.4098 -1.0062  1.2971
37860SOL     OW15586   3.636   3.706   1.995 -0.2097 -0.2163 -0.1675
37860SOL    HW115587   3.630   3.795   2.029  0.5352 -0.1638 -0.1378
37860SOL    HW215588   3.724   3.677   2.022 -0.8225 -1.3299  0.6997
37861SOL     OW15589   8.479   2.601   8.871 -0.1757  0.0107  0.0861
37861SOL    HW115590   8.512   2.546   8.799  1.4158 -0.0313  0.8039
37861SOL    HW215591   8.427   2.542   8.925  1.5385 -0.8481  0.8616
37862SOL     OW15592   8.922   0.744   1.993 -0.3556 -0.0480  0.3580
37862SOL    HW115593   8.877   0.785   2.067  1.2427  0.0215  1.3461
37862SOL    HW215594   8.922   0.811   1.925 -1.7477 -0.0693  0.3151
37863SOL     OW15595   8.121   8.093   7.089 -0.2957 -0.0336 -0.4976
37863SOL    HW115596   8.135   8.058   7.001  1.3410 -0.3687 -0.1322
37863SOL    HW215597   8.154   8.025   7.148  0.5965  1.0617  0.3044
37864SOL     OW15598   2.782   2.865   1.283  0.0712 -0.5319  0.2154
37864SOL    HW115599   2.693   2.878   1.315  0.2116 -0.8451  0.7323
37864SOL    HW215600   2.810   2.781   1.320  0.5885 -0.4282  0.0731
37865SOL     OW15601   8.005   7.760   9.833 -0.1343  0.0380 -0.6641
37865SOL    HW115602   7.937   7.797   9.777 -1.2015 -2.0015 -0.7850
37865SOL    HW215603   8.049   7.695   9.779 -0.0660 -0.7630  0.3260
37866SOL     OW15604   9.547   3.000   9.156 -0.3884 -0.6079  0.1013
37866SOL    HW115605   9.454   3.006   9.177  0.0538  0.5637  2.0427
37866SOL    HW215606   9.579   3.090   9.164  1.0541 -1.0972  0.1975
37867SOL     OW15607   0.262  10.633   1.910 -0.3984  0.5283 -0.3964
37867SOL    HW115608   0.266  10.728   1.905  3.1166  0.5675  0.4269
37867SOL    HW215609   0.350  10.604   1.887 -0.3523 -2.2986  2.5694
37868SOL     OW15610   6.682   9.735   6.894  0.4152 -0.0929  0.1172
37868SOL    HW115611   6.607   9.771   6.941 -1.1630 -1.9672 -0.8331
37868SOL    HW215612   6.744   9.712   6.964 -0.9488 -0.7889  1.1460
37869SOL     OW15613   0.037   8.745  10.829  0.5311  0.2223  0.3972
37869SOL    HW115614   0.012   8.808  10.762 -1.2276  0.1914  0.9690
37869SOL    HW215615   0.063   8.798  10.904  0.5006  0.2741  0.3707
37870SOL     OW15616   4.737   9.224   0.605 -0.1289  0.4023  0.1079
37870SOL    HW115617   4.694   9.301   0.570 -1.1279 -0.2043 -0.0407
37870SOL    HW215618   4.714   9.223   0.698 -0.0385  0.3376  0.1302
37871SOL     OW15619   5.673   6.628   6.823  1.0562  0.2027 -0.1470
37871SOL    HW115620   5.581   6.649   6.841  0.6365 -1.0103 -0.7160
37871SOL    HW215621   5.688   6.660   6.734  0.5238 -1.4203 -0.8728
37872SOL     OW15622   0.266   7.659   6.049 -0.4962 -0.4554 -0.0752
37872SOL    HW115623   0.337   7.661   5.985 -0.4785  0.1453 -0.0364
37872SOL    HW215624   0.309   7.635   6.132 -0.0188  1.6447  0.3409
37873SOL     OW15625   2.279   4.895   4.378 -0.1847 -0.3816 -0.6123
37873SOL    HW115626   2.276   4.920   4.286 -0.1776  0.2786 -0.4445
37873SOL    HW215627   2.289   4.800   4.378  1.8989 -0.2256 -1.3295
37874SOL     OW15628   6.425   6.312   9.769 -0.9058 -0.3296 -0.4950
37874SOL    HW115629   6.356   6.251   9.744 -0.5584 -0.5185 -1.0192
37874SOL    HW215630   6.392   6.355   9.848 -0.2072 -2.8839  1.3444
37875SOL     OW15631   8.831   4.151   5.369  0.4008 -0.1564 -0.5450
37875SOL    HW115632   8.883   4.228   5.346  0.1649 -0.0906 -0.8665
37875SOL    HW215633   8.817   4.106   5.285  0.5428 -0.5518 -0.3563
37876SOL     OW15634  10.447   0.220   3.787 -0.4411 -0.3449 -0.0668
37876SOL    HW115635  10.357   0.200   3.814  0.0994 -1.4096  1.0279
37876SOL    HW215636  10.463   0.309   3.821 -0.1701 -1.2044  2.2286
37877SOL     OW15637   0.119   1.593   7.695  0.4078 -0.3144 -0.6071
37877SOL    HW115638   0.129   1.645   7.616 -0.6257 -1.9419 -1.8859
37877SOL    HW215639   0.044   1.631   7.740  1.3467  0.9688 -0.0837
37878SOL     OW15640   9.309   4.228   0.533 -1.2130  0.1352 -0.5084
37878SOL    HW115641   9.302   4.299   0.597 -0.5755 -1.4632  1.4498
37878SOL    HW215642   9.239   4.167   0.558 -0.2287 -1.0654 -0.5819
37879SOL     OW15643  10.252   4.357   2.368  0.1385  0.1768 -0.1795
37879SOL    HW115644  10.232   4.272   2.328  2.1926  0.1128 -1.1666
37879SOL    HW215645  10.288   4.410   2.297  0.3186  1.3636  0.7612
37880SOL     OW15646   9.919   8.811  10.153 -0.0320 -0.5052  0.1825
37880SOL    HW115647   9.893   8.756  10.227 -1.3846  0.5193  0.4930
37880SOL    HW215648   9.849   8.799  10.088 -0.0750  0.4550  0.0456
37881SOL     OW15649   8.367   9.961   2.997 -0.2769 -0.2546 -0.0224
37881SOL    HW115650   8.319   9.879   2.985 -1.1609  0.4582 -1.6452
37881SOL    HW215651   8.300  10.029   2.996  0.5915  0.6152 -0.3164
37882SOL     OW15652   6.925   3.681   1.361 -0.4417  0.4586 -0.5107
37882SOL    HW115653   7.015   3.661   1.337  0.3491  0.8704  1.8199
37882SOL    HW215654   6.926   3.774   1.384 -2.0322  1.0896 -2.6558
37883SOL     OW15655   8.903   2.034   5.647 -0.1494 -0.3123  0.0893
37883SOL    HW115656   8.975   2.071   5.697 -0.3997 -0.8579  0.8683
37883SOL    HW215657   8.852   1.984   5.711 -1.9496  1.0851 -0.1616
37884SOL     OW15658   7.657   4.160   8.884  0.3967  0.4852 -0.1614
37884SOL    HW115659   7.584   4.104   8.858  1.3896 -0.1817 -1.7473
37884SOL    HW215660   7.645   4.241   8.834  0.5031  0.5448 -0.0920
37885SOL     OW15661   5.974   8.817   0.387  0.2881 -0.2101  0.5386
37885SOL    HW115662   5.886   8.780   0.393  0.5286 -0.6809  1.4629
37885SOL    HW215663   6.025   8.752   0.339 -0.1700  0.6998 -1.2701
37886SOL     OW15664  10.848   0.069   8.081 -0.5508 -0.5896 -0.9633
37886SOL    HW115665  10.845   0.067   8.176 -2.7671  0.6945 -0.9400
37886SOL    HW215666  10.806  -0.012   8.054 -0.6823 -0.5678 -0.8282
37887SOL     OW15667   0.136   4.183   5.063 -0.0836 -0.4323 -0.2486
37887SOL    HW115668   0.150   4.277   5.074  2.0308 -0.7912  0.6437
37887SOL    HW215669   0.096   4.175   4.976 -0.7207  1.3029 -0.1615
37888SOL     OW15670   1.647   5.967   2.559 -0.8211 -0.1660  0.4784
37888SOL    HW115671   1.623   6.052   2.520 -0.1592 -0.6648 -1.0956
37888SOL    HW215672   1.566   5.916   2.558 -0.8821 -0.0614  0.0387
37889SOL     OW15673   7.561   0.493   4.053  0.1727 -0.0330 -0.1112
37889SOL    HW115674   7.603   0.569   4.012 -0.7635  0.6402  0.1361
37889SOL    HW215675   7.519   0.447   3.981  1.1165 -0.5935 -0.3291
37890SOL     OW15676   0.955   2.979   6.175  0.4329 -0.3833  0.2010
37890SOL    HW115677   0.887   3.047   6.172  0.0098 -0.8504 -1.4076
37890SOL    HW215678   0.907   2.897   6.169  0.9908 -0.8344  1.5813
37891SOL     OW15679   9.266   7.127  10.187  0.5491  0.7159  0.1827
37891SOL    HW115680   9.339   7.138  10.248  0.3967 -0.5423  0.6254
37891SOL    HW215681   9.199   7.081  10.237  0.3229 -0.1357 -0.8470
37892SOL     OW15682   8.662   9.669   5.160 -1.0753 -0.0407 -0.4859
37892SOL    HW115683   8.728   9.621   5.212  0.8598  2.3407 -0.5725
37892SOL    HW215684   8.689   9.760   5.167 -0.9781  0.5146 -5.2958
37893SOL     OW15685   7.751   1.412   2.286 -0.3287 -0.2670  0.7777
37893SOL    HW115686   7.804   1.491   2.296 -1.5112  0.5203  1.1112
37893SOL    HW215687   7.811   1.347   2.252  0.7304  0.7242  0.6769
37894SOL     OW15688   8.071   4.032   3.852 -0.4701  0.0080  0.0060
37894SOL    HW115689   8.113   4.104   3.804  0.1105 -0.4076 -0.1274
37894SOL    HW215690   7.985   4.022   3.811  0.0375 -0.3722 -0.9990
37895SOL     OW15691   4.419   2.068   0.838  0.2998 -0.0825 -0.1904
37895SOL    HW115692   4.374   2.062   0.923  2.4747 -0.3020  1.0255
37895SOL    HW215693   4.440   1.977   0.816  1.8682  0.1261  0.2963
37896SOL     OW15694   5.937   3.239   8.580  0.3274  0.0504 -0.2872
37896SOL    HW115695   5.962   3.331   8.583  1.7520 -0.3388  0.1880
37896SOL    HW215696   5.901   3.227   8.492 -1.0887  1.3399  0.0663
37897SOL     OW15697   9.529   2.479   7.610 -0.2810 -0.1246 -0.5515
37897SOL    HW115698   9.440   2.505   7.634  0.1343  0.0824  0.8304
37897SOL    HW215699   9.584   2.513   7.680  0.6229 -2.3146 -0.1059
37898SOL     OW15700   8.198   1.484   6.208  0.1821  0.0448  0.0639
37898SOL    HW115701   8.150   1.525   6.137 -2.3805 -1.6740  0.6621
37898SOL    HW215702   8.130   1.451   6.267  2.1260 -1.9618  1.3305
37899SOL     OW15703   8.643  10.384   1.307 -0.0335  0.2095 -0.3763
37899SOL    HW115704   8.627  10.296   1.273  1.2183 -0.4331  0.5891
37899SOL    HW215705   8.576  10.439   1.267 -1.6106 -1.4154 -0.0557
37900SOL     OW15706  10.768   3.516   1.887 -0.0132  0.1695 -0.0273
37900SOL    HW115707  10.800   3.473   1.966 -0.1718 -0.3434 -0.2411
37900SOL    HW215708  10.675   3.492   1.883  0.1775 -0.4873 -0.8093
37901SOL     OW15709   6.306   2.630   7.034 -0.7420  0.1801  0.5988
37901SOL    HW115710   6.245   2.600   7.101  0.5844 -1.3343  1.1772
37901SOL    HW215711   6.383   2.660   7.083 -0.3230  0.4139 -0.1792
37902SOL     OW15712   5.498   9.813   4.129 -0.5032 -0.0401 -0.4500
37902SOL    HW115713   5.515   9.721   4.108 -1.3680 -0.2324 -0.3481
37902SOL    HW215714   5.471   9.852   4.046 -0.5746  0.0097 -0.4035
37903SOL     OW15715   5.817   5.774   1.043 -0.4597  0.4926 -0.5035
37903SOL    HW115716   5.761   5.697   1.031  0.6996 -0.8531  1.9267
37903SOL    HW215717   5.875   5.774   0.968  0.5395 -2.0045  0.1694
37904SOL     OW15718   4.021   1.800   9.428  0.4429 -0.3811 -0.1869
37904SOL    HW115719   4.081   1.745   9.376  0.5072 -0.3321 -0.1645
37904SOL    HW215720   4.030   1.766   9.517  1.6666  0.6772  0.1149
37905SOL     OW15721  10.114   3.087   9.886  0.8843  0.0058  0.2163
37905SOL    HW115722  10.098   2.993   9.897 -0.6929  0.2583  0.3512
37905SOL    HW215723  10.094   3.125   9.972  1.7493  0.4426  0.2321
37906SOL     OW15724   1.095   7.668   6.653  0.3046  0.0827  0.2260
37906SOL    HW115725   1.074   7.576   6.671  0.0936 -0.5805 -2.8981
37906SOL    HW215726   1.189   7.668   6.633  0.1348  0.3813 -0.6025
37907SOL     OW15727   9.003   1.547   7.853 -0.5995 -0.0594 -0.2296
37907SOL    HW115728   9.039   1.509   7.772  0.1642 -0.0896  0.1118
37907SOL    HW215729   8.936   1.485   7.881  0.7125 -1.2491  0.3848
37908SOL     OW15730   8.540  11.038   5.137 -0.4005  0.3461 -0.1951
37908SOL    HW115731   8.573  11.064   5.051  0.1423  0.6615  0.1034
37908SOL    HW215732   8.455  11.081   5.144 -0.2716  0.6428 -0.4165
37909SOL     OW15733   7.405   2.128   3.519 -0.7022 -0.0829 -0.0051
37909SOL    HW115734   7.491   2.159   3.490 -0.3289 -1.0284  0.0526
37909SOL    HW215735   7.399   2.154   3.611 -0.3435 -0.2844  0.0762
37910SOL     OW15736   7.660   0.118   2.905 -0.1320 -0.2293 -0.5851
37910SOL    HW115737   7.660   0.147   2.996  2.0379  0.3651 -0.7090
37910SOL    HW215738   7.581   0.064   2.897 -0.0238 -0.8903  1.8310
37911SOL     OW15739   3.518   0.428   4.680 -0.1131 -0.0040  0.0292
37911SOL    HW115740   3.597   0.401   4.727  1.2536  0.9382 -1.6188
37911SOL    HW215741   3.500   0.355   4.620 -0.5688 -0.2599  0.4706
37912SOL     OW15742   0.278   6.310   7.541  0.4977 -0.1982  0.8968
37912SOL    HW115743   0.198   6.354   7.512  1.3410  0.7983  0.0244
37912SOL    HW215744   0.293   6.343   7.630  0.6789  0.6678  0.5527
37913SOL     OW15745   8.078   1.736   5.422  0.4747  0.0725 -0.2954
37913SOL    HW115746   8.126   1.657   5.400 -1.3082 -1.5789  1.3088
37913SOL    HW215747   8.145   1.802   5.438  2.0329 -1.2599 -1.1375
37914SOL     OW15748   9.840  10.293   2.331  0.1803 -0.1580  0.3060
37914SOL    HW115749   9.849  10.199   2.342 -0.1358 -0.2596 -0.2703
37914SOL    HW215750   9.748  10.306   2.309  0.3350  0.2351 -0.1245
37915SOL     OW15751   8.606   2.088   5.621  0.0915 -0.5124  0.1543
37915SOL    HW115752   8.587   1.997   5.645 -1.9658 -0.1438  0.1104
37915SOL    HW215753   8.677   2.114   5.680  0.2743 -1.9364  0.6069
37916SOL     OW15754   8.499   3.856   4.297 -0.3499 -0.3894  0.7054
37916SOL    HW115755   8.592   3.877   4.290 -0.7478  1.0167 -1.4628
37916SOL    HW215756   8.497   3.763   4.318  1.5493 -0.4857  0.6340
37917SOL     OW15757   7.321   1.759   3.604  0.5758  0.5051 -0.1060
37917SOL    HW115758   7.394   1.777   3.545  0.5106  1.0215 -0.0368
37917SOL    HW215759   7.288   1.846   3.628  0.7957  0.3159  0.9308
37918SOL     OW15760   8.792   4.191   7.610  0.6556 -0.4174 -0.2737
37918SOL    HW115761   8.725   4.235   7.557  2.5669  2.0853 -0.8085
37918SOL    HW215762   8.797   4.243   7.690  0.8117 -1.6093  0.5233
37919SOL     OW15763   7.968   3.600   7.033  0.5894  0.7940 -0.3666
37919SOL    HW115764   7.937   3.681   6.993 -1.3225  1.3379  1.9980
37919SOL    HW215765   8.006   3.627   7.116 -1.7206 -0.7915  1.3407
37920SOL     OW15766  10.115   2.665  10.791 -0.6791  0.7747  0.3178
37920SOL    HW115767  10.113   2.635  10.700 -1.1538 -0.0019  0.5762
37920SOL    HW215768  10.206   2.653  10.818 -1.1125 -1.9682  0.8882
37921SOL     OW15769   2.526   9.312  10.152  0.2269 -0.8412 -0.0815
37921SOL    HW115770   2.516   9.249  10.080  0.2513 -1.6584  0.6184
37921SOL    HW215771   2.493   9.266  10.229  1.9000 -0.6733  0.7864
37922SOL     OW15772   7.654   8.605   6.926 -0.2156  0.2524 -0.0558
37922SOL    HW115773   7.621   8.560   6.849 -0.0449  0.5266 -0.2927
37922SOL    HW215774   7.670   8.536   6.990  0.3776 -0.0585 -0.5332
37923SOL     OW15775   4.732   7.779   1.563  0.5531 -0.2656 -0.3411
37923SOL    HW115776   4.716   7.691   1.530 -3.6579  0.1498  0.0343
37923SOL    HW215777   4.723   7.836   1.486  1.1530 -0.0062 -0.2237
37924SOL     OW15778   1.281   2.174   2.231  0.6131  0.7412  0.3119
37924SOL    HW115779   1.298   2.242   2.165  0.7916  1.3739  1.0007
37924SOL    HW215780   1.191   2.190   2.259  0.6162  0.6197  0.3881
37925SOL     OW15781   2.851   5.987   3.254  0.6921  0.2551  0.5365
37925SOL    HW115782   2.856   6.080   3.232  2.1026  0.2246  0.6245
37925SOL    HW215783   2.852   5.942   3.169 -0.3918  0.3143  0.4783
37926SOL     OW15784   0.031  10.098   9.228 -0.1775  0.1893 -0.3668
37926SOL    HW115785  -0.061  10.115   9.209  0.2078 -0.2399 -2.8240
37926SOL    HW215786   0.074  10.183   9.215 -0.0569  0.1349 -0.3204
37927SOL     OW15787   7.917   7.539   9.285  0.0355 -0.0177  0.5444
37927SOL    HW115788   7.991   7.485   9.313  1.0134  0.8809 -0.2557
37927SOL    HW215789   7.940   7.628   9.314  0.6672  0.7955 -2.2298
37928SOL     OW15790   1.672   8.310   5.357 -0.2293  0.3546  0.5322
37928SOL    HW115791   1.659   8.347   5.444 -1.0762  0.9168  0.1816
37928SOL    HW215792   1.716   8.227   5.372  0.2167  0.7492  1.4514
37929SOL     OW15793   0.706   1.467   8.985 -0.0643  0.1858  0.2008
37929SOL    HW115794   0.729   1.412   9.061  0.3157  1.6085  1.1588
37929SOL    HW215795   0.618   1.498   9.005  0.8607  2.3537  1.2044
37930SOL     OW15796   8.102   4.636   7.005 -0.0825  0.5231  0.0661
37930SOL    HW115797   8.132   4.625   6.915  0.7152 -0.6673  0.4472
37930SOL    HW215798   8.050   4.557   7.022  0.2793  0.4490  0.8385
37931SOL     OW15799   1.718  11.009   9.993  0.2022  0.0701 -0.5187
37931SOL    HW115800   1.795  10.986  10.045 -0.2652 -1.5069 -0.4890
37931SOL    HW215801   1.749  11.006   9.902  0.2334 -0.3171 -0.4945
37932SOL     OW15802  10.012   5.540   3.964 -0.2564 -0.2777  0.4199
37932SOL    HW115803  10.092   5.553   3.913  1.4695 -2.0357  2.4494
37932SOL    HW215804  10.026   5.591   4.044 -0.0145 -2.4297  1.8409
37933SOL     OW15805   0.762   5.197   7.798  0.5251  0.6104  0.0027
37933SOL    HW115806   0.768   5.292   7.809  1.5289  0.5895 -0.3215
37933SOL    HW215807   0.793   5.161   7.881  0.6829  0.5611 -0.0773
37934SOL     OW15808   9.514   6.721   8.248 -0.1418  0.0223  0.0891
37934SOL    HW115809   9.472   6.648   8.293 -1.8450 -0.3223 -1.9136
37934SOL    HW215810   9.508   6.794   8.310 -1.2567 -0.7440  0.9257
37935SOL     OW15811   0.782   7.894   2.287  0.0664  0.2045 -0.2927
37935SOL    HW115812   0.710   7.873   2.345 -0.1570  1.2143 -0.1820
37935SOL    HW215813   0.800   7.987   2.303  0.9382  0.1401 -0.8050
37936SOL     OW15814  10.631   2.841   4.044 -0.4083  0.0260  0.4613
37936SOL    HW115815  10.582   2.817   4.123  0.4925 -2.5520  0.3488
37936SOL    HW215816  10.584   2.798   3.973  1.1594 -1.3829  0.2022
37937SOL     OW15817   5.986  10.437   0.002  0.3033 -0.4477  0.0425
37937SOL    HW115818   5.925  10.473   0.066 -1.5065 -2.1487 -0.6174
37937SOL    HW215819   5.994  10.345   0.025  2.2697 -0.3790 -0.2099
37938SOL     OW15820   9.240   3.508   9.561  0.3825  0.1878 -0.1216
37938SOL    HW115821   9.224   3.573   9.630  0.9254  1.0367 -0.7719
37938SOL    HW215822   9.333   3.488   9.568 -0.2009 -2.2800  1.5455
37939SOL     OW15823  10.717   2.431   7.186 -0.0494 -0.2394 -0.0718
37939SOL    HW115824  10.698   2.350   7.139  0.1428 -0.1997 -0.2187
37939SOL    HW215825  10.635   2.481   7.182  0.6240  0.7932 -2.4248
37940SOL     OW15826   6.787   6.462   9.427 -0.3494  0.1599  0.2095
37940SOL    HW115827   6.773   6.372   9.397  0.2756  0.2460 -0.3733
37940SOL    HW215828   6.700   6.501   9.426 -0.2670  0.5227 -2.7309
37941SOL     OW15829   8.478   2.746   7.060  0.3492  0.4726 -0.0225
37941SOL    HW115830   8.472   2.819   7.122 -1.1895  0.9116 -0.6351
37941SOL    HW215831   8.568   2.715   7.068  1.2048  2.7413 -0.0719
37942SOL     OW15832  10.227   0.229   2.626 -0.6001 -0.2049  0.0889
37942SOL    HW115833  10.204   0.225   2.533 -0.5623 -1.7351  0.1110
37942SOL    HW215834  10.156   0.279   2.666 -1.0409 -0.2176 -0.6450
37943SOL     OW15835  10.492   4.096   2.198 -0.0880 -0.0447 -0.2753
37943SOL    HW115836  10.454   4.026   2.250  1.6266 -1.2053 -0.4793
37943SOL    HW215837  10.422   4.160   2.188 -1.4726 -1.3629  0.5806
37944SOL     OW15838   6.735  10.556   1.944 -0.3577  0.2942 -0.3981
37944SOL    HW115839   6.739  10.565   2.040  2.2950 -1.4297 -0.2451
37944SOL    HW215840   6.757  10.643   1.911 -1.1482  0.8694  0.5447
37945SOL     OW15841  10.159   1.778   3.057 -0.3042 -0.0467 -0.2711
37945SOL    HW115842  10.127   1.774   3.148  1.0630  0.0260  0.2382
37945SOL    HW215843  10.158   1.871   3.036  1.0986  0.1345  0.3418
37946SOL     OW15844   2.623   4.320   0.723 -0.3324  0.1467  0.6313
37946SOL    HW115845   2.690   4.318   0.792 -1.0140  0.8760  1.3339
37946SOL    HW215846   2.667   4.283   0.646  0.7875  0.3378  1.1539
37947SOL     OW15847   2.085   0.707   2.479  0.7655  0.1838  0.4135
37947SOL    HW115848   2.035   0.778   2.521 -1.5542 -1.5712  0.8759
37947SOL    HW215849   2.082   0.728   2.386 -1.2820 -0.0538  0.3809
37948SOL     OW15850   5.420   5.226   7.697 -0.3233  0.2127 -0.1087
37948SOL    HW115851   5.348   5.283   7.722 -0.6074  0.0424 -0.5389
37948SOL    HW215852   5.473   5.279   7.637  0.5354  0.7355  1.0779
37949SOL     OW15853   7.572  10.270   3.590  0.1916  0.2878  0.4858
37949SOL    HW115854   7.633  10.314   3.650  0.2685  1.2399 -0.2535
37949SOL    HW215855   7.617  10.273   3.505 -0.1598 -0.5255  0.2636
37950SOL     OW15856   4.582  10.850   7.518 -0.2135 -0.1019 -0.1516
37950SOL    HW115857   4.637  10.889   7.450 -2.5183  1.2120 -1.3876
37950SOL    HW215858   4.511  10.807   7.470 -0.6855 -1.1330  1.3810
37951SOL     OW15859   0.476   2.144   3.379 -0.1638 -0.2370 -0.1380
37951SOL    HW115860   0.406   2.157   3.443 -0.5334 -0.1362 -0.5499
37951SOL    HW215861   0.464   2.217   3.317  0.1415 -0.3726 -0.3559
37952SOL     OW15862   2.041   7.872   6.742  0.0930 -0.7408  0.0695
37952SOL    HW115863   2.076   7.824   6.667  0.2532  0.7552 -0.8492
37952SOL    HW215864   2.119   7.903   6.789  0.0400  0.9394 -0.8934
37953SOL     OW15865   8.080   9.271   4.808  0.3322  0.2162 -0.3364
37953SOL    HW115866   8.149   9.335   4.824 -1.5693  2.2748  0.1892
37953SOL    HW215867   8.031   9.307   4.734 -1.6181  0.1579  0.8539
37954SOL     OW15868   0.207   3.919   2.683  0.1446 -0.2108 -0.4230
37954SOL    HW115869   0.268   3.907   2.756  0.7264  1.4843 -0.5844
37954SOL    HW215870   0.125   3.947   2.724  0.1620 -0.2620 -0.3535
37955SOL     OW15871   1.342   7.369   9.798  0.0676  0.2825 -0.1498
37955SOL    HW115872   1.341   7.395   9.890 -2.4054  0.8057 -0.2626
37955SOL    HW215873   1.297   7.440   9.752  0.6217 -0.3143 -1.6701
37956SOL     OW15874  10.269   7.462   2.763 -0.0855  0.5346  0.2842
37956SOL    HW115875  10.288   7.396   2.830  0.3437 -1.5548 -1.7526
37956SOL    HW215876  10.174   7.460   2.754 -0.0717  0.0882  0.1783
37957SOL     OW15877   7.649   4.933   1.207 -0.2588 -0.1037 -0.1504
37957SOL    HW115878   7.564   4.914   1.167 -0.1924  0.8500 -0.7736
37957SOL    HW215879   7.631   5.000   1.272  0.0324  0.1879 -0.3675
37958SOL     OW15880   0.278   7.756  10.887 -0.5253 -0.1239  0.2207
37958SOL    HW115881   0.338   7.820  10.850 -1.0904 -0.1644 -0.7977
37958SOL    HW215882   0.298   7.675  10.841  0.5125 -0.8384  1.8322
37959SOL     OW15883   8.912   3.197   0.494  0.3512 -0.1577 -0.1958
37959SOL    HW115884   8.836   3.139   0.496  0.6890 -0.7030 -1.7315
37959SOL    HW215885   8.944   3.199   0.585 -0.5918 -1.1268  0.1721
37960SOL     OW15886   0.470   4.533   3.130  0.2709 -0.5836 -0.3433
37960SOL    HW115887   0.565   4.518   3.131  0.2047 -1.0023 -0.0662
37960SOL    HW215888   0.459   4.617   3.174  0.5340 -0.4019 -0.6185
37961SOL     OW15889  11.002   4.721   4.959  0.9673 -0.2242  0.3098
37961SOL    HW115890  10.923   4.770   4.935  0.4334 -0.8963  0.6521
37961SOL    HW215891  10.976   4.629   4.950  0.8867 -0.5295  2.8467
37962SOL     OW15892   2.589   2.130   2.442 -0.2814 -0.4912  0.3496
37962SOL    HW115893   2.612   2.038   2.433  0.4042 -0.3150  0.2324
37962SOL    HW215894   2.499   2.136   2.410  0.3817 -0.7474 -1.6793
37963SOL     OW15895   0.346   9.799   3.853 -1.2314  0.2796  0.0323
37963SOL    HW115896   0.309   9.794   3.941 -0.3465  0.3870  0.4199
37963SOL    HW215897   0.270   9.810   3.796 -1.8674 -0.4510  0.7180
37964SOL     OW15898   3.238   2.306   4.113 -0.1548  0.0343 -0.4819
37964SOL    HW115899   3.212   2.383   4.163 -1.8198 -1.1107  0.5338
37964SOL    HW215900   3.239   2.235   4.177 -2.4769 -1.5235 -1.9905
37965SOL     OW15901   8.517   4.080   1.892 -0.0651 -0.0567 -0.3885
37965SOL    HW115902   8.451   4.028   1.847 -0.6560  0.6785 -0.3993
37965SOL    HW215903   8.541   4.028   1.969 -0.6044 -0.3671 -0.4267
37966SOL     OW15904   7.868   0.472   1.289 -0.0077 -0.7250  0.2466
37966SOL    HW115905   7.948   0.434   1.252  0.4506 -0.7837  1.2598
37966SOL    HW215906   7.858   0.428   1.374 -0.2146  0.4328  0.8468
37967SOL     OW15907  10.379   1.559   1.016 -0.2153  0.3102  0.0433
37967SOL    HW115908  10.312   1.611   1.060  0.8233  0.9972  0.8680
37967SOL    HW215909  10.456   1.568   1.072  0.3118 -1.2074 -0.3957
37968SOL     OW15910   9.439   7.971   6.543 -0.1412 -0.0048  0.0862
37968SOL    HW115911   9.369   8.015   6.495 -0.2313  0.0073  0.2296
37968SOL    HW215912   9.394   7.907   6.598  0.0556 -1.0681 -0.9476
37969SOL     OW15913   5.091   1.234   4.212 -0.1725  0.3036  0.0520
37969SOL    HW115914   5.162   1.196   4.161  0.9985  0.7859  1.2499
37969SOL    HW215915   5.131   1.310   4.255 -1.6197  1.0158  0.1808
37970SOL     OW15916   0.183  10.069   5.345  0.2310 -0.2677  0.1395
37970SOL    HW115917   0.234  10.011   5.289 -0.1980 -0.9162  0.4092
37970SOL    HW215918   0.096  10.029   5.348 -0.2213  0.6782 -0.1020
37971SOL     OW15919   8.518   1.428   3.838  0.3507  0.2600 -0.2137
37971SOL    HW115920   8.487   1.492   3.902 -0.5085 -1.2844  0.9899
37971SOL    HW215921   8.480   1.457   3.755 -0.3780  1.0710  0.3776
37972SOL     OW15922   3.226   7.813   0.841 -0.0510 -0.3524  0.4809
37972SOL    HW115923   3.165   7.772   0.903 -1.2082 -1.0597 -1.0666
37972SOL    HW215924   3.220   7.759   0.763  0.9002  0.8801 -0.4787
37973SOL     OW15925   9.795   8.626   3.896 -0.0871 -0.6317  0.1530
37973SOL    HW115926   9.881   8.605   3.932  0.5123  0.1059 -0.7770
37973SOL    HW215927   9.813   8.645   3.804 -1.1676  0.0809  0.0801
37974SOL     OW15928   8.766   8.761   4.172  0.1345 -0.0241  0.1106
37974SOL    HW115929   8.704   8.770   4.100 -0.1615 -0.3148  0.3232
37974SOL    HW215930   8.843   8.721   4.132 -0.1874 -0.5780  0.0318
37975SOL     OW15931   3.603   2.840   2.396 -0.1851 -0.7074  0.5268
37975SOL    HW115932   3.696   2.861   2.388 -0.2337 -0.7644 -0.3508
37975SOL    HW215933   3.600   2.744   2.403 -0.1987 -0.7532 -0.0303
37976SOL     OW15934   6.195   2.790   5.485  0.7747 -0.0218  0.3132
37976SOL    HW115935   6.168   2.880   5.469  0.3968 -0.0295  0.9027
37976SOL    HW215936   6.219   2.788   5.577  1.2936 -0.3988  0.1775
37977SOL     OW15937   5.258   1.051   3.407 -0.1534  0.1224  0.3158
37977SOL    HW115938   5.207   1.073   3.329 -0.4350 -1.3152  0.0624
37977SOL    HW215939   5.339   1.100   3.397 -1.1345  1.8694  0.3491
37978SOL     OW15940  10.265  10.229   7.254 -0.7344  0.5980  0.4731
37978SOL    HW115941  10.323  10.304   7.267  1.2548 -0.4642 -1.5264
37978SOL    HW215942  10.177  10.265   7.261  0.1493  2.7659  1.2697
37979SOL     OW15943  10.504   3.044  10.661 -0.0145  0.1634  0.1578
37979SOL    HW115944  10.592   3.040  10.699 -0.2814  1.8870  1.0625
37979SOL    HW215945  10.506   3.118  10.600 -1.1007  0.9682  1.0382
37980SOL     OW15946   7.392   0.374   1.979  0.4962  0.2970  0.2301
37980SOL    HW115947   7.414   0.391   1.888  1.1161 -0.9723  0.1252
37980SOL    HW215948   7.428   0.449   2.027  1.9837 -0.0091 -0.3452
37981SOL     OW15949   8.443   7.806   7.036  0.2462  0.7258  0.5365
37981SOL    HW115950   8.510   7.874   7.028  0.0881  0.7880 -0.2777
37981SOL    HW215951   8.373   7.833   6.978  1.4950 -1.6767 -2.3652
37982SOL     OW15952   9.983   6.344  10.813  0.1559  0.4713 -0.5731
37982SOL    HW115953   9.974   6.346  10.718  2.0877  1.2099 -0.7953
37982SOL    HW215954  10.025   6.260  10.832 -0.7844  0.0503 -0.2845
37983SOL     OW15955   7.014   7.612   4.972 -0.1010 -0.0775 -0.2067
37983SOL    HW115956   7.053   7.679   5.029  1.2558 -1.5377  0.6677
37983SOL    HW215957   7.082   7.594   4.907 -0.0595 -1.2582  0.1400
37984SOL     OW15958   8.778   4.985   7.838 -0.1197  0.5534  0.4139
37984SOL    HW115959   8.816   4.906   7.801  0.7182  0.5957  1.1495
37984SOL    HW215960   8.686   4.961   7.855 -0.0754 -0.0016 -0.0939
37985SOL     OW15961   9.889   3.472   3.967  0.1068 -0.0430 -0.0450
37985SOL    HW115962   9.852   3.559   3.975  0.6450  0.2317 -0.4797
37985SOL    HW215963   9.932   3.455   4.050  2.0379  1.0778 -0.7527
37986SOL     OW15964   8.767   1.143   8.990  0.6571 -0.3409 -0.3889
37986SOL    HW115965   8.847   1.113   8.948 -0.1405 -2.4571 -0.5117
37986SOL    HW215966   8.735   1.212   8.932  0.4789 -2.0282 -2.4377
37987SOL     OW15967   7.519   2.819   4.640 -0.4042  0.1399  0.2500
37987SOL    HW115968   7.571   2.869   4.577 -2.1671 -0.8721 -2.1107
37987SOL    HW215969   7.584   2.773   4.693  1.1500  1.9730  0.0539
37988SOL     OW15970   3.225   9.160   6.272 -0.0117  0.4659  0.0186
37988SOL    HW115971   3.241   9.103   6.348 -1.8468  0.1951  0.2322
37988SOL    HW215972   3.299   9.142   6.213 -1.0500 -3.0242 -0.4470
37989SOL     OW15973   7.993   0.593   0.307  0.0368  1.0217  0.1045
37989SOL    HW115974   8.018   0.680   0.337  1.3199  0.1905  1.5717
37989SOL    HW215975   7.902   0.582   0.336 -0.2158  1.9525 -0.3186
37990SOL     OW15976   4.317   5.992   8.555  0.1383  0.1030  0.1648
37990SOL    HW115977   4.338   5.939   8.632  0.8031  0.1397  0.0138
37990SOL    HW215978   4.237   6.039   8.579  0.5925  0.4634  1.0063
37991SOL     OW15979   4.948   5.405   8.131  0.1705  0.2039 -0.4119
37991SOL    HW115980   4.954   5.312   8.152 -0.7109  0.2473  0.0724
37991SOL    HW215981   4.883   5.409   8.060 -1.9122  0.6869  1.4278
37992SOL     OW15982   9.325   2.165   0.948  0.2462  0.1354 -0.8258
37992SOL    HW115983   9.328   2.076   0.913  1.3764  0.4485 -1.5718
37992SOL    HW215984   9.335   2.154   1.042  0.3839 -0.5316 -0.9147
37993SOL     OW15985   7.547   9.830  10.467  0.1193  0.5551  0.2442
37993SOL    HW115986   7.638   9.859  10.466  0.6335 -0.7642  2.2908
37993SOL    HW215987   7.499   9.904  10.503  0.5031  0.9534 -0.0424
37994SOL     OW15988   1.756   2.311   8.031 -0.3594 -0.1145  0.2639
37994SOL    HW115989   1.749   2.391   7.978  0.0406  0.4530  1.0538
37994SOL    HW215990   1.695   2.250   7.990  0.4770  0.0535 -1.3250
37995SOL     OW15991  10.000   7.203   7.156 -0.4180  0.4140  0.4255
37995SOL    HW115992  10.081   7.247   7.180  0.1073  0.9210 -1.9749
37995SOL    HW215993  10.024   7.111   7.144 -0.3510  0.4303  0.4411
37996SOL     OW15994  10.527   9.611   2.903  0.2756 -0.4701  0.0451
37996SOL    HW115995  10.562   9.691   2.943  1.4658 -0.5859 -0.7298
37996SOL    HW215996  10.434   9.631   2.887  0.4074  0.5163  0.4542
37997SOL     OW15997   1.620  10.373   7.324  0.3930 -0.6318  0.0033
37997SOL    HW115998   1.569  10.383   7.405  0.4865  1.1400 -0.1083
37997SOL    HW215999   1.556  10.348   7.258 -0.1418  0.3189  0.1360
37998SOL     OW16000   9.895   8.609   1.468  0.0480 -0.7726  0.3533
37998SOL    HW116001   9.978   8.578   1.432  0.5024  0.4015  0.3839
37998SOL    HW216002   9.876   8.548   1.540  2.0052  0.2592  1.8078
37999SOL     OW16003   0.250   4.349   2.710  0.2575  0.6331 -0.1885
37999SOL    HW116004   0.259   4.432   2.756 -0.4743 -0.8585  2.9391
37999SOL    HW216005   0.340   4.317   2.702  0.3474  0.2526  1.7331
38000SOL     OW16006  10.021   0.682   6.395 -0.0793 -0.1424 -0.1303
38000SOL    HW116007   9.930   0.660   6.418  0.7394 -1.5218  2.1172
38000SOL    HW216008  10.041   0.760   6.447  0.4758 -0.7274  0.5403
38001SOL     OW16009   9.194   1.408   3.054  0.2881 -0.3834 -0.7449
38001SOL    HW116010   9.143   1.384   2.976  0.5228 -0.1764 -0.9620
38001SOL    HW216011   9.261   1.469   3.021  0.9906 -1.0382 -0.5433
38002SOL     OW16012   2.510  11.011  10.007 -0.1785 -0.3515 -0.0481
38002SOL    HW116013   2.499  11.003   9.912  0.2121  3.3853 -0.5914
38002SOL    HW216014   2.601  10.986  10.023  0.0636 -0.0348 -0.8578
38003SOL     OW16015   8.383   1.669   2.722  0.6349 -0.1418 -0.1665
38003SOL    HW116016   8.396   1.577   2.745  0.8624 -0.3363 -1.0547
38003SOL    HW216017   8.330   1.704   2.793 -0.3469 -1.2251 -0.3434
38004SOL     OW16018   9.541   9.936   6.933  0.1958 -0.1340 -0.6825
38004SOL    HW116019   9.529   9.868   7.000 -0.3233 -1.0881 -1.7106
38004SOL    HW216020   9.627   9.973   6.952 -0.4758  0.5538  1.3212
38005SOL     OW16021   9.206   0.516   2.749 -0.9447  0.1743  0.1368
38005SOL    HW116022   9.154   0.490   2.673  0.4266 -0.4921 -0.6215
38005SOL    HW216023   9.272   0.447   2.758  1.0447  1.9348 -0.1849
38006SOL     OW16024   8.401   3.146   6.287  0.4210  0.3938 -0.3184
38006SOL    HW116025   8.487   3.106   6.297 -0.3377 -1.0220  0.9641
38006SOL    HW216026   8.383   3.184   6.373 -0.7675 -0.4945 -0.1538
38007SOL     OW16027   7.008   3.727   5.130 -0.2474  0.2913  0.6176
38007SOL    HW116028   7.052   3.810   5.107  0.4017  0.3944  2.0894
38007SOL    HW216029   6.936   3.720   5.068  1.7679  0.1669 -1.8846
38008SOL     OW16030   8.761   6.182   4.452 -0.2724 -0.0117 -0.1887
38008SOL    HW116031   8.717   6.164   4.536  0.0358 -0.0480 -0.0320
38008SOL    HW216032   8.694   6.166   4.386 -0.2256 -1.0341 -0.0143
38009SOL     OW16033  10.524  11.021   3.511 -0.3342 -0.4268 -0.8313
38009SOL    HW116034  10.555  11.006   3.422 -1.3769  1.6509 -1.5893
38009SOL    HW216035  10.428  11.018   3.504 -0.4241 -0.4221  0.2614
38010SOL     OW16036   5.390   2.995   0.375  0.1109  0.2083 -0.6274
38010SOL    HW116037   5.296   3.014   0.372 -0.0320 -0.5144 -1.0973
38010SOL    HW216038   5.401   2.944   0.455 -0.3864 -1.9809 -1.8367
38011SOL     OW16039   5.298   1.166   4.016 -0.3305 -0.3464 -0.3741
38011SOL    HW116040   5.240   1.116   3.958  0.6097  0.2920 -1.9399
38011SOL    HW216041   5.311   1.249   3.971  0.0209  0.4005  1.0454
38012SOL     OW16042   5.250   2.208   6.952  0.0178  0.1113  0.6183
38012SOL    HW116043   5.200   2.203   6.871 -1.8289 -0.6133  1.7374
38012SOL    HW216044   5.203   2.272   7.006  0.6706 -0.0906  1.4655
38013SOL     OW16045   0.846   4.746   5.745 -0.3203 -0.1513 -0.0256
38013SOL    HW116046   0.926   4.798   5.734 -0.4004  0.0606  0.4002
38013SOL    HW216047   0.786   4.781   5.678  0.1055 -0.6414 -0.6783
38014SOL     OW16048   1.325   5.971   1.650 -0.0978 -0.1231 -0.2300
38014SOL    HW116049   1.380   5.898   1.680 -0.3857 -0.4143 -0.3970
38014SOL    HW216050   1.349   5.982   1.558  0.7869  0.7693  0.0882
38015SOL     OW16051   0.419   0.916   8.793  0.2574  0.3798 -0.4450
38015SOL    HW116052   0.513   0.907   8.780  0.0946  0.6071 -2.1215
38015SOL    HW216053   0.405   0.898   8.885  1.8618 -0.2914 -0.2981
38016SOL     OW16054   5.603   2.096   1.032 -0.3171  0.1198  0.1269
38016SOL    HW116055   5.527   2.101   1.089 -0.2303 -1.7909  0.4960
38016SOL    HW216056   5.609   2.003   1.008  1.0805  0.4606 -1.0242
38017SOL     OW16057   0.114   5.826   5.086 -0.1745  0.3505 -0.2622
38017SOL    HW116058   0.074   5.913   5.084 -1.4253 -0.1433  1.2340
38017SOL    HW216059   0.047   5.770   5.125  0.7593 -1.2143 -0.8193
38018SOL     OW16060   0.760   4.483   3.069 -0.2656 -0.1815 -0.0216
38018SOL    HW116061   0.702   4.467   2.995 -0.5472  0.8242 -0.0275
38018SOL    HW216062   0.848   4.464   3.035 -0.3534  0.6125 -0.7340
38019SOL     OW16063   0.390   4.640   7.843 -0.0304  0.3098  0.2385
38019SOL    HW116064   0.409   4.691   7.764  1.1284 -0.4117  0.0248
38019SOL    HW216065   0.462   4.660   7.903  0.3664 -0.9166  0.2084
38020SOL     OW16066   1.070   5.551   6.158  0.0020 -0.3732 -0.0730
38020SOL    HW116067   1.150   5.548   6.105  2.7906 -0.0626  3.7042
38020SOL    HW216068   1.064   5.465   6.198 -0.2683  0.2802  1.3620
38021SOL     OW16069   9.807   1.559   1.536  0.0533  0.0481  0.4364
38021SOL    HW116070   9.855   1.480   1.509  0.8740  0.4585  0.6598
38021SOL    HW216071   9.755   1.582   1.459  1.4730  0.5211 -0.4254
38022SOL     OW16072   9.128   7.738   1.097  0.3949  0.5835 -0.3801
38022SOL    HW116073   9.036   7.758   1.083  0.6806  1.4238 -1.2627
38022SOL    HW216074   9.158   7.705   1.012  1.1094  1.2344 -0.3969
38023SOL     OW16075  10.151   3.340   8.379  0.1101 -0.3121 -0.2626
38023SOL    HW116076  10.084   3.404   8.400  0.5309  0.0486 -0.0038
38023SOL    HW216077  10.143   3.273   8.447  0.2679 -0.0745 -0.0112
38024SOL     OW16078   2.253   2.308   7.103 -0.3089 -0.0045  0.4968
38024SOL    HW116079   2.200   2.237   7.065  0.1509  1.4942 -3.4926
38024SOL    HW216080   2.216   2.388   7.065  2.1401  1.4426  0.9677
38025SOL     OW16081   9.924   9.856   1.340 -0.3868 -0.3868  0.1706
38025SOL    HW116082  10.007   9.809   1.342  0.4441  1.0287  0.3780
38025SOL    HW216083   9.865   9.799   1.291 -0.0400 -2.5514  2.1111
38026SOL     OW16084   1.197   2.896   0.644 -0.3510  0.3043 -0.2323
38026SOL    HW116085   1.250   2.882   0.566 -0.1918 -0.0629 -0.0625
38026SOL    HW216086   1.244   2.963   0.694 -0.3741  0.4302 -0.3806
38027SOL     OW16087   2.789   8.079   1.638 -0.0326 -0.1263 -0.6581
38027SOL    HW116088   2.707   8.080   1.688 -0.4916  1.9649 -1.3486
38027SOL    HW216089   2.792   7.992   1.599 -1.1108 -0.7989  0.6617
38028SOL     OW16090   8.784   3.745   3.817 -0.7397 -0.6358  0.0873
38028SOL    HW116091   8.845   3.675   3.793  0.7271  1.0932 -1.6225
38028SOL    HW216092   8.771   3.794   3.735 -1.3251  1.3549  1.2995
38029SOL     OW16093   0.143   3.576   2.491 -0.6672  0.1886  0.0254
38029SOL    HW116094   0.218   3.585   2.550  0.0850  0.2842 -0.9250
38029SOL    HW216095   0.139   3.482   2.472 -0.2954  0.2892 -0.5521
38030SOL     OW16096   9.692  10.737   2.258 -0.2687 -0.0554  0.3247
38030SOL    HW116097   9.774  10.694   2.233 -1.1299 -0.7078 -1.5826
38030SOL    HW216098   9.709  10.830   2.245  0.5055 -0.0761  1.0790
38031SOL     OW16099   6.641   2.367   2.833  0.0773 -0.5266  0.6648
38031SOL    HW116100   6.677   2.419   2.761  1.1133 -1.1694  0.6831
38031SOL    HW216101   6.621   2.282   2.793 -0.9691 -0.3419  0.7740
38032SOL     OW16102   8.383   9.474   9.654 -0.0660  0.7596 -0.2895
38032SOL    HW116103   8.475   9.498   9.667 -0.2183  1.0471  0.3060
38032SOL    HW216104   8.360   9.510   9.568  0.9978 -1.2692 -1.5082
38033SOL     OW16105   2.038   1.938   6.864 -0.4884 -0.5723  0.3830
38033SOL    HW116106   1.973   1.892   6.812 -1.0270  1.8227 -1.2064
38033SOL    HW216107   2.018   2.031   6.852  1.9411  0.1953  1.5189
38034SOL     OW16108  11.044   3.151   5.299  0.1429  0.3689 -0.4222
38034SOL    HW116109  11.082   3.101   5.227  1.0732  0.3133  0.0810
38034SOL    HW216110  10.967   3.193   5.262 -0.8468 -1.6660 -0.7936
38035SOL     OW16111   7.824   9.983   8.829 -0.3440  0.4987  0.7168
38035SOL    HW116112   7.899   9.943   8.785 -0.2427  0.9210  0.5050
38035SOL    HW216113   7.768  10.015   8.757 -1.2330 -0.7153  0.8307
38036SOL     OW16114   0.544   3.539  10.593  0.3964 -0.5765 -0.8740
38036SOL    HW116115   0.482   3.521  10.522  1.1629 -0.4690 -1.5839
38036SOL    HW216116   0.569   3.630  10.579  0.4877 -0.5312 -0.4051
38037SOL     OW16117   1.055   9.731   2.577  0.3749 -0.2598 -0.2775
38037SOL    HW116118   0.968   9.731   2.538  0.0672 -1.3642  0.3518
38037SOL    HW216119   1.114   9.755   2.505 -0.3855 -0.1177 -0.8631
38038SOL     OW16120   4.652   9.797  10.233  0.0273 -0.4529 -0.0638
38038SOL    HW116121   4.665   9.753  10.149  1.5942 -1.1579  0.5131
38038SOL    HW216122   4.558   9.791  10.249 -0.2331 -0.7215 -1.5248
38039SOL     OW16123  10.025   9.210   0.107 -0.1153  0.1860  0.2480
38039SOL    HW116124  10.074   9.191   0.187  0.2344 -5.3767 -0.9111
38039SOL    HW216125  10.088   9.253   0.049  0.8460  0.5975  1.5636
38040SOL     OW16126   0.328   5.405   2.837 -0.4418 -0.0536  0.5811
38040SOL    HW116127   0.239   5.439   2.840 -0.3597  0.0795  2.2509
38040SOL    HW216128   0.318   5.312   2.818 -0.8623  0.1527 -0.2683
38041SOL     OW16129  10.199  10.505   7.766 -0.0004 -0.3371 -0.3477
38041SOL    HW116130  10.238  10.566   7.828  2.2631 -2.1786  0.1638
38041SOL    HW216131  10.128  10.463   7.815 -0.8806  1.0476 -0.3762
38042SOL     OW16132   7.768   6.173   4.665  0.4202  0.6451  0.0920
38042SOL    HW116133   7.704   6.102   4.667  0.4100  0.6259 -0.6374
38042SOL    HW216134   7.752   6.222   4.746 -1.3599  1.3737 -0.6373
38043SOL     OW16135   3.941   5.177  10.741  0.4682 -0.0298  0.4695
38043SOL    HW116136   3.877   5.178  10.670 -0.3247 -1.6911  1.1081
38043SOL    HW216137   3.910   5.244  10.802 -0.3311 -0.3985  0.4809
38044SOL     OW16138   9.791   4.234   7.001 -0.0945  0.0374 -0.2090
38044SOL    HW116139   9.855   4.246   6.931 -0.4419  1.2730 -0.3253
38044SOL    HW216140   9.707   4.256   6.962 -0.1289  2.2669  0.9553
38045SOL     OW16141   2.235   6.259   5.455  0.5351  0.5278  0.9119
38045SOL    HW116142   2.233   6.225   5.545  0.1780  1.1476  1.1514
38045SOL    HW216143   2.167   6.328   5.455 -0.5702 -0.5172 -0.2611
38046SOL     OW16144   7.658  10.983   3.962  0.2700 -0.0871  0.1643
38046SOL    HW116145   7.583  11.024   4.005  0.0526  0.1677 -0.4469
38046SOL    HW216146   7.713  11.057   3.934 -0.3875 -0.1577 -1.4179
38047SOL     OW16147   9.013   5.924   3.851 -0.3637 -0.4382 -0.5457
38047SOL    HW116148   9.000   6.008   3.806 -0.9630 -1.2037 -1.8370
38047SOL    HW216149   8.945   5.867   3.817 -1.5543 -0.7824  2.1384
38048SOL     OW16150   8.891   9.244   4.720 -0.0037  0.0922  0.5682
38048SOL    HW116151   8.955   9.217   4.654 -1.2600  1.9546 -1.5791
38048SOL    HW216152   8.873   9.336   4.699 -1.6047  0.3092  2.6022
38049SOL     OW16153   0.526   6.368   0.840  0.3326 -0.4223 -0.4217
38049SOL    HW116154   0.555   6.396   0.927  0.5338  0.2510 -0.6993
38049SOL    HW216155   0.436   6.400   0.833  0.4961  0.0032 -0.6612
38050SOL     OW16156   9.969   1.761   9.337 -0.7279  0.3588  0.1626
38050SOL    HW116157  10.020   1.838   9.311 -1.0339  0.5485  0.1107
38050SOL    HW216158   9.982   1.755   9.432  0.7228 -0.5828 -0.0774
38051SOL     OW16159   1.851   0.184   0.377  0.2944 -0.5832  0.0300
38051SOL    HW116160   1.915   0.113   0.368  3.9434  2.3450  0.5930
38051SOL    HW216161   1.863   0.216   0.466 -0.1189  1.6650 -0.6705
38052SOL     OW16162   0.298   1.354   4.740 -0.0093  0.0751 -0.2826
38052SOL    HW116163   0.226   1.374   4.680  1.3708  0.7049 -1.7761
38052SOL    HW216164   0.277   1.267   4.774 -1.4814  0.2553 -0.6405
38053SOL     OW16165   8.927   9.223   5.550  0.0939  0.0714 -0.3591
38053SOL    HW116166   8.858   9.282   5.580 -0.4277  0.6920 -2.5800
38053SOL    HW216167   8.997   9.281   5.519  1.0458 -0.5408  0.5653
38054SOL     OW16168  10.571   5.131   8.239 -0.4860 -0.7184  0.2687
38054SOL    HW116169  10.517   5.099   8.167  0.3265 -1.9201  0.1630
38054SOL    HW216170  10.644   5.069   8.244 -1.0302 -1.2721  2.7677
38055SOL     OW16171   0.021  10.881   3.895  0.2110 -0.1563 -0.5633
38055SOL    HW116172   0.061  10.802   3.932  2.4138  0.7637 -0.8333
38055SOL    HW216173  -0.048  10.904   3.957  2.3225  0.0854  1.8365
38056SOL     OW16174   7.573   6.374   9.164  0.2238  0.0545  0.5484
38056SOL    HW116175   7.504   6.404   9.222  0.0343  1.6957 -0.4652
38056SOL    HW216176   7.632   6.322   9.219  1.2489  3.2860  2.7567
38057SOL     OW16177   9.712   3.773  10.043 -0.0406 -0.3035  0.2025
38057SOL    HW116178   9.669   3.858  10.041  0.8997  0.1880 -0.0283
38057SOL    HW216179   9.708   3.746  10.135  0.1521  0.2628  0.3808
38058SOL     OW16180   3.924   2.755   7.136  0.6663  0.5646 -0.1561
38058SOL    HW116181   3.896   2.843   7.112  2.3314  1.4816  1.0756
38058SOL    HW216182   3.956   2.717   7.054 -1.1265  0.6508 -0.9274
38059SOL     OW16183   3.310   2.255   5.988 -0.1829 -0.1627 -0.4762
38059SOL    HW116184   3.233   2.290   6.032  0.6451  0.9127  0.1521
38059SOL    HW216185   3.356   2.332   5.956  1.5324 -0.6626  0.6758
38060SOL     OW16186   7.082   3.152   7.578  0.0468 -0.1679  0.3162
38060SOL    HW116187   7.141   3.227   7.572  0.0211 -0.0271  1.5824
38060SOL    HW216188   6.995   3.189   7.569  0.1078 -0.3838 -1.6214
38061SOL     OW16189   4.843   2.397   3.362  0.0069 -0.0006 -0.3323
38061SOL    HW116190   4.894   2.375   3.440 -1.2170  1.2439  0.8713
38061SOL    HW216191   4.900   2.375   3.289  1.3900 -0.7209  0.9186
38062SOL     OW16192  10.440   6.530   8.156 -1.0945  0.6569  0.0007
38062SOL    HW116193  10.427   6.470   8.083 -0.4344  1.1635 -0.5450
38062SOL    HW216194  10.426   6.476   8.234  0.3724 -0.4490 -0.4619
38063SOL     OW16195   7.587   1.180   4.612  0.2139 -0.1561 -0.3335
38063SOL    HW116196   7.520   1.179   4.543  2.0481 -0.1534 -2.2166
38063SOL    HW216197   7.642   1.255   4.591  2.3301 -1.6389 -0.4370
38064SOL     OW16198   8.051   3.087   3.685 -0.1812  0.1166  0.1420
38064SOL    HW116199   8.097   3.071   3.767  0.1845 -0.6244 -0.2009
38064SOL    HW216200   7.996   3.010   3.673  0.4185 -0.1905 -0.7383
38065SOL     OW16201   1.763   2.256   2.183  0.2546  0.0277 -0.6195
38065SOL    HW116202   1.749   2.276   2.276  2.0850  0.9984 -0.5119
38065SOL    HW216203   1.793   2.166   2.182 -0.2738 -0.1556 -0.3259
38066SOL     OW16204   5.444   6.384   0.593 -0.1192 -0.4059 -0.2403
38066SOL    HW116205   5.486   6.411   0.674 -3.1886  0.5512  1.1768
38066SOL    HW216206   5.452   6.460   0.535 -0.9139  0.2330  0.4672
38067SOL     OW16207   0.381   0.863   2.609 -0.2069  0.5739 -0.5452
38067SOL    HW116208   0.323   0.814   2.550 -0.4566 -0.1032  0.2423
38067SOL    HW216209   0.333   0.943   2.629 -2.0613 -1.0293  2.0438
38068SOL     OW16210  10.471  10.683   4.402  0.1109  0.3418 -0.1074
38068SOL    HW116211  10.415  10.648   4.471 -0.2221 -1.3548 -1.1864
38068SOL    HW216212  10.560  10.661   4.430 -0.0281 -0.3984 -0.2259
38069SOL     OW16213   9.048   0.859   8.979  0.2983 -0.2404  0.0322
38069SOL    HW116214   9.061   0.764   8.979  0.2494 -0.2779  1.5715
38069SOL    HW216215   9.004   0.877   8.896  1.6732 -1.3438 -0.9926
38070SOL     OW16216   7.007   6.218   3.255  0.3263  0.0694 -0.1515
38070SOL    HW116217   7.073   6.162   3.215 -0.5972 -0.4216 -1.0483
38070SOL    HW216218   6.937   6.158   3.282 -0.1317  0.6543 -0.0141
38071SOL     OW16219   9.594   3.737   6.245  0.0423  0.0182 -0.6766
38071SOL    HW116220   9.536   3.663   6.228  1.0370 -1.0576  0.4151
38071SOL    HW216221   9.657   3.704   6.309 -0.3769  2.2481  1.0000
38072SOL     OW16222  10.372   0.540   7.482 -0.8982 -0.1966  0.2508
38072SOL    HW116223  10.384   0.635   7.476  2.2306 -0.4778  0.6613
38072SOL    HW216224  10.294   0.523   7.428 -2.5171  2.7087  1.4434
38073SOL     OW16225   7.278   9.209   5.949  0.4257 -0.0061 -0.0322
38073SOL    HW116226   7.335   9.151   5.899 -0.1412  0.2594 -0.9938
38073SOL    HW216227   7.240   9.268   5.885 -1.7141 -0.7918  0.4041
38074SOL     OW16228   0.129   7.924   9.005  0.1186 -0.5781  0.3729
38074SOL    HW116229   0.077   7.889   9.077  0.7913 -1.6871  0.3476
38074SOL    HW216230   0.128   8.018   9.017 -1.1988 -0.6418  0.8470
38075SOL     OW16231   3.763   9.921   2.950 -0.4245 -0.1782 -0.7159
38075SOL    HW116232   3.743   9.928   2.856 -1.5233  0.4621 -0.4512
38075SOL    HW216233   3.678   9.921   2.993  0.0614 -0.6321  0.2851
38076SOL     OW16234   6.362   4.909   9.104 -0.0034  0.6918 -0.3983
38076SOL    HW116235   6.434   4.919   9.168  0.5899  1.7019 -1.2067
38076SOL    HW216236   6.351   4.995   9.066 -1.2243  0.3893 -0.7723
38077SOL     OW16237  10.200   8.454   1.373 -0.3979  0.2670 -0.8053
38077SOL    HW116238  10.170   8.385   1.433 -0.1705  0.8705  0.0267
38077SOL    HW216239  10.206   8.532   1.428 -0.0859  0.8189 -1.6043
38078SOL     OW16240   4.934   7.362   3.755 -0.3963 -0.2737 -0.4216
38078SOL    HW116241   4.875   7.415   3.701  1.2796  0.0007 -2.0775
38078SOL    HW216242   4.936   7.408   3.839 -3.0250 -0.6730 -0.0579
38079SOL     OW16243   7.986   7.476   4.210  0.8249 -0.0812 -0.1425
38079SOL    HW116244   7.945   7.560   4.229  0.5602 -0.0346 -0.8869
38079SOL    HW216245   8.004   7.438   4.296  2.3445  1.3944  0.2416
38080SOL     OW16246   5.095  10.687   0.213  0.2551  0.1220 -0.0629
38080SOL    HW116247   5.136  10.690   0.299  0.4309  1.1121 -0.1668
38080SOL    HW216248   5.168  10.693   0.151  0.0549  0.5209 -0.2641
38081SOL     OW16249  10.810   7.919   5.731 -0.0475 -0.2702  0.1961
38081SOL    HW116250  10.861   7.865   5.671  0.5890 -0.6721  1.1003
38081SOL    HW216251  10.756   7.857   5.779  0.0631 -0.0220  0.6399
38082SOL     OW16252   7.503   6.145   7.658 -0.1476 -0.3079 -0.5051
38082SOL    HW116253   7.426   6.120   7.606 -1.8518 -1.3361  2.2661
38082SOL    HW216254   7.467   6.163   7.745  2.7395 -0.3783  0.7818
38083SOL     OW16255   7.632   7.131   5.509 -0.4964 -0.1047  0.0590
38083SOL    HW116256   7.716   7.173   5.493 -0.5463 -0.1280 -0.2656
38083SOL    HW216257   7.594   7.119   5.422 -0.0337 -1.7509  0.0669
38084SOL     OW16258   9.512   7.840   1.101 -0.4667  0.3940  0.2869
38084SOL    HW116259   9.445   7.795   1.152 -0.1975 -0.1507  0.1618
38084SOL    HW216260   9.533   7.918   1.154 -0.3408 -0.0553  0.9114
38085SOL     OW16261   0.142   2.866   6.189 -0.1873  0.3951 -0.6594
38085SOL    HW116262   0.168   2.809   6.117  1.5615  0.0234  0.2089
38085SOL    HW216263   0.056   2.833   6.215 -0.2855 -0.2646 -1.7555
38086SOL     OW16264   1.678   1.778   7.389  0.0423  0.0417 -0.4453
38086SOL    HW116265   1.702   1.797   7.299 -0.8372  0.3724 -0.6179
38086SOL    HW216266   1.676   1.863   7.432  2.0451 -0.2388  0.3227
38087SOL     OW16267  11.064   3.304   8.387 -0.3379  0.5308 -0.4747
38087SOL    HW116268  11.112   3.374   8.430 -0.1283 -0.4064  0.8934
38087SOL    HW216269  11.125   3.230   8.388 -0.8042  0.1220 -1.2685
38088SOL     OW16270   6.234   6.870   5.593  0.2709 -0.1200 -0.0946
38088SOL    HW116271   6.219   6.776   5.594 -0.7739 -0.0188 -1.9520
38088SOL    HW216272   6.320   6.881   5.553  0.9038 -0.2849  1.1510
38089SOL     OW16273   9.375   5.587   9.687  0.0776  0.4204  0.4757
38089SOL    HW116274   9.285   5.615   9.704 -0.1736 -0.4269  0.6101
38089SOL    HW216275   9.429   5.660   9.716 -0.6542  2.1388 -2.1279
38090SOL     OW16276   5.846   0.418   0.586  0.3833 -0.5315  0.1289
38090SOL    HW116277   5.776   0.392   0.647  0.9697  1.0085  1.5420
38090SOL    HW216278   5.812   0.496   0.543  1.8244  1.3072  2.1250
38091SOL     OW16279   9.481   0.031   5.089 -0.5795  0.3329  0.0305
38091SOL    HW116280   9.548  -0.008   5.145  0.1029  0.4770 -0.6567
38091SOL    HW216281   9.428   0.084   5.148 -1.0158 -0.9444  0.8447
38092SOL     OW16282   9.102   5.923   5.710  0.1108  0.4680  0.2475
38092SOL    HW116283   9.196   5.940   5.721  0.5260 -0.9462 -0.7412
38092SOL    HW216284   9.061   6.009   5.717  1.4865  1.1295  0.6326
38093SOL     OW16285   7.478   3.140   6.235 -0.0901  0.3818  0.1244
38093SOL    HW116286   7.529   3.164   6.158 -0.1104  0.4695  0.1386
38093SOL    HW216287   7.537   3.085   6.287  0.0230  0.5607  0.1868
38094SOL     OW16288   8.101   1.418   9.067 -0.3409 -0.2539  0.0179
38094SOL    HW116289   8.176   1.464   9.105 -1.3699  1.1967  0.4086
38094SOL    HW216290   8.113   1.427   8.973  0.8458 -1.5406  0.0206
38095SOL     OW16291   1.387   1.139   3.016 -0.3048  0.6184  0.3688
38095SOL    HW116292   1.433   1.176   3.091 -0.1750  0.2607  0.4677
38095SOL    HW216293   1.318   1.203   2.996 -0.2587  0.7757  0.7091
38096SOL     OW16294   3.651   8.824   3.466 -0.1114  0.1066 -0.0502
38096SOL    HW116295   3.729   8.773   3.488  0.6317  0.9757 -0.6491
38096SOL    HW216296   3.619   8.856   3.550  0.4195  0.1036  0.1546
38097SOL     OW16297   6.254   3.899   1.510 -0.3583  0.2880  0.3208
38097SOL    HW116298   6.218   3.811   1.518 -0.3394  0.1464 -0.9317
38097SOL    HW216299   6.237   3.924   1.419  1.5841  0.7112  0.0264
38098SOL     OW16300   2.016   1.024   5.609  0.0679  0.1329  0.2640
38098SOL    HW116301   2.046   1.115   5.610  0.3342  0.0466  1.8985
38098SOL    HW216302   2.060   0.986   5.533 -0.2493  1.4115 -0.6012
38099SOL     OW16303  10.855   0.503   8.326  0.2832 -0.2557 -0.4492
38099SOL    HW116304  10.785   0.496   8.261 -0.2355 -1.1177  0.1875
38099SOL    HW216305  10.843   0.590   8.364  0.9451  0.4944 -1.8664
38100SOL     OW16306   0.778   7.636   4.216 -0.3303 -0.2254 -0.2448
38100SOL    HW116307   0.830   7.591   4.150 -1.5088 -1.2327 -0.5313
38100SOL    HW216308   0.782   7.580   4.293 -1.4363 -0.6150 -0.4559
38101SOL     OW16309   7.511   8.947   2.316 -0.3884 -0.2310  0.2223
38101SOL    HW116310   7.449   9.003   2.364  1.8244  0.3991  2.5345
38101SOL    HW216311   7.547   9.004   2.248 -0.1781  0.3074  0.7803
38102SOL     OW16312   9.671   2.207   7.558 -0.2567  0.1217  0.0366
38102SOL    HW116313   9.629   2.292   7.573  0.4373  0.9306 -2.1754
38102SOL    HW216314   9.754   2.214   7.606  0.0642  0.9742 -0.5957
38103SOL     OW16315   4.319   3.432   9.896 -0.0940 -1.2199  0.0341
38103SOL    HW116316   4.363   3.509   9.932 -2.0246  0.1558 -0.3926
38103SOL    HW216317   4.259   3.404   9.965 -0.1632 -1.6938 -0.2138
38104SOL     OW16318   6.446   6.615   5.879  0.5504 -0.2868  0.4887
38104SOL    HW116319   6.504   6.662   5.819 -0.6899 -1.3174 -1.6192
38104SOL    HW216320   6.494   6.536   5.902  1.2018  0.3071  1.2287
38105SOL     OW16321   6.897   4.536   2.687 -0.0431 -0.2497 -0.2291
38105SOL    HW116322   6.821   4.479   2.671 -0.1275 -0.2910  0.3239
38105SOL    HW216323   6.902   4.544   2.782  0.3481  0.1606 -0.2812
38106SOL     OW16324   2.636   1.594   1.402 -0.1610 -0.0458  0.1096
38106SOL    HW116325   2.543   1.616   1.391  0.4910  1.5252 -3.4407
38106SOL    HW216326   2.642   1.503   1.375 -0.6709 -0.1515  0.3358
38107SOL     OW16327   9.018   0.020   9.104 -0.3467 -0.5056  0.2082
38107SOL    HW116328   9.081  -0.052   9.099 -0.6685 -0.8253  0.6462
38107SOL    HW216329   9.070   0.098   9.083  0.3194 -0.6979  1.0529
38108SOL     OW16330   2.570   2.753   6.541  0.1297 -0.5540 -0.2932
38108SOL    HW116331   2.515   2.730   6.466 -1.0139  0.2998  0.2624
38108SOL    HW216332   2.561   2.848   6.548  3.2487 -0.0527 -1.3939
38109SOL     OW16333  10.119   3.181   9.196  0.4581 -0.0037  0.0216
38109SOL    HW116334  10.072   3.258   9.227 -0.3945  0.9844 -3.2830
38109SOL    HW216335  10.211   3.200   9.211  0.2841  1.8739 -0.9918
38110SOL     OW16336  10.065   0.148   9.172  0.2522 -0.3698 -0.2677
38110SOL    HW116337  10.105   0.228   9.137  1.0994 -1.0710 -0.9231
38110SOL    HW216338   9.984   0.139   9.121  0.6902 -0.5086 -0.9573
38111SOL     OW16339   8.857   3.357   5.247 -0.1581 -0.2361  0.1173
38111SOL    HW116340   8.838   3.425   5.182  2.3146  0.7129  0.2675
38111SOL    HW216341   8.826   3.392   5.330  0.5959  0.4824  0.1013
38112SOL     OW16342   6.319   1.163  10.043  0.0359  0.6833 -0.7563
38112SOL    HW116343   6.317   1.067  10.043  3.3376  0.4979 -1.0845
38112SOL    HW216344   6.291   1.187   9.955  0.8060 -0.0856 -1.2255
38113SOL     OW16345   9.455   0.558   9.829 -0.0214  0.0453  0.3978
38113SOL    HW116346   9.376   0.504   9.834 -0.7779  0.6067 -2.8909
38113SOL    HW216347   9.526   0.498   9.852 -1.0686 -1.6981 -0.6557
38114SOL     OW16348   6.975   4.453   6.918 -0.4079 -0.0348  0.0707
38114SOL    HW116349   7.065   4.481   6.931  0.1423 -0.3797 -2.5029
38114SOL    HW216350   6.922   4.523   6.957  0.9091  0.0391  1.8743
38115SOL     OW16351   9.118   2.513   6.984  0.2169 -0.4152  0.4071
38115SOL    HW116352   9.175   2.531   7.059 -1.0482  0.2050  1.2481
38115SOL    HW216353   9.172   2.534   6.908  0.5788  1.9184  1.2138
38116SOL     OW16354   4.434   3.100   4.603  0.4244 -0.4957 -0.0122
38116SOL    HW116355   4.487   3.083   4.525  0.9425  0.4252  0.1089
38116SOL    HW216356   4.345   3.078   4.578  0.4265  0.7126 -1.2078
38117SOL     OW16357   8.451   8.641   5.402  0.4447 -0.4316 -0.1393
38117SOL    HW116358   8.509   8.575   5.363 -0.1552 -0.2662 -1.3651
38117SOL    HW216359   8.505   8.720   5.407  0.1993 -0.1035 -1.8644
38118SOL     OW16360   2.241  10.707  10.840 -0.0627  0.4189  0.1391
38118SOL    HW116361   2.263  10.618  10.870  2.3774  0.5288 -1.1416
38118SOL    HW216362   2.249  10.761  10.918  2.0209  0.0360  0.2401
38119SOL     OW16363  11.021   2.526   3.484  0.4603 -0.1412 -0.5781
38119SOL    HW116364  11.103   2.508   3.438  0.9178  1.2651 -0.3761
38119SOL    HW216365  11.048   2.571   3.564 -0.4687 -0.3668 -0.1236
38120SOL     OW16366   9.039   3.079  10.927 -0.0560 -0.0821 -0.5224
38120SOL    HW116367   8.958   3.062  10.879 -0.7449 -1.3177  0.9714
38120SOL    HW216368   9.011   3.131  11.003  0.6906  0.1908 -0.4209
38121SOL     OW16369   7.831   4.178   8.414 -0.3041 -0.3908 -0.5010
38121SOL    HW116370   7.897   4.142   8.474 -0.1918  0.6419  0.0218
38121SOL    HW216371   7.864   4.160   8.327  0.0289 -1.0299 -0.2468
38122SOL     OW16372   2.035   4.998   0.851 -0.6373 -0.2709  0.1445
38122SOL    HW116373   2.065   4.975   0.763 -0.8302 -0.8967  0.2375
38122SOL    HW216374   1.952   5.043   0.837 -0.7120 -0.4518  0.0131
38123SOL     OW16375   6.953   0.469   6.775  0.0176 -0.0504  0.0105
38123SOL    HW116376   6.983   0.390   6.729 -1.9743  0.2705 -2.0262
38123SOL    HW216377   7.009   0.474   6.852  1.7500 -2.1649 -0.9806
38124SOL     OW16378   2.523   5.421   4.931 -0.4525 -0.0386  0.1941
38124SOL    HW116379   2.466   5.416   5.008 -0.3649 -0.7448  0.2178
38124SOL    HW216380   2.465   5.408   4.856 -0.3836 -0.3769  0.1981
38125SOL     OW16381   6.515   1.151   4.271 -0.0536 -0.6960  0.0750
38125SOL    HW116382   6.534   1.239   4.304  1.6454 -1.5644  1.5719
38125SOL    HW216383   6.444   1.164   4.207  0.7713  1.8561 -0.4310
38126SOL     OW16384   8.356   8.042   8.749 -0.0716  0.3712 -0.4799
38126SOL    HW116385   8.311   7.992   8.681 -0.9077 -0.3986  0.6064
38126SOL    HW216386   8.411   8.104   8.701 -0.0945 -0.6250 -1.8585
38127SOL     OW16387   7.709   7.079   8.217  0.0207  0.1118 -0.2497
38127SOL    HW116388   7.756   7.007   8.258  1.0917  1.1639  0.4331
38127SOL    HW216389   7.626   7.041   8.188 -0.1137 -1.0174  1.5182
38128SOL     OW16390   8.635   2.520   6.767  0.1408  0.2389  0.1330
38128SOL    HW116391   8.555   2.565   6.740 -0.3807 -0.0971  1.0766
38128SOL    HW216392   8.612   2.427   6.766  1.4953 -0.2009 -2.8118
38129SOL     OW16393   4.569   0.298   1.108  0.0597  0.0249 -0.1661
38129SOL    HW116394   4.513   0.220   1.108 -1.8010  1.3232 -0.1650
38129SOL    HW216395   4.637   0.277   1.043 -2.1205 -0.4412 -2.4625
38130SOL     OW16396   9.197   3.472   7.930 -0.0882  0.3139  0.7042
38130SOL    HW116397   9.181   3.474   7.835  0.8013  1.3008  0.5643
38130SOL    HW216398   9.135   3.407   7.962  1.1652 -1.7938 -0.8448
38131SOL     OW16399   5.754   1.975   6.226 -0.0066 -0.0120 -0.1848
38131SOL    HW116400   5.777   2.064   6.253 -0.6972  0.0857  0.1140
38131SOL    HW216401   5.666   1.984   6.188 -0.7096 -0.7730  1.1495
38132SOL     OW16402  10.817   8.738   4.948  0.3339 -0.2495 -0.2761
38132SOL    HW116403  10.787   8.713   4.860  0.5448 -0.7017 -0.2215
38132SOL    HW216404  10.808   8.658   5.000 -0.5572  0.2276  0.3231
38133SOL     OW16405   2.863   2.688   8.239  0.0303  0.2775 -0.2150
38133SOL    HW116406   2.916   2.705   8.162 -1.6010  1.1690 -1.1987
38133SOL    HW216407   2.925   2.689   8.312  1.4986  0.1222 -1.4238
38134SOL     OW16408   4.455   8.102   0.269  0.2195 -0.2354  0.1035
38134SOL    HW116409   4.399   8.028   0.295  0.7211 -0.3269  0.9786
38134SOL    HW216410   4.486   8.138   0.352  0.3918  0.6444 -0.3350
38135SOL     OW16411   9.505   3.304   7.524  0.2506  0.0683 -0.1359
38135SOL    HW116412   9.463   3.320   7.439 -0.9248  0.6942  0.5293
38135SOL    HW216413   9.523   3.210   7.524 -0.6448 -0.1192 -0.6923
38136SOL     OW16414   4.495   3.112   7.624 -0.2176  0.3689  0.0031
38136SOL    HW116415   4.556   3.054   7.669 -0.7802 -1.7964 -1.8523
38136SOL    HW216416   4.548   3.153   7.555 -0.2755  0.5009  0.0378
38137SOL     OW16417   9.122   8.885   6.348 -0.1465 -0.0018  0.2241
38137SOL    HW116418   9.203   8.923   6.383 -0.9470  0.6401  1.4419
38137SOL    HW216419   9.084   8.837   6.422  0.0679 -1.9525 -0.8576
38138SOL     OW16420  10.107   3.159   6.463  0.0375 -0.1164  0.1137
38138SOL    HW116421  10.040   3.168   6.531  0.6558 -0.2894  0.7493
38138SOL    HW216422  10.067   3.199   6.385 -0.7013  0.0156  0.5519
38139SOL     OW16423   4.105   9.315   9.296 -0.0842 -0.5103  0.2062
38139SOL    HW116424   4.118   9.410   9.290  0.5576 -0.6370 -0.5875
38139SOL    HW216425   4.117   9.295   9.389  0.2303  0.1206  0.3078
38140SOL     OW16426   6.859  10.300   9.186  0.0200 -0.0407  0.7637
38140SOL    HW116427   6.843  10.395   9.189  2.0477  0.3410  0.8862
38140SOL    HW216428   6.821  10.272   9.103  1.7641  1.4040 -0.6084
38141SOL     OW16429   7.614   2.909   4.091  0.8266  0.1631  0.4934
38141SOL    HW116430   7.692   2.952   4.126  1.3735 -0.8384  0.5526
38141SOL    HW216431   7.622   2.916   3.996  1.0499 -0.0306  0.4971
38142SOL     OW16432   9.192   2.824   1.720 -0.2856  0.3909 -0.6034
38142SOL    HW116433   9.187   2.751   1.782  1.5497  1.0274  0.3754
38142SOL    HW216434   9.113   2.816   1.667 -0.3111 -2.1006 -0.3131
38143SOL     OW16435   6.690   2.685   5.464  0.4827  0.0367  0.9902
38143SOL    HW116436   6.658   2.755   5.522 -0.9211  0.2170  0.0499
38143SOL    HW216437   6.644   2.700   5.382  0.8156 -1.4932  0.5048
38144SOL     OW16438   2.348  10.491   2.086 -0.3072 -0.2718 -0.2722
38144SOL    HW116439   2.373  10.533   2.004 -0.1123 -0.2583 -0.2065
38144SOL    HW216440   2.320  10.563   2.143  0.3571 -0.1883 -0.0404
38145SOL     OW16441   5.366   4.179   2.156 -1.0867  0.2158 -0.2352
38145SOL    HW116442   5.386   4.230   2.234 -1.1727  0.3168 -0.2794
38145SOL    HW216443   5.394   4.090   2.177 -2.4190 -0.0675  0.4409
38146SOL     OW16444   9.822  10.298   8.091  0.3856  0.2868  0.2462
38146SOL    HW116445   9.759  10.349   8.142 -3.2561 -1.5754 -1.9299
38146SOL    HW216446   9.879  10.363   8.050 -1.2869  2.2958  0.9225
38147SOL     OW16447   6.273   1.938   9.491  0.0939 -0.1432  0.2448
38147SOL    HW116448   6.265   1.995   9.414 -2.3874 -0.5950  0.0676
38147SOL    HW216449   6.186   1.898   9.499  0.2770 -0.1295  3.2899
38148SOL     OW16450   8.422   3.196   1.421 -0.3903 -0.1128  0.1507
38148SOL    HW116451   8.331   3.166   1.413 -0.5505  0.2503  0.5891
38148SOL    HW216452   8.439   3.242   1.339 -0.7376  0.1741  0.2352
38149SOL     OW16453   0.030   4.963   0.829 -0.2765 -0.2610  0.9212
38149SOL    HW116454  -0.048   4.987   0.779 -0.8768 -0.3062  1.8103
38149SOL    HW216455   0.014   5.000   0.917  0.8088 -0.0563  1.0477
38150SOL     OW16456   2.264   2.425  10.689  0.8615 -0.3377 -0.0498
38150SOL    HW116457   2.356   2.400  10.693  1.0025  0.1979  0.2117
38150SOL    HW216458   2.237   2.430  10.781  1.1934  1.7120 -0.0294
38151SOL     OW16459   1.438  10.623   6.610  0.0969  0.1978  0.2608
38151SOL    HW116460   1.431  10.584   6.697  0.7282  1.8817  1.1054
38151SOL    HW216461   1.507  10.572   6.567  0.3735 -0.1069  1.0435
38152SOL     OW16462   6.285   8.133   7.363 -0.4726 -0.3035 -0.6557
38152SOL    HW116463   6.375   8.148   7.334 -0.4511  1.7320  0.2588
38152SOL    HW216464   6.246   8.079   7.294  1.6481 -1.9265 -0.6794
38153SOL     OW16465   0.137   3.410   0.923  0.0383 -0.5837 -0.1442
38153SOL    HW116466   0.158   3.474   0.991 -1.6027 -0.7553  0.5727
38153SOL    HW216467   0.115   3.463   0.847 -0.2155 -0.3227  0.1088
38154SOL     OW16468  10.030   2.963   4.979  0.0444  0.0280  0.5152
38154SOL    HW116469   9.966   3.027   4.947  0.4377 -0.3659 -1.1599
38154SOL    HW216470  10.113   2.993   4.943  0.3979 -0.8381  0.5884
38155SOL     OW16471   2.855   2.508   3.107 -0.3676  0.1035 -0.0702
38155SOL    HW116472   2.835   2.592   3.150  1.6606  0.0336  1.1550
38155SOL    HW216473   2.939   2.482   3.145 -0.7675 -2.3174 -0.7101
38156SOL     OW16474   8.947   4.963   4.816 -0.1846 -0.1465  0.9656
38156SOL    HW116475   8.851   4.959   4.812 -0.1048 -0.9473 -0.7555
38156SOL    HW216476   8.966   4.977   4.909 -1.9404 -0.7441  1.4508
38157SOL     OW16477   5.641   1.914   8.685  0.0542  0.0868 -0.0216
38157SOL    HW116478   5.679   1.875   8.605 -0.9878  3.1569 -2.2092
38157SOL    HW216479   5.702   1.984   8.708 -0.9594  0.8681  0.3231
38158SOL     OW16480   1.932   1.099   8.834  0.0829  0.4022  0.4170
38158SOL    HW116481   1.863   1.095   8.769  0.3103  0.2811  0.1800
38158SOL    HW216482   1.886   1.105   8.918 -0.2105  0.3952  0.2583
38159SOL     OW16483   2.700   5.725   5.538 -0.2718  0.3643  0.2461
38159SOL    HW116484   2.725   5.800   5.592  1.8815 -1.6738  2.3272
38159SOL    HW216485   2.747   5.738   5.455  0.4827  1.0931  0.7675
38160SOL     OW16486   5.674   2.880   8.706 -0.4335  0.6512  0.2198
38160SOL    HW116487   5.582   2.878   8.680 -0.0656 -2.9093 -1.4478
38160SOL    HW216488   5.718   2.933   8.640 -1.0119  0.5458 -0.2522
38161SOL     OW16489   3.118   7.484   1.908  0.5599 -0.1462 -0.2597
38161SOL    HW116490   3.063   7.562   1.901  0.3150  0.0555  2.7303
38161SOL    HW216491   3.151   7.470   1.819 -0.8958  2.2208 -1.2695
38162SOL     OW16492   9.195   2.093   5.136  0.7776 -0.2739  0.1580
38162SOL    HW116493   9.216   2.186   5.150  0.1282 -0.1088  0.0704
38162SOL    HW216494   9.218   2.051   5.219  0.6368  0.0461  0.3609
38163SOL     OW16495   9.358   8.530   0.095 -0.2920 -0.6709 -0.1743
38163SOL    HW116496   9.274   8.487   0.111 -0.6453 -0.4585 -1.2970
38163SOL    HW216497   9.355   8.551   0.001  0.9772 -0.5765 -0.2016
38164SOL     OW16498   7.196   4.435   8.177  0.4619 -0.1042  0.0266
38164SOL    HW116499   7.216   4.366   8.114  0.0579 -0.2277  0.0351
38164SOL    HW216500   7.104   4.423   8.197  0.5559  0.0187  0.5411
38165SOL     OW16501  10.934   4.721  10.777 -0.0533 -0.0497  0.7773
38165SOL    HW116502  10.941   4.705  10.683  2.3845  0.9324  0.7171
38165SOL    HW216503  10.921   4.634  10.815  2.7660 -1.0416 -0.2474
38166SOL     OW16504   7.401   4.342   1.909 -0.7837  0.2225 -0.1109
38166SOL    HW116505   7.327   4.379   1.957 -0.3984  0.3490  0.3955
38166SOL    HW216506   7.445   4.419   1.871  1.0307  0.5617  2.3660
38167SOL     OW16507   0.959   3.609   9.536  0.1725  0.6834 -0.6013
38167SOL    HW116508   1.037   3.559   9.517  0.2575  0.2595  0.7254
38167SOL    HW216509   0.889   3.567   9.486 -0.1621 -2.0817  1.9048
38168SOL     OW16510   8.207   1.236   4.276 -0.4720  0.3289 -0.1648
38168SOL    HW116511   8.251   1.191   4.349 -0.8304 -0.9225 -0.7099
38168SOL    HW216512   8.277   1.286   4.233 -0.2683  1.1540  1.0634
38169SOL     OW16513   6.839  10.750   7.344  0.1980  0.2568  0.2778
38169SOL    HW116514   6.832  10.674   7.287 -0.0919 -0.3920  1.1460
38169SOL    HW216515   6.837  10.826   7.285  0.7895 -0.4114 -0.6251
38170SOL     OW16516   7.274   8.972   5.486  0.0923 -0.0713 -0.4206
38170SOL    HW116517   7.305   9.062   5.472  2.0415 -0.9351 -2.3925
38170SOL    HW216518   7.350   8.917   5.467 -1.1678 -2.1715  0.2327
38171SOL     OW16519   5.402   9.465   0.903  0.0947 -0.0240  0.6370
38171SOL    HW116520   5.444   9.483   0.987 -0.2730  0.6255  0.6849
38171SOL    HW216521   5.314   9.434   0.926 -0.1068  0.4308  0.4883
38172SOL     OW16522   4.415  11.089  10.650  0.0021  0.4792  0.1268
38172SOL    HW116523   4.389  11.180  10.638  1.0717  0.8547  0.5559
38172SOL    HW216524   4.409  11.075  10.745  2.9858  1.1260  0.5009
38173SOL     OW16525  10.917   5.464   3.921 -0.7083  0.0481 -0.1546
38173SOL    HW116526  10.972   5.536   3.889  1.8767 -1.4400  0.6747
38173SOL    HW216527  10.837   5.507   3.952  0.5674  2.5242 -0.0479
38174SOL     OW16528   8.926   5.813   6.782  0.0248 -0.0549 -0.1115
38174SOL    HW116529   8.957   5.841   6.869  0.0187 -0.6463  0.0848
38174SOL    HW216530   8.974   5.732   6.765 -0.7520 -0.5010 -0.1971
38175SOL     OW16531   9.344   3.437   5.541 -0.3807  0.4700  0.4192
38175SOL    HW116532   9.379   3.518   5.577  0.5979  0.3005 -0.0889
38175SOL    HW216533   9.288   3.402   5.610  2.4574 -0.5352  2.4308
38176SOL     OW16534   0.653  10.067  10.059  0.1000  0.8342 -0.0278
38176SOL    HW116535   0.622  10.116   9.983  1.6061  1.3742 -0.3405
38176SOL    HW216536   0.626  10.119  10.134 -0.3433  0.9236 -0.2456
38177SOL     OW16537   9.999   7.345   6.267 -0.2817 -0.1812  0.7467
38177SOL    HW116538  10.013   7.398   6.188 -0.0691 -1.5044 -0.1337
38177SOL    HW216539   9.908   7.315   6.261 -0.1622 -0.5697  0.8180
38178SOL     OW16540   9.514   7.816   1.465 -0.4580 -0.2321 -0.0692
38178SOL    HW116541   9.453   7.752   1.428 -2.4789  0.5569  1.6521
38178SOL    HW216542   9.458   7.889   1.492  0.9502 -0.2630  3.4104
38179SOL     OW16543  10.762   2.138   0.431 -0.2488  0.3030  0.4816
38179SOL    HW116544  10.771   2.177   0.517  1.1457 -0.1001  0.5361
38179SOL    HW216545  10.731   2.049   0.448  1.3951 -0.2532  0.6762
38180SOL     OW16546   7.021   1.990   5.400  0.3732 -0.1325 -0.2211
38180SOL    HW116547   6.990   2.040   5.325  2.3390 -1.8914 -2.3754
38180SOL    HW216548   7.000   1.899   5.379  0.5986 -0.6519  1.5867
38181SOL     OW16549   3.067   4.286   6.813 -0.1303  0.1863  0.3718
38181SOL    HW116550   3.064   4.381   6.824 -1.9760  0.1697  0.4356
38181SOL    HW216551   3.013   4.252   6.885 -1.7619 -0.6981 -1.1724
38182SOL     OW16552   3.844   1.057   4.744 -0.0119 -0.7384  0.0236
38182SOL    HW116553   3.907   1.073   4.674 -0.2467 -0.7288 -0.1846
38182SOL    HW216554   3.791   1.137   4.748  1.5386  0.2939  1.8280
38183SOL     OW16555   0.085  10.234   6.556 -0.3670  0.7828 -0.5062
38183SOL    HW116556   0.013  10.233   6.619  0.2619  1.0720  0.2441
38183SOL    HW216557   0.048  10.199   6.476 -1.1763  0.3435  0.0469
38184SOL     OW16558   2.262   4.557   6.547 -0.1502 -0.3476  0.5021
38184SOL    HW116559   2.228   4.492   6.486  1.9425 -0.6537 -0.3996
38184SOL    HW216560   2.315   4.507   6.609  3.0179  0.5348 -1.2659
38185SOL     OW16561   8.810   5.273   7.375  0.4359 -0.1369  0.5880
38185SOL    HW116562   8.859   5.331   7.316  0.9273 -1.5817 -0.5229
38185SOL    HW216563   8.837   5.185   7.348 -1.1698 -0.9183  1.4050
38186SOL     OW16564   1.556   3.143   8.759  0.0718  0.0977  0.1276
38186SOL    HW116565   1.587   3.096   8.682  1.7880  0.2676  0.6682
38186SOL    HW216566   1.485   3.089   8.794  1.4311 -1.6810  0.2475
38187SOL     OW16567   4.842   8.988   4.969  0.0145  0.3761  0.1625
38187SOL    HW116568   4.819   9.045   5.042 -0.8350  0.7932 -0.4225
38187SOL    HW216569   4.934   8.965   4.985 -0.5670 -0.7856  2.1840
38188SOL     OW16570   2.068   7.509  10.786 -0.2097  0.0961 -0.1732
38188SOL    HW116571   2.079   7.603  10.779  1.4260 -0.0315  0.1847
38188SOL    HW216572   2.010   7.485  10.714  0.3376  1.2180 -1.0074
38189SOL     OW16573   5.672   3.658   8.895 -0.7436  0.3400 -0.1618
38189SOL    HW116574   5.604   3.653   8.962  0.3895  0.2624  1.0404
38189SOL    HW216575   5.650   3.590   8.833 -0.1492 -1.8069  1.8274
38190SOL     OW16576   3.321   2.664   1.423  0.9221  0.3002 -0.3171
38190SOL    HW116577   3.260   2.635   1.490  1.0805 -1.0229 -0.7222
38190SOL    HW216578   3.266   2.694   1.351  0.7256 -0.9943 -0.7249
38191SOL     OW16579   8.716   5.094   6.036 -0.1345  0.2589 -0.1998
38191SOL    HW116580   8.772   5.162   6.073  1.3656 -0.0945 -1.6837
38191SOL    HW216581   8.745   5.013   6.080 -0.7589  0.3328  0.3542
38192SOL     OW16582   1.870   1.761   4.296  0.4265  0.4696 -0.6943
38192SOL    HW116583   1.904   1.850   4.303 -0.6914  0.8524  0.3563
38192SOL    HW216584   1.778   1.772   4.272  0.2959 -0.4065 -0.6396
38193SOL     OW16585  10.214   3.564   7.481  0.7048 -0.4425  0.2071
38193SOL    HW116586  10.278   3.557   7.411  1.2989 -1.0292  0.7887
38193SOL    HW216587  10.162   3.483   7.475  0.8423 -0.5558  0.5225
38194SOL     OW16588   1.642   2.892  10.071  0.2269  0.3763 -0.2247
38194SOL    HW116589   1.580   2.955  10.035  2.3684  0.6778 -3.8574
38194SOL    HW216590   1.709   2.946  10.112 -0.7658  0.1178  1.8696
38195SOL     OW16591   8.824   1.740  10.819  0.3546  0.9766 -0.3834
38195SOL    HW116592   8.756   1.763  10.756  1.0351  0.3846 -1.3747
38195SOL    HW216593   8.776   1.708  10.896 -0.4959  0.2169 -1.1941
38196SOL     OW16594   9.336   9.367   5.267  0.0385  0.0973 -0.0493
38196SOL    HW116595   9.345   9.343   5.174 -1.0329  0.8049 -0.3514
38196SOL    HW216596   9.409   9.425   5.284 -1.2079  2.1111 -1.2101
38197SOL     OW16597   3.259   7.810  10.926 -0.4645 -0.2414  0.0112
38197SOL    HW116598   3.271   7.854  11.010 -0.9273 -0.5418  0.2388
38197SOL    HW216599   3.302   7.867  10.863 -0.2063  0.0420  0.4360
38198SOL     OW16600   8.106   3.684   7.238  0.1063 -0.0807  0.5396
38198SOL    HW116601   8.188   3.635   7.229  0.0833  0.1090 -0.7870
38198SOL    HW216602   8.125   3.770   7.201 -1.3683 -0.8168 -2.1636
38199SOL     OW16603   9.638   0.161   2.032 -0.2715 -0.0223  0.2854
38199SOL    HW116604   9.669   0.123   1.949 -3.4474  0.9104 -1.5346
38199SOL    HW216605   9.692   0.239   2.045 -0.7437  0.7348 -1.8733
38200SOL     OW16606  10.147   2.757   8.839 -0.3092  0.3113 -0.9611
38200SOL    HW116607  10.167   2.805   8.919 -0.1737  0.1893 -0.9207
38200SOL    HW216608  10.052   2.757   8.834 -0.3122  0.5118 -0.9180
38201SOL     OW16609   1.463   5.974   1.006  0.3038 -0.4859  0.4037
38201SOL    HW116610   1.456   5.878   1.010 -0.8553 -0.4356 -0.0106
38201SOL    HW216611   1.447   5.995   0.914  2.2783  0.0058  0.1358
38202SOL     OW16612   1.226   2.124   2.537  0.4581 -0.3128 -0.3771
38202SOL    HW116613   1.149   2.073   2.562  0.5338 -0.2864 -0.0837
38202SOL    HW216614   1.208   2.153   2.448  0.5747 -1.1659 -0.6939
38203SOL     OW16615   9.906   6.079   4.345 -0.3508  0.0130  0.2038
38203SOL    HW116616   9.825   6.129   4.355 -0.6735 -0.6359  0.8490
38203SOL    HW216617   9.911   6.025   4.423  0.0798 -0.8506 -0.4124
38204SOL     OW16618   9.584   0.753   5.900  0.1081 -0.3071  0.6032
38204SOL    HW116619   9.584   0.787   5.810 -0.0219  0.0812  0.7463
38204SOL    HW216620   9.671   0.775   5.934  0.5161 -1.3253  0.2569
38205SOL     OW16621   7.519   3.184   1.098 -0.2906  0.7270  0.0150
38205SOL    HW116622   7.537   3.229   1.181 -0.0008  0.2913  0.1947
38205SOL    HW216623   7.537   3.091   1.117  0.0329  0.6559 -0.6078
38206SOL     OW16624   4.661  10.082   6.543  0.1350 -0.0257 -0.1255
38206SOL    HW116625   4.624  10.168   6.563 -0.7205 -0.4134 -0.0005
38206SOL    HW216626   4.756  10.096   6.545  0.1073  0.2757  2.8483
38207SOL     OW16627   4.570   3.813   5.172  0.2693 -0.0595 -0.5356
38207SOL    HW116628   4.571   3.864   5.091 -1.1925  0.9223  0.0121
38207SOL    HW216629   4.477   3.794   5.187  0.4660  0.1705  1.1382
38208SOL     OW16630   9.468   7.435   0.777  0.4412  0.8727  0.5765
38208SOL    HW116631   9.415   7.369   0.733 -0.8485  2.0652  0.2649
38208SOL    HW216632   9.502   7.391   0.855  1.0089 -0.6302 -0.4732
38209SOL     OW16633   8.347   6.352   5.476  0.0451  0.1780 -0.4738
38209SOL    HW116634   8.348   6.443   5.504 -0.1099  0.7421 -2.1569
38209SOL    HW216635   8.434   6.336   5.441  0.3734 -0.6288  0.6716
38210SOL     OW16636   2.120   5.233  10.081  0.1332  0.0703  0.0374
38210SOL    HW116637   2.093   5.151  10.039 -1.1469  0.8943 -0.7852
38210SOL    HW216638   2.091   5.302  10.021  4.3498  1.1133 -1.1983
38211SOL     OW16639   5.409   2.369   8.426 -0.4357 -0.0723  0.1602
38211SOL    HW116640   5.376   2.282   8.404 -0.4098 -0.0978  0.2265
38211SOL    HW216641   5.478   2.354   8.490  1.0755 -0.1777 -1.4016
38212SOL     OW16642   1.218  10.515   6.216  0.2665  0.3335 -0.4843
38212SOL    HW116643   1.265  10.474   6.289 -0.4853 -0.1224 -0.2434
38212SOL    HW216644   1.257  10.475   6.138  1.2061  0.9682 -0.3474
38213SOL     OW16645   3.109   0.670   1.036  0.6268 -0.2066  0.3418
38213SOL    HW116646   3.153   0.734   0.980  0.8502 -0.4886  0.1896
38213SOL    HW216647   3.155   0.588   1.018  0.1077 -0.4818  0.2579
38214SOL     OW16648   3.502  10.184   7.078  0.4468 -0.3989 -0.2145
38214SOL    HW116649   3.459  10.264   7.047  2.4539  0.9112  0.1811
38214SOL    HW216650   3.576  10.173   7.019  0.6828 -1.4848  0.2756
38215SOL     OW16651   8.351   4.038   9.348 -0.3323 -0.1917  0.6062
38215SOL    HW116652   8.261   4.059   9.323  0.0611  2.5092  1.0985
38215SOL    HW216653   8.399   4.033   9.265 -0.6549 -0.0220  0.4085
38216SOL     OW16654   7.682   8.930   8.668  0.6365  0.1323 -0.1527
38216SOL    HW116655   7.705   8.853   8.616  1.5658  0.9812 -1.0571
38216SOL    HW216656   7.721   8.914   8.753  0.7217 -0.4469 -0.2942
38217SOL     OW16657  10.693   0.301   7.002 -0.1941  0.5128 -0.2151
38217SOL    HW116658  10.638   0.379   6.987 -0.4983  0.1063 -1.3327
38217SOL    HW216659  10.723   0.310   7.092 -1.0570  1.4103  0.0068
38218SOL     OW16660   1.179   4.644   6.137  0.0342  0.0776  0.3063
38218SOL    HW116661   1.184   4.599   6.221 -3.9535 -1.9230 -0.2981
38218SOL    HW216662   1.181   4.574   6.072 -2.8946  0.9275 -0.8492
38219SOL     OW16663   9.614  10.138   3.493  0.1023  0.3275 -0.0892
38219SOL    HW116664   9.620  10.224   3.451 -0.9892  0.9552  0.9924
38219SOL    HW216665   9.657  10.150   3.578  1.9544 -0.8248 -0.8038
38220SOL     OW16666   8.488   3.359   1.625  0.4310 -0.6745  0.9312
38220SOL    HW116667   8.484   3.292   1.557  0.4319  0.8902 -0.6804
38220SOL    HW216668   8.404   3.353   1.670 -0.4833 -0.3127 -0.6648
38221SOL     OW16669   6.389   0.040   3.099 -0.1820 -0.2573 -0.4426
38221SOL    HW116670   6.372   0.124   3.140  0.5033 -1.0773  1.6178
38221SOL    HW216671   6.337   0.042   3.018 -3.8861  0.3539  1.7495
38222SOL     OW16672   7.455   8.756   0.264 -0.2933  0.2253  0.6978
38222SOL    HW116673   7.492   8.730   0.179  1.1619  0.4969  1.2093
38222SOL    HW216674   7.507   8.833   0.289 -1.5737  0.9406  1.2439
38223SOL     OW16675   8.423   9.548   0.602 -0.3614 -0.3476  0.2009
38223SOL    HW116676   8.462   9.539   0.515  0.8177  0.8012  0.5689
38223SOL    HW216677   8.397   9.641   0.608 -1.6273 -0.7039  0.6074
38224SOL     OW16678  10.073   4.405   8.763 -0.2315  0.0237 -0.2573
38224SOL    HW116679  10.052   4.489   8.721  2.7839  0.8526 -0.3594
38224SOL    HW216680  10.083   4.426   8.855  0.1405 -0.2829 -0.2240
38225SOL     OW16681   8.216   1.767   4.780  0.5257  0.2903 -0.2420
38225SOL    HW116682   8.258   1.697   4.831 -0.1585  0.1556  0.1477
38225SOL    HW216683   8.263   1.846   4.806  0.0223  0.2623  0.7956
38226SOL     OW16684   0.171   4.862   4.271 -0.1358  0.2230  0.2438
38226SOL    HW116685   0.190   4.795   4.337  1.5887 -1.1068 -1.4899
38226SOL    HW216686   0.147   4.940   4.322 -2.3779 -1.6850  2.3330
38227SOL     OW16687   4.290   6.681   4.588  0.1261  0.6438  0.1584
38227SOL    HW116688   4.223   6.665   4.522  0.4735 -1.5947  0.2824
38227SOL    HW216689   4.241   6.703   4.667 -0.4109  0.3356 -0.0828
38228SOL     OW16690   6.883   0.447   3.179 -0.1541 -0.1901  0.1048
38228SOL    HW116691   6.913   0.538   3.172 -0.6431 -0.0659 -0.4860
38228SOL    HW216692   6.790   0.451   3.158  0.0295 -0.9585 -0.9278
38229SOL     OW16693   9.946   9.584   8.165  0.3596 -0.5449  0.3960
38229SOL    HW116694   9.964   9.666   8.119  0.6370 -0.3118  0.9106
38229SOL    HW216695  10.010   9.522   8.130  0.5214 -0.3887  0.4135
38230SOL     OW16696   1.069   5.892   4.658  0.2568 -0.3251  0.0156
38230SOL    HW116697   1.147   5.913   4.606  1.0474  0.8431  1.5675
38230SOL    HW216698   1.046   5.803   4.631  0.6676  0.1690 -2.2191
38231SOL     OW16699   9.479   0.761  10.232  0.3519 -0.3720  0.2431
38231SOL    HW116700   9.485   0.783  10.325  0.9883 -2.8001  0.8192
38231SOL    HW216701   9.468   0.666  10.230  2.7301 -0.7027 -2.2310
38232SOL     OW16702   8.578   0.635   6.729  0.5312  0.0178 -0.0075
38232SOL    HW116703   8.521   0.647   6.805 -1.3667  0.6895 -1.4733
38232SOL    HW216704   8.599   0.724   6.700  0.3337 -0.2225 -0.9113
38233SOL     OW16705   2.162   0.695   6.219  0.1600 -0.9984 -0.0148
38233SOL    HW116706   2.072   0.673   6.244  0.2295 -1.9238 -0.5431
38233SOL    HW216707   2.201   0.730   6.299 -0.2810 -1.8448  0.5813
38234SOL     OW16708   3.840  10.292   3.383  0.6466  0.1520  0.0869
38234SOL    HW116709   3.870  10.362   3.326  0.1386  0.2572 -0.0586
38234SOL    HW216710   3.898  10.295   3.459 -0.9413  2.4090  1.3080
38235SOL     OW16711  10.834   6.544   8.535 -0.1877  0.1051  0.4102
38235SOL    HW116712  10.915   6.493   8.530 -0.2787 -0.1799  1.5922
38235SOL    HW216713  10.778   6.506   8.467 -0.2685 -1.4118  1.2766
38236SOL     OW16714   8.073   6.093   2.167  0.0323 -0.2795 -0.3598
38236SOL    HW116715   8.020   6.152   2.219 -0.5334 -0.4767 -0.7028
38236SOL    HW216716   8.157   6.137   2.159 -0.2556  0.2946 -0.2738
38237SOL     OW16717  10.541   7.358   0.369 -0.1394  0.4047 -0.5446
38237SOL    HW116718  10.469   7.301   0.396 -1.8054  1.7693 -1.8905
38237SOL    HW216719  10.553   7.417   0.443 -0.3221  0.1101 -0.2752
38238SOL     OW16720   2.351   3.132   9.926  0.1517 -0.5283  0.4828
38238SOL    HW116721   2.351   3.129  10.021  0.2332  2.7864  0.7127
38238SOL    HW216722   2.270   3.178   9.903 -0.9038 -3.0459 -1.2496
38239SOL     OW16723   5.454   7.824   1.821  0.0197  0.0744 -0.2568
38239SOL    HW116724   5.380   7.779   1.781  0.0399  1.0421 -1.4309
38239SOL    HW216725   5.523   7.758   1.826  0.2987  0.1232 -2.6436
38240SOL     OW16726   0.090   7.530   1.359 -0.2360 -0.3306 -0.0303
38240SOL    HW116727   0.132   7.465   1.415 -0.3005 -1.9399 -1.7885
38240SOL    HW216728   0.149   7.542   1.286 -0.4558  1.2799  0.0069
38241SOL     OW16729   9.310   5.589   8.725  0.0782 -0.7509 -0.2955
38241SOL    HW116730   9.283   5.517   8.668  0.4793 -0.1528 -1.2650
38241SOL    HW216731   9.309   5.551   8.813  0.1476 -1.9060 -0.7708
38242SOL     OW16732   7.311   3.867   0.189 -0.2606  0.0720  0.2501
38242SOL    HW116733   7.290   3.846   0.098 -2.3792 -2.1603  1.1492
38242SOL    HW216734   7.229   3.853   0.236  0.2974  2.9105  2.2936
38243SOL     OW16735   7.953   5.473   3.476  0.4610 -0.0949  0.2899
38243SOL    HW116736   7.980   5.417   3.404  1.0270  1.9074 -1.1638
38243SOL    HW216737   8.029   5.474   3.535  0.0604 -1.5979  0.8859
38244SOL     OW16738   3.246  10.738   0.007  0.1426 -0.1520 -0.6166
38244SOL    HW116739   3.315  10.728  -0.059  1.8149  1.1351  0.8240
38244SOL    HW216740   3.264  10.667   0.069 -0.3168 -0.2843 -0.6370
38245SOL     OW16741   0.945   0.914  10.501 -0.2675 -0.5634  0.5821
38245SOL    HW116742   0.864   0.954  10.535 -0.2297 -1.4755  1.8189
38245SOL    HW216743   0.929   0.905  10.407 -2.1972 -1.9706  0.9755
38246SOL     OW16744   1.560  11.058   8.224  0.2134 -0.6008 -0.4398
38246SOL    HW116745   1.495  11.100   8.168  1.4957 -0.0470 -1.5387
38246SOL    HW216746   1.582  10.977   8.179 -0.3546 -1.2302  0.3850
38247SOL     OW16747   0.693   6.000   7.575 -0.2872 -0.0092  0.1754
38247SOL    HW116748   0.732   6.070   7.628 -2.6336  0.5878  1.2365
38247SOL    HW216749   0.623   6.044   7.526 -0.6286 -1.2948 -0.5302
38248SOL     OW16750   9.103   9.939   1.199  0.3246 -0.3441 -0.3893
38248SOL    HW116751   9.112   9.878   1.272  3.1010  1.4760  0.9644
38248SOL    HW216752   9.182   9.927   1.147  0.1083  0.8606 -1.0449
38249SOL     OW16753   6.275   8.243   6.101  0.2296 -0.1916 -0.5025
38249SOL    HW116754   6.189   8.237   6.143 -0.2791 -0.6509 -1.5704
38249SOL    HW216755   6.315   8.158   6.117 -0.7326 -1.0855 -2.4925
38250SOL     OW16756   6.986   8.767   6.777 -0.2572 -0.4634 -0.7581
38250SOL    HW116757   6.951   8.812   6.699  1.8813  0.0159 -1.4941
38250SOL    HW216758   7.080   8.778   6.771  0.0150 -1.0888  1.5447
38251SOL     OW16759   1.581   4.569   9.996 -0.1722  0.3740  0.2454
38251SOL    HW116760   1.664   4.546   9.955 -0.2830 -0.1585  0.3124
38251SOL    HW216761   1.586   4.663  10.008  0.1765  0.4320 -0.2987
38252SOL     OW16762   0.742   0.455   5.342 -0.2505  0.3417  0.3396
38252SOL    HW116763   0.668   0.463   5.402  1.2389 -1.2135  2.5210
38252SOL    HW216764   0.702   0.444   5.256 -2.6000 -1.2245  1.5349
38253SOL     OW16765  10.165   9.472   4.850 -0.0491  0.0768 -0.1150
38253SOL    HW116766  10.180   9.472   4.945  0.1034  2.1947 -0.0997
38253SOL    HW216767  10.198   9.557   4.820  0.6197 -0.8471 -2.2046
38254SOL     OW16768   9.614   2.385   1.821 -0.7070  0.4645 -0.2222
38254SOL    HW116769   9.601   2.479   1.825 -1.1253  0.4814 -1.6361
38254SOL    HW216770   9.692   2.369   1.874  0.8790  1.9205 -2.0040
38255SOL     OW16771   7.394   3.962   5.905 -0.2212 -0.1044 -0.1092
38255SOL    HW116772   7.416   4.037   5.961  2.2100 -0.1203 -0.9010
38255SOL    HW216773   7.403   3.996   5.816 -0.1977 -1.0484 -0.4740
38256SOL     OW16774   4.248   1.808   3.182  0.5287  0.0298  0.0148
38256SOL    HW116775   4.306   1.736   3.158 -0.2547  0.1523 -2.6301
38256SOL    HW216776   4.272   1.830   3.272  2.5112 -1.8464  0.0247
38257SOL     OW16777   2.442   6.554   5.622 -0.4985  0.2023 -0.4055
38257SOL    HW116778   2.526   6.508   5.620 -0.8857 -0.5126 -0.5325
38257SOL    HW216779   2.430   6.585   5.532  1.3473  3.5335  0.3501
38258SOL     OW16780   0.703   6.045   3.915 -0.1315 -0.3310 -0.4177
38258SOL    HW116781   0.786   6.054   3.869  0.5521 -1.1711  0.6153
38258SOL    HW216782   0.718   6.086   4.000 -0.9068 -0.1369 -0.3667
38259SOL     OW16783   5.125  10.914   3.846  0.2972  0.0717 -0.2089
38259SOL    HW116784   5.043  10.959   3.866 -0.4807 -1.2493 -0.3143
38259SOL    HW216785   5.175  10.918   3.927 -0.3066  0.0141  0.1803
38260SOL     OW16786   8.086  10.291   4.940 -0.2876  0.2120  0.3129
38260SOL    HW116787   8.159  10.351   4.925 -1.4601  1.0098 -2.7666
38260SOL    HW216788   8.017  10.346   4.977 -0.9305  0.5622 -1.3343
38261SOL     OW16789   7.506   3.008   6.932  0.0022 -0.2424  0.0101
38261SOL    HW116790   7.482   3.039   6.845  0.2582  0.9867  0.3517
38261SOL    HW216791   7.592   3.048   6.949  0.3584 -1.1823  0.4708
38262SOL     OW16792   7.340   2.709   8.198  0.0888 -0.1165  0.3304
38262SOL    HW116793   7.421   2.659   8.188 -0.0904 -0.5899  1.1144
38262SOL    HW216794   7.326   2.750   8.112  1.0697 -0.1488  0.1427
38263SOL     OW16795   5.866   2.246   1.224 -0.3496  0.3002 -0.1247
38263SOL    HW116796   5.813   2.274   1.149 -0.6181  1.0758  0.3369
38263SOL    HW216797   5.839   2.305   1.295  0.9751  0.5822  0.1763
38264SOL     OW16798   4.777   0.773   9.511 -0.0078 -0.0226  0.1561
38264SOL    HW116799   4.859   0.816   9.486 -1.7240  2.0454 -2.3651
38264SOL    HW216800   4.770   0.790   9.605  2.2141  0.0851  0.3681
38265SOL     OW16801   0.170   0.156   1.293 -0.2623  0.2471 -0.3526
38265SOL    HW116802   0.082   0.182   1.266 -0.4722 -0.4405 -0.3342
38265SOL    HW216803   0.184   0.202   1.376 -0.2243  1.1078 -0.8208
38266SOL     OW16804   9.007   1.556   4.289  0.1544 -0.0028 -0.7248
38266SOL    HW116805   9.035   1.490   4.225  1.5377 -0.2676  0.0977
38266SOL    HW216806   8.992   1.635   4.237  0.3507 -0.4592 -1.4929
38267SOL     OW16807   9.450   7.295   5.716 -0.2423  0.3359 -0.1226
38267SOL    HW116808   9.456   7.215   5.768 -2.5620 -0.0405 -0.3234
38267SOL    HW216809   9.478   7.365   5.775  0.8007 -0.4902  0.3818
38268SOL     OW16810   5.065   6.832   7.574 -0.5125  0.4409  0.3676
38268SOL    HW116811   5.130   6.876   7.520  0.8813 -1.7662  0.0808
38268SOL    HW216812   5.077   6.869   7.661 -0.4896  1.6870 -0.1438
38269SOL     OW16813   6.797   3.537   4.478  0.4453  0.2433 -0.0085
38269SOL    HW116814   6.823   3.534   4.386  1.8591  0.6855  0.3391
38269SOL    HW216815   6.836   3.619   4.511 -1.3717  0.8935  0.6191
38270SOL     OW16816   7.648   5.679   9.164 -0.5081  0.5696  0.2437
38270SOL    HW116817   7.687   5.706   9.247 -0.2253 -2.0444  1.0678
38270SOL    HW216818   7.559   5.712   9.168 -0.6643  0.0533  1.8689
38271SOL     OW16819   0.962   4.511   8.897  0.3604 -0.5303  0.3891
38271SOL    HW116820   0.971   4.606   8.897 -2.0571 -0.2319  1.5601
38271SOL    HW216821   0.953   4.487   8.989  2.6667 -2.1750  0.2855
38272SOL     OW16822   1.172   1.651   6.639  0.7708 -0.0892  0.1152
38272SOL    HW116823   1.265   1.671   6.651  1.1681  0.8184 -3.2347
38272SOL    HW216824   1.144   1.713   6.572 -2.5071  0.1794  1.5832
38273SOL     OW16825   8.073   3.051   9.604  0.1417 -0.2373  0.8910
38273SOL    HW116826   8.012   3.023   9.535 -0.2961 -0.8725  1.5220
38273SOL    HW216827   8.018   3.063   9.681  0.5862  0.7921  1.0565
38274SOL     OW16828   6.332   4.256   8.726 -0.2240 -0.4462 -0.3245
38274SOL    HW116829   6.248   4.301   8.716  1.0575  2.1209 -0.3749
38274SOL    HW216830   6.331   4.187   8.660 -1.5062  0.8174 -1.6783
38275SOL     OW16831   0.317   0.270   7.531  0.6655  0.3858 -0.0933
38275SOL    HW116832   0.228   0.255   7.498 -0.6483 -1.5758  3.8085
38275SOL    HW216833   0.367   0.196   7.499  0.4873  0.6144 -0.9260
38276SOL     OW16834   7.946   8.295   6.384 -0.1214 -0.0115  0.7053
38276SOL    HW116835   7.996   8.376   6.371  0.0472 -0.0191  1.2722
38276SOL    HW216836   8.013   8.228   6.397 -0.2666  0.0434  1.8510
38277SOL     OW16837   7.242   3.248   6.259 -0.0760 -0.1629 -0.7019
38277SOL    HW116838   7.225   3.264   6.166  1.1294  0.3426 -0.8433
38277SOL    HW216839   7.328   3.207   6.262  0.0559  0.1453  0.2123
38278SOL     OW16840   3.710   3.143   9.647  0.3199  0.2374 -0.3065
38278SOL    HW116841   3.786   3.140   9.589 -0.2141  0.1454 -1.0059
38278SOL    HW216842   3.635   3.122   9.591 -0.6027  3.0103 -0.2765
38279SOL     OW16843   2.742   6.607   0.222 -0.3258  0.1420 -0.0763
38279SOL    HW116844   2.733   6.680   0.161  0.3932 -0.6188 -1.1357
38279SOL    HW216845   2.825   6.624   0.267 -0.6693  0.5082  0.4223
38280SOL     OW16846  10.481   3.264   2.082  0.4094  0.0655  0.0933
38280SOL    HW116847  10.441   3.200   2.140 -1.7398  0.8372 -0.4679
38280SOL    HW216848  10.425   3.341   2.089  1.1792  0.8189 -1.5812
38281SOL     OW16849   9.356   6.539   9.932 -0.1891  0.7047 -0.2523
38281SOL    HW116850   9.451   6.554   9.926 -0.2954  1.0875 -0.9836
38281SOL    HW216851   9.339   6.467   9.872 -0.5826  1.6418 -1.3050
38282SOL     OW16852   6.184   0.658   8.049  0.0711  0.1416 -0.3733
38282SOL    HW116853   6.090   0.643   8.061 -0.2066  1.2584 -1.0113
38282SOL    HW216854   6.215   0.579   8.004 -0.5170 -0.3292  0.0306
38283SOL     OW16855   6.878   4.626   1.541 -0.8362 -0.3393  0.1022
38283SOL    HW116856   6.942   4.696   1.547  0.3842 -1.3593 -0.5450
38283SOL    HW216857   6.878   4.584   1.627  0.5112 -1.2791 -0.3286
38284SOL     OW16858   9.097   6.074   1.590  0.1340 -0.0125  0.6723
38284SOL    HW116859   9.059   5.987   1.583 -0.0993  0.1518 -0.1388
38284SOL    HW216860   9.089   6.112   1.503  0.7110  0.6282  0.8826
38285SOL     OW16861   0.926   3.654   0.045  0.4104  0.0397  0.6173
38285SOL    HW116862   0.879   3.631  -0.036  1.1671  0.8304 -0.0649
38285SOL    HW216863   0.870   3.720   0.086 -0.1976 -0.6889  0.9704
38286SOL     OW16864   8.021   1.225   9.417 -0.2179 -0.0336  0.4665
38286SOL    HW116865   8.068   1.147   9.387 -0.6171 -0.3182  0.5709
38286SOL    HW216866   7.971   1.253   9.340  1.4980  1.3403 -0.2124
38287SOL     OW16867  10.899   4.856   1.044 -0.3712  0.3202 -0.5902
38287SOL    HW116868  10.957   4.790   1.081 -1.0975 -0.9898 -1.6940
38287SOL    HW216869  10.932   4.939   1.078  1.0949 -0.5289  0.1481
38288SOL     OW16870   9.542   3.315   8.317 -0.1668  0.0556  0.1100
38288SOL    HW116871   9.590   3.246   8.363 -0.8089 -1.1462 -0.9719
38288SOL    HW216872   9.573   3.310   8.227  0.0356  1.4508  0.0679
38289SOL     OW16873   2.760   9.940   4.863 -0.6724  0.1276  0.6954
38289SOL    HW116874   2.855   9.930   4.874 -0.9349 -1.7716  1.5639
38289SOL    HW216875   2.750   9.972   4.773  0.6867 -2.7367 -0.5880
38290SOL     OW16876   8.842  10.167   1.692 -0.2039  0.4126  0.2711
38290SOL    HW116877   8.795  10.178   1.775  1.3331  0.1401  1.2192
38290SOL    HW216878   8.864  10.074   1.688  0.4182  0.5683 -0.0513
38291SOL     OW16879   9.546   5.686   4.665 -0.1535 -0.1702  1.5303
38291SOL    HW116880   9.468   5.632   4.657  0.1165 -0.3314 -0.5621
38291SOL    HW216881   9.616   5.632   4.627 -0.0472  1.8878 -1.5591
38292SOL     OW16882   8.797   3.296   4.927 -0.2114 -0.2045  0.4863
38292SOL    HW116883   8.737   3.227   4.900  1.7247 -2.2187  1.0033
38292SOL    HW216884   8.802   3.288   5.022  0.6077  0.1654  0.4834
38293SOL     OW16885   4.626   1.987   4.982 -0.6250 -0.2471  0.4512
38293SOL    HW116886   4.572   1.983   4.903  0.4554 -1.2921 -0.2611
38293SOL    HW216887   4.692   1.918   4.971  0.7781  0.8832  1.3518
38294SOL     OW16888   8.099   5.675  10.482 -0.0031  0.2957 -0.0279
38294SOL    HW116889   8.028   5.733  10.454 -0.4622  0.0195  0.5322
38294SOL    HW216890   8.054   5.601  10.523  0.5995 -0.1246 -0.1235
38295SOL     OW16891   1.171   4.791   0.033 -0.0203  0.1881 -0.3410
38295SOL    HW116892   1.157   4.699   0.011 -1.3229  0.2988 -0.0455
38295SOL    HW216893   1.100   4.837  -0.012  0.3468  0.9912 -0.1108
38296SOL     OW16894   4.971   1.209   8.250 -0.4431  0.3645 -0.2112
38296SOL    HW116895   4.950   1.193   8.159  0.7790 -1.0264 -0.2829
38296SOL    HW216896   5.026   1.288   8.248  1.4169 -0.8659 -0.9866
38297SOL     OW16897   5.655   8.819  10.821  0.2460 -0.0845  0.2216
38297SOL    HW116898   5.638   8.819  10.915 -0.3547  1.1857  0.1361
38297SOL    HW216899   5.670   8.911  10.800 -0.3556 -0.2584 -1.0563
38298SOL     OW16900   9.755   5.002  10.125 -0.0307  0.5655 -0.5463
38298SOL    HW116901   9.729   5.027  10.036 -0.1922  0.9518 -0.3966
38298SOL    HW216902   9.708   5.064  10.181  0.4683  0.6517 -0.2165
38299SOL     OW16903   8.293   1.779   0.903 -0.2621 -0.2046  0.0703
38299SOL    HW116904   8.269   1.686   0.902 -0.3348 -0.1921  0.6368
38299SOL    HW216905   8.209   1.825   0.904 -0.3336 -0.0563 -2.9376
38300SOL     OW16906  10.321   3.011   4.037  0.5156  0.3149 -0.3115
38300SOL    HW116907  10.249   3.061   3.999  0.7329 -0.7504 -2.2168
38300SOL    HW216908  10.280   2.959   4.106 -0.7175 -0.7996 -1.8238
38301SOL     OW16909   6.548   2.408   0.893 -0.0454  0.1954  0.3659
38301SOL    HW116910   6.513   2.402   0.982 -0.4240 -2.2959  0.1398
38301SOL    HW216911   6.636   2.443   0.905  0.8424 -2.2753  2.1135
38302SOL     OW16912   2.688   2.625   0.827  0.5310  0.2376  0.2691
38302SOL    HW116913   2.678   2.662   0.739  2.5377 -1.7599 -0.9027
38302SOL    HW216914   2.732   2.694   0.877 -2.0005  2.0050  0.2867
38303SOL     OW16915   6.286   2.016   8.348 -0.3129  0.1017 -0.1066
38303SOL    HW116916   6.211   2.042   8.400 -1.5938 -1.8461 -0.9089
38303SOL    HW216917   6.255   2.018   8.257  1.4884  2.1424 -0.7844
38304SOL     OW16918  10.249   0.817   7.229 -0.2698 -0.2611  0.0513
38304SOL    HW116919  10.306   0.823   7.306 -1.9032 -0.7786  1.3713
38304SOL    HW216920  10.228   0.724   7.221 -0.4829 -0.1528 -0.7433
38305SOL     OW16921   9.353   1.887   9.752  0.5332  0.7617 -0.0545
38305SOL    HW116922   9.260   1.868   9.766  0.6077  1.9494  2.6163
38305SOL    HW216923   9.382   1.818   9.693 -1.0816 -2.4240  2.5155
38306SOL     OW16924   7.055   0.475   7.946 -0.0309 -0.3998  0.1993
38306SOL    HW116925   6.960   0.474   7.955 -0.0659  2.7248  1.0276
38306SOL    HW216926   7.087   0.426   8.021 -0.9537 -1.0269  0.1995
38307SOL     OW16927  10.292   3.057   5.645 -0.1945 -0.0507 -0.1977
38307SOL    HW116928  10.266   3.026   5.558 -0.4127 -1.0604  0.2113
38307SOL    HW216929  10.264   2.987   5.704  0.0964  0.5540  0.6689
38308SOL     OW16930   2.485   5.810   7.352  0.5025  0.4708  0.5641
38308SOL    HW116931   2.392   5.830   7.341  0.2840 -1.1687 -0.9981
38308SOL    HW216932   2.490   5.764   7.435 -0.3326 -0.6571  0.0187
38309SOL     OW16933   3.247   5.938   1.296  0.0562  0.3523 -0.1442
38309SOL    HW116934   3.172   5.878   1.292 -0.5326  1.0983 -0.6091
38309SOL    HW216935   3.210   6.020   1.327  0.1025  1.5690 -3.0271
38310SOL     OW16936   6.008   4.140   0.567  0.7985  0.0347  0.1277
38310SOL    HW116937   6.101   4.160   0.579  0.6462  0.9162 -0.1175
38310SOL    HW216938   5.994   4.147   0.472  0.6604 -0.9168  0.0685
38311SOL     OW16939   8.082   3.878   8.229 -0.1378 -0.7086  0.0933
38311SOL    HW116940   8.008   3.937   8.215 -1.7279 -2.3136  1.2807
38311SOL    HW216941   8.132   3.918   8.300 -2.3563 -1.6915  2.3598
38312SOL     OW16942   0.898  10.133   2.427 -0.5473  0.2072  0.2088
38312SOL    HW116943   0.891  10.074   2.352  0.0426 -1.4086  1.3744
38312SOL    HW216944   0.974  10.101   2.476  0.2368  2.4051  0.5165
38313SOL     OW16945   9.975   8.733   4.152 -0.4018  0.1347  0.0032
38313SOL    HW116946   9.919   8.807   4.178  0.9208  0.8717  0.8739
38313SOL    HW216947  10.023   8.766   4.076 -0.3801 -0.1032 -0.0842
38314SOL     OW16948   9.591   2.026  10.348  0.0064 -0.4310  0.7101
38314SOL    HW116949   9.587   2.093  10.280  2.5373  0.1505  1.0276
38314SOL    HW216950   9.502   2.020  10.381 -0.9010  0.6096 -1.3626
38315SOL     OW16951   2.827   9.003   7.770  0.2702  0.5309  0.2547
38315SOL    HW116952   2.814   8.963   7.684  0.2091  0.7531  0.1605
38315SOL    HW216953   2.884   9.077   7.754 -0.6620  1.2636  0.2187
38316SOL     OW16954   9.706   8.525   4.599  0.0773  0.1178 -0.0096
38316SOL    HW116955   9.678   8.554   4.687  0.9608  0.1361  0.2758
38316SOL    HW216956   9.664   8.587   4.540  0.7567  1.0966  0.5088
38317SOL     OW16957   9.637   1.575   4.544 -0.6666  0.0206  0.6412
38317SOL    HW116958   9.598   1.524   4.473 -1.6051 -0.2826  1.3529
38317SOL    HW216959   9.628   1.666   4.515  1.5917 -0.1884 -0.9195
38318SOL     OW16960   3.948   3.996   4.809  0.0761 -0.2218 -0.1221
38318SOL    HW116961   3.884   4.022   4.743 -0.6638 -0.8890  0.3116
38318SOL    HW216962   3.927   3.905   4.828 -0.9331  0.4346  2.3390
38319SOL     OW16963   7.472   0.973   9.721  0.4892  0.2950 -0.1518
38319SOL    HW116964   7.443   1.021   9.799  1.0145  1.0694 -0.4134
38319SOL    HW216965   7.540   1.029   9.683  0.6083 -0.3253 -0.8747
38320SOL     OW16966   6.344   5.540   9.386 -0.0608 -0.2655  0.5292
38320SOL    HW116967   6.353   5.501   9.473  1.5107  0.7728  0.8726
38320SOL    HW216968   6.411   5.608   9.384 -1.1915  0.8519 -0.8921
38321SOL     OW16969   5.847   2.145  10.429  0.0257 -0.0307  0.2229
38321SOL    HW116970   5.766   2.143  10.478 -0.4898  0.2540 -0.5973
38321SOL    HW216971   5.883   2.233  10.444 -0.0410 -0.0039  0.2227
38322SOL     OW16972   7.412   5.693   3.110  0.5107 -0.9164  0.2529
38322SOL    HW116973   7.387   5.780   3.139 -1.8164 -1.2122 -0.6700
38322SOL    HW216974   7.370   5.633   3.172 -1.1925 -1.4366 -1.3256
38323SOL     OW16975   0.163   0.653   4.379  0.1437  0.0962  0.3579
38323SOL    HW116976   0.115   0.658   4.462  1.4597 -1.3777  1.2933
38323SOL    HW216977   0.096   0.646   4.312 -0.9962  2.3074  1.1617
38324SOL     OW16978   0.348   7.454   7.540  0.2520 -0.3091 -0.6839
38324SOL    HW116979   0.389   7.537   7.563 -0.5337 -0.1947  0.3847
38324SOL    HW216980   0.268   7.452   7.592 -1.4850 -0.2105 -3.1702
38325SOL     OW16981   9.407   1.332   5.926  0.0422  0.3094 -0.1210
38325SOL    HW116982   9.400   1.361   6.017 -2.0476  1.2342 -0.5261
38325SOL    HW216983   9.419   1.237   5.931 -1.2796  0.1854  1.1086
38326SOL     OW16984   4.523  10.416  10.008  0.1763  0.1209  0.2730
38326SOL    HW116985   4.551  10.412  10.099 -0.6750 -1.2278  0.5202
38326SOL    HW216986   4.428  10.426  10.013  0.2882  1.8678 -0.5042
38327SOL     OW16987   5.627   6.641   9.150 -0.2211  0.0947 -0.2191
38327SOL    HW116988   5.633   6.728   9.111 -0.2516  0.2643  0.1470
38327SOL    HW216989   5.569   6.592   9.092 -0.5850  0.4609 -0.1713
38328SOL     OW16990  10.108   4.485   0.379 -0.3763  0.8150  0.1845
38328SOL    HW116991  10.142   4.563   0.423 -0.1694  0.8568 -0.0473
38328SOL    HW216992  10.115   4.506   0.286  0.5039  0.1615  0.1031
38329SOL     OW16993   9.472   4.093   9.534  0.0492  0.2979 -0.3362
38329SOL    HW116994   9.496   4.000   9.525  0.4302  0.0521  2.4991
38329SOL    HW216995   9.553   4.136   9.562 -0.8675  0.8993  1.4721
38330SOL     OW16996   3.788   2.912   0.746  0.5181 -0.4612  0.0908
38330SOL    HW116997   3.791   2.866   0.830  0.6336 -0.1797  0.2455
38330SOL    HW216998   3.850   2.984   0.757  0.2686 -0.2127 -0.1100
38331SOL     OW16999   4.775   2.094   5.216  0.3509 -0.5311 -0.0781
38331SOL    HW117000   4.861   2.052   5.210  0.9054  0.4534  0.6810
38331SOL    HW217001   4.741   2.090   5.127  2.4522  1.6160 -1.1116
38332SOL     OW17002   3.707   0.628   8.979 -1.0344 -0.5530  0.0492
38332SOL    HW117003   3.686   0.711   9.022  0.4454 -0.6698  1.0655
38332SOL    HW217004   3.736   0.654   8.891  1.3114  0.2433  0.9918
38333SOL     OW17005   2.231   0.122   6.363  0.0198  1.4044 -0.5143
38333SOL    HW117006   2.170   0.129   6.436  1.2681 -0.5879  0.8159
38333SOL    HW217007   2.183   0.074   6.296 -0.4693  1.4598 -0.2068
38334SOL     OW17008   4.543   5.396  10.850  0.3439  0.0748  0.1542
38334SOL    HW117009   4.530   5.485  10.816  1.1208  0.0373 -0.2582
38334SOL    HW217010   4.604   5.406  10.923  1.9663 -0.3246 -1.0993
38335SOL     OW17011   9.439   8.686   5.546 -0.3140 -0.3834 -0.3007
38335SOL    HW117012   9.384   8.756   5.581  0.4592  0.3920 -0.6151
38335SOL    HW217013   9.376   8.622   5.511 -1.1031 -0.8936  1.8686
38336SOL     OW17014   8.028  10.166   5.939 -0.0603 -0.0960  0.0376
38336SOL    HW117015   7.996  10.124   6.018 -0.6577  0.0789 -0.1084
38336SOL    HW217016   8.033  10.259   5.962  0.2161 -0.1018  0.0130
38337SOL     OW17017   2.542   7.034   7.666  0.0856  0.1582  0.3893
38337SOL    HW117018   2.635   7.013   7.665  0.4785  1.3321  3.1521
38337SOL    HW217019   2.498   6.949   7.667  1.2895 -0.5057  2.3907
38338SOL     OW17020   6.583   3.872   2.513  0.6252  0.5706 -0.1095
38338SOL    HW117021   6.488   3.870   2.506  0.7461 -0.1196 -2.1620
38338SOL    HW217022   6.600   3.908   2.600 -1.4956  0.8140  0.2504
38339SOL     OW17023   8.672   7.937   7.367  0.6400  0.2509 -0.4211
38339SOL    HW117024   8.612   7.863   7.360  0.6898  0.2215 -0.5324
38339SOL    HW217025   8.683   7.950   7.461 -1.6808  1.9993 -0.2967
38340SOL     OW17026   2.503   1.968   3.232  0.9275 -0.4363  0.3791
38340SOL    HW117027   2.563   1.922   3.173 -0.2298  0.5242 -1.6440
38340SOL    HW217028   2.558   2.036   3.273  1.7280 -1.0338  0.3222
38341SOL     OW17029   8.747   6.140   8.097 -0.0108 -0.5168 -0.1155
38341SOL    HW117030   8.754   6.228   8.133  1.8375 -0.0592 -1.4201
38341SOL    HW217031   8.663   6.139   8.051  0.1518  0.7583 -0.4932
38342SOL     OW17032   0.902   3.787   7.623 -0.1420 -0.2589  0.2401
38342SOL    HW117033   0.942   3.792   7.710 -0.1725 -1.4783  0.3477
38342SOL    HW217034   0.813   3.820   7.635 -1.2450 -3.3148  1.4498
38343SOL     OW17035   8.877   1.778  10.063 -0.3533 -0.0272 -0.2307
38343SOL    HW117036   8.784   1.772  10.041 -0.4008 -2.2344  0.3633
38343SOL    HW217037   8.919   1.804   9.981 -1.4627  0.9446 -0.5207
38344SOL     OW17038   2.107   9.643   4.597 -0.3540 -0.4191 -0.2763
38344SOL    HW117039   2.161   9.627   4.674 -0.2406 -0.5658 -0.3886
38344SOL    HW217040   2.165   9.688   4.535 -0.4300 -0.3498 -0.2981
38345SOL     OW17041   0.048   9.092   3.164  0.2656  0.1611  0.1005
38345SOL    HW117042   0.076   9.044   3.242  1.8885  1.1921  0.2001
38345SOL    HW217043   0.048   9.184   3.191 -1.0141  0.3785 -0.5968
38346SOL     OW17044  11.064   1.805   9.826 -0.6618  0.0546 -0.4801
38346SOL    HW117045  11.088   1.769   9.912  0.1744 -0.8378 -1.0657
38346SOL    HW217046  11.037   1.729   9.775 -0.4631  0.4788 -1.2317
38347SOL     OW17047   3.517   9.928   3.878 -0.1161 -0.0294  0.4316
38347SOL    HW117048   3.499   9.844   3.835  0.7089  1.0881 -2.3232
38347SOL    HW217049   3.449   9.987   3.845  1.5867  1.3164 -0.8867
38348SOL     OW17050   9.175   7.563   8.350  0.1626 -0.2613  0.1554
38348SOL    HW117051   9.198   7.482   8.306 -1.3862 -1.4147  1.3470
38348SOL    HW217052   9.258   7.597   8.384  1.1058 -0.2894 -1.9843
38349SOL     OW17053   8.856   4.068   9.631  0.8029 -0.5026 -0.2377
38349SOL    HW117054   8.782   4.037   9.579 -0.0854  1.7446 -0.4328
38349SOL    HW217055   8.873   4.156   9.597  0.7795  0.6945  2.6094
38350SOL     OW17056   4.835   2.559   1.111 -0.3890 -0.7558  0.3428
38350SOL    HW117057   4.782   2.639   1.109 -1.3810 -1.3111  2.0315
38350SOL    HW217058   4.771   2.488   1.114  0.3261 -1.4240  3.5063
38351SOL     OW17059   1.268   8.990   9.229 -0.4624  0.6947 -0.3030
38351SOL    HW117060   1.355   9.023   9.210 -0.3252 -0.0154 -0.9782
38351SOL    HW217061   1.268   8.900   9.195 -1.0665  0.2606  0.7753
38352SOL     OW17062   8.652   8.107  10.103 -0.4335  0.4362 -0.1842
38352SOL    HW117063   8.658   8.054  10.182 -1.6126 -0.8707 -0.9213
38352SOL    HW217064   8.688   8.192  10.128  1.9918 -0.8143  0.9146
38353SOL     OW17065   9.975   1.618  10.709  0.0841  0.5365 -0.2644
38353SOL    HW117066  10.049   1.657  10.663 -0.4824  1.2367 -0.6107
38353SOL    HW217067   9.942   1.551  10.650 -0.7484  1.5493 -0.9962
38354SOL     OW17068   9.828   7.812  10.954 -0.1033  0.7587 -0.4041
38354SOL    HW117069   9.901   7.754  10.972 -0.7932 -0.0539 -0.1596
38354SOL    HW217070   9.793   7.782  10.870 -2.9869 -1.9744  1.5098
38355SOL     OW17071   0.581   9.233   7.488 -0.0023 -0.2157  0.5564
38355SOL    HW117072   0.628   9.182   7.421  0.0490  0.6106 -0.0541
38355SOL    HW217073   0.565   9.317   7.446  0.7903  0.6289  1.8984
38356SOL     OW17074   0.801   3.262   1.811 -0.3076  0.0270 -0.2778
38356SOL    HW117075   0.867   3.201   1.777 -0.4482 -1.0729  1.2801
38356SOL    HW217076   0.759   3.213   1.882 -3.1684  0.4924 -1.5268
38357SOL     OW17077   8.998   7.426   1.377 -0.3359  0.1372 -0.2130
38357SOL    HW117078   8.929   7.489   1.358  0.1447  0.4942 -0.8048
38357SOL    HW217079   8.971   7.345   1.333 -0.3634  0.2833 -0.4660
38358SOL     OW17080   0.233   7.858   3.903 -0.0069  0.5021 -0.1730
38358SOL    HW117081   0.139   7.841   3.895 -0.0500 -0.1958  1.4046
38358SOL    HW217082   0.271   7.774   3.929  0.8601  1.0761  0.4947
38359SOL     OW17083   7.677   1.127   6.413  0.3539  0.3664  0.4539
38359SOL    HW117084   7.650   1.215   6.440  0.8619  0.2720  1.3185
38359SOL    HW217085   7.764   1.116   6.451  1.8157  0.7718 -2.5416
38360SOL     OW17086  10.846   5.640   8.929 -0.0182  0.6022 -0.0241
38360SOL    HW117087  10.854   5.635   9.024 -1.3140  0.0904  0.0769
38360SOL    HW217088  10.852   5.549   8.899  2.0403  0.8806 -0.6193
38361SOL     OW17089   4.772   0.942   7.975 -0.1135  0.1824  0.1128
38361SOL    HW117090   4.710   1.010   8.003 -0.2188 -0.0599  0.4739
38361SOL    HW217091   4.786   0.959   7.882 -1.7599 -0.5785 -0.3051
38362SOL     OW17092   9.021   8.801   1.087 -0.5178  0.1233  0.2250
38362SOL    HW117093   8.996   8.708   1.088 -0.3745  0.0567 -1.2268
38362SOL    HW217094   8.941   8.847   1.060 -0.0390  0.2285 -1.0349
38363SOL     OW17095  10.669   6.108   5.528 -0.1463 -0.1247 -0.0742
38363SOL    HW117096  10.720   6.088   5.607 -0.3603 -3.0548 -0.5710
38363SOL    HW217097  10.735   6.138   5.465  0.4519 -0.4291  0.3912
38364SOL     OW17098   5.977   5.249   6.295  0.1144  0.2980  0.3717
38364SOL    HW117099   6.034   5.261   6.220  0.6134 -0.4740  0.6191
38364SOL    HW217100   6.023   5.292   6.367  0.3543 -0.2517  0.5530
38365SOL     OW17101   8.468   7.324  10.419  0.6088  0.2576  0.0776
38365SOL    HW117102   8.556   7.304  10.451 -0.0780  0.8058  2.5122
38365SOL    HW217103   8.464   7.419  10.418 -0.0759  0.2418  0.4366
38366SOL     OW17104   0.509   5.910   7.273 -0.1787  0.7584  0.1558
38366SOL    HW117105   0.538   5.960   7.349  0.9305 -0.0547  0.2973
38366SOL    HW217106   0.560   5.945   7.200 -0.4937  0.8516 -0.0191
38367SOL     OW17107   3.181   4.688   2.017 -0.2291 -0.0820  0.5716
38367SOL    HW117108   3.248   4.685   2.086 -0.9236 -2.4279  1.2476
38367SOL    HW217109   3.204   4.764   1.964  1.3286  0.8137  2.3989
38368SOL     OW17110   7.349   8.039   6.783 -0.7458  0.2642 -0.3376
38368SOL    HW117111   7.277   8.009   6.728  0.8017 -2.0711 -1.2227
38368SOL    HW217112   7.427   8.027   6.729  0.6145 -0.0339  1.5941
38369SOL     OW17113  10.295   3.844   9.394 -0.0363  0.0113  0.3787
38369SOL    HW117114  10.218   3.900   9.401  0.4119  0.6663  0.1575
38369SOL    HW217115  10.340   3.875   9.315  0.2638 -0.6026  0.3013
38370SOL     OW17116   0.905   7.808   6.112 -0.6677  0.1793 -0.0477
38370SOL    HW117117   0.942   7.756   6.184  0.0041  0.3887 -0.2347
38370SOL    HW217118   0.813   7.781   6.108 -0.1854 -1.4851 -0.5702
38371SOL     OW17119   2.074   9.417   6.416 -0.0350  0.6099  0.1826
38371SOL    HW117120   2.006   9.364   6.374 -0.2604  0.2503  0.9765
38371SOL    HW217121   2.154   9.365   6.407  0.2407  1.2228 -1.1231
38372SOL     OW17122   9.794   3.814   3.760 -0.3721  0.0986  0.1271
38372SOL    HW117123   9.862   3.879   3.742 -1.2167  0.9706 -0.0488
38372SOL    HW217124   9.799   3.752   3.687  0.0761  0.2927 -0.0082
38373SOL     OW17125   6.568   9.246  10.754 -0.7445 -0.9576 -0.2827
38373SOL    HW117126   6.623   9.314  10.715 -1.3729  0.9870  1.9629
38373SOL    HW217127   6.480   9.265  10.722 -0.9235 -0.6977  0.3567
38374SOL     OW17128   8.264   2.620   6.213 -0.1507 -0.3449  0.3693
38374SOL    HW117129   8.307   2.693   6.259 -0.0247 -0.5828  0.6266
38374SOL    HW217130   8.328   2.549   6.215 -0.7835 -0.9072  1.2916
38375SOL     OW17131   0.607   0.791   0.399  0.1022 -0.2608  0.1315
38375SOL    HW117132   0.583   0.795   0.306 -0.5239 -0.8300  0.2616
38375SOL    HW217133   0.695   0.754   0.399  0.2732  0.1289 -0.2538
38376SOL     OW17134   2.183   5.967   5.059  0.2502 -0.2002 -0.0733
38376SOL    HW117135   2.200   5.886   5.108 -0.7004 -0.2747  0.1650
38376SOL    HW217136   2.137   6.023   5.122 -0.4530 -0.0672 -0.6889
38377SOL     OW17137   7.706   5.841   3.053  0.2698 -0.2379 -0.0252
38377SOL    HW117138   7.791   5.810   3.085 -0.0211 -0.7462  0.2779
38377SOL    HW217139   7.653   5.761   3.046 -0.1481  0.0616 -0.3182
38378SOL     OW17140   5.164   5.959   9.222  0.1657  0.3043  0.3702
38378SOL    HW117141   5.129   5.955   9.311  0.7076 -1.6451  0.5417
38378SOL    HW217142   5.253   5.992   9.233  0.3544 -0.2632  0.6197
38379SOL     OW17143   8.293   5.881   6.384  0.5366  0.5748  0.2051
38379SOL    HW117144   8.365   5.921   6.335  0.1004 -0.6963 -1.5604
38379SOL    HW217145   8.216   5.934   6.361  0.4093  0.2360 -0.1549
38380SOL     OW17146   8.531   7.106   7.270 -0.5701 -0.2948 -0.5884
38380SOL    HW117147   8.477   7.157   7.331 -0.1007 -0.7066  0.1913
38380SOL    HW217148   8.493   7.124   7.184 -1.4975 -0.0062 -0.1392
38381SOL     OW17149   5.456   3.698   1.437 -0.3923 -0.3604  0.2101
38381SOL    HW117150   5.492   3.721   1.523 -0.2007 -2.2178  0.6797
38381SOL    HW217151   5.384   3.638   1.457 -0.0010 -1.2446 -0.9289
38382SOL     OW17152   9.974   3.387   5.457 -0.1514  0.5683 -0.3646
38382SOL    HW117153  10.038   3.410   5.525 -1.4953  2.8357  0.2225
38382SOL    HW217154   9.891   3.382   5.503 -0.5532 -1.8713 -1.2044
38383SOL     OW17155  10.522   9.984   4.376 -0.0189 -0.1138  0.7630
38383SOL    HW117156  10.533  10.040   4.453  0.7141  1.3098 -0.3539
38383SOL    HW217157  10.570  10.028   4.306 -3.9916  0.8591 -1.6704
38384SOL     OW17158   6.722   0.807   6.773  0.2606  0.0626  0.1237
38384SOL    HW117159   6.726   0.860   6.853  0.8244  0.6922 -0.3163
38384SOL    HW217160   6.664   0.856   6.715 -2.2496 -1.6226  1.0125
38385SOL     OW17161   6.827   5.040  10.716 -0.3336  0.2971  0.3134
38385SOL    HW117162   6.781   5.114  10.754 -2.0012 -0.7290  0.4174
38385SOL    HW217163   6.861   4.991  10.791  0.0623  0.5274  0.2835
38386SOL     OW17164   5.194  10.074   7.448  0.0543  0.2482  0.4913
38386SOL    HW117165   5.119  10.025   7.481 -0.5971  0.4181 -0.6616
38386SOL    HW217166   5.190  10.158   7.494 -0.7256  0.4183  0.1316
38387SOL     OW17167   8.472   3.258   8.185 -0.6515 -0.4373  0.6351
38387SOL    HW117168   8.503   3.168   8.191 -0.2267 -0.2800  0.8954
38387SOL    HW217169   8.399   3.255   8.123  2.1700 -0.2301 -3.0103
38388SOL     OW17170   9.384   8.570   1.511 -0.1211 -0.4030  0.3734
38388SOL    HW117171   9.320   8.630   1.549 -0.4926  0.0321 -0.9022
38388SOL    HW217172   9.466   8.592   1.555 -0.8543 -1.1613  2.2487
38389SOL     OW17173  10.542   0.776   5.809 -0.1174 -0.1378 -0.1146
38389SOL    HW117174  10.506   0.808   5.726  0.1187  0.7059  0.1037
38389SOL    HW217175  10.556   0.855   5.861  5.8932  0.2483 -1.6244
38390SOL     OW17176   5.309   2.848   9.346  1.0135 -0.2135  0.5770
38390SOL    HW117177   5.382   2.904   9.320  1.7024 -1.3172  0.0366
38390SOL    HW217178   5.272   2.818   9.263 -0.2010  0.4936  0.8422
38391SOL     OW17179   0.913   5.456   0.441  0.4221  0.1682  0.2801
38391SOL    HW117180   0.837   5.511   0.462 -0.1708 -0.9698  1.2099
38391SOL    HW217181   0.948   5.494   0.360 -0.0030  1.8519  0.8536
38392SOL     OW17182   7.635   5.127   9.019 -0.1008 -0.0852  0.2752
38392SOL    HW117183   7.689   5.120   9.098 -0.5034 -0.6872  0.5025
38392SOL    HW217184   7.556   5.174   9.048 -1.2028 -2.1127  0.7592
38393SOL     OW17185   9.154   3.805   9.494 -0.3478  0.4021 -0.3708
38393SOL    HW117186   9.071   3.782   9.534 -0.4496 -0.6858 -1.1509
38393SOL    HW217187   9.220   3.757   9.545 -0.5887 -2.1156 -2.2053
38394SOL     OW17188   5.744   3.883   3.090  0.3156  0.5446 -0.3839
38394SOL    HW117189   5.839   3.882   3.102  0.3327  3.3575  0.3093
38394SOL    HW217190   5.721   3.791   3.075  3.0257 -0.3165  0.1916
38395SOL     OW17191   3.189   4.265   8.903  0.8497 -0.1609  0.4697
38395SOL    HW117192   3.188   4.191   8.963 -1.5520 -2.0252 -1.5983
38395SOL    HW217193   3.261   4.247   8.843  1.4195  0.1671  1.0495
38396SOL     OW17194   0.374  10.741   8.790  0.2329 -0.0282  0.8677
38396SOL    HW117195   0.466  10.717   8.802  0.5647  1.1684  0.8878
38396SOL    HW217196   0.361  10.743   8.695  0.4880  0.6733  0.8402
38397SOL     OW17197   8.634   2.246   0.094  0.2766  0.2564  0.3165
38397SOL    HW117198   8.728   2.233   0.105  0.4857 -0.4933 -1.8147
38397SOL    HW217199   8.601   2.160   0.066 -0.8757  0.7496  0.0865
38398SOL     OW17200  10.799   4.518   9.995 -0.1102  0.6972 -0.1307
38398SOL    HW117201  10.777   4.559   9.911  1.9420 -1.4260 -1.8602
38398SOL    HW217202  10.763   4.429   9.989 -0.4570  0.6915  1.5252
38399SOL     OW17203   9.465   6.102   7.713  0.2842 -0.7974  0.6313
38399SOL    HW117204   9.512   6.180   7.744 -0.7230  0.2440 -0.3865
38399SOL    HW217205   9.533   6.050   7.669  0.7201  0.1409  0.1668
38400SOL     OW17206   2.012   4.863   4.544 -0.6387 -0.8371 -0.5387
38400SOL    HW117207   1.934   4.823   4.504  0.0854 -0.8827 -1.9842
38400SOL    HW217208   2.059   4.901   4.470  1.6318 -2.3606  0.0293
38401SOL     OW17209   8.019   3.611   1.833  0.2757  0.3304  0.4199
38401SOL    HW117210   7.923   3.608   1.840  0.3543  0.5524  2.0751
38401SOL    HW217211   8.050   3.603   1.923  1.8081  0.8384 -0.0266
38402SOL     OW17212   9.091   3.753   9.158  0.3209 -0.5091  0.0195
38402SOL    HW117213   9.059   3.698   9.087  1.6911 -1.6743  0.2552
38402SOL    HW217214   9.138   3.824   9.115  0.8809 -1.0406 -0.2588
38403SOL     OW17215   8.354   2.039   4.684 -0.2546  0.3430  0.1955
38403SOL    HW117216   8.392   2.004   4.603  0.5753  2.3403 -0.3533
38403SOL    HW217217   8.427   2.085   4.726 -1.2457  1.3330  0.8846
38404SOL     OW17218   4.028   5.860   2.335  0.2047 -0.1287 -0.1978
38404SOL    HW117219   4.110   5.840   2.380  0.6870 -0.6301 -1.2588
38404SOL    HW217220   4.042   5.947   2.297 -0.2123  0.3069  0.6229
38405SOL     OW17221   0.641   4.338   2.339  0.1576 -0.0798 -0.3474
38405SOL    HW117222   0.719   4.315   2.287  0.7510  0.0580  0.4573
38405SOL    HW217223   0.568   4.302   2.289  0.8584 -1.5899 -0.3523
38406SOL     OW17224  11.049   4.144  10.115 -0.3878  0.3168  0.3589
38406SOL    HW117225  11.002   4.147  10.031 -0.8273 -0.0812  0.5864
38406SOL    HW217226  11.074   4.235  10.131 -0.5704  0.4456 -0.0552
38407SOL     OW17227   7.422   1.584   7.843 -0.4644 -0.4038 -0.4138
38407SOL    HW117228   7.342   1.635   7.831 -0.6000 -0.8072 -1.2866
38407SOL    HW217229   7.457   1.614   7.927 -1.2300  0.1801 -0.2916
38408SOL     OW17230   8.748   6.725   4.133  0.0065 -0.1070  0.4459
38408SOL    HW117231   8.664   6.681   4.142 -0.0289  0.1117  1.3100
38408SOL    HW217232   8.790   6.714   4.218  0.3754  0.7464  0.3879
38409SOL     OW17233   7.845   1.973   0.970  0.2349  0.6063  0.3144
38409SOL    HW117234   7.789   1.898   0.948  1.6827 -0.5010  0.2623
38409SOL    HW217235   7.926   1.956   0.924  0.7963  1.9379  0.7756
38410SOL     OW17236   9.194   8.401   4.641 -0.3823 -0.3958 -0.3793
38410SOL    HW117237   9.245   8.394   4.722 -1.8481  0.0958  0.6323
38410SOL    HW217238   9.259   8.419   4.573  0.8923 -0.8977  0.6607
38411SOL     OW17239   9.756   9.977   6.339  0.1582 -0.1195 -0.3607
38411SOL    HW117240   9.825   9.967   6.404 -1.3202 -0.1522  1.2885
38411SOL    HW217241   9.741  10.072   6.334 -0.0897 -0.1506 -0.2429
38412SOL     OW17242   3.808   8.355   0.997 -0.3878  0.2400  0.1091
38412SOL    HW117243   3.840   8.445   0.991 -1.6093  0.6588 -0.4183
38412SOL    HW217244   3.796   8.339   1.091 -0.7473  0.8432  0.1691
38413SOL     OW17245   5.483   1.104   7.008  0.2934 -0.3174 -0.6645
38413SOL    HW117246   5.468   1.193   6.978 -0.1438 -0.2033 -0.1313
38413SOL    HW217247   5.569   1.080   6.972  0.4754  0.3645 -0.6924
38414SOL     OW17248   3.572   1.812   0.772 -0.6694 -0.2230 -0.5728
38414SOL    HW117249   3.620   1.814   0.690 -0.8602 -1.6865 -0.7408
38414SOL    HW217250   3.636   1.786   0.838 -0.9282 -0.8860 -0.5770
38415SOL     OW17251   2.208   5.942   7.453 -0.3396  0.8512 -0.1196
38415SOL    HW117252   2.182   5.953   7.545  2.3717 -0.8563  0.9732
38415SOL    HW217253   2.241   6.029   7.428  2.6412  0.4964  1.9627
38416SOL     OW17254   6.967   7.099   4.175  0.0169 -0.5243 -0.2307
38416SOL    HW117255   6.937   7.012   4.201 -1.2139 -0.4743 -1.3409
38416SOL    HW217256   7.044   7.116   4.230 -1.1348 -1.2880  1.7341
38417SOL     OW17257   2.916   4.801   1.655  0.1155  0.0833  0.1429
38417SOL    HW117258   2.901   4.865   1.725  1.6188  1.4424 -0.7009
38417SOL    HW217259   2.854   4.825   1.586  0.2069  0.2091  0.1033
38418SOL     OW17260   1.231   8.257   8.657 -0.0817 -0.5479  0.1035
38418SOL    HW117261   1.291   8.329   8.638  0.2184 -0.8313 -0.0461
38418SOL    HW217262   1.146   8.287   8.625 -0.1208  0.0521  0.7427
38419SOL     OW17263  10.203   1.144   0.665  0.9228  0.0297  0.0548
38419SOL    HW117264  10.259   1.205   0.712  1.1428  0.2960 -0.5408
38419SOL    HW217265  10.263   1.093   0.610  0.5320  0.9229 -1.2660
38420SOL     OW17266   2.281   2.290   6.782  0.2454 -0.3625  0.7896
38420SOL    HW117267   2.249   2.222   6.723  0.2248  0.3111 -0.0023
38420SOL    HW217268   2.357   2.251   6.825  0.9056 -0.5237 -0.4702
38421SOL     OW17269   8.860   5.016   7.259 -0.7091  0.2725  0.0841
38421SOL    HW117270   8.932   5.015   7.322 -2.3455  2.6933  2.1881
38421SOL    HW217271   8.903   5.035   7.175  1.1832  0.9935  1.1323
38422SOL     OW17272   9.401   4.680   0.845 -0.4648  0.9693 -0.3123
38422SOL    HW117273   9.330   4.662   0.906  0.7282 -0.8132  0.6471
38422SOL    HW217274   9.450   4.752   0.885 -0.0049  0.1711  0.5959
38423SOL     OW17275   7.949   8.752   4.850  0.0939  0.1064 -0.4454
38423SOL    HW117276   8.038   8.718   4.843 -0.5833 -1.9943  0.2558
38423SOL    HW217277   7.948   8.828   4.793  2.6351  0.8745  0.3970
38424SOL     OW17278   9.031   3.648   1.118 -0.2368 -0.0101  0.6948
38424SOL    HW117279   9.016   3.578   1.182 -1.7401 -0.4873 -0.1290
38424SOL    HW217280   8.966   3.633   1.050  2.0763 -0.2918 -1.6344
38425SOL     OW17281   2.868   6.237   0.070  0.1901  0.1362 -0.1245
38425SOL    HW117282   2.775   6.253   0.050 -0.9137 -4.1924  0.5538
38425SOL    HW217283   2.908   6.219  -0.015 -0.1807 -0.3365 -0.2039
38426SOL     OW17284   1.231   3.556   0.417 -0.4589  0.8109 -0.5974
38426SOL    HW117285   1.174   3.626   0.447 -0.2219  0.4571  0.7431
38426SOL    HW217286   1.307   3.601   0.379 -0.1350  1.3004  0.5837
38427SOL     OW17287   8.318   5.818  10.399  0.2116  0.5374 -0.1213
38427SOL    HW117288   8.227   5.787  10.397 -0.2064  1.4807  1.7580
38427SOL    HW217289   8.370   5.743  10.371 -1.1606  0.1227 -1.6944
38428SOL     OW17290   3.780   3.140   5.016  0.0187 -0.0839 -0.2693
38428SOL    HW117291   3.717   3.184   4.959 -0.8011 -2.4352 -1.2680
38428SOL    HW217292   3.727   3.099   5.084  0.7971  0.6181  0.7980
38429SOL     OW17293   4.427   2.445   0.113  0.0425  0.1977  0.5149
38429SOL    HW117294   4.470   2.463   0.029  0.1470  0.6429  0.6601
38429SOL    HW217295   4.496   2.457   0.178 -0.3061  0.9644  0.7567
38430SOL     OW17296   2.832   0.665   9.511  0.1403  0.1873 -0.3068
38430SOL    HW117297   2.788   0.750   9.512 -1.0362 -0.3752 -0.9558
38430SOL    HW217298   2.913   0.679   9.558  0.0504  1.7121 -0.5494
38431SOL     OW17299   6.791   6.216   3.616  0.1787  0.5689  0.9690
38431SOL    HW117300   6.708   6.211   3.569 -0.1360  1.4395  1.3997
38431SOL    HW217301   6.771   6.180   3.703  0.5200 -0.1785  0.7410
38432SOL     OW17302   6.822   3.809  10.560  0.4695  0.0877 -0.5669
38432SOL    HW117303   6.913   3.835  10.546  0.6441  1.0071  1.7770
38432SOL    HW217304   6.819   3.782  10.652 -1.4685 -0.7216 -0.8239
38433SOL     OW17305   8.352   0.424  11.098 -0.6100  0.0947  0.1606
38433SOL    HW117306   8.300   0.400  11.175 -0.1578  0.0665  0.4565
38433SOL    HW217307   8.369   0.340  11.055  1.0187 -0.1684  1.2259
38434SOL     OW17308   9.808   0.546   1.366  0.0374  0.2327  0.3158
38434SOL    HW117309   9.899   0.551   1.398  0.4260 -0.7059 -0.6007
38434SOL    HW217310   9.813   0.571   1.274 -0.4467 -0.9167 -0.0407
38435SOL     OW17311   0.191   2.944   8.237  0.1103 -0.4407  0.1679
38435SOL    HW117312   0.144   2.991   8.307 -2.9061 -0.0402 -1.9066
38435SOL    HW217313   0.208   3.012   8.171 -1.7236 -1.6391 -1.6340
38436SOL     OW17314   0.086   0.697   7.085 -0.0114 -0.5570  0.1764
38436SOL    HW117315   0.099   0.781   7.129 -1.2919  0.0059 -0.4616
38436SOL    HW217316   0.157   0.692   7.021 -0.6970  0.7076 -0.7288
38437SOL     OW17317   8.851   4.184   0.221 -0.1676 -0.1408  0.2157
38437SOL    HW117318   8.920   4.176   0.287  0.7376  1.2159 -0.5271
38437SOL    HW217319   8.770   4.172   0.270  0.2924  3.3936  2.1647
38438SOL     OW17320   0.101   1.191   6.651  0.2399 -0.1383 -0.1363
38438SOL    HW117321   0.122   1.274   6.693  1.5910  1.9909 -4.3807
38438SOL    HW217322   0.008   1.198   6.629  0.4416  0.4737 -0.8265
38439SOL     OW17323   8.127  10.889   6.096  0.2029  0.2340  0.3828
38439SOL    HW117324   8.041  10.861   6.063 -0.4898  0.3580  1.9979
38439SOL    HW217325   8.155  10.817   6.152  1.2558  0.1321 -0.2438
38440SOL     OW17326   4.519   0.693   6.061 -0.1890  0.4324 -0.2524
38440SOL    HW117327   4.520   0.598   6.073  0.4400  0.2819 -1.3827
38440SOL    HW217328   4.608   0.721   6.082 -0.1491  0.6633 -0.7300
38441SOL     OW17329   7.791   0.933   9.842 -0.4687 -0.3124  0.1473
38441SOL    HW117330   7.761   1.006   9.788 -0.4787 -0.8946 -0.6635
38441SOL    HW217331   7.851   0.884   9.785  1.7071  0.5654  1.5887
38442SOL     OW17332   8.756   1.349  10.547  0.1758 -0.2284 -0.6078
38442SOL    HW117333   8.693   1.298  10.497 -1.2785  0.1753  0.7046
38442SOL    HW217334   8.786   1.289  10.616  0.6730 -0.1874 -0.7836
38443SOL     OW17335   1.972   1.916   3.049  0.2627  0.1440 -0.7033
38443SOL    HW117336   1.966   1.969   3.129  0.1049 -0.0612 -0.5787
38443SOL    HW217337   2.058   1.937   3.013  0.4613  0.0105 -0.3142
38444SOL     OW17338   5.237   4.030   9.499 -0.9053 -0.5275 -0.1720
38444SOL    HW117339   5.300   4.099   9.477 -0.3062 -1.5540 -1.9187
38444SOL    HW217340   5.287   3.968   9.552 -0.7478 -0.7772 -0.6034
38445SOL     OW17341   8.016   1.763   8.398 -0.4783  0.7461 -0.3044
38445SOL    HW117342   7.935   1.715   8.412  0.4153 -0.4313  1.2204
38445SOL    HW217343   8.021   1.774   8.303 -2.3912  0.8609 -0.4332
38446SOL     OW17344   8.012   0.194  10.220 -0.8941  0.2457 -0.2557
38446SOL    HW117345   8.005   0.172  10.127  0.4877 -0.7325 -0.1652
38446SOL    HW217346   8.050   0.116  10.260  2.0037  1.8837  0.4863
38447SOL     OW17347   7.572   6.036   6.741  0.0015  0.3936  0.0464
38447SOL    HW117348   7.578   6.078   6.655  0.6066 -0.5875 -0.4087
38447SOL    HW217349   7.487   6.064   6.775 -0.6124  0.1695 -1.2248
38448SOL     OW17350   6.138   9.608   6.760 -0.0606 -0.5183 -0.1444
38448SOL    HW117351   6.221   9.591   6.716  0.0050 -0.7235  0.0558
38448SOL    HW217352   6.093   9.524   6.760 -0.4413 -0.3201 -0.6028
38449SOL     OW17353  10.775   0.891   3.426  0.2861  0.3269  0.7749
38449SOL    HW117354  10.789   0.805   3.387  0.6058 -0.7453  3.0895
38449SOL    HW217355  10.679   0.899   3.433  0.2611 -1.0940  2.9922
38450SOL     OW17356   9.276  10.328   0.128  0.4207  0.3065 -0.4664
38450SOL    HW117357   9.234  10.354   0.046  0.4825 -0.5343 -0.7789
38450SOL    HW217358   9.239  10.386   0.194  0.2410  0.8791 -1.0619
38451SOL     OW17359   9.338   8.178   0.355  0.3162  0.4773  0.0913
38451SOL    HW117360   9.397   8.253   0.351  1.0859 -0.1523 -0.9448
38451SOL    HW217361   9.252   8.217   0.372  0.7417  1.5643 -0.1132
38452SOL     OW17362   4.367   1.135   1.114 -0.7946 -0.0201  0.3655
38452SOL    HW117363   4.341   1.227   1.110  0.0580  0.1932 -0.6548
38452SOL    HW217364   4.456   1.134   1.077 -0.6340 -1.1942  0.7477
38453SOL     OW17365   8.357   1.820  10.249  0.4248 -0.4345  0.2901
38453SOL    HW117366   8.364   1.730  10.215  0.0557 -0.9444  1.4970
38453SOL    HW217367   8.267   1.826  10.282  0.2105  0.6389 -0.4478
38454SOL     OW17368  10.299   1.693   1.749 -0.5981  0.2620 -0.3224
38454SOL    HW117369  10.353   1.674   1.826 -0.7767  1.6767  0.1772
38454SOL    HW217370  10.353   1.666   1.675  0.3675  0.6507  0.2163
38455SOL     OW17371   9.655   1.287   7.442  0.1866  0.5769  0.6056
38455SOL    HW117372   9.707   1.347   7.495 -1.6722  3.1333 -0.2773
38455SOL    HW217373   9.665   1.318   7.352  3.4195 -3.7617 -0.9151
38456SOL     OW17374   1.930   3.283   9.063 -0.1589  0.0008 -0.1695
38456SOL    HW117375   1.994   3.215   9.085  0.4804  0.4718 -0.5344
38456SOL    HW217376   1.849   3.235   9.047 -0.2323 -0.5053  1.5004
38457SOL     OW17377   2.758   3.420   7.458  0.7778  0.2250 -0.1069
38457SOL    HW117378   2.715   3.446   7.377  1.0076 -0.0819 -0.3329
38457SOL    HW217379   2.851   3.415   7.436  0.7278 -1.0101 -0.1544
38458SOL     OW17380   6.360  10.275   5.391  0.0143 -0.5873  0.3565
38458SOL    HW117381   6.361  10.250   5.483  1.4287 -0.9166  0.2629
38458SOL    HW217382   6.328  10.366   5.391 -0.7947 -0.8580  1.0748
38459SOL     OW17383  10.038   4.396   8.333 -0.4825 -0.0406  0.2321
38459SOL    HW117384  10.102   4.333   8.366 -0.0554  0.6258  0.7150
38459SOL    HW217385   9.953   4.358   8.355 -0.2333 -0.4421  0.5172
38460SOL     OW17386   7.652   5.527   5.867 -0.3453 -0.1572 -0.2461
38460SOL    HW117387   7.660   5.471   5.790  0.7909 -0.7991  0.2929
38460SOL    HW217388   7.630   5.466   5.938  0.9909  0.0158  0.3662
38461SOL     OW17389   8.345   1.101   0.335  0.5572  0.0486  0.4781
38461SOL    HW117390   8.278   1.163   0.365 -0.0790 -0.5133  0.2271
38461SOL    HW217391   8.336   1.099   0.240 -1.8521 -3.0580  0.6262
38462SOL     OW17392   9.471   6.328  10.618  0.0264 -0.0253  0.8919
38462SOL    HW117393   9.447   6.252  10.564 -1.5654 -0.5925  2.3106
38462SOL    HW217394   9.554   6.303  10.658 -0.2992 -0.8911  1.0570
38463SOL     OW17395   1.276   8.576   5.814  0.1989  0.3204  0.3645
38463SOL    HW117396   1.223   8.522   5.872  0.0709  0.2217  0.1549
38463SOL    HW217397   1.239   8.562   5.727 -0.3856  1.4038  0.4181
38464SOL     OW17398   0.466   0.517   5.357 -0.1314  0.0893  0.1843
38464SOL    HW117399   0.491   0.608   5.372  0.5719  0.0265 -0.5584
38464SOL    HW217400   0.485   0.502   5.264  2.1346 -1.5463  0.8367
38465SOL     OW17401   0.121   5.936   9.390 -0.3784 -0.2970  0.3071
38465SOL    HW117402   0.028   5.915   9.397 -0.6666  0.4795 -0.8320
38465SOL    HW217403   0.164   5.875   9.449 -1.6895 -0.0704  1.5529
38466SOL     OW17404   2.483   2.846   8.909  0.0028  0.5825  0.3191
38466SOL    HW117405   2.550   2.908   8.939 -0.5264  0.3908  2.0097
38466SOL    HW217406   2.473   2.784   8.981  0.8103 -1.7827 -1.4851
38467SOL     OW17407   2.030   5.727   3.686  0.4029 -0.6187  0.2354
38467SOL    HW117408   2.096   5.749   3.752  0.3337 -1.0901  0.4719
38467SOL    HW217409   1.956   5.692   3.737  0.5227 -1.4034 -0.1097
38468SOL     OW17410   1.397   1.546  10.832  0.4135  0.8208 -0.1294
38468SOL    HW117411   1.358   1.462  10.853 -1.4423  0.8102 -3.1286
38468SOL    HW217412   1.483   1.524  10.795 -0.5212  0.0990 -1.9616
38469SOL     OW17413   9.503   3.369   4.123  0.7722  0.0156  0.5463
38469SOL    HW117414   9.449   3.445   4.103 -0.6312 -0.8382  0.9377
38469SOL    HW217415   9.548   3.348   4.041 -0.3436  0.0909 -0.0996
38470SOL     OW17416   7.763   4.887   0.932  0.3468  0.0557 -0.8839
38470SOL    HW117417   7.793   4.798   0.908 -3.0267 -1.1441 -1.1353
38470SOL    HW217418   7.741   4.881   1.025 -1.0950  0.2321 -1.1985
38471SOL     OW17419   0.954   1.567   6.150 -0.7642  0.3014  0.4258
38471SOL    HW117420   0.900   1.574   6.072 -1.3839 -0.4620  0.7655
38471SOL    HW217421   0.902   1.608   6.219 -1.0463 -0.6565  0.8041
38472SOL     OW17422   8.050   5.082  10.318  0.2627 -0.0440 -0.2967
38472SOL    HW117423   8.045   4.994  10.280 -2.8230  0.4324 -1.2898
38472SOL    HW217424   8.017   5.140  10.250 -2.0847  1.2834  1.7677
38473SOL     OW17425   5.790   8.596   1.438  0.3018  0.1086 -0.8276
38473SOL    HW117426   5.850   8.575   1.510 -0.6182  2.8256  0.8792
38473SOL    HW217427   5.709   8.549   1.460  0.3934  0.0163 -0.6859
38474SOL     OW17428   6.775   3.556   7.307  0.2908  0.1056 -0.0213
38474SOL    HW117429   6.822   3.604   7.238  0.1548 -1.1965 -1.0813
38474SOL    HW217430   6.686   3.590   7.304  0.6498  1.1243  0.5696
38475SOL     OW17431   6.521  10.642  10.985 -0.0388 -0.0451 -0.0796
38475SOL    HW117432   6.430  10.646  10.957  0.7167 -0.4020 -2.8612
38475SOL    HW217433   6.526  10.702  11.060 -2.5943 -0.3293  0.4070
38476SOL     OW17434   0.423   0.243   7.987 -0.0335  0.3299  0.0224
38476SOL    HW117435   0.352   0.258   8.049  0.7195  0.7352  0.8061
38476SOL    HW217436   0.421   0.149   7.970 -1.2888  0.4446 -0.6452
38477SOL     OW17437   1.430   3.964   8.082 -0.2751 -0.0090  0.3364
38477SOL    HW117438   1.357   4.024   8.093 -0.3601 -0.2637  1.2210
38477SOL    HW217439   1.508   4.019   8.095 -0.3590 -0.1537  1.6192
38478SOL     OW17440   9.755   1.822   6.683 -0.1922 -0.2093  0.4242
38478SOL    HW117441   9.735   1.777   6.601  0.1355  0.3582  0.0246
38478SOL    HW217442   9.848   1.806   6.697 -0.5646 -1.6195  1.5177
38479SOL     OW17443   3.512   1.460   1.627  0.0635  0.3283  0.1777
38479SOL    HW117444   3.540   1.468   1.718 -0.8508  1.3317  0.3980
38479SOL    HW217445   3.534   1.371   1.602  0.2118  0.0023  1.4219
38480SOL     OW17446  10.007   6.707   1.914  0.2022  0.4227  0.1918
38480SOL    HW117447   9.993   6.622   1.957 -0.7842  0.8881  0.8252
38480SOL    HW217448  10.099   6.727   1.930  0.7278 -1.0051 -0.8619
38481SOL     OW17449   1.472   7.966   6.645  0.5182  0.2023  0.1796
38481SOL    HW117450   1.377   7.960   6.633  0.1266 -0.6787  2.9413
38481SOL    HW217451   1.497   8.047   6.601 -1.8366  1.3769  0.8295
38482SOL     OW17452   6.918   5.638   1.283 -0.6893 -0.0761  0.1384
38482SOL    HW117453   6.859   5.589   1.227  0.1638  0.3123 -1.1410
38482SOL    HW217454   6.885   5.623   1.372 -0.9192 -2.3032 -0.2732
38483SOL     OW17455   4.898  10.330   0.265  0.0931  0.1877 -0.1274
38483SOL    HW117456   4.935  10.336   0.353  1.0203  0.5733 -0.5274
38483SOL    HW217457   4.973  10.307   0.210 -0.3435  0.6063 -0.9079
38484SOL     OW17458   7.143   2.246  10.222  0.0830 -0.0040  0.3666
38484SOL    HW117459   7.122   2.160  10.183 -0.5272  1.0415 -1.7906
38484SOL    HW217460   7.192   2.291  10.154 -1.0301  1.9442  0.7831
38485SOL     OW17461   2.526   6.701   4.708 -0.4932 -0.6278  0.2071
38485SOL    HW117462   2.458   6.639   4.681  0.3549 -1.4148 -0.1498
38485SOL    HW217463   2.555   6.669   4.793 -0.5518 -0.2960  0.3545
38486SOL     OW17464   4.499  10.711   1.393  0.2872 -0.3197  0.3105
38486SOL    HW117465   4.529  10.771   1.325  0.1063  0.4573  0.8950
38486SOL    HW217466   4.455  10.768   1.457  0.4159 -1.0359  1.0509
38487SOL     OW17467   4.067   3.532   0.022  0.0127  0.3276  0.7193
38487SOL    HW117468   4.128   3.604   0.004  1.0946 -0.5928  0.6226
38487SOL    HW217469   4.029   3.555   0.107  0.9838  0.5992  1.1030
38488SOL     OW17470   9.368  10.055   0.667 -0.0423  0.5467  0.3543
38488SOL    HW117471   9.446  10.065   0.612 -0.3552  0.2878 -0.1499
38488SOL    HW217472   9.313   9.993   0.619 -0.5807  0.7652  0.6813
38489SOL     OW17473   4.717   2.636  10.069 -0.3231  0.2266 -0.1799
38489SOL    HW117474   4.622   2.623  10.063 -0.3549  0.5362 -0.3943
38489SOL    HW217475   4.753   2.589   9.994 -0.5573  2.4714 -1.8122
38490SOL     OW17476   8.343   4.732   2.447 -0.5148  0.0671  0.0731
38490SOL    HW117477   8.278   4.762   2.383 -2.3669 -2.0824  0.8158
38490SOL    HW217478   8.349   4.638   2.432  1.0490 -0.0632  1.2980
38491SOL     OW17479   1.637   4.307   4.096  0.6057 -0.3558  0.6898
38491SOL    HW117480   1.605   4.258   4.020  0.9194  0.8078 -0.2389
38491SOL    HW217481   1.561   4.357   4.125  1.4538  2.7045 -1.7537
38492SOL     OW17482   6.013   0.799   2.433  0.4423 -0.4101 -0.3006
38492SOL    HW117483   6.019   0.793   2.337 -1.4058  0.9289 -0.5385
38492SOL    HW217484   6.081   0.863   2.457 -0.1548  0.4766 -0.9099
38493SOL     OW17485   7.144   5.348   0.254 -0.6807  0.2950 -0.2766
38493SOL    HW117486   7.076   5.331   0.319  2.0259 -1.5092  2.3280
38493SOL    HW217487   7.157   5.443   0.255 -0.4467  0.2844  2.1929
38494SOL     OW17488   7.122   3.519   0.795  0.6154  0.1438 -0.1407
38494SOL    HW117489   7.132   3.578   0.869  0.1366 -2.7463  2.4150
38494SOL    HW217490   7.208   3.520   0.752  0.7645  2.2225  0.1138
38495SOL     OW17491   0.706   7.150   1.629 -0.0857  0.2763 -0.2481
38495SOL    HW117492   0.627   7.182   1.672  0.2148  1.1665 -0.3506
38495SOL    HW217493   0.777   7.201   1.667  0.8457 -2.3290  1.8522
38496SOL     OW17494   7.110   2.153   0.745  0.1632  0.0558 -0.2796
38496SOL    HW117495   7.190   2.154   0.796  0.1238 -1.0096 -0.1761
38496SOL    HW217496   7.061   2.230   0.775  1.1034  0.6688 -0.2983
38497SOL     OW17497   8.221   8.785   9.014 -0.3903 -0.5394  0.3883
38497SOL    HW117498   8.150   8.740   9.059 -0.7995 -0.5332 -0.2451
38497SOL    HW217499   8.296   8.775   9.072 -0.6514 -1.4217  0.5854
38498SOL     OW17500   3.527   3.011   3.849  0.1631  0.7002  0.2126
38498SOL    HW117501   3.477   3.038   3.772  2.3340 -0.5732 -1.7600
38498SOL    HW217502   3.481   2.934   3.882  0.3454  0.0126 -1.0936
38499SOL     OW17503   5.658   4.090   9.852  0.0167 -0.5573 -0.2481
38499SOL    HW117504   5.675   4.070   9.944  0.3039 -0.8456 -0.3590
38499SOL    HW217505   5.565   4.069   9.840  0.4372 -2.4700 -0.4977
38500SOL     OW17506   7.892   6.428   7.342 -0.2909  0.2496 -0.4888
38500SOL    HW117507   7.982   6.445   7.315  0.2845  0.8090  1.5543
38500SOL    HW217508   7.894   6.338   7.374 -0.4200  0.2964 -0.3467
38501SOL     OW17509   9.965   7.937   4.229  0.1496 -0.0640 -0.6675
38501SOL    HW117510   9.998   7.984   4.152  0.9901  3.8717  1.8018
38501SOL    HW217511  10.031   7.953   4.297 -2.1657 -0.3060  1.7989
38502SOL     OW17512   1.332   1.823   0.351 -0.4089 -0.1547  0.4049
38502SOL    HW117513   1.257   1.777   0.312  0.3308  0.8383 -2.4315
38502SOL    HW217514   1.408   1.772   0.324  0.1727  0.8268  0.1235
38503SOL     OW17515   1.641   3.877   2.932 -0.1758 -0.5980 -0.0366
38503SOL    HW117516   1.705   3.806   2.924  1.0942  0.5742 -0.8008
38503SOL    HW217517   1.666   3.923   3.012 -1.8975 -1.8203  1.2645
38504SOL     OW17518   8.741   6.585   0.272  0.0533 -0.1200  0.4732
38504SOL    HW117519   8.651   6.589   0.305 -0.2847  4.0554 -0.5141
38504SOL    HW217520   8.733   6.602   0.179  1.9289  2.0490  0.6404
38505SOL     OW17521   3.641  10.505  10.123  0.1611  0.0798  0.0719
38505SOL    HW117522   3.604  10.513  10.211 -0.2151  0.8877 -0.1463
38505SOL    HW217523   3.640  10.595  10.089  0.1319 -0.2478 -0.8213
38506SOL     OW17524   8.206  10.313  10.221 -0.4349  0.1801  0.0342
38506SOL    HW117525   8.201  10.301  10.316 -0.9868 -0.0094 -0.0128
38506SOL    HW217526   8.172  10.402  10.207 -0.4007  0.1894  0.0100
38507SOL     OW17527   6.850   7.325   3.852  0.1481  0.2423  0.7063
38507SOL    HW117528   6.815   7.301   3.938 -2.0285 -0.4703 -0.3154
38507SOL    HW217529   6.918   7.259   3.835 -2.1208 -2.1381  0.2306
38508SOL     OW17530  10.707   2.123   3.652 -0.3757 -0.1730 -0.3712
38508SOL    HW117531  10.634   2.108   3.712 -0.9102 -1.1945 -1.2374
38508SOL    HW217532  10.666   2.159   3.573 -0.1989 -2.2271 -1.4603
38509SOL     OW17533   4.897   0.989  10.612 -0.0701 -0.1621  0.3082
38509SOL    HW117534   4.892   0.985  10.517  1.8821 -0.2690  0.1658
38509SOL    HW217535   4.905   1.083  10.631  0.7351 -0.2096  0.2546
38510SOL     OW17536   8.932   8.212   7.246 -0.1234  0.2830 -0.1647
38510SOL    HW117537   9.021   8.228   7.277 -0.5156  0.5746  0.8503
38510SOL    HW217538   8.919   8.118   7.256 -0.0979  0.3140  0.1530
38511SOL     OW17539   9.532   4.022   8.285 -0.2078 -0.0103  0.1952
38511SOL    HW117540   9.478   4.093   8.318  1.8544  0.9851  1.6944
38511SOL    HW217541   9.472   3.948   8.275 -1.9476  1.2390  1.0315
38512SOL     OW17542   7.228   2.684  10.031  0.0062  0.4031 -0.1703
38512SOL    HW117543   7.244   2.757  10.091 -0.3033 -0.0394  0.4610
38512SOL    HW217544   7.311   2.672   9.985  0.2661  0.7052  0.2164
38513SOL     OW17545   2.640   9.514   5.230 -0.5058 -0.0182 -0.3761
38513SOL    HW117546   2.683   9.473   5.155  1.0147  0.5823  0.1277
38513SOL    HW217547   2.707   9.513   5.299 -1.8261 -0.4405  0.9331
38514SOL     OW17548  10.441   0.892   3.233  0.3524 -0.2632 -0.4852
38514SOL    HW117549  10.461   0.931   3.319 -0.5131  2.9667 -1.5887
38514SOL    HW217550  10.510   0.925   3.175  0.3482 -1.5659 -1.2661
38515SOL     OW17551   0.438   3.414  10.827 -0.2853  0.5234  0.4397
38515SOL    HW117552   0.363   3.370  10.786  0.6288 -0.5383 -0.1263
38515SOL    HW217553   0.475   3.468  10.757  1.1095 -1.0777 -0.1136
38516SOL     OW17554   5.339   4.029   3.556 -0.1258  0.7351  0.2415
38516SOL    HW117555   5.311   3.966   3.623 -0.5150  0.2882 -0.3265
38516SOL    HW217556   5.425   3.998   3.528 -0.7268 -0.1594 -0.7389
38517SOL     OW17557   6.959   4.035   8.138  0.2583 -0.0240 -0.0296
38517SOL    HW117558   6.980   4.126   8.158  2.4287 -0.0385 -1.8544
38517SOL    HW217559   7.001   3.984   8.207 -0.7006  0.2947  0.8178
38518SOL     OW17560   6.761   8.393   5.732  0.2443 -0.4758  0.3614
38518SOL    HW117561   6.807   8.311   5.715  0.5624 -0.0587 -0.9060
38518SOL    HW217562   6.674   8.380   5.695  0.9788  0.4820 -1.8871
38519SOL     OW17563   9.382   1.927   2.249 -0.0284 -0.2421  0.1798
38519SOL    HW117564   9.395   1.988   2.177 -1.9557  1.4029  1.1435
38519SOL    HW217565   9.354   1.846   2.208 -1.6460  0.8322 -0.9321
38520SOL     OW17566   2.845   3.846   9.712  0.1326 -0.2924 -0.2246
38520SOL    HW117567   2.913   3.909   9.688 -0.3672  1.3450  2.2378
38520SOL    HW217568   2.774   3.901   9.746 -1.3383 -2.1030 -0.2364
38521SOL     OW17569   7.733   1.455   7.007  0.1245  0.8293 -0.4917
38521SOL    HW117570   7.677   1.470   6.931  0.1055  2.0295 -0.2585
38521SOL    HW217571   7.676   1.415   7.072 -0.1742  0.9845 -0.6599
38522SOL     OW17572   6.253   4.293   3.253 -0.3300  0.2828  0.1271
38522SOL    HW117573   6.204   4.275   3.173  1.0997  1.5499 -1.1264
38522SOL    HW217574   6.280   4.207   3.285  0.9931 -0.2250 -2.0934
38523SOL     OW17575   4.457   6.851   1.616  0.3479 -0.3588 -0.0607
38523SOL    HW117576   4.416   6.855   1.529  0.2215  1.9333  0.0607
38523SOL    HW217577   4.391   6.809   1.671 -0.0705 -0.6802 -0.7798
38524SOL     OW17578   9.093   1.551   8.150  0.0685  0.1807  0.3571
38524SOL    HW117579   9.004   1.516   8.153  0.0970  0.0931  0.1542
38524SOL    HW217580   9.085   1.631   8.098  0.4064 -0.6946 -1.0917
38525SOL     OW17581  10.956   4.230   2.048 -0.3170  0.0886  0.9576
38525SOL    HW117582  10.952   4.231   1.952  0.9642  1.2151  0.8837
38525SOL    HW217583  10.879   4.181   2.074 -0.5340 -0.5083 -0.6614
38526SOL     OW17584   9.346   3.533   6.444  0.0265  0.2092  0.0396
38526SOL    HW117585   9.337   3.452   6.395 -1.9721  0.2277  0.3068
38526SOL    HW217586   9.420   3.518   6.503  0.3311 -1.0270 -0.6394
38527SOL     OW17587  10.196   9.190   2.166  0.0219  0.0189  0.0639
38527SOL    HW117588  10.211   9.208   2.259 -1.3171 -1.7022  0.6718
38527SOL    HW217589  10.176   9.097   2.163  1.1635 -0.2191 -2.1329
38528SOL     OW17590   0.562   1.409   3.466  0.4216  0.5324 -0.3049
38528SOL    HW117591   0.535   1.319   3.485 -0.5112  0.9034  0.2378
38528SOL    HW217592   0.502   1.463   3.518  0.0903  1.5034 -1.6334
38529SOL     OW17593   5.357   5.693   1.757 -0.4646  0.2932  0.0385
38529SOL    HW117594   5.378   5.688   1.850 -0.9027 -2.5698  0.0737
38529SOL    HW217595   5.262   5.704   1.754 -0.6914 -1.4268 -0.0072
38530SOL     OW17596   7.580  10.797   2.924 -0.8514 -0.4376  0.0254
38530SOL    HW117597   7.644  10.864   2.946 -1.4656 -0.2752  1.4139
38530SOL    HW217598   7.630  10.730   2.878  0.2374 -0.1237  0.7066
38531SOL     OW17599   1.936   2.761   0.054 -0.2712  0.1790 -0.3877
38531SOL    HW117600   2.002   2.702   0.091 -2.0423 -0.9696  1.1217
38531SOL    HW217601   1.984   2.842   0.037  1.3689 -0.3192  1.4167
38532SOL     OW17602   2.291   1.682   3.157  0.2231 -0.0679  0.3119
38532SOL    HW117603   2.216   1.640   3.199  0.6711  0.7408  1.9849
38532SOL    HW217604   2.267   1.775   3.154  1.5434  0.3539  1.7966
38533SOL     OW17605   1.596   0.108   7.049  0.0733  0.2616 -0.5308
38533SOL    HW117606   1.508   0.109   7.086  0.2927  0.0279  0.0153
38533SOL    HW217607   1.641   0.181   7.092  0.9383 -1.2400  1.2239
38534SOL     OW17608   1.548   9.322   9.309  0.2770 -0.0191 -0.5400
38534SOL    HW117609   1.522   9.414   9.298 -2.7552 -0.7587 -0.4494
38534SOL    HW217610   1.566   9.313   9.402 -2.2297 -0.0571  0.0196
38535SOL     OW17611   4.907  11.047   3.970 -0.1912 -0.1970  0.2035
38535SOL    HW117612   4.927  11.077   4.059 -0.5153 -1.5179  0.7506
38535SOL    HW217613   4.869  10.960   3.982  1.4099 -1.1799 -1.3252
38536SOL     OW17614   7.460   5.456   5.252 -0.8653 -0.6363  0.4226
38536SOL    HW117615   7.481   5.421   5.166 -0.6925  3.1781 -1.3260
38536SOL    HW217616   7.370   5.430   5.268 -1.0198 -1.1124 -1.1162
38537SOL     OW17617   2.780  10.050   2.275  0.3533 -0.6435  0.5825
38537SOL    HW117618   2.861  10.003   2.255  1.5103  1.0105  1.0758
38537SOL    HW217619   2.809  10.126   2.325 -1.6202 -0.4616  1.5499
38538SOL     OW17620   9.455   2.123   8.260  0.4188  0.3725 -0.0558
38538SOL    HW117621   9.526   2.059   8.267 -1.5701 -1.8675  0.9608
38538SOL    HW217622   9.409   2.098   8.180  0.2896  1.2970 -0.2753
38539SOL     OW17623   2.155   0.973   5.360 -0.0713  0.3228  0.5644
38539SOL    HW117624   2.156   1.060   5.320 -0.6959  0.9169  1.7884
38539SOL    HW217625   2.064   0.944   5.353 -0.3183  0.6832  2.0213
38540SOL     OW17626   0.667   3.523   3.316 -0.0489 -1.0713  0.4438
38540SOL    HW117627   0.705   3.547   3.401 -1.0434  1.1207  0.3376
38540SOL    HW217628   0.715   3.576   3.253 -2.1686  0.6679  0.1614
38541SOL     OW17629   9.158   7.888   0.374  0.2689 -0.2656  0.2696
38541SOL    HW117630   9.222   7.950   0.339 -0.5583  1.0587  1.0044
38541SOL    HW217631   9.113   7.853   0.297  1.0804 -0.3469 -0.1831
38542SOL     OW17632   9.740   1.915   9.138 -0.0647 -0.2844 -0.0468
38542SOL    HW117633   9.764   1.883   9.051  1.7573  0.1091  0.2786
38542SOL    HW217634   9.821   1.948   9.175 -0.8914 -0.0569  1.6630
38543SOL     OW17635   8.394   9.690   1.989 -0.3901  0.2875  0.4511
38543SOL    HW117636   8.446   9.611   2.002 -1.2159 -0.0912  1.5812
38543SOL    HW217637   8.412   9.744   2.066  0.4031  1.3583 -0.4545
38544SOL     OW17638   8.068   0.827   0.422  0.2062  0.5218 -0.1556
38544SOL    HW117639   8.047   0.900   0.481  0.3883  0.4325  0.0200
38544SOL    HW217640   8.150   0.791   0.456 -0.1907 -0.1431  0.1087
38545SOL     OW17641   7.778   0.297   4.179 -0.7461 -0.3573 -0.1348
38545SOL    HW117642   7.699   0.313   4.231 -0.5682  0.1105 -0.0036
38545SOL    HW217643   7.801   0.206   4.199 -1.4339 -0.6081 -0.4317
38546SOL     OW17644   4.446   1.254   5.933  0.1110  0.3080 -0.2162
38546SOL    HW117645   4.437   1.326   5.870 -2.0912 -0.0592 -0.3969
38546SOL    HW217646   4.436   1.175   5.880 -0.3252 -0.0376  0.3696
38547SOL     OW17647   7.831   1.153   0.508 -0.2972  0.2533 -0.2684
38547SOL    HW117648   7.892   1.195   0.447 -0.2783 -0.8718 -1.0469
38547SOL    HW217649   7.745   1.177   0.476 -0.2798  0.4717 -0.1531
38548SOL     OW17650   4.074   8.824   4.386  0.2995 -0.3759  0.8086
38548SOL    HW117651   4.052   8.762   4.456  1.5341 -2.6959 -0.7136
38548SOL    HW217652   3.993   8.834   4.336  0.2693 -1.4148  0.6276
38549SOL     OW17653   4.970   6.057   1.922  0.1126 -0.1128 -0.1056
38549SOL    HW117654   4.967   6.030   2.014 -2.7819  0.2807 -0.0115
38549SOL    HW217655   4.923   6.140   1.919  0.5585  0.1255 -1.8949
38550SOL     OW17656   7.029   7.687   5.326 -0.3658  0.1936 -0.0578
38550SOL    HW117657   7.074   7.749   5.269  0.4707 -1.0288 -0.7772
38550SOL    HW217658   7.001   7.617   5.267 -1.2253 -0.1645  0.7436
38551SOL     OW17659   4.448   0.172   8.450 -0.2377  0.0102  0.2811
38551SOL    HW117660   4.507   0.138   8.383 -1.0489  1.5596 -1.2797
38551SOL    HW217661   4.363   0.179   8.407 -0.4741  2.3624  1.0054
38552SOL     OW17662  10.109   2.053   0.529  0.0749 -0.0516 -0.1918
38552SOL    HW117663  10.069   1.981   0.578  0.1051 -0.8215 -1.2548
38552SOL    HW217664  10.041   2.083   0.469  0.6867 -0.5743 -1.1742
38553SOL     OW17665   1.054   4.886  10.483  0.4939 -0.4573  0.3767
38553SOL    HW117666   1.138   4.853  10.516 -0.4950 -3.3115  0.3231
38553SOL    HW217667   1.016   4.933  10.557  2.1791  1.0832  0.3364
38554SOL     OW17668   6.698   2.581  10.610 -0.0420 -0.2333  0.0260
38554SOL    HW117669   6.655   2.648  10.557  1.1629  0.8142  0.3373
38554SOL    HW217670   6.683   2.608  10.700 -0.8743 -1.2476  0.2132
38555SOL     OW17671   1.364   9.008   1.475 -0.4658  0.1310  0.8752
38555SOL    HW117672   1.397   8.919   1.458 -2.1089 -0.4585  0.5211
38555SOL    HW217673   1.335   9.038   1.389  1.1213  1.5154  0.7697
38556SOL     OW17674   9.758  11.080   7.694 -0.1314 -0.4686 -0.4446
38556SOL    HW117675   9.666  11.077   7.670 -0.8435 -3.0653  2.0042
38556SOL    HW217676   9.793  11.156   7.648 -3.0184 -0.4603 -2.9130
38557SOL     OW17677   7.538  10.826   2.222 -0.2025  0.5803  0.0951
38557SOL    HW117678   7.555  10.899   2.282 -0.1061  0.3802  0.3094
38557SOL    HW217679   7.562  10.748   2.271 -1.3821  0.3155  0.2873
38558SOL     OW17680   8.562   8.804   5.124  0.3801 -0.1606 -0.3909
38558SOL    HW117681   8.581   8.812   5.218  1.9484  1.1798 -0.7814
38558SOL    HW217682   8.632   8.853   5.081  0.2292 -1.5372 -2.3305
38559SOL     OW17683  10.942   3.304   8.131 -0.1266 -0.1650 -0.2591
38559SOL    HW117684  10.977   3.313   8.219 -0.6388  0.5089 -0.1163
38559SOL    HW217685  10.958   3.213   8.108  1.5385  0.0695 -0.1372
38560SOL     OW17686   7.386   3.602   9.063  0.0286 -0.0515  0.1230
38560SOL    HW117687   7.381   3.536   8.993 -1.1659  0.3454 -0.2006
38560SOL    HW217688   7.384   3.551   9.144 -1.1335 -0.4380 -0.1186
38561SOL     OW17689   7.674   1.101   2.005 -0.6948 -0.0929  0.4070
38561SOL    HW117690   7.646   1.180   2.051  1.4097  2.3300 -2.1300
38561SOL    HW217691   7.664   1.122   1.912  0.0601 -2.8133 -0.3888
38562SOL     OW17692   8.575   1.107   1.484  0.6359  0.0186 -0.0648
38562SOL    HW117693   8.578   1.158   1.403  0.9775  1.1824  0.6642
38562SOL    HW217694   8.604   1.167   1.552  0.6570 -1.0354  0.8904
38563SOL     OW17695   2.641   9.833   2.355  0.1184 -0.3712  0.8081
38563SOL    HW117696   2.716   9.777   2.335 -0.6314 -1.4500  0.9235
38563SOL    HW217697   2.674   9.922   2.342  0.9828 -0.8566 -0.6614
38564SOL     OW17698  10.236   9.715   4.762  0.2122  0.4129 -0.0785
38564SOL    HW117699  10.171   9.785   4.757  1.1958  1.2847 -2.6609
38564SOL    HW217700  10.291   9.739   4.838 -0.2893  1.6950 -0.0933
38565SOL     OW17701   0.095   3.724   9.504  0.1068 -0.3848  0.0542
38565SOL    HW117702   0.141   3.640   9.502  2.7473  0.8922 -3.8646
38565SOL    HW217703   0.043   3.725   9.425  2.2542  2.5357 -1.5310
38566SOL     OW17704   1.672  10.659   1.706  0.2926 -0.1136 -0.5181
38566SOL    HW117705   1.726  10.724   1.661 -0.3542  0.7289 -0.1133
38566SOL    HW217706   1.668  10.690   1.796  1.0630 -1.4494  0.0020
38567SOL     OW17707   6.502   2.695   1.236  0.1892  0.3025  0.4395
38567SOL    HW117708   6.499   2.727   1.146  1.4570  1.1260  0.6684
38567SOL    HW217709   6.410   2.686   1.261 -0.1788  0.0623 -0.9290
38568SOL     OW17710   7.156   7.055   7.180 -0.1988 -0.1877  0.2704
38568SOL    HW117711   7.165   7.094   7.093  0.8728  0.1591  0.5225
38568SOL    HW217712   7.083   6.994   7.171 -0.9897  0.8448 -0.5024
38569SOL     OW17713   0.034   3.853   7.953 -0.2021  0.1208  0.4863
38569SOL    HW117714  -0.026   3.928   7.948 -0.3107 -0.0714 -2.7413
38569SOL    HW217715   0.121   3.892   7.964 -0.2466  0.8009 -1.2770
38570SOL     OW17716   0.400   3.334   1.887  0.4652 -0.1543  0.5761
38570SOL    HW117717   0.306   3.346   1.871  0.5809 -0.7176 -0.6582
38570SOL    HW217718   0.434   3.299   1.804  1.5620 -1.0162  1.3631
38571SOL     OW17719   7.446   2.709   3.537  0.1709  0.4816  0.3449
38571SOL    HW117720   7.419   2.698   3.628 -0.7346 -0.5705 -0.0204
38571SOL    HW217721   7.365   2.695   3.487  0.6983  0.8365 -0.6266
38572SOL     OW17722   6.555   3.345   5.143 -0.2634  0.2504  0.1010
38572SOL    HW117723   6.602   3.428   5.149 -1.4598  0.8654  1.3138
38572SOL    HW217724   6.498   3.343   5.220 -3.0694  0.0564 -1.8174
38573SOL     OW17725   6.388   3.687   2.322 -0.0168  0.0793 -0.1895
38573SOL    HW117726   6.453   3.640   2.269 -1.1125 -0.3365 -1.2077
38573SOL    HW217727   6.392   3.777   2.291  2.5058  0.9102  2.1685
38574SOL     OW17728   0.351  10.440   7.966  0.1683 -0.5921 -0.0253
38574SOL    HW117729   0.354  10.464   7.874 -0.5049 -0.3392  0.0163
38574SOL    HW217730   0.317  10.351   7.968  0.3124 -0.6472 -0.0270
38575SOL     OW17731   7.620   0.100   7.142  0.1327 -0.2971  0.5040
38575SOL    HW117732   7.526   0.106   7.123  0.0828 -1.5182  0.2235
38575SOL    HW217733   7.629   0.017   7.189  1.0142  0.0226  0.9045
38576SOL     OW17734   5.461   5.559   1.319  0.0383 -0.0570 -0.7736
38576SOL    HW117735   5.510   5.489   1.277 -0.7631 -1.5196  0.6198
38576SOL    HW217736   5.426   5.611   1.247  0.0148 -1.5307 -1.8620
38577SOL     OW17737   4.152   3.627  10.281  0.1423 -0.5127  0.1912
38577SOL    HW117738   4.194   3.703  10.242 -0.9314 -0.7178 -1.4383
38577SOL    HW217739   4.187   3.552  10.232 -1.7198 -0.7211 -0.9300
38578SOL     OW17740   4.228   7.691   5.070 -0.0975 -0.1024 -0.4251
38578SOL    HW117741   4.293   7.622   5.051 -0.2735 -0.0301 -1.3756
38578SOL    HW217742   4.240   7.754   4.999 -1.1472 -0.0515 -0.5714
38579SOL     OW17743   7.833   6.254   9.683  0.4215 -0.1027  0.7335
38579SOL    HW117744   7.836   6.212   9.598 -0.1186 -0.4052  0.8581
38579SOL    HW217745   7.860   6.345   9.666  0.9019 -0.3164  0.3495
38580SOL     OW17746   9.194   2.376   6.557  0.1483  0.8866  0.0110
38580SOL    HW117747   9.143   2.438   6.505  1.2683  1.1798 -0.7934
38580SOL    HW217748   9.271   2.358   6.502 -0.0414 -1.0336  0.3336
38581SOL     OW17749   1.806   0.396   1.125  0.4166 -0.0201  0.0976
38581SOL    HW117750   1.727   0.406   1.177  0.2041 -1.6387  0.1389
38581SOL    HW217751   1.810   0.475   1.072 -0.8950  0.3643  0.5416
38582SOL     OW17752   9.841   1.512   9.562  0.4478  0.2968 -0.1355
38582SOL    HW117753   9.864   1.496   9.654 -3.1093 -0.0372  0.8463
38582SOL    HW217754   9.814   1.603   9.559 -1.7203 -0.2848 -0.1976
38583SOL     OW17755  10.075   6.183   3.541 -0.7450  0.0164  0.1420
38583SOL    HW117756   9.990   6.225   3.530 -1.1139 -0.7646 -0.0617
38583SOL    HW217757  10.110   6.179   3.452 -0.0731  1.1644  0.3287
38584SOL     OW17758   5.794   2.681  11.018  0.1552 -0.1611  0.2343
38584SOL    HW117759   5.818   2.602  10.970 -0.9611 -0.9097  0.8596
38584SOL    HW217760   5.723   2.653  11.076  1.7630  0.5747  2.7019
38585SOL     OW17761   4.019   2.243   2.903 -0.0268  0.2718  0.6409
38585SOL    HW117762   3.995   2.317   2.847  0.0623  0.3188  0.6650
38585SOL    HW217763   4.016   2.167   2.846  2.7639  0.6464 -0.1281
38586SOL     OW17764   3.318   5.097   2.688  0.3031 -0.3429  0.6059
38586SOL    HW117765   3.329   5.177   2.637 -0.2769  0.3948  1.5783
38586SOL    HW217766   3.357   5.117   2.773  0.8436 -1.3777  0.6226
38587SOL     OW17767   5.967   7.515  10.418  0.2261 -0.1140 -0.4185
38587SOL    HW117768   6.012   7.483  10.340  0.7010  2.3254 -1.2420
38587SOL    HW217769   6.003   7.463  10.489 -0.8783 -3.0290 -1.8536
38588SOL     OW17770   3.840   0.331   6.041  0.0377  0.0732  0.1513
38588SOL    HW117771   3.819   0.243   6.011  0.2547  0.3457 -0.8312
38588SOL    HW217772   3.827   0.328   6.136 -0.5530 -0.8447  0.0521
38589SOL     OW17773   5.252   3.878   5.139 -0.3555 -0.0987  0.1010
38589SOL    HW117774   5.263   3.832   5.056 -2.0288  1.5538 -1.1235
38589SOL    HW217775   5.330   3.933   5.146  1.7733 -3.0398  1.6872
38590SOL     OW17776   8.864   2.224   7.442  0.2525 -0.3196 -1.0115
38590SOL    HW117777   8.804   2.179   7.382 -0.8373 -1.3057  0.7192
38590SOL    HW217778   8.826   2.311   7.452 -1.3647 -1.1508  0.5943
38591SOL     OW17779   8.977   1.083  10.993 -0.1884  0.6732 -0.1569
38591SOL    HW117780   9.069   1.096  10.970  0.2531 -0.7098  0.6466
38591SOL    HW217781   8.967   1.130  11.076  0.0238  0.1739  0.1583
38592SOL     OW17782   5.613   2.631  10.703  0.2034  0.1672 -0.0358
38592SOL    HW117783   5.625   2.700  10.768  1.2039 -0.0275 -0.0003
38592SOL    HW217784   5.519   2.613  10.704  0.1683  0.3425  1.1772
38593SOL     OW17785   0.787  10.484   1.425 -0.7305 -0.1233  0.2764
38593SOL    HW117786   0.857  10.429   1.389  0.0131 -0.3219  1.9680
38593SOL    HW217787   0.751  10.529   1.348  2.0054  0.8750 -0.5649
38594SOL     OW17788   4.776   3.060   3.045 -0.3982  0.2686 -0.1375
38594SOL    HW117789   4.711   3.130   3.043  0.3718  1.0355 -2.4514
38594SOL    HW217790   4.730   2.984   3.009 -0.5935  0.2125  0.2251
38595SOL     OW17791   1.759   3.266   6.661 -0.1980  0.3771  0.0480
38595SOL    HW117792   1.793   3.176   6.653 -0.4161  0.0390  2.2912
38595SOL    HW217793   1.664   3.256   6.656 -0.2113  0.9816 -3.2538
38596SOL     OW17794   9.750   0.029   4.088 -0.3643  0.2967  0.4223
38596SOL    HW117795   9.709   0.096   4.143  0.4076  0.0416  1.3343
38596SOL    HW217796   9.678  -0.030   4.065 -0.7398  0.5219  0.9976
38597SOL     OW17797   6.760   2.405   3.969  0.0280 -0.4063 -0.3369
38597SOL    HW117798   6.793   2.341   3.905 -0.1168  1.1892 -2.0886
38597SOL    HW217799   6.709   2.352   4.031  1.6416 -2.2432 -0.4794
38598SOL     OW17800   6.245   8.331   3.194 -0.1879 -0.3071 -0.7154
38598SOL    HW117801   6.185   8.268   3.153  0.0065  0.1150 -1.6784
38598SOL    HW217802   6.242   8.310   3.287 -0.1386 -1.7368 -1.0134
38599SOL     OW17803   1.774   2.077   5.016 -0.0246 -0.1411  0.1390
38599SOL    HW117804   1.765   2.057   4.923 -1.5301  0.8139  0.0448
38599SOL    HW217805   1.717   2.015   5.060 -1.3277  1.0247  0.1800
38600SOL     OW17806   8.331   5.375   2.899  0.2051 -0.6070  0.3299
38600SOL    HW117807   8.318   5.393   2.806  0.8776  1.0819  0.5190
38600SOL    HW217808   8.356   5.283   2.902  2.5438 -0.1492 -1.4717
38601SOL     OW17809  10.028   4.889   0.953 -0.3118 -0.0586  0.6313
38601SOL    HW117810  10.064   4.802   0.969  0.6326 -0.0885 -1.3242
38601SOL    HW217811   9.949   4.873   0.901  0.6249  0.2438 -0.9694
38602SOL     OW17812   4.743   2.364   5.252 -0.7138  0.0169  0.0155
38602SOL    HW117813   4.775   2.278   5.227  0.5043  0.6288 -0.6461
38602SOL    HW217814   4.663   2.347   5.301 -0.9420 -1.4363 -0.8147
38603SOL     OW17815   6.147   4.353   2.197  0.4663  0.5316 -0.3782
38603SOL    HW117816   6.199   4.310   2.265  1.2722  1.5597 -0.3156
38603SOL    HW217817   6.192   4.332   2.115 -0.8427 -1.2106 -0.7072
38604SOL     OW17818   2.556   1.324   0.420  0.4936  0.3740  0.3526
38604SOL    HW117819   2.516   1.396   0.469  0.6708  0.1294  0.8656
38604SOL    HW217820   2.568   1.359   0.332 -0.8873  0.4445  0.1656
38605SOL     OW17821  10.837   3.872   8.057  0.1716  0.6594  0.1083
38605SOL    HW117822  10.743   3.886   8.046 -0.4289 -1.9129  1.2897
38605SOL    HW217823  10.860   3.812   7.986  0.8284  0.8943  0.1168
38606SOL     OW17824   6.944   7.373   1.946  0.3512 -0.1212 -0.1805
38606SOL    HW117825   6.867   7.361   1.891 -0.3546  2.2815  0.1599
38606SOL    HW217826   7.016   7.338   1.895 -0.6860 -0.5246 -1.4038
38607SOL     OW17827   6.939   5.099   7.917 -0.6105 -0.0441  0.3643
38607SOL    HW117828   7.032   5.087   7.937 -0.7959 -0.2607  1.1026
38607SOL    HW217829   6.933   5.189   7.884 -0.3679  0.4785  1.7128
38608SOL     OW17830   6.665   6.583   3.584  0.0921  0.8288  0.4396
38608SOL    HW117831   6.631   6.495   3.570  0.2832  0.5365  1.7207
38608SOL    HW217832   6.733   6.573   3.651 -0.0595  1.9764  0.7966
38609SOL     OW17833   6.597   5.128   0.350  0.3622  0.0042 -0.4488
38609SOL    HW117834   6.531   5.140   0.418 -0.1640  1.5016 -1.1665
38609SOL    HW217835   6.575   5.045   0.308 -1.1457  0.5350 -0.7414
38610SOL     OW17836  10.933   6.787   6.947  0.1566  0.2408 -0.3169
38610SOL    HW117837  10.913   6.857   6.885 -1.4221  2.0844  2.0919
38610SOL    HW217838  11.029   6.783   6.948  0.3609  2.9599  0.0006
38611SOL     OW17839  10.871   6.919  10.069 -0.8377  0.3160 -0.1950
38611SOL    HW117840  10.815   6.842  10.059 -1.2225  0.4180  0.9480
38611SOL    HW217841  10.959   6.889  10.048 -1.3474  0.2977 -2.6681
38612SOL     OW17842   5.585   0.932   4.340 -0.6041  0.0049 -0.2518
38612SOL    HW117843   5.672   0.894   4.326 -1.0617 -1.0141 -0.3991
38612SOL    HW217844   5.586   0.960   4.432 -0.0668  0.1479 -0.2971
38613SOL     OW17845   7.144   0.288   4.887  0.0406  0.3841  0.8497
38613SOL    HW117846   7.186   0.235   4.955 -0.0139 -0.3791  0.2987
38613SOL    HW217847   7.216   0.330   4.840  0.2896 -1.4762 -0.5534
38614SOL     OW17848   9.941   4.925   0.533  0.2878  0.1102 -0.4730
38614SOL    HW117849   9.995   4.889   0.463  0.7661 -0.4777  0.1844
38614SOL    HW217850   9.979   5.012   0.549 -0.2523  0.5246 -1.3953
38615SOL     OW17851   4.577   7.819  10.319  0.1087 -0.4632 -0.2226
38615SOL    HW117852   4.563   7.749  10.382  0.1735 -0.0231  0.2940
38615SOL    HW217853   4.499   7.818  10.264 -0.7296  0.2125  0.9140
38616SOL     OW17854   9.784   6.572   6.243 -0.3992 -0.6419  0.0827
38616SOL    HW117855   9.801   6.501   6.182  1.4844 -1.2257  1.2013
38616SOL    HW217856   9.857   6.633   6.231  0.1619 -0.8918  1.8572
38617SOL     OW17857   7.675   5.992   3.801  0.0176  1.0378  0.2610
38617SOL    HW117858   7.748   6.033   3.755  0.0281  0.8423  0.0996
38617SOL    HW217859   7.716   5.935   3.866  0.1809 -1.8530 -2.1112
38618SOL     OW17860   4.323   5.716   3.948  0.0029 -0.0244 -0.3838
38618SOL    HW117861   4.367   5.723   4.033  0.2721  0.7692 -0.5760
38618SOL    HW217862   4.393   5.699   3.886 -0.0273  0.6155 -0.6057
38619SOL     OW17863   3.582   7.620   1.714 -0.4766  0.6916  0.6500
38619SOL    HW117864   3.588   7.536   1.759  0.4579 -0.2911 -1.1992
38619SOL    HW217865   3.490   7.646   1.724 -0.5480  0.0083  2.1438
38620SOL     OW17866   4.866   3.633   5.355 -0.4364  0.2449  0.0374
38620SOL    HW117867   4.918   3.586   5.290 -2.4472 -1.4997 -0.4287
38620SOL    HW217868   4.861   3.722   5.321  0.2323 -0.1415 -1.1375
38621SOL     OW17869   4.897   9.709   7.600  0.3090 -0.2443 -0.1551
38621SOL    HW117870   4.961   9.657   7.552  1.5691 -1.3279  2.4878
38621SOL    HW217871   4.947   9.747   7.672 -1.5203  1.0503  0.4955
38622SOL     OW17872  10.874   6.691   9.876  0.1966  0.0148  0.3846
38622SOL    HW117873  10.970   6.696   9.880  0.1394  0.2938  2.5443
38622SOL    HW217874  10.853   6.711   9.784  2.1669  0.6715  0.0229
38623SOL     OW17875  10.274   3.155   2.263 -0.3542 -0.2685  0.0889
38623SOL    HW117876  10.277   3.116   2.350 -0.4266 -0.1946  0.1256
38623SOL    HW217877  10.218   3.232   2.274 -0.1810 -0.1328  0.0270
38624SOL     OW17878   2.703   4.384   0.177  0.0645 -0.1055 -0.0991
38624SOL    HW117879   2.725   4.383   0.270 -0.6789  1.2369  0.1223
38624SOL    HW217880   2.760   4.451   0.139  0.1593 -0.4378 -0.5409
38625SOL     OW17881   9.234   3.407   8.266 -0.5559  0.4733 -0.1400
38625SOL    HW117882   9.252   3.484   8.212 -0.7543 -0.5207 -1.6778
38625SOL    HW217883   9.313   3.354   8.259  1.4697  2.3091  4.3761
38626SOL     OW17884   2.037   3.376   3.302  0.3725  0.3058  0.1124
38626SOL    HW117885   1.996   3.341   3.381 -1.0629 -1.1054 -1.1720
38626SOL    HW217886   2.045   3.470   3.319 -0.7498  0.1780  1.5728
38627SOL     OW17887   0.673   4.896   2.606 -0.2435 -0.2500  0.2369
38627SOL    HW117888   0.593   4.918   2.558  1.0972  1.3392 -1.4064
38627SOL    HW217889   0.716   4.829   2.552  0.1165 -0.2168  0.4806
38628SOL     OW17890   8.939   7.158   7.621 -0.1049 -0.2665 -0.2673
38628SOL    HW117891   8.993   7.205   7.685  1.1875 -0.4286 -1.1865
38628SOL    HW217892   8.869   7.119   7.673 -0.5518  1.6834  0.6806
38629SOL     OW17893  10.698   1.188   1.890 -0.2952  0.4363  0.7459
38629SOL    HW117894  10.677   1.181   1.983 -0.0282 -1.0345  0.7127
38629SOL    HW217895  10.630   1.137   1.846  1.3039 -1.5004  0.3849
38630SOL     OW17896   3.685   4.841   3.253  0.6824 -0.4005  0.0713
38630SOL    HW117897   3.686   4.746   3.260  1.0702 -0.3192  1.5324
38630SOL    HW217898   3.778   4.867   3.256  0.5728  0.0400 -0.1440
38631SOL     OW17899   1.113   3.131   0.486 -0.4300  0.1361 -0.1792
38631SOL    HW117900   1.023   3.160   0.470 -0.2122 -0.4129 -2.8403
38631SOL    HW217901   1.115   3.110   0.580 -3.1834 -0.2068 -0.1166
38632SOL     OW17902   1.420   2.846   9.644  0.5419  0.5124  0.3793
38632SOL    HW117903   1.403   2.938   9.664 -1.4292  0.2073  0.3501
38632SOL    HW217904   1.411   2.801   9.727 -0.5071  0.1328  0.0844
38633SOL     OW17905   1.882   4.489   9.969  0.8835 -0.6657 -0.4645
38633SOL    HW117906   1.930   4.569   9.991 -2.0084  1.0673 -0.0072
38633SOL    HW217907   1.921   4.460   9.887  1.9917  1.2285 -0.6752
38634SOL     OW17908   0.906   6.602   6.811 -0.3136 -0.9550  0.2797
38634SOL    HW117909   0.852   6.679   6.831  0.1244 -0.3841 -0.6754
38634SOL    HW217910   0.888   6.541   6.882 -1.5301 -0.4143  0.4533
38635SOL     OW17911   3.162   4.639   4.640  0.1086 -0.4764  0.1795
38635SOL    HW117912   3.096   4.657   4.573  1.0605  1.6949 -0.2820
38635SOL    HW217913   3.184   4.547   4.628 -2.0836 -1.0130 -0.2983
38636SOL     OW17914   3.891   2.149   7.341 -0.2883  0.1751  0.4197
38636SOL    HW117915   3.863   2.107   7.422 -0.6028  1.0603  0.7756
38636SOL    HW217916   3.919   2.076   7.286 -2.2220 -0.6534  0.4504
38637SOL     OW17917   9.279   7.565   7.149 -0.0889  0.0355  0.5403
38637SOL    HW117918   9.262   7.659   7.145 -1.5763 -0.1557  1.6845
38637SOL    HW217919   9.231   7.529   7.074 -4.1156 -0.3396  3.0009
38638SOL     OW17920   7.316   0.791   6.991  0.3554  0.2848  0.2435
38638SOL    HW117921   7.260   0.846   6.935  0.1147 -0.5438 -0.3546
38638SOL    HW217922   7.320   0.838   7.074 -2.0887 -0.1263  0.6657
38639SOL     OW17923   9.759   3.253  10.252 -0.3677  0.3156 -0.0685
38639SOL    HW117924   9.822   3.320  10.277  0.3248 -1.2388  2.6974
38639SOL    HW217925   9.707   3.294  10.182  2.6350  2.1973 -1.3923
38640SOL     OW17926   9.899   2.541   8.586 -0.2825 -0.4621 -0.4640
38640SOL    HW117927   9.818   2.491   8.597 -0.5785 -0.2494 -1.5529
38640SOL    HW217928   9.951   2.490   8.524 -1.0337  1.0295 -2.4370
38641SOL     OW17929   1.972   2.833   9.112  0.7259 -0.5137  0.7952
38641SOL    HW117930   1.952   2.759   9.054  1.7114 -0.9972  1.0603
38641SOL    HW217931   1.966   2.797   9.200 -0.5149  0.1618  1.0129
38642SOL     OW17932   3.477  11.027   8.269 -0.1540 -0.0801  0.0371
38642SOL    HW117933   3.565  10.992   8.285  0.6935  2.0448  0.4629
38642SOL    HW217934   3.419  10.953   8.286  1.5603 -1.8050 -1.1146
38643SOL     OW17935   0.645   7.172   3.612 -0.2298  0.7178 -0.7821
38643SOL    HW117936   0.581   7.191   3.682 -0.7601 -0.0335 -1.0481
38643SOL    HW217937   0.595   7.121   3.548  0.8910 -0.7694 -0.5140
38644SOL     OW17938   6.532   3.966   0.291 -0.3234 -0.2787 -0.4368
38644SOL    HW117939   6.498   3.877   0.276 -1.0754  0.2478 -2.0298
38644SOL    HW217940   6.606   3.973   0.232  0.5489 -0.2628  0.6277
38645SOL     OW17941   8.043   1.023   1.684 -0.1302  0.2929 -0.3515
38645SOL    HW117942   8.018   0.965   1.612 -1.1242 -0.5854  0.6588
38645SOL    HW217943   8.132   1.050   1.664  0.1389 -1.1234 -1.1616
38646SOL     OW17944   3.604   2.013   5.398 -0.0016  0.5994 -0.2732
38646SOL    HW117945   3.662   2.081   5.431  0.1874  0.3393 -0.0562
38646SOL    HW217946   3.663   1.945   5.365 -0.0698 -0.7380  2.0702
38647SOL     OW17947   6.416   6.369   7.994  0.0052 -0.1695 -0.1689
38647SOL    HW117948   6.430   6.435   8.062 -0.1409 -1.5841  1.3132
38647SOL    HW217949   6.323   6.348   7.999  0.3845 -1.8377  0.7596
38648SOL     OW17950  11.079   9.607   2.865  0.6839 -0.4747  0.0119
38648SOL    HW117951  11.011   9.642   2.809  0.3230 -0.2997  0.5523
38648SOL    HW217952  11.070   9.512   2.859  0.5861 -0.4547 -0.1480
38649SOL     OW17953   7.125   5.447   8.934 -0.0712  0.1880  0.6238
38649SOL    HW117954   7.140   5.353   8.942 -0.9282  0.1461  2.2584
38649SOL    HW217955   7.075   5.456   8.853 -1.1041 -0.9378  1.0966
38650SOL     OW17956   2.544   5.291   4.248 -0.2834 -0.5400 -0.4017
38650SOL    HW117957   2.590   5.347   4.311  1.0378 -0.5563 -1.3211
38650SOL    HW217958   2.572   5.202   4.270 -0.6605 -0.6466 -0.3434
38651SOL     OW17959   9.214   1.578   9.614  0.2450 -0.3815  0.3442
38651SOL    HW117960   9.295   1.605   9.569  0.1032  0.2320  0.4547
38651SOL    HW217961   9.144   1.623   9.568  0.1296  0.5693  1.4212
38652SOL     OW17962   8.483   1.560   8.228 -0.1754  0.1105  0.3552
38652SOL    HW117963   8.470   1.559   8.323 -0.2434 -0.9425  0.3468
38652SOL    HW217964   8.512   1.471   8.207 -3.1057 -0.6481 -0.9707
38653SOL     OW17965   8.872   4.646   3.450  0.1503 -0.6497  0.3594
38653SOL    HW117966   8.898   4.717   3.391 -1.1408 -0.3960  0.0825
38653SOL    HW217967   8.827   4.690   3.522 -2.0557 -1.2683 -0.5754
38654SOL     OW17968   8.826  10.371   9.192 -0.2951 -0.0288 -0.3536
38654SOL    HW117969   8.800  10.283   9.222  1.0415 -0.2520  0.2404
38654SOL    HW217970   8.838  10.361   9.097  0.5654 -0.7014 -0.1901
38655SOL     OW17971   8.490   2.664   5.985  0.1705  0.5817  0.5119
38655SOL    HW117972   8.580   2.635   5.969  0.2172  1.0003  0.0193
38655SOL    HW217973   8.464   2.617   6.064  0.3499 -0.5849 -0.0985
38656SOL     OW17974   5.803   7.606   9.325  0.1768  0.2105  0.7505
38656SOL    HW117975   5.732   7.662   9.356 -0.2021 -0.8111  1.8011
38656SOL    HW217976   5.817   7.633   9.234 -1.6304  0.3528  0.4796
38657SOL     OW17977   4.879  10.387   3.379 -0.4558  0.1713 -0.3901
38657SOL    HW117978   4.832  10.347   3.453 -1.2230  1.7453  0.0227
38657SOL    HW217979   4.948  10.438   3.420 -0.3568  0.3808 -0.8167
38658SOL     OW17980   4.999   8.486   2.186  0.1626 -0.6709 -0.7626
38658SOL    HW117981   4.995   8.392   2.205 -1.2020 -0.4994 -0.0485
38658SOL    HW217982   5.000   8.528   2.272  3.3141 -0.0308 -0.9875
38659SOL     OW17983  11.031   5.361   7.905  0.0005  0.0340 -0.5530
38659SOL    HW117984  11.056   5.270   7.889  0.0814 -0.2770  1.1404
38659SOL    HW217985  11.094   5.392   7.970 -1.4950  0.5143  0.7440
38660SOL     OW17986   0.165   0.324   1.008 -0.0777 -0.3669  0.3596
38660SOL    HW117987   0.098   0.311   0.941 -1.3447 -1.2764  1.7230
38660SOL    HW217988   0.158   0.246   1.064  1.9165 -0.3305  0.7451
38661SOL     OW17989   0.846   5.153  10.081  0.4174 -0.0883 -0.4519
38661SOL    HW117990   0.827   5.234  10.129  0.0894  0.3759 -1.3301
38661SOL    HW217991   0.942   5.149  10.079  0.4422  0.4840 -0.7174
38662SOL     OW17992   1.108   5.683   8.745 -0.4736 -0.3883  0.3660
38662SOL    HW117993   1.050   5.707   8.818 -0.9178  0.0225 -0.1125
38662SOL    HW217994   1.061   5.612   8.700 -1.4295  1.0474 -1.0005
38663SOL     OW17995   2.277   7.557   9.230 -0.1897 -0.2626 -0.1917
38663SOL    HW117996   2.304   7.508   9.307 -0.4762 -0.5286 -0.2571
38663SOL    HW217997   2.256   7.644   9.264 -0.2659 -0.3628  0.0235
38664SOL     OW17998   7.368   7.330   0.373 -0.4979  0.4396 -0.0726
38664SOL    HW117999   7.364   7.257   0.435 -1.3299 -0.7740 -1.5146
38664SOL    HW218000   7.277   7.358   0.363 -0.7279 -0.9479 -2.5111
38665SOL     OW18001   7.549   5.715   3.406  0.2528  0.1759  0.3417
38665SOL    HW118002   7.470   5.685   3.361  0.5001  0.8192 -0.5539
38665SOL    HW218003   7.591   5.635   3.438  0.2801 -0.3390 -0.9294
38666SOL     OW18004  11.063   8.211   1.249 -0.2845 -0.0122 -0.0484
38666SOL    HW118005  11.021   8.284   1.203  0.2302 -0.1084 -0.6945
38666SOL    HW218006  10.996   8.178   1.308 -0.6733  0.6894 -0.0866
38667SOL     OW18007   7.856   6.428   4.050 -0.1254  0.2028 -0.4095
38667SOL    HW118008   7.934   6.438   4.104 -0.9507  0.9554  0.6820
38667SOL    HW218009   7.877   6.356   3.990  0.0810 -2.1427  2.2961
38668SOL     OW18010   0.536   0.448   7.769 -0.4731 -0.1958 -0.3556
38668SOL    HW118011   0.475   0.470   7.699 -2.3583 -2.2216  0.5374
38668SOL    HW218012   0.517   0.356   7.790  2.1442 -0.5878  0.7538
38669SOL     OW18013   3.589   3.853   7.394 -0.1372 -0.6286  0.3777
38669SOL    HW118014   3.654   3.817   7.334  0.8764  1.8332 -0.1176
38669SOL    HW218015   3.504   3.833   7.354  0.4880 -0.1742 -1.2187
38670SOL     OW18016  10.404   5.156   2.588  0.2153 -0.2221  0.6590
38670SOL    HW118017  10.488   5.138   2.545 -0.1966 -0.2015 -0.1821
38670SOL    HW218018  10.370   5.233   2.542 -1.6121 -1.9310 -1.0612
38671SOL     OW18019   1.795   6.543   0.772 -0.0072 -0.0369  0.7784
38671SOL    HW118020   1.700   6.549   0.764  0.0203  2.1354  1.5353
38671SOL    HW218021   1.811   6.453   0.799 -1.9362 -0.1617  1.6862
38672SOL     OW18022  10.669   9.291   7.773 -0.4300  0.5196 -0.1376
38672SOL    HW118023  10.762   9.310   7.764 -0.5187  1.8634  1.4376
38672SOL    HW218024  10.636   9.356   7.834 -2.0842 -0.9087  0.6013
38673SOL     OW18025  10.615   9.019   7.887  0.0148  0.6690  0.2392
38673SOL    HW118026  10.699   8.978   7.908 -0.2857 -0.1384 -0.0716
38673SOL    HW218027  10.636   9.111   7.871  0.9423  0.3523 -0.4656
38674SOL     OW18028   4.958   7.036   6.361 -0.4902 -0.5140 -0.1977
38674SOL    HW118029   4.914   7.036   6.276 -2.5830 -2.0159  0.7683
38674SOL    HW218030   5.035   6.981   6.349 -0.8846 -0.8914 -1.0837
38675SOL     OW18031   4.420   9.451   9.477  0.2635  0.2403 -0.3199
38675SOL    HW118032   4.366   9.502   9.538  1.6068 -0.6859  1.7682
38675SOL    HW218033   4.358   9.390   9.436 -0.7076  1.0024 -0.0418
38676SOL     OW18034   3.577   0.798   7.441 -0.0049  0.4306 -0.2729
38676SOL    HW118035   3.606   0.714   7.478 -0.5741 -0.9666 -2.7241
38676SOL    HW218036   3.653   0.855   7.448  0.7482 -0.6245  0.5432
38677SOL     OW18037   1.003   6.825   8.346  0.3775 -0.3628 -0.3127
38677SOL    HW118038   0.960   6.854   8.265 -1.4628 -1.4384  0.2271
38677SOL    HW218039   1.065   6.895   8.366 -1.5054  1.5784 -0.8667
38678SOL     OW18040   0.067   8.745   7.106  0.8109 -0.0418  0.4494
38678SOL    HW118041   0.041   8.667   7.056 -0.2906  1.4126 -1.3474
38678SOL    HW218042  -0.016   8.786   7.130  1.3757  1.1379  0.4352
38679SOL     OW18043   0.883   8.422  10.002 -0.8445  0.8170 -0.1840
38679SOL    HW118044   0.935   8.478  10.060 -1.6252  1.2168  0.1475
38679SOL    HW218045   0.938   8.346   9.985 -1.0298  0.1308  2.0169
38680SOL     OW18046   0.522   7.996   2.662 -0.2048 -0.0008 -0.0890
38680SOL    HW118047   0.464   8.016   2.736 -0.1822  0.2372 -0.1345
38680SOL    HW218048   0.600   8.047   2.679 -1.3583  2.5619 -1.8454
38681SOL     OW18049   1.702   3.129   8.977 -0.2466 -0.1614 -0.3657
38681SOL    HW118050   1.656   3.159   8.899 -1.4958  1.2573  0.8586
38681SOL    HW218051   1.638   3.076   9.024  0.6105 -1.3097 -0.4561
38682SOL     OW18052   8.792   4.079   9.299  0.4393  0.8460  0.1293
38682SOL    HW118053   8.713   4.085   9.351  0.0592  2.0512 -0.5370
38682SOL    HW218054   8.860   4.121   9.353  0.3891  0.7531  0.2645
38683SOL     OW18055   8.549   2.032   8.301 -0.2159 -0.6083 -0.7122
38683SOL    HW118056   8.597   2.004   8.379 -1.1342 -0.3221 -0.0208
38683SOL    HW218057   8.551   1.956   8.243 -0.4239 -1.2077  0.0422
38684SOL     OW18058   5.999   1.335   2.863  0.7644 -0.1475  0.3838
38684SOL    HW118059   5.953   1.253   2.882  0.9500 -0.1750  0.7412
38684SOL    HW218060   5.988   1.349   2.769 -1.1831  0.5796  0.6840
38685SOL     OW18061   9.553   5.031   8.956  0.7271 -0.0535  0.0648
38685SOL    HW118062   9.582   5.089   8.885  0.2226  1.2690  0.9116
38685SOL    HW218063   9.575   4.943   8.925  1.9925  0.6118 -1.0323
38686SOL     OW18064   4.276   1.410   1.169 -0.2703 -0.0586  0.5547
38686SOL    HW118065   4.347   1.473   1.154 -2.2607  1.7600 -2.0599
38686SOL    HW218066   4.272   1.400   1.264  0.2933  3.6747  1.1002
38687SOL     OW18067   6.375   3.794  10.695 -0.1972 -0.6830  0.1508
38687SOL    HW118068   6.358   3.745  10.615  1.0786 -1.5760  0.4009
38687SOL    HW218069   6.447   3.748  10.737 -0.9157 -0.3160  1.8940
38688SOL     OW18070   9.555   6.548   5.171 -0.2768 -0.4635 -0.4003
38688SOL    HW118071   9.612   6.485   5.127  0.0693 -1.1118  0.9317
38688SOL    HW218072   9.483   6.562   5.109 -0.5339 -2.4145 -0.6211
38689SOL     OW18073  10.605   9.041   5.984  0.0550  0.0072 -0.6181
38689SOL    HW118074  10.535   9.102   6.005  0.6897  1.0592 -1.4766
38689SOL    HW218075  10.569   8.954   6.004 -1.2421  0.5783 -0.4342
38690SOL     OW18076   2.033   7.809  10.769  0.2013  0.3503  0.4239
38690SOL    HW118077   1.981   7.803  10.849  1.3977  1.7186  1.3485
38690SOL    HW218078   2.029   7.902  10.745  1.3775  0.2910 -0.0570
38691SOL     OW18079   9.706   8.614   4.851 -0.0468 -0.3388 -0.2818
38691SOL    HW118080   9.744   8.700   4.870 -1.6232  0.4079 -0.3627
38691SOL    HW218081   9.738   8.558   4.921  0.8398  0.3608 -0.1092
38692SOL     OW18082   3.514   5.339  10.951 -0.2449  0.3193  0.4478
38692SOL    HW118083   3.581   5.298  11.006  0.3617  0.0825 -0.4579
38692SOL    HW218084   3.516   5.431  10.977  1.5074  0.6306 -0.5976
38693SOL     OW18085   0.560   4.969   7.360 -0.3787  0.4143 -0.7958
38693SOL    HW118086   0.495   4.968   7.289  0.5976  0.0009 -1.7109
38693SOL    HW218087   0.555   4.882   7.398 -0.7220  0.5532 -0.5162
38694SOL     OW18088   7.557   5.450  10.955 -0.9469  0.6316  0.7250
38694SOL    HW118089   7.631   5.409  10.910 -0.9449  1.7499 -0.3599
38694SOL    HW218090   7.589   5.470  11.043 -1.0856 -2.0230  1.4498
38695SOL     OW18091   8.324   5.426   8.523  0.6924 -0.0217  0.1031
38695SOL    HW118092   8.260   5.385   8.581  1.3729 -0.1857  0.7542
38695SOL    HW218093   8.278   5.435   8.440 -0.7194  1.2878  0.9569
38696SOL     OW18094   0.211   4.076   9.955 -0.4800 -0.6177 -0.3264
38696SOL    HW118095   0.139   4.120  10.000 -0.5935  1.0015 -1.9536
38696SOL    HW218096   0.168   4.014   9.896 -0.3276 -2.8545  1.7473
38697SOL     OW18097   8.894   0.785   3.835 -0.4221 -0.6490 -0.4552
38697SOL    HW118098   8.904   0.703   3.788 -2.6750 -0.8356 -0.7451
38697SOL    HW218099   8.908   0.762   3.927 -0.7666 -1.3053 -0.5621
38698SOL     OW18100   1.613   6.112   0.123 -0.2791 -0.0388  0.1314
38698SOL    HW118101   1.679   6.178   0.142 -0.6813  0.4631 -0.2020
38698SOL    HW218102   1.536   6.139   0.173 -0.1979 -0.7034  0.6401
38699SOL     OW18103   9.096   4.718   6.015  0.3379 -0.0885 -0.2058
38699SOL    HW118104   9.149   4.743   6.090 -0.3076 -1.3366  0.6991
38699SOL    HW218105   9.111   4.788   5.951  0.3744  1.3664  1.3121
38700SOL     OW18106   1.111   3.602   4.280  0.2331  0.1698 -0.6114
38700SOL    HW118107   1.156   3.668   4.332  0.2482  0.2200 -0.6879
38700SOL    HW218108   1.119   3.521   4.331  1.8187 -0.1988 -1.3548
38701SOL     OW18109   4.519   3.866   1.438  0.1260 -0.4471 -0.0053
38701SOL    HW118110   4.527   3.842   1.346  0.3578  0.0363 -0.1151
38701SOL    HW218111   4.466   3.797   1.477 -0.4666 -0.3435 -0.6224
38702SOL     OW18112   6.050   6.263   0.595  0.3655  0.1541 -0.1271
38702SOL    HW118113   6.038   6.353   0.566  2.4080  0.9604  1.2695
38702SOL    HW218114   5.969   6.241   0.640  0.3148  1.7680  0.6217
38703SOL     OW18115  11.007   1.076   3.331  0.1444 -0.4162 -0.5389
38703SOL    HW118116  10.969   1.160   3.355  0.3172 -0.4828 -0.0138
38703SOL    HW218117  10.944   1.011   3.362  1.1457 -0.5722  1.3035
38704SOL     OW18118   6.354   2.242   7.225 -0.0197 -0.4148  0.2792
38704SOL    HW118119   6.300   2.312   7.189 -0.8054 -0.2229  1.7453
38704SOL    HW218120   6.389   2.279   7.307 -0.9922 -1.9422  1.4233
38705SOL     OW18121   4.164   2.410   0.158  1.0520  0.0450 -0.3041
38705SOL    HW118122   4.252   2.444   0.146  0.6154  0.9771 -0.9892
38705SOL    HW218123   4.108   2.488   0.157  0.3672 -0.3343  1.8986
38706SOL     OW18124   2.752   9.713   9.132 -0.1102  0.3148  0.0366
38706SOL    HW118125   2.823   9.657   9.162 -0.3146  0.1277  0.1820
38706SOL    HW218126   2.794   9.778   9.076  0.0766 -0.2337 -0.4720
38707SOL     OW18127   1.671   4.943   0.254 -0.0611  0.7345 -0.1697
38707SOL    HW118128   1.585   4.907   0.274 -0.2027  0.5442 -1.0760
38707SOL    HW218129   1.654   5.009   0.186  0.6749 -0.4107 -1.5123
38708SOL     OW18130   6.789   0.345   7.229 -0.5745  0.0397  0.7254
38708SOL    HW118131   6.847   0.324   7.156 -0.3579 -1.1672  1.2210
38708SOL    HW218132   6.703   0.318   7.199 -1.1953  2.8936 -0.4739
38709SOL     OW18133   6.362   1.194   0.893  0.1513  0.0586 -0.5980
38709SOL    HW118134   6.376   1.103   0.869  0.8372 -0.1736  0.5980
38709SOL    HW218135   6.422   1.243   0.837  0.5676 -0.3210 -0.4849
38710SOL     OW18136   1.853   9.653  10.204 -0.6255 -0.5615 -0.3894
38710SOL    HW118137   1.942   9.674  10.230 -1.2465  1.2268  0.4851
38710SOL    HW218138   1.831   9.574  10.254 -0.8074  1.1882  2.5565
38711SOL     OW18139   7.812   6.630   9.265 -0.4210 -0.2774  0.1439
38711SOL    HW118140   7.745   6.620   9.197  0.0453  1.5238 -0.6324
38711SOL    HW218141   7.861   6.548   9.262 -0.5395 -0.3226 -1.5812
38712SOL     OW18142   6.330   4.386   1.550  0.3262  0.7128 -0.2361
38712SOL    HW118143   6.372   4.300   1.543 -1.6567 -0.5500  2.2509
38712SOL    HW218144   6.280   4.394   1.469 -0.1737 -0.9109 -0.1306
38713SOL     OW18145   6.718   3.796   3.993  0.2485  0.1012  0.1352
38713SOL    HW118146   6.726   3.888   3.965 -2.5058  0.4900  0.3652
38713SOL    HW218147   6.699   3.802   4.087 -2.5700 -0.4911 -0.3326
38714SOL     OW18148   1.755   0.936   5.522  0.3233 -0.2141  0.1098
38714SOL    HW118149   1.829   0.945   5.583  1.6312  0.7134 -1.5422
38714SOL    HW218150   1.796   0.932   5.436 -1.4920 -1.3480 -0.7600
38715SOL     OW18151   8.031   8.162   3.240 -0.1124  0.5886 -0.2222
38715SOL    HW118152   7.977   8.230   3.199 -0.7815 -0.7083 -1.6111
38715SOL    HW218153   8.032   8.091   3.176  0.0302 -0.9718  1.4214
38716SOL     OW18154   8.955   0.206   9.697  0.3295 -0.2739  0.3501
38716SOL    HW118155   8.947   0.120   9.655 -1.6441 -0.3994  0.9004
38716SOL    HW218156   9.020   0.252   9.644 -0.4177 -1.2206 -1.4824
38717SOL     OW18157   0.532   4.349   7.689  0.2731  0.0048  0.4978
38717SOL    HW118158   0.622   4.362   7.659  0.2074  0.6961  0.5667
38717SOL    HW218159   0.539   4.318   7.779  0.4579 -1.1257  0.1039
38718SOL     OW18160  10.503   8.101  10.000 -0.4927 -0.6879 -0.3499
38718SOL    HW118161  10.558   8.156  10.056 -0.4630 -2.1291  1.1239
38718SOL    HW218162  10.549   8.016   9.998 -3.0554 -2.2885  1.7628
38719SOL     OW18163   9.996   4.269   3.990  0.1028  0.3556 -0.0781
38719SOL    HW118164   9.908   4.294   3.963  0.3559  0.0401 -1.2296
38719SOL    HW218165  10.052   4.293   3.917  0.7657 -0.7641  0.0371
38720SOL     OW18166   1.122   3.573  10.551 -0.3902  0.3283 -0.1356
38720SOL    HW118167   1.098   3.534  10.635  2.3299 -0.1080  0.5447
38720SOL    HW218168   1.081   3.516  10.485 -1.2505 -0.2484  0.8680
38721SOL     OW18169   4.493   6.360   0.526 -0.1448  0.1214  0.5913
38721SOL    HW118170   4.511   6.306   0.449  1.3483 -1.4363  1.9590
38721SOL    HW218171   4.533   6.445   0.505 -2.2179  0.7051 -1.4396
38722SOL     OW18172  10.771   0.553   9.503  0.1123  0.6436 -0.3060
38722SOL    HW118173  10.686   0.592   9.481  1.0173  2.3021 -1.0054
38722SOL    HW218174  10.814   0.540   9.419  0.6631  0.0570  0.0592
38723SOL     OW18175   0.770   6.741   1.017 -0.3926 -0.6322 -0.4459
38723SOL    HW118176   0.786   6.755   0.924 -1.7312 -0.4956 -0.6837
38723SOL    HW218177   0.837   6.679   1.045  0.2724 -0.3546 -1.3966
38724SOL     OW18178   7.951   2.948   7.387  0.2261 -0.1996  0.1125
38724SOL    HW118179   7.997   2.911   7.311 -1.9396  0.0763 -1.4410
38724SOL    HW218180   7.965   3.042   7.381 -0.3342 -0.1342 -0.2426
38725SOL     OW18181   5.298   4.302   9.997  1.0791 -0.1521 -0.1825
38725SOL    HW118182   5.346   4.292   9.915  0.3885  0.7362 -0.7181
38725SOL    HW218183   5.212   4.264   9.978  1.2828 -0.9741  0.4994
38726SOL     OW18184   4.570   8.908   5.020 -0.2875 -0.8350  0.2033
38726SOL    HW118185   4.650   8.944   4.983 -0.7236 -0.3507 -0.2869
38726SOL    HW218186   4.550   8.831   4.967 -0.9083 -0.1455 -0.5882
38727SOL     OW18187   8.526   3.687  10.079 -0.0701  0.2805 -0.5288
38727SOL    HW118188   8.460   3.676  10.011 -1.9340 -1.5620  1.4297
38727SOL    HW218189   8.568   3.601  10.086  2.0992  1.2146 -1.2284
38728SOL     OW18190   8.094   9.534   0.958 -0.0504 -0.2373 -0.4108
38728SOL    HW118191   8.175   9.558   1.003 -0.4455 -1.6568  1.2006
38728SOL    HW218192   8.051   9.617   0.939  0.7226  0.4646  0.7860
38729SOL     OW18193   1.662   3.500   4.694  0.5624 -0.3548 -0.0118
38729SOL    HW118194   1.678   3.427   4.634 -0.3186 -1.4579  1.0478
38729SOL    HW218195   1.613   3.564   4.642  1.7317 -0.2992 -1.0797
38730SOL     OW18196   8.160   7.077   4.133 -0.7170 -0.3265 -0.0925
38730SOL    HW118197   8.076   7.121   4.117 -0.9040 -1.0626 -1.2783
38730SOL    HW218198   8.202   7.075   4.047 -0.3154 -1.6302  0.1187
38731SOL     OW18199  10.267   3.147  10.777  0.0087 -0.1035 -0.3042
38731SOL    HW118200  10.345   3.110  10.736 -1.2315 -1.8668 -1.2019
38731SOL    HW218201  10.203   3.076  10.775 -0.9971  0.5944  2.2908
38732SOL     OW18202   6.329   5.231   3.514  0.2698  0.0096 -0.0498
38732SOL    HW118203   6.279   5.187   3.444 -0.5125  2.3764 -1.0921
38732SOL    HW218204   6.419   5.229   3.483  0.2790 -0.9644  0.0022
38733SOL     OW18205   2.666   6.101   0.495  0.8755 -0.1419  0.3096
38733SOL    HW118206   2.589   6.077   0.547 -0.5973 -0.3523 -1.8271
38733SOL    HW218207   2.671   6.196   0.502 -0.2137 -0.0168 -0.2822
38734SOL     OW18208   1.107   4.761  10.817  0.1571  0.0610  0.0316
38734SOL    HW118209   1.077   4.832  10.873 -0.3566 -0.1858  0.0727
38734SOL    HW218210   1.028   4.730  10.772  0.8023  1.4473 -2.2220
38735SOL     OW18211   4.577   4.008   8.126 -0.1985 -0.4973 -0.3835
38735SOL    HW118212   4.644   4.075   8.111 -0.5346  0.0385  0.4540
38735SOL    HW218213   4.524   4.043   8.198 -1.3457 -0.9347 -0.9950
38736SOL     OW18214   9.974   9.080   4.740 -0.6091 -0.6729  0.7415
38736SOL    HW118215   9.956   9.170   4.711 -1.7313 -0.8369  0.8689
38736SOL    HW218216  10.058   9.059   4.700  0.6078  1.0724  2.2202
38737SOL     OW18217   2.276   0.364  10.279 -0.3207  0.0052  0.2751
38737SOL    HW118218   2.287   0.453  10.247 -2.2380 -0.0968 -0.8422
38737SOL    HW218219   2.185   0.342  10.259 -0.4092 -1.6014  2.0854
38738SOL     OW18220   9.246   5.358   3.948  0.3434 -0.2115  0.0626
38738SOL    HW118221   9.338   5.361   3.975  0.2726  0.1113  0.2766
38738SOL    HW218222   9.234   5.437   3.895 -0.1037  0.3542  0.9860
38739SOL     OW18223   3.055   3.959   7.822 -0.3548 -0.6306  0.2629
38739SOL    HW118224   3.026   3.871   7.798 -0.2561 -1.0362  1.5797
38739SOL    HW218225   3.132   3.944   7.878 -0.6865  0.2731  0.9732
38740SOL     OW18226   2.015   0.939  10.616 -0.3035  0.3651  0.2165
38740SOL    HW118227   1.933   0.890  10.608  0.1996 -0.2110 -2.3222
38740SOL    HW218228   2.055   0.905  10.696 -1.4177 -1.1061  0.1989
38741SOL     OW18229  10.339   9.963   0.157  0.1038  0.2434 -0.1794
38741SOL    HW118230  10.303   9.884   0.199  0.4560  0.0662 -0.2044
38741SOL    HW218231  10.350   9.939   0.065  0.8573  0.0805 -0.0611
38742SOL     OW18232   7.164   9.494   5.082  0.1082  0.7381  0.0098
38742SOL    HW118233   7.152   9.536   5.167 -0.3818  0.6614 -0.0174
38742SOL    HW218234   7.147   9.563   5.018 -3.8758 -0.1258 -0.1240
38743SOL     OW18235   9.923   9.536   9.396 -0.2216  0.3845 -0.4079
38743SOL    HW118236   9.878   9.452   9.407  1.5457 -0.3385  2.1339
38743SOL    HW218237   9.905   9.584   9.478 -0.0547  1.9368 -1.2367
38744SOL     OW18238   1.751   4.794   9.792 -0.3074  0.1374 -0.6798
38744SOL    HW118239   1.840   4.795   9.826  0.2534  1.2430 -2.1025
38744SOL    HW218240   1.697   4.825   9.865  0.4816 -0.2993  0.1074
38745SOL     OW18241   8.136   3.491   0.603 -0.0392  0.1036 -0.0060
38745SOL    HW118242   8.081   3.552   0.554  0.6372 -0.5123 -1.5867
38745SOL    HW218243   8.175   3.435   0.536 -1.5450 -2.8770  1.4349
38746SOL     OW18244   8.726   2.006   1.154 -0.3056 -0.0222 -0.1922
38746SOL    HW118245   8.664   2.078   1.140 -1.3187 -0.8052  0.1940
38746SOL    HW218246   8.723   1.956   1.072 -0.6768 -0.4186  0.0578
38747SOL     OW18247   1.314   0.573   6.765  0.5232 -0.2657  0.3854
38747SOL    HW118248   1.363   0.528   6.834 -0.0759 -0.0348  0.9722
38747SOL    HW218249   1.228   0.589   6.804 -0.4080 -1.6448 -1.0106
38748SOL     OW18250   8.278   2.138   3.478 -0.3097 -0.8133 -0.2172
38748SOL    HW118251   8.322   2.101   3.402 -0.2164 -1.5181  0.1741
38748SOL    HW218252   8.332   2.213   3.503  0.6764 -1.6603  0.2545
38749SOL     OW18253   7.760   5.614  10.222  0.7516 -0.2287 -0.2530
38749SOL    HW118254   7.818   5.538  10.209  0.6945 -0.5731  1.3290
38749SOL    HW218255   7.795   5.681  10.163  2.1093 -0.7851 -0.1186
38750SOL     OW18256   5.564   1.036   8.471  0.0840  0.4107 -0.0067
38750SOL    HW118257   5.517   1.064   8.549 -0.3014 -1.5414  0.5303
38750SOL    HW218258   5.613   0.959   8.500  0.5262  0.0950 -1.5114
38751SOL     OW18259   9.319   1.070  10.524  0.0192  0.3568 -0.0322
38751SOL    HW118260   9.270   1.127  10.583  0.4837 -0.4310  1.1620
38751SOL    HW218261   9.256   1.044  10.457 -0.2895  1.9506 -0.3904
38752SOL     OW18262   5.168   3.162   3.900  0.2378  0.7866 -0.4839
38752SOL    HW118263   5.179   3.177   3.806 -1.1393  0.7715 -0.6682
38752SOL    HW218264   5.188   3.246   3.940  0.8798  0.7836 -0.7819
38753SOL     OW18265   4.527   6.141   1.723  0.4443 -0.1561 -0.1672
38753SOL    HW118266   4.463   6.071   1.715  0.6913 -0.2124 -2.1614
38753SOL    HW218267   4.582   6.115   1.797 -1.2263 -0.5613  0.9898
38754SOL     OW18268   8.155   1.471   3.609  0.0594 -0.6233  0.1318
38754SOL    HW118269   8.116   1.509   3.687 -0.4242  0.2285 -0.4980
38754SOL    HW218270   8.245   1.504   3.608 -0.6234  1.3780 -0.9074
38755SOL     OW18271  10.166   1.187   9.158  0.1196  0.1829 -0.1193
38755SOL    HW118272  10.113   1.108   9.166  0.4834 -0.4912 -3.1213
38755SOL    HW218273  10.150   1.236   9.239 -0.9537 -2.4235  1.3571
38756SOL     OW18274   0.742   4.448   1.951  0.2701 -0.0941  0.2236
38756SOL    HW118275   0.730   4.542   1.947  1.5601  0.0482 -0.9444
38756SOL    HW218276   0.653   4.413   1.960 -0.1587  1.2361  1.7274
38757SOL     OW18277   2.836   5.775   5.318  0.0820 -0.1894  0.0818
38757SOL    HW118278   2.802   5.863   5.332 -0.5004 -0.0503 -1.8042
38757SOL    HW218279   2.926   5.788   5.290  0.8811 -0.3941  2.4011
38758SOL     OW18280   9.743   7.922   0.418  0.5033 -0.2358 -0.3648
38758SOL    HW118281   9.806   7.866   0.463  0.1695 -0.4417 -0.1537
38758SOL    HW218282   9.688   7.958   0.487  1.0750  0.8192 -0.4423
38759SOL     OW18283   9.605   6.624   4.277 -0.0732  0.5197  0.7202
38759SOL    HW118284   9.661   6.546   4.281  1.1627  1.3512  0.5021
38759SOL    HW218285   9.614   6.665   4.363 -1.2629  0.0701  1.0651
38760SOL     OW18286   3.239   3.365   3.050  0.0305  0.1643  0.4240
38760SOL    HW118287   3.263   3.454   3.022  1.8832 -0.3972  0.0682
38760SOL    HW218288   3.312   3.311   3.019 -0.2526 -1.2263  2.1092
38761SOL     OW18289   8.762   3.331   2.603 -0.2488  0.2183 -0.3538
38761SOL    HW118290   8.724   3.419   2.602 -0.3363  0.1860 -1.1581
38761SOL    HW218291   8.694   3.276   2.563 -0.9135 -0.5411  1.7308
38762SOL     OW18292   4.872   1.318   5.770 -0.0007 -0.6572 -0.1788
38762SOL    HW118293   4.961   1.341   5.796 -0.3303 -0.3778  0.7611
38762SOL    HW218294   4.853   1.239   5.822 -0.1960 -0.8959 -0.6078
38763SOL     OW18295   5.413   6.807   4.639 -0.2517  0.6462 -0.1059
38763SOL    HW118296   5.432   6.713   4.645 -0.7336  0.5357 -0.2795
38763SOL    HW218297   5.401   6.835   4.729 -1.6071  0.2208 -0.1371
38764SOL     OW18298   3.536   3.086   3.313  0.4853  0.0614 -0.0779
38764SOL    HW118299   3.549   2.993   3.296 -0.1474  0.0793 -0.7188
38764SOL    HW218300   3.487   3.118   3.237 -0.3870  0.6522  0.7058
38765SOL     OW18301   2.918   6.140  10.246  0.0852  0.5587  0.3272
38765SOL    HW118302   2.949   6.095  10.167 -1.4640  0.4693 -0.2580
38765SOL    HW218303   2.977   6.214  10.256  1.5346 -0.5477  0.2373
38766SOL     OW18304   9.682   2.683  10.344  0.3018  0.0294 -0.3407
38766SOL    HW118305   9.733   2.735  10.407 -1.2897  1.3062 -0.0482
38766SOL    HW218306   9.595   2.676  10.383  0.0380 -1.5467 -1.1369
38767SOL     OW18307   6.429   9.740  10.425  0.1681  0.5413 -0.1035
38767SOL    HW118308   6.380   9.769  10.348 -0.1819  0.1237 -0.0437
38767SOL    HW218309   6.435   9.818  10.480 -1.9540  0.2116  0.6837
38768SOL     OW18310   9.169   3.238   9.553 -0.1779  0.5669 -0.7242
38768SOL    HW118311   9.217   3.317   9.531  0.4343  0.4662  0.2104
38768SOL    HW218312   9.105   3.266   9.618 -0.6082  0.4711 -1.0982
38769SOL     OW18313   6.969   8.829   8.431  0.5418 -0.0184 -1.7171
38769SOL    HW118314   6.990   8.821   8.338 -0.3578  0.5116 -1.9912
38769SOL    HW218315   6.878   8.799   8.437  1.5449 -3.2136 -0.4304
38770SOL     OW18316   8.150   3.098   1.386 -0.2339  0.3035  0.7293
38770SOL    HW118317   8.076   3.051   1.349 -0.1121  0.7981 -0.1798
38770SOL    HW218318   8.146   3.080   1.480 -0.9971 -0.3674  0.5774
38771SOL     OW18319   4.001   3.869   1.974 -0.4502 -0.3974  0.1943
38771SOL    HW118320   4.078   3.834   2.020  0.4888 -1.8555 -2.2815
38771SOL    HW218321   4.016   3.845   1.882 -3.8371 -0.6435 -0.4007
38772SOL     OW18322   8.619   4.362   7.502 -0.3864 -0.5998 -0.6329
38772SOL    HW118323   8.618   4.409   7.418  1.3095 -0.0200 -0.3719
38772SOL    HW218324   8.564   4.415   7.559  1.3240  1.0483 -0.4079
38773SOL     OW18325   6.480   0.302   2.215  0.1029 -0.1172 -0.0575
38773SOL    HW118326   6.479   0.322   2.122 -1.9450 -1.7552 -0.4647
38773SOL    HW218327   6.496   0.208   2.220 -1.0762 -0.2925  1.1405
38774SOL     OW18328   4.723   6.573  10.816  0.2426  0.1401 -0.6658
38774SOL    HW118329   4.766   6.592  10.899 -0.9807 -1.2201  0.3274
38774SOL    HW218330   4.642   6.624  10.818  1.1005  1.6579 -1.9478
38775SOL     OW18331   2.165   2.272  10.214  0.1113 -0.0663 -0.1109
38775SOL    HW118332   2.259   2.279  10.229  0.1376  2.0245 -0.9825
38775SOL    HW218333   2.126   2.289  10.300  0.5090  0.7032 -0.0756
38776SOL     OW18334   9.542   5.304   5.793  0.2793  0.4180 -0.0705
38776SOL    HW118335   9.452   5.333   5.800 -0.3636 -1.2761 -0.7316
38776SOL    HW218336   9.549   5.269   5.704  1.2426 -0.5201  0.3475
38777SOL     OW18337   5.892   8.459   9.041  0.2897  1.0051 -0.1422
38777SOL    HW118338   5.974   8.440   8.996 -0.0867  0.6584 -0.7028
38777SOL    HW218339   5.888   8.396   9.112 -0.0427  0.2213 -0.8346
38778SOL     OW18340   8.938   3.225   0.062  0.0852  0.0695  0.2506
38778SOL    HW118341   8.870   3.272   0.110  1.0771  0.0847  1.7166
38778SOL    HW218342   8.986   3.178   0.130  1.2646 -0.2847 -0.8017
38779SOL     OW18343   1.984   3.159   2.192  0.0249  0.3123 -0.0851
38779SOL    HW118344   1.921   3.153   2.264 -2.0691  0.4402 -1.8023
38779SOL    HW218345   1.941   3.114   2.119  1.2898  1.6458 -1.7350
38780SOL     OW18346   7.559   6.697   2.451  0.4748 -0.0748  0.4366
38780SOL    HW118347   7.565   6.613   2.405 -0.0044  0.6246 -0.9546
38780SOL    HW218348   7.643   6.706   2.496  0.3506 -1.5094  0.9916
38781SOL     OW18349   7.724   3.531   2.233 -0.3812 -0.3520 -0.0881
38781SOL    HW118350   7.751   3.450   2.188  0.9937  0.5796 -1.0122
38781SOL    HW218351   7.733   3.599   2.166 -0.5959  0.7205  0.9530
38782SOL     OW18352   0.957   9.043   5.342  0.2734 -0.0008  0.0760
38782SOL    HW118353   0.951   9.079   5.431  1.1699  1.5887 -0.4760
38782SOL    HW218354   0.888   8.977   5.339 -1.3360  1.5452  1.2046
38783SOL     OW18355   4.592   2.705   1.495  0.0396 -0.2733 -0.8415
38783SOL    HW118356   4.546   2.671   1.572 -2.2183  1.5697 -1.2851
38783SOL    HW218357   4.527   2.701   1.425  0.6649  2.0063 -1.6287
38784SOL     OW18358   9.510   4.045   1.564 -0.2625 -0.1380  0.5383
38784SOL    HW118359   9.520   4.080   1.475 -0.2037 -1.5195 -0.0276
38784SOL    HW218360   9.419   4.061   1.587 -0.5297 -0.6445 -0.1613
38785SOL     OW18361   2.544   5.561   1.900  0.6183 -0.2668  0.2608
38785SOL    HW118362   2.598   5.619   1.954 -0.3347 -2.0759  3.4328
38785SOL    HW218363   2.454   5.579   1.927 -0.3203  0.9394 -3.1333
38786SOL     OW18364   9.824  10.409   1.271 -0.5287 -0.7214  0.0944
38786SOL    HW118365   9.824  10.452   1.185  0.2997  0.7637  0.8043
38786SOL    HW218366   9.834  10.316   1.251 -0.1682 -0.3880 -1.4057
38787SOL     OW18367   1.916   1.539   3.119 -0.5924  0.2295 -0.5078
38787SOL    HW118368   1.965   1.573   3.193  0.8388 -1.3624 -0.6655
38787SOL    HW218369   1.865   1.466   3.155  0.0789 -0.5282 -1.0583
38788SOL     OW18370   3.537   2.181   3.665 -0.2186  0.3821 -0.1372
38788SOL    HW118371   3.546   2.276   3.658  1.5107  0.2305 -0.2601
38788SOL    HW218372   3.627   2.148   3.666 -0.7289 -1.1327  1.8600
38789SOL     OW18373   2.962   0.020   0.368  0.1318 -0.1826  0.2428
38789SOL    HW118374   2.933  -0.069   0.387 -1.6719  0.8007  2.5629
38789SOL    HW218375   3.045   0.028   0.415  0.3189 -0.6404 -0.0008
38790SOL     OW18376   8.132   4.914   1.445  0.9027 -0.3530 -0.4854
38790SOL    HW118377   8.070   4.951   1.381  2.6297 -0.7561 -2.5300
38790SOL    HW218378   8.083   4.911   1.527 -1.6660 -0.3767 -1.8994
38791SOL     OW18379  11.017   3.590   7.513 -0.1999  0.2538  0.1688
38791SOL    HW118380  11.074   3.559   7.583 -0.5177  0.3135  0.4573
38791SOL    HW218381  10.952   3.644   7.557  0.3164  1.3073 -0.3186
38792SOL     OW18382   0.254   2.454   1.220  0.2531  0.0464 -0.1184
38792SOL    HW118383   0.223   2.541   1.248  1.1131  0.2890  0.1064
38792SOL    HW218384   0.345   2.451   1.249  0.0548 -1.1784  0.4192
38793SOL     OW18385  10.531   3.539   9.876  0.4012 -0.0168 -0.1319
38793SOL    HW118386  10.580   3.531   9.794 -1.1985 -1.3230 -1.0345
38793SOL    HW218387  10.549   3.628   9.906  1.2826  0.3868 -1.7381
38794SOL     OW18388   9.351  10.331   7.222 -0.3455 -0.0842  0.3429
38794SOL    HW118389   9.355  10.390   7.147  3.1500 -0.7789 -0.2020
38794SOL    HW218390   9.324  10.386   7.296 -0.0242  1.4870 -0.6839
38795SOL     OW18391   1.755   1.550   0.725  0.2788 -0.1159 -0.1115
38795SOL    HW118392   1.717   1.623   0.677 -0.2657 -0.0424  0.4198
38795SOL    HW218393   1.803   1.500   0.659  0.7594  0.7817 -0.4617
38796SOL     OW18394   8.054   0.317   9.387  0.4528 -0.0679 -0.4146
38796SOL    HW118395   8.034   0.244   9.328  1.6617 -2.3287  1.7583
38796SOL    HW218396   7.979   0.320   9.447 -0.1835  1.3862 -1.2280
38797SOL     OW18397  10.816   8.821   6.471  0.2396 -0.0337 -0.2267
38797SOL    HW118398  10.889   8.827   6.409  1.7475 -0.6003  1.4040
38797SOL    HW218399  10.756   8.890   6.444  2.4521  1.9860 -0.3288
38798SOL     OW18400   4.748   0.230   1.884  0.2762 -0.0628 -0.1570
38798SOL    HW118401   4.786   0.261   1.966  0.9913 -1.6252  0.1600
38798SOL    HW218402   4.670   0.181   1.911 -0.5557  1.0010 -0.5911
38799SOL     OW18403   6.458   2.056   7.571 -0.0556  0.4168  0.4570
38799SOL    HW118404   6.378   2.100   7.543  0.7690  1.9463  0.3838
38799SOL    HW218405   6.432   1.965   7.587 -1.1472  0.0659 -2.6932
38800SOL     OW18406   9.533   5.536   0.860 -0.0851  0.1875  0.1294
38800SOL    HW118407   9.489   5.498   0.784  2.1388 -1.9648 -0.2413
38800SOL    HW218408   9.527   5.468   0.927  0.7708  0.7172  0.7605
38801SOL     OW18409   1.321   4.460   9.967 -0.6701  0.1999 -0.4316
38801SOL    HW118410   1.309   4.413  10.049 -0.9728 -0.4730 -0.8630
38801SOL    HW218411   1.413   4.487   9.968  0.4342 -3.0800 -1.5593
38802SOL     OW18412   4.964   7.929   7.555  0.2152 -0.3930  0.2788
38802SOL    HW118413   4.964   8.024   7.546 -2.9322 -0.3412 -0.4845
38802SOL    HW218414   4.924   7.897   7.474  2.3595 -2.5249 -0.0593
38803SOL     OW18415   5.324   3.018   8.374 -0.0415 -0.0811 -0.0501
38803SOL    HW118416   5.318   2.937   8.323  0.2499 -0.1685  0.0519
38803SOL    HW218417   5.398   3.065   8.336  1.0739 -0.7794  1.1828
38804SOL     OW18418   5.962  10.224   8.421 -0.8454  0.5989 -0.3380
38804SOL    HW118419   5.909  10.144   8.420 -1.7550  1.1953 -1.0794
38804SOL    HW218420   6.036  10.205   8.363 -1.4045  0.5076 -1.0394
38805SOL     OW18421   8.384   0.740   4.956  0.5865 -0.4614 -0.2164
38805SOL    HW118422   8.365   0.743   4.862  2.0029 -0.3731 -0.5227
38805SOL    HW218423   8.372   0.831   4.985  0.8907 -0.3296 -0.4836
38806SOL     OW18424   3.081   6.445   2.100 -0.3987 -0.3354  0.1519
38806SOL    HW118425   3.044   6.390   2.031  0.5739 -0.7263 -0.0690
38806SOL    HW218426   3.175   6.430   2.095 -0.1512  1.0448  0.3643
38807SOL     OW18427   4.922   4.210   5.616 -0.4066 -0.1931 -0.1582
38807SOL    HW118428   4.829   4.197   5.638 -1.1415  1.9728 -1.6255
38807SOL    HW218429   4.957   4.262   5.688 -0.8669  0.6093 -0.4968
38808SOL     OW18430   5.694   1.020   9.755 -0.3096 -0.0603  0.3423
38808SOL    HW118431   5.743   1.063   9.684 -1.0064 -0.2872 -0.2936
38808SOL    HW218432   5.703   0.927   9.736  0.5000 -0.1799  1.2470
38809SOL     OW18433   1.087   1.991   2.010  0.1143 -0.0247 -0.0844
38809SOL    HW118434   1.143   1.958   2.079 -0.6927  1.6345  1.4571
38809SOL    HW218435   1.140   2.056   1.964  0.0291  0.2934  0.2615
38810SOL     OW18436   2.032   5.201   9.707  0.2017  0.7734 -0.4986
38810SOL    HW118437   2.121   5.175   9.682 -0.5733 -3.1770  0.1933
38810SOL    HW218438   2.045   5.276   9.764  3.3315 -0.7053  1.0121
38811SOL     OW18439   9.729   2.798   9.637  0.0388  0.1558 -1.0252
38811SOL    HW118440   9.747   2.833   9.550  1.9133 -0.2067 -0.8360
38811SOL    HW218441   9.816   2.788   9.677 -0.6143 -1.9197  0.0081
38812SOL     OW18442   5.505   8.811   3.859 -0.2450  0.0284 -0.0435
38812SOL    HW118443   5.457   8.882   3.900 -0.6674  0.3105 -0.9904
38812SOL    HW218444   5.579   8.853   3.816  0.8849 -0.4100  1.4308
38813SOL     OW18445   0.729   7.439   8.665 -0.0007  0.1944  0.5101
38813SOL    HW118446   0.804   7.382   8.649 -0.6008 -0.6741  0.7659
38813SOL    HW218447   0.758   7.498   8.734  0.6059  0.1700  0.2838
38814SOL     OW18448   9.370   3.784   8.310  0.2975 -0.1640  0.3551
38814SOL    HW118449   9.315   3.805   8.385  0.5875 -1.1603  0.8657
38814SOL    HW218450   9.339   3.699   8.279 -0.2768  0.5450 -1.1068
38815SOL     OW18451  10.331   7.708   4.951 -0.3217 -0.6374 -0.3791
38815SOL    HW118452  10.416   7.666   4.938 -0.2856 -0.0658 -2.3110
38815SOL    HW218453  10.344   7.766   5.025  1.7097  1.1136 -1.9616
38816SOL     OW18454   0.674   5.053   0.683 -0.1156 -0.1504  0.3906
38816SOL    HW118455   0.715   5.070   0.599  0.4743  0.1288  0.7270
38816SOL    HW218456   0.702   4.965   0.706  0.6295  0.1777  0.7947
38817SOL     OW18457   9.653   5.744   9.475  0.4134  0.1707  0.1691
38817SOL    HW118458   9.725   5.682   9.489  1.1984  1.2560  1.1962
38817SOL    HW218459   9.588   5.695   9.425  1.6762 -0.9833 -0.4048
38818SOL     OW18460   6.403   5.674   1.809  0.1660  0.4485 -0.1155
38818SOL    HW118461   6.361   5.591   1.830 -0.7166  1.4169  2.3377
38818SOL    HW218462   6.483   5.674   1.861  1.1430  0.3657 -1.5780
38819SOL     OW18463   3.926   5.229   7.497 -0.3125 -0.1308  0.9914
38819SOL    HW118464   4.015   5.265   7.500 -0.4721  0.2981  0.6114
38819SOL    HW218465   3.885   5.271   7.422 -0.6888 -0.6826  0.8786
38820SOL     OW18466   7.266   3.561   1.978 -0.1002  0.4290  0.2598
38820SOL    HW118467   7.233   3.612   2.052 -0.8777  0.6796 -0.2456
38820SOL    HW218468   7.348   3.523   2.010 -0.5066  0.3894  1.3075
38821SOL     OW18469   1.399   5.815   5.107  0.6754 -0.0559 -0.1365
38821SOL    HW118470   1.390   5.895   5.055  4.1866  1.7591  1.7070
38821SOL    HW218471   1.449   5.755   5.051  1.2678  0.4656 -0.1668
38822SOL     OW18472   8.145   1.853   2.285  0.5731 -0.0768  0.4003
38822SOL    HW118473   8.110   1.928   2.236 -0.0492 -0.4625  0.2379
38822SOL    HW218474   8.202   1.892   2.352 -1.5093  0.7210  1.8125
38823SOL     OW18475   1.352   2.832   9.131 -0.4025  0.1619  0.2168
38823SOL    HW118476   1.344   2.813   9.225 -0.4927  0.5008  0.2774
38823SOL    HW218477   1.443   2.809   9.110 -0.6204 -0.7224  0.2015
38824SOL     OW18478   9.702   5.155   1.939  0.1419  0.4669 -0.7988
38824SOL    HW118479   9.741   5.103   1.869  0.0915  0.6479 -0.9620
38824SOL    HW218480   9.748   5.127   2.018  0.7353  0.8128 -1.0130
38825SOL     OW18481   8.766  10.243   9.906  0.8668 -0.0273  0.0224
38825SOL    HW118482   8.777  10.221   9.814  0.6518  1.1547 -0.2986
38825SOL    HW218483   8.726  10.165   9.945  0.0046 -0.1574 -1.0938
38826SOL     OW18484   6.728   6.485   0.792 -0.4691  0.0725  0.2545
38826SOL    HW118485   6.690   6.567   0.760  0.1485  0.5098  0.6231
38826SOL    HW218486   6.667   6.417   0.762 -0.5379  0.5805 -0.7969
38827SOL     OW18487  10.909   9.241   9.330 -0.0417  0.0068 -0.5589
38827SOL    HW118488  10.927   9.333   9.311 -1.9400  0.2406 -1.4584
38827SOL    HW218489  10.846   9.243   9.401  0.6538 -0.6458  0.0909
38828SOL     OW18490   9.048   7.320   0.079 -0.0471  0.1710 -0.3583
38828SOL    HW118491   9.103   7.269   0.138 -0.9951 -0.7032 -0.1835
38828SOL    HW218492   9.109   7.371   0.027  0.8539  0.1545  0.6528
38829SOL     OW18493  10.280   8.604   8.360 -0.2962 -0.6238  0.3435
38829SOL    HW118494  10.305   8.682   8.311 -0.0694 -0.0836  1.2950
38829SOL    HW218495  10.216   8.635   8.424 -0.1001 -1.1934  0.8276
38830SOL     OW18496   4.880   1.706   8.140 -0.0509  0.5339  0.4621
38830SOL    HW118497   4.811   1.681   8.201 -0.0592  0.2503  0.3341
38830SOL    HW218498   4.838   1.706   8.054  0.5174 -1.3325  0.1481
38831SOL     OW18499   0.259  10.165   2.340  0.1568 -0.5994  0.6701
38831SOL    HW118500   0.175  10.136   2.304  0.6148 -0.5845 -0.4528
38831SOL    HW218501   0.314  10.086   2.340  1.1333 -0.0102 -1.5940
38832SOL     OW18502   9.745   4.466   4.732  0.5320 -0.2102  0.2613
38832SOL    HW118503   9.671   4.406   4.724  0.8554 -0.4795 -0.9405
38832SOL    HW218504   9.713   4.536   4.790 -0.1641 -1.0454  0.9117
38833SOL     OW18505   0.430   8.196  10.845  0.3597 -0.0268 -0.0746
38833SOL    HW118506   0.463   8.239  10.766  0.5532 -0.7818 -0.4106
38833SOL    HW218507   0.449   8.103  10.832 -0.2757 -0.2536  0.5287
38834SOL     OW18508   3.011   0.305   2.569 -0.1809 -0.3052 -0.1886
38834SOL    HW118509   3.057   0.387   2.585 -1.2688  0.0423  1.5125
38834SOL    HW218510   3.059   0.240   2.621 -0.9385 -0.1436  0.7552
38835SOL     OW18511   9.644  10.312  10.341 -0.5278  0.0142  0.2249
38835SOL    HW118512   9.672  10.391  10.294 -0.0044 -0.6832 -0.6535
38835SOL    HW218513   9.573  10.276  10.288 -2.6319  1.2988  1.9879
38836SOL     OW18514   0.091   9.436   1.019  0.0614 -0.5830 -0.0241
38836SOL    HW118515   0.132   9.349   1.019 -0.2995 -0.7543  0.1198
38836SOL    HW218516   0.036   9.437   1.097 -0.8697 -0.6750 -0.6617
38837SOL     OW18517   9.235   4.162   8.730  0.1615 -0.2450 -0.0248
38837SOL    HW118518   9.154   4.124   8.698 -0.9995  2.2766 -0.3352
38837SOL    HW218519   9.209   4.209   8.810  1.6012 -0.5480  0.6478
38838SOL     OW18520   5.061   5.652   1.993  0.6312  0.5843 -0.1866
38838SOL    HW118521   5.015   5.710   2.053  1.0330 -0.2609  0.9764
38838SOL    HW218522   5.050   5.692   1.907 -0.4963  1.4878  0.3586
38839SOL     OW18523   4.222  10.672   1.601  0.1369  0.0918 -0.2005
38839SOL    HW118524   4.209  10.627   1.684  0.2638  1.8593  0.8349
38839SOL    HW218525   4.135  10.700   1.575  0.0727 -0.6207 -0.7845
38840SOL     OW18526   1.510  11.064  10.157  0.0816  0.3902  0.0955
38840SOL    HW118527   1.439  11.007  10.129  0.0304 -1.4533  3.4226
38840SOL    HW218528   1.582  11.044  10.097 -0.5067 -1.9508  0.0723
38841SOL     OW18529   4.062  10.965   2.682  0.0335 -0.4100 -0.4144
38841SOL    HW118530   4.022  10.921   2.757  1.1250 -0.4194  0.1841
38841SOL    HW218531   4.052  11.058   2.701  1.6510 -0.3916  0.5276
38842SOL     OW18532   9.751   0.678   0.957  0.0339  0.0538 -0.0380
38842SOL    HW118533   9.814   0.622   1.002  0.1678 -0.6170 -1.0159
38842SOL    HW218534   9.666   0.636   0.972  0.2192 -0.8986 -1.4096
38843SOL     OW18535   9.292   4.693   7.587  0.7249  0.1522  0.2461
38843SOL    HW118536   9.314   4.764   7.526  0.4264  0.7731  0.8539
38843SOL    HW218537   9.227   4.641   7.540 -0.6315  1.4813  0.5944
38844SOL     OW18538   4.145   1.768   1.433 -0.2643  0.0873  0.7908
38844SOL    HW118539   4.074   1.726   1.383  0.4513  0.5882 -0.6865
38844SOL    HW218540   4.225   1.725   1.403  0.2608  0.9243  0.9593
38845SOL     OW18541   8.246  10.188   0.023 -0.6257 -0.5444  0.1351
38845SOL    HW118542   8.214  10.266   0.069  0.5321  0.3788 -0.5612
38845SOL    HW218543   8.187  10.180  -0.052  0.5205  1.0289 -1.0252
38846SOL     OW18544   5.283   3.967   4.276  0.2184 -0.0229 -0.3198
38846SOL    HW118545   5.273   3.919   4.358  3.3094 -2.0939 -0.9751
38846SOL    HW218546   5.203   4.020   4.269 -0.7171 -0.6634  3.3556
38847SOL     OW18547   9.358   6.827   1.746  0.4893 -0.2563 -0.9292
38847SOL    HW118548   9.275   6.841   1.700  0.2622  0.5917 -0.2956
38847SOL    HW218549   9.332   6.796   1.833  0.6476  2.5512  0.2333
38848SOL     OW18550   8.107   7.162   3.497 -0.6064  0.2038 -0.2573
38848SOL    HW118551   8.044   7.218   3.543  0.4458  1.1439  0.0953
38848SOL    HW218552   8.120   7.087   3.556 -0.4747  0.6114  0.2344
38849SOL     OW18553   7.378   2.652   4.507  0.0498 -0.7110  0.1077
38849SOL    HW118554   7.410   2.716   4.571  1.3623 -0.7822 -0.4409
38849SOL    HW218555   7.366   2.701   4.426 -4.2531 -0.0082  0.9497
38850SOL     OW18556   5.106   9.090   4.191  0.0364  0.2407 -0.0898
38850SOL    HW118557   5.179   9.148   4.171  1.1653 -1.2482 -0.5105
38850SOL    HW218558   5.124   9.059   4.280  0.6122 -1.0555 -0.6288
38851SOL     OW18559   5.835   0.167   0.440  0.7874 -0.1624 -0.5912
38851SOL    HW118560   5.771   0.164   0.369  0.4419  0.6485 -0.3346
38851SOL    HW218561   5.859   0.260   0.446  0.8473 -0.2277  0.3081
38852SOL     OW18562   3.153   5.789  10.883  0.1903  0.6018  0.0147
38852SOL    HW118563   3.135   5.699  10.910 -0.3540  0.3832 -1.0064
38852SOL    HW218564   3.233   5.812  10.930  0.9684 -0.8125 -0.5305
38853SOL     OW18565   4.284   3.325   4.458 -0.3687 -0.1198 -0.1341
38853SOL    HW118566   4.276   3.230   4.454  3.0407 -0.5992  1.1419
38853SOL    HW218567   4.231   3.351   4.534 -2.4611 -0.7353 -1.3144
38854SOL     OW18568   6.802   6.970   0.562 -0.6088 -1.2160 -0.0482
38854SOL    HW118569   6.852   6.919   0.627  0.8201 -0.3765 -0.4370
38854SOL    HW218570   6.840   7.058   0.567 -1.4684 -0.7728 -1.0060
38855SOL     OW18571   8.299   5.801  11.097  0.0627  0.1168  0.1470
38855SOL    HW118572   8.233   5.732  11.096  0.3382 -0.1481 -0.3936
38855SOL    HW218573   8.330   5.803  11.187  1.3876 -1.7916 -0.2088
38856SOL     OW18574   8.081   0.448   2.761  0.5837 -0.3368  0.5217
38856SOL    HW118575   8.026   0.519   2.794  0.8838 -0.7065  1.8724
38856SOL    HW218576   8.032   0.413   2.687 -0.2699  0.3213  0.7506
38857SOL     OW18577   0.012   3.846   6.052 -0.3661 -0.2357  0.8379
38857SOL    HW118578   0.053   3.858   5.966 -1.8234 -2.4695 -0.2792
38857SOL    HW218579   0.085   3.853   6.114  0.9048  0.3929 -0.6528
38858SOL     OW18580   7.302   4.299   8.389  0.2926 -0.2185  0.1253
38858SOL    HW118581   7.270   4.348   8.314 -0.1683 -1.1190 -0.2805
38858SOL    HW218582   7.281   4.353   8.465  0.6789  0.6501 -0.3808
38859SOL     OW18583  10.277   1.838   4.222 -0.2700 -0.5256 -0.0142
38859SOL    HW118584  10.225   1.774   4.174  1.6034 -0.4026 -2.3626
38859SOL    HW218585  10.238   1.922   4.200 -1.4205 -0.6615  1.3749
38860SOL     OW18586   4.547   4.095  10.298 -0.5673 -0.1541 -0.2711
38860SOL    HW118587   4.557   4.181  10.257  0.2486 -0.2011 -0.1797
38860SOL    HW218588   4.636   4.062  10.306 -0.7851 -0.5242  0.7505
38861SOL     OW18589   0.836   7.095   3.781 -0.1626 -0.3832 -0.6418
38861SOL    HW118590   0.776   7.072   3.851  0.3459 -2.0369 -0.7038
38861SOL    HW218591   0.780   7.114   3.706 -0.6540 -1.0903 -0.4705
38862SOL     OW18592   6.061   6.746   4.155  0.1972  0.3837  0.3073
38862SOL    HW118593   6.104   6.661   4.146 -2.2063 -0.7180 -2.2432
38862SOL    HW218594   6.042   6.754   4.248  1.7079 -1.1766  0.8054
38863SOL     OW18595   8.158   3.025   8.936  0.3180 -0.1265 -0.3601
38863SOL    HW118596   8.166   3.121   8.937  0.0787 -0.0987  0.6351
38863SOL    HW218597   8.222   2.996   8.871  0.7859  0.6825 -0.2751
38864SOL     OW18598   9.103   8.463   0.135 -0.0004 -0.0808 -0.2379
38864SOL    HW118599   9.083   8.530   0.069  0.7913  2.3880  1.8397
38864SOL    HW218600   9.018   8.442   0.175  0.0784  3.4132  2.2688
38865SOL     OW18601  10.362   0.395   2.377  0.4273  0.1715 -0.2496
38865SOL    HW118602  10.432   0.407   2.441 -0.6093 -0.1047  0.9960
38865SOL    HW218603  10.325   0.309   2.399  0.0278  0.0835 -1.2234
38866SOL     OW18604   6.799   9.124   8.906 -0.4957 -0.2010 -0.7639
38866SOL    HW118605   6.745   9.048   8.928  0.0624 -0.0328  1.3430
38866SOL    HW218606   6.875   9.087   8.862 -0.1898 -0.8744  0.3190
38867SOL     OW18607   0.150   3.931   6.891 -0.4065  0.0943  0.7212
38867SOL    HW118608   0.159   3.838   6.912  1.6712  0.4144  1.4846
38867SOL    HW218609   0.082   3.962   6.952  0.8605 -0.3750  2.4427
38868SOL     OW18610   0.789   6.837   9.417 -0.6169 -0.2750 -0.1575
38868SOL    HW118611   0.781   6.878   9.502 -1.2175 -0.4294 -0.1396
38868SOL    HW218612   0.871   6.787   9.422 -1.5837 -1.8453  1.0051
38869SOL     OW18613   4.772   2.742   6.687  0.2582 -0.3044  0.1979
38869SOL    HW118614   4.730   2.756   6.772  0.2960 -1.3039  0.3929
38869SOL    HW218615   4.700   2.725   6.627 -0.0078  2.8491 -0.5621
38870SOL     OW18616   5.462   4.923   4.845  0.2962  0.0945 -0.3332
38870SOL    HW118617   5.409   4.867   4.903  0.7330 -0.4087 -0.4087
38870SOL    HW218618   5.545   4.876   4.837  0.4524  0.4646 -0.8884
38871SOL     OW18619   9.402   7.870   9.697 -0.0630  0.0100 -0.5147
38871SOL    HW118620   9.320   7.919   9.690  0.3504  1.0167  1.0074
38871SOL    HW218621   9.381   7.799   9.759  0.0507 -0.0940 -0.5971
38872SOL     OW18622   3.213   5.813   4.670 -0.2803  0.0474  0.2207
38872SOL    HW118623   3.172   5.897   4.688 -0.6063  0.1286 -0.8103
38872SOL    HW218624   3.182   5.754   4.739 -1.1737  0.4112  0.1301
38873SOL     OW18625   5.498   8.866   2.082  0.0868  0.0883 -0.2692
38873SOL    HW118626   5.416   8.837   2.123  0.0302  0.8715  0.1927
38873SOL    HW218627   5.500   8.821   1.998 -0.2318 -0.8705  0.2223
38874SOL     OW18628   9.421   1.223   3.517  0.6643 -0.7365  0.2818
38874SOL    HW118629   9.396   1.307   3.480  2.2965  1.1160  3.0298
38874SOL    HW218630   9.339   1.180   3.539 -0.1861  0.7822  0.1556
38875SOL     OW18631   9.488   2.491   6.475 -0.6823 -0.3901 -0.0330
38875SOL    HW118632   9.529   2.563   6.524 -1.4163 -0.3808  0.5881
38875SOL    HW218633   9.542   2.415   6.496 -2.1895 -0.8743  2.6217
38876SOL     OW18634  10.925   9.044   8.552 -0.0503  0.1732  0.4840
38876SOL    HW118635  10.860   9.033   8.483  0.7775 -1.2718 -0.1119
38876SOL    HW218636  10.903   9.127   8.593  0.0676  1.6501 -2.2121
38877SOL     OW18637   4.531   9.459   6.141  0.2904 -0.3064  0.0726
38877SOL    HW118638   4.499   9.452   6.231 -0.4063  0.2272 -0.1254
38877SOL    HW218639   4.453   9.446   6.087  0.3484  1.1620 -0.4202
38878SOL     OW18640   6.347   4.213   6.286  0.2059 -0.4157 -0.2874
38878SOL    HW118641   6.328   4.293   6.237 -2.6578 -0.0346  1.2368
38878SOL    HW218642   6.291   4.147   6.245  0.8512 -1.0861 -0.0926
38879SOL     OW18643   9.372   7.365   2.526 -0.3163  0.2960  0.0171
38879SOL    HW118644   9.332   7.359   2.613 -0.2152 -1.2341 -0.0198
38879SOL    HW218645   9.448   7.306   2.530 -0.0784  0.5050 -0.9944
38880SOL     OW18646  10.136   7.243   2.463  0.0321  0.0599  0.2775
38880SOL    HW118647  10.046   7.250   2.496  0.6537  0.8576  1.9076
38880SOL    HW218648  10.130   7.177   2.394 -1.8143  0.1248  0.3032
38881SOL     OW18649   5.347   9.098   2.501  0.0100  0.0534 -0.2994
38881SOL    HW118650   5.372   9.029   2.563  1.7150  2.2181  1.5959
38881SOL    HW218651   5.307   9.165   2.556  0.7433  1.6821 -1.6716
38882SOL     OW18652   7.809   5.401   8.488  0.4446 -0.2717 -0.1903
38882SOL    HW118653   7.754   5.333   8.449 -1.2866  1.7738 -1.5300
38882SOL    HW218654   7.797   5.477   8.431  3.7777  0.6632  0.1637
38883SOL     OW18655  10.704   4.461   2.700 -0.0862 -0.3097 -0.0813
38883SOL    HW118656  10.791   4.498   2.713 -1.3780  2.3005  1.9614
38883SOL    HW218657  10.666   4.512   2.629 -0.1461 -1.1845 -0.7026
38884SOL     OW18658   9.023   3.814   0.082  0.2294  0.0995 -0.5795
38884SOL    HW118659   9.058   3.736   0.124  0.3927 -0.2750 -1.3842
38884SOL    HW218660   8.928   3.807   0.092  0.2951  0.2945  0.1972
38885SOL     OW18661   2.647   9.618   7.912  0.3985 -0.0520  0.2981
38885SOL    HW118662   2.673   9.603   7.821 -0.5277 -3.2858  0.4314
38885SOL    HW218663   2.552   9.623   7.910  0.4439  1.3342  0.9475
38886SOL     OW18664   4.098   9.681   5.932 -0.0229 -0.3177 -0.2712
38886SOL    HW118665   4.148   9.690   6.012 -1.8955 -1.6656  1.1516
38886SOL    HW218666   4.161   9.653   5.866  1.0686 -2.4109  1.5401
38887SOL     OW18667   8.302   3.239   0.233 -0.1704 -0.0595  0.1738
38887SOL    HW118668   8.233   3.241   0.299 -0.0665 -0.6617  0.3013
38887SOL    HW218669   8.291   3.154   0.189  1.4460 -0.8499  1.2147
38888SOL     OW18670   4.182   4.076   8.052 -0.1439  0.6016 -0.0792
38888SOL    HW118671   4.263   4.087   8.002  1.2967  0.7621  2.1619
38888SOL    HW218672   4.188   3.989   8.089 -1.9635 -0.1502 -1.3808
38889SOL     OW18673   1.810   1.271   4.337  0.1983  0.4209  0.4578
38889SOL    HW118674   1.734   1.330   4.336  0.1746  0.4068  1.1416
38889SOL    HW218675   1.873   1.314   4.394  0.1077 -0.2940  1.1158
38890SOL     OW18676   7.726   0.772   3.390 -0.0556  0.3655  0.1122
38890SOL    HW118677   7.784   0.749   3.462 -1.8309 -0.7509  1.2623
38890SOL    HW218678   7.651   0.815   3.432  0.5433  3.1828 -1.4539
38891SOL     OW18679   3.049   0.152   0.754  0.6893  0.3814 -0.0916
38891SOL    HW118680   3.046   0.247   0.770 -1.4748  0.3367  0.0246
38891SOL    HW218681   3.098   0.143   0.672 -0.2407  1.7234 -0.8273
38892SOL     OW18682   3.801   4.208   9.383 -0.6234  0.3061  0.0966
38892SOL    HW118683   3.875   4.269   9.380  0.4649 -0.7903  2.1287
38892SOL    HW218684   3.817   4.146   9.312  0.5638 -0.0397  0.6435
38893SOL     OW18685   8.380   3.358   2.007 -0.4591  0.2642 -0.5486
38893SOL    HW118686   8.287   3.338   2.011 -0.9446  2.3765  0.3165
38893SOL    HW218687   8.395   3.417   2.081  1.9947 -1.4826  0.4631
38894SOL     OW18688   1.376   2.516   0.449  0.4168  0.1199 -0.2609
38894SOL    HW118689   1.461   2.473   0.460 -0.2980 -1.6336 -1.1398
38894SOL    HW218690   1.338   2.516   0.537  0.4886 -0.9894 -0.2117
38895SOL     OW18691   9.759   2.102   6.998  0.3515  0.3092  0.4216
38895SOL    HW118692   9.712   2.175   7.039 -0.2610  0.4686 -0.5466
38895SOL    HW218693   9.695   2.059   6.942  1.1051 -0.0275 -0.2155
38896SOL     OW18694   5.843   3.836   2.016  0.1945  0.2743 -0.5612
38896SOL    HW118695   5.914   3.891   1.983 -0.3846  0.5329 -1.4063
38896SOL    HW218696   5.765   3.892   2.010 -0.1924 -0.2231 -0.2424
38897SOL     OW18697   3.538   1.502   0.803 -0.0807  0.0265 -0.1401
38897SOL    HW118698   3.588   1.494   0.722 -0.2859 -1.0290 -0.1785
38897SOL    HW218699   3.531   1.596   0.817 -1.3207  0.3092 -2.1669
38898SOL     OW18700   1.879   2.588   8.992  0.3990  0.3301 -0.2557
38898SOL    HW118701   1.789   2.562   9.007  0.9816 -1.1208  0.9402
38898SOL    HW218702   1.919   2.513   8.949  0.8216  1.3314 -1.6830
38899SOL     OW18703   6.032   7.935   4.033  0.4099  0.3470  0.2202
38899SOL    HW118704   6.077   7.927   3.948  0.0491  0.3562  0.0264
38899SOL    HW218705   6.085   7.999   4.081  0.6872  0.2518  0.0497
38900SOL     OW18706  10.104   8.239   5.271 -0.5345  0.0632 -0.2754
38900SOL    HW118707  10.168   8.183   5.315  0.0646 -0.0136 -1.2154
38900SOL    HW218708  10.086   8.194   5.189 -0.5388  0.9308 -0.7536
38901SOL     OW18709  10.897  10.255   7.634  0.1506  0.2865  0.2422
38901SOL    HW118710  10.806  10.265   7.608 -0.4500 -0.4456  1.9331
38901SOL    HW218711  10.939  10.214   7.559 -0.6337  1.6460 -0.9935
38902SOL     OW18712   2.017   4.100   3.719 -0.2343  0.3177  0.1150
38902SOL    HW118713   2.045   4.016   3.682  0.5189  0.2409  0.8198
38902SOL    HW218714   1.942   4.127   3.665  0.9316  0.3259 -1.5709
38903SOL     OW18715   0.924   3.091   0.755 -0.6151  0.0104 -0.1020
38903SOL    HW118716   0.875   3.038   0.692  0.4362 -0.8144 -0.2555
38903SOL    HW218717   0.980   3.029   0.801  0.9704  1.0192 -0.5762
38904SOL     OW18718   0.001   1.889   1.161  0.2519  0.3229 -0.2707
38904SOL    HW118719   0.087   1.918   1.190 -0.3817  0.3454  1.7574
38904SOL    HW218720   0.016   1.850   1.075  2.2539  0.4270 -0.0117
38905SOL     OW18721   0.931   4.935   9.536  0.4464  0.0386  0.1033
38905SOL    HW118722   1.009   4.984   9.561 -0.2632  0.6251  1.2726
38905SOL    HW218723   0.952   4.897   9.450  1.1978  1.9892 -0.6221
38906SOL     OW18724   1.467   9.467  11.020  0.6032  0.6658  0.5627
38906SOL    HW118725   1.528   9.541  11.019  0.6696  0.6326  1.2650
38906SOL    HW218726   1.381   9.507  11.037  0.2224  0.8335 -1.5633
38907SOL     OW18727   2.541  10.725  10.412 -0.4671  0.3381  0.3107
38907SOL    HW118728   2.628  10.689  10.429 -0.9090 -2.4320 -2.3765
38907SOL    HW218729   2.496  10.722  10.497  0.4169 -3.3371  0.7989
38908SOL     OW18730   2.924   6.642   1.180 -0.1783 -0.4848  0.4692
38908SOL    HW118731   2.901   6.612   1.092  1.0464 -0.8690  0.2616
38908SOL    HW218732   2.903   6.736   1.179  0.4723 -0.3359 -0.4703
38909SOL     OW18733   2.429   6.387   0.072 -0.1771  0.6859 -0.1621
38909SOL    HW118734   2.361   6.402   0.137  1.4250  1.3802  1.4307
38909SOL    HW218735   2.422   6.294   0.051 -1.3582  0.6667  0.2326
38910SOL     OW18736   2.086   1.897   6.260  0.2711  0.5041 -0.6178
38910SOL    HW118737   2.018   1.915   6.196 -0.7422 -1.5869 -0.1926
38910SOL    HW218738   2.148   1.840   6.215  1.3487  1.7202 -0.7406
38911SOL     OW18739   1.824   0.980   4.263  0.6052 -0.2042  0.4838
38911SOL    HW118740   1.870   1.062   4.282  0.9576 -0.6742  1.7614
38911SOL    HW218741   1.834   0.968   4.169 -0.1475  1.6202  0.1236
38912SOL     OW18742  10.383   1.424   7.858 -0.0334 -0.0921  0.6270
38912SOL    HW118743  10.308   1.484   7.870 -0.0615  0.3097 -1.2992
38912SOL    HW218744  10.421   1.451   7.775  0.7138 -1.9761  0.3355
38913SOL     OW18745   0.695   4.866   9.713 -0.1667  0.0464  0.0759
38913SOL    HW118746   0.736   4.856   9.799 -0.7869  0.0897  0.3828
38913SOL    HW218747   0.756   4.920   9.663  0.4769 -0.4655  0.2933
38914SOL     OW18748   5.775   5.662   1.294 -0.1669  0.3751  0.0634
38914SOL    HW118749   5.688   5.689   1.326  0.9378  2.3148  1.6206
38914SOL    HW218750   5.794   5.722   1.223  0.7974  1.4442  1.1861
38915SOL     OW18751   9.568   8.419   3.205 -0.3938 -0.2726  0.1524
38915SOL    HW118752   9.633   8.405   3.273  0.5658 -0.1626 -0.7140
38915SOL    HW218753   9.484   8.418   3.251  0.1134 -1.7011  1.1103
38916SOL     OW18754   6.729   3.878   8.960  0.3541 -0.1161  0.3786
38916SOL    HW118755   6.814   3.875   8.916 -0.7000  0.1991 -1.8443
38916SOL    HW218756   6.677   3.938   8.907 -0.6643  1.3623  2.8783
38917SOL     OW18757   7.720   5.333  10.782  0.0291 -0.6342 -0.1726
38917SOL    HW118758   7.674   5.329  10.698  0.2094  0.8655 -0.3781
38917SOL    HW218759   7.761   5.247  10.791  0.5849 -0.6002 -1.9683
38918SOL     OW18760   7.581   7.654   1.897  0.2751 -0.7293  0.4631
38918SOL    HW118761   7.601   7.725   1.958 -1.3034  1.5941 -1.5101
38918SOL    HW218762   7.659   7.645   1.843  0.3917 -0.2998  0.5601
38919SOL     OW18763   0.626   0.413   6.715 -0.0163  0.0084  0.0576
38919SOL    HW118764   0.590   0.330   6.744 -0.1553 -0.4051 -1.2504
38919SOL    HW218765   0.563   0.479   6.744 -0.7899 -0.5131 -0.4364
38920SOL     OW18766   8.114   1.284   3.252 -0.3446 -0.5980  0.0982
38920SOL    HW118767   8.110   1.263   3.345  0.0110 -2.4233 -0.2708
38920SOL    HW218768   8.026   1.264   3.219 -0.6821  0.7039  0.1365
38921SOL     OW18769   9.575   1.080  10.415  0.1237 -0.0009 -0.2488
38921SOL    HW118770   9.481   1.089  10.433 -0.0832 -1.3597 -0.4972
38921SOL    HW218771   9.579   1.045  10.326  0.6955 -2.5832  0.6901
38922SOL     OW18772   6.883   2.631   2.657  0.3538 -0.2916  0.0338
38922SOL    HW118773   6.939   2.654   2.583  0.5453 -1.6676 -0.2786
38922SOL    HW218774   6.939   2.576   2.712  0.3406  1.0118  1.4282
38923SOL     OW18775   1.813  10.416   3.844  0.0379 -0.3075  0.2193
38923SOL    HW118776   1.811  10.498   3.795 -2.2851 -1.2430 -1.4272
38923SOL    HW218777   1.845  10.351   3.782  0.4789 -0.9259  1.0677
38924SOL     OW18778   1.699   9.923   4.524  0.1490  0.2932  0.4826
38924SOL    HW118779   1.671   9.853   4.465  0.1596  1.5698 -1.0977
38924SOL    HW218780   1.705  10.001   4.468 -0.0811  1.6221  2.2272
38925SOL     OW18781  10.341   5.040   9.130  0.4906 -0.1476  0.1425
38925SOL    HW118782  10.332   5.068   9.221  2.0805 -0.6400  0.4906
38925SOL    HW218783  10.376   5.117   9.085 -0.7297  0.2430 -0.1738
38926SOL     OW18784  10.891   6.219   5.385  0.0892 -0.4837 -0.0607
38926SOL    HW118785  10.958   6.276   5.422  0.1739 -0.3833 -0.3637
38926SOL    HW218786  10.869   6.259   5.300  0.1522 -0.9030 -0.2791
38927SOL     OW18787   2.495   4.979   1.992 -0.8758 -0.3533  0.2973
38927SOL    HW118788   2.565   5.044   1.997 -0.3660 -0.8922  0.2224
38927SOL    HW218789   2.423   5.025   1.948 -0.2903 -0.0312 -0.3434
38928SOL     OW18790   9.544   2.575   0.912 -0.2995 -0.0283 -0.6991
38928SOL    HW118791   9.608   2.544   0.848  0.5933  1.0065 -0.3390
38928SOL    HW218792   9.479   2.621   0.859  0.3755  0.7232 -0.8957
38929SOL     OW18793   6.845  10.600   2.315 -0.2424 -0.1926 -0.2856
38929SOL    HW118794   6.866  10.668   2.380 -0.5928 -1.4153  1.1604
38929SOL    HW218795   6.753  10.579   2.331 -0.7532  0.4430 -2.1457
38930SOL     OW18796   9.764  10.609   5.080 -0.3079 -0.1925 -0.7989
38930SOL    HW118797   9.770  10.618   5.175 -0.0292 -0.2203 -0.8136
38930SOL    HW218798   9.670  10.617   5.061 -0.2825  0.5817 -0.6023
38931SOL     OW18799   8.934   2.535   1.767  0.2788  0.0076 -0.2621
38931SOL    HW118800   8.881   2.593   1.713  1.1410  1.6680  0.5856
38931SOL    HW218801   8.903   2.447   1.746  0.3375  0.5799 -3.1815
38932SOL     OW18802  10.473   4.817   1.554  0.2298  0.2350  0.0562
38932SOL    HW118803  10.541   4.865   1.602  1.4004 -0.2838 -1.0153
38932SOL    HW218804  10.391   4.847   1.592  0.9730  2.1993  0.2433
38933SOL     OW18805   5.877   8.987   3.124  0.6865 -0.2800 -0.1541
38933SOL    HW118806   5.948   8.960   3.183 -0.7094 -0.0035  1.7181
38933SOL    HW218807   5.904   9.074   3.095  0.6649  0.2704  1.3671
38934SOL     OW18808   2.832   9.089   4.877 -0.0035 -0.6103 -0.0135
38934SOL    HW118809   2.738   9.093   4.890  0.2848 -0.4567  2.6442
38934SOL    HW218810   2.859   9.180   4.865 -0.0297 -0.4686  0.9324
38935SOL     OW18811   4.666   4.244   0.562  0.3495  0.3845  0.4937
38935SOL    HW118812   4.627   4.173   0.511  2.1582 -0.6316  0.4610
38935SOL    HW218813   4.601   4.264   0.630 -0.7184 -0.4087 -0.2618
38936SOL     OW18814   1.627   2.489  10.467 -0.5380  0.7660 -0.2567
38936SOL    HW118815   1.675   2.416  10.506 -0.6180  0.0269 -1.4891
38936SOL    HW218816   1.626   2.556  10.535  0.3498 -0.0262  0.5696
38937SOL     OW18817   8.834   1.066   5.185 -0.2833  0.5526 -0.0881
38937SOL    HW118818   8.797   1.046   5.100 -1.7647  0.9377  0.4446
38937SOL    HW218819   8.922   1.099   5.165 -0.2975 -0.1274 -1.3913
38938SOL     OW18820   8.856   7.085   4.535 -0.2158 -0.1572  0.1314
38938SOL    HW118821   8.779   7.032   4.517 -0.4279  0.7123 -1.7363
38938SOL    HW218822   8.880   7.123   4.451  2.4133 -0.5660  0.6097
38939SOL     OW18823   8.958   7.863   8.884 -0.1996  0.4273  0.7088
38939SOL    HW118824   8.864   7.876   8.884 -0.2950 -0.2100  0.3660
38939SOL    HW218825   8.992   7.934   8.829 -0.6305 -0.2680 -0.4881
38940SOL     OW18826   7.272   2.987   9.354 -0.6398  0.2806 -0.9889
38940SOL    HW118827   7.221   2.928   9.298  0.1494 -1.3129 -0.0813
38940SOL    HW218828   7.243   2.966   9.442 -0.8313  1.7720 -0.6647
38941SOL     OW18829   2.449   1.601   3.773  0.8208  0.3519 -0.0171
38941SOL    HW118830   2.477   1.619   3.863  0.0319  3.0100 -0.2356
38941SOL    HW218831   2.512   1.647   3.718  0.2732  0.2371 -0.7654
38942SOL     OW18832   5.837   2.001   2.838  0.0856  0.1436  0.1236
38942SOL    HW118833   5.898   1.999   2.912  0.2672  1.6350  0.0508
38942SOL    HW218834   5.878   1.945   2.771 -0.9427 -2.7030  1.7275
38943SOL     OW18835   8.253   8.981   2.661 -0.0851  0.2201 -0.2524
38943SOL    HW118836   8.262   8.969   2.756  0.0397  0.7762 -0.1875
38943SOL    HW218837   8.194   8.912   2.633 -0.5901  0.4142  0.3252
38944SOL     OW18838   2.060  11.078   4.242  0.5709 -0.0513  0.1225
38944SOL    HW118839   2.061  10.984   4.228  1.4277 -0.1558  0.7539
38944SOL    HW218840   2.080  11.089   4.335 -1.3841  0.7053  0.4956
38945SOL     OW18841   7.383   2.307   8.459 -0.1380 -0.2689  0.0724
38945SOL    HW118842   7.327   2.316   8.537 -0.9302 -0.7417 -0.4286
38945SOL    HW218843   7.322   2.309   8.386  0.6885  1.2793 -0.6249
38946SOL     OW18844  11.055   5.982   7.701 -0.6497  0.0793 -0.3307
38946SOL    HW118845  11.025   6.071   7.720  0.6826 -0.0253  2.9794
38946SOL    HW218846  11.150   5.990   7.694 -0.4523 -1.1301  0.6666
38947SOL     OW18847   9.323   2.515   4.976  0.1420 -0.1386 -0.2824
38947SOL    HW118848   9.299   2.497   5.067  2.3147  0.3311  0.4575
38947SOL    HW218849   9.289   2.441   4.927  0.0706 -1.0825  1.1261
38948SOL     OW18850  10.643   7.088   7.995  0.2614  0.1611 -0.6593
38948SOL    HW118851  10.613   7.160   7.940 -0.4768  0.5430  0.2341
38948SOL    HW218852  10.581   7.085   8.068 -0.5762 -2.2600 -1.3643
38949SOL     OW18853   4.860   1.258   3.904 -0.0926  0.0972  0.3359
38949SOL    HW118854   4.825   1.169   3.891  0.6973 -0.1297 -0.3178
38949SOL    HW218855   4.917   1.272   3.828 -0.7891  1.4594  0.0341
38950SOL     OW18856   7.626   6.378   2.398  0.4952 -0.4744  0.3917
38950SOL    HW118857   7.594   6.295   2.362  0.2623 -0.7076  1.1000
38950SOL    HW218858   7.599   6.375   2.490 -0.3351  0.8014  0.2094
38951SOL     OW18859   7.537   4.489   6.992 -0.3406  0.1786 -0.0888
38951SOL    HW118860   7.624   4.528   6.986 -0.1645 -0.0913  0.6984
38951SOL    HW218861   7.478   4.565   6.996 -0.4773  0.4832 -3.9081
38952SOL     OW18862   8.309   3.632   0.295 -0.8615 -0.0719 -0.3166
38952SOL    HW118863   8.345   3.552   0.257 -0.6141  1.1564 -2.8940
38952SOL    HW218864   8.214   3.618   0.292 -0.8336 -0.1506 -1.1005
38953SOL     OW18865   2.637   7.539   6.677  0.3674 -0.2350  0.0419
38953SOL    HW118866   2.689   7.519   6.754  1.3146  2.0352  0.0623
38953SOL    HW218867   2.604   7.627   6.692 -0.6238 -0.2957 -1.5130
38954SOL     OW18868   1.979   9.756   9.375  0.2891 -0.5738 -0.1191
38954SOL    HW118869   1.923   9.678   9.376 -0.1234 -0.3209  1.9953
38954SOL    HW218870   2.013   9.760   9.285 -2.9283 -0.8483 -1.4926
38955SOL     OW18871   6.211   2.278   5.169 -0.7560 -0.5469  0.8760
38955SOL    HW118872   6.303   2.259   5.152 -0.6999  0.4256 -0.0361
38955SOL    HW218873   6.211   2.319   5.255 -0.2648 -0.1431  0.6908
38956SOL     OW18874   5.040   4.706   5.054  0.8693  0.4983  0.1018
38956SOL    HW118875   5.077   4.658   5.128 -0.1471  0.9931  0.9464
38956SOL    HW218876   4.983   4.643   5.010  0.3749  0.5994  0.5821
38957SOL     OW18877   0.611   4.762   2.865  0.0685  0.3723  0.3594
38957SOL    HW118878   0.529   4.712   2.862 -0.0178  0.5202 -2.2548
38957SOL    HW218879   0.631   4.781   2.773  2.4106  1.4050  0.9985
38958SOL     OW18880   9.827   0.661   6.871  0.6262 -0.2303 -0.2211
38958SOL    HW118881   9.785   0.591   6.821 -1.5716 -0.3185  1.5626
38958SOL    HW218882   9.822   0.630   6.962  2.5044  0.8678  0.3013
38959SOL     OW18883   4.016   1.113   4.956  0.0604  0.4982  0.1337
38959SOL    HW118884   3.960   1.068   4.893 -0.8916 -0.2192  1.4441
38959SOL    HW218885   3.992   1.076   5.041  3.2438 -0.5880  0.7022
38960SOL     OW18886   8.187   6.527   0.304 -0.5448 -0.6183 -0.0390
38960SOL    HW118887   8.213   6.436   0.289 -0.9144 -0.9633  1.2654
38960SOL    HW218888   8.197   6.570   0.219 -1.0709 -2.0498 -0.8393
38961SOL     OW18889   9.570   0.295   8.933 -0.3994 -0.2542  0.0930
38961SOL    HW118890   9.528   0.290   9.019 -1.6024 -1.3568 -0.5258
38961SOL    HW218891   9.498   0.286   8.870  0.5856 -0.6135 -1.0289
38962SOL     OW18892   5.567   2.572   1.944 -0.0175  0.8639  0.2093
38962SOL    HW118893   5.613   2.655   1.948 -0.1289  1.0298 -1.3576
38962SOL    HW218894   5.628   2.508   1.981  0.5419  1.4474  0.3001
38963SOL     OW18895   2.097   6.119   0.450 -0.4561  0.4051  0.3764
38963SOL    HW118896   2.009   6.088   0.426 -0.2761  0.1153  0.0773
38963SOL    HW218897   2.083   6.207   0.483 -0.9713  0.0412  1.1448
38964SOL     OW18898   0.565  10.919   3.475 -0.6722 -0.2361  0.5815
38964SOL    HW118899   0.591  10.938   3.385 -1.2515 -0.0306  0.4525
38964SOL    HW218900   0.648  10.909   3.522 -0.3572 -1.1872 -0.1423
38965SOL     OW18901   7.862   3.579   8.218 -0.2339 -0.4266  0.0796
38965SOL    HW118902   7.908   3.590   8.302  0.6802 -0.1091 -0.4503
38965SOL    HW218903   7.909   3.636   8.157 -0.8927 -0.6522 -0.6535
38966SOL     OW18904   7.769   7.854   2.434 -0.0279 -0.4973 -0.2826
38966SOL    HW118905   7.730   7.893   2.513 -0.2135 -2.2192  0.5204
38966SOL    HW218906   7.844   7.910   2.415 -0.0928  0.0806  1.0066
38967SOL     OW18907   2.897   1.529   6.656  0.3064  0.3336  0.6196
38967SOL    HW118908   2.862   1.578   6.730  0.0363  0.5641  0.3421
38967SOL    HW218909   2.920   1.596   6.591  1.1663  0.1784  0.7491
38968SOL     OW18910   9.942   3.898   5.828  0.7631  0.7003  0.6296
38968SOL    HW118911   9.937   3.829   5.894  0.6253  1.5243  1.5110
38968SOL    HW218912  10.013   3.955   5.859  2.6274 -0.3885 -1.4249
38969SOL     OW18913   0.833   2.766   1.641  0.6466  0.8818  0.2036
38969SOL    HW118914   0.826   2.816   1.722 -0.4744  1.3390 -0.1629
38969SOL    HW218915   0.833   2.674   1.669  0.6832  1.0465  0.7479
38970SOL     OW18916   0.242   7.556   9.787  0.1074  0.1659  0.1841
38970SOL    HW118917   0.295   7.634   9.805  2.1303 -0.6715 -1.6354
38970SOL    HW218918   0.249   7.544   9.693  0.1055 -2.3670  0.4451
38971SOL     OW18919   2.337   1.460   3.510  0.4816  0.5924  0.6963
38971SOL    HW118920   2.334   1.526   3.579  0.5065  1.2961  0.0352
38971SOL    HW218921   2.390   1.389   3.547  1.6123  1.5220  0.9158
38972SOL     OW18922   3.040   6.635   0.348  0.1265  0.0786 -0.0223
38972SOL    HW118923   3.080   6.645   0.261  0.1455  0.5543  0.0365
38972SOL    HW218924   3.107   6.668   0.408  0.5873 -1.3371  0.2838
38973SOL     OW18925   2.018   2.607   4.651 -0.5513  0.5004  0.5538
38973SOL    HW118926   1.939   2.584   4.701 -1.2437 -3.0093 -1.7502
38973SOL    HW218927   2.086   2.548   4.684 -0.2539  0.1565 -0.6054
38974SOL     OW18928   4.448   4.127   4.249 -0.8236 -0.5860  0.2469
38974SOL    HW118929   4.513   4.167   4.308 -1.2473 -0.1186  0.4036
38974SOL    HW218930   4.462   4.033   4.258 -0.8731 -0.5229  1.0871
38975SOL     OW18931   0.687   4.517   5.116 -0.6672 -0.4877  0.3002
38975SOL    HW118932   0.732   4.432   5.116 -2.3784 -1.4455 -0.4557
38975SOL    HW218933   0.747   4.576   5.162  1.4792 -1.5970 -0.9359
38976SOL     OW18934  10.842   1.117   0.331  0.3997 -0.0929 -0.2309
38976SOL    HW118935  10.805   1.120   0.420 -0.7953  0.1592 -0.7101
38976SOL    HW218936  10.871   1.207   0.315  0.6156 -0.1382 -0.0972
38977SOL     OW18937   7.803   9.462   6.561  0.5640  0.2804  0.3093
38977SOL    HW118938   7.708   9.456   6.548  0.2337  0.5774  2.2008
38977SOL    HW218939   7.832   9.371   6.567  0.3558  0.1897 -0.0696
38978SOL     OW18940   8.994   6.681   1.874 -0.2906  0.2193  0.1368
38978SOL    HW118941   9.022   6.716   1.958  0.8977  0.0953 -0.1848
38978SOL    HW218942   8.924   6.620   1.895  0.4460 -0.3087  1.1120
38979SOL     OW18943   4.084   2.990   7.618  0.3375 -0.5496 -0.3913
38979SOL    HW118944   4.148   2.996   7.548  0.6586 -3.0251 -0.3990
38979SOL    HW218945   4.079   2.896   7.639 -1.9992 -0.2480  0.8014
38980SOL     OW18946   9.000   3.966   8.370  0.4912  0.2088  0.3951
38980SOL    HW118947   8.944   3.978   8.293 -0.5344 -2.4415  0.6473
38980SOL    HW218948   9.081   4.012   8.347 -0.4568  1.0897 -1.4568
38981SOL     OW18949   8.683   6.750   1.634 -0.4202  0.3293 -0.0160
38981SOL    HW118950   8.642   6.694   1.568  1.6479 -1.3785  0.0377
38981SOL    HW218951   8.681   6.697   1.714 -0.8435  1.4661  0.7520
38982SOL     OW18952   4.373   4.170   7.033  0.5234  0.5808  0.0055
38982SOL    HW118953   4.423   4.217   7.100  1.3235  0.8668 -0.7701
38982SOL    HW218954   4.383   4.223   6.954 -1.2953  0.8297 -0.1139
38983SOL     OW18955   8.996   7.108   3.311  0.1212 -0.0360 -0.1276
38983SOL    HW118956   8.949   7.053   3.249 -0.4418 -0.2332  0.4536
38983SOL    HW218957   9.078   7.062   3.328  0.1145 -0.1650 -0.4451
38984SOL     OW18958  10.308   0.657   0.617 -0.0202  0.1855 -0.1635
38984SOL    HW118959  10.240   0.666   0.550 -0.4641  0.0084  0.2546
38984SOL    HW218960  10.368   0.591   0.582  0.0040  0.4310 -0.5904
38985SOL     OW18961   8.075   5.214   9.794  0.1295  0.0367  0.2505
38985SOL    HW118962   8.169   5.196   9.799 -0.0055 -0.8153  0.0394
38985SOL    HW218963   8.047   5.168   9.714 -0.8599 -1.6784  1.5269
38986SOL     OW18964   9.491   2.359   3.969  0.2054  1.1608  0.0869
38986SOL    HW118965   9.524   2.269   3.967 -0.7867  0.7864 -1.6221
38986SOL    HW218966   9.448   2.371   3.884  0.3527  3.2781  0.2461
38987SOL     OW18967  10.404   0.231   7.302  0.4792 -0.2848  0.5333
38987SOL    HW118968  10.455   0.311   7.310  1.2394 -0.2044 -3.3794
38987SOL    HW218969  10.313   0.260   7.296  0.8622  0.5391 -2.3759
38988SOL     OW18970  10.603   6.505   5.226  0.4078  0.2431  0.2331
38988SOL    HW118971  10.693   6.477   5.209 -0.4707 -1.7339 -1.5939
38988SOL    HW218972  10.548   6.435   5.190 -1.8994  1.9339  0.1911
38989SOL     OW18973   2.677   4.133   2.599  0.4196 -0.1437 -0.5639
38989SOL    HW118974   2.671   4.137   2.503  0.1063 -0.2803 -0.5539
38989SOL    HW218975   2.689   4.040   2.618 -0.3545 -0.2273 -0.4369
38990SOL     OW18976   1.284   4.166  10.970 -0.0990 -0.2102 -0.4730
38990SOL    HW118977   1.350   4.164  10.901 -1.0110  1.3676 -1.4775
38990SOL    HW218978   1.327   4.213  11.042  1.6467 -3.7937  1.0582
38991SOL     OW18979   1.124   4.928   5.346 -0.2919  0.4896 -0.5809
38991SOL    HW118980   1.088   4.916   5.258 -0.4295  1.0007 -0.6003
38991SOL    HW218981   1.208   4.971   5.332  1.4270 -2.6822 -0.6704
38992SOL     OW18982  10.942   3.933   6.763 -0.4852  0.0543 -0.3439
38992SOL    HW118983  11.032   3.953   6.788 -1.5399  1.3692  2.8764
38992SOL    HW218984  10.919   3.856   6.814 -1.4963  0.3792 -0.2832
38993SOL     OW18985   1.236   9.121   1.923  0.4186  0.3833 -0.3179
38993SOL    HW118986   1.329   9.135   1.905  0.5893 -0.4439 -0.1111
38993SOL    HW218987   1.204   9.070   1.849  0.3976 -0.3046  0.1539
38994SOL     OW18988   0.609  10.074   0.539  0.1456 -0.2784  0.8772
38994SOL    HW118989   0.572  10.066   0.627  0.6485 -0.4848  1.0747
38994SOL    HW218990   0.655  10.158   0.539  0.5997 -0.5255  0.9860
38995SOL     OW18991  10.663   5.180   6.431  0.2453 -0.1566 -0.2091
38995SOL    HW118992  10.648   5.197   6.524  0.3434 -1.5289  0.0857
38995SOL    HW218993  10.619   5.251   6.385 -0.2703  0.2347  0.8715
38996SOL     OW18994   3.002  10.487   4.467  0.0795  0.1197 -0.0183
38996SOL    HW118995   2.959  10.482   4.552 -0.3520  0.1371 -0.2315
38996SOL    HW218996   3.073  10.550   4.480  0.5446 -0.5031  0.5462
38997SOL     OW18997   4.808   3.172   4.791  0.3294  0.5450  0.3354
38997SOL    HW118998   4.720   3.201   4.769  0.4095  0.3612 -0.2307
38997SOL    HW218999   4.833   3.226   4.866  0.6552  2.2745 -0.9551
38998SOL     OW19000   1.585   5.703   3.528  0.4404 -0.3572  0.4304
38998SOL    HW119001   1.512   5.757   3.560 -0.6201 -1.7693  0.5378
38998SOL    HW219002   1.622   5.664   3.607 -0.6371 -1.9631  0.1994
38999SOL     OW19003   2.723   2.881   9.930  0.1743  0.0486  0.0818
38999SOL    HW119004   2.693   2.971   9.914  1.3316  0.3143 -0.6886
38999SOL    HW219005   2.664   2.848   9.999 -2.6883  0.1119 -2.1336
39000SOL     OW19006  10.433   2.848   6.420 -0.2201  0.2791  0.6876
39000SOL    HW119007  10.402   2.929   6.459  0.1110  0.0979  1.3340
39000SOL    HW219008  10.372   2.831   6.348 -0.2783  1.1098  0.5327
39001SOL     OW19009  10.658   6.506   4.541 -0.0424  0.1860  0.0130
39001SOL    HW119010  10.654   6.532   4.633  0.8137  1.5055 -0.3018
39001SOL    HW219011  10.593   6.436   4.533 -0.9879  0.8799  1.3440
39002SOL     OW19012   6.980   3.954   3.833  0.4035 -0.5001  0.1574
39002SOL    HW119013   6.986   4.047   3.855  0.9270 -0.2239 -1.0954
39002SOL    HW219014   6.886   3.937   3.827  0.2999 -0.1273  0.6360
39003SOL     OW19015   1.994   8.689   0.562 -0.0237 -0.2579 -0.2025
39003SOL    HW119016   2.031   8.728   0.482  0.7510  0.8544  0.6624
39003SOL    HW219017   1.900   8.709   0.557  0.3545  1.9214  0.2506
39004SOL     OW19018   9.663   8.804   6.737  0.1176 -0.3290 -0.2288
39004SOL    HW119019   9.590   8.747   6.713 -0.0843 -1.1229  2.1029
39004SOL    HW219020   9.729   8.788   6.669 -0.8205 -1.6148 -0.8769
39005SOL     OW19021   0.347   1.869   5.689  0.0717  0.1716 -0.1677
39005SOL    HW119022   0.303   1.833   5.613 -0.2059  1.0963 -0.4629
39005SOL    HW219023   0.326   1.809   5.760 -0.6786 -0.0440 -0.5625
39006SOL     OW19024   1.546   6.100   8.830 -0.2847 -0.4102 -0.4162
39006SOL    HW119025   1.453   6.075   8.823 -0.7025  0.5548  1.1160
39006SOL    HW219026   1.578   6.049   8.904  0.9248 -2.0322 -1.9654
39007SOL     OW19027  10.574   1.059   5.494  0.2434  0.1039  0.0042
39007SOL    HW119028  10.599   1.099   5.410  1.2278 -1.5380 -0.5349
39007SOL    HW219029  10.538   1.131   5.545 -1.5872  0.9466 -2.2759
39008SOL     OW19030  10.500   1.140   5.806  0.1064 -0.0113 -0.1946
39008SOL    HW119031  10.503   1.212   5.868 -0.2518  0.4762 -0.7326
39008SOL    HW219032  10.585   1.142   5.762 -0.1464  0.4881 -0.6595
39009SOL     OW19033   7.342   2.099   6.951  0.3524 -0.5075  0.2017
39009SOL    HW119034   7.356   2.188   6.920 -0.4772 -0.4755 -0.1065
39009SOL    HW219035   7.315   2.108   7.042  0.9672 -0.4939  0.3888
39010SOL     OW19036   5.701   0.629   1.435  0.1113  0.5326 -0.1921
39010SOL    HW119037   5.788   0.665   1.418 -0.2051  2.4101  1.7042
39010SOL    HW219038   5.641   0.704   1.424 -1.1004 -0.4011 -0.1604
39011SOL     OW19039  10.036   5.697   7.429 -0.2998 -0.3938  0.0385
39011SOL    HW119040  10.081   5.722   7.510  0.4281  0.2129 -0.5293
39011SOL    HW219041   9.986   5.775   7.404  1.5589  0.4036 -1.4642
39012SOL     OW19042   5.322   6.035   3.536  0.5392  0.0921 -0.0504
39012SOL    HW119043   5.267   5.958   3.523  0.6740  0.2962 -2.2225
39012SOL    HW219044   5.279   6.084   3.605  0.4224 -1.8890  1.3537
39013SOL     OW19045   6.981   2.602  10.430 -0.2491 -0.4494 -0.0946
39013SOL    HW119046   7.064   2.573  10.391  0.0560  0.4267 -0.1299
39013SOL    HW219047   6.914   2.548  10.388  0.4242 -2.4118  1.1878
39014SOL     OW19048  10.839   3.009   8.439  0.5057 -0.0434 -0.1277
39014SOL    HW119049  10.840   3.094   8.484 -0.2994 -0.9509  1.7039
39014SOL    HW219050  10.819   3.031   8.348  0.2343  1.7269  0.3139
39015SOL     OW19051   0.366   0.545   5.775 -0.0008  0.2342 -0.3827
39015SOL    HW119052   0.361   0.491   5.853 -0.4615 -0.1818 -0.7007
39015SOL    HW219053   0.385   0.633   5.808 -0.5286  0.1269  0.2197
39016SOL     OW19054   1.198   1.821   4.285 -0.0660 -0.6952  0.0733
39016SOL    HW119055   1.192   1.753   4.352 -0.0239 -0.5464  0.2287
39016SOL    HW219056   1.169   1.778   4.204  1.9210 -1.4897 -0.2618
39017SOL     OW19057   8.292   2.770   1.317  0.0933 -0.0348  0.0667
39017SOL    HW119058   8.313   2.751   1.409 -1.6614  1.1979  0.7656
39017SOL    HW219059   8.226   2.705   1.294  0.0615  0.0636 -0.1181
39018SOL     OW19060   7.902   6.484   0.288  0.2993 -0.1477  0.6290
39018SOL    HW119061   7.997   6.489   0.291  0.4802 -1.4162 -1.2411
39018SOL    HW219062   7.880   6.496   0.196 -1.0427 -3.1750  0.4220
39019SOL     OW19063   1.242   4.468   3.769  0.0069 -0.3636  0.1286
39019SOL    HW119064   1.161   4.452   3.720  0.1399 -0.2982 -0.1161
39019SOL    HW219065   1.242   4.562   3.786  0.0835 -0.3464  0.0342
39020SOL     OW19066   6.877   3.579   5.934  0.3287  0.8351  0.2011
39020SOL    HW119067   6.908   3.542   5.852 -2.5099  0.9888 -1.0513
39020SOL    HW219068   6.957   3.598   5.984  2.1418  0.6134 -2.4324
39021SOL     OW19069   3.734   0.082   4.696 -0.4893  0.0094 -0.4111
39021SOL    HW119070   3.705   0.080   4.605  0.9286 -2.1925 -0.9071
39021SOL    HW219071   3.654   0.076   4.747 -1.3566  1.8622 -1.4475
39022SOL     OW19072   2.175   5.425   9.347  0.6284 -0.0034  0.0890
39022SOL    HW119073   2.132   5.509   9.330  0.8924 -0.0987 -1.0998
39022SOL    HW219074   2.103   5.362   9.351  0.3354  0.3791  1.9100
39023SOL     OW19075   8.956   4.823   3.282 -0.1797  0.2146  0.0342
39023SOL    HW119076   8.891   4.808   3.214 -1.2204  1.3763  0.7392
39023SOL    HW219077   9.013   4.891   3.246 -0.4476  0.4961  0.1459
39024SOL     OW19078   8.379   6.751   6.970  0.1463  0.0020  0.2095
39024SOL    HW119079   8.403   6.820   6.908 -1.0134 -0.0023 -0.2581
39024SOL    HW219080   8.425   6.775   7.051  0.7188  0.6575 -0.2988
39025SOL     OW19081   8.435   9.446   3.494  0.1609 -0.1805 -0.2338
39025SOL    HW119082   8.355   9.395   3.482 -1.4294  2.2142 -0.3311
39025SOL    HW219083   8.497   9.407   3.433 -1.6062 -0.7298 -1.7579
39026SOL     OW19084   6.990   4.841   2.878 -0.0770 -0.3852  0.3341
39026SOL    HW119085   6.952   4.860   2.793  0.2517 -0.5244  0.1530
39026SOL    HW219086   7.055   4.772   2.861  1.0411  0.6041  0.4382
39027SOL     OW19087   3.006   5.055   0.287 -0.2302 -0.5783 -0.2705
39027SOL    HW119088   2.930   5.011   0.249 -1.1534  1.5322 -1.0779
39027SOL    HW219089   3.077   5.036   0.227 -0.4327 -1.5276 -0.2153
39028SOL     OW19090  10.634   5.526   3.043  0.3653  0.3357  0.7287
39028SOL    HW119091  10.630   5.622   3.044  1.9555  0.4323  0.8469
39028SOL    HW219092  10.727   5.507   3.029  0.0186 -1.1936  0.4150
39029SOL     OW19093   8.363   3.484   4.617 -0.3677  0.1913  0.6505
39029SOL    HW119094   8.316   3.566   4.604  0.6145  0.8863  1.3439
39029SOL    HW219095   8.354   3.466   4.711 -1.2828 -0.9540  0.3683
39030SOL     OW19096   4.758   0.195   3.007  0.0611  0.3870  0.1788
39030SOL    HW119097   4.806   0.123   3.047  0.4316  0.1125 -0.7220
39030SOL    HW219098   4.666   0.179   3.029  0.2249  0.0593  0.6206
39031SOL     OW19099   8.316   7.574   1.715  0.0028 -0.4691  0.0906
39031SOL    HW119100   8.382   7.582   1.784 -0.2583 -0.4117  0.3361
39031SOL    HW219101   8.313   7.661   1.674  1.4657 -0.9876 -1.2116
39032SOL     OW19102   0.738   9.301   8.014 -0.3465  0.3435 -0.3959
39032SOL    HW119103   0.823   9.292   7.971 -0.5444 -0.8799 -0.5805
39032SOL    HW219104   0.702   9.383   7.980  0.2139  0.2269 -1.3048
39033SOL     OW19105   9.243   7.882   1.776 -0.0814  0.0198  0.4043
39033SOL    HW119106   9.242   7.791   1.749 -3.0733  0.1852 -0.3944
39033SOL    HW219107   9.277   7.929   1.700  0.2353 -0.3210  0.3342
39034SOL     OW19108   7.740   3.924   1.603 -0.2267  0.5975 -0.6599
39034SOL    HW119109   7.729   4.006   1.652 -0.4786 -1.3080  2.7437
39034SOL    HW219110   7.833   3.903   1.613 -0.6244 -0.6965  0.6428
39035SOL     OW19111   9.193   6.454   3.919 -1.0052 -0.2223 -0.1208
39035SOL    HW119112   9.250   6.387   3.879  1.1966  1.2633  0.3400
39035SOL    HW219113   9.117   6.458   3.861  0.9633  0.1680 -2.8842
39036SOL     OW19114   8.734   6.589   2.391  0.3951  0.1122  0.0338
39036SOL    HW119115   8.768   6.627   2.471 -1.4008  0.8265  0.5155
39036SOL    HW219116   8.704   6.502   2.417 -1.8427  0.9975  0.6421
39037SOL     OW19117   0.080   1.605   8.190 -0.0629  0.2031  0.0321
39037SOL    HW119118   0.012   1.641   8.134 -0.6475 -1.1810 -0.1910
39037SOL    HW219119   0.056   1.513   8.200  1.4314 -0.1627  0.4667
39038SOL     OW19120   8.378   9.085   0.704  0.2726  0.0529  0.0151
39038SOL    HW119121   8.359   9.091   0.611 -1.1475  0.0280  0.2755
39038SOL    HW219122   8.321   9.015   0.736 -0.2081  0.9174  1.1208
39039SOL     OW19123   3.136   9.877   7.256 -0.1742 -0.0309 -0.7216
39039SOL    HW119124   3.076   9.867   7.330  0.7314 -0.5439 -0.0437
39039SOL    HW219125   3.196   9.947   7.283  0.4831 -0.5783 -0.7490
39040SOL     OW19126   7.951   6.955   5.372  0.1881  0.4988  0.3335
39040SOL    HW119127   7.921   7.044   5.390  0.1415  0.3068  1.2629
39040SOL    HW219128   8.039   6.965   5.337  0.6336  0.8662  1.5168
39041SOL     OW19129   6.919   3.547   8.905 -0.3459  0.1866  0.5617
39041SOL    HW119130   7.015   3.537   8.902 -0.5078 -2.3562  1.4336
39041SOL    HW219131   6.892   3.540   8.813  0.2838  1.0935  0.2850
39042SOL     OW19132   7.315   6.136   0.386  0.4577 -0.1180  0.6191
39042SOL    HW119133   7.348   6.114   0.299 -1.9132  0.9118 -0.6098
39042SOL    HW219134   7.341   6.228   0.399 -1.9212  0.7856 -0.4669
39043SOL     OW19135   9.431   3.059   1.192 -0.2585 -0.0045  0.1476
39043SOL    HW119136   9.431   3.109   1.273 -0.2844  0.7304 -0.3011
39043SOL    HW219137   9.352   3.088   1.146 -1.3196 -1.8110  0.6989
39044SOL     OW19138   2.378   3.300   0.114  0.1703  0.1977  0.0862
39044SOL    HW119139   2.371   3.392   0.137  1.9099  0.2530  0.5037
39044SOL    HW219140   2.326   3.291   0.034 -3.2701  0.6923  2.0707
39045SOL     OW19141   4.331   0.717   3.150 -0.1155  0.5540 -0.0271
39045SOL    HW119142   4.248   0.762   3.134 -0.8147 -1.1511 -1.5499
39045SOL    HW219143   4.397   0.771   3.106 -0.0646  2.8055  2.5596
39046SOL     OW19144   6.922   4.300   3.055 -0.0752 -0.1277  0.0765
39046SOL    HW119145   7.017   4.286   3.043  0.2141  1.7477 -0.0511
39046SOL    HW219146   6.914   4.330   3.145 -0.5780 -0.3808  0.1175
39047SOL     OW19147   1.693  10.896   0.264  0.0269  0.2347 -0.1850
39047SOL    HW119148   1.700  10.885   0.359  1.2377 -1.0025 -0.3948
39047SOL    HW219149   1.690  10.991   0.252 -0.8235  0.3967  1.1236
39048SOL     OW19150  10.296   9.088   1.377 -0.2918  0.4199 -0.0499
39048SOL    HW119151  10.342   9.171   1.387  0.4314  0.1315 -0.9124
39048SOL    HW219152  10.297   9.049   1.464 -0.4767  1.2320  0.3192
39049SOL     OW19153  11.027   7.991   3.510  0.2637  0.0330  0.1769
39049SOL    HW119154  11.065   8.043   3.439  1.5958  0.3567  1.0940
39049SOL    HW219155  11.009   7.905   3.470 -1.0278  0.8420 -1.0874
39050SOL     OW19156  10.396   7.247   5.143  0.0630  0.0817 -0.6440
39050SOL    HW119157  10.409   7.189   5.217  1.0456 -3.5297 -3.3724
39050SOL    HW219158  10.313   7.219   5.105 -0.4598  1.9079 -0.9699
39051SOL     OW19159   6.918   2.722   1.243 -0.0284 -0.8515 -0.2499
39051SOL    HW119160   6.912   2.732   1.338 -0.8693  1.0482 -0.4472
39051SOL    HW219161   6.996   2.771   1.219 -2.0678  2.4037 -0.8716
39052SOL     OW19162   1.170   7.772  10.550  0.3136 -0.0841 -0.2591
39052SOL    HW119163   1.179   7.682  10.581  0.0587 -0.4306 -1.1285
39052SOL    HW219164   1.128   7.763  10.464 -1.1211  0.9495  0.2926
39053SOL     OW19165   5.698   1.983   1.720  0.5605  0.1841 -0.4134
39053SOL    HW119166   5.653   2.054   1.767 -0.8676 -0.5935 -0.5533
39053SOL    HW219167   5.689   2.006   1.627  1.9935  0.8986 -0.4091
39054SOL     OW19168   4.975   2.718   0.208 -0.1434  0.2885 -0.1627
39054SOL    HW119169   4.929   2.786   0.160  0.4111  1.9149  1.4887
39054SOL    HW219170   4.911   2.647   0.215 -1.6673  1.6310  0.2183
39055SOL     OW19171   2.609   6.834   8.041  0.0500  0.2638 -0.0647
39055SOL    HW119172   2.516   6.848   8.058  0.0408 -0.8165  0.8266
39055SOL    HW219173   2.613   6.816   7.947 -0.4487  1.7261 -0.3970
39056SOL     OW19174   0.236   1.223   0.159 -0.0431  0.3603 -0.0125
39056SOL    HW119175   0.316   1.173   0.175  0.6974  1.1365 -1.0909
39056SOL    HW219176   0.167   1.173   0.202  0.1132 -3.1797 -3.3685
39057SOL     OW19177   2.558   6.141   2.052 -0.2265 -0.1106  0.0306
39057SOL    HW119178   2.470   6.158   2.085 -0.3042  0.5757 -0.5157
39057SOL    HW219179   2.616   6.178   2.119 -0.3600 -0.1245  0.1545
39058SOL     OW19180   4.143   3.962   3.507  0.8384 -0.2816  0.2525
39058SOL    HW119181   4.212   3.925   3.561 -0.0669 -0.3640  1.3992
39058SOL    HW219182   4.170   4.053   3.492  2.2084 -0.8713 -1.1107
39059SOL     OW19183   2.407  10.221   8.179 -0.0623  0.1904  0.5744
39059SOL    HW119184   2.383  10.130   8.160 -0.3745  0.0227  1.6913
39059SOL    HW219185   2.503  10.221   8.176 -0.0658 -0.1110  0.3181
39060SOL     OW19186   9.983   5.268  10.599  0.2285 -0.5131  0.2049
39060SOL    HW119187   9.931   5.299  10.672 -1.9159  2.2762 -2.2458
39060SOL    HW219188  10.035   5.344  10.572 -0.7025 -0.6698 -2.3982
39061SOL     OW19189   8.838   0.064   4.147 -0.9736 -0.6425 -0.1286
39061SOL    HW119190   8.855  -0.028   4.167  1.5994  0.1249  1.7046
39061SOL    HW219191   8.916   0.092   4.098 -0.7320  1.0463  1.1592
39062SOL     OW19192   7.777   3.823   9.215 -0.1528  0.0142  0.0217
39062SOL    HW119193   7.781   3.916   9.194  0.2616 -0.0555 -0.2297
39062SOL    HW219194   7.692   3.794   9.181  0.1576  0.0821 -0.8355
39063SOL     OW19195   3.706   9.727   9.635 -0.3545 -0.3443  0.2183
39063SOL    HW119196   3.729   9.784   9.562 -3.1311 -0.8334 -1.1769
39063SOL    HW219197   3.749   9.766   9.711 -0.3926  2.3446 -1.0436
39064SOL     OW19198  10.616   4.110   4.864 -0.2936 -0.2933 -0.7373
39064SOL    HW119199  10.632   4.023   4.828 -1.7046  0.3666 -3.2213
39064SOL    HW219200  10.676   4.117   4.938  2.3186 -2.1242 -2.4963
39065SOL     OW19201   9.968   5.408  10.089  0.1756  0.3913  0.0384
39065SOL    HW119202   9.983   5.502  10.085  0.5230  0.2933 -1.2795
39065SOL    HW219203  10.041   5.370  10.040  0.8781 -0.6642  1.8138
39066SOL     OW19204   8.470   6.432   0.065  0.1903  0.2406 -0.7071
39066SOL    HW119205   8.472   6.527   0.074 -1.0179  0.2425 -0.1821
39066SOL    HW219206   8.389   6.406   0.110  0.7637 -1.0758 -0.3961
39067SOL     OW19207   1.618   7.531   6.475  0.5076 -0.1136 -0.2896
39067SOL    HW119208   1.705   7.494   6.460  1.3067  1.0104  1.3165
39067SOL    HW219209   1.629   7.625   6.461 -0.8603 -0.1085 -1.6363
39068SOL     OW19210   2.331   5.215   7.311 -0.1078 -0.0823 -0.4841
39068SOL    HW119211   2.290   5.254   7.388 -0.1181 -1.5012  0.2539
39068SOL    HW219212   2.398   5.278   7.285  1.2413 -0.4341  1.8801
39069SOL     OW19213   5.942   7.085   3.534  0.2675  0.4766  0.2332
39069SOL    HW119214   6.010   7.150   3.513 -0.2052  1.2116  0.9193
39069SOL    HW219215   5.978   7.037   3.608  0.6831 -0.1652 -0.3712
39070SOL     OW19216   3.096   3.583   4.488 -0.2879  0.6205 -0.1685
39070SOL    HW119217   3.007   3.617   4.476  0.0260  2.0575  1.1566
39070SOL    HW219218   3.122   3.617   4.574  1.2613 -0.4184 -0.2046
39071SOL     OW19219   4.288   7.120   4.844  0.4075 -0.2035 -0.2364
39071SOL    HW119220   4.311   7.092   4.932 -0.9798 -1.4393 -0.2258
39071SOL    HW219221   4.353   7.078   4.787 -0.7080 -2.2577 -0.0747
39072SOL     OW19222   6.418   2.115   5.814  0.0943  0.5261 -0.3472
39072SOL    HW119223   6.404   2.209   5.808 -2.4301  0.1744 -1.1771
39072SOL    HW219224   6.474   2.094   5.738  1.0055  1.3581  0.0673
39073SOL     OW19225   0.744   6.989   6.196  0.6768  0.0489  0.1076
39073SOL    HW119226   0.823   7.027   6.235  0.5067  0.5767 -0.0576
39073SOL    HW219227   0.672   7.040   6.232  0.4312 -0.2203  0.0032
39074SOL     OW19228   0.102   3.643   6.903 -0.0327 -0.3466  0.0432
39074SOL    HW119229   0.140   3.599   6.826  1.3186  1.1944 -0.2271
39074SOL    HW219230   0.133   3.591   6.978 -0.7674 -1.4354 -0.3681
39075SOL     OW19231   9.917   7.775   4.500  0.6001  0.4257 -0.3697
39075SOL    HW119232   9.953   7.706   4.556  2.2392  2.0382  0.6987
39075SOL    HW219233   9.993   7.828   4.476 -0.4120  1.0995 -2.2918
39076SOL     OW19234   3.160   6.786  10.024 -0.0411 -0.4685 -0.3774
39076SOL    HW119235   3.069   6.811  10.035  0.1175 -0.0474 -0.0155
39076SOL    HW219236   3.183   6.740  10.105 -0.1123 -1.1269 -0.7258
39077SOL     OW19237   5.736   0.566   6.491 -0.3441  0.1580  0.1185
39077SOL    HW119238   5.707   0.621   6.419 -0.6853 -0.4991 -0.2487
39077SOL    HW219239   5.660   0.513   6.513 -0.0355 -0.1254  0.5156
39078SOL     OW19240   0.095   3.801   0.012 -0.4894  0.9153  0.1616
39078SOL    HW119241   0.091   3.792  -0.083  1.2888  1.6163 -0.0096
39078SOL    HW219242   0.123   3.715   0.043  1.0031  1.2594 -0.1547
39079SOL     OW19243   8.432   8.554   7.583  0.8459 -0.3540 -0.1042
39079SOL    HW119244   8.455   8.617   7.515  2.3847  0.5970  1.1938
39079SOL    HW219245   8.480   8.474   7.559 -1.1746 -1.1293 -1.7998
39080SOL     OW19246   4.212   8.773   3.314  0.8976 -0.0751  0.0976
39080SOL    HW119247   4.203   8.774   3.218  0.4680 -2.2823  0.0645
39080SOL    HW219248   4.131   8.735   3.345  2.1028 -1.9263  1.1345
39081SOL     OW19249   9.770  10.440   7.738  0.4918 -0.0875  0.2274
39081SOL    HW119250   9.737  10.355   7.767 -2.4836  0.9850  0.3082
39081SOL    HW219251   9.802  10.482   7.818 -0.1314 -0.2614  0.5711
39082SOL     OW19252   5.036   6.309   3.364  0.0511 -0.0480 -0.0056
39082SOL    HW119253   5.052   6.359   3.444 -0.6312  1.3719 -0.7213
39082SOL    HW219254   4.965   6.356   3.319 -1.0944 -2.0314 -0.4113
39083SOL     OW19255   1.080   5.515   0.238 -0.0100 -0.1502 -0.2170
39083SOL    HW119256   1.037   5.487   0.157 -0.0765  1.0019 -0.5922
39083SOL    HW219257   1.171   5.528   0.213  0.4753 -1.9299  0.4244
39084SOL     OW19258   4.719   4.722   5.664 -0.2926 -0.3003 -0.0792
39084SOL    HW119259   4.804   4.741   5.625  0.1434 -2.7802 -0.4730
39084SOL    HW219260   4.707   4.791   5.730  1.8185  0.3270 -0.2812
39085SOL     OW19261   0.205   5.804   1.358 -0.1180  0.5907 -0.1086
39085SOL    HW119262   0.199   5.759   1.273 -0.5477  0.5090 -0.0374
39085SOL    HW219263   0.136   5.871   1.355  0.4523  1.1865 -0.1742
39086SOL     OW19264   4.983   2.951   3.928 -0.3135 -0.1382 -0.0812
39086SOL    HW119265   5.050   3.015   3.906  2.3667 -2.8901 -0.6365
39086SOL    HW219266   4.916   2.963   3.861  0.0939  1.9624 -0.1968
39087SOL     OW19267   9.265   6.472   2.170  0.7110 -0.0347  0.0649
39087SOL    HW119268   9.250   6.532   2.097 -2.5543  0.3721  0.8982
39087SOL    HW219269   9.268   6.530   2.247 -0.0133 -0.7399  0.6329
39088SOL     OW19270   1.325   2.691   2.374  0.0985  0.3491  0.1909
39088SOL    HW119271   1.236   2.666   2.398 -0.2492  0.2846 -1.0705
39088SOL    HW219272   1.374   2.688   2.456 -0.4605 -2.2357  0.5258
39089SOL     OW19273   7.088   3.498   4.569 -0.2512  0.3425  0.3932
39089SOL    HW119274   6.993   3.489   4.583 -0.4859 -1.1111 -1.5777
39089SOL    HW219275   7.100   3.590   4.544 -1.5980  0.0095 -1.7930
39090SOL     OW19276  11.002   7.401   4.266 -0.0734  0.3757  0.2798
39090SOL    HW119277  11.002   7.378   4.359  2.8900 -1.1948  0.0148
39090SOL    HW219278  11.082   7.451   4.254 -1.3334  2.1723 -1.1509
39091SOL     OW19279  10.809   4.470  10.658 -0.5917 -0.4175 -0.1311
39091SOL    HW119280  10.839   4.533  10.593 -1.9128  0.4123  0.0258
39091SOL    HW219281  10.719   4.497  10.678 -0.9685 -1.9899  0.3996
39092SOL     OW19282   7.377   6.754  10.134  0.5414  0.2947  0.1867
39092SOL    HW119283   7.385   6.722  10.223  0.3934 -1.1526 -0.2867
39092SOL    HW219284   7.428   6.835  10.132  0.5327  0.3488  1.5723
39093SOL     OW19285   7.891   2.029   2.617 -0.0457 -0.4796 -0.0748
39093SOL    HW119286   7.952   2.100   2.600  1.2044 -0.9107  2.1850
39093SOL    HW219287   7.843   2.057   2.696 -2.1561 -0.5708 -1.2377
39094SOL     OW19288   3.481   9.207   7.873  0.0747 -0.0684  0.2804
39094SOL    HW119289   3.408   9.149   7.894  0.1442 -0.7077 -1.1863
39094SOL    HW219290   3.524   9.222   7.957 -0.9373 -0.7698  0.9466
39095SOL     OW19291   2.853   1.115   4.925  0.0135  0.0597  0.4694
39095SOL    HW119292   2.825   1.026   4.903  0.1014 -0.7381  3.3059
39095SOL    HW219293   2.936   1.104   4.972 -0.0152  1.6280  0.9455
39096SOL     OW19294   1.094   8.451   3.332 -0.1877  0.4795 -0.2489
39096SOL    HW119295   1.008   8.494   3.333 -0.5313 -0.2029  0.6862
39096SOL    HW219296   1.123   8.452   3.423 -0.0316 -0.9049 -0.2630
39097SOL     OW19297  10.709   7.435   8.158  0.2031 -0.3864  0.1096
39097SOL    HW119298  10.775   7.396   8.215  0.2622 -1.8395 -0.8855
39097SOL    HW219299  10.757   7.458   8.079  0.0343  1.1786  0.4369
39098SOL     OW19300  10.653   5.162   4.773  0.1596 -0.2976  0.0073
39098SOL    HW119301  10.653   5.211   4.854 -2.4868 -1.2819  0.7224
39098SOL    HW219302  10.618   5.223   4.708  3.7347  1.0142 -0.9083
39099SOL     OW19303   3.828   7.990   5.832  0.0206  0.7089 -0.3256
39099SOL    HW119304   3.797   7.925   5.895  0.9289 -0.4444 -1.0291
39099SOL    HW219305   3.900   8.035   5.876 -1.5099  2.2753  0.6999
39100SOL     OW19306   0.795   9.152   5.862  0.5790  0.2758 -0.2287
39100SOL    HW119307   0.777   9.246   5.860  0.9192  0.3376 -0.7813
39100SOL    HW219308   0.870   9.141   5.802  0.9182 -0.2633  0.2802
39101SOL     OW19309   0.876  11.086  10.966 -0.0767  0.3877 -0.2286
39101SOL    HW119310   0.966  11.071  10.938  0.4532 -0.6165  1.7989
39101SOL    HW219311   0.834  11.001  10.960 -0.8028  0.7678 -0.7741
39102SOL     OW19312   6.442   6.343   1.150 -0.2734  0.0995  0.0251
39102SOL    HW119313   6.406   6.378   1.069 -2.4443 -1.5610  0.1706
39102SOL    HW219314   6.515   6.288   1.122 -0.3566  0.3480 -0.7057
39103SOL     OW19315   1.390   4.567   4.474  0.0459  0.3899 -0.2194
39103SOL    HW119316   1.466   4.626   4.475 -0.3446  0.9467 -1.2074
39103SOL    HW219317   1.377   4.548   4.381 -0.0462 -1.0040  0.0617
39104SOL     OW19318   2.510   6.494   8.792 -0.7291  0.3728 -0.6146
39104SOL    HW119319   2.528   6.552   8.866  0.9628 -2.7445  1.6990
39104SOL    HW219320   2.437   6.439   8.823  0.2561 -1.2290 -1.0218
39105SOL     OW19321  10.006   6.838   5.253  0.2038  0.6246 -0.6872
39105SOL    HW119322   9.930   6.783   5.272  0.1283  1.1076  0.5197
39105SOL    HW219323  10.074   6.777   5.228 -0.1246  0.0441 -0.1934
39106SOL     OW19324   2.419   5.724   3.797 -0.0825  0.2379  0.7277
39106SOL    HW119325   2.352   5.758   3.857 -2.8028 -0.1644 -1.8144
39106SOL    HW219326   2.388   5.636   3.775  1.7367 -0.2662 -0.0046
39107SOL     OW19327  10.401   6.915   5.671  0.6187 -0.2609 -0.1092
39107SOL    HW119328  10.466   6.944   5.608  0.0976  0.4346 -0.3437
39107SOL    HW219329  10.387   6.822   5.651  0.4569 -0.0492 -1.0267
39108SOL     OW19330   8.075   1.529   2.472 -0.0722 -0.6752  0.4626
39108SOL    HW119331   8.118   1.450   2.505  2.1920 -0.2187 -1.1136
39108SOL    HW219332   8.061   1.583   2.550 -1.9088 -2.6453  1.6096
39109SOL     OW19333   6.569   6.050   3.358 -0.5362  0.4111  0.5380
39109SOL    HW119334   6.489   6.102   3.352  0.6269  2.3690  1.0689
39109SOL    HW219335   6.542   5.968   3.399 -2.5797  0.2308 -1.0129
39110SOL     OW19336   1.132   2.013   0.490  0.5545  0.4463  0.2298
39110SOL    HW119337   1.214   1.965   0.500  0.3737  0.3146  1.2089
39110SOL    HW219338   1.111   2.044   0.578 -0.5773  0.2585  0.0479
39111SOL     OW19339   4.439   5.478   3.854  0.1537  0.3144  0.2937
39111SOL    HW119340   4.370   5.429   3.900 -0.5521  2.6442  1.9523
39111SOL    HW219341   4.501   5.503   3.923  1.4285  0.2589 -0.7847
39112SOL     OW19342   8.856   4.489  10.522  0.2861  0.0715 -0.0615
39112SOL    HW119343   8.808   4.451  10.448  0.2144 -0.6855  0.3613
39112SOL    HW219344   8.935   4.435  10.530  1.7804  1.9320 -1.3987
39113SOL     OW19345  10.838  10.535   3.847 -0.7545  0.3684  0.1505
39113SOL    HW119346  10.856  10.442   3.857  0.5105  0.4777 -0.8485
39113SOL    HW219347  10.911  10.578   3.892 -0.2910  0.8621 -1.0386
39114SOL     OW19348   9.952   3.868   4.423 -0.2441 -0.4680 -0.5091
39114SOL    HW119349  10.012   3.942   4.417 -0.0088 -0.6575 -0.4739
39114SOL    HW219350   9.896   3.889   4.498 -1.4714  0.6278 -1.6789
39115SOL     OW19351  10.504   8.481   7.597 -0.3398  0.2189  0.1074
39115SOL    HW119352  10.409   8.490   7.611 -0.4867  0.0283 -0.7219
39115SOL    HW219353  10.526   8.552   7.537  0.4556  1.6366  1.9920
39116SOL     OW19354  10.722   6.325   4.038 -0.2145  0.3231  0.3714
39116SOL    HW119355  10.712   6.370   4.122 -0.0766  2.3048 -0.6178
39116SOL    HW219356  10.771   6.386   3.983 -1.2192 -0.4443 -1.4943
39117SOL     OW19357   5.369  10.500   4.183  0.0251 -0.0550 -0.1607
39117SOL    HW119358   5.328  10.418   4.153  0.9280 -0.3745 -0.5569
39117SOL    HW219359   5.460  10.476   4.200  0.2269  0.8096  0.0132
39118SOL     OW19360   2.639   2.151   4.069 -0.3116  0.1821 -0.4057
39118SOL    HW119361   2.565   2.136   4.010 -0.8739  1.1142  0.0483
39118SOL    HW219362   2.716   2.130   4.016 -0.7269  2.0962 -1.8831
39119SOL     OW19363   0.591   0.544  10.558 -0.0320 -0.4861 -0.1572
39119SOL    HW119364   0.614   0.581  10.643 -0.9869 -1.0447  0.3665
39119SOL    HW219365   0.670   0.497  10.530  0.8364  1.0449 -0.3553
39120SOL     OW19366   9.342   3.262   0.966 -0.7270  0.3960  0.3524
39120SOL    HW119367   9.430   3.293   0.985 -0.5610  0.1864 -0.0485
39120SOL    HW219368   9.296   3.264   1.050 -0.0883 -0.3121  0.7334
39121SOL     OW19369   0.733   9.341   9.379 -0.1567 -0.0339 -0.4762
39121SOL    HW119370   0.758   9.285   9.305  1.6843  1.4600 -1.0964
39121SOL    HW219371   0.791   9.313   9.450  0.2581  0.5492 -0.5724
39122SOL     OW19372  10.249   8.749   2.355 -0.4640 -0.1982 -0.6674
39122SOL    HW119373  10.312   8.805   2.311  0.1280  1.3119  1.9029
39122SOL    HW219374  10.302   8.682   2.397 -1.1197 -2.5068 -3.2057
39123SOL     OW19375  10.040  10.540   0.318  0.1159 -0.7321 -0.0314
39123SOL    HW119376  10.135  10.540   0.309  0.2795 -0.8793  1.4247
39123SOL    HW219377  10.008  10.570   0.233  1.4123 -1.5982 -0.8564
39124SOL     OW19378   4.243   6.807   9.117  0.2198 -0.4528 -0.0482
39124SOL    HW119379   4.218   6.845   9.201  0.0087  0.2044 -0.4018
39124SOL    HW219380   4.186   6.849   9.053  1.5560  0.3801 -0.7473
39125SOL     OW19381   7.877   5.942   5.982  0.0464  0.2743  0.3597
39125SOL    HW119382   7.937   6.011   6.010  0.1687  0.3990 -0.1994
39125SOL    HW219383   7.791   5.970   6.013  0.4703 -0.6212  2.4630
39126SOL     OW19384  10.418   7.993   9.507 -0.4570  0.0069  0.4798
39126SOL    HW119385  10.481   7.931   9.470 -0.5190  0.4793 -0.4748
39126SOL    HW219386  10.430   8.072   9.454 -1.9130  0.0664  0.2143
39127SOL     OW19387   4.094   7.454   0.140 -0.4310 -0.6848  0.1474
39127SOL    HW119388   4.130   7.541   0.122 -0.4512 -0.5146  0.9031
39127SOL    HW219389   4.127   7.432   0.227 -0.6210 -1.3343  0.0558
39128SOL     OW19390   1.823   6.274   5.403 -0.0268  0.7358  0.7728
39128SOL    HW119391   1.854   6.315   5.483 -0.5353  1.1744  0.7516
39128SOL    HW219392   1.875   6.314   5.333  1.6670 -0.9213  1.0182
39129SOL     OW19393   9.290   3.051   3.554 -0.9048 -0.7410  0.1409
39129SOL    HW119394   9.310   3.066   3.647  0.3206 -1.4918  0.0251
39129SOL    HW219395   9.206   3.094   3.540 -0.4487  0.5735  1.2707
39130SOL     OW19396   9.816   0.296   0.899 -0.0336 -0.4776  0.5484
39130SOL    HW119397   9.761   0.218   0.894  0.5937 -0.8903 -0.3563
39130SOL    HW219398   9.770   0.361   0.847 -0.8827 -0.0123  1.8346
39131SOL     OW19399   2.297   3.410   1.596 -0.3467  0.1551 -0.1329
39131SOL    HW119400   2.302   3.492   1.644  2.5968 -0.7135  1.2829
39131SOL    HW219401   2.323   3.432   1.506  1.7571  0.6411  0.5391
39132SOL     OW19402   2.435   4.920  10.518  0.1210  0.6567  0.6431
39132SOL    HW119403   2.388   4.838  10.528  0.1982  0.8652  3.7453
39132SOL    HW219404   2.375   4.977  10.471 -0.3882 -0.7728 -0.5193
39133SOL     OW19405   4.556  10.095   3.650 -0.1697 -0.2903 -0.2096
39133SOL    HW119406   4.488  10.086   3.717 -0.1998  1.1257 -0.0117
39133SOL    HW219407   4.508  10.084   3.567 -0.0406 -2.5766 -0.0463
39134SOL     OW19408   7.997  11.036   7.825 -0.7874  0.0575 -0.0792
39134SOL    HW119409   7.987  10.961   7.882  1.0567 -0.5423 -0.4731
39134SOL    HW219410   7.919  11.034   7.768 -0.4379 -1.9867 -0.5656
39135SOL     OW19411   9.285   3.660   2.114 -0.1020  0.0850 -0.5289
39135SOL    HW119412   9.273   3.598   2.043 -0.6363  0.8291 -1.0955
39135SOL    HW219413   9.254   3.614   2.192  0.5983 -0.7703 -0.7485
39136SOL     OW19414   8.169   3.732   6.393 -0.3073 -0.3238  0.0785
39136SOL    HW119415   8.162   3.779   6.476 -1.0009 -0.8449  0.3244
39136SOL    HW219416   8.136   3.793   6.327 -0.3098 -0.1196  0.2698
39137SOL     OW19417   0.731  10.861   9.352 -0.3119 -0.4026 -0.2402
39137SOL    HW119418   0.773  10.782   9.320  1.1558  0.1277  0.3034
39137SOL    HW219419   0.667  10.883   9.284 -0.3637 -1.7390 -0.6457
39138SOL     OW19420   9.177   4.037   9.386 -0.4163 -0.3838  0.4508
39138SOL    HW119421   9.151   4.091   9.461 -0.7790 -0.1912  0.1901
39138SOL    HW219422   9.152   3.948   9.411 -3.5078  0.0467 -0.6888
39139SOL     OW19423   5.640   3.402   3.620  0.0862  0.3112 -0.0707
39139SOL    HW119424   5.706   3.334   3.629  0.0615  0.4233  1.2752
39139SOL    HW219425   5.571   3.362   3.567  0.6306 -0.2670 -0.3574
39140SOL     OW19426  10.615   7.744   1.033  0.8333  0.2971  0.3330
39140SOL    HW119427  10.703   7.708   1.043  0.2227 -1.4851 -0.3611
39140SOL    HW219428  10.618   7.828   1.079  3.0473  0.5508 -0.1580
39141SOL     OW19429   6.832   8.052   4.511 -0.1528  0.2848  0.0335
39141SOL    HW119430   6.879   8.085   4.435 -1.9286  2.4079 -0.2375
39141SOL    HW219431   6.743   8.039   4.481 -0.6742  0.2147  1.5134
39142SOL     OW19432   8.668   5.510  10.949  0.6670  0.0714 -0.1343
39142SOL    HW119433   8.607   5.581  10.929  0.8000  0.7182  1.5870
39142SOL    HW219434   8.692   5.474  10.863 -1.5686  0.2438 -0.9021
39143SOL     OW19435  10.355   5.392   2.421  0.2926 -0.8449  0.6645
39143SOL    HW119436  10.392   5.399   2.333  1.7468 -3.3043  0.9918
39143SOL    HW219437  10.300   5.470   2.430 -0.8420 -1.0498 -2.8470
39144SOL     OW19438   0.274   8.610   2.512  0.9116 -0.2272 -0.4066
39144SOL    HW119439   0.361   8.581   2.540  0.4172 -1.2129  0.1563
39144SOL    HW219440   0.268   8.701   2.543  2.1741  0.2596 -1.4935
39145SOL     OW19441   6.094   9.682   4.200 -0.2776  0.0796  0.1990
39145SOL    HW119442   6.111   9.621   4.272 -0.4605  0.0390  0.2075
39145SOL    HW219443   5.999   9.686   4.193 -0.2950  1.0519  0.7907
39146SOL     OW19444   1.270   3.467   9.760  0.7312 -0.4257 -0.6079
39146SOL    HW119445   1.304   3.553   9.783 -0.2971 -0.3620  0.8180
39146SOL    HW219446   1.182   3.465   9.797  1.2711 -2.6110  0.7453
39147SOL     OW19447   3.891   5.062   2.731  0.1235 -0.2786  0.0647
39147SOL    HW119448   3.985   5.081   2.727  0.3115 -1.1936 -0.1329
39147SOL    HW219449   3.884   4.988   2.791 -0.5282  0.1061  0.4727
39148SOL     OW19450   9.213   4.473   3.215  0.4439 -0.0168 -0.1552
39148SOL    HW119451   9.281   4.540   3.207  1.7781 -1.4008 -0.6909
39148SOL    HW219452   9.215   4.447   3.307  1.3721 -0.7815 -0.3815
39149SOL     OW19453   0.722   7.011   3.292 -0.7994 -0.2111  0.2484
39149SOL    HW119454   0.688   6.942   3.348  0.2854 -1.0210 -0.0603
39149SOL    HW219455   0.687   6.993   3.206 -1.9018  0.6331  0.4997
39150SOL     OW19456   5.289   3.565   2.386  0.1187  0.3592  0.4164
39150SOL    HW119457   5.239   3.484   2.384  0.6052  0.0669 -0.0167
39150SOL    HW219458   5.327   3.568   2.474  0.1635  0.0796  0.4058
39151SOL     OW19459  10.129   0.534   9.950 -0.4489 -0.1431 -0.2219
39151SOL    HW119460  10.144   0.459  10.007  0.1185 -1.0368 -1.4969
39151SOL    HW219461  10.189   0.521   9.876 -1.7724  0.4958 -1.4672
39152SOL     OW19462   1.039   1.782   3.718  0.1325 -0.2206 -0.0947
39152SOL    HW119463   0.981   1.712   3.689  3.0531 -2.9479 -0.0373
39152SOL    HW219464   1.110   1.782   3.653  1.3900  1.0889  1.2094
39153SOL     OW19465   8.996  10.244   5.899 -0.1109  0.0389 -0.2194
39153SOL    HW119466   8.946  10.166   5.922  1.6800 -1.1584 -0.1718
39153SOL    HW219467   8.974  10.260   5.807  0.0545 -0.9734 -0.4426
39154SOL     OW19468   0.763   9.594   3.281  0.4840 -0.6275 -0.1283
39154SOL    HW119469   0.843   9.549   3.252  0.1417 -1.7324  0.5908
39154SOL    HW219470   0.696   9.527   3.280 -0.5249  0.3636 -0.9978
39155SOL     OW19471   1.570   5.270   7.330 -0.5046 -0.5250  0.1675
39155SOL    HW119472   1.645   5.313   7.286 -0.6598 -0.9939 -0.5785
39155SOL    HW219473   1.609   5.227   7.406  0.0775 -1.1425 -0.4604
39156SOL     OW19474  11.076   1.795   4.838  0.9837  0.3093 -0.4041
39156SOL    HW119475  11.125   1.812   4.757 -0.0606 -0.2352 -1.1745
39156SOL    HW219476  10.997   1.849   4.830  0.3147 -0.6371 -0.2891
39157SOL     OW19477   3.022   7.525   1.249  0.3075 -0.2394  0.0122
39157SOL    HW119478   3.048   7.462   1.316  0.6697 -0.6549 -0.5030
39157SOL    HW219479   2.981   7.472   1.181 -1.5471  0.3612  0.6057
39158SOL     OW19480   7.507   8.046   3.960  0.1917  0.2904  1.0613
39158SOL    HW119481   7.554   7.971   3.995 -0.4832  0.6044  2.7371
39158SOL    HW219482   7.560   8.122   3.984 -0.6879  0.5756  2.2130
39159SOL     OW19483   1.343   2.410   7.016  0.0768  0.4558  0.0430
39159SOL    HW119484   1.307   2.399   7.104  0.2589  1.3811  0.2459
39159SOL    HW219485   1.268   2.438   6.962 -0.1488 -0.6165 -0.2266
39160SOL     OW19486   1.019   0.865   8.191  0.9690 -0.4789 -0.1911
39160SOL    HW119487   1.058   0.934   8.138  0.8047 -0.5218 -0.3680
39160SOL    HW219488   0.932   0.898   8.213  1.7846  0.5079  1.8747
39161SOL     OW19489   3.617   0.057   4.446  0.4521  0.3516 -0.4335
39161SOL    HW119490   3.584   0.075   4.357  0.1287  0.8510 -0.2228
39161SOL    HW219491   3.601  -0.036   4.459  0.5117  0.2706 -0.9046
39162SOL     OW19492   5.678   9.072   6.756 -0.0458  0.2066  0.1368
39162SOL    HW119493   5.646   9.102   6.671  0.8605  1.5678  0.2487
39162SOL    HW219494   5.731   8.995   6.736  0.7908  0.9628 -0.6314
39163SOL     OW19495   1.214   7.071   7.400 -0.7389  0.3228  0.1103
39163SOL    HW119496   1.134   7.021   7.384 -1.1170  0.6513  0.9248
39163SOL    HW219497   1.282   7.022   7.354 -0.9716 -1.3721  1.4469
39164SOL     OW19498   8.111   1.498   6.573  0.0746  0.2233  0.0352
39164SOL    HW119499   8.050   1.550   6.625 -0.2499  0.6036 -0.7097
39164SOL    HW219500   8.056   1.452   6.510  0.4770 -0.1116 -0.0818
39165SOL     OW19501   8.345   9.111   8.804  0.1399 -0.2754  0.0184
39165SOL    HW119502   8.398   9.066   8.738  0.9776  0.2818  0.2893
39165SOL    HW219503   8.408   9.161   8.855 -0.6970  0.8098  0.0386
39166SOL     OW19504   2.087   7.967   3.776 -0.2950 -0.3416 -0.3186
39166SOL    HW119505   2.043   7.976   3.861 -0.8143  1.4152 -0.7250
39166SOL    HW219506   2.026   7.917   3.723 -0.7911  0.1049 -0.1844
39167SOL     OW19507   1.308   1.537   7.779 -0.3251  0.4092 -0.2429
39167SOL    HW119508   1.288   1.625   7.811 -0.2481  0.0667  0.7672
39167SOL    HW219509   1.385   1.548   7.723 -0.3170  0.9803 -0.1201
39168SOL     OW19510   1.487   7.144   8.913  0.4555 -0.2697  0.2026
39168SOL    HW119511   1.406   7.190   8.890  0.1148 -0.3927  1.0947
39168SOL    HW219512   1.478   7.058   8.872 -0.1432 -0.4933  0.7825
39169SOL     OW19513  10.379   1.288   5.569  0.6916  0.3883  0.3534
39169SOL    HW119514  10.367   1.299   5.663  0.4311 -1.2994  0.5424
39169SOL    HW219515  10.470   1.313   5.553  0.4072  1.8504  0.8272
39170SOL     OW19516   8.046   0.559  10.962 -0.5845  0.1796 -0.0113
39170SOL    HW119517   8.138   0.563  10.935 -1.1727  0.9619 -2.0981
39170SOL    HW219518   8.005   0.501  10.898 -1.8216  1.0311 -0.0079
39171SOL     OW19519   2.031   2.698   2.720  0.4056 -0.3702 -0.3672
39171SOL    HW119520   2.040   2.756   2.645 -1.1357 -0.7246 -0.8581
39171SOL    HW219521   2.117   2.659   2.731  0.9872  0.6667 -1.1347
39172SOL     OW19522   3.379   0.320   4.094  0.7467  0.1595 -0.0481
39172SOL    HW119523   3.439   0.363   4.033 -0.5590  2.6394  0.2848
39172SOL    HW219524   3.292   0.331   4.054  0.2673 -1.4997  0.4713
39173SOL     OW19525   7.354   7.238   2.393 -0.7691  0.7981 -0.5961
39173SOL    HW119526   7.411   7.171   2.354  1.4227  2.1907  0.0780
39173SOL    HW219527   7.301   7.269   2.320 -1.7826 -1.5241 -0.9576
39174SOL     OW19528   6.411  10.726   1.126  0.7281 -0.2754  0.2246
39174SOL    HW119529   6.398  10.680   1.208  0.0678  0.3792  0.4949
39174SOL    HW219530   6.357  10.679   1.063 -1.2911  1.0891  0.8585
39175SOL     OW19531  10.657   1.642   8.474  0.1837 -0.8067  0.0804
39175SOL    HW119532  10.631   1.575   8.536 -0.4313 -0.0356  0.6715
39175SOL    HW219533  10.588   1.709   8.479  1.5640  0.6476  0.7139
39176SOL     OW19534  10.469   2.647   9.568 -0.2004  0.1792 -0.0646
39176SOL    HW119535  10.410   2.625   9.496  0.6004  0.9394 -0.9929
39176SOL    HW219536  10.509   2.564   9.592 -2.0594 -0.4617  1.0040
39177SOL     OW19537   1.342   8.189   0.259  0.0112  0.2076 -0.0667
39177SOL    HW119538   1.330   8.101   0.223  1.0637  0.0835 -0.1393
39177SOL    HW219539   1.424   8.184   0.308  1.3128  1.7315 -1.9601
39178SOL     OW19540  10.403   9.823   3.347  0.1403  0.7918  0.1496
39178SOL    HW119541  10.494   9.818   3.318 -0.0337 -0.7472 -0.2382
39178SOL    HW219542  10.369   9.902   3.305  1.1115  1.0244 -0.2411
39179SOL     OW19543   0.786   1.970   9.059 -0.4462 -0.0325 -0.4420
39179SOL    HW119544   0.716   1.917   9.021  0.1466  0.1684 -1.8854
39179SOL    HW219545   0.800   2.041   8.996 -0.1484  0.9466  0.6892
39180SOL     OW19546   3.853   0.806   0.364 -0.1438  0.3390  0.1057
39180SOL    HW119547   3.846   0.754   0.444  0.3564  0.2557  0.0990
39180SOL    HW219548   3.937   0.852   0.373  0.1906 -0.1026 -0.6182
39181SOL     OW19549   3.247   3.809   3.733  0.0268  0.3343  0.3937
39181SOL    HW119550   3.283   3.792   3.820 -0.3944  1.7608  0.8871
39181SOL    HW219551   3.155   3.786   3.739  0.1711 -0.3724  0.0526
39182SOL     OW19552   6.495   8.226   6.864  0.0329  0.3014 -0.3640
39182SOL    HW119553   6.469   8.291   6.799  0.8846  1.1746  0.1354
39182SOL    HW219554   6.475   8.267   6.948 -0.4834 -0.5588 -0.0655
39183SOL     OW19555   2.986   4.988   7.998  0.2080 -0.0909  0.1547
39183SOL    HW119556   3.081   4.980   7.988  0.2449 -0.4103  0.7571
39183SOL    HW219557   2.969   5.081   7.990  0.3221 -0.2061 -2.1073
39184SOL     OW19558   7.752   2.519   7.208 -0.4191 -0.2608 -0.0736
39184SOL    HW119559   7.783   2.567   7.132  0.7641 -1.6382 -0.4949
39184SOL    HW219560   7.691   2.455   7.173 -1.4567  0.4397  0.4052
39185SOL     OW19561   1.897   6.216   3.783 -0.1713  0.0005 -0.0274
39185SOL    HW119562   1.812   6.199   3.741  0.7491 -0.0440 -1.9555
39185SOL    HW219563   1.890   6.172   3.868 -1.4491 -1.5822 -0.8826
39186SOL     OW19564   9.895   2.265   2.713  0.0140 -0.5588  0.3552
39186SOL    HW119565   9.830   2.336   2.716  1.2168  0.8423 -2.3798
39186SOL    HW219566   9.968   2.297   2.766  0.0024 -0.3474  0.2465
39187SOL     OW19567   6.817   2.070   5.922 -0.5471 -0.2002 -0.3130
39187SOL    HW119568   6.738   2.117   5.949  0.3916  1.3943 -0.2002
39187SOL    HW219569   6.851   2.119   5.848  1.0799  0.0067  0.5015
39188SOL     OW19570   7.641   7.094   1.061  0.1857 -0.3379 -0.0722
39188SOL    HW119571   7.735   7.100   1.076  0.1923 -1.4105  0.3459
39188SOL    HW219572   7.615   7.185   1.042  1.6046 -0.2786 -2.1098
39189SOL     OW19573   9.739   7.252   5.920  0.7109 -0.2362  0.7550
39189SOL    HW119574   9.707   7.339   5.898  0.6232 -1.2499 -4.1941
39189SOL    HW219575   9.828   7.249   5.886  0.0182 -2.5533 -1.2067
39190SOL     OW19576   1.729   5.099   7.015  0.1415 -0.1206 -0.2108
39190SOL    HW119577   1.804   5.159   7.014  1.1108 -1.1875  1.6595
39190SOL    HW219578   1.768   5.012   7.016 -1.1574 -0.7257  0.0964
39191SOL     OW19579  11.082   7.754   3.879  0.4915  0.0867  0.3171
39191SOL    HW119580  11.073   7.658   3.877  1.4738 -0.0491  1.2760
39191SOL    HW219581  11.015   7.786   3.819 -0.0712 -1.1924  0.2351
39192SOL     OW19582   2.152  10.790  10.009  0.4810 -0.9380 -0.3148
39192SOL    HW119583   2.115  10.821   9.926 -0.6560 -0.4032  0.3713
39192SOL    HW219584   2.247  10.793   9.995  0.3184 -0.5969 -1.4990
39193SOL     OW19585  10.050   8.974   2.927  0.2282 -0.0216  0.6508
39193SOL    HW119586   9.994   9.051   2.919  1.8757  1.2345  0.7929
39193SOL    HW219587   9.993   8.901   2.902 -1.0639  1.3416 -0.6082
39194SOL     OW19588   0.724   4.738   1.668  0.4335 -0.0646  0.0068
39194SOL    HW119589   0.807   4.697   1.694  0.2142 -1.3565 -1.1795
39194SOL    HW219590   0.749   4.826   1.641  1.1330  0.1774  1.3556
39195SOL     OW19591   8.534  10.134   4.011  0.8884 -0.3677 -0.1136
39195SOL    HW119592   8.495  10.125   4.098  1.3840 -3.2429 -0.1042
39195SOL    HW219593   8.461  10.165   3.956  0.6133  1.6807  1.2695
39196SOL     OW19594   0.173   2.552  10.078 -0.3995 -0.2176  0.2010
39196SOL    HW119595   0.093   2.525  10.123 -0.0555 -0.9151  0.4232
39196SOL    HW219596   0.239   2.490  10.110  0.1595  0.1647 -0.2033
39197SOL     OW19597   1.793   3.073   3.413  0.4365 -0.1016 -0.6037
39197SOL    HW119598   1.706   3.051   3.380 -0.1734  0.5561  0.5040
39197SOL    HW219599   1.816   2.999   3.470  0.6363 -0.3093 -0.9528
39198SOL     OW19600   8.839   7.958   7.146  0.1881  0.8231  0.2049
39198SOL    HW119601   8.767   7.958   7.209 -0.0555  1.9518 -0.0585
39198SOL    HW219602   8.849   7.866   7.121 -1.4597  0.6946 -0.0813
39199SOL     OW19603   9.947   2.289   5.119  0.7909  0.3507 -0.2263
39199SOL    HW119604   9.982   2.208   5.081 -0.3806 -0.9987  1.4324
39199SOL    HW219605   9.883   2.260   5.183  0.7307  2.6007  0.8310
39200SOL     OW19606   5.378   8.331   8.508 -0.2614 -0.3878  0.1591
39200SOL    HW119607   5.287   8.305   8.497  0.5661 -2.8918 -1.4788
39200SOL    HW219608   5.393   8.324   8.602 -1.2971 -1.7200  0.2595
39201SOL     OW19609   8.580   0.440   2.906  0.0462 -0.2660  0.8064
39201SOL    HW119610   8.641   0.451   2.833  1.3101  2.0576  2.1238
39201SOL    HW219611   8.496   0.472   2.873  0.1359 -1.0212 -0.1929
39202SOL     OW19612   7.504   2.057   2.063  0.3448  0.1100  0.2917
39202SOL    HW119613   7.555   2.134   2.038  0.7064  0.1377  1.0805
39202SOL    HW219614   7.470   2.079   2.150  0.9276 -0.8564  0.7734
39203SOL     OW19615   7.791   6.337   8.603  0.0191  0.4064  0.5222
39203SOL    HW119616   7.761   6.360   8.691 -0.5578 -0.1637  0.4783
39203SOL    HW219617   7.882   6.368   8.600  0.2008  0.0020  1.4865
39204SOL     OW19618   8.702   5.949   8.326 -0.3895  0.9463 -0.1162
39204SOL    HW119619   8.692   5.864   8.283 -0.1205  1.0902 -0.4657
39204SOL    HW219620   8.745   6.004   8.260  1.4642  0.7421  0.8791
39205SOL     OW19621   5.986   2.975   2.866 -0.3606 -0.1917  0.2279
39205SOL    HW119622   6.077   2.991   2.891  0.4902 -1.5421 -1.7265
39205SOL    HW219623   5.934   3.017   2.934  1.7267 -0.7619  2.2917
39206SOL     OW19624   2.831   2.834   5.231 -0.6233 -0.1451 -0.5398
39206SOL    HW119625   2.872   2.759   5.275 -1.8986 -1.1479 -0.9671
39206SOL    HW219626   2.888   2.852   5.157 -0.5193 -0.9813 -0.6749
39207SOL     OW19627   0.849   4.307   6.000 -0.2592 -0.5831  0.2552
39207SOL    HW119628   0.870   4.396   5.970  1.2812 -1.1054 -0.3376
39207SOL    HW219629   0.795   4.270   5.930  1.0796 -0.8861 -0.6583
39208SOL     OW19630   6.097   8.756  10.288 -0.0909  0.2151  1.2529
39208SOL    HW119631   6.072   8.676  10.335 -0.4898  0.0554  0.7696
39208SOL    HW219632   6.147   8.725  10.212 -1.7823  0.3004  0.0623
39209SOL     OW19633   0.569   4.739   4.844  0.6089 -0.3303  0.2855
39209SOL    HW119634   0.654   4.764   4.878  0.1914  0.5827  0.6955
39209SOL    HW219635   0.507   4.796   4.890 -0.0966 -0.0605 -0.9461
39210SOL     OW19636  10.115   5.674   1.136  0.1879  0.2289 -0.5622
39210SOL    HW119637  10.079   5.613   1.072  0.4901 -0.4111 -0.1201
39210SOL    HW219638  10.119   5.758   1.089  3.2327 -0.8012 -2.4090
39211SOL     OW19639   1.568  10.811   9.166 -0.0293 -0.3163  0.2607
39211SOL    HW119640   1.475  10.798   9.146  0.1603 -2.2159  0.4008
39211SOL    HW219641   1.580  10.906   9.166 -1.3778 -0.0567 -2.4384
39212SOL     OW19642   2.140   7.375   6.103 -0.7427 -0.4528 -0.4062
39212SOL    HW119643   2.152   7.354   6.010  1.7915 -1.4663  0.0552
39212SOL    HW219644   2.153   7.292   6.149  1.8170  0.6070  1.0183
39213SOL     OW19645   2.483   8.388   3.507 -0.7530 -0.6098 -0.5531
39213SOL    HW119646   2.449   8.375   3.418 -1.2008  0.6737 -0.5828
39213SOL    HW219647   2.405   8.401   3.560 -0.4268 -0.1884 -0.1762
39214SOL     OW19648   2.271   7.907   1.557 -0.3668  0.0359 -0.8265
39214SOL    HW119649   2.279   8.001   1.570  0.0136  0.1067 -1.5385
39214SOL    HW219650   2.348   7.883   1.505  0.8015 -1.0505  1.2505
39215SOL     OW19651   6.120   7.171   7.277 -0.1745 -0.6429 -0.0898
39215SOL    HW119652   6.103   7.140   7.188 -0.5718 -1.2952  0.2117
39215SOL    HW219653   6.114   7.266   7.270 -3.0095 -0.7638 -0.2122
39216SOL     OW19654   9.515   1.712  10.121 -0.3378 -0.1995  0.3307
39216SOL    HW119655   9.489   1.627  10.084  0.7956 -0.3678 -0.1319
39216SOL    HW219656   9.545   1.692  10.209  1.2543 -0.5277 -0.2535
39217SOL     OW19657   5.395   5.270   2.361  0.4010 -0.1856 -0.0890
39217SOL    HW119658   5.299   5.264   2.365  0.2714 -0.0826 -1.8711
39217SOL    HW219659   5.414   5.269   2.267  2.2014 -0.8760  0.2497
39218SOL     OW19660   6.019   5.341   9.183  0.0172 -0.1709 -0.1081
39218SOL    HW119661   5.943   5.289   9.210 -0.9334  0.8194 -0.7999
39218SOL    HW219662   6.029   5.321   9.090 -0.9728  1.6002 -0.6263
39219SOL     OW19663   3.147   6.450  10.001  0.1037 -0.2839  0.5207
39219SOL    HW119664   3.223   6.485   9.956  0.6220  0.6161  2.0252
39219SOL    HW219665   3.106   6.391   9.938  0.6401  1.1061 -1.1803
39220SOL     OW19666   9.914   8.719   4.621 -0.3868 -0.0520  0.1223
39220SOL    HW119667   9.879   8.633   4.599 -1.2364  0.6215 -1.3512
39220SOL    HW219668   9.842   8.763   4.667 -0.0683 -0.0187  0.5929
39221SOL     OW19669   2.339   6.302   8.914 -0.6053  0.1794  0.1599
39221SOL    HW119670   2.298   6.228   8.867 -0.4453  0.5472 -0.5782
39221SOL    HW219671   2.431   6.277   8.920 -0.4663  0.5093 -0.4905
39222SOL     OW19672   2.524   4.931   1.151  0.1909  0.2994 -0.0655
39222SOL    HW119673   2.532   4.895   1.063 -0.4315  1.6551 -0.7003
39222SOL    HW219674   2.483   4.860   1.202 -1.0024  0.0681 -1.2687
39223SOL     OW19675   3.891   3.440   9.423 -0.0379 -0.1415 -0.0819
39223SOL    HW119676   3.961   3.463   9.362  0.3917 -1.1267  0.0214
39223SOL    HW219677   3.933   3.388   9.491 -1.0253 -1.6650 -0.5808
39224SOL     OW19678  10.095   7.367   5.549  0.3728  0.4410 -0.9358
39224SOL    HW119679  10.082   7.427   5.475  1.2815 -0.2891 -1.6979
39224SOL    HW219680  10.140   7.292   5.512 -2.0709 -1.4481 -0.3139
39225SOL     OW19681   7.971   3.738   5.505 -0.0824 -0.2880  0.1310
39225SOL    HW119682   7.990   3.648   5.476 -2.3025 -0.3266 -1.4417
39225SOL    HW219683   7.976   3.790   5.425 -0.2409  0.7466  0.7810
39226SOL     OW19684   6.264   1.535   3.298  0.6061 -0.5124 -0.3658
39226SOL    HW119685   6.355   1.533   3.327  1.1678 -3.0090 -2.0170
39226SOL    HW219686   6.219   1.470   3.352 -0.3129  0.8449  0.5839
39227SOL     OW19687   4.389   5.728   8.191 -0.3023  0.8007  0.6395
39227SOL    HW119688   4.314   5.673   8.214 -0.7626  0.1949 -1.9621
39227SOL    HW219689   4.394   5.792   8.261 -1.5535 -0.7925  2.2848
39228SOL     OW19690   5.330   1.731   0.606  0.5181  0.4037 -0.2479
39228SOL    HW119691   5.367   1.645   0.589 -1.2497 -0.1811 -1.4269
39228SOL    HW219692   5.381   1.790   0.550 -0.5058 -0.4475 -2.1841
39229SOL     OW19693   0.370   0.515   6.540 -0.5336  0.3255  0.3208
39229SOL    HW119694   0.284   0.472   6.535 -0.4770  0.0866  1.1494
39229SOL    HW219695   0.390   0.540   6.450 -0.9638 -0.6148 -0.0496
39230SOL     OW19696   1.572   8.089   4.767  0.3256  0.1142  0.2612
39230SOL    HW119697   1.512   8.161   4.749  1.6511  1.6445  1.6323
39230SOL    HW219698   1.659   8.125   4.750  0.9883 -1.5117 -0.0190
39231SOL     OW19699  10.244  10.652   7.554  0.4062 -0.2487  0.4158
39231SOL    HW119700  10.340  10.650   7.553  0.4154 -0.0874  0.7703
39231SOL    HW219701  10.220  10.587   7.620  0.2725 -0.3121  0.3031
39232SOL     OW19702   1.183   8.892  10.927 -0.4681 -0.4949  0.0766
39232SOL    HW119703   1.163   8.974  10.971 -0.7035 -0.1485 -0.6488
39232SOL    HW219704   1.178   8.826  10.995  2.3429  0.3775  1.3057
39233SOL     OW19705   9.951   2.047   4.247  0.4417  0.4627  0.1822
39233SOL    HW119706  10.014   2.046   4.320  0.6964  0.4789 -0.0354
39233SOL    HW219707   9.865   2.049   4.289  0.5627 -0.4115  0.4860
39234SOL     OW19708   8.677   4.544   7.272  0.1929 -0.0817 -0.0890
39234SOL    HW119709   8.733   4.586   7.206  0.0679 -1.0416 -0.8207
39234SOL    HW219710   8.594   4.530   7.227 -0.0750 -0.2520  0.4545
39235SOL     OW19711   5.859   5.129   3.874 -0.2743  0.6985 -0.3590
39235SOL    HW119712   5.776   5.169   3.901 -0.6566 -0.2628 -0.0678
39235SOL    HW219713   5.834   5.057   3.816  0.1886 -1.0133  1.4624
39236SOL     OW19714   2.067   4.695   7.934 -0.0814  0.0245 -0.5912
39236SOL    HW119715   2.032   4.766   7.881 -0.5833  0.4259  0.2637
39236SOL    HW219716   2.017   4.697   8.015  0.1221 -1.0964 -0.4075
39237SOL     OW19717   8.007   4.410   3.766  0.6099 -0.6974 -0.1747
39237SOL    HW119718   8.069   4.360   3.712  0.7452 -0.6137 -0.0958
39237SOL    HW219719   8.062   4.458   3.828  0.4816 -0.3966 -0.2948
39238SOL     OW19720   8.940   6.438   9.850 -0.1248 -0.4448 -0.0885
39238SOL    HW119721   8.947   6.344   9.862 -1.2835 -0.5253  0.1017
39238SOL    HW219722   8.970   6.476   9.933  4.0017 -0.4269 -1.4018
39239SOL     OW19723   0.407   6.679   7.354 -0.0452 -0.3469 -0.1659
39239SOL    HW119724   0.480   6.692   7.416  1.1617  0.4396 -1.6870
39239SOL    HW219725   0.446   6.694   7.268 -1.8905 -0.5384 -1.0743
39240SOL     OW19726   1.973   8.906   3.885 -0.2690 -0.1001 -0.2268
39240SOL    HW119727   1.903   8.858   3.840 -0.6869 -0.1487  0.4742
39240SOL    HW219728   1.948   8.998   3.876 -1.0780 -0.1658  1.0629
39241SOL     OW19729   4.653  10.095  10.475  0.2523  0.4939 -0.5769
39241SOL    HW119730   4.726  10.048  10.436 -0.3397  0.6575 -1.9207
39241SOL    HW219731   4.690  10.177  10.507  1.3695 -0.9101  2.0828
39242SOL     OW19732   7.288   2.926   6.611  0.2052  0.0199  0.1919
39242SOL    HW119733   7.379   2.900   6.627  0.4810 -0.3519 -1.6789
39242SOL    HW219734   7.258   2.865   6.543 -1.7156 -0.3674  1.2922
39243SOL     OW19735   5.195   6.649   2.147 -0.1982 -0.8517 -0.0743
39243SOL    HW119736   5.105   6.655   2.179  0.1598 -0.0126  0.8587
39243SOL    HW219737   5.224   6.740   2.142  1.5418 -1.1349  2.5724
39244SOL     OW19738   9.184   7.131   6.414 -0.4311  0.7791  0.6257
39244SOL    HW119739   9.117   7.121   6.347  1.0591  1.3026 -1.0095
39244SOL    HW219740   9.174   7.054   6.470 -1.9572  0.5299  0.0512
39245SOL     OW19741   2.840  10.297   5.640  0.4232 -0.4305 -0.0331
39245SOL    HW119742   2.750  10.272   5.661  0.6968 -0.5497  1.0805
39245SOL    HW219743   2.879  10.219   5.600  0.3456 -0.7442  0.4961
39246SOL     OW19744   5.021   4.250  10.569 -0.0563  0.6296  0.2753
39246SOL    HW119745   4.966   4.316  10.526  0.3866  1.0589  0.3600
39246SOL    HW219746   4.968   4.220  10.643 -0.9910 -0.4023 -0.7627
39247SOL     OW19747   9.527   6.379   5.906  0.2670 -0.4735 -0.1173
39247SOL    HW119748   9.440   6.384   5.868  0.4260 -0.3242 -0.4665
39247SOL    HW219749   9.583   6.430   5.847  0.5328 -0.3081  0.2721
39248SOL     OW19750   6.474   7.456   7.035 -0.6847  0.9479 -0.0070
39248SOL    HW119751   6.559   7.494   7.057 -0.4770 -0.3021  1.4740
39248SOL    HW219752   6.494   7.370   6.999 -1.3032  0.9022 -0.2640
39249SOL     OW19753   2.002   9.454   9.894  0.6154  0.2543  0.0616
39249SOL    HW119754   2.010   9.455   9.990  2.1723 -0.0811 -0.0344
39249SOL    HW219755   2.091   9.439   9.863 -0.0199 -0.5980 -1.4325
39250SOL     OW19756  10.293   9.202   9.245 -0.2072 -0.3635 -0.2699
39250SOL    HW119757  10.316   9.231   9.157 -0.4127 -0.7196 -0.4447
39250SOL    HW219758  10.239   9.272   9.281 -1.7033 -1.0098 -1.1234
39251SOL     OW19759   6.582   0.437   3.806 -0.8288 -0.0714  0.3792
39251SOL    HW119760   6.618   0.448   3.718 -0.9758 -2.2766 -0.0190
39251SOL    HW219761   6.646   0.382   3.852 -0.4451  1.5490  1.8937
39252SOL     OW19762   8.263   6.621   3.548  0.0868  0.0765  1.0043
39252SOL    HW119763   8.168   6.634   3.537  0.1953  0.1083 -0.0043
39252SOL    HW219764   8.293   6.592   3.462  0.6250 -2.2382  1.9095
39253SOL     OW19765   4.575   9.022   9.952 -0.0905  0.9689  0.0808
39253SOL    HW119766   4.497   9.006  10.004 -0.1185 -1.9920 -0.6594
39253SOL    HW219767   4.596   9.114   9.965 -2.1743  1.1864  2.3624
39254SOL     OW19768   2.343   9.273   7.097 -0.4520 -0.0398 -0.8056
39254SOL    HW119769   2.355   9.183   7.126  2.7035  0.1233 -1.1935
39254SOL    HW219770   2.294   9.267   7.015 -1.4915 -1.2442 -0.1228
39255SOL     OW19771   9.002   4.139   1.665 -0.4761  0.4828  0.4716
39255SOL    HW119772   8.953   4.085   1.603  0.0309  2.3769 -1.6995
39255SOL    HW219773   8.938   4.160   1.733 -1.7446  0.1914 -0.5807
39256SOL     OW19774   9.047   9.982   2.314 -0.0673  0.2754  0.7986
39256SOL    HW119775   9.036   9.894   2.349  0.3486 -0.7905 -1.5647
39256SOL    HW219776   9.127  10.015   2.356  0.7815 -1.1824  0.3886
39257SOL     OW19777   2.977   4.430   3.183  0.0301 -0.3578  0.1903
39257SOL    HW119778   2.948   4.463   3.268  1.4612 -0.0863  0.5955
39257SOL    HW219779   2.989   4.509   3.129  1.0810 -0.3645  0.3902
39258SOL     OW19780   1.701   7.550   3.148  0.0848 -0.0002 -0.1879
39258SOL    HW119781   1.676   7.458   3.157  1.3849 -0.3770 -0.1777
39258SOL    HW219782   1.785   7.557   3.194  0.3797  1.0118 -0.8364
39259SOL     OW19783  10.956   8.419   5.410  0.4882  0.0431 -0.0700
39259SOL    HW119784  11.043   8.458   5.408  0.3073  0.5467  1.1770
39259SOL    HW219785  10.923   8.428   5.320  1.4209  0.5098 -0.3707
39260SOL     OW19786   1.501   3.987   2.527  0.1755  0.0807 -0.1076
39260SOL    HW119787   1.461   3.900   2.536 -0.6646  0.5392  0.7091
39260SOL    HW219788   1.591   3.975   2.557  0.0207 -0.4668  0.1538
39261SOL     OW19789   8.359  10.401   7.849 -0.1767  0.1784 -0.3598
39261SOL    HW119790   8.389  10.340   7.916 -0.8823  0.1562 -0.0565
39261SOL    HW219791   8.432  10.408   7.788  0.1068 -0.5616 -0.1131
39262SOL     OW19792   9.598   4.904   3.555 -0.2776  0.4957 -0.1912
39262SOL    HW119793   9.516   4.872   3.516 -1.7965  0.9348  2.3973
39262SOL    HW219794   9.587   4.887   3.649  1.8405  2.2628  0.4374
39263SOL     OW19795   7.793   7.514   6.817 -0.3315 -0.0779 -0.5895
39263SOL    HW119796   7.879   7.472   6.818 -0.2143  0.1726  0.1122
39263SOL    HW219797   7.773   7.523   6.724 -0.3124 -1.5575 -0.7629
39264SOL     OW19798   9.336   7.622   1.737 -0.1546 -0.2148  0.5701
39264SOL    HW119799   9.327   7.587   1.648 -1.5098  0.0507  0.5787
39264SOL    HW219800   9.290   7.559   1.792 -0.8659  0.5182  0.8393
39265SOL     OW19801   1.412   3.569  10.091 -0.4917 -0.6348  0.3182
39265SOL    HW119802   1.354   3.509  10.137 -0.2012 -1.9071 -0.8996
39265SOL    HW219803   1.499   3.530  10.101 -0.3588 -0.6986 -0.8582
39266SOL     OW19804   7.170   1.289   1.535  0.1263  0.1524 -0.7342
39266SOL    HW119805   7.107   1.305   1.605 -0.9948 -2.2016 -1.1058
39266SOL    HW219806   7.253   1.325   1.567 -0.7893  0.8241  0.9518
39267SOL     OW19807   4.813   8.110   1.196  0.7629 -0.4970 -1.1359
39267SOL    HW119808   4.882   8.120   1.261  0.8446  0.8213 -1.3987
39267SOL    HW219809   4.734   8.092   1.247  1.0334 -0.6190 -0.7560
39268SOL     OW19810   8.866   7.783   0.971  0.5912 -0.8379  0.7634
39268SOL    HW119811   8.927   7.762   0.900 -1.2146 -1.4817 -0.6732
39268SOL    HW219812   8.809   7.706   0.977  1.8824 -1.7076  4.3298
39269SOL     OW19813   1.299   6.217   4.717  0.1720  0.1099 -0.0714
39269SOL    HW119814   1.223   6.181   4.761  0.1795 -0.4611 -0.5149
39269SOL    HW219815   1.354   6.142   4.697  0.3566  0.3987 -0.6870
39270SOL     OW19816   4.103   3.885   5.340  0.1811 -0.3401 -0.1829
39270SOL    HW119817   4.103   3.794   5.368  0.9490 -0.0766  0.7513
39270SOL    HW219818   4.036   3.890   5.272  1.2294 -1.9288 -1.3961
39271SOL     OW19819   1.899   6.788   8.228 -0.3345  0.0556  0.0374
39271SOL    HW119820   1.988   6.789   8.261 -0.2527  1.2419 -0.1733
39271SOL    HW219821   1.845   6.803   8.305 -0.4105 -1.3089  0.2719
39272SOL     OW19822  10.434   7.800   7.936  0.0838  0.4611 -0.1036
39272SOL    HW119823  10.476   7.838   7.859 -2.1561  0.7975 -1.2373
39272SOL    HW219824  10.416   7.710   7.912 -1.0388  0.6923 -0.1637
39273SOL     OW19825   9.383   7.225   4.922  0.2465  0.1199  0.1139
39273SOL    HW119826   9.310   7.242   4.862  0.9520  1.0349 -0.5289
39273SOL    HW219827   9.402   7.311   4.961 -1.4518 -0.7549  3.2030
39274SOL     OW19828  10.157   0.586   2.612 -0.0536 -0.0943  0.2745
39274SOL    HW119829  10.250   0.573   2.631 -0.1682 -0.3901  0.6518
39274SOL    HW219830  10.156   0.645   2.536  0.4454 -0.5162 -0.0653
39275SOL     OW19831   5.734   7.053   7.883 -0.1359  0.2803 -0.0041
39275SOL    HW119832   5.708   7.109   7.811  0.4634  2.7132  1.5697
39275SOL    HW219833   5.652   7.021   7.920 -0.4435 -1.4242 -1.9668
39276SOL     OW19834   7.593   2.284   1.479  0.2984  0.8663  0.2976
39276SOL    HW119835   7.552   2.327   1.404 -1.4901 -1.3365 -0.0728
39276SOL    HW219836   7.525   2.284   1.547  0.1887 -1.4069  0.2415
39277SOL     OW19837   9.328   5.033   7.661 -0.1590 -0.0682 -0.1068
39277SOL    HW119838   9.247   5.081   7.675 -0.6899 -1.3381  1.4872
39277SOL    HW219839   9.353   5.001   7.748 -0.5064 -3.6434 -1.1384
39278SOL     OW19840   9.083   4.858   8.014  0.6765 -0.3059 -0.1728
39278SOL    HW119841   9.136   4.808   7.952 -0.1236 -1.7567  0.2658
39278SOL    HW219842   9.015   4.797   8.041 -0.4074  1.0799  0.3166
39279SOL     OW19843   1.851   9.293   9.746  0.4093  0.2794  0.5501
39279SOL    HW119844   1.760   9.302   9.776 -0.0760  1.1622 -1.0338
39279SOL    HW219845   1.899   9.357   9.798  0.0836 -0.0321  1.2464
39280SOL     OW19846  10.143   8.207   3.413  0.6106 -0.7973  0.2478
39280SOL    HW119847  10.076   8.152   3.456 -1.4789  2.6948  1.9735
39280SOL    HW219848  10.147   8.286   3.468  1.6041  1.8299 -3.2455
39281SOL     OW19849   5.063   3.428   3.138 -0.1578 -0.3907  0.1320
39281SOL    HW119850   5.022   3.465   3.217  0.2430 -2.8999  1.6202
39281SOL    HW219851   5.129   3.492   3.114  0.7852 -0.2153  2.8157
39282SOL     OW19852   0.965   3.536   5.034 -0.6058 -0.1030  0.3273
39282SOL    HW119853   0.976   3.452   4.991  2.7639  0.3826 -0.0494
39282SOL    HW219854   0.893   3.523   5.096 -1.8946 -2.4207 -1.5106
39283SOL     OW19855   7.937  10.192   8.185  0.4044 -0.2598 -0.0547
39283SOL    HW119856   7.939  10.122   8.120 -0.8340 -1.0107  0.6779
39283SOL    HW219857   8.026  10.228   8.185  0.3672 -0.0140 -2.3886
39284SOL     OW19858   0.051   6.462   0.408 -0.0994  0.8101 -0.7621
39284SOL    HW119859   0.117   6.433   0.345  0.6813 -0.8542  0.7129
39284SOL    HW219860   0.093   6.533   0.457  0.2378  0.4181 -0.4799
39285SOL     OW19861  10.623   6.340   8.399 -0.0670 -0.0260 -0.5384
39285SOL    HW119862  10.694   6.289   8.361 -0.3640 -1.4830  0.7735
39285SOL    HW219863  10.545   6.309   8.353 -0.2288 -0.6994  0.1624
39286SOL     OW19864   5.211   3.121   3.601 -0.0307  0.0555  1.2100
39286SOL    HW119865   5.161   3.072   3.536  1.4009  0.9913 -0.6831
39286SOL    HW219866   5.285   3.064   3.622  0.1483  0.2548  1.1176
39287SOL     OW19867   0.362   5.667   2.987  0.1330 -0.2403 -0.1306
39287SOL    HW119868   0.401   5.683   2.901  1.2073 -1.0190  0.1854
39287SOL    HW219869   0.290   5.607   2.970  1.6632 -2.1377 -0.2960
39288SOL     OW19870   5.570  10.670   6.246 -0.3766 -0.0214  0.0028
39288SOL    HW119871   5.603  10.580   6.251  0.0215  0.1559  0.6128
39288SOL    HW219872   5.605  10.703   6.163  1.0594  0.1750  0.6497
39289SOL     OW19873  10.707   9.417   8.044  0.6886 -0.5210  0.2778
39289SOL    HW119874  10.612   9.415   8.056  0.7691 -1.0509  0.8595
39289SOL    HW219875  10.740   9.458   8.124  1.1708 -3.3673  1.6430
39290SOL     OW19876   9.606   5.733   7.293  0.4627  0.6728 -0.0381
39290SOL    HW119877   9.532   5.781   7.330 -1.2537 -1.8424  0.0915
39290SOL    HW219878   9.624   5.777   7.210 -1.7312  0.9179 -0.4393
39291SOL     OW19879   4.068   4.753   4.841  0.0137  0.3738 -0.2017
39291SOL    HW119880   3.986   4.770   4.888  1.0802  1.8898  1.2102
39291SOL    HW219881   4.120   4.832   4.854  2.3747 -1.1839  0.3991
39292SOL     OW19882   1.853   9.493   2.218  0.2399 -0.0196  0.6951
39292SOL    HW119883   1.939   9.454   2.231 -0.3637 -1.0587  1.7863
39292SOL    HW219884   1.838   9.486   2.124  1.6630  0.9157  0.3676
39293SOL     OW19885   0.455   4.186   6.520  0.3499 -0.2209 -0.6142
39293SOL    HW119886   0.521   4.117   6.523  1.5172  0.8382 -1.0576
39293SOL    HW219887   0.374   4.143   6.546  1.0181 -1.7847 -1.0331
39294SOL     OW19888   1.576   5.591   6.978  0.0440 -0.7469  0.2840
39294SOL    HW119889   1.581   5.680   6.945  1.6861 -0.6784  0.6504
39294SOL    HW219890   1.559   5.601   7.072  2.1870 -0.7208  0.7127
39295SOL     OW19891   1.527   1.087   8.365  0.0710 -0.2893 -0.2392
39295SOL    HW119892   1.441   1.111   8.332 -0.5435 -0.6392  1.0562
39295SOL    HW219893   1.582   1.163   8.346 -0.8298  0.4577  0.0451
39296SOL     OW19894  10.894   2.696   5.203  0.6828  0.0354 -0.8817
39296SOL    HW119895  10.945   2.769   5.169 -0.1235  0.5383 -1.0418
39296SOL    HW219896  10.824   2.684   5.139  1.5592 -1.7644 -1.5777
39297SOL     OW19897   6.428   5.615  10.926  0.0726 -0.2207 -0.2680
39297SOL    HW119898   6.436   5.628  10.831  0.2807 -1.3502 -0.4194
39297SOL    HW219899   6.359   5.676  10.952 -0.8012 -0.7096 -1.3408
39298SOL     OW19900   5.383   6.272  10.860 -0.9853  0.5807  0.0243
39298SOL    HW119901   5.421   6.329  10.793  2.9833 -1.4117  0.2599
39298SOL    HW219902   5.391   6.322  10.942 -0.1044  0.7424 -0.1540
39299SOL     OW19903   9.212   6.785   9.052  0.1869 -0.1688 -0.0944
39299SOL    HW119904   9.184   6.874   9.074  0.2082 -0.2224  0.1501
39299SOL    HW219905   9.297   6.797   9.009  0.2842 -0.0860  0.1211
39300SOL     OW19906   4.755   4.525   1.650 -0.1272  0.1469  1.1572
39300SOL    HW119907   4.828   4.486   1.602 -0.3998 -0.0029  0.8635
39300SOL    HW219908   4.784   4.527   1.741  0.4120  0.4784  0.9819
39301SOL     OW19909   2.396   7.439   7.238  0.1218 -0.1631  0.1342
39301SOL    HW119910   2.452   7.515   7.226  0.1477 -0.0375  0.9989
39301SOL    HW219911   2.314   7.475   7.274  0.3604 -0.5966  1.1427
39302SOL     OW19912  10.104   1.611   1.920 -0.0704 -0.4410 -1.4049
39302SOL    HW119913  10.169   1.622   1.851 -0.2682 -0.8094 -1.6572
39302SOL    HW219914  10.037   1.677   1.901  0.4796  0.2757 -0.8486
39303SOL     OW19915   8.361   2.163   6.155  0.3056 -0.0617  0.6445
39303SOL    HW119916   8.274   2.160   6.115  0.1699 -1.6699  0.9870
39303SOL    HW219917   8.356   2.102   6.229  1.4564  0.5335  1.2459
39304SOL     OW19918   1.605   8.044   1.988 -0.5400 -0.8197 -0.2827
39304SOL    HW119919   1.568   8.124   1.951  2.3978  1.1838  0.7971
39304SOL    HW219920   1.610   7.983   1.914 -1.4358  0.4833 -1.4703
39305SOL     OW19921   1.687   7.603   2.845 -0.2103 -0.3113 -0.0646
39305SOL    HW119922   1.699   7.693   2.877 -0.6107 -0.1160 -0.4614
39305SOL    HW219923   1.691   7.549   2.925 -1.2906  0.1823  0.3517
39306SOL     OW19924   7.256   7.823   0.635  0.3356  0.5531 -0.2882
39306SOL    HW119925   7.163   7.820   0.613  0.2446 -0.5450  0.1473
39306SOL    HW219926   7.298   7.771   0.566  0.3914 -0.4577  0.4758
39307SOL     OW19927   9.165   3.869   5.459 -0.1932 -0.0629  0.3965
39307SOL    HW119928   9.258   3.890   5.452 -0.4437  1.4523  1.0826
39307SOL    HW219929   9.141   3.836   5.373  1.1350 -1.2549  0.4386
39308SOL     OW19930   8.705   5.367   8.124  0.0513 -0.0992  0.1865
39308SOL    HW119931   8.613   5.343   8.115  0.0173  0.2951 -0.5949
39308SOL    HW219932   8.753   5.288   8.097 -0.0599  0.5354 -2.0662
39309SOL     OW19933   7.906   0.993   3.651  0.4096  0.2432 -0.2036
39309SOL    HW119934   7.956   0.928   3.602  0.2656 -0.0288  0.0075
39309SOL    HW219935   7.818   0.988   3.614  0.3716  0.2396 -0.1136
39310SOL     OW19936   1.131   2.759   4.157 -0.0239  0.0402  0.0350
39310SOL    HW119937   1.135   2.742   4.251 -2.1122  1.8046  0.5178
39310SOL    HW219938   1.150   2.852   4.149  0.4007 -0.1409 -1.3446
39311SOL     OW19939   7.824   3.016   5.755  0.5815  0.0801 -0.0074
39311SOL    HW119940   7.815   3.032   5.661 -4.3508  0.6257  0.3300
39311SOL    HW219941   7.868   3.095   5.788 -0.0414  1.1363 -1.5762
39312SOL     OW19942   5.425   0.588   0.430 -0.1235  0.3321 -0.2772
39312SOL    HW119943   5.347   0.542   0.461 -0.4603  0.8744 -0.3099
39312SOL    HW219944   5.391   0.658   0.374  0.1680  2.4546  2.0179
39313SOL     OW19945   8.708   2.917   4.573 -0.4879 -0.1015 -0.2063
39313SOL    HW119946   8.648   2.957   4.509 -1.7417 -1.5796 -0.0149
39313SOL    HW219947   8.709   2.824   4.549 -0.2636 -0.5241  1.3696
39314SOL     OW19948   2.943   2.736   3.775  0.3016  0.2909 -0.0046
39314SOL    HW119949   3.019   2.792   3.759 -1.6556  2.5770 -2.2362
39314SOL    HW219950   2.906   2.722   3.688 -2.8268  0.8366  1.1283
39315SOL     OW19951   1.405  10.568   6.871 -0.3216  0.0650  0.0579
39315SOL    HW119952   1.318  10.529   6.880 -1.5077  2.2140 -1.3811
39315SOL    HW219953   1.425  10.603   6.958 -1.9048  1.4852 -0.1101
39316SOL     OW19954   3.826   2.410   7.383  0.6104 -0.4026 -0.0594
39316SOL    HW119955   3.849   2.318   7.387  0.2358 -0.5661 -1.4233
39316SOL    HW219956   3.772   2.419   7.305 -0.2548  0.7770  0.6257
39317SOL     OW19957  10.262   9.851   1.282  0.1519  0.3270  0.5522
39317SOL    HW119958  10.211   9.822   1.358  2.3673 -0.5831  1.8001
39317SOL    HW219959  10.325   9.913   1.318  1.5084 -0.4115 -0.4352
39318SOL     OW19960   9.949   7.012   7.582  0.0272 -0.2233  0.0656
39318SOL    HW119961  10.007   6.962   7.525  1.9275  0.4874  1.2828
39318SOL    HW219962   9.916   6.948   7.645 -0.7637 -0.6796 -0.7810
39319SOL     OW19963   5.165   7.466   8.432  0.1546 -0.0655  0.4275
39319SOL    HW119964   5.180   7.560   8.433 -2.1876  0.3611  0.7399
39319SOL    HW219965   5.204   7.434   8.514 -1.0051  1.0054  1.4248
39320SOL     OW19966   9.995   7.110  10.430 -0.2160  0.5672 -0.4084
39320SOL    HW119967   9.994   7.205  10.447 -0.6333  0.7078 -1.1956
39320SOL    HW219968  10.066   7.097  10.368 -0.5424  0.4444 -0.7569
39321SOL     OW19969   6.675   3.987   8.452  0.3874 -0.4450  0.3322
39321SOL    HW119970   6.700   3.903   8.490  1.7244  0.0216  0.5338
39321SOL    HW219971   6.608   3.965   8.387 -0.8803 -1.4087  1.9086
39322SOL     OW19972   6.600   5.579   2.139 -0.5523 -0.3397 -0.2231
39322SOL    HW119973   6.652   5.620   2.208 -1.6798  1.0014 -0.1207
39322SOL    HW219974   6.639   5.612   2.058  1.0517 -2.2620 -0.2946
39323SOL     OW19975   0.069   5.992   3.102 -0.5292  0.0153  0.2381
39323SOL    HW119976   0.035   6.037   3.025 -1.4321 -1.9791 -0.6083
39323SOL    HW219977   0.089   5.904   3.071  1.0076 -0.2617  1.8461
39324SOL     OW19978   2.454   0.453   4.971 -0.6321  0.4649 -0.7086
39324SOL    HW119979   2.483   0.529   4.920  0.7986 -0.1595 -0.8854
39324SOL    HW219980   2.515   0.383   4.946 -1.9207 -0.7597 -0.5625
39325SOL     OW19981   5.074  10.722  10.455  0.2781  0.2159 -0.4488
39325SOL    HW119982   5.043  10.657  10.393  0.9693 -0.9565  0.4047
39325SOL    HW219983   4.995  10.759  10.493 -0.1886 -2.1893  1.1400
39326SOL     OW19984   0.857   4.718   7.838  0.5053  0.9528  0.5669
39326SOL    HW119985   0.907   4.736   7.759  0.4679 -0.3094  0.2326
39326SOL    HW219986   0.919   4.732   7.910  1.5819 -1.1867  0.1341
39327SOL     OW19987   1.999  11.080   0.088 -0.0844 -0.4800 -0.1821
39327SOL    HW119988   1.931  11.068   0.154  1.0582 -0.6982  0.9843
39327SOL    HW219989   2.081  11.061   0.133  0.7263 -0.8125 -1.7114
39328SOL     OW19990   7.831   1.649   0.295 -0.1490 -0.0535  0.1965
39328SOL    HW119991   7.842   1.607   0.209  0.4673  2.1253 -0.8655
39328SOL    HW219992   7.738   1.638   0.315 -0.2185 -0.9497 -0.5564
39329SOL     OW19993   8.816   6.733   6.339 -0.5693 -0.2922  0.0036
39329SOL    HW119994   8.753   6.705   6.273  0.1665 -1.9991 -0.0261
39329SOL    HW219995   8.888   6.771   6.289 -0.8837  0.2546 -0.0446
39330SOL     OW19996   2.971   0.666   3.840  0.2003  0.3374 -0.1080
39330SOL    HW119997   3.049   0.612   3.833  0.6396  0.9694 -0.1800
39330SOL    HW219998   2.957   0.700   3.751  0.3253  0.8773  0.0740
39331SOL     OW19999   1.813  11.054   3.498 -0.2368  0.6272  0.6204
39331SOL    HW120000   1.826  11.046   3.593  0.4835 -0.4783  0.4449
39331SOL    HW220001   1.902  11.057   3.463 -0.4934 -0.0847 -0.1016
39332SOL     OW20002  10.095   9.073   4.061  0.2243 -0.0533  0.0144
39332SOL    HW120003  10.065   9.136   3.996 -1.1673 -0.1668  0.5010
39332SOL    HW220004  10.122   8.997   4.010  0.8784  0.5188 -0.5122
39333SOL     OW20005  10.741   1.472   7.731  0.4229  0.4201 -0.8364
39333SOL    HW120006  10.683   1.396   7.738  0.5593  0.2502 -1.5031
39333SOL    HW220007  10.811   1.454   7.794 -0.1244  0.5283 -0.1769
39334SOL     OW20008   6.392   4.352   8.462  0.4000  0.6091 -0.9114
39334SOL    HW120009   6.322   4.404   8.421  1.7664  1.8881 -1.7228
39334SOL    HW220010   6.348   4.304   8.532 -1.1905  1.7946 -1.0339
39335SOL     OW20011   9.464   9.848   5.000 -0.2006 -0.2065  0.8237
39335SOL    HW120012   9.475   9.819   4.909  0.1741 -0.4784  0.9540
39335SOL    HW220013   9.514   9.929   5.006 -1.2509  0.5000  0.4585
39336SOL     OW20014   0.492   1.468   8.379 -0.1129  0.1999 -0.1813
39336SOL    HW120015   0.450   1.538   8.330  0.2940 -0.8179 -2.1146
39336SOL    HW220016   0.538   1.512   8.451 -0.8405  1.7560 -0.6352
39337SOL     OW20017   4.488   4.700   3.503  0.4022 -0.2182 -0.0633
39337SOL    HW120018   4.571   4.733   3.538  0.8125 -1.0172 -0.2467
39337SOL    HW220019   4.499   4.605   3.502 -0.2693 -0.2960 -0.7021
39338SOL     OW20020  10.654   4.535   9.179  0.4726  0.3744  0.0548
39338SOL    HW120021  10.699   4.573   9.255 -0.8384  0.2216  0.9362
39338SOL    HW220022  10.703   4.454   9.161 -0.7959 -1.0491  2.5154
39339SOL     OW20023   7.432   5.455   8.663 -0.0100  0.1102  0.3540
39339SOL    HW120024   7.354   5.399   8.666  0.6859 -0.8745  1.7045
39339SOL    HW220025   7.501   5.400   8.700  1.3081  1.0051 -0.6912
39340SOL     OW20026   2.225   3.536   4.196  0.1387  0.5225  0.2026
39340SOL    HW120027   2.246   3.587   4.274  0.6815 -1.1653  1.2122
39340SOL    HW220028   2.199   3.450   4.230 -0.6336  0.0696 -1.4315
39341SOL     OW20029   7.462   8.030   4.489  0.3182  0.1529 -0.3813
39341SOL    HW120030   7.531   8.077   4.443 -0.3287  1.9790  0.4100
39341SOL    HW220031   7.390   8.025   4.425  0.8020 -0.8611 -0.8666
39342SOL     OW20032   4.990   5.280   3.092  0.1793  0.2567  0.0472
39342SOL    HW120033   5.012   5.314   3.179  1.5405  0.9436 -0.5404
39342SOL    HW220034   4.905   5.237   3.104  0.5979 -0.1416  1.8275
39343SOL     OW20035   9.100   4.241   6.493  0.4379  0.2847 -0.6659
39343SOL    HW120036   9.009   4.260   6.516  0.5223 -0.1935  0.1105
39343SOL    HW220037   9.097   4.158   6.446  0.1753  1.6488 -3.1881
39344SOL     OW20038   7.354   2.780   7.909  0.2712 -0.4475 -0.1640
39344SOL    HW120039   7.404   2.823   7.839  0.4324 -0.5508 -0.1125
39344SOL    HW220040   7.292   2.723   7.863  1.7926 -2.1349 -0.2152
39345SOL     OW20041   0.488   5.728   9.045 -0.5503  0.4088  0.1184
39345SOL    HW120042   0.537   5.803   9.012 -0.5561  0.6237  0.5973
39345SOL    HW220043   0.553   5.676   9.093 -0.8328  0.8058  0.9425
39346SOL     OW20044   4.646   9.849   7.040 -0.2241  0.4075 -0.7123
39346SOL    HW120045   4.622   9.822   7.129 -2.4681  3.1628 -0.3521
39346SOL    HW220046   4.677   9.768   6.999  0.8751 -0.9890  2.4967
39347SOL     OW20047   5.742   1.498   8.714  0.7092 -0.2250 -0.2798
39347SOL    HW120048   5.655   1.482   8.678  0.7877  0.4121 -0.7772
39347SOL    HW220049   5.726   1.551   8.792  0.7164  0.8675 -1.0092
39348SOL     OW20050   1.669   9.429  10.628 -0.2298  0.4320  0.1575
39348SOL    HW120051   1.728   9.445  10.702  0.2279  0.6303 -0.2403
39348SOL    HW220052   1.693   9.497  10.564  0.9548 -1.1041 -1.1049
39349SOL     OW20053   0.176   9.561   6.713 -0.2449 -0.1339  0.3294
39349SOL    HW120054   0.085   9.577   6.689 -0.2634 -1.1566 -0.3283
39349SOL    HW220055   0.198   9.633   6.772 -1.3874  0.2830  0.2709
39350SOL     OW20056   8.464   5.437   6.137  0.1809 -0.7338  0.1911
39350SOL    HW120057   8.487   5.356   6.182 -0.0729 -0.0906  1.5327
39350SOL    HW220058   8.385   5.468   6.181  0.2275  0.1977 -0.3468
39351SOL     OW20059   9.029   3.772   3.423  0.1429 -0.0762  0.1458
39351SOL    HW120060   8.942   3.733   3.417  0.1801 -0.8269  2.9899
39351SOL    HW220061   9.017   3.862   3.392 -2.1372  0.4273  2.1560
39352SOL     OW20062   7.770   8.902   3.714  0.0981 -0.0593  0.4745
39352SOL    HW120063   7.726   8.817   3.708  0.3154 -0.1378  0.0349
39352SOL    HW220064   7.789   8.912   3.808  0.4925 -0.7063  0.4689
39353SOL     OW20065   8.598   4.596   5.598 -0.4689 -0.0244 -0.4472
39353SOL    HW120066   8.622   4.504   5.585  1.8937  0.6154 -1.2016
39353SOL    HW220067   8.513   4.605   5.557 -0.5432 -1.7788 -0.7524
39354SOL     OW20068   6.063   8.347   6.730  0.1063  0.2723 -0.1800
39354SOL    HW120069   6.034   8.360   6.640 -0.2461  1.1231  0.0475
39354SOL    HW220070   6.009   8.275   6.763 -0.7466  0.8832 -0.2153
39355SOL     OW20071   2.382   4.541   0.249  0.2209  0.6535 -0.0939
39355SOL    HW120072   2.393   4.611   0.184 -1.4347  0.6486 -0.4139
39355SOL    HW220073   2.462   4.544   0.301  2.2047 -0.1919 -2.8993
39356SOL     OW20074   9.223   0.731   3.567 -0.1976  0.4470  0.0532
39356SOL    HW120075   9.287   0.772   3.509  0.2080  1.6344  1.2917
39356SOL    HW220076   9.141   0.736   3.519  0.4432 -0.2751 -1.1764
39357SOL     OW20077  10.765   2.147   7.031  0.1694 -0.5329 -0.0647
39357SOL    HW120078  10.739   2.055   7.032  1.7826 -1.0137  0.6950
39357SOL    HW220079  10.855   2.147   6.999 -0.2404  0.9291 -1.3266
39358SOL     OW20080   6.336   4.604   5.712 -0.5715 -0.0437  0.5015
39358SOL    HW120081   6.286   4.531   5.676 -0.9982  0.1322  0.7366
39358SOL    HW220082   6.428   4.580   5.697 -0.6749 -1.0917  1.4723
39359SOL     OW20083   0.925   9.060   1.374 -0.2798  0.5562  0.3889
39359SOL    HW120084   0.849   9.061   1.432  0.6265 -1.3779  1.7592
39359SOL    HW220085   0.992   9.110   1.421  0.0239  0.1811  0.3672
39360SOL     OW20086   6.013   4.461   8.996  0.1700  0.2349 -0.1251
39360SOL    HW120087   6.000   4.545   9.040 -0.5910 -0.0514  0.2135
39360SOL    HW220088   5.971   4.398   9.054  1.0591 -0.4347 -0.1887
39361SOL     OW20089   0.411   6.159   5.075 -0.2117  0.2660 -0.0226
39361SOL    HW120090   0.326   6.204   5.075  0.6026  1.9050  0.0803
39361SOL    HW220091   0.448   6.178   4.989 -0.5909 -1.8283 -0.7056
39362SOL     OW20092   6.120   4.318   2.671  0.0540  0.1836  0.2633
39362SOL    HW120093   6.202   4.285   2.633 -0.7832 -0.5393 -0.9967
39362SOL    HW220094   6.059   4.244   2.665 -0.5547  0.5514  1.6435
39363SOL     OW20095   1.974   3.778   1.252 -0.8253 -0.0812 -0.5342
39363SOL    HW120096   1.936   3.861   1.282  1.7515  1.1951 -0.5180
39363SOL    HW220097   1.995   3.794   1.160 -0.3192 -0.7281 -0.5349
39364SOL     OW20098  10.643   9.537   5.496  0.4573  0.0206 -0.0127
39364SOL    HW120099  10.689   9.540   5.412 -0.1844 -1.8129 -0.4732
39364SOL    HW220100  10.577   9.606   5.489  1.8261  1.3766 -0.1033
39365SOL     OW20101   3.760   3.924   3.882  0.2783  0.7900 -0.7796
39365SOL    HW120102   3.806   3.921   3.798  1.7634 -1.5074  0.0172
39365SOL    HW220103   3.753   3.833   3.908 -0.5428  1.4274  1.4064
39366SOL     OW20104  10.096   6.027   4.147  0.2555 -0.0258  0.1861
39366SOL    HW120105  10.148   6.073   4.213  0.5787  1.2217 -0.8825
39366SOL    HW220106  10.009   6.017   4.187  0.6721 -0.0513  1.1059
39367SOL     OW20107   4.346   7.981   5.762  0.2223  0.0928  0.5046
39367SOL    HW120108   4.312   8.069   5.775 -0.1448  0.1173 -0.5282
39367SOL    HW220109   4.430   7.994   5.717 -0.1125 -0.0914 -0.1933
39368SOL     OW20110   2.668   3.881   0.657  0.6445  0.1652 -0.4155
39368SOL    HW120111   2.719   3.956   0.625  0.3183  0.6820  0.2356
39368SOL    HW220112   2.714   3.804   0.624  2.5546  0.5723  1.1243
39369SOL     OW20113  10.300   0.535   0.871  0.4645 -0.0197  0.1042
39369SOL    HW120114  10.226   0.475   0.865  1.0708 -0.7907  0.1463
39369SOL    HW220115  10.313   0.567   0.782  1.2595 -1.3534 -0.2883
39370SOL     OW20116   0.552   1.520   7.285  0.4575 -0.1716 -0.2440
39370SOL    HW120117   0.510   1.434   7.278  0.1570  0.0370 -1.2177
39370SOL    HW220118   0.621   1.508   7.350 -1.6614 -0.3008  2.1617
39371SOL     OW20119   7.543   6.100   1.572 -0.4079  0.0295 -0.6866
39371SOL    HW120120   7.579   6.176   1.526 -1.3158  1.4508  0.8181
39371SOL    HW220121   7.506   6.045   1.503 -0.0024  1.1216 -1.8006
39372SOL     OW20122   4.634   6.676   8.003 -0.3841  0.0975  0.0931
39372SOL    HW120123   4.584   6.707   8.079  1.2836 -2.2951  2.3365
39372SOL    HW220124   4.573   6.619   7.956 -0.4272 -1.2628  1.7218
39373SOL     OW20125   5.474   8.617   3.587  0.3349  0.0183  0.0122
39373SOL    HW120126   5.453   8.710   3.577  0.0521 -0.0227  0.1877
39373SOL    HW220127   5.529   8.613   3.666 -0.2454 -0.0400  0.4239
39374SOL     OW20128   8.696   0.448   0.406  0.1983  0.3250 -0.2710
39374SOL    HW120129   8.743   0.377   0.451 -1.8128 -1.3924 -0.7542
39374SOL    HW220130   8.630   0.477   0.468 -0.8066 -0.1813 -1.0681
39375SOL     OW20131  10.314   8.510   6.646  0.2652 -0.4282  0.5988
39375SOL    HW120132  10.325   8.566   6.569  0.5253 -2.1154 -0.6661
39375SOL    HW220133  10.400   8.513   6.689  1.2727 -2.0752 -1.1088
39376SOL     OW20134  11.054   2.750   7.589  0.6800  0.1199  0.2454
39376SOL    HW120135  11.070   2.679   7.528 -2.1514 -1.4191  1.0892
39376SOL    HW220136  11.037   2.707   7.673 -2.3028  1.5720  0.5398
39377SOL     OW20137   1.543   8.340   3.342  0.5012 -0.0748 -0.2128
39377SOL    HW120138   1.478   8.408   3.326 -0.4091 -1.1337 -1.2494
39377SOL    HW220139   1.522   8.306   3.429 -0.0185 -0.0564 -0.3284
39378SOL     OW20140   7.040   5.893   7.063  0.3475  0.1779  0.1375
39378SOL    HW120141   6.959   5.920   7.106  0.9923 -1.0131  2.2444
39378SOL    HW220142   7.090   5.973   7.051 -1.2123  0.9718 -1.4665
39379SOL     OW20143  10.499   4.858   3.728 -0.7359 -0.1828  0.9877
39379SOL    HW120144  10.551   4.936   3.709  0.4037 -0.9215  0.9549
39379SOL    HW220145  10.429   4.890   3.786 -0.8617  1.0158  0.2258
39380SOL     OW20146   6.013   3.279   6.152  0.3006  0.1267 -0.0952
39380SOL    HW120147   6.069   3.243   6.083  2.0432  2.2025  0.1038
39380SOL    HW220148   6.030   3.373   6.149 -1.9608  0.6428  1.1489
39381SOL     OW20149   2.658   6.393   5.477 -0.4117 -0.2599  0.1445
39381SOL    HW120150   2.659   6.464   5.412 -0.2016  0.0173  0.4442
39381SOL    HW220151   2.749   6.367   5.485 -0.6367 -1.4314 -0.8818
39382SOL     OW20152   6.706   7.359   8.387  0.2168  0.8033  0.0428
39382SOL    HW120153   6.781   7.335   8.332  0.4685  1.1426  0.2373
39382SOL    HW220154   6.662   7.428   8.337 -0.9123 -0.5086 -0.8577
39383SOL     OW20155   5.293   2.621   7.496  0.7113 -0.0497  0.1072
39383SOL    HW120156   5.283   2.527   7.482  2.1334  0.0555 -2.1393
39383SOL    HW220157   5.214   2.647   7.542 -0.6624 -2.0157 -0.9956
39384SOL     OW20158   9.442   2.179  10.903 -0.2400  0.1013 -0.2506
39384SOL    HW120159   9.350   2.180  10.930 -0.2206  0.0914 -0.1838
39384SOL    HW220160   9.489   2.148  10.980 -0.1452  0.4509 -0.1656
39385SOL     OW20161   2.189   6.354  10.305 -0.3713 -0.4777  0.5248
39385SOL    HW120162   2.098   6.354  10.274 -0.8157  1.6357  1.6296
39385SOL    HW220163   2.210   6.446  10.319  1.1399 -1.0414  2.5509
39386SOL     OW20164   9.472   3.750   6.649  0.0916  0.1931 -0.0450
39386SOL    HW120165   9.555   3.702   6.651  1.3636  2.2942  0.3073
39386SOL    HW220166   9.407   3.686   6.679  2.0020 -0.7504  2.3747
39387SOL     OW20167   7.478   7.526   9.886 -0.2408  0.2645 -0.2321
39387SOL    HW120168   7.482   7.528   9.982 -0.0138  0.9069 -0.2442
39387SOL    HW220169   7.570   7.532   9.859 -0.3624  1.0305 -0.4923
39388SOL     OW20170   3.348   0.161   2.288  0.2345  0.4274  0.0782
39388SOL    HW120171   3.404   0.085   2.272  0.0588  0.4336 -0.6084
39388SOL    HW220172   3.392   0.210   2.357  0.0129 -0.6385  0.9962
39389SOL     OW20173   8.591   6.722   2.812 -0.1386  0.7355 -0.1137
39389SOL    HW120174   8.524   6.772   2.860  2.0066  0.0060  4.1112
39389SOL    HW220175   8.671   6.772   2.824  1.1160 -1.1770 -0.0893
39390SOL     OW20176   7.499  10.657   9.595  0.0920 -0.2714 -0.2979
39390SOL    HW120177   7.502  10.753   9.599  2.8875 -0.0732 -3.2289
39390SOL    HW220178   7.406  10.636   9.594 -0.6131  2.3360  0.7431
39391SOL     OW20179   1.664  10.028   0.797  0.3083  0.2793  0.1276
39391SOL    HW120180   1.583  10.046   0.844  0.3802  2.4594 -0.4947
39391SOL    HW220181   1.728  10.008   0.865 -0.3050  0.3737  0.7327
39392SOL     OW20182   9.499   6.763   9.387 -0.0648 -0.0751  0.5234
39392SOL    HW120183   9.593   6.776   9.400  0.2066 -0.8478 -0.5400
39392SOL    HW220184   9.468   6.728   9.471  0.7337 -0.5289  0.6359
39393SOL     OW20185  10.914   0.969   1.970  0.1772  1.1594  0.1700
39393SOL    HW120186  10.929   0.915   1.893 -0.7036  0.3872  0.5201
39393SOL    HW220187  10.875   1.049   1.936 -2.4140 -0.0960 -0.0494
39394SOL     OW20188   2.663   5.278   6.047  0.3333  0.1922  0.2292
39394SOL    HW120189   2.594   5.230   6.093  0.1260  1.2992  1.0926
39394SOL    HW220190   2.642   5.370   6.060  1.8708  0.5545  0.3455
39395SOL     OW20191   5.536   0.942   8.178 -0.3130  0.1191 -0.6753
39395SOL    HW120192   5.541   0.970   8.269 -1.7036  0.0014 -0.5512
39395SOL    HW220193   5.459   0.985   8.143 -1.0523 -1.5216 -1.1810
39396SOL     OW20194   2.397   6.881   4.964  0.3754  0.0373  0.0642
39396SOL    HW120195   2.478   6.932   4.968 -0.4029  1.7364 -2.6311
39396SOL    HW220196   2.422   6.798   4.923  0.9493  0.0553  0.3798
39397SOL     OW20197   6.473   1.711   4.252  0.1840 -0.1406 -0.0075
39397SOL    HW120198   6.395   1.735   4.302  0.0025 -0.4938 -0.1114
39397SOL    HW220199   6.456   1.620   4.225  0.1834  0.1112 -0.8757
39398SOL     OW20200   4.884   3.041   6.226 -0.2889  0.1430  0.0020
39398SOL    HW120201   4.948   2.970   6.222 -0.4268  0.0574 -0.9003
39398SOL    HW220202   4.922   3.110   6.170  0.3701  1.2335  1.7060
39399SOL     OW20203   0.220   2.695   9.853 -0.4906 -0.8851 -0.0763
39399SOL    HW120204   0.191   2.619   9.904 -0.1768 -0.9447  0.0192
39399SOL    HW220205   0.315   2.694   9.861 -0.4625 -0.6759 -0.3553
39400SOL     OW20206   9.712  10.985   2.338  0.3239  0.2134  0.1732
39400SOL    HW120207   9.729  11.075   2.365  0.2206  0.5693 -0.8885
39400SOL    HW220208   9.699  10.937   2.420  0.1284  1.2121  0.7408
39401SOL     OW20209   9.669   6.072   4.120 -0.1049 -0.1245  0.3858
39401SOL    HW120210   9.663   5.977   4.116  0.1751 -0.1136 -0.9736
39401SOL    HW220211   9.716   6.096   4.040 -0.5019  1.1777  0.5225
39402SOL     OW20212   1.714   6.021   5.140 -0.1413  0.4075 -0.7116
39402SOL    HW120213   1.775   6.001   5.068  0.7267 -0.7933  0.3138
39402SOL    HW220214   1.765   6.005   5.219 -1.3733  0.7947  0.1791
39403SOL     OW20215   0.275   7.808   8.768  0.2354 -0.1114  0.0899
39403SOL    HW120216   0.186   7.774   8.769 -0.1878  0.9562  0.3429
39403SOL    HW220217   0.296   7.822   8.861  1.1411 -1.5121  0.1207
39404SOL     OW20218   3.192   9.353  10.438  0.7465  0.4829  0.1086
39404SOL    HW120219   3.171   9.260  10.441  1.1474  0.3881  0.0818
39404SOL    HW220220   3.184   9.377  10.346  2.3007  0.0675 -0.1777
39405SOL     OW20221   9.576   3.367   3.855  0.0484 -0.8197 -0.0087
39405SOL    HW120222   9.647   3.305   3.838  1.7634  0.6780  1.3465
39405SOL    HW220223   9.583   3.430   3.784  0.8780 -0.0251  0.7503
39406SOL     OW20224   5.161   7.589   6.897 -0.1998 -0.1570  0.2141
39406SOL    HW120225   5.151   7.667   6.843 -2.1874 -1.2782 -1.1933
39406SOL    HW220226   5.087   7.533   6.871 -0.0756 -1.6045  2.7050
39407SOL     OW20227   6.124   4.128   2.995  0.2774 -0.4557 -0.0156
39407SOL    HW120228   6.029   4.136   2.996  0.4146  1.9365  0.0347
39407SOL    HW220229   6.143   4.053   3.052 -1.5355 -0.2959  0.8549
39408SOL     OW20230   1.868  10.770   1.924 -0.8678  0.5193 -0.5799
39408SOL    HW120231   1.849  10.832   1.994  0.0196  1.3584 -1.0621
39408SOL    HW220232   1.964  10.768   1.918 -0.6781 -2.7242  1.0224
39409SOL     OW20233   0.940  10.168   5.309  0.0228 -1.0712 -0.6395
39409SOL    HW120234   0.998  10.185   5.383 -1.4568 -0.9043  0.5333
39409SOL    HW220235   0.863  10.126   5.348 -1.4426  0.3513 -1.8619
39410SOL     OW20236   2.310   3.681   9.320 -0.2830  0.0345  0.3071
39410SOL    HW120237   2.287   3.772   9.305 -1.5381 -0.2909  0.1537
39410SOL    HW220238   2.309   3.641   9.233 -1.2697 -0.4554  0.5323
39411SOL     OW20239   8.542   4.768   8.156  0.1238 -0.1061  0.2145
39411SOL    HW120240   8.517   4.853   8.191  1.4496  0.2708  0.2729
39411SOL    HW220241   8.486   4.757   8.079  0.4675  1.1599 -0.2294
39412SOL     OW20242   3.509  10.734   5.977 -0.0908  0.1727  0.2709
39412SOL    HW120243   3.499  10.822   6.014  0.3516  0.2788  0.1404
39412SOL    HW220244   3.516  10.747   5.883  1.7844  0.1723  0.3679
39413SOL     OW20245  11.071   7.571   7.966 -0.1429  0.2949 -0.3373
39413SOL    HW120246  11.112   7.654   7.990 -1.2863  0.9535 -0.6139
39413SOL    HW220247  11.083   7.515   8.043 -0.0352  0.9762  0.1482
39414SOL     OW20248   5.666   3.739   0.393 -0.1190 -0.3226  0.4272
39414SOL    HW120249   5.721   3.816   0.383 -1.7010  0.7742 -0.1417
39414SOL    HW220250   5.635   3.743   0.484 -1.8884  0.9370 -0.1826
39415SOL     OW20251  10.485   2.973   1.423 -0.5984 -0.7339 -0.4982
39415SOL    HW120252  10.421   3.005   1.487 -0.6962 -0.5463 -0.6897
39415SOL    HW220253  10.476   2.877   1.426 -0.6184 -0.7265 -0.2499
39416SOL     OW20254   0.228   0.848   9.533  0.2950 -0.0141 -0.3258
39416SOL    HW120255   0.277   0.825   9.612  1.3575 -0.1234 -1.0020
39416SOL    HW220256   0.208   0.764   9.491  1.7421  0.1130 -1.3440
39417SOL     OW20257   7.852   3.758   6.601 -0.0748 -0.2522 -0.4205
39417SOL    HW120258   7.829   3.812   6.526  0.8376  1.2550  0.3429
39417SOL    HW220259   7.792   3.786   6.670  0.1994 -0.4528 -0.0993
39418SOL     OW20260   0.601   2.436   8.834 -0.1866  0.3397  0.1086
39418SOL    HW120261   0.652   2.491   8.894  1.9585  0.5226 -1.7359
39418SOL    HW220262   0.531   2.493   8.802 -0.1827  0.8311  0.9390
39419SOL     OW20263   8.937   2.351  10.742  0.1936  0.2213 -0.1344
39419SOL    HW120264   8.891   2.381  10.820  0.4201 -0.4078  0.2483
39419SOL    HW220265   8.968   2.431  10.701 -0.6090  0.6042 -0.0053
39420SOL     OW20266   5.525   0.777   5.999  0.2064 -0.2237 -0.3205
39420SOL    HW120267   5.463   0.722   5.950 -1.5332 -0.1288  1.6309
39420SOL    HW220268   5.484   0.863   6.002  1.0537  0.1829 -0.0381
39421SOL     OW20269  10.472   6.438   6.003  0.2857 -0.4627 -0.0887
39421SOL    HW120270  10.477   6.377   5.929  3.1167 -1.4745  0.7804
39421SOL    HW220271  10.432   6.387   6.074  1.2688 -0.8677  0.1966
39422SOL     OW20272  10.406   2.402   7.869  0.1242  0.0407  0.8995
39422SOL    HW120273  10.492   2.419   7.830 -0.5393 -0.6178 -0.9441
39422SOL    HW220274  10.425   2.380   7.960  1.7071  2.1506  1.1597
39423SOL     OW20275   9.808   3.963   8.382  0.0992 -0.3361 -0.2258
39423SOL    HW120276   9.833   3.895   8.444  0.8742  0.5561  0.4652
39423SOL    HW220277   9.713   3.954   8.373  0.3220 -2.4192 -1.2558
39424SOL     OW20278  11.057   5.980   5.360  0.5267 -0.0413  0.6988
39424SOL    HW120279  11.072   6.011   5.271 -1.1012 -2.0749 -0.3860
39424SOL    HW220280  10.974   6.021   5.385 -0.1349 -1.1575  0.3907
39425SOL     OW20281   6.280   6.996   0.541 -0.1136  0.1930  0.2879
39425SOL    HW120282   6.359   7.041   0.512  0.7047 -1.1593  0.3288
39425SOL    HW220283   6.229   6.982   0.461  1.3513 -2.0310 -0.3345
39426SOL     OW20284   7.384   0.618   3.179  0.2081 -0.4930 -0.1718
39426SOL    HW120285   7.420   0.572   3.255 -0.8717 -0.8332  0.1531
39426SOL    HW220286   7.456   0.672   3.148  0.3405  0.6044  1.8520
39427SOL     OW20287   1.617   3.664   8.783 -0.0632 -0.4366  0.0217
39427SOL    HW120288   1.609   3.571   8.759 -0.0497  0.0842 -2.2022
39427SOL    HW220289   1.708   3.685   8.763 -0.2221  0.2119 -0.0101
39428SOL     OW20290   6.925   9.766   4.872 -0.3186  0.6962 -0.0949
39428SOL    HW120291   6.889   9.736   4.789  0.6195 -0.3614 -0.1510
39428SOL    HW220292   6.928   9.861   4.864 -2.9895  0.8406 -0.0855
39429SOL     OW20293   7.881   7.753  10.531 -0.3782 -0.1335  0.6177
39429SOL    HW120294   7.931   7.771  10.451  0.4170  0.2750  1.1836
39429SOL    HW220295   7.947   7.722  10.593 -1.2771 -2.4143  0.5333
39430SOL     OW20296   8.989   4.111   8.624  0.1261  0.5261 -0.3267
39430SOL    HW120297   8.971   4.086   8.534 -2.4879  0.8658  0.0052
39430SOL    HW220298   8.910   4.158   8.652  2.0247  3.0558  1.2309
39431SOL     OW20299  10.033   5.918  10.504 -0.4997  0.7995  0.0825
39431SOL    HW120300   9.962   5.967  10.463 -0.8192  1.0958  0.9897
39431SOL    HW220301   9.992   5.870  10.575  0.1872  0.8782  0.5399
39432SOL     OW20302   7.943   3.768   3.737  0.5012 -0.4015 -0.7141
39432SOL    HW120303   8.033   3.756   3.709  0.8635 -0.1611  0.3101
39432SOL    HW220304   7.918   3.853   3.701  1.2069  0.2479  0.2794
39433SOL     OW20305   5.466   7.854   4.457  1.1078 -0.5344 -0.8811
39433SOL    HW120306   5.453   7.792   4.385  0.3261 -2.9929  1.2330
39433SOL    HW220307   5.387   7.908   4.456  1.4156 -0.0626 -2.2451
39434SOL     OW20308   7.469   5.289   5.015 -0.1241  0.7945  0.1401
39434SOL    HW120309   7.476   5.273   4.921 -1.6291  0.7355  0.0212
39434SOL    HW220310   7.382   5.257   5.039  0.7915 -0.5877  1.8489
39435SOL     OW20311  10.328   3.498   5.711 -0.0519  0.0240 -0.6103
39435SOL    HW120312  10.374   3.415   5.696  0.5520  0.0774  0.7785
39435SOL    HW220313  10.235   3.475   5.703  0.1542 -0.0378 -3.6393
39436SOL     OW20314   3.478   4.864   2.577  0.1640 -0.0293 -0.3401
39436SOL    HW120315   3.418   4.938   2.569  0.4605  0.0142 -2.5900
39436SOL    HW220316   3.542   4.893   2.643 -1.1643  0.6650  0.7002
39437SOL     OW20317   2.207   2.882  10.892 -0.4005  0.3374  0.5709
39437SOL    HW120318   2.220   2.804  10.946 -0.2729  1.2020  1.8414
39437SOL    HW220319   2.294   2.923  10.889 -0.6900  0.9785  0.8131
39438SOL     OW20320   1.607   4.678   2.734  0.0399 -0.1222  0.2729
39438SOL    HW120321   1.543   4.703   2.801 -0.7635  1.4414 -1.0048
39438SOL    HW220322   1.678   4.742   2.744  0.8173 -1.0417  0.8172
39439SOL     OW20323   0.947   0.083  10.599 -0.1758 -0.0337  0.4127
39439SOL    HW120324   0.956   0.064  10.693  1.0187 -0.8168  0.1629
39439SOL    HW220325   1.030   0.055  10.561 -0.8206 -0.1533 -0.9561
39440SOL     OW20326   4.353   1.284   6.672 -0.6867  0.1720  0.0016
39440SOL    HW120327   4.268   1.264   6.633 -1.1209  0.5214  0.7554
39440SOL    HW220328   4.333   1.316   6.760  0.3322 -2.0548  1.1459
39441SOL     OW20329   9.408  10.095   6.558  0.0909 -1.1173  0.0440
39441SOL    HW120330   9.351  10.160   6.600 -0.2795 -2.1708  1.2473
39441SOL    HW220331   9.484  10.144   6.529 -0.4246 -0.0608  0.4402
39442SOL     OW20332   8.012   3.110   8.217  0.3178  0.4322 -0.4939
39442SOL    HW120333   8.019   3.019   8.188  0.3347  0.2030  0.2065
39442SOL    HW220334   8.101   3.145   8.206  0.5962  0.0112  0.3597
39443SOL     OW20335   6.763  10.131   1.225  0.3295  0.4550 -0.2589
39443SOL    HW120336   6.851  10.159   1.251 -0.3030  0.4201  2.1933
39443SOL    HW220337   6.731  10.080   1.300 -0.8942 -1.6399 -2.0699
39444SOL     OW20338   5.842   7.902   2.571 -0.2507 -0.3367 -0.2517
39444SOL    HW120339   5.921   7.930   2.524 -0.7851 -1.6158 -2.0424
39444SOL    HW220340   5.771   7.953   2.531 -0.7269 -1.5009 -0.9486
39445SOL     OW20341   9.119   3.159   2.927 -1.0403  0.0436 -0.0449
39445SOL    HW120342   9.049   3.199   2.874 -0.7401  0.6937  0.0377
39445SOL    HW220343   9.175   3.115   2.864 -1.5486 -0.5308 -0.1079
39446SOL     OW20344   0.426   4.843   8.800 -0.4444  0.7630 -0.4635
39446SOL    HW120345   0.462   4.932   8.792  1.7853 -0.1133 -1.0259
39446SOL    HW220346   0.502   4.789   8.823 -1.2351 -1.3533 -2.4239
39447SOL     OW20347   4.143   5.876   3.800 -0.5644 -0.0728  0.2209
39447SOL    HW120348   4.108   5.937   3.866 -1.2593 -0.9397  0.6786
39447SOL    HW220349   4.209   5.825   3.848 -0.2053  0.1046 -0.0797
39448SOL     OW20350   8.181   5.349   5.190 -0.1681 -0.3112 -0.3140
39448SOL    HW120351   8.252   5.316   5.135 -0.7741 -0.0887 -1.2568
39448SOL    HW220352   8.219   5.356   5.277  0.3563 -2.2704 -0.3380
39449SOL     OW20353   9.474   4.914   5.448 -0.7625  0.1753  0.0775
39449SOL    HW120354   9.452   5.006   5.462 -0.1774  0.0738  1.8201
39449SOL    HW220355   9.410   4.884   5.384 -1.1756  1.6996 -0.2645
39450SOL     OW20356   4.056   4.407   4.238 -0.4504 -0.1977 -0.3503
39450SOL    HW120357   3.998   4.472   4.278 -0.3085 -0.9102  1.1016
39450SOL    HW220358   4.144   4.440   4.255 -0.3929 -0.0701 -0.8754
39451SOL     OW20359   6.948   7.004   8.685 -0.2307  0.0211  0.0771
39451SOL    HW120360   6.915   7.094   8.675  0.5550  0.3066 -0.0491
39451SOL    HW220361   6.877   6.949   8.653 -0.6721  0.6086  0.0269
39452SOL     OW20362   7.793   6.849   1.871 -0.4117  0.6903 -0.0804
39452SOL    HW120363   7.878   6.820   1.903 -0.5081 -0.4044 -0.7735
39452SOL    HW220364   7.736   6.846   1.948  0.2008  1.6295  0.4325
39453SOL     OW20365   7.463   2.652   9.899 -0.6515 -0.1034  0.1106
39453SOL    HW120366   7.482   2.623   9.810  0.5736 -1.7692  0.8614
39453SOL    HW220367   7.532   2.613   9.952 -0.8667  1.5182  1.7061
39454SOL     OW20368   6.712   2.692   5.862 -0.3515  0.3982  0.3497
39454SOL    HW120369   6.701   2.703   5.957  0.3747  0.8386  0.3867
39454SOL    HW220370   6.806   2.681   5.849 -0.5972 -1.4260 -0.1551
39455SOL     OW20371  10.438   8.181   7.049  0.0954  0.0728  0.2712
39455SOL    HW120372  10.409   8.268   7.021  3.6954  0.9211 -1.3877
39455SOL    HW220373  10.435   8.184   7.145 -0.8701  1.5859  0.2316
39456SOL     OW20374   8.509   5.624   1.161 -0.3383  0.3211 -0.0019
39456SOL    HW120375   8.556   5.570   1.224 -1.4671 -0.4746  0.1789
39456SOL    HW220376   8.430   5.651   1.206 -1.9483 -1.5544 -1.5287
39457SOL     OW20377  10.329   9.466   1.129 -0.5238 -0.0176 -0.0509
39457SOL    HW120378  10.260   9.532   1.134 -0.0849  0.4570 -0.0955
39457SOL    HW220379  10.379   9.490   1.051  0.3941  0.3538  0.6373
39458SOL     OW20380   3.062   4.491   7.377  0.1722  0.6031 -0.8827
39458SOL    HW120381   3.028   4.555   7.314  0.2533  2.5702  0.9637
39458SOL    HW220382   3.132   4.537   7.423  2.5853 -1.9804 -1.7070
39459SOL     OW20383   6.884   4.424  11.081  0.3969  0.3053 -0.0300
39459SOL    HW120384   6.801   4.471  11.084  0.2067  0.0568 -0.9666
39459SOL    HW220385   6.895   4.389  11.170 -0.9584 -0.4295 -0.1254
39460SOL     OW20386   6.822   7.630   8.493 -0.5297 -0.3467  0.1080
39460SOL    HW120387   6.818   7.673   8.408 -1.4745 -0.7604 -0.0645
39460SOL    HW220388   6.874   7.550   8.477  0.5397  0.2971  0.2570
39461SOL     OW20389   8.519   2.574  10.808  0.2631 -0.6844  0.2183
39461SOL    HW120390   8.582   2.563  10.736 -0.9832 -0.7972 -0.8952
39461SOL    HW220391   8.457   2.502  10.796 -0.4900 -0.1467  0.8491
39462SOL     OW20392   8.571   3.397   6.870 -0.1244  0.0576  0.0448
39462SOL    HW120393   8.629   3.412   6.945  0.8058  0.5314 -0.7520
39462SOL    HW220394   8.517   3.476   6.865 -0.2309  0.0006  0.2337
39463SOL     OW20395   7.717   4.545   7.438 -0.8365 -0.4222 -0.2087
39463SOL    HW120396   7.782   4.578   7.376 -1.0422 -0.1301 -0.2716
39463SOL    HW220397   7.758   4.555   7.524 -0.2999 -1.4099 -0.3319
39464SOL     OW20398   4.125   6.462  10.300  0.2986  0.3449 -0.1915
39464SOL    HW120399   4.167   6.486  10.383  0.9724  0.3644 -0.5322
39464SOL    HW220400   4.137   6.538  10.244 -0.8644  0.6463 -0.0576
39465SOL     OW20401   4.531   0.577  11.039 -0.5173  0.0143 -0.0994
39465SOL    HW120402   4.568   0.636  10.974 -1.4609  0.0379 -0.6378
39465SOL    HW220403   4.482   0.634  11.099  0.6984  0.0401  0.9014
39466SOL     OW20404   4.364   6.009   3.343 -0.2981 -0.1310  0.2211
39466SOL    HW120405   4.442   5.987   3.291 -0.2508  1.7713 -0.5994
39466SOL    HW220406   4.293   6.011   3.279 -0.9098 -1.1111  0.8431
39467SOL     OW20407   6.244  10.203   9.332  0.6505 -0.5088 -0.3233
39467SOL    HW120408   6.171  10.192   9.272  1.2916  0.2216 -1.2730
39467SOL    HW220409   6.210  10.259   9.401  0.3834  0.0509 -0.9015
39468SOL     OW20410  10.997   3.955  10.830  0.4759 -0.0876  0.4665
39468SOL    HW120411  10.960   4.043  10.829 -2.0624 -1.0535 -0.0011
39468SOL    HW220412  11.070   3.958  10.768 -0.7171  1.2618 -0.9555
39469SOL     OW20413   2.065   3.861   7.372 -0.4495 -0.7120 -0.6542
39469SOL    HW120414   2.154   3.892   7.361 -0.1333 -0.2734  2.4238
39469SOL    HW220415   2.071   3.792   7.439 -2.3733 -0.9276 -0.6364
39470SOL     OW20416   8.187   6.352   8.148  0.4703  0.1109  0.0641
39470SOL    HW120417   8.222   6.289   8.085  0.3745  0.7339 -0.6277
39470SOL    HW220418   8.164   6.428   8.095 -1.3065 -0.0255  0.5805
39471SOL     OW20419   4.289   0.228   6.569  0.0966  0.1130  0.6851
39471SOL    HW120420   4.248   0.270   6.645 -1.4558  0.4887 -0.3176
39471SOL    HW220421   4.268   0.135   6.580 -3.2345  0.5474 -1.0191
39472SOL     OW20422   1.036   6.130   4.806  0.2332  0.3732  0.0997
39472SOL    HW120423   0.961   6.173   4.764  0.9048  1.0255 -0.4672
39472SOL    HW220424   1.044   6.047   4.758  0.1364  0.4914 -0.1276
39473SOL     OW20425   9.905   2.474   3.541  0.1037 -0.2493  0.4092
39473SOL    HW120426   9.831   2.503   3.593 -0.0493  1.3768 -0.6542
39473SOL    HW220427   9.918   2.543   3.476  0.4630 -2.0156 -1.5330
39474SOL     OW20428   4.340   1.167   0.654  0.6593 -0.5283  0.2635
39474SOL    HW120429   4.253   1.157   0.615  1.1777 -0.6743 -0.9141
39474SOL    HW220430   4.337   1.250   0.701 -0.1232 -0.5478  0.2471
39475SOL     OW20431   7.135   5.169   8.955 -0.0554  0.1274  0.4023
39475SOL    HW120432   7.040   5.172   8.965 -0.4084 -2.2589 -1.3793
39475SOL    HW220433   7.164   5.104   9.019  0.0967 -0.6326 -0.4205
39476SOL     OW20434  11.038   0.854   6.594 -0.1535 -0.3778  0.0947
39476SOL    HW120435  11.020   0.817   6.680 -0.2621  0.7981  0.5958
39476SOL    HW220436  10.987   0.934   6.590 -0.7025 -0.7567 -1.3576
39477SOL     OW20437   6.096  10.847   6.479 -0.5326 -0.4279 -0.1936
39477SOL    HW120438   6.114  10.926   6.530 -2.5869 -0.8961  1.3879
39477SOL    HW220439   6.148  10.779   6.521  1.2618  0.0070 -1.5755
39478SOL     OW20440   2.125   6.001  10.893 -0.4336  0.0263 -0.7330
39478SOL    HW120441   2.138   6.023  10.986 -2.7729 -0.1996 -0.2851
39478SOL    HW220442   2.153   6.079  10.846  1.4978 -0.1222  0.0821
39479SOL     OW20443   9.241   3.358   7.650  0.1400 -0.3220 -0.1893
39479SOL    HW120444   9.238   3.447   7.614 -0.1885 -0.6192 -0.9286
39479SOL    HW220445   9.318   3.318   7.610  0.7397 -0.1299  0.7476
39480SOL     OW20446   1.735   0.589   5.616  0.5676 -0.2937 -0.1361
39480SOL    HW120447   1.755   0.648   5.688  1.3964  0.9651 -1.3569
39480SOL    HW220448   1.662   0.631   5.569 -0.2191 -1.2875  0.1531
39481SOL     OW20449  10.109   7.244   4.783  0.0326  0.4497  0.3780
39481SOL    HW120450  10.097   7.184   4.710  0.5166 -0.7927  1.2855
39481SOL    HW220451  10.041   7.311   4.771 -0.1749  0.0240 -0.9441
39482SOL     OW20452   3.198   3.272   7.154 -0.4211  0.3756 -1.0997
39482SOL    HW120453   3.151   3.205   7.105 -0.1443  0.3274 -1.3056
39482SOL    HW220454   3.267   3.223   7.201 -2.7098 -0.1046  2.0740
39483SOL     OW20455   7.137   4.805   0.016  0.1444  0.0002  0.0346
39483SOL    HW120456   7.127   4.821   0.109 -0.8352 -0.7944  0.0860
39483SOL    HW220457   7.205   4.866  -0.012  0.1329  0.5576  1.1715
39484SOL     OW20458   7.338   1.768  10.786 -1.1467  0.2873  0.7338
39484SOL    HW120459   7.418   1.774  10.734 -2.5643  1.6814 -1.4464
39484SOL    HW220460   7.361   1.712  10.860  2.1765  1.6787  0.8981
39485SOL     OW20461   2.373   5.303   2.399  0.0142 -0.4786 -0.3925
39485SOL    HW120462   2.423   5.355   2.337 -0.9759 -0.0770 -0.8778
39485SOL    HW220463   2.424   5.223   2.410  0.1199 -0.6568 -1.9083
39486SOL     OW20464  10.435   3.908   5.329 -0.1760  0.3356  0.7319
39486SOL    HW120465  10.495   3.982   5.333 -0.4926  0.5907  0.7865
39486SOL    HW220466  10.425   3.880   5.420  0.0287  0.1504  0.7012
39487SOL     OW20467  10.802   7.302   0.302 -0.1671 -0.2415 -0.0940
39487SOL    HW120468  10.719   7.339   0.333  0.0080  1.1866 -1.2468
39487SOL    HW220469  10.857   7.298   0.380 -0.6803  0.6200  0.3235
39488SOL     OW20470   9.555   3.780   7.730 -0.5383 -0.3977 -0.0726
39488SOL    HW120471   9.604   3.853   7.693  0.0784 -0.7163  0.0993
39488SOL    HW220472   9.473   3.819   7.759 -1.1820 -0.1936 -2.0504
39489SOL     OW20473   3.688   4.538   0.598  0.5785  0.2219  0.5130
39489SOL    HW120474   3.592   4.541   0.601  0.3459 -3.2532  0.2570
39489SOL    HW220475   3.716   4.579   0.680 -1.2465 -0.9588  1.7997
39490SOL     OW20476  10.373   5.446   9.173  0.3920  0.4219  0.1382
39490SOL    HW120477  10.395   5.460   9.081  2.0989  2.9512  0.8345
39490SOL    HW220478  10.449   5.477   9.222  0.2453 -2.4069  2.4304
39491SOL     OW20479  10.222   6.238   0.796  0.1802  0.0067 -0.1427
39491SOL    HW120480  10.311   6.225   0.765  0.1180 -0.8288  0.0087
39491SOL    HW220481  10.169   6.244   0.716  0.0457 -1.9543 -0.2586
39492SOL     OW20482   2.781   2.287   7.966  0.0696  0.1771 -0.1387
39492SOL    HW120483   2.744   2.293   7.878 -0.7276 -1.0529  0.0905
39492SOL    HW220484   2.753   2.367   8.010  0.6212  0.8890 -1.0346
39493SOL     OW20485   4.375  10.413   7.107  0.2040  0.1959 -0.6007
39493SOL    HW120486   4.442  10.399   7.040  0.6233  0.4235 -0.2271
39493SOL    HW220487   4.354  10.325   7.138 -0.8412 -0.0230 -1.8491
39494SOL     OW20488   7.378   9.996   8.908 -0.0519 -0.5128 -0.4866
39494SOL    HW120489   7.306  10.004   8.970  1.0612 -0.1522  0.7937
39494SOL    HW220490   7.379  10.080   8.862 -0.3673 -0.4742 -0.4241
39495SOL     OW20491   0.835   2.014   3.532  0.2920 -0.2076 -0.2077
39495SOL    HW120492   0.848   1.938   3.475 -0.6135  0.4197 -1.2664
39495SOL    HW220493   0.876   2.087   3.486 -1.2770  0.4968 -0.5291
39496SOL     OW20494   7.527   7.215   4.254 -0.4917  0.2023  0.5099
39496SOL    HW120495   7.468   7.282   4.288 -0.5731  0.8808 -0.8971
39496SOL    HW220496   7.586   7.262   4.195 -0.6933 -0.9727 -0.6793
39497SOL     OW20497   0.958  10.909   6.188 -0.0456 -0.9419 -0.3308
39497SOL    HW120498   0.873  10.870   6.205  0.0667 -1.1974 -0.3575
39497SOL    HW220499   1.001  10.849   6.127  0.3563 -1.0769  0.0856
39498SOL     OW20500   3.636   4.154   1.920  0.4203  0.3635  0.0133
39498SOL    HW120501   3.701   4.187   1.859  0.4946  0.0182 -0.0974
39498SOL    HW220502   3.687   4.110   1.989  0.3243  0.4751  0.1577
39499SOL     OW20503   8.419   4.662   8.397  0.0689 -0.2078 -0.2553
39499SOL    HW120504   8.433   4.657   8.302 -0.1725 -0.8590 -0.2644
39499SOL    HW220505   8.490   4.718   8.429  0.9680 -1.0934 -0.6534
39500SOL     OW20506   8.214   8.810   9.776 -0.0160 -0.5537 -0.0513
39500SOL    HW120507   8.192   8.768   9.693  1.0279  0.0919 -0.6707
39500SOL    HW220508   8.136   8.860   9.799  0.5167  1.3055 -1.9641
39501SOL     OW20509   2.054   7.330   5.775  0.8856 -0.0005  0.1410
39501SOL    HW120510   2.129   7.314   5.717 -0.0611  1.2040 -1.5271
39501SOL    HW220511   1.997   7.254   5.763  1.0118 -0.0722  0.0007
39502SOL     OW20512   0.261   4.409   7.896  0.1214  0.4199  0.0844
39502SOL    HW120513   0.314   4.468   7.842 -1.1599  0.7807 -0.8180
39502SOL    HW220514   0.303   4.324   7.887  0.8327  0.7931 -0.2183
39503SOL     OW20515   5.502   1.870   4.339  0.2698  0.4094 -0.6357
39503SOL    HW120516   5.590   1.848   4.369  0.3892  1.2040 -0.3832
39503SOL    HW220517   5.485   1.956   4.377 -0.5316  0.3544 -0.8628
39504SOL     OW20518   9.626   4.974  10.930  0.2470 -0.2617 -0.2111
39504SOL    HW120519   9.533   4.975  10.909 -0.0865  0.2979  1.2035
39504SOL    HW220520   9.650   5.067  10.932  0.5447 -0.3514  0.6251
39505SOL     OW20521   4.756   9.562   2.410  0.0780  0.3940 -0.5706
39505SOL    HW120522   4.680   9.608   2.373 -1.5039 -1.4593  0.1864
39505SOL    HW220523   4.811   9.542   2.334 -0.7957  0.7273 -1.3068
39506SOL     OW20524  10.291   8.312   0.942 -0.4559  0.2825  0.2237
39506SOL    HW120525  10.246   8.228   0.952 -1.2504  0.4478 -1.5016
39506SOL    HW220526  10.243   8.356   0.871  0.7142  1.6652  0.2517
39507SOL     OW20527   1.490   1.462   3.544 -0.0047  0.2643  0.1161
39507SOL    HW120528   1.453   1.482   3.458 -0.6747  0.1842  0.3845
39507SOL    HW220529   1.473   1.540   3.596 -1.6154 -0.5273  0.8322
39508SOL     OW20530   6.450  10.236   7.914 -0.4875 -0.3596 -0.5693
39508SOL    HW120531   6.537  10.196   7.911 -1.0170 -1.6524  0.4766
39508SOL    HW220532   6.415  10.211   8.000 -1.3896  1.2325 -0.4269
39509SOL     OW20533  10.764   8.756   5.978 -0.2728 -0.2672 -0.4903
39509SOL    HW120534  10.824   8.767   5.904  0.5824 -0.2068  0.1989
39509SOL    HW220535  10.815   8.780   6.054 -1.1748 -0.2435  0.1263
39510SOL     OW20536   8.132   6.516   5.869  0.3609  0.1683  0.5328
39510SOL    HW120537   8.144   6.460   5.793 -0.1669  0.1779  0.4387
39510SOL    HW220538   8.180   6.472   5.940 -0.3828 -0.6145  0.5651
39511SOL     OW20539   8.229   4.294   7.322 -0.0075 -0.0937  0.0640
39511SOL    HW120540   8.278   4.237   7.382  1.0407 -1.0598 -1.6046
39511SOL    HW220541   8.172   4.346   7.378  0.9795 -0.8896  1.8793
39512SOL     OW20542   5.634   3.764   6.201  0.0777  0.2444 -0.4808
39512SOL    HW120543   5.600   3.820   6.271 -1.9937 -1.4546 -0.0269
39512SOL    HW220544   5.636   3.821   6.124  1.0687  1.7648  0.5963
39513SOL     OW20545   9.603   9.971   9.689 -0.4221 -0.3172  0.5265
39513SOL    HW120546   9.598  10.066   9.701 -1.8988 -0.3142  0.0871
39513SOL    HW220547   9.671   9.959   9.623  0.8955  0.3034  1.7199
39514SOL     OW20548   0.639   4.364   4.022 -0.4814  0.5750  0.0193
39514SOL    HW120549   0.672   4.275   4.030  0.1720  0.7099 -0.9960
39514SOL    HW220550   0.545   4.356   4.033 -0.3890 -0.1856  0.2947
39515SOL     OW20551   6.788   4.251   6.937 -0.0059  0.4313  0.7981
39515SOL    HW120552   6.851   4.319   6.914 -0.4176  0.5825  0.1003
39515SOL    HW220553   6.741   4.286   7.013  0.8644  0.2377  1.4386
39516SOL     OW20554   0.853   8.254   5.074 -0.5326 -0.3711 -0.6185
39516SOL    HW120555   0.763   8.275   5.097 -0.3555 -0.0776 -0.1872
39516SOL    HW220556   0.895   8.339   5.060 -0.5898 -0.5288 -1.8797
39517SOL     OW20557   3.382   9.327  10.876 -0.2973 -0.0964 -0.0689
39517SOL    HW120558   3.453   9.264  10.868 -1.8738 -1.8076 -1.8466
39517SOL    HW220559   3.415   9.394  10.936  1.6627 -2.3433  1.5396
39518SOL     OW20560   0.824   9.805   9.041  0.1042 -0.3557 -0.2210
39518SOL    HW120561   0.754   9.855   9.001 -0.1666 -1.1006 -0.7053
39518SOL    HW220562   0.789   9.780   9.127 -0.5207 -1.2966 -0.7204
39519SOL     OW20563  10.890   5.330   9.072 -0.2407 -0.4308  0.0203
39519SOL    HW120564  10.958   5.277   9.114  0.0059 -1.3576 -1.4868
39519SOL    HW220565  10.927   5.353   8.987 -2.3029 -2.1492 -1.4491
39520SOL     OW20566   7.838   0.827   6.380 -0.5592 -0.0524  0.1146
39520SOL    HW120567   7.914   0.864   6.426 -0.0641  0.2544 -0.9123
39520SOL    HW220568   7.830   0.881   6.301 -0.9003 -1.0562 -0.5515
39521SOL     OW20569   1.567  11.010   6.123  0.2251 -0.3922  0.2307
39521SOL    HW120570   1.622  11.086   6.142 -0.7191  0.4612 -0.3420
39521SOL    HW220571   1.565  10.962   6.206  1.1125  0.0195  0.5088
39522SOL     OW20572   7.069   5.127   1.031  0.0376  0.2445 -0.1308
39522SOL    HW120573   7.041   5.158   1.117  0.5306 -1.2545  0.6146
39522SOL    HW220574   7.159   5.160   1.022 -0.5656  1.7824 -0.8205
39523SOL     OW20575   6.370   3.716   7.525  0.6952 -0.0647  0.0180
39523SOL    HW120576   6.289   3.703   7.573 -0.4162  0.8569 -1.5382
39523SOL    HW220577   6.396   3.806   7.545  1.3519 -0.3451  0.4901
39524SOL     OW20578   8.203   9.854   9.649  0.6206  0.7212 -0.0325
39524SOL    HW120579   8.174   9.773   9.608  0.1043 -0.7118  2.9347
39524SOL    HW220580   8.260   9.895   9.583 -0.9519 -0.8119 -2.5252
39525SOL     OW20581   6.718   3.304   7.701  0.3520  0.5946 -0.2794
39525SOL    HW120582   6.642   3.333   7.651  0.0406  2.1728  1.0361
39525SOL    HW220583   6.775   3.382   7.705  1.0967  0.0258  0.4668
39526SOL     OW20584   3.677   2.238   2.250  0.2162  0.1497 -0.5022
39526SOL    HW120585   3.698   2.262   2.159  0.7025 -0.9576 -0.6972
39526SOL    HW220586   3.582   2.234   2.251  0.2174 -0.2697 -1.0935
39527SOL     OW20587   4.536   7.193   0.671  0.1898 -0.3095  0.3591
39527SOL    HW120588   4.612   7.167   0.722 -0.7997 -1.7173  1.1770
39527SOL    HW220589   4.489   7.255   0.727 -0.6340 -1.4769  1.0124
39528SOL     OW20590   2.422   3.063   9.143 -0.1951 -0.6830 -0.5826
39528SOL    HW120591   2.422   3.110   9.059  1.3833  1.8408  0.7067
39528SOL    HW220592   2.512   3.033   9.153 -0.5381 -1.5596 -0.0899
39529SOL     OW20593   1.778   4.527   4.219 -0.1894  0.5859 -0.8777
39529SOL    HW120594   1.742   4.438   4.215 -1.8289  1.0100  1.7407
39529SOL    HW220595   1.714   4.581   4.173  0.2736  0.5512 -1.5654
39530SOL     OW20596   6.041   5.529  10.166  0.6216 -0.0637 -0.0101
39530SOL    HW120597   6.135   5.532  10.145  0.8947 -1.9535  0.7094
39530SOL    HW220598   6.028   5.601  10.226  1.4660  0.6376 -0.6280
39531SOL     OW20599   6.952   5.852   7.670  0.6774  0.3112 -0.3219
39531SOL    HW120600   7.014   5.806   7.613 -1.1017 -0.1973 -1.9762
39531SOL    HW220601   6.995   5.856   7.755  2.5418 -0.8878 -1.1499
39532SOL     OW20602   9.229   5.965   9.758 -0.1354  0.1181 -0.1100
39532SOL    HW120603   9.307   6.012   9.784 -0.3991  1.7102 -1.9617
39532SOL    HW220604   9.227   5.888   9.815  2.2645  0.4884  0.5763
39533SOL     OW20605  10.177   1.999   6.375 -0.2576 -0.0449 -0.8162
39533SOL    HW120606  10.189   2.073   6.435 -1.9979 -0.5798  0.2655
39533SOL    HW220607  10.095   2.018   6.329  0.3697 -0.2999 -2.0778
39534SOL     OW20608   5.759   0.267   6.200 -0.1281 -0.5998 -0.1039
39534SOL    HW120609   5.741   0.187   6.250  1.1399 -0.9803 -0.2052
39534SOL    HW220610   5.821   0.315   6.255 -0.3117 -0.0405 -0.3836
39535SOL     OW20611   5.090   9.206   7.383  0.5172  0.7055 -0.5735
39535SOL    HW120612   5.138   9.157   7.449  0.7528 -0.1761 -1.3727
39535SOL    HW220613   5.121   9.171   7.300 -0.0219  1.5492 -1.1500
39536SOL     OW20614   8.020   1.038   3.891 -0.6737  0.3647 -0.4993
39536SOL    HW120615   8.111   1.009   3.887 -0.7161  0.1041  0.2485
39536SOL    HW220616   7.985   1.021   3.803 -0.6089 -1.5632 -0.1837
39537SOL     OW20617   9.260   6.946   8.517 -0.2802 -0.1892  0.6683
39537SOL    HW120618   9.171   6.950   8.482 -0.5014  0.1893  1.2593
39537SOL    HW220619   9.262   7.015   8.584  1.1428  1.4440 -0.9305
39538SOL     OW20620   7.060   7.441   9.658  0.0037 -0.4746  0.0699
39538SOL    HW120621   7.138   7.491   9.683  1.6835 -2.6219 -0.5395
39538SOL    HW220622   6.987   7.492   9.692  1.4957  2.6788 -1.0411
39539SOL     OW20623   2.178   0.898   7.166  0.3573 -0.0183  0.6992
39539SOL    HW120624   2.119   0.973   7.157  1.9127  1.1503 -0.2815
39539SOL    HW220625   2.152   0.857   7.248 -2.4588 -0.1662 -0.1757
39540SOL     OW20626   1.723   4.287  10.647 -0.5664 -0.2604 -0.4828
39540SOL    HW120627   1.749   4.370  10.687 -1.0967 -0.6079  0.6259
39540SOL    HW220628   1.799   4.261  10.595 -0.0582  0.4800 -0.1366
39541SOL     OW20629   7.101   8.567   6.947 -0.3446 -0.8960 -0.1162
39541SOL    HW120630   7.145   8.518   6.877 -0.8941  0.3513 -1.3737
39541SOL    HW220631   7.026   8.608   6.904 -1.8882 -1.7114  1.6445
39542SOL     OW20632   1.954   3.219   3.078 -0.4792 -0.4802 -0.5467
39542SOL    HW120633   1.861   3.204   3.091  0.0538 -3.7675  0.4579
39542SOL    HW220634   1.978   3.279   3.149 -1.8460  0.7660 -1.0850
39543SOL     OW20635   8.970   5.992   0.191 -0.0361  0.2973 -0.3966
39543SOL    HW120636   8.900   6.005   0.128  1.4679  1.1906 -1.9760
39543SOL    HW220637   9.006   6.080   0.204  1.9332 -0.3635 -1.0670
39544SOL     OW20638   6.761   9.930   4.517  0.3339  0.6247  0.2668
39544SOL    HW120639   6.700   9.989   4.473 -0.5467  0.1370  0.7899
39544SOL    HW220640   6.706   9.857   4.546  1.5444 -0.9206 -1.1677
39545SOL     OW20641   0.064   0.967   3.785 -0.6696  0.5528 -0.3732
39545SOL    HW120642   0.009   1.036   3.823  0.7032  2.1198 -1.1036
39545SOL    HW220643   0.012   0.931   3.713 -1.2570  1.1281 -0.2404
39546SOL     OW20644  10.559   4.138   9.377  0.1500 -0.2433  0.3260
39546SOL    HW120645  10.566   4.201   9.449 -0.6242 -0.6078  0.7308
39546SOL    HW220646  10.468   4.144   9.350  0.0282 -1.3007  0.4706
39547SOL     OW20647   8.992   4.891   3.723 -0.3572  0.3488 -0.2550
39547SOL    HW120648   9.072   4.855   3.684  0.4783  0.9274  0.8667
39547SOL    HW220649   8.990   4.855   3.812 -2.4215 -1.2381 -0.8650
39548SOL     OW20650   7.734   6.987   3.871 -0.2368  0.0473 -0.1592
39548SOL    HW120651   7.742   6.924   3.943 -0.1730  1.5967  1.2368
39548SOL    HW220652   7.643   6.979   3.842 -0.0353 -1.1923 -0.5210
39549SOL     OW20653   1.358  10.242   0.554  0.1995 -0.4648  0.0325
39549SOL    HW120654   1.286  10.300   0.576  1.6299  1.1320  0.7768
39549SOL    HW220655   1.377  10.195   0.635  1.2468  0.6024  0.4370
39550SOL     OW20656   9.934   4.221   6.763 -0.0435 -0.3369 -0.2114
39550SOL    HW120657   9.901   4.133   6.746 -0.2469 -0.9959  2.9715
39550SOL    HW220658  10.006   4.233   6.701  0.8170 -3.2656  0.1008
39551SOL     OW20659   7.985   2.854   8.128 -0.0456 -0.0283 -0.2662
39551SOL    HW120660   8.003   2.768   8.166  0.6881  0.6428  0.9712
39551SOL    HW220661   8.007   2.845   8.035  1.2654 -0.8306  0.0950
39552SOL     OW20662   0.141   2.707   6.951  0.1605  0.2333 -0.2646
39552SOL    HW120663   0.180   2.644   7.011  2.2968  3.1129  1.6323
39552SOL    HW220664   0.149   2.667   6.865  1.3723 -2.0552  0.8360
39553SOL     OW20665   1.331   9.977   7.459  0.0498 -0.1123 -0.1549
39553SOL    HW120666   1.316  10.069   7.438 -1.2575 -0.2774 -0.0125
39553SOL    HW220667   1.424   9.963   7.438  0.1692  1.1246 -0.5597
39554SOL     OW20668   4.925   6.669   0.600  0.3576  0.5079 -0.0333
39554SOL    HW120669   4.854   6.715   0.553 -1.4893  0.2597  2.3075
39554SOL    HW220670   4.907   6.576   0.585  1.2343  0.4431 -0.7942
39555SOL     OW20671   0.548   5.790  10.708 -0.1307  0.4062 -0.0432
39555SOL    HW120672   0.621   5.791  10.646 -0.2850 -1.1236 -0.2783
39555SOL    HW220673   0.563   5.712  10.762 -1.7929 -0.1530 -0.3380
39556SOL     OW20674   6.828   6.902  10.143 -0.0393  0.5821 -0.6201
39556SOL    HW120675   6.733   6.916  10.138 -0.1023  0.5965  0.4236
39556SOL    HW220676   6.866   6.989  10.132 -0.1677  0.6573 -0.4620
39557SOL     OW20677   7.459   5.311   9.125  0.6920  0.1022  0.0999
39557SOL    HW120678   7.520   5.322   9.198  0.0731  1.5161  0.4388
39557SOL    HW220679   7.373   5.306   9.168  0.4945 -1.2289 -0.4079
39558SOL     OW20680   8.901   8.643   0.396  0.0158  0.5236 -0.7883
39558SOL    HW120681   8.862   8.556   0.400  0.0494  0.5488  0.2883
39558SOL    HW220682   8.832   8.700   0.363 -0.1529  0.1710 -1.0378
39559SOL     OW20683   2.071   2.545   5.923 -0.4691 -0.4199 -0.6134
39559SOL    HW120684   2.094   2.551   6.016 -2.0830 -1.1319 -0.1415
39559SOL    HW220685   2.116   2.620   5.883 -0.0677  0.1347  0.8072
39560SOL     OW20686   0.594   6.239   6.998  0.0350  0.1390  0.8550
39560SOL    HW120687   0.647   6.160   6.985 -0.2700 -0.0107  0.5098
39560SOL    HW220688   0.613   6.293   6.922 -1.2690 -0.4626  0.0720
39561SOL     OW20689   5.352   7.928   9.179 -0.3817  0.3782 -0.3296
39561SOL    HW120690   5.347   8.012   9.133 -4.3258 -0.6940 -2.3388
39561SOL    HW220691   5.309   7.944   9.263  0.9113  0.8053  0.2810
39562SOL     OW20692   3.013  11.022   4.931 -0.3273  0.5069  0.0544
39562SOL    HW120693   3.060  10.943   4.905 -0.1331  0.1566  1.4312
39562SOL    HW220694   3.022  11.081   4.855 -0.1945 -0.6449 -0.8506
39563SOL     OW20695   1.017   3.267   8.170  0.2100  0.1146 -0.0957
39563SOL    HW120696   1.092   3.317   8.140 -0.0167  0.3571 -0.2607
39563SOL    HW220697   0.980   3.318   8.243  1.0529 -0.7124  0.9543
39564SOL     OW20698  10.014   3.390   9.368 -0.2032 -0.6546 -0.2794
39564SOL    HW120699   9.942   3.394   9.304  0.8417 -0.3373 -1.4749
39564SOL    HW220700  10.050   3.479   9.367 -0.3038 -0.5915  0.9296
39565SOL     OW20701   7.252   3.843   0.591 -0.4692 -0.1579 -0.1279
39565SOL    HW120702   7.158   3.830   0.580 -0.4177  0.5436 -1.8563
39565SOL    HW220703   7.291   3.758   0.571 -0.6801 -0.1322 -0.6673
39566SOL     OW20704   4.647   7.231   4.241  0.4356  0.3385 -0.3412
39566SOL    HW120705   4.646   7.165   4.310  0.0015  0.6265 -0.0648
39566SOL    HW220706   4.559   7.230   4.205  0.3750  0.8739 -0.2242
39567SOL     OW20707   7.093   2.778   9.742 -0.4456  0.3476 -0.1664
39567SOL    HW120708   7.177   2.814   9.770  0.4762 -0.8604 -1.2395
39567SOL    HW220709   7.042   2.770   9.822  1.7050 -1.9956  1.0976
39568SOL     OW20710   1.522   3.786  10.231  0.4518  0.4917  0.0679
39568SOL    HW120711   1.446   3.791  10.289 -0.2450  0.7624 -0.8413
39568SOL    HW220712   1.513   3.702  10.186 -0.0063  1.0670 -0.9487
39569SOL     OW20713   2.728   8.023   8.577  0.2453 -0.7874 -0.1753
39569SOL    HW120714   2.686   8.035   8.662  0.1475 -1.4433 -0.1304
39569SOL    HW220715   2.758   7.932   8.578 -1.0820 -1.2764 -1.4243
39570SOL     OW20716   7.021   0.748   1.445 -0.3346  0.0660 -0.5721
39570SOL    HW120717   6.978   0.687   1.386 -0.0838 -0.7129  0.0264
39570SOL    HW220718   6.951   0.808   1.473 -1.1094 -1.3213  0.5668
39571SOL     OW20719   0.010   9.547   9.477 -0.2629 -0.3550 -0.0870
39571SOL    HW120720  -0.073   9.510   9.446  0.0929  0.3239 -2.0422
39571SOL    HW220721   0.075   9.514   9.415  0.8033 -0.1747  0.9004
39572SOL     OW20722  10.013   0.055   9.786 -0.4585 -0.0871  0.0761
39572SOL    HW120723   9.933   0.014   9.753 -0.5492 -0.3669  0.6306
39572SOL    HW220724   9.983   0.135   9.829 -0.2890  0.5575 -0.9519
39573SOL     OW20725   7.469   3.134   3.355  0.2705 -0.9913 -0.4187
39573SOL    HW120726   7.520   3.096   3.425 -0.5031  0.3833  0.9639
39573SOL    HW220727   7.511   3.103   3.274  2.1805 -1.3059  0.6406
39574SOL     OW20728   1.182   3.617   5.533  0.5602  0.6614  0.5995
39574SOL    HW120729   1.250   3.555   5.558 -1.5585 -2.1542 -0.0843
39574SOL    HW220730   1.179   3.611   5.437 -1.2126 -0.0362  0.6558
39575SOL     OW20731   7.896   8.353   7.295 -0.2846 -0.1805  0.0249
39575SOL    HW120732   7.896   8.437   7.341 -1.1462  0.5105 -1.1583
39575SOL    HW220733   7.978   8.353   7.245 -1.0355  0.7705 -1.2927
39576SOL     OW20734  10.243   3.698   9.054 -0.5710  0.1517  0.0775
39576SOL    HW120735  10.186   3.692   8.978  1.2727 -1.0873 -1.3002
39576SOL    HW220736  10.316   3.640   9.034  1.0483  1.4328  1.8630
39577SOL     OW20737   1.059   0.478  10.406  0.9296 -0.1018  0.4475
39577SOL    HW120738   1.120   0.548  10.384  0.6896  0.3164  1.0703
39577SOL    HW220739   1.111   0.398  10.401  1.1559  0.0840 -0.4886
39578SOL     OW20740   9.693   8.967   3.503 -0.0052 -0.0468 -0.6839
39578SOL    HW120741   9.693   8.995   3.412 -0.8331  0.0691 -0.6583
39578SOL    HW220742   9.780   8.931   3.518 -0.5454 -2.1178 -2.1489
39579SOL     OW20743   0.812   4.924   7.283 -0.0994  0.0294  0.0552
39579SOL    HW120744   0.823   4.859   7.353  0.4764 -0.6597 -0.6597
39579SOL    HW220745   0.730   4.968   7.304 -0.0252 -0.2890  1.0653
39580SOL     OW20746   4.042   4.418   7.447  0.4951  0.3036 -0.6462
39580SOL    HW120747   3.966   4.472   7.426  1.0947  0.6121 -2.1260
39580SOL    HW220748   4.111   4.449   7.389  1.6230 -0.3209  0.3004
39581SOL     OW20749   6.233   7.342   1.906  0.5883  0.1869  0.2901
39581SOL    HW120750   6.205   7.419   1.955  0.1354  0.3490 -0.2176
39581SOL    HW220751   6.180   7.271   1.941 -0.1519  0.4111 -0.3638
39582SOL     OW20752  10.125  11.089   3.178  0.1931  0.1795 -0.2409
39582SOL    HW120753  10.216  11.107   3.154  0.2366 -0.2023 -0.3731
39582SOL    HW220754  10.124  11.092   3.274  0.3135  0.3364 -0.2447
39583SOL     OW20755   7.315   5.949   1.879  0.2543  0.1432  0.1973
39583SOL    HW120756   7.280   5.971   1.793 -0.6993  0.4345  0.6494
39583SOL    HW220757   7.242   5.910   1.926  0.5041  0.8560  1.2022
39584SOL     OW20758  11.079  10.016   8.035  0.1886  0.1582 -0.4314
39584SOL    HW120759  11.054   9.949   7.972  0.4114  2.2842 -2.9624
39584SOL    HW220760  11.092  10.095   7.982  2.3400  1.6302  2.0382
39585SOL     OW20761  10.750   7.539   8.978  0.4621  0.6547 -0.0917
39585SOL    HW120762  10.819   7.514   9.039  0.7625 -0.4563 -0.8543
39585SOL    HW220763  10.790   7.606   8.923  0.8786  0.1730 -0.3874
39586SOL     OW20764   0.196   6.051   5.753  0.7122 -0.0625 -0.2620
39586SOL    HW120765   0.201   6.133   5.801 -0.5019  0.3191 -0.7529
39586SOL    HW220766   0.153   6.074   5.671  0.9607 -1.0730 -0.6895
39587SOL     OW20767   8.562  10.166   6.570  0.5786  0.5012 -0.5254
39587SOL    HW120768   8.650  10.129   6.572  1.3322  1.7988 -3.7501
39587SOL    HW220769   8.537  10.163   6.477 -3.2338 -0.7353  0.3665
39588SOL     OW20770   8.359   2.409   5.495  0.2076  0.3557 -0.1143
39588SOL    HW120771   8.309   2.449   5.566  1.8018  0.3596  1.0741
39588SOL    HW220772   8.300   2.345   5.456 -0.5656  0.0374  1.5094
39589SOL     OW20773  10.972  10.461  10.627 -0.3760  0.0921  0.3337
39589SOL    HW120774  11.035  10.393  10.647 -1.7699 -1.1457  0.6595
39589SOL    HW220775  10.969  10.464  10.532 -0.0563 -0.0527  0.3189
39590SOL     OW20776   2.781   0.458   2.579 -0.2631 -0.0486 -0.4004
39590SOL    HW120777   2.861   0.408   2.566 -0.8998 -0.8254 -1.3862
39590SOL    HW220778   2.727   0.403   2.636 -0.3116  0.2434 -0.1606
39591SOL     OW20779   9.721   4.759   6.704  0.3348 -0.0138  0.4316
39591SOL    HW120780   9.665   4.720   6.770  1.0332 -2.3377 -0.2686
39591SOL    HW220781   9.789   4.804   6.754 -1.1552  1.4007  1.2606
39592SOL     OW20782   7.478   5.420   6.965 -0.4171 -0.1089 -0.3364
39592SOL    HW120783   7.478   5.376   7.051 -0.0171  1.5385  0.5516
39592SOL    HW220784   7.566   5.404   6.931 -0.9732 -1.8439 -1.0563
39593SOL     OW20785   1.609   9.267   6.458  0.3810 -0.4110  0.1429
39593SOL    HW120786   1.652   9.205   6.399 -0.4439  1.1304 -2.2372
39593SOL    HW220787   1.580   9.338   6.401  1.0074  2.0714  2.6446
39594SOL     OW20788   2.308   9.184   9.602 -0.3140 -0.2016 -0.8215
39594SOL    HW120789   2.303   9.097   9.642 -0.0208  0.4050  0.5960
39594SOL    HW220790   2.401   9.207   9.608 -0.3393  0.0923 -1.4664
39595SOL     OW20791   8.791   0.289   5.002  0.2926  0.2349  0.7829
39595SOL    HW120792   8.832   0.280   5.088  0.0930 -1.3237  0.7353
39595SOL    HW220793   8.836   0.224   4.947 -2.0397 -1.3875  0.6764
39596SOL     OW20794   2.107   1.725   3.621 -0.4991  0.4583  0.0095
39596SOL    HW120795   2.106   1.708   3.715 -0.1301  0.9404  0.1031
39596SOL    HW220796   2.150   1.810   3.612  0.8903 -0.2938 -0.7112
39597SOL     OW20797   3.458   6.938   8.045  0.1886 -0.2747 -0.7304
39597SOL    HW120798   3.428   6.854   8.081 -1.4669  0.4215 -0.3730
39597SOL    HW220799   3.404   7.003   8.090  1.4467  0.9869 -1.0041
39598SOL     OW20800   0.385   3.176   8.828  0.1291 -0.3975  0.7525
39598SOL    HW120801   0.299   3.215   8.844  0.2417 -0.3289  1.1871
39598SOL    HW220802   0.442   3.214   8.894  0.7713  0.4359 -0.2653
39599SOL     OW20803   6.638   0.824   0.923 -0.2276  0.0185  0.9902
39599SOL    HW120804   6.724   0.811   0.884 -1.0321  0.5958 -1.0997
39599SOL    HW220805   6.590   0.878   0.860 -2.8397 -2.0779  0.9637
39600SOL     OW20806   7.851   4.918   6.833  0.0872 -0.1555  0.0368
39600SOL    HW120807   7.766   4.904   6.876 -0.5376  0.0433 -1.0779
39600SOL    HW220808   7.828   4.963   6.751  1.2951  0.0486 -0.2022
39601SOL     OW20809   1.680   6.492   6.708 -0.0370  0.3719 -0.0325
39601SOL    HW120810   1.707   6.465   6.796 -0.8542  0.0512  0.1277
39601SOL    HW220811   1.729   6.573   6.693 -0.1142  0.5975  0.8396
39602SOL     OW20812   1.943   4.364   9.430 -0.1430 -0.0153 -0.9526
39602SOL    HW120813   1.959   4.447   9.475  1.3472 -0.9480  0.3268
39602SOL    HW220814   1.851   4.344   9.450  0.0449  0.3679  0.4460
39603SOL     OW20815  10.862   4.388   6.568 -0.3020  0.4079 -0.1088
39603SOL    HW120816  10.950   4.392   6.605 -1.0945  0.8573  1.8502
39603SOL    HW220817  10.836   4.296   6.579 -0.3238  0.4185 -0.0729
39604SOL     OW20818  10.826   0.910   5.650  0.2429 -0.5451  0.0782
39604SOL    HW120819  10.896   0.893   5.588 -0.3622 -1.0648 -0.4809
39604SOL    HW220820  10.750   0.931   5.595  0.2765  1.3134  0.6872
39605SOL     OW20821   7.472   4.610   7.705 -0.0440 -0.6263 -0.5781
39605SOL    HW120822   7.443   4.658   7.782 -0.6030 -0.5238 -0.8492
39605SOL    HW220823   7.529   4.541   7.740  0.5201  0.0328 -0.1619
39606SOL     OW20824  10.045   3.614  10.059 -0.2324 -0.0343  0.0974
39606SOL    HW120825  10.050   3.659   9.975  0.9984 -2.9202 -1.5112
39606SOL    HW220826  10.017   3.525  10.037 -0.6834 -0.6777  2.8633
39607SOL     OW20827   5.767   3.122   0.066  0.4790  0.1228  0.4519
39607SOL    HW120828   5.823   3.048   0.089  1.9466 -0.2284 -3.5260
39607SOL    HW220829   5.678   3.093   0.087  1.2735 -1.5096  1.7615
39608SOL     OW20830  10.053  10.762   7.127  0.1838  0.4070  0.5068
39608SOL    HW120831   9.994  10.808   7.067 -0.4409 -0.4060  0.4891
39608SOL    HW220832  10.017  10.673   7.133  0.8185  0.1957  1.3027
39609SOL     OW20833   8.358   3.519   6.741 -0.2343  0.1744  0.2731
39609SOL    HW120834   8.279   3.539   6.690  0.8890  0.8078 -1.3338
39609SOL    HW220835   8.397   3.444   6.696  0.9713  0.9679 -0.0440
39610SOL     OW20836   0.408   4.325   9.378 -0.2314 -0.5369  0.1274
39610SOL    HW120837   0.479   4.305   9.318  0.4897  1.2421  0.3151
39610SOL    HW220838   0.448   4.379   9.446 -1.6184 -0.0492  0.6064
39611SOL     OW20839   2.177   0.469   8.280  0.4422  0.5905 -0.0906
39611SOL    HW120840   2.192   0.499   8.190 -0.8628  1.8936  0.0891
39611SOL    HW220841   2.099   0.516   8.309 -0.2845 -1.2008  1.1000
39612SOL     OW20842  10.503   2.744   0.609 -0.1923 -0.3714  0.2687
39612SOL    HW120843  10.451   2.734   0.688  0.4177 -2.0646  0.4866
39612SOL    HW220844  10.590   2.711   0.632  0.6199  1.0898 -0.4994
39613SOL     OW20845   0.709   6.462   6.074  0.4817 -0.0178 -0.5653
39613SOL    HW120846   0.625   6.468   6.028 -0.4404  1.1570  1.1697
39613SOL    HW220847   0.725   6.550   6.107  0.1086 -1.0945  2.9379
39614SOL     OW20848   7.329   2.744   1.443  0.0242 -0.4322  0.1717
39614SOL    HW120849   7.249   2.753   1.495  0.0309  2.1670 -0.1173
39614SOL    HW220850   7.313   2.668   1.387 -0.7341 -2.1837  2.6083
39615SOL     OW20851  10.455   4.104   8.075  0.2058  0.2671 -0.6174
39615SOL    HW120852  10.489   4.025   8.117 -2.0524 -1.0382 -1.0681
39615SOL    HW220853  10.484   4.175   8.132  1.1268 -1.0105  0.5941
39616SOL     OW20854   4.731   0.907  10.157 -0.4759  0.1046 -0.3472
39616SOL    HW120855   4.713   0.950  10.241 -2.5147  0.3330 -0.8396
39616SOL    HW220856   4.778   0.973  10.106 -0.5502  0.5070  0.0910
39617SOL     OW20857   8.536   9.438   4.273  0.3983  0.1510  0.0076
39617SOL    HW120858   8.443   9.440   4.252  0.3652 -0.0545  0.1295
39617SOL    HW220859   8.569   9.524   4.247  0.5375 -0.3827 -1.7372
39618SOL     OW20860   8.837   0.087   7.751 -0.4662  0.3118 -0.3763
39618SOL    HW120861   8.930   0.081   7.773 -0.0189 -3.1361 -2.3901
39618SOL    HW220862   8.801   0.150   7.813  2.3764 -1.3719  3.3503
39619SOL     OW20863   0.094   1.312   0.623  0.7807 -1.0510 -0.2563
39619SOL    HW120864   0.060   1.307   0.534  2.5759 -2.8786 -0.9267
39619SOL    HW220865   0.031   1.263   0.675  0.7247 -1.6856 -0.9024
39620SOL     OW20866  11.100   1.550   2.016 -0.0079 -0.4194  0.8214
39620SOL    HW120867  11.185   1.510   2.033 -0.2630 -0.7710  1.2832
39620SOL    HW220868  11.102   1.633   2.063  0.7489  0.4224 -0.6181
39621SOL     OW20869  11.001   4.628   4.630  0.2820  0.0110 -0.1028
39621SOL    HW120870  11.018   4.712   4.673 -0.8417  0.7093 -0.9399
39621SOL    HW220871  10.995   4.650   4.537 -2.0417 -0.5877 -0.1685
39622SOL     OW20872   2.080   4.931   2.443 -0.7701 -0.2214 -0.5109
39622SOL    HW120873   2.119   4.927   2.356  0.3302  0.3427 -0.0701
39622SOL    HW220874   2.153   4.911   2.502 -0.7920  2.1477  0.4230
39623SOL     OW20875   8.311   7.192   4.329  0.0015  0.1008  0.5649
39623SOL    HW120876   8.240   7.172   4.268 -0.7699 -0.6074  1.6563
39623SOL    HW220877   8.345   7.106   4.355  1.6707  0.4302 -0.3666
39624SOL     OW20878   9.708   0.261   1.378  0.4996  0.4149  0.0072
39624SOL    HW120879   9.743   0.340   1.419  0.4182  0.3948  0.1155
39624SOL    HW220880   9.655   0.294   1.305  2.2838  0.3768 -1.3615
39625SOL     OW20881   6.891   5.675   5.576  0.8011  0.0443 -0.6974
39625SOL    HW120882   6.909   5.584   5.599 -2.1504 -0.3729  0.3797
39625SOL    HW220883   6.940   5.726   5.639 -0.1427 -0.9303  0.9064
39626SOL     OW20884   2.956   3.634   9.459 -0.2395  0.0016 -0.3952
39626SOL    HW120885   3.040   3.673   9.437 -0.0909 -0.3465 -0.4360
39626SOL    HW220886   2.937   3.668   9.547  0.7296 -1.2290  0.3081
39627SOL     OW20887   2.768   9.292   8.938 -0.0071 -0.4153 -0.1652
39627SOL    HW120888   2.832   9.245   8.884  0.2019 -1.2345  0.7625
39627SOL    HW220889   2.720   9.223   8.983  0.0476  0.2519  0.9409
39628SOL     OW20890   5.138  10.109   0.712 -0.8656 -0.2599 -0.2689
39628SOL    HW120891   5.052  10.146   0.733 -0.0532  2.1435 -0.8683
39628SOL    HW220892   5.163  10.061   0.791 -2.2451 -0.0297  0.3471
39629SOL     OW20893  10.725   9.058   5.735 -0.0500  0.1513  0.4650
39629SOL    HW120894  10.818   9.063   5.756 -0.2351 -0.6363  1.6004
39629SOL    HW220895  10.682   9.042   5.820 -1.2797  1.1257  0.0611
39630SOL     OW20896   2.457   2.078  10.172 -0.1794  0.2653 -0.0744
39630SOL    HW120897   2.501   1.994  10.183  1.5193  0.9834 -0.9782
39630SOL    HW220898   2.449   2.089  10.077  0.7258  1.6197 -0.0298
39631SOL     OW20899   8.304   3.656   5.423 -0.2220  0.1509 -0.4343
39631SOL    HW120900   8.286   3.746   5.453  1.7676  0.2308  0.6848
39631SOL    HW220901   8.390   3.636   5.459 -0.2553 -1.9199 -1.3961
39632SOL     OW20902   6.774   6.783   3.831 -0.0528 -0.5571  0.1783
39632SOL    HW120903   6.784   6.691   3.854 -0.3135 -0.6094  0.0848
39632SOL    HW220904   6.854   6.824   3.863  0.0754 -0.8193  0.1990
39633SOL     OW20905   0.564   5.480   2.303 -0.5154  0.1452 -0.7366
39633SOL    HW120906   0.604   5.560   2.270  0.8708  0.7877  2.1807
39633SOL    HW220907   0.632   5.437   2.355 -1.7156 -2.1194 -0.8758
39634SOL     OW20908   2.241   2.468   8.243 -0.3976  0.3768  0.2236
39634SOL    HW120909   2.275   2.454   8.331 -0.5498  1.3988  0.4567
39634SOL    HW220910   2.268   2.391   8.194 -2.0107 -1.1768  1.6507
39635SOL     OW20911   5.966   1.542   0.557  0.5165  0.1256 -0.0866
39635SOL    HW120912   5.972   1.534   0.462  0.4579  0.5915 -0.1274
39635SOL    HW220913   6.057   1.547   0.587  0.5075  0.9053 -0.1929
39636SOL     OW20914   9.113   9.335   9.900 -0.1275  0.0314 -0.0052
39636SOL    HW120915   9.124   9.422   9.938 -2.0715  1.0024 -1.4818
39636SOL    HW220916   9.115   9.275   9.975 -1.5647  1.6341  1.3793
39637SOL     OW20917  10.788   7.001   8.485  0.2214 -0.2572 -0.0848
39637SOL    HW120918  10.816   6.946   8.557  1.4184 -1.4551 -1.4093
39637SOL    HW220919  10.811   6.952   8.406 -0.8305  1.0991 -1.3057
39638SOL     OW20920  10.301   1.379   9.609  0.0276  0.3758  0.2563
39638SOL    HW120921  10.354   1.299   9.613  0.7467  0.8546  0.4885
39638SOL    HW220922  10.215   1.349   9.579  0.6818 -0.3070 -1.0531
39639SOL     OW20923   7.352   2.520   7.552 -0.4222  0.1365  0.0891
39639SOL    HW120924   7.315   2.435   7.527 -0.0901 -0.3036  1.0417
39639SOL    HW220925   7.435   2.525   7.503  1.1004 -1.5136  2.2862
39640SOL     OW20926   7.659   6.090   3.140  0.1919 -0.0712 -0.7201
39640SOL    HW120927   7.639   6.001   3.110  1.7244 -0.1648 -1.5571
39640SOL    HW220928   7.658   6.084   3.236  0.1753 -0.9608 -0.7705
39641SOL     OW20929   2.394   4.409   6.923  0.1548  0.2658 -0.2407
39641SOL    HW120930   2.451   4.334   6.910 -2.5693 -2.2853  1.2693
39641SOL    HW220931   2.376   4.410   7.017 -1.1400  1.8232 -0.4560
39642SOL     OW20932   9.164  10.682   4.477 -0.7574 -0.3648 -0.5634
39642SOL    HW120933   9.207  10.720   4.554 -1.3242 -1.2190  0.1976
39642SOL    HW220934   9.161  10.754   4.413 -1.3101  0.7239  0.6319
39643SOL     OW20935   4.048   0.555   3.366  0.1091 -0.6804 -0.1419
39643SOL    HW120936   4.133   0.530   3.400  1.7397  4.5507  0.4980
39643SOL    HW220937   3.986   0.532   3.436  1.4791 -1.6536  0.7910
39644SOL     OW20938  10.141   6.009   6.438  0.4094 -0.4546 -0.2090
39644SOL    HW120939  10.165   5.922   6.468  1.2274  0.0650  0.7298
39644SOL    HW220940  10.112   6.055   6.517 -2.3352 -0.5558 -1.0482
39645SOL     OW20941   9.654   3.878   9.008  0.2402 -0.0922  0.2946
39645SOL    HW120942   9.607   3.841   8.934 -0.4594  0.7725  0.2961
39645SOL    HW220943   9.734   3.825   9.015  0.2003 -0.3287 -0.9211
39646SOL     OW20944   1.189   4.670   2.234 -0.3974  0.1974 -0.1448
39646SOL    HW120945   1.274   4.714   2.244  0.0146 -0.7467  0.6546
39646SOL    HW220946   1.188   4.604   2.303 -1.7433  0.1116 -0.2176
39647SOL     OW20947   1.846   7.422   7.137  0.1698 -0.3517 -0.1559
39647SOL    HW120948   1.911   7.362   7.098 -0.0360 -0.4598 -0.3352
39647SOL    HW220949   1.854   7.407   7.231  1.1517  0.4034 -0.0963
39648SOL     OW20950   1.517   6.565   0.703  0.0774 -0.4102 -0.2070
39648SOL    HW120951   1.516   6.488   0.646 -0.3904 -1.4350  1.1110
39648SOL    HW220952   1.470   6.536   0.782 -1.1757  1.6210 -0.1485
39649SOL     OW20953   1.224   2.004   5.938 -0.3948 -0.6820 -0.1844
39649SOL    HW120954   1.256   2.091   5.962 -2.0470 -0.4898  1.5242
39649SOL    HW220955   1.234   2.001   5.843  3.6779 -0.3191  0.0561
39650SOL     OW20956   8.229   0.693   1.266 -0.1186  0.2920 -0.2690
39650SOL    HW120957   8.181   0.611   1.254 -0.9165  0.6387  0.4369
39650SOL    HW220958   8.319   0.666   1.282 -0.3299 -0.4396 -0.2670
39651SOL     OW20959   9.714   6.543   4.679 -0.6958  0.1419 -0.2900
39651SOL    HW120960   9.648   6.474   4.688  0.8548 -1.6003 -1.4346
39651SOL    HW220961   9.676   6.604   4.616 -1.4666 -0.4977 -0.4609
39652SOL     OW20962   7.875   9.991   9.510 -0.0241  0.4178  0.8265
39652SOL    HW120963   7.942   9.934   9.474 -0.2133  1.6037 -1.6342
39652SOL    HW220964   7.924  10.058   9.558  0.3785 -0.1475  1.2116
39653SOL     OW20965   8.425   3.564   2.199 -0.1495  0.6509 -0.2226
39653SOL    HW120966   8.515   3.581   2.228 -0.0983 -0.4418  0.2925
39653SOL    HW220967   8.397   3.646   2.159  1.6988  0.4681 -2.0074
39654SOL     OW20968   4.891   6.015   9.284 -0.4849 -0.1753 -0.4434
39654SOL    HW120969   4.974   5.995   9.240 -0.4771 -0.3279 -0.3634
39654SOL    HW220970   4.826   6.017   9.215 -0.6059 -1.1746 -0.3826
39655SOL     OW20971   8.885  10.893   8.877  0.0386  0.1875 -0.7677
39655SOL    HW120972   8.912  10.980   8.848 -0.5431  0.2773 -1.0570
39655SOL    HW220973   8.963  10.856   8.919  0.0661  1.1390  0.0584
39656SOL     OW20974  10.988   3.155   0.091  0.0206  0.3793 -0.2142
39656SOL    HW120975  11.063   3.158   0.149 -0.3703  0.9319  0.2717
39656SOL    HW220976  10.913   3.177   0.146 -0.4613  0.1338 -0.7532
39657SOL     OW20977   0.393   0.419  10.398  0.6109 -0.0005  0.7837
39657SOL    HW120978   0.312   0.426  10.348  1.2762 -0.0303 -0.3174
39657SOL    HW220979   0.401   0.504  10.443  1.6106  1.2875 -1.6687
39658SOL     OW20980   6.819   5.179   9.270 -0.2443  0.0752  0.4312
39658SOL    HW120981   6.743   5.230   9.295  0.3638  0.4284  1.6172
39658SOL    HW220982   6.863   5.158   9.352  1.4390  0.6547 -0.2657
39659SOL     OW20983   4.481   4.766  10.978 -0.0351  0.4987  0.4138
39659SOL    HW120984   4.410   4.716  10.936  0.2992  0.1444  0.2673
39659SOL    HW220985   4.458   4.765  11.071 -1.3641  2.2194  0.1571
39660SOL     OW20986   8.152   3.434   6.005 -0.1988  0.0009 -0.1232
39660SOL    HW120987   8.187   3.467   5.922  0.9497 -0.3651  0.1984
39660SOL    HW220988   8.057   3.426   5.990 -0.0725  0.4282 -1.2214
39661SOL     OW20989   6.528   2.341   7.442  0.0545  0.0924  0.1520
39661SOL    HW120990   6.529   2.247   7.463  2.2260  0.2785  1.1151
39661SOL    HW220991   6.578   2.382   7.511 -0.0460  1.8785 -0.7746
39662SOL     OW20992   0.366   9.461   1.135  0.2906  0.1131  0.5206
39662SOL    HW120993   0.339   9.541   1.088  0.7098  0.5703  1.0429
39662SOL    HW220994   0.306   9.457   1.210 -0.0497 -0.3401  0.2296
39663SOL     OW20995   5.092   5.151  10.833 -0.6364  0.3831  0.1358
39663SOL    HW120996   5.167   5.120  10.884 -0.3499 -1.3957 -1.2667
39663SOL    HW220997   5.028   5.080  10.840 -1.1104  0.6941 -0.8709
39664SOL     OW20998   6.018   0.498   1.180 -0.1726 -0.0800 -0.2476
39664SOL    HW120999   6.090   0.491   1.242  0.0266  0.4560 -0.4126
39664SOL    HW221000   5.958   0.427   1.204  0.8371 -1.1055 -0.6858
39665SOL     OW21001   6.649   7.932   8.029  0.1832 -0.3104  0.0865
39665SOL    HW121002   6.560   7.968   8.029 -0.5516 -1.9375 -2.1820
39665SOL    HW221003   6.700   7.994   7.977 -0.1465 -0.4619 -0.4280
39666SOL     OW21004   3.061   5.680   2.893 -0.0805 -0.2835  0.1629
39666SOL    HW121005   3.074   5.643   2.981  0.8240  1.6695  0.9074
39666SOL    HW221006   2.967   5.673   2.878  0.0466 -2.9398  0.1825
39667SOL     OW21007   6.403   5.815   1.344  0.1335  0.7169 -0.3185
39667SOL    HW121008   6.339   5.880   1.315 -0.0516  0.4538 -0.5145
39667SOL    HW221009   6.396   5.815   1.439 -3.8691 -2.8594 -0.3272
39668SOL     OW21010  10.205   1.942   9.264 -0.0627  0.1698  0.0025
39668SOL    HW121011  10.211   1.947   9.359 -0.9125 -1.7344  0.2011
39668SOL    HW221012  10.282   1.892   9.237  0.6578  1.4631 -0.4350
39669SOL     OW21013   0.489   3.257   1.131 -0.8299 -0.6703 -0.2715
39669SOL    HW121014   0.531   3.338   1.160 -0.4971  0.6418 -3.8729
39669SOL    HW221015   0.395   3.276   1.135 -0.9315 -1.3278  1.7958
39670SOL     OW21016   7.731   7.423   3.449  0.1970  0.4687 -0.0912
39670SOL    HW121017   7.657   7.363   3.441  1.0803 -0.7885  0.8125
39670SOL    HW221018   7.690   7.509   3.466 -1.0775  0.1092 -1.1519
39671SOL     OW21019   9.821   4.512   0.523  0.2146  0.1925 -0.7829
39671SOL    HW121020   9.762   4.526   0.449 -0.7633  1.1877  0.1570
39671SOL    HW221021   9.888   4.453   0.488 -0.3068  0.4900 -2.4093
39672SOL     OW21022  10.900   2.037   9.431  1.0320  0.0562  0.5180
39672SOL    HW121023  10.819   2.087   9.416  0.3117 -1.3346 -0.3872
39672SOL    HW221024  10.914   2.044   9.526 -2.1255 -2.4891  1.3652
39673SOL     OW21025   4.392   7.109   5.411  0.0156  0.5000 -0.2376
39673SOL    HW121026   4.388   7.147   5.323  1.1136 -2.2771 -1.6240
39673SOL    HW221027   4.329   7.037   5.410 -0.3089  0.7256  1.4272
39674SOL     OW21028  10.551   2.350   6.743 -0.0391  0.1828  0.0535
39674SOL    HW121029  10.595   2.372   6.662 -0.1587  1.0311  0.2153
39674SOL    HW221030  10.620   2.350   6.810  0.1646 -1.0741 -0.1186
39675SOL     OW21031   7.708   1.058  10.707 -0.2318 -0.3017 -0.2607
39675SOL    HW121032   7.731   0.974  10.668 -0.1900 -0.1336 -0.6086
39675SOL    HW221033   7.792   1.098  10.730 -0.2837 -0.6943  0.6473
39676SOL     OW21034   8.716   2.830   1.150  0.1161 -0.0308 -0.0462
39676SOL    HW121035   8.652   2.771   1.111  0.5971 -2.9070  3.0029
39676SOL    HW221036   8.665   2.907   1.175 -1.7199 -1.2394  0.2056
39677SOL     OW21037  10.836  11.015   1.245 -0.1741  0.1725  0.2531
39677SOL    HW121038  10.823  10.966   1.164 -0.3398 -0.5660  0.7188
39677SOL    HW221039  10.755  11.064   1.257 -0.6244 -0.6456  0.5955
39678SOL     OW21040   0.746   5.750   7.749  0.5517  0.3161  0.1500
39678SOL    HW121041   0.774   5.676   7.695 -0.2265  0.1698 -0.0708
39678SOL    HW221042   0.720   5.817   7.686 -1.0990 -0.1367  0.3050
39679SOL     OW21043   2.668   6.303  10.210  0.0660 -0.2217 -0.2257
39679SOL    HW121044   2.709   6.217  10.198 -0.0621 -0.3748  0.4006
39679SOL    HW221045   2.663   6.314  10.305 -1.0059 -0.0352 -0.2983
39680SOL     OW21046   6.924   0.268   7.450 -0.0949 -0.1519  0.4394
39680SOL    HW121047   6.919   0.341   7.511 -0.9054 -0.1536  0.3903
39680SOL    HW221048   6.870   0.296   7.376 -2.1053 -1.5830  1.2681
39681SOL     OW21049   0.100   1.601   4.268  0.0059 -0.1765  0.0132
39681SOL    HW121050   0.153   1.676   4.297 -0.3909  0.5703 -1.1261
39681SOL    HW221051   0.084   1.617   4.176 -2.0057 -0.5238  0.2524
39682SOL     OW21052   1.393   3.203   8.477 -0.9141  0.2918 -0.1753
39682SOL    HW121053   1.349   3.179   8.559 -0.1497  0.7009  0.3638
39682SOL    HW221054   1.393   3.299   8.478  0.0146  0.2963 -0.1472
39683SOL     OW21055   9.922   9.650  10.261  0.2053 -0.2438 -0.4645
39683SOL    HW121056  10.002   9.629  10.213  0.4597  0.0572 -0.1798
39683SOL    HW221057   9.877   9.567  10.271 -0.4057 -0.1706 -2.2034
39684SOL     OW21058   3.979   4.436   0.396  0.0734  0.0881  0.3957
39684SOL    HW121059   3.999   4.357   0.346  1.3527  0.5786  0.0601
39684SOL    HW221060   3.890   4.460   0.370 -0.1529 -0.9889  0.1658
39685SOL     OW21061   0.182   2.748   8.043  0.6107 -0.2123 -0.0156
39685SOL    HW121062   0.153   2.801   8.117  0.2742 -0.2165 -0.1442
39685SOL    HW221063   0.171   2.805   7.967  0.0443 -0.5326 -0.1817
39686SOL     OW21064   9.243   7.615   0.854 -0.3706 -0.4438  0.5538
39686SOL    HW121065   9.216   7.676   0.786 -0.3546  0.7256  1.5726
39686SOL    HW221066   9.313   7.563   0.813 -0.7990 -0.2051 -0.5136
39687SOL     OW21067   7.766   2.649   0.055  0.4522  0.0156  0.1936
39687SOL    HW121068   7.744   2.698  -0.024  0.0348 -0.4017  0.0492
39687SOL    HW221069   7.779   2.559   0.025  0.2241 -0.1562  0.6103
39688SOL     OW21070   8.377   2.643   5.084 -0.0763  0.4523 -0.0579
39688SOL    HW121071   8.399   2.687   5.166  0.9652 -0.3065  0.0989
39688SOL    HW221072   8.425   2.560   5.088  0.4631  0.6498 -1.6851
39689SOL     OW21073   5.578   7.024   0.327  0.3270 -0.3167 -0.8580
39689SOL    HW121074   5.544   7.099   0.278  0.1768  0.3679  0.2725
39689SOL    HW221075   5.542   7.034   0.415  2.2369 -0.3911 -0.0134
39690SOL     OW21076  10.496   8.936  10.297  0.1073  0.9565 -0.8662
39690SOL    HW121077  10.461   8.861  10.250 -0.1973  1.0464 -0.7862
39690SOL    HW221078  10.453   8.933  10.383  2.7148 -0.8299  0.5073
39691SOL     OW21079   0.274   3.442   4.814  0.6212 -0.5735  0.7672
39691SOL    HW121080   0.203   3.380   4.796 -0.4681  0.9328 -0.3481
39691SOL    HW221081   0.261   3.467   4.906 -0.9091  0.3597  0.3420
39692SOL     OW21082   1.789   8.995   4.191  0.5644 -0.0150  0.4969
39692SOL    HW121083   1.793   8.914   4.140  2.5395  0.4950 -0.2360
39692SOL    HW221084   1.706   8.989   4.238  1.1630 -2.9867  1.3786
39693SOL     OW21085   1.059   9.250   8.996  0.1086 -0.1605 -0.1978
39693SOL    HW121086   0.988   9.216   8.942 -0.2906 -0.5797  0.5631
39693SOL    HW221087   1.137   9.241   8.942 -0.2441 -0.7711 -0.6248
39694SOL     OW21088   1.512   6.190   7.309 -0.1108  0.1295 -0.0668
39694SOL    HW121089   1.499   6.195   7.403  1.0159  1.4886  0.0414
39694SOL    HW221090   1.423   6.187   7.273 -0.7651  3.8532  0.8694
39695SOL     OW21091   0.180   3.014   9.478  0.3574  0.3835  0.3664
39695SOL    HW121092   0.177   3.109   9.477 -0.0813  0.3906  1.3696
39695SOL    HW221093   0.094   2.987   9.512 -0.4535 -0.4461 -2.1094
39696SOL     OW21094   4.498   0.648   4.924 -0.6548  0.6761 -0.5890
39696SOL    HW121095   4.471   0.739   4.930  1.9386  1.4562  0.5111
39696SOL    HW221096   4.417   0.598   4.932 -2.2502  2.8529 -2.1238
39697SOL     OW21097   3.635   3.780   1.469 -0.3323 -0.3472  0.4865
39697SOL    HW121098   3.572   3.793   1.398 -0.9059 -1.6006  0.7283
39697SOL    HW221099   3.594   3.819   1.546 -0.2874 -0.1378  0.4052
39698SOL     OW21100  10.078  10.426   2.376 -0.2785 -0.7523 -0.1433
39698SOL    HW121101  10.134  10.350   2.390 -0.3813 -1.1477 -1.6475
39698SOL    HW221102   9.996  10.390   2.342 -0.4559  0.0029 -0.5482
39699SOL     OW21103   1.884   4.679   3.438 -0.4343  0.3930 -0.1306
39699SOL    HW121104   1.898   4.601   3.493  2.6381  0.3819 -0.7254
39699SOL    HW221105   1.890   4.752   3.499  0.4877  0.2796 -0.0660
39700SOL     OW21106   9.220   4.124   8.316 -0.4174 -0.1955  0.1778
39700SOL    HW121107   9.276   4.137   8.392 -0.4738 -2.5980  0.7420
39700SOL    HW221108   9.178   4.208   8.301  0.7624  0.7369  1.8557
39701SOL     OW21109   2.658   0.642   5.204 -0.3884 -0.0128  0.3347
39701SOL    HW121110   2.674   0.614   5.114  0.1554  0.1999  0.3622
39701SOL    HW221111   2.565   0.662   5.207 -0.5801 -0.8430  0.0451
39702SOL     OW21112   8.314   6.046   1.509  0.4169  0.1381 -0.0332
39702SOL    HW121113   8.227   6.062   1.473  0.4735 -2.1917 -1.4066
39702SOL    HW221114   8.374   6.074   1.440  0.6651 -0.5717 -0.1123
39703SOL     OW21115   9.096   4.943  10.466  0.8038 -0.0241 -0.0055
39703SOL    HW121116   9.180   4.917  10.429  1.4080  0.9504  0.6482
39703SOL    HW221117   9.032   4.889  10.419  1.7311 -0.3556 -0.9357
39704SOL     OW21118   9.316   3.737   9.701 -0.4457 -0.5266  0.0211
39704SOL    HW121119   9.254   3.760   9.770 -1.2713 -0.1263 -0.8482
39704SOL    HW221120   9.400   3.772   9.732 -1.5228  3.4219 -1.0252
39705SOL     OW21121   6.706   0.776   0.315  0.1334 -0.2035 -0.3197
39705SOL    HW121122   6.704   0.732   0.400  0.8871  1.3736  0.5584
39705SOL    HW221123   6.787   0.747   0.274  1.0681  0.9962  0.6322
39706SOL     OW21124   2.218   6.672   1.636  0.2414 -0.5391 -0.1806
39706SOL    HW121125   2.295   6.655   1.583 -0.4126 -2.5979 -0.5378
39706SOL    HW221126   2.243   6.644   1.724 -0.1378 -1.3687 -0.3307
39707SOL     OW21127   0.420   3.232   2.985  0.0428 -0.1990 -0.4242
39707SOL    HW121128   0.465   3.272   2.910 -0.4718  1.0779 -0.0895
39707SOL    HW221129   0.476   3.253   3.060  0.8606 -1.9752 -0.4917
39708SOL     OW21130  10.066   6.066   1.093  0.0299  0.4508  0.0139
39708SOL    HW121131  10.146   6.111   1.119  0.6236 -0.3758 -0.3632
39708SOL    HW221132  10.094   6.000   1.030 -1.0163  0.4993 -0.5299
39709SOL     OW21133   8.618   4.092   5.752 -0.0090  0.0652 -0.9429
39709SOL    HW121134   8.607   4.069   5.659  0.1665  0.4253 -1.0553
39709SOL    HW221135   8.545   4.048   5.796 -2.8172  3.3591 -1.8301
39710SOL     OW21136  10.495   3.961   3.635  0.0794 -1.1603 -0.2590
39710SOL    HW121137  10.415   3.941   3.586  1.6249 -0.9255 -3.0894
39710SOL    HW221138  10.521   4.048   3.604  1.5049 -1.2682  0.5303
39711SOL     OW21139   8.837   3.626  11.070 -0.2092  0.1939  0.4370
39711SOL    HW121140   8.921   3.581  11.076  0.1068  0.8591  1.1335
39711SOL    HW221141   8.804   3.603  10.983  0.2861 -0.7659  0.4882
39712SOL     OW21142   0.195   8.635   8.794 -0.2602  0.2693  0.5184
39712SOL    HW121143   0.155   8.707   8.745 -1.0172 -1.4591 -1.5915
39712SOL    HW221144   0.278   8.670   8.826  1.0208  1.2186 -3.2859
39713SOL     OW21145   1.376  10.571  10.504 -0.5278 -0.0056 -0.1463
39713SOL    HW121146   1.286  10.603  10.515 -0.4314  1.6795 -3.1418
39713SOL    HW221147   1.370  10.477  10.521 -2.8702  0.0721 -0.1655
39714SOL     OW21148   1.315   4.806  10.648 -0.5134 -0.0460 -0.6614
39714SOL    HW121149   1.243   4.787  10.707 -0.1540 -1.6694 -0.6995
39714SOL    HW221150   1.316   4.733  10.586  1.4611 -0.3496 -0.3449
39715SOL     OW21151   4.677   3.342  10.426 -0.1597  0.1979 -0.5008
39715SOL    HW121152   4.764   3.319  10.460  0.8996  3.1920 -0.8273
39715SOL    HW221153   4.618   3.326  10.499  0.8858 -0.5861  0.2120
39716SOL     OW21154   3.744   3.024  10.088 -0.1813  0.2447 -0.2053
39716SOL    HW121155   3.732   2.957  10.021 -1.6517 -1.7055  1.8601
39716SOL    HW221156   3.836   3.019  10.112 -0.1040 -0.4829 -0.6469
39717SOL     OW21157   1.389   8.199   7.630 -0.5017  0.4072  0.2558
39717SOL    HW121158   1.447   8.272   7.653 -3.4104  2.8916  0.3080
39717SOL    HW221159   1.426   8.163   7.550  0.4491  2.7468 -0.4543
39718SOL     OW21160   9.095   7.684   9.588 -0.2710 -0.4079  0.5605
39718SOL    HW121161   9.067   7.735   9.664 -1.0433 -0.7066  0.4928
39718SOL    HW221162   9.090   7.745   9.514  0.2792 -0.1734  0.7154
39719SOL     OW21163   9.724   4.832   8.186 -0.1624  0.7572  0.1917
39719SOL    HW121164   9.665   4.757   8.173 -0.7335  0.5401  3.1593
39719SOL    HW221165   9.675   4.907   8.153 -0.5302  0.1268 -0.7467
39720SOL     OW21166   2.996   3.013   5.594 -0.7947 -0.8928 -0.0454
39720SOL    HW121167   3.072   3.060   5.558 -0.0412 -2.1881 -0.2305
39720SOL    HW221168   2.925   3.032   5.533  0.5116 -3.2534 -2.5350
39721SOL     OW21169   1.503   9.260   3.337  0.0323 -0.7728 -0.1548
39721SOL    HW121170   1.511   9.347   3.376  0.6679 -0.2297 -1.4756
39721SOL    HW221171   1.501   9.275   3.243  0.7169 -2.2221 -0.4334
39722SOL     OW21172   2.545   4.446   6.684 -0.1044 -0.6458  0.2039
39722SOL    HW121173   2.524   4.485   6.599 -0.1137  0.1168  0.5456
39722SOL    HW221174   2.499   4.501   6.747  2.3101  0.6473  0.9307
39723SOL     OW21175   9.738   5.250   7.813  0.3314 -0.6540 -0.0320
39723SOL    HW121176   9.734   5.177   7.751 -1.6296  0.2322 -1.0216
39723SOL    HW221177   9.775   5.322   7.763 -2.0321  0.3066 -0.5088
39724SOL     OW21178   1.343   3.473   2.464 -0.1831 -1.0127  0.1540
39724SOL    HW121179   1.366   3.389   2.504 -3.0541 -2.3478 -0.7743
39724SOL    HW221180   1.326   3.452   2.372  1.0312  1.0273 -0.6114
39725SOL     OW21181   8.611   7.174   2.695  0.4523 -0.6223 -0.0613
39725SOL    HW121182   8.604   7.263   2.661  0.6047 -0.8596 -0.7423
39725SOL    HW221183   8.567   7.120   2.629  0.0974 -1.0188  0.4897
39726SOL     OW21184  10.354   8.993   0.384 -0.2136 -0.0063 -0.4993
39726SOL    HW121185  10.391   9.038   0.460 -0.4795 -0.0045 -0.3690
39726SOL    HW221186  10.412   8.919   0.368  0.5932  0.7417 -1.1042
39727SOL     OW21187   7.657   8.037  10.361 -0.3748 -0.0104 -0.2673
39727SOL    HW121188   7.698   7.951  10.352  1.2196  0.6115  0.5942
39727SOL    HW221189   7.725   8.092  10.400 -1.5765  1.4766 -0.1637
39728SOL     OW21190   0.548   5.505  10.775 -0.1838  0.1361  0.6386
39728SOL    HW121191   0.501   5.435  10.730 -0.7883  0.4787  0.7228
39728SOL    HW221192   0.484   5.541  10.837 -0.1373  1.2831  0.0402
39729SOL     OW21193   6.377   1.128   8.015  0.2778 -0.3920 -0.2211
39729SOL    HW121194   6.351   1.037   7.999 -0.7376 -0.2089  0.3132
39729SOL    HW221195   6.366   1.139   8.110 -0.8111  0.6453 -0.4503
39730SOL     OW21196   9.555   4.972   5.699  0.3300 -0.0366 -0.0183
39730SOL    HW121197   9.537   4.924   5.618  1.0730 -0.3953  0.0144
39730SOL    HW221198   9.502   5.051   5.693 -0.4124 -0.5536 -0.3797
39731SOL     OW21199   2.610   0.976   2.506  0.5517 -0.3036 -0.1358
39731SOL    HW121200   2.662   0.901   2.478  0.8626  0.1348 -0.7396
39731SOL    HW221201   2.558   0.943   2.579  0.8967 -1.0295 -0.2140
39732SOL     OW21202   6.067   9.790   7.483  0.0914 -0.4976 -0.0556
39732SOL    HW121203   6.113   9.786   7.399  0.4489 -0.1628  0.1164
39732SOL    HW221204   5.996   9.852   7.468 -0.3740 -1.0922 -0.3516
39733SOL     OW21205   8.465   3.911   8.187  0.5261  0.5032 -0.1899
39733SOL    HW121206   8.424   3.834   8.147  2.5748 -0.5295 -0.4626
39733SOL    HW221207   8.514   3.952   8.115  1.2492  0.7639  0.4321
39734SOL     OW21208  10.059   7.493   3.305 -0.5529  0.0680 -0.4023
39734SOL    HW121209  10.056   7.486   3.401 -0.1365  1.1549 -0.2964
39734SOL    HW221210  10.066   7.587   3.288  2.0648 -0.2293 -1.4003
39735SOL     OW21211   4.795   8.994   2.531  0.4310  0.2461 -0.2988
39735SOL    HW121212   4.834   9.073   2.568  0.9290 -1.0054  1.9739
39735SOL    HW221213   4.711   9.025   2.494  1.3362  2.0829 -0.9732
39736SOL     OW21214  10.488   4.549   1.064 -0.1673  0.1362  0.6888
39736SOL    HW121215  10.545   4.475   1.085 -0.1009  0.3484  1.2821
39736SOL    HW221216  10.519   4.620   1.120 -0.8425  0.3360  0.8229
39737SOL     OW21217   9.099   6.602  10.020  0.1401  0.1861 -0.5685
39737SOL    HW121218   9.188   6.595   9.986  0.3967  2.1382 -0.4146
39737SOL    HW221219   9.107   6.581  10.113  0.3794  0.0732 -0.6141
39738SOL     OW21220   4.107   0.383   1.319 -0.2070  0.3576  0.0964
39738SOL    HW121221   4.175   0.355   1.380  0.2461  1.0116 -0.0931
39738SOL    HW221222   4.125   0.333   1.239  1.1603  1.7948 -0.5486
39739SOL     OW21223   2.727   4.521   9.869  0.0816 -0.0810 -0.5764
39739SOL    HW121224   2.763   4.497   9.954  1.6441  0.1807 -1.1251
39739SOL    HW221225   2.635   4.495   9.873  0.1842 -0.2704  1.1014
39740SOL     OW21226   8.496   9.499   4.890  0.0911 -0.0873  0.2691
39740SOL    HW121227   8.568   9.562   4.880 -0.6693  0.6767 -0.5785
39740SOL    HW221228   8.536   9.414   4.873  0.6190  0.4043 -1.1086
39741SOL     OW21229   2.440   6.131   6.097 -0.0356 -0.2677 -0.0450
39741SOL    HW121230   2.535   6.126   6.084  0.1766  0.1992  1.1965
39741SOL    HW221231   2.420   6.224   6.085  0.2406  0.2977  3.0022
39742SOL     OW21232   2.972   3.125   5.183 -0.0481 -0.4607  0.7554
39742SOL    HW121233   3.025   3.046   5.175  0.1809 -0.2567  0.1827
39742SOL    HW221234   3.031   3.188   5.225 -0.5528 -0.8840  2.1420
39743SOL     OW21235   9.929   5.881   9.241  0.0452 -0.1356 -0.2828
39743SOL    HW121236   9.988   5.813   9.206 -0.2813 -0.4836 -0.1583
39743SOL    HW221237   9.898   5.845   9.324 -0.0439  0.2184 -0.1632
39744SOL     OW21238   2.951   2.185   9.903  0.3266  0.0339 -0.2797
39744SOL    HW121239   3.039   2.200   9.938  1.1807 -0.9005 -1.9107
39744SOL    HW221240   2.932   2.093   9.924 -0.1074  0.1290 -0.2533
39745SOL     OW21241   2.625   3.407  10.365 -0.0656 -0.3405  0.4294
39745SOL    HW121242   2.539   3.410  10.406  0.3094  0.2899  1.1888
39745SOL    HW221243   2.612   3.354  10.286 -0.8011 -1.5564  1.3412
39746SOL     OW21244   4.521   4.827   9.321  0.5350 -0.1699 -0.0769
39746SOL    HW121245   4.428   4.843   9.337  0.8667  0.0749  1.8690
39746SOL    HW221246   4.523   4.753   9.261 -0.9103  0.4669 -0.9693
39747SOL     OW21247   7.580   9.875   6.558 -0.0863  0.4410  0.8073
39747SOL    HW121248   7.496   9.836   6.580  0.0804  0.0170  0.6975
39747SOL    HW221249   7.562   9.969   6.553 -0.5045  0.3752  0.9954
39748SOL     OW21250   8.809   3.065   3.644  1.2905  0.1874 -0.0989
39748SOL    HW121251   8.721   3.101   3.661  1.5605  2.2174 -2.3666
39748SOL    HW221252   8.794   2.993   3.583  0.9916 -1.9202  2.3007
39749SOL     OW21253  10.226  11.076   4.816 -0.1277  0.2380 -0.2098
39749SOL    HW121254  10.141  11.078   4.772  0.6676 -1.2386 -1.9989
39749SOL    HW221255  10.290  11.089   4.745  1.1588  1.4377  1.1040
39750SOL     OW21256   4.982   1.172   8.629  0.0062  0.3151 -0.2144
39750SOL    HW121257   4.962   1.107   8.561  0.0523 -0.2986  0.3413
39750SOL    HW221258   5.075   1.162   8.646 -0.1088  0.0873  0.3121
39751SOL     OW21259   6.872   5.020   1.439  0.1771  0.2753 -0.1081
39751SOL    HW121260   6.909   5.031   1.527 -1.4507 -0.0488  0.6605
39751SOL    HW221261   6.909   5.093   1.389 -1.2737  2.4075  1.7262
39752SOL     OW21262   5.016   6.924   2.433 -0.6044 -0.2072  0.2534
39752SOL    HW121263   5.016   6.916   2.338  3.3855  1.4607 -0.0746
39752SOL    HW221264   5.062   6.847   2.464 -0.1233  0.2216  0.6270
39753SOL     OW21265   0.623   1.976   0.210  0.1782 -0.1902  0.5944
39753SOL    HW121266   0.718   1.973   0.200  0.1716  0.5415  0.2983
39753SOL    HW221267   0.590   2.002   0.124 -0.2523  0.0897  0.8406
39754SOL     OW21268   9.124   6.087  10.054  0.1998 -0.3654  0.6613
39754SOL    HW121269   9.210   6.128  10.050  0.3285 -0.3700  2.3829
39754SOL    HW221270   9.111   6.068  10.147 -1.5417 -0.6406  0.4020
39755SOL     OW21271   0.457   3.057   6.800  0.2277 -0.3808 -0.1891
39755SOL    HW121272   0.533   3.010   6.766  0.2158 -1.2898  0.9912
39755SOL    HW221273   0.430   3.008   6.878  0.3531  1.6636  1.2503
39756SOL     OW21274   0.753   1.744   5.732 -0.0254 -0.5205  0.2787
39756SOL    HW121275   0.679   1.793   5.698 -0.1604 -0.3244  0.8362
39756SOL    HW221276   0.821   1.810   5.747  0.1773 -0.6639 -0.0095
39757SOL     OW21277   9.002   9.662   8.012  0.4270  0.2610  0.3300
39757SOL    HW121278   8.963   9.662   8.099 -1.4926  0.7003 -0.4856
39757SOL    HW221279   9.062   9.586   8.012 -0.6105 -0.5922  1.5590
39758SOL     OW21280   0.218  10.452   1.443 -0.8333  0.0970 -0.1373
39758SOL    HW121281   0.204  10.518   1.511  0.9854 -0.5975  0.9805
39758SOL    HW221282   0.210  10.368   1.490 -0.7129 -0.4304 -1.0380
39759SOL     OW21283  10.987   6.233  10.198 -0.1513  0.0437  0.2563
39759SOL    HW121284  10.946   6.149  10.177 -1.3440  0.7649 -0.3435
39759SOL    HW221285  10.923   6.299  10.174  0.1820  1.1065  2.0716
39760SOL     OW21286  10.528   1.336   3.117  0.7477  0.0435  0.2818
39760SOL    HW121287  10.445   1.309   3.078 -0.5185  2.8224  0.7855
39760SOL    HW221288  10.505   1.359   3.207  1.9741  1.2769  0.3070
39761SOL     OW21289   2.866   8.800  10.325 -0.0601 -0.2043  0.7218
39761SOL    HW121290   2.952   8.759  10.334 -1.0497 -2.8853 -0.6904
39761SOL    HW221291   2.847   8.795  10.232 -2.3939 -1.2404  1.1887
39762SOL     OW21292   2.537   3.224   6.780  0.7598 -0.0783  0.1102
39762SOL    HW121293   2.489   3.274   6.845  0.2029 -0.1713 -0.2211
39762SOL    HW221294   2.606   3.283   6.750  0.1373  0.4891 -0.2409
39763SOL     OW21295   9.838   5.586   4.968 -0.1260 -0.4125 -0.4052
39763SOL    HW121296   9.820   5.678   4.947  0.8789 -0.0087  0.4408
39763SOL    HW221297   9.930   5.585   4.995 -0.2011 -1.6221 -0.1571
39764SOL     OW21298   1.849   7.761   6.207 -0.2095  0.4098 -0.0038
39764SOL    HW121299   1.758   7.745   6.182  0.0251 -0.6040 -0.2420
39764SOL    HW221300   1.892   7.676   6.198 -0.1308 -0.1540  4.0117
39765SOL     OW21301   9.813   1.421   0.688 -0.1007 -0.2368 -0.5455
39765SOL    HW121302   9.876   1.473   0.737 -0.8462 -1.0275  1.3856
39765SOL    HW221303   9.819   1.453   0.598  1.7679  0.8907 -0.0720
39766SOL     OW21304   9.746   2.973   9.331 -0.3414  0.0951  0.1618
39766SOL    HW121305   9.747   3.067   9.351  0.6032  0.3792 -1.0675
39766SOL    HW221306   9.696   2.967   9.249 -0.6934 -0.5219  0.4174
39767SOL     OW21307   2.317   8.214   8.422 -0.8866  0.0023 -0.6806
39767SOL    HW121308   2.400   8.167   8.410 -0.3888  1.3003 -2.7125
39767SOL    HW221309   2.255   8.170   8.364 -1.5530 -0.6677  0.4869
39768SOL     OW21310   8.964   3.580   5.093  0.0918  0.2560 -0.0823
39768SOL    HW121311   8.980   3.646   5.161  1.0506  0.5581 -0.5706
39768SOL    HW221312   9.052   3.551   5.067 -0.1746  0.9935 -1.9941
39769SOL     OW21313   1.680   0.847   8.733  0.0163  0.0381  0.1618
39769SOL    HW121314   1.701   0.935   8.702  1.7535 -0.8344 -1.3503
39769SOL    HW221315   1.703   0.847   8.826  1.8439  0.6817 -0.2481
39770SOL     OW21316  11.037   2.283   0.792  0.2239  0.3767 -0.3055
39770SOL    HW121317  11.129   2.287   0.819 -0.2829 -0.0564  1.5585
39770SOL    HW221318  10.990   2.253   0.869 -1.2433 -1.5459 -1.8602
39771SOL     OW21319   8.139   9.144   8.987 -0.1964 -0.5231 -0.3728
39771SOL    HW121320   8.073   9.090   8.944  0.8010 -1.6831 -0.5027
39771SOL    HW221321   8.215   9.140   8.928  0.1363  0.4444 -0.0280
39772SOL     OW21322   5.528   0.215   1.513  0.0209 -0.3108  0.6198
39772SOL    HW121323   5.572   0.158   1.450  0.9939  0.4901  0.5483
39772SOL    HW221324   5.436   0.213   1.487  0.1713 -1.2008  0.1253
39773SOL     OW21325   8.304   7.359   2.475  0.2798 -0.4499  0.1842
39773SOL    HW121326   8.341   7.281   2.515 -0.3754 -0.4039  0.9125
39773SOL    HW221327   8.258   7.327   2.397 -0.9002 -0.9730  1.0513
39774SOL     OW21328   2.802   5.008   9.588 -0.5535  0.1679 -0.5323
39774SOL    HW121329   2.845   5.029   9.672 -1.0474 -0.1192 -0.2023
39774SOL    HW221330   2.764   5.091   9.559 -2.5810 -0.2197  0.8125
39775SOL     OW21331   5.503   6.729   2.267 -0.1053  0.8068  0.1853
39775SOL    HW121332   5.519   6.766   2.354  0.1430 -1.5353  1.2031
39775SOL    HW221333   5.504   6.635   2.280 -2.6025  0.3542 -1.9057
39776SOL     OW21334   6.231   7.313   1.002 -0.5656 -0.2066 -0.0242
39776SOL    HW121335   6.314   7.312   0.955 -0.0270  1.0350  0.8358
39776SOL    HW221336   6.166   7.337   0.936 -0.0442  0.0834 -0.4434
39777SOL     OW21337   0.889   5.336   9.194  0.2618  0.2568 -0.4999
39777SOL    HW121338   0.938   5.256   9.176 -1.4831 -0.5270 -2.1765
39777SOL    HW221339   0.885   5.341   9.289  1.5770 -0.8798 -0.3466
39778SOL     OW21340   6.752   5.380   8.624  0.3222  0.4263  0.2369
39778SOL    HW121341   6.763   5.396   8.718 -0.1064  0.0139  0.3607
39778SOL    HW221342   6.662   5.407   8.606 -0.1469 -1.0464  0.2867
39779SOL     OW21343   9.824   0.365   2.933 -0.2782  0.0534 -0.0797
39779SOL    HW121344   9.875   0.284   2.925  0.9194  0.5943  1.6187
39779SOL    HW221345   9.748   0.350   2.876 -1.8124 -3.5580  2.4921
39780SOL     OW21346   7.494   2.316   0.047 -0.1876 -0.6204  0.6455
39780SOL    HW121347   7.574   2.264   0.050  0.4356 -0.0581 -2.6343
39780SOL    HW221348   7.524   2.406   0.061 -0.1583 -0.3871 -0.7741
39781SOL     OW21349   0.139   2.479   2.572 -0.2213 -0.1941  0.5546
39781SOL    HW121350   0.149   2.387   2.594  0.6337  0.0069  1.0705
39781SOL    HW221351   0.210   2.497   2.510 -0.9109 -0.0779 -0.2275
39782SOL     OW21352   3.842   4.640   5.402 -0.1023 -0.7191  0.2098
39782SOL    HW121353   3.889   4.628   5.484 -1.1454 -3.1093  0.5364
39782SOL    HW221354   3.841   4.735   5.389  1.8450 -0.4031  1.8770
39783SOL     OW21355   4.181   3.250   0.097 -0.0106 -0.1547  0.1028
39783SOL    HW121356   4.272   3.279   0.089 -0.6778  1.8163 -1.4776
39783SOL    HW221357   4.148   3.293   0.176  0.5887 -1.3900  1.0339
39784SOL     OW21358   0.906   8.169   9.712 -0.6320  0.4874 -0.0876
39784SOL    HW121359   0.944   8.231   9.649  0.1962 -1.3791 -1.5178
39784SOL    HW221360   0.893   8.089   9.662  1.4601 -1.6067  2.4239
39785SOL     OW21361   8.605   5.264   8.636  0.3142  0.1276  0.4107
39785SOL    HW121362   8.548   5.322   8.587 -0.8246  0.4751  2.0634
39785SOL    HW221363   8.594   5.291   8.727  0.2529 -2.2136  1.1722
39786SOL     OW21364   1.619   2.070   0.506  0.7209 -0.0605  0.0007
39786SOL    HW121365   1.692   2.010   0.491 -0.1844 -0.9444 -1.0585
39786SOL    HW221366   1.626   2.135   0.436 -0.7274 -1.4025 -1.4460
39787SOL     OW21367   1.484   2.704   2.600  0.0364 -0.2951 -0.1641
39787SOL    HW121368   1.576   2.676   2.594  0.3128  0.2253  1.1937
39787SOL    HW221369   1.448   2.653   2.673 -1.1362 -1.4192 -1.4765
39788SOL     OW21370   4.270   8.982   0.551 -0.5113 -0.0110  0.3090
39788SOL    HW121371   4.345   8.923   0.540 -0.8765 -0.4552  0.1653
39788SOL    HW221372   4.296   9.062   0.507 -0.0203 -0.0702  0.4765
39789SOL     OW21373  10.711   4.763   8.884  0.4820  0.6914 -0.3127
39789SOL    HW121374  10.620   4.757   8.853 -0.0566  2.1520  0.8457
39789SOL    HW221375  10.713   4.843   8.935  2.0216 -0.1876  1.0884
39790SOL     OW21376   5.394   4.922   9.702  0.0895 -0.2175 -0.2628
39790SOL    HW121377   5.315   4.908   9.755 -0.1725 -0.0866 -0.6151
39790SOL    HW221378   5.461   4.947   9.765 -0.6372  1.6302 -0.1529
39791SOL     OW21379   1.360   6.902   0.567 -0.3821 -0.2209 -0.3431
39791SOL    HW121380   1.365   6.980   0.512  0.7917  0.1803  0.2947
39791SOL    HW221381   1.337   6.831   0.507 -0.0589  0.3656 -1.1720
39792SOL     OW21382  10.126   4.931   8.455  0.0455  0.3184  0.0905
39792SOL    HW121383  10.096   5.013   8.495  0.1732  0.6569 -0.4853
39792SOL    HW221384  10.097   4.938   8.364  2.3151  0.9187 -0.6538
39793SOL     OW21385   7.621   1.419   5.967 -0.3036 -0.1882  0.4529
39793SOL    HW121386   7.565   1.428   6.045  0.8122  0.6782  1.1761
39793SOL    HW221387   7.574   1.466   5.899 -0.9809 -0.3975  0.7603
39794SOL     OW21388   7.195   5.789   8.149  0.5694 -0.1641 -0.0422
39794SOL    HW121389   7.261   5.856   8.167 -1.3409  2.0457 -0.8613
39794SOL    HW221390   7.155   5.772   8.235  0.7598  0.0752  0.0960
39795SOL     OW21391   4.643   4.452  10.253  0.0006  0.9836  0.4099
39795SOL    HW121392   4.691   4.477  10.174 -0.9798 -0.9308 -0.8768
39795SOL    HW221393   4.552   4.449  10.226 -0.4748  1.1617  1.8884
39796SOL     OW21394   2.765   3.573   6.113  0.3971  0.0014  0.0383
39796SOL    HW121395   2.752   3.590   6.206  1.2777 -0.7616  0.3207
39796SOL    HW221396   2.804   3.653   6.079  1.0753 -0.0934  0.5641
39797SOL     OW21397   9.820   6.896   6.917  1.0212  0.2864 -0.0458
39797SOL    HW121398   9.730   6.906   6.947  0.1741 -1.5936 -1.6826
39797SOL    HW221399   9.862   6.978   6.940 -1.2371  1.4212  0.3509
39798SOL     OW21400  10.982   1.698   8.051 -0.0144  0.5588  0.3616
39798SOL    HW121401  10.925   1.633   8.092  0.8862  0.4267  1.4558
39798SOL    HW221402  10.963   1.691   7.957 -2.1315  0.8701  0.7292
39799SOL     OW21403   0.806   4.217   9.167  0.3430 -0.6227  0.0697
39799SOL    HW121404   0.878   4.278   9.176  0.1851 -0.5906  1.1746
39799SOL    HW221405   0.846   4.138   9.129  0.7261 -0.1970 -0.4236
39800SOL     OW21406  10.013   0.927   7.110  0.6432  0.2272  0.4989
39800SOL    HW121407  10.099   0.905   7.147  1.0940 -1.6837 -1.4902
39800SOL    HW221408   9.952   0.871   7.157  1.1643 -1.9042 -1.2142
39801SOL     OW21409  10.399   5.986   0.961  0.0418 -0.5184 -0.0257
39801SOL    HW121410  10.450   5.913   0.998  1.2201  0.3826  0.1776
39801SOL    HW221411  10.367   5.953   0.877  2.7185 -0.4492 -1.1677
39802SOL     OW21412  10.696   0.742   5.387  0.5000 -0.1145  0.8087
39802SOL    HW121413  10.653   0.730   5.302  1.7537 -2.1138  0.3865
39802SOL    HW221414  10.627   0.776   5.444 -0.1075  2.3312 -1.2285
39803SOL     OW21415   1.615   2.893   7.486  0.5596 -0.0602  0.6663
39803SOL    HW121416   1.570   2.956   7.541  0.1470  0.0745  0.1879
39803SOL    HW221417   1.549   2.867   7.421  0.3823 -1.7720  1.4784
39804SOL     OW21418   3.465   5.621   5.446  0.2005 -0.2835 -0.0926
39804SOL    HW121419   3.426   5.704   5.474 -0.4334 -1.0287  1.3106
39804SOL    HW221420   3.532   5.603   5.512  0.9579 -0.4540 -0.8973
39805SOL     OW21421  10.702   3.171   8.871  0.5265  0.2014  0.3762
39805SOL    HW121422  10.768   3.240   8.877  0.2975  0.5198 -0.6249
39805SOL    HW221423  10.626   3.214   8.834 -0.9950  0.3475  3.3343
39806SOL     OW21424   5.137  10.972   8.864 -0.1054  0.0982  0.8719
39806SOL    HW121425   5.048  10.992   8.894 -0.4060 -0.4429  0.3809
39806SOL    HW221426   5.142  10.876   8.869  0.7198  0.1638  1.6189
39807SOL     OW21427   2.747   7.404   7.919 -0.0594  0.2869 -0.3214
39807SOL    HW121428   2.808   7.402   7.846  0.3933 -0.2949  0.0647
39807SOL    HW221429   2.765   7.324   7.968 -0.2214  0.7560  0.5315
39808SOL     OW21430   1.607   1.404   6.796  0.0755  0.1581  0.1042
39808SOL    HW121431   1.600   1.471   6.728 -0.9391  2.6592  2.4466
39808SOL    HW221432   1.698   1.375   6.794  0.0705  0.1817 -2.2167
39809SOL     OW21433   3.121   3.362   9.541  0.0192 -0.1111  0.9755
39809SOL    HW121434   3.068   3.441   9.537 -1.8582 -1.3196  0.2783
39809SOL    HW221435   3.073   3.304   9.601 -0.9979 -2.2303 -1.6527
39810SOL     OW21436   7.719   1.758   0.880  0.6128 -0.1768 -0.1985
39810SOL    HW121437   7.647   1.739   0.940  1.3135  0.0087  0.7329
39810SOL    HW221438   7.714   1.689   0.814 -0.1086 -0.4605  0.1421
39811SOL     OW21439   8.203   3.493   2.623  0.3452  0.0691  0.0941
39811SOL    HW121440   8.193   3.398   2.616  0.6906 -0.0225  0.7172
39811SOL    HW221441   8.157   3.516   2.704 -0.2976  0.5303 -0.3902
39812SOL     OW21442   1.510   1.080   5.597 -0.4365 -0.7844 -0.0196
39812SOL    HW121443   1.590   1.064   5.548  1.1113 -2.1809  2.7163
39812SOL    HW221444   1.460   0.998   5.588  0.5629 -1.6628  1.8204
39813SOL     OW21445   0.761   4.058  10.132  0.5674  0.3679  0.3727
39813SOL    HW121446   0.671   4.050  10.100  0.2614  0.9065  1.0855
39813SOL    HW221447   0.804   4.114  10.068  0.7391 -0.8625 -0.6319
39814SOL     OW21448   0.757   3.066   2.017 -0.1774  0.3024 -0.1365
39814SOL    HW121449   0.671   3.025   2.016  1.0059 -2.4213  0.6224
39814SOL    HW221450   0.761   3.110   2.102 -1.4574  2.1674 -0.9597
39815SOL     OW21451   2.315   1.330   9.567 -0.3826  0.4023 -0.2634
39815SOL    HW121452   2.350   1.312   9.480 -0.2716 -0.8581  0.0286
39815SOL    HW221453   2.260   1.255   9.587  0.3751  0.2023  1.1522
39816SOL     OW21454   0.471   6.233   9.880 -0.5059 -0.1222  0.3284
39816SOL    HW121455   0.542   6.247   9.943  0.9752 -1.5155 -0.9349
39816SOL    HW221456   0.392   6.265   9.924  0.8537  1.1855  1.9020
39817SOL     OW21457   0.626   1.654   7.081 -0.0606 -0.3412  0.2450
39817SOL    HW121458   0.591   1.742   7.097 -0.6900 -0.5461  0.0329
39817SOL    HW221459   0.603   1.604   7.159 -0.2977 -0.4921  0.0807
39818SOL     OW21460  10.017   4.396   4.658 -0.1822  0.9167 -0.3722
39818SOL    HW121461   9.948   4.415   4.722 -0.4008  1.0423 -0.6426
39818SOL    HW221462   9.996   4.308   4.626  1.2728 -0.1729  1.4584
39819SOL     OW21463   3.204   5.388   9.485 -0.4214  0.3517 -0.4345
39819SOL    HW121464   3.198   5.480   9.458 -2.1806  1.3474  2.8282
39819SOL    HW221465   3.120   5.369   9.527  1.1651 -1.5624  2.2154
39820SOL     OW21466   6.114   4.900   5.790  0.0629 -0.1445 -0.1114
39820SOL    HW121467   6.123   4.996   5.796 -2.0947  0.2725 -2.0708
39820SOL    HW221468   6.087   4.873   5.878  1.2702  0.9200  0.6339
39821SOL     OW21469   4.878   6.790   0.323 -0.4620 -0.4986  0.7142
39821SOL    HW121470   4.903   6.879   0.348 -0.2635 -0.4291  0.2654
39821SOL    HW221471   4.960   6.741   0.324 -0.2724 -0.2635 -0.7925
39822SOL     OW21472   9.493   8.782   7.715 -0.4978  0.0867 -0.3152
39822SOL    HW121473   9.420   8.782   7.654  0.0863  1.9177 -1.0750
39822SOL    HW221474   9.548   8.856   7.688  1.6241 -1.1765  0.2528
39823SOL     OW21475   9.219   4.652   1.819 -0.3123  0.0798 -0.6059
39823SOL    HW121476   9.303   4.682   1.785  0.1702 -1.4086 -0.7901
39823SOL    HW221477   9.215   4.559   1.795 -1.6409 -0.0752  0.1208
39824SOL     OW21478   1.788   6.909   4.507 -0.1866  0.2230 -0.0768
39824SOL    HW121479   1.783   6.849   4.433 -1.0877 -1.6747  1.4406
39824SOL    HW221480   1.875   6.894   4.544 -0.2828  0.0982  0.1003
39825SOL     OW21481  10.007   5.049   7.836  0.1361  0.3784 -0.0705
39825SOL    HW121482   9.959   5.131   7.829  0.5929  0.7175  0.6652
39825SOL    HW221483  10.094   5.069   7.802  0.5835  0.5026  1.1036
39826SOL     OW21484   9.300   4.939   6.048 -0.3063 -0.0459  0.1291
39826SOL    HW121485   9.227   4.937   5.986  0.4195 -1.8108 -0.7366
39826SOL    HW221486   9.270   4.996   6.119 -1.0824  2.2639 -1.9080
39827SOL     OW21487   7.158   3.832   9.996  0.2923  0.6049  0.2614
39827SOL    HW121488   7.098   3.797  10.062  0.2270 -0.1195 -0.1696
39827SOL    HW221489   7.103   3.845   9.919  0.0573  2.7399  0.7024
39828SOL     OW21490   3.144   6.017   1.038  0.1728  0.5393 -0.0348
39828SOL    HW121491   3.131   6.044   1.129  1.3562 -0.5908  0.5141
39828SOL    HW221492   3.071   5.958   1.020  0.8391 -0.5984  0.8005
39829SOL     OW21493  10.920  10.910   1.706 -0.8175 -0.2024  0.2048
39829SOL    HW121494  10.947  10.904   1.614 -0.2032  0.2688  0.3473
39829SOL    HW221495  10.869  10.830   1.721 -0.8915 -0.3034 -0.5313
39830SOL     OW21496   9.024   3.381   4.243  0.1378  0.0500 -0.0634
39830SOL    HW121497   8.943   3.337   4.268  0.8630 -1.3402 -0.0505
39830SOL    HW221498   8.998   3.445   4.176 -1.0263 -0.0035  0.3200
39831SOL     OW21499   0.287   2.404   0.927  0.3749  0.3399 -0.6488
39831SOL    HW121500   0.364   2.356   0.956 -0.6218 -0.6738  0.4597
39831SOL    HW221501   0.259   2.454   1.004 -0.3663  0.2640 -0.8550
39832SOL     OW21502  10.071   4.650   0.157 -0.4763 -0.4398  0.3102
39832SOL    HW121503  10.033   4.566   0.130  0.0606 -0.1107 -1.6320
39832SOL    HW221504  10.125   4.676   0.083 -0.7187  1.6944  0.8326
39833SOL     OW21505   8.750   6.509  10.431  0.4955  0.0524  0.4769
39833SOL    HW121506   8.729   6.517  10.338 -0.2943 -3.2604  0.2237
39833SOL    HW221507   8.706   6.584  10.472 -0.2786  0.8428 -1.6455
39834SOL     OW21508   8.663   5.519   3.075  0.3328 -0.2470 -0.3769
39834SOL    HW121509   8.661   5.615   3.080 -0.0016 -0.2476 -0.4292
39834SOL    HW221510   8.572   5.493   3.093  0.7072 -0.6283  1.0816
39835SOL     OW21511   9.220   1.087   9.661 -0.0856 -0.2286 -0.7358
39835SOL    HW121512   9.206   1.137   9.741 -1.9618 -1.2116 -0.4034
39835SOL    HW221513   9.140   1.101   9.610  1.1341  0.4914 -2.5237
39836SOL     OW21514   8.683   5.333   9.251  0.4245  0.2143  0.6975
39836SOL    HW121515   8.657   5.314   9.161  0.9185 -0.7733  0.7488
39836SOL    HW221516   8.600   5.343   9.298  0.1572 -0.0612  0.2885
39837SOL     OW21517   8.501   8.709  10.725 -0.0020  0.3568  0.0406
39837SOL    HW121518   8.517   8.663  10.642 -0.9922 -0.7210  0.4266
39837SOL    HW221519   8.509   8.641  10.792  1.5634  1.3614  0.9347
39838SOL     OW21520   5.565   6.003   8.490  0.0472 -1.3030 -0.3139
39838SOL    HW121521   5.557   6.081   8.545 -0.5632 -1.7339  0.2259
39838SOL    HW221522   5.641   6.020   8.434 -0.3863 -0.1029 -0.5654
39839SOL     OW21523   9.267   1.052   3.240  0.1401  0.1536 -0.3381
39839SOL    HW121524   9.260   1.125   3.301  0.2067 -1.2078  1.3507
39839SOL    HW221525   9.308   0.982   3.290  1.1904 -0.6977 -2.2543
39840SOL     OW21526   8.937   3.459   1.320 -0.1919  0.1312  0.1356
39840SOL    HW121527   8.860   3.403   1.315 -0.5893  0.7619 -1.1254
39840SOL    HW221528   8.965   3.452   1.411 -0.2756 -2.0204  0.0431
39841SOL     OW21529   9.934   9.341   4.634 -0.0059  0.2683  0.2463
39841SOL    HW121530  10.000   9.399   4.673  0.8160 -0.7236  0.3836
39841SOL    HW221531   9.949   9.350   4.540  1.0451 -0.7281  0.2980
39842SOL     OW21532   2.377   9.385  10.527 -0.2404  0.1366 -0.2536
39842SOL    HW121533   2.389   9.300  10.485  0.0413 -0.1283  0.3558
39842SOL    HW221534   2.300   9.422  10.484  0.7988  0.4543 -1.9172
39843SOL     OW21535   0.196   6.648   3.861 -0.2723 -0.5999  0.0997
39843SOL    HW121536   0.212   6.609   3.947  3.3291  1.0450  0.3517
39843SOL    HW221537   0.236   6.587   3.799  0.4945  0.0048 -0.0146
39844SOL     OW21538   0.185   4.987  11.045 -0.5029 -0.5423  0.4879
39844SOL    HW121539   0.218   5.076  11.058 -1.1603  0.1408 -2.0260
39844SOL    HW221540   0.096   4.989  11.080 -0.6147 -0.1304  0.1820
39845SOL     OW21541  10.060   1.547   6.072  0.4777  0.1798  0.4424
39845SOL    HW121542  10.107   1.464   6.070  1.0992  0.5066 -2.0229
39845SOL    HW221543   9.983   1.530   6.125  0.1861 -2.2210 -0.6110
39846SOL     OW21544   1.847   1.527   2.338  0.1457 -0.1486  0.0499
39846SOL    HW121545   1.925   1.514   2.393  0.0288 -1.6816 -0.1034
39846SOL    HW221546   1.804   1.604   2.376  0.9735 -0.1369  1.0247
39847SOL     OW21547   9.710   7.968   2.376  0.3246 -0.8822 -0.2769
39847SOL    HW121548   9.748   8.004   2.296 -0.9225 -0.5249 -0.7180
39847SOL    HW221549   9.700   8.044   2.434 -1.4633 -0.6336 -0.8717
39848SOL     OW21550   8.745   5.734   8.167 -0.2893 -0.1618  0.0454
39848SOL    HW121551   8.770   5.666   8.229 -1.5395  0.9141  1.8204
39848SOL    HW221552   8.783   5.705   8.084 -0.5583 -2.8771  0.7576
39849SOL     OW21553  10.364   8.975   3.530 -0.5214 -0.0035 -0.3421
39849SOL    HW121554  10.425   9.035   3.574 -0.3742 -0.4196  0.0229
39849SOL    HW221555  10.278   8.997   3.565 -0.5349  0.3031 -0.5534
39850SOL     OW21556   6.982   2.566   9.975 -0.0510 -0.6011 -0.3556
39850SOL    HW121557   6.947   2.619  10.047  1.7783 -0.8280  0.7515
39850SOL    HW221558   7.076   2.584   9.975  0.4299 -2.8091 -0.8108
39851SOL     OW21559  10.332   2.045   1.324  0.4486  0.3924 -0.3497
39851SOL    HW121560  10.284   2.021   1.403  0.7176 -0.7984 -0.5196
39851SOL    HW221561  10.264   2.051   1.256 -0.2001  4.0939  0.4076
39852SOL     OW21562   0.868   6.690  10.499 -0.0509 -0.4234 -0.2924
39852SOL    HW121563   0.872   6.762  10.562  1.0121  0.9696 -1.8777
39852SOL    HW221564   0.788   6.706  10.449 -0.1873 -0.7596 -0.1854
39853SOL     OW21565   6.571   0.272   6.734 -0.4821  0.2709 -0.4753
39853SOL    HW121566   6.500   0.271   6.798  0.8899  0.2697  1.1181
39853SOL    HW221567   6.586   0.365   6.716 -1.6830  0.2402 -1.7934
39854SOL     OW21568   7.519   2.909   0.524  0.2629 -0.4319 -0.7541
39854SOL    HW121569   7.434   2.916   0.569  0.5671  0.8357 -0.3631
39854SOL    HW221570   7.583   2.934   0.590  0.9632 -1.3469 -1.0645
39855SOL     OW21571   8.268   8.315   1.795 -0.4226 -0.3544  0.3283
39855SOL    HW121572   8.173   8.323   1.788 -0.3495 -0.2436 -0.5897
39855SOL    HW221573   8.302   8.366   1.722  0.3766  0.4187  1.2188
39856SOL     OW21574   3.516   1.017   6.455  0.1345 -0.1789 -0.9201
39856SOL    HW121575   3.470   1.021   6.371  1.3058 -1.4557 -1.6669
39856SOL    HW221576   3.461   1.067   6.515 -0.8291  0.6063 -2.3965
39857SOL     OW21577   8.421   5.139   2.994  0.1813 -0.6326  0.0756
39857SOL    HW121578   8.469   5.196   3.053  0.3526 -1.6053  0.9079
39857SOL    HW221579   8.448   5.050   3.019  1.0691 -1.0580 -2.1756
39858SOL     OW21580   0.924   5.276   1.108  0.3562  0.1566 -0.2023
39858SOL    HW121581   0.906   5.266   1.015 -2.2766 -0.7222  0.3231
39858SOL    HW221582   0.924   5.187   1.143  1.0298  0.4888  0.6893
39859SOL     OW21583   8.624   8.242   4.092 -0.2444 -0.1853 -0.0961
39859SOL    HW121584   8.641   8.229   4.185 -1.4942  0.1969  0.1917
39859SOL    HW221585   8.628   8.154   4.054  2.2817 -0.1690 -0.0776
39860SOL     OW21586   0.587  10.044   0.841  0.3633 -1.2778  0.2789
39860SOL    HW121587   0.669  10.068   0.883  0.3529 -1.3006  0.3123
39860SOL    HW221588   0.536  10.002   0.910 -0.4822  0.5373  0.8059
39861SOL     OW21589   3.089   2.824  10.605  0.0659 -0.4122  0.1011
39861SOL    HW121590   3.161   2.768  10.579 -0.6632 -1.0747 -0.5192
39861SOL    HW221591   3.070   2.877  10.528 -0.4492 -0.6026  0.0953
39862SOL     OW21592  10.532   7.063  10.705  0.2872 -0.3055  0.1596
39862SOL    HW121593  10.490   6.977  10.713  2.2840 -1.3605 -0.1060
39862SOL    HW221594  10.514   7.090  10.615 -0.9088 -0.1113  0.4395
39863SOL     OW21595   1.123   3.145   7.300 -0.2586  0.0712 -0.1856
39863SOL    HW121596   1.160   3.056   7.299 -0.8174 -0.1881 -1.9368
39863SOL    HW221597   1.030   3.132   7.285 -0.3667  0.9510 -0.3209
39864SOL     OW21598   2.877   0.821   4.022  0.2649  0.2320  0.0468
39864SOL    HW121599   2.912   0.758   3.959 -0.0389  0.2000 -0.0942
39864SOL    HW221600   2.954   0.865   4.058  0.4698 -0.1385  0.0600
39865SOL     OW21601   8.737   8.890   7.460 -0.1809  0.1882 -0.0582
39865SOL    HW121602   8.736   8.806   7.414  1.3793 -0.7338  1.4856
39865SOL    HW221603   8.694   8.873   7.544  2.6307  0.0931  1.4774
39866SOL     OW21604   5.447   6.077   8.953 -0.1612 -0.1036 -0.1115
39866SOL    HW121605   5.533   6.037   8.940  0.5038  1.2301 -0.0090
39866SOL    HW221606   5.426   6.061   9.045  0.5038  0.5210  0.1600
39867SOL     OW21607   9.496   4.844   6.594 -0.0920 -0.2752  0.0583
39867SOL    HW121608   9.578   4.801   6.619  0.8062 -0.1190 -2.3701
39867SOL    HW221609   9.522   4.912   6.532 -1.6821  2.5238  2.1892
39868SOL     OW21610   7.874   4.047   9.552 -0.3438  0.4865  0.8046
39868SOL    HW121611   7.874   4.031   9.646 -1.2052 -0.3059  0.6843
39868SOL    HW221612   7.888   3.960   9.513 -0.6868  0.6984  0.1918
39869SOL     OW21613   8.687   6.952   9.510 -0.6537  0.0891 -0.3636
39869SOL    HW121614   8.683   6.997   9.595 -0.0417 -2.1418  0.9399
39869SOL    HW221615   8.768   6.900   9.515 -1.3041 -1.1137 -1.7524
39870SOL     OW21616   2.202   5.341   2.710 -0.8176  0.9211 -0.6934
39870SOL    HW121617   2.119   5.378   2.740 -0.4041  2.6415 -1.5849
39870SOL    HW221618   2.187   5.321   2.617 -0.1794  1.4297 -0.9097
39871SOL     OW21619   5.494   6.988   6.686  0.6133  0.3342 -0.1487
39871SOL    HW121620   5.554   7.052   6.724  0.2386  0.4779  0.2037
39871SOL    HW221621   5.527   6.974   6.597  0.8400  0.8245 -0.1428
39872SOL     OW21622   5.737   1.076   2.644  0.0926  0.0277 -0.3672
39872SOL    HW121623   5.737   1.084   2.549  0.5848  0.3044 -0.3479
39872SOL    HW221624   5.769   0.987   2.660  0.6711  0.2181 -0.4484
39873SOL     OW21625  10.063   2.389   7.614  0.0411 -0.0216 -0.4536
39873SOL    HW121626  10.062   2.323   7.544 -2.9404 -0.0718 -0.4602
39873SOL    HW221627   9.981   2.375   7.662  1.7416  0.2784  2.8680
39874SOL     OW21628   8.692   2.045   3.429 -0.7269  0.0607  0.3123
39874SOL    HW121629   8.748   2.055   3.506 -1.3466  1.4129  0.6081
39874SOL    HW221630   8.654   2.131   3.415 -0.9042 -0.2389 -1.3101
39875SOL     OW21631   1.034   0.700   3.564 -0.4031  0.1202  0.1377
39875SOL    HW121632   1.006   0.633   3.628  1.2085 -0.6050  0.1215
39875SOL    HW221633   1.126   0.714   3.584  0.1222 -0.0781 -2.0003
39876SOL     OW21634   7.583  10.380   3.049 -0.1701 -0.1407 -0.4629
39876SOL    HW121635   7.678  10.389   3.055 -0.2867  0.8392  0.1461
39876SOL    HW221636   7.560  10.326   3.125 -0.1175 -0.1759 -0.4721
39877SOL     OW21637   9.183   3.834   0.950  0.2678 -0.3964  0.0023
39877SOL    HW121638   9.108   3.856   0.895 -0.0049 -0.9951  0.1280
39877SOL    HW221639   9.146   3.785   1.023  0.5763  0.7265  0.9384
39878SOL     OW21640   8.142   0.323   0.200  0.0084  0.1149  0.2379
39878SOL    HW121641   8.073   0.294   0.141 -0.9172 -0.7909  1.7135
39878SOL    HW221642   8.104   0.317   0.287  1.1789  1.8687  0.9306
39879SOL     OW21643   0.244   5.060   1.097  0.2629 -0.1304 -0.1017
39879SOL    HW121644   0.331   5.065   1.058  0.2936  0.0652 -0.0097
39879SOL    HW221645   0.260   5.032   1.187  0.4475  2.1259  0.6514
39880SOL     OW21646   1.749   5.154   5.387 -0.3795 -0.3439  0.1308
39880SOL    HW121647   1.713   5.121   5.305 -0.3663  1.4511 -0.6423
39880SOL    HW221648   1.692   5.227   5.412  2.4296  2.5214 -1.0824
39881SOL     OW21649   1.664   5.838   0.312  0.0896  0.4724  0.0992
39881SOL    HW121650   1.687   5.815   0.222  1.2336  0.4848  0.3746
39881SOL    HW221651   1.571   5.860   0.308 -0.2037 -0.8336 -0.8266
39882SOL     OW21652   9.434  10.314   8.588  0.4194  0.6014  0.5178
39882SOL    HW121653   9.365  10.381   8.596  0.5159  0.7575  0.0352
39882SOL    HW221654   9.482  10.338   8.509 -0.4792 -0.9112 -0.5316
39883SOL     OW21655   2.192  10.743   9.122  0.2204  0.4861  0.1774
39883SOL    HW121656   2.238  10.733   9.205 -2.9820  0.1932  2.0403
39883SOL    HW221657   2.209  10.834   9.096  1.4621  0.5036  0.9597
39884SOL     OW21658   7.532   6.775   0.563  0.0756 -0.1809  0.4302
39884SOL    HW121659   7.563   6.716   0.632 -0.7860  1.1446  2.0116
39884SOL    HW221660   7.458   6.822   0.603 -1.6232 -0.6206 -1.9896
39885SOL     OW21661   4.769  10.982   7.349  0.1446 -0.2471  0.1751
39885SOL    HW121662   4.804  11.031   7.274 -0.4127 -0.4237 -0.2117
39885SOL    HW221663   4.777  11.042   7.423  3.1884 -0.9804  0.5948
39886SOL     OW21664   1.115   4.804   0.598 -0.2411 -0.3557  0.3616
39886SOL    HW121665   1.125   4.851   0.515 -2.5426 -1.1645 -0.4433
39886SOL    HW221666   1.068   4.724   0.575 -1.6217 -0.2514  2.5301
39887SOL     OW21667   9.954   7.586  10.808  0.3904 -0.2230  0.2135
39887SOL    HW121668  10.036   7.574  10.761  0.1036 -1.9973  0.0851
39887SOL    HW221669   9.959   7.524  10.881 -0.4860  0.2398  0.6755
39888SOL     OW21670   2.710   3.934   1.453  0.3975 -0.5668  0.2391
39888SOL    HW121671   2.685   4.026   1.462 -0.6300 -0.9359  1.4977
39888SOL    HW221672   2.659   3.889   1.520  2.3491 -1.7872  0.9827
39889SOL     OW21673   9.943   3.619   5.327  0.3401 -0.6348 -0.6868
39889SOL    HW121674   9.951   3.528   5.356  1.1149 -0.6584 -0.9668
39889SOL    HW221675   9.937   3.670   5.408 -1.1658 -1.0146 -0.5294
39890SOL     OW21676   7.044   8.627   1.421  0.5299  0.0015 -0.1055
39890SOL    HW121677   7.018   8.714   1.390  0.7148  0.0281 -0.1858
39890SOL    HW221678   6.962   8.579   1.429  0.5355 -0.1945 -1.1840
39891SOL     OW21679   9.753   8.278   4.202 -0.3561 -0.4597  0.3345
39891SOL    HW121680   9.699   8.322   4.137 -1.7389 -3.1418 -0.4913
39891SOL    HW221681   9.838   8.320   4.196 -1.5161  1.9824 -0.3738
39892SOL     OW21682   9.011   1.970   8.291 -0.1300  0.2508  0.5869
39892SOL    HW121683   8.945   1.993   8.227 -1.1230 -0.7061  1.2343
39892SOL    HW221684   9.005   1.875   8.299  1.1352  0.1771  0.8595
39893SOL     OW21685   7.034   4.507   2.462 -0.1423 -0.1000 -0.3095
39893SOL    HW121686   6.990   4.522   2.546 -0.2435 -0.1386 -0.3560
39893SOL    HW221687   7.126   4.495   2.486  0.1015  1.4326 -0.3353
39894SOL     OW21688  10.335   4.400   3.145 -0.0487  0.0572 -0.1373
39894SOL    HW121689  10.329   4.467   3.077  1.2638 -0.0955 -0.4257
39894SOL    HW221690  10.350   4.448   3.226 -3.0729  0.3454  0.3500
39895SOL     OW21691   9.768   7.417  10.734 -0.4585  0.0003  0.6959
39895SOL    HW121692   9.715   7.440  10.657 -0.6676  1.3543  1.2099
39895SOL    HW221693   9.841   7.479  10.732  0.8400 -1.4806  0.3138
39896SOL     OW21694   7.595   4.852   6.276  0.1780 -0.5586 -0.0394
39896SOL    HW121695   7.586   4.759   6.295 -1.9349 -0.3981 -0.0549
39896SOL    HW221696   7.663   4.856   6.208  1.6961 -1.8680  1.3255
39897SOL     OW21697   9.599   8.729   5.097  0.3246  0.2934 -0.3737
39897SOL    HW121698   9.583   8.743   5.004 -1.7678 -0.7152 -0.2297
39897SOL    HW221699   9.533   8.783   5.141  0.0428 -0.6940  0.4507
39898SOL     OW21700   7.277   6.769   3.625 -0.0641 -0.3262  0.2493
39898SOL    HW121701   7.303   6.710   3.554 -4.4185 -0.6970 -1.3520
39898SOL    HW221702   7.258   6.852   3.582 -0.2231  0.2942  1.4649
39899SOL     OW21703  10.171   7.093   1.294 -0.4974 -0.5477  0.1721
39899SOL    HW121704  10.209   7.009   1.321 -0.0999 -0.0827  1.0760
39899SOL    HW221705  10.221   7.159   1.342 -0.3434  0.2645 -1.0408
39900SOL     OW21706   5.422   8.427   2.305 -0.1518  0.3172 -0.4655
39900SOL    HW121707   5.387   8.418   2.217 -2.0160 -2.3578  0.4346
39900SOL    HW221708   5.345   8.436   2.361  0.8598 -0.1908  1.0736
39901SOL     OW21709   8.113   8.035   7.893 -0.1555 -0.2147 -0.1621
39901SOL    HW121710   8.149   8.010   7.978  0.8979 -2.5449 -1.2230
39901SOL    HW221711   8.181   8.090   7.854  0.7881 -1.6972 -0.7059
39902SOL     OW21712   2.999   9.485   0.982  0.3335 -0.0593 -0.3770
39902SOL    HW121713   3.021   9.539   1.058  0.2352 -0.7366  0.1415
39902SOL    HW221714   3.082   9.472   0.937  0.6640 -0.9073  0.4504
39903SOL     OW21715   1.222   7.169   5.477  0.1642 -0.3458 -0.1030
39903SOL    HW121716   1.138   7.209   5.452 -0.6625 -1.0089  1.4689
39903SOL    HW221717   1.236   7.100   5.412  0.7471  1.3143 -1.8215
39904SOL     OW21718   7.241   5.270   7.243 -0.1746  0.3041  0.2820
39904SOL    HW121719   7.194   5.288   7.161 -0.3740  2.8156  0.8898
39904SOL    HW221720   7.308   5.206   7.219 -1.6041 -0.6724 -1.3543
39905SOL     OW21721   6.849   9.584   8.125  0.6356  0.1800 -0.0002
39905SOL    HW121722   6.870   9.560   8.035 -1.6929 -0.9585 -0.3315
39905SOL    HW221723   6.794   9.662   8.117 -0.5992 -0.6200  0.2801
39906SOL     OW21724  10.279   8.330   0.084 -0.0141  0.3232  0.3535
39906SOL    HW121725  10.324   8.247   0.071 -0.0361  0.3275  0.2467
39906SOL    HW221726  10.213   8.332   0.015  1.1341  1.2250 -0.7601
39907SOL     OW21727   3.192   6.619   5.779 -0.0609 -0.2858  0.1264
39907SOL    HW121728   3.195   6.707   5.742 -0.5162  0.3407  1.5438
39907SOL    HW221729   3.284   6.595   5.791  0.0584  0.4178  0.6817
39908SOL     OW21730   6.276   2.979   2.379 -0.3052  0.1865  0.4475
39908SOL    HW121731   6.228   2.967   2.297 -0.3419  0.0918  0.4824
39908SOL    HW221732   6.286   2.890   2.414  0.6025  0.1190  0.0458
39909SOL     OW21733   5.686   0.475   9.957 -0.3124  0.4120 -0.0806
39909SOL    HW121734   5.617   0.437  10.012  0.7245 -0.0128  0.9568
39909SOL    HW221735   5.674   0.433   9.872 -1.6569  0.7427 -0.0899
39910SOL     OW21736   0.605   6.565   7.038  0.1412  0.2447 -0.8471
39910SOL    HW121737   0.680   6.514   7.068  1.1262  2.2540  0.3046
39910SOL    HW221738   0.563   6.510   6.972  1.5172 -1.7273 -0.1485
39911SOL     OW21739   4.332  10.133   7.433 -0.4490 -0.4732 -0.0054
39911SOL    HW121740   4.262  10.177   7.482 -0.0219 -0.7806  0.9110
39911SOL    HW221741   4.291  10.055   7.398 -0.5745 -0.6590  0.5397
39912SOL     OW21742  10.341   2.545   0.386  0.1123  0.3358  0.0367
39912SOL    HW121743  10.324   2.522   0.477 -0.5988 -1.0611 -0.4235
39912SOL    HW221744  10.437   2.549   0.380  0.1786 -0.1067  0.7092
39913SOL     OW21745   6.570   6.929   9.081  0.9092 -0.3582  1.2202
39913SOL    HW121746   6.647   6.946   9.134  1.4605  0.9844  0.0637
39913SOL    HW221747   6.596   6.858   9.022  2.2565  1.7518 -0.9210
39914SOL     OW21748   8.570   7.311   1.496  0.1905  0.6826  0.4198
39914SOL    HW121749   8.593   7.400   1.523  1.4170  0.3455  0.5510
39914SOL    HW221750   8.544   7.267   1.577  2.0222  0.2202  0.7908
39915SOL     OW21751   7.717   5.551   0.037  0.3367  0.3579  0.1449
39915SOL    HW121752   7.776   5.487  -0.001 -0.3352  0.2410 -0.7138
39915SOL    HW221753   7.749   5.635   0.005  1.5111  0.5393  1.6532
39916SOL     OW21754   8.001   3.174   2.264 -0.0009 -0.2803  0.1449
39916SOL    HW121755   7.957   3.229   2.328 -0.5614 -1.3226  0.6756
39916SOL    HW221756   8.062   3.233   2.219 -0.4806  0.7251  0.7938
39917SOL     OW21757   7.058   9.530   0.766  0.5162 -0.0367  0.3673
39917SOL    HW121758   6.979   9.570   0.802  0.1616  0.1822 -0.6011
39917SOL    HW221759   7.043   9.436   0.774  0.3229  0.0071  0.5324
39918SOL     OW21760   5.560   6.994   1.705  0.1067 -0.2738 -0.8860
39918SOL    HW121761   5.595   7.009   1.617  0.2906 -0.8205 -0.9093
39918SOL    HW221762   5.637   6.986   1.761  0.0102 -0.6952 -0.8070
39919SOL     OW21763   4.242  10.616   5.892 -0.0507 -0.5848 -0.2308
39919SOL    HW121764   4.294  10.570   5.958 -2.1884 -2.2484  0.4011
39919SOL    HW221765   4.267  10.576   5.809  0.7719 -0.2775 -0.1428
39920SOL     OW21766   7.739   1.253   8.647 -0.1274  0.1726 -0.0817
39920SOL    HW121767   7.714   1.203   8.569 -0.5465  0.5523 -0.1951
39920SOL    HW221768   7.675   1.228   8.713  1.2116 -1.4309  0.6767
39921SOL     OW21769   5.170   9.304  10.894 -0.0853 -0.1957  0.0443
39921SOL    HW121770   5.099   9.327  10.835 -0.3065 -0.1088  0.3402
39921SOL    HW221771   5.128   9.295  10.980 -0.0546 -1.8776 -0.0812
39922SOL     OW21772   7.770  10.930  10.212 -0.1845 -0.3406 -0.2268
39922SOL    HW121773   7.742  10.960  10.125  1.0478  1.3001 -0.1140
39922SOL    HW221774   7.798  11.010  10.257  1.8064 -1.4721  0.6996
39923SOL     OW21775   4.490   6.742   8.983 -0.7653  0.3025 -0.1109
39923SOL    HW121776   4.442   6.702   8.911  0.6371 -0.3320 -0.7363
39923SOL    HW221777   4.424   6.787   9.035 -2.0604 -0.8034 -0.7600
39924SOL     OW21778   0.177   0.470   1.621  0.0736 -0.0668  0.3735
39924SOL    HW121779   0.131   0.435   1.544  0.5844  1.0154 -0.4533
39924SOL    HW221780   0.269   0.448   1.606 -0.0250 -1.4074  1.5662
39925SOL     OW21781   3.610   5.011   1.354  0.2301 -0.3262 -0.1489
39925SOL    HW121782   3.610   4.991   1.260 -1.7806  0.3913 -0.3664
39925SOL    HW221783   3.517   5.011   1.378  0.7252 -0.9502  1.9617
39926SOL     OW21784   0.326   5.266   0.601 -0.5198  0.1527 -0.2762
39926SOL    HW121785   0.271   5.213   0.543  0.2474 -1.4264  0.3898
39926SOL    HW221786   0.412   5.267   0.558 -0.8931  2.3372 -1.1469
39927SOL     OW21787   5.705   7.552  10.915  0.1908  0.0862  0.0643
39927SOL    HW121788   5.661   7.633  10.941 -0.2587  0.8318 -2.6947
39927SOL    HW221789   5.770   7.580  10.851  0.1821 -1.7180 -0.7952
39928SOL     OW21790   4.688   2.834   7.395 -0.0816 -0.2521 -0.0046
39928SOL    HW121791   4.758   2.777   7.363 -0.4278 -0.5835 -0.1668
39928SOL    HW221792   4.638   2.780   7.456 -0.5732 -0.2079 -0.3658
39929SOL     OW21793   7.062   7.307   9.430 -0.3916 -0.7425 -0.2526
39929SOL    HW121794   6.991   7.249   9.458 -1.2812  0.7945  0.7859
39929SOL    HW221795   7.060   7.379   9.492  2.2160 -0.7270 -0.0896
39930SOL     OW21796  10.477   7.732   1.354 -0.2644  0.2573  0.0781
39930SOL    HW121797  10.519   7.804   1.306  0.8033 -1.1093 -1.1187
39930SOL    HW221798  10.500   7.748   1.446  1.9161  0.2286 -0.4051
39931SOL     OW21799  10.278   5.578  10.168  0.2476 -0.0746 -0.3487
39931SOL    HW121800  10.263   5.521  10.244 -0.9253 -0.6789 -1.0051
39931SOL    HW221801  10.190   5.602  10.139  0.6780 -0.0399 -1.6628
39932SOL     OW21802  10.395   9.257   5.141  0.0973 -0.7224  0.3657
39932SOL    HW121803  10.480   9.277   5.101 -0.3341 -0.5383 -0.4973
39932SOL    HW221804  10.350   9.203   5.076 -0.5953 -0.4874  0.6338
39933SOL     OW21805   9.229   3.868  10.046 -0.2488 -0.1955  0.5048
39933SOL    HW121806   9.138   3.838  10.034 -0.5604 -0.4893  2.9596
39933SOL    HW221807   9.262   3.814  10.118  2.2017 -0.6417 -0.8411
39934SOL     OW21808   0.478   9.083   6.426 -0.4716  0.3928  0.0249
39934SOL    HW121809   0.425   9.161   6.411  1.3693  1.7871  0.3572
39934SOL    HW221810   0.481   9.040   6.341  2.2521  3.2480 -1.5577
39935SOL     OW21811   8.957   3.590   3.161 -0.9150 -0.6042 -0.6723
39935SOL    HW121812   8.992   3.679   3.158  0.2360 -0.8878  1.6643
39935SOL    HW221813   8.970   3.556   3.072  2.0233  0.3901 -0.7466
39936SOL     OW21814   9.818   7.376   1.433 -0.3820  0.1197 -0.4052
39936SOL    HW121815   9.830   7.296   1.382  0.0589 -0.6390  0.8512
39936SOL    HW221816   9.896   7.428   1.414 -0.0632 -0.2959 -0.2509
39937SOL     OW21817   7.643   0.109   9.452 -0.3726 -0.3044  0.3170
39937SOL    HW121818   7.566   0.161   9.471 -0.4858  0.4357 -1.8582
39937SOL    HW221819   7.674   0.142   9.367  2.4928 -0.3837  1.2133
39938SOL     OW21820   6.798   7.294   4.673  0.8636  0.5821 -0.4198
39938SOL    HW121821   6.786   7.364   4.737  0.4520  0.2323 -0.1026
39938SOL    HW221822   6.731   7.229   4.696  1.6390 -0.2020 -0.3206
39939SOL     OW21823   3.315   6.754   8.251 -0.2062 -0.3341  0.3255
39939SOL    HW121824   3.249   6.742   8.183  0.2989  0.7285 -0.3717
39939SOL    HW221825   3.267   6.791   8.325 -0.6718 -1.0694  0.4027
39940SOL     OW21826   0.421   9.625   9.253  0.5494 -0.9558  0.8266
39940SOL    HW121827   0.462   9.711   9.265 -1.6552  0.6303 -1.9213
39940SOL    HW221828   0.347   9.626   9.313  0.2699 -0.7482  0.4789
39941SOL     OW21829   8.626   8.822   5.725  0.5212 -0.1975  0.1797
39941SOL    HW121830   8.600   8.903   5.681  0.9718  1.0465  2.0845
39941SOL    HW221831   8.704   8.846   5.775  2.1345 -2.4438 -1.0616
39942SOL     OW21832   0.624   5.244   1.425  0.3925  0.6737 -0.2329
39942SOL    HW121833   0.609   5.151   1.409 -0.2619  0.6993  0.1909
39942SOL    HW221834   0.717   5.250   1.448  0.4251  0.1213 -0.2080
39943SOL     OW21835   3.219   1.077   3.351 -0.0599  0.4319 -0.5834
39943SOL    HW121836   3.193   1.162   3.314  0.2955  0.2353 -1.3092
39943SOL    HW221837   3.232   1.021   3.274 -1.9393 -0.7735 -0.0752
39944SOL     OW21838   1.541   0.671   6.389 -0.3008  0.0473  0.4078
39944SOL    HW121839   1.595   0.716   6.455 -1.1943  0.0966  1.1325
39944SOL    HW221840   1.597   0.602   6.355  0.6924  0.9562  0.1396
39945SOL     OW21841   4.554   6.374   0.053 -0.5892  0.3610 -0.1115
39945SOL    HW121842   4.645   6.364   0.081 -0.7847 -1.3305 -0.0199
39945SOL    HW221843   4.529   6.460   0.086  1.1533  1.1447 -0.6808
39946SOL     OW21844   0.167  11.034   8.387 -0.0597 -0.0916  0.3527
39946SOL    HW121845   0.228  11.036   8.313  0.0540 -0.2396  0.4415
39946SOL    HW221846   0.148  11.126   8.404  1.9054  0.1390  1.7530
39947SOL     OW21847  10.347   0.267   4.363  0.0342  0.0390 -0.3362
39947SOL    HW121848  10.286   0.290   4.433 -1.3070 -0.2443 -1.3825
39947SOL    HW221849  10.357   0.348   4.312 -0.0279 -0.1139 -0.5889
39948SOL     OW21850   5.364   1.756   7.029 -0.0927  0.5923 -0.0244
39948SOL    HW121851   5.452   1.785   7.055 -0.4528  1.5520  0.1570
39948SOL    HW221852   5.374   1.731   6.937  0.5550 -0.1330  0.2252
39949SOL     OW21853   1.560   5.917   3.160  0.2510 -0.0546  0.9894
39949SOL    HW121854   1.495   5.983   3.185  0.6623  0.1173  1.6443
39949SOL    HW221855   1.628   5.925   3.227  0.8452 -0.3720  0.4324
39950SOL     OW21856  10.906   4.585   5.800 -0.4456 -0.1731  0.4338
39950SOL    HW121857  10.887   4.583   5.894 -1.0988 -1.6716  0.2989
39950SOL    HW221858  10.908   4.678   5.779  1.2493  0.2601  2.2115
39951SOL     OW21859   0.898   8.906   8.281  0.0060 -0.1461 -0.1085
39951SOL    HW121860   0.871   8.927   8.191  0.5199  0.3908 -0.1407
39951SOL    HW221861   0.840   8.959   8.336  1.0018  1.0536 -0.1795
39952SOL     OW21862   9.664   8.859   0.968 -0.7673  0.4501  0.2851
39952SOL    HW121863   9.576   8.893   0.982 -1.0262  0.3643 -1.0875
39952SOL    HW221864   9.704   8.861   1.056 -2.9930 -2.0339  1.4884
39953SOL     OW21865   6.063   0.075   9.214  0.1605  0.4504  0.2004
39953SOL    HW121866   6.082   0.093   9.306 -2.7669  1.3982  0.7486
39953SOL    HW221867   5.985   0.128   9.195 -0.0779 -0.6866 -2.4779
39954SOL     OW21868   0.420   9.928   1.019  0.1417  0.2756  0.5885
39954SOL    HW121869   0.352   9.943   0.954  1.0828  1.3763 -0.1748
39954SOL    HW221870   0.389   9.852   1.070 -1.5328  0.6310  0.1387
39955SOL     OW21871   7.604   9.913   7.249 -0.0755 -0.2934  0.0515
39955SOL    HW121872   7.545   9.840   7.265 -0.3847  0.1274  0.9266
39955SOL    HW221873   7.636   9.938   7.336  0.1616  0.4890 -0.2454
39956SOL     OW21874  10.146   3.398   7.755  0.3187  0.3587  0.2387
39956SOL    HW121875  10.183   3.435   7.835  1.8787  0.2375 -0.4046
39956SOL    HW221876  10.136   3.473   7.697  2.4596  0.0062 -0.6711
39957SOL     OW21877   4.510   6.033   0.555  0.3901  0.2815 -0.3024
39957SOL    HW121878   4.565   6.020   0.477 -0.9929 -1.3297 -1.0646
39957SOL    HW221879   4.483   5.945   0.580 -2.1370  1.0327 -0.1796
39958SOL     OW21880   5.848   6.945   6.258 -0.7535 -0.3034  0.3855
39958SOL    HW121881   5.941   6.942   6.236 -0.7395  1.0876  0.2103
39958SOL    HW221882   5.819   7.033   6.234 -2.3442 -0.9995 -0.4280
39959SOL     OW21883   2.154   7.118   7.832  0.0343 -0.2990  0.2816
39959SOL    HW121884   2.175   7.027   7.810  0.5965  0.0329 -0.6170
39959SOL    HW221885   2.239   7.160   7.845 -0.1644  0.3797 -0.5186
39960SOL     OW21886   8.106   3.377   2.074 -0.1897  0.0358  0.7026
39960SOL    HW121887   8.114   3.457   2.125 -0.5208 -0.5523  1.6911
39960SOL    HW221888   8.019   3.382   2.035  0.3122  0.8000 -0.3880
39961SOL     OW21889   4.693   6.139   4.443  0.0423 -0.1570 -0.3981
39961SOL    HW121890   4.679   6.199   4.516  1.2257 -0.7024  0.2940
39961SOL    HW221891   4.737   6.192   4.377  1.2190 -0.2858  0.2697
39962SOL     OW21892   1.515   8.114   7.419 -0.1942  0.7197 -0.0575
39962SOL    HW121893   1.521   8.056   7.344  2.7629  0.4413  0.2814
39962SOL    HW221894   1.568   8.190   7.395 -0.4609  1.3222  1.1706
39963SOL     OW21895  10.434   6.493   1.060 -0.0973 -0.3117 -0.5846
39963SOL    HW121896  10.493   6.506   1.134  0.2775 -1.5754 -0.6367
39963SOL    HW221897  10.441   6.574   1.009 -0.2975  0.5326  0.6973
39964SOL     OW21898  10.233   6.382   1.970  0.0428 -0.0964  0.4131
39964SOL    HW121899  10.219   6.329   1.892  0.0616 -0.0946  0.4085
39964SOL    HW221900  10.145   6.412   1.995  0.0879  0.2890  0.1186
39965SOL     OW21901   6.504   1.548   9.828 -0.6951  0.5713  0.6077
39965SOL    HW121902   6.422   1.596   9.816 -0.5816  0.8005  0.7435
39965SOL    HW221903   6.485   1.485   9.898 -1.0987 -0.1666 -0.1413
39966SOL     OW21904   7.442   0.269   6.595 -0.0466 -0.4636  0.2563
39966SOL    HW121905   7.357   0.308   6.611 -1.2295 -0.8347 -3.9471
39966SOL    HW221906   7.499   0.343   6.575 -0.5527 -0.4369 -1.1605
39967SOL     OW21907  10.626   5.503   9.969 -0.4233  0.1728 -0.2823
39967SOL    HW121908  10.691   5.520   9.902 -1.3091  0.3405 -1.1127
39967SOL    HW221909  10.677   5.486  10.048  0.6080  0.7268 -0.8155
39968SOL     OW21910  10.141   8.103   6.700  0.2792  0.0431 -0.0389
39968SOL    HW121911  10.218   8.113   6.645  0.2830 -4.0365 -1.0934
39968SOL    HW221912  10.175   8.105   6.790  1.1783  0.9014 -0.3856
39969SOL     OW21913   5.415   7.574   0.024 -0.3727  0.1825  0.8162
39969SOL    HW121914   5.362   7.636  -0.027 -0.7854 -0.2241  0.7445
39969SOL    HW221915   5.505   7.599   0.005 -0.5322  0.5837  0.5642
39970SOL     OW21916   3.234   4.558   1.696  0.0909 -0.1779 -0.2045
39970SOL    HW121917   3.226   4.651   1.718  1.3388 -0.1789  0.3695
39970SOL    HW221918   3.327   4.538   1.710 -0.0426 -1.3842 -0.8526
39971SOL     OW21919   7.692   4.494   5.732  0.2632 -0.2889 -0.2018
39971SOL    HW121920   7.626   4.502   5.663 -1.2528 -2.3320  0.8739
39971SOL    HW221921   7.764   4.445   5.692 -0.9898 -2.2587 -0.2074
39972SOL     OW21922   6.848   6.057   9.243  0.1285 -0.2239 -0.1649
39972SOL    HW121923   6.808   5.974   9.215 -3.4927  1.4189 -0.4341
39972SOL    HW221924   6.937   6.033   9.266 -0.6250 -4.1461 -0.4929
39973SOL     OW21925   8.855   0.349  11.071  0.0404 -0.0737  0.8092
39973SOL    HW121926   8.868   0.424  11.013  0.6142  0.5417  1.7206
39973SOL    HW221927   8.781   0.374  11.127 -0.1397 -0.4346  0.7418
39974SOL     OW21928   0.838   2.102   6.559 -0.0662  0.9762 -0.6250
39974SOL    HW121929   0.796   2.061   6.484 -2.1781  1.8898 -0.0233
39974SOL    HW221930   0.796   2.188   6.566  2.5999  2.3602 -0.4938
39975SOL     OW21931   8.141   7.533   5.106 -0.1984 -0.3578  0.3338
39975SOL    HW121932   8.138   7.448   5.062  1.1892  0.0154 -0.5548
39975SOL    HW221933   8.206   7.522   5.175 -0.9460 -0.3722  1.0454
39976SOL     OW21934   9.648   3.226   2.223 -0.5386 -0.0053 -0.0312
39976SOL    HW121935   9.585   3.244   2.153 -0.3735 -0.5695 -0.3320
39976SOL    HW221936   9.602   3.250   2.303 -1.1418 -0.4299 -0.2443
39977SOL     OW21937   9.970  10.280   0.091  0.1157  0.3986 -0.0183
39977SOL    HW121938   9.953  10.375   0.095 -0.1740  0.4240 -1.4404
39977SOL    HW221939  10.053  10.273   0.045  1.0090  0.0020  1.5730
39978SOL     OW21940   2.412   1.412   1.681 -0.4442  0.0480 -0.1448
39978SOL    HW121941   2.324   1.448   1.671  0.0799  1.1222 -1.1487
39978SOL    HW221942   2.469   1.489   1.687  0.4910 -0.6220 -0.1772
39979SOL     OW21943   0.543   3.883   1.614  0.1152 -0.4574  1.1759
39979SOL    HW121944   0.575   3.846   1.532 -0.2120 -1.4567  1.4799
39979SOL    HW221945   0.504   3.808   1.660 -1.5058  0.4606  1.3724
39980SOL     OW21946   2.530   9.492   8.892  0.3888 -0.0779 -0.2222
39980SOL    HW121947   2.510   9.509   8.984  0.2034 -0.8581 -0.1103
39980SOL    HW221948   2.616   9.533   8.879  0.7513 -0.5861  0.4957
39981SOL     OW21949   6.631   4.113  10.801 -0.2158 -0.2578 -0.2568
39981SOL    HW121950   6.662   4.108  10.711 -1.6212  0.7829 -0.8344
39981SOL    HW221951   6.677   4.042  10.846  1.1519 -0.2646 -1.5772
39982SOL     OW21952   9.394   1.637   0.941  0.0388 -1.0257 -0.0831
39982SOL    HW121953   9.362   1.567   0.998 -0.9401 -0.6126 -0.1130
39982SOL    HW221954   9.354   1.717   0.975  0.8873 -0.5184 -0.2507
39983SOL     OW21955   1.268   4.989   9.906 -0.1562 -0.3454 -0.6302
39983SOL    HW121956   1.239   5.027   9.989  2.1675 -1.1579  0.6256
39983SOL    HW221957   1.202   4.922   9.887 -0.9673  0.1528  0.3074
39984SOL     OW21958   6.454   6.822   1.164 -0.3174  0.0294 -0.5167
39984SOL    HW121959   6.416   6.757   1.223 -1.2859  0.9414 -0.1163
39984SOL    HW221960   6.380   6.872   1.131  0.4876  1.9834  0.4379
39985SOL     OW21961   9.593   0.957   2.396 -0.3402 -0.6705  0.0211
39985SOL    HW121962   9.510   0.996   2.426  0.0491  1.1692 -1.1094
39985SOL    HW221963   9.607   0.883   2.454 -1.8762  0.0558  1.4097
39986SOL     OW21964   8.886  10.104   0.125  0.1983  0.2245 -0.3651
39986SOL    HW121965   8.899  10.012   0.146  1.0030  0.2593 -0.6872
39986SOL    HW221966   8.791  10.117   0.133 -0.0247 -0.8235 -1.0650
39987SOL     OW21967   7.820   3.700   2.572 -0.0616 -0.6426 -0.5629
39987SOL    HW121968   7.786   3.790   2.576  0.4804 -0.4630  0.4874
39987SOL    HW221969   7.846   3.682   2.662  1.1453 -1.3550 -1.0442
39988SOL     OW21970   9.596   0.965   1.704  0.1628 -0.0585  0.3094
39988SOL    HW121971   9.650   0.886   1.712 -2.4955 -2.1762 -0.9977
39988SOL    HW221972   9.540   0.963   1.782 -1.3480 -0.7351 -0.7415
39989SOL     OW21973   8.237   9.642   3.197  0.5534  0.6342 -0.5191
39989SOL    HW121974   8.320   9.601   3.220 -0.4924 -2.7069 -2.0981
39989SOL    HW221975   8.256   9.692   3.118  1.1519  0.3398 -0.5693
39990SOL     OW21976   3.915   5.419   1.820  0.6014 -0.4097  0.2776
39990SOL    HW121977   3.868   5.347   1.777  2.1660 -2.3172  1.5724
39990SOL    HW221978   3.868   5.431   1.903 -0.6790  1.3006 -0.6338
39991SOL     OW21979   3.774   4.440   9.667  0.0115 -0.4914 -0.2561
39991SOL    HW121980   3.712   4.507   9.640  0.6153 -0.3153 -1.2714
39991SOL    HW221981   3.854   4.459   9.617  0.6606 -1.1224  0.4975
39992SOL     OW21982   8.798   2.954  10.823  0.2315 -0.0571 -0.4445
39992SOL    HW121983   8.759   2.908  10.748 -0.3442  2.3098 -1.6929
39992SOL    HW221984   8.780   2.896  10.897  1.4232 -2.8378 -2.1473
39993SOL     OW21985   9.302   9.256   4.542 -0.8503 -0.2028 -0.1819
39993SOL    HW121986   9.344   9.334   4.578 -1.7288  0.5426 -0.7284
39993SOL    HW221987   9.364   9.185   4.560  0.4076  0.7740 -0.5359
39994SOL     OW21988   6.544   4.561  10.417 -0.0314 -0.0732 -0.3877
39994SOL    HW121989   6.629   4.606  10.416 -0.5762  1.0316 -2.1836
39994SOL    HW221990   6.566   4.469  10.431  1.3244  0.3864  0.7285
39995SOL     OW21991   8.956   6.644   6.564  0.7244  0.2128 -0.7556
39995SOL    HW121992   8.899   6.671   6.492  1.1012  1.0498 -0.7414
39995SOL    HW221993   8.926   6.694   6.639  1.1135  0.2328 -0.6120
39996SOL     OW21994   0.591   9.471   0.011 -0.2150  0.3226 -0.0286
39996SOL    HW121995   0.582   9.380   0.038  1.5518 -0.0570 -0.5688
39996SOL    HW221996   0.517   9.486  -0.049 -1.8866  0.0036  1.8628
39997SOL     OW21997   6.874   0.682   4.773 -0.0653 -0.4762 -0.7191
39997SOL    HW121998   6.943   0.706   4.834 -0.7148 -1.1137  0.2963
39997SOL    HW221999   6.919   0.667   4.690  1.0192 -0.9374 -0.0639
39998SOL     OW22000   2.790  10.862  10.541  0.3411  0.2609 -0.1843
39998SOL    HW122001   2.849  10.885  10.613  1.3692  0.2375 -0.9937
39998SOL    HW222002   2.744  10.784  10.571  1.3721 -0.2387  0.1289
39999SOL     OW22003   9.273   0.490   0.484 -0.3236  0.4812  0.3644
39999SOL    HW122004   9.199   0.547   0.466 -0.5460  0.0230 -0.1787
39999SOL    HW222005   9.268   0.421   0.418  0.1700  0.0482  0.7672
40000SOL     OW22006   1.089   4.268   1.785  0.2666  0.3591 -0.1055
40000SOL    HW122007   1.157   4.334   1.800  1.3562 -0.5760 -0.8240
40000SOL    HW222008   1.056   4.247   1.873 -0.7966  2.5136  0.1031
40001SOL     OW22009  10.732   3.508  10.533  0.3809 -0.5418 -0.1300
40001SOL    HW122010  10.672   3.483  10.603 -1.1390 -1.5252 -1.6868
40001SOL    HW222011  10.709   3.599  10.512 -0.3786 -0.8175 -0.5158
40002SOL     OW22012  10.156   5.343   9.311 -0.1635  0.2120  0.0025
40002SOL    HW122013  10.100   5.286   9.259 -0.9918  1.2740 -0.3210
40002SOL    HW222014  10.209   5.390   9.247  2.0764 -1.6912  0.3587
40003SOL     OW22015   0.717   3.227   2.257 -0.4548 -0.3040  0.7877
40003SOL    HW122016   0.751   3.283   2.187 -0.6400 -2.1440 -0.8819
40003SOL    HW222017   0.777   3.239   2.330  0.0038  1.3541  0.1861
40004SOL     OW22018   8.979   8.729   4.954  0.0532 -0.5535  0.2556
40004SOL    HW122019   8.970   8.655   4.894  0.6279  0.0519 -0.6017
40004SOL    HW222020   8.940   8.802   4.906 -0.0352 -0.1863  0.8814
40005SOL     OW22021   6.219   2.679   3.219  0.4713 -0.3093 -0.3617
40005SOL    HW122022   6.199   2.591   3.186  3.3446 -0.9160 -0.7790
40005SOL    HW222023   6.237   2.666   3.312  2.4167 -0.5260 -0.7226
40006SOL     OW22024   4.219   6.794   6.999  0.0972 -0.0123  0.4468
40006SOL    HW122025   4.194   6.732   6.930  0.4688  0.4158 -0.0870
40006SOL    HW222026   4.221   6.879   6.955  1.7937  0.0748  0.5983
40007SOL     OW22027   1.897   3.854   6.167 -0.3339 -0.3981 -0.2365
40007SOL    HW122028   1.832   3.824   6.104 -2.0646  1.0168  0.7577
40007SOL    HW222029   1.911   3.946   6.146  1.1693 -0.6026 -0.2443
40008SOL     OW22030   8.525   5.500   4.856  0.4383  0.9474 -0.0449
40008SOL    HW122031   8.469   5.430   4.823 -1.3692  2.3990 -0.2128
40008SOL    HW222032   8.608   5.456   4.876 -0.5789 -1.2162 -0.1974
40009SOL     OW22033   6.007   5.120   2.320 -0.5831 -0.1151  0.0664
40009SOL    HW122034   5.991   5.198   2.372 -0.4809  0.0832 -0.2004
40009SOL    HW222035   6.008   5.048   2.384 -0.7517  0.0904  0.2997
40010SOL     OW22036   8.102   6.327   1.621 -0.1607  0.4049 -0.3809
40010SOL    HW122037   8.019   6.365   1.650  0.0308  0.9007 -0.4729
40010SOL    HW222038   8.085   6.233   1.617 -0.2793  0.3282  1.1131
40011SOL     OW22039  10.564   8.979   2.553 -0.3045 -0.4786  0.0396
40011SOL    HW122040  10.637   8.917   2.556  0.9601  0.9541  0.4012
40011SOL    HW222041  10.548   8.994   2.460  1.2708  0.7130 -0.0877
40012SOL     OW22042   5.395   8.085   7.791 -0.2391 -0.0373 -0.4853
40012SOL    HW122043   5.481   8.118   7.816 -0.4903 -0.6868  1.3684
40012SOL    HW222044   5.344   8.163   7.770  0.9887  0.3129 -2.3773
40013SOL     OW22045   9.230   9.509   9.281 -0.0660 -0.1051  0.7615
40013SOL    HW122046   9.242   9.484   9.372  1.3504 -2.5141  0.0042
40013SOL    HW222047   9.148   9.465   9.255  1.3735 -2.5784 -0.0046
40014SOL     OW22048   2.917   1.179   2.437 -0.4145  0.0122 -0.0543
40014SOL    HW122049   2.960   1.101   2.404  0.3916 -0.9649  2.9848
40014SOL    HW222050   2.956   1.251   2.388 -0.0402 -1.3356 -1.8278
40015SOL     OW22051   6.816  10.337   7.328  0.4950 -0.0300  0.8518
40015SOL    HW122052   6.746  10.350   7.391  1.5963 -0.3974  2.1985
40015SOL    HW222053   6.794  10.254   7.285 -0.7805  0.7136  0.0156
40016SOL     OW22054   9.006   4.055   9.847 -0.3580 -0.1074 -0.3788
40016SOL    HW122055   8.958   4.040   9.766  0.5532 -0.2878 -0.8948
40016SOL    HW222056   8.949   4.020   9.916 -2.5877  2.7860 -0.5372
40017SOL     OW22057   8.280  10.451   3.518  0.1431 -0.4885  0.4341
40017SOL    HW122058   8.230  10.509   3.576 -0.4504  0.4091 -0.9113
40017SOL    HW222059   8.358  10.502   3.496  1.0425 -1.3663  1.4813
40018SOL     OW22060   5.071   8.759   4.522 -0.3211 -0.1633  0.4570
40018SOL    HW122061   4.997   8.804   4.561 -0.9712 -1.0892  0.3203
40018SOL    HW222062   5.131   8.829   4.495 -1.7287  0.6663 -0.6192
40019SOL     OW22063   3.560   0.565  10.619  0.3077 -0.0965  0.0207
40019SOL    HW122064   3.611   0.520  10.687 -1.9876  0.1229  2.0408
40019SOL    HW222065   3.517   0.495  10.571 -0.8768 -0.2049  1.1881
40020SOL     OW22066   7.024   7.001   0.155 -0.6271  0.4568  0.6145
40020SOL    HW122067   7.088   7.071   0.138  0.1779  0.0694  1.8217
40020SOL    HW222068   6.972   6.996   0.076  2.2819 -0.7239 -1.3899
40021SOL     OW22069   8.344   4.706   7.497  0.0376  0.3518 -0.3457
40021SOL    HW122070   8.250   4.690   7.504  0.2551 -0.5266  1.0511
40021SOL    HW222071   8.352   4.798   7.473 -1.1771  0.7868  0.8182
40022SOL     OW22072  10.946   2.767   8.016 -0.0114 -0.2468  0.5561
40022SOL    HW122073  10.944   2.748   8.109 -0.5844 -0.5195  0.4929
40022SOL    HW222074  11.022   2.719   7.983  0.7239  0.5697  1.0267
40023SOL     OW22075   7.231   9.972  10.362 -0.0594 -0.1100  0.4827
40023SOL    HW122076   7.285  10.031  10.415 -1.3303  2.5423 -0.9632
40023SOL    HW222077   7.291   9.937  10.296  0.3944  1.0036  0.2773
40024SOL     OW22078   9.876   2.880   4.374  0.6205 -0.6262  0.5961
40024SOL    HW122079   9.836   2.816   4.434 -0.2568 -1.6885 -1.0634
40024SOL    HW222080   9.843   2.964   4.405  0.3863 -1.1166  1.7583
40025SOL     OW22081   9.183   5.185  10.325  0.9436 -0.2530 -0.4267
40025SOL    HW122082   9.141   5.101  10.343  0.3056  0.2991  0.7451
40025SOL    HW222083   9.209   5.218  10.411  1.0490  0.8192 -0.8569
40026SOL     OW22084   4.483   7.497   9.924  0.0306 -0.4914  0.0185
40026SOL    HW122085   4.538   7.422   9.904  2.2005  1.1327 -0.5913
40026SOL    HW222086   4.485   7.503  10.020  0.4140 -0.8257  0.0339
40027SOL     OW22087   9.911   8.720   5.201  0.7391 -0.2506  0.0160
40027SOL    HW122088   9.816   8.711   5.202  0.6748  0.4130  1.1024
40027SOL    HW222089   9.931   8.773   5.278  2.2172 -2.3942  1.1937
40028SOL     OW22090   3.579   3.949  10.549 -0.1464  0.5952 -0.1713
40028SOL    HW122091   3.593   3.894  10.471  2.1813  0.2628  0.3925
40028SOL    HW222092   3.645   4.017  10.541 -0.8442  1.4067  0.8120
40029SOL     OW22093   9.528   8.886   0.013  0.3945 -0.4432 -0.4205
40029SOL    HW122094   9.464   8.886   0.084 -0.0586  0.6291 -0.8113
40029SOL    HW222095   9.478   8.907  -0.065  1.1540 -0.0219 -0.8031
40030SOL     OW22096  10.015   5.564   3.607 -0.1863 -0.3970 -0.4289
40030SOL    HW122097  10.081   5.523   3.551  0.5476  0.8082 -0.4785
40030SOL    HW222098   9.951   5.494   3.623  1.5142 -1.8779  0.3143
40031SOL     OW22099   2.942   6.571   6.160  0.2892 -0.3969  0.7523
40031SOL    HW122100   2.989   6.633   6.216 -0.5029 -1.0169  2.1723
40031SOL    HW222101   3.005   6.501   6.144  0.7029  0.0535  0.3831
40032SOL     OW22102   1.205   1.578   0.962 -0.4606 -0.5151 -0.2733
40032SOL    HW122103   1.278   1.619   0.914 -0.4720 -1.5130 -1.2008
40032SOL    HW222104   1.247   1.519   1.025 -0.4531  0.3805  0.5733
40033SOL     OW22105   1.495   4.173   5.959  0.2939  0.0742  0.0410
40033SOL    HW122106   1.441   4.120   5.900 -1.1194 -1.6525  2.6531
40033SOL    HW222107   1.432   4.218   6.015  1.5529  0.7868  0.9244
40034SOL     OW22108   8.742   7.773   2.952  0.2110 -0.1957  0.6751
40034SOL    HW122109   8.761   7.853   2.904  0.6672 -0.2591  0.7435
40034SOL    HW222110   8.802   7.708   2.916 -2.2400 -1.4153 -1.6449
40035SOL     OW22111   0.619   4.434   2.856  0.1779  0.0147 -0.1722
40035SOL    HW122112   0.539   4.466   2.814  0.4000  0.4786 -0.2436
40035SOL    HW222113   0.659   4.376   2.792  0.1441  0.1542 -0.3189
40036SOL     OW22114   2.279   5.684   4.751  0.3375  0.0026 -0.7168
40036SOL    HW122115   2.266   5.779   4.746 -0.9675 -0.1587 -0.7067
40036SOL    HW222116   2.280   5.665   4.844 -1.3229 -0.2075 -0.7105
40037SOL     OW22117   8.053   3.980   1.265 -0.1440  0.3895  0.5767
40037SOL    HW122118   8.041   3.899   1.313 -0.8960  0.2292  0.1307
40037SOL    HW222119   8.097   4.039   1.326 -1.4937  0.3507  1.6270
40038SOL     OW22120   2.050   1.158   7.215  0.1022  0.1233 -0.0466
40038SOL    HW122121   2.117   1.221   7.243 -1.1142  1.4337  0.0030
40038SOL    HW222122   1.967   1.201   7.234 -0.7681 -1.0398 -1.0638
40039SOL     OW22123   2.158   8.751   0.011  0.3200 -0.1697 -0.0183
40039SOL    HW122124   2.250   8.776   0.017  0.1989  0.8441 -1.5752
40039SOL    HW222125   2.120   8.815  -0.050 -1.1677 -1.2087 -0.2458
40040SOL     OW22126   9.886   6.361   4.776 -0.2822 -0.2887  0.2936
40040SOL    HW122127   9.978   6.377   4.754 -0.5591  0.8713 -0.1081
40040SOL    HW222128   9.838   6.432   4.733 -1.0356  1.2214  3.2718
40041SOL     OW22129   3.223   2.143   5.496 -0.3897 -0.0536 -0.5085
40041SOL    HW122130   3.214   2.114   5.587 -0.3146  1.1139 -0.1162
40041SOL    HW222131   3.272   2.073   5.454 -0.5719 -0.6918  0.3114
40042SOL     OW22132   9.033   9.485   7.151  0.5676  0.2446  0.5096
40042SOL    HW122133   8.983   9.429   7.211  0.8329 -0.4826  0.0616
40042SOL    HW222134   9.119   9.493   7.192 -0.0680  2.0586  1.6332
40043SOL     OW22135   3.285   7.765   7.986  0.1341  0.0847  0.2843
40043SOL    HW122136   3.305   7.783   8.077 -0.0430  0.2113  0.2985
40043SOL    HW222137   3.361   7.717   7.953  0.4583  0.5581  0.3370
40044SOL     OW22138   0.062   9.386   3.238 -0.4373  0.1983 -0.5710
40044SOL    HW122139  -0.028   9.406   3.263 -1.4150 -0.4491 -3.2728
40044SOL    HW222140   0.103   9.472   3.229 -0.8525  0.5128  0.3466
40045SOL     OW22141   7.668   8.592   1.698  0.0367 -0.7849  0.0994
40045SOL    HW122142   7.659   8.593   1.603 -1.2251 -0.9761  0.1972
40045SOL    HW222143   7.603   8.655   1.730  0.9293 -0.1958  0.8161
40046SOL     OW22144   0.016   8.544   2.924 -0.4339 -0.0072 -0.2368
40046SOL    HW122145  -0.069   8.555   2.880 -0.8993 -0.8746  0.4289
40046SOL    HW222146   0.072   8.612   2.885 -1.3359  0.3635 -0.9138
40047SOL     OW22147   7.566   6.247   5.451 -0.2858 -0.9016 -0.2957
40047SOL    HW122148   7.541   6.219   5.540  0.6190 -2.1618 -0.4157
40047SOL    HW222149   7.487   6.287   5.416 -0.3868  0.5772  1.4348
40048SOL     OW22150   6.113  10.447   8.245  0.1780  0.3383 -0.5878
40048SOL    HW122151   6.069  10.385   8.186  0.7070  0.0485 -0.6815
40048SOL    HW222152   6.206  10.440   8.222  0.2932  0.8341 -0.2860
40049SOL     OW22153   2.899   5.467  10.573  0.2820 -0.2305  0.0120
40049SOL    HW122154   2.873   5.532  10.638 -0.8084  0.2190 -0.8423
40049SOL    HW222155   2.950   5.403  10.622  1.6588  1.4114  0.8284
40050SOL     OW22156   9.320   4.264   2.848  0.6142 -0.0875  0.4448
40050SOL    HW122157   9.414   4.282   2.846  0.3926  1.1168 -0.2097
40050SOL    HW222158   9.279   4.347   2.823 -0.6061 -0.7354  0.1985
40051SOL     OW22159   1.351   4.823   3.184  0.1314 -0.6016  0.0588
40051SOL    HW122160   1.288   4.891   3.210 -0.3770 -0.6936 -0.8896
40051SOL    HW222161   1.298   4.743   3.177  0.6306 -0.9871  0.6618
40052SOL     OW22162   9.553   5.352   3.432  0.3067 -0.1105 -0.1320
40052SOL    HW122163   9.621   5.338   3.366 -1.4558  1.1520 -2.3697
40052SOL    HW222164   9.579   5.433   3.476  1.4261 -0.8955  0.7282
40053SOL     OW22165   8.879  10.961   0.306  0.2748 -0.7699 -0.3287
40053SOL    HW122166   8.808  11.021   0.283  2.5078  1.9031 -0.7885
40053SOL    HW222167   8.862  10.938   0.398  0.0172  1.7864  0.3435
40054SOL     OW22168   2.700   7.264   5.923  0.4773 -0.1018  0.1753
40054SOL    HW122169   2.666   7.329   5.863 -0.4189  0.1019  0.8701
40054SOL    HW222170   2.794   7.279   5.926  0.2224  1.5226  0.7307
40055SOL     OW22171   2.713   2.500   2.855  0.0646 -0.4760  0.7336
40055SOL    HW122172   2.752   2.567   2.799 -0.2186 -0.4082  0.6190
40055SOL    HW222173   2.783   2.476   2.916  0.2597 -0.2945  0.5794
40056SOL     OW22174   7.799   9.965   6.135  0.2061 -0.0301 -0.0138
40056SOL    HW122175   7.786   9.915   6.216  0.5653  0.3869  0.3102
40056SOL    HW222176   7.828  10.051   6.165 -2.3964  1.0802 -0.4619
40057SOL     OW22177   7.977   2.062   1.259  0.1418  0.1017  0.7987
40057SOL    HW122178   7.927   2.022   1.188  1.3252 -0.7357  0.4113
40057SOL    HW222179   7.918   2.057   1.335 -0.6072 -0.2762  0.2056
40058SOL     OW22180  10.137   3.495   8.874 -0.1651  0.3705 -0.1156
40058SOL    HW122181  10.050   3.518   8.906 -0.2150 -0.5240  0.4303
40058SOL    HW222182  10.127   3.408   8.836  0.5299  0.1647  0.1472
40059SOL     OW22183   8.579   1.323   1.685  0.2210 -0.1197 -0.1013
40059SOL    HW122184   8.510   1.388   1.702 -0.0074  0.0163 -1.4309
40059SOL    HW222185   8.612   1.300   1.772  0.7637  2.2725  0.4096
40060SOL     OW22186   4.021   3.336   7.222  0.8601 -0.4898 -0.5267
40060SOL    HW122187   4.078   3.282   7.167  1.0494 -0.8697  0.0287
40060SOL    HW222188   3.969   3.273   7.271  0.7197 -0.1579 -0.2482
40061SOL     OW22189   8.170   1.279   0.433  0.0664  0.1083  0.3414
40061SOL    HW122190   8.221   1.360   0.434  1.3044 -0.5493 -1.8079
40061SOL    HW222191   8.102   1.294   0.367 -0.3660 -0.2388  0.6964
40062SOL     OW22192   8.133   5.857   4.016  0.6054 -0.1185 -0.0272
40062SOL    HW122193   8.131   5.898   4.103  1.3571  2.2136 -1.0256
40062SOL    HW222194   8.179   5.774   4.030  1.6570  0.6711  1.6337
40063SOL     OW22195   7.168   3.979   2.309  0.4471  0.0941  0.2265
40063SOL    HW122196   7.246   3.949   2.263  1.4286  1.2792  1.0590
40063SOL    HW222197   7.164   4.073   2.291 -0.5496  0.1321  0.5506
40064SOL     OW22198   2.159   9.475   6.041  0.0522  0.1658 -0.3069
40064SOL    HW122199   2.124   9.397   6.084 -0.5368 -0.7677 -2.3418
40064SOL    HW222200   2.227   9.441   5.982  1.8834  1.5622  0.8636
40065SOL     OW22201  10.985   7.181   9.885  0.3309 -0.3357  0.7002
40065SOL    HW122202  11.028   7.104   9.920  0.8505 -1.0949 -1.4145
40065SOL    HW222203  10.892   7.160   9.887  0.5373 -1.7284 -1.2304
40066SOL     OW22204   5.530   3.927   2.905  0.1567 -0.4764  0.0675
40066SOL    HW122205   5.570   3.866   2.967  0.8341 -1.3325 -1.1737
40066SOL    HW222206   5.550   3.890   2.819  0.0300  1.1706 -0.6981
40067SOL     OW22207  10.274   7.622   5.426 -0.4212 -0.0141 -0.1890
40067SOL    HW122208  10.208   7.571   5.379  0.4457 -0.0189 -1.4415
40067SOL    HW222209  10.226   7.697   5.460 -1.2599 -0.5119 -0.2505
40068SOL     OW22210   2.588   1.233   5.533  0.0140 -0.1056 -0.2160
40068SOL    HW122211   2.621   1.272   5.452 -0.7136  1.0798  0.0353
40068SOL    HW222212   2.525   1.167   5.504 -0.8667  0.8975 -0.6046
40069SOL     OW22213   1.600  10.271   9.248  0.1600 -0.3132  0.2353
40069SOL    HW122214   1.606  10.366   9.249  0.2998 -0.2442 -2.2275
40069SOL    HW222215   1.662  10.243   9.181 -0.5405 -2.0790  0.2526
40070SOL     OW22216   8.792   7.612   5.895 -0.6237  0.0280 -0.3506
40070SOL    HW122217   8.868   7.641   5.946 -1.1723  0.8954 -0.0071
40070SOL    HW222218   8.823   7.534   5.849  0.0435 -0.4344  0.8555
40071SOL     OW22219   4.288   8.163   0.891  0.3406  0.3500 -0.1887
40071SOL    HW122220   4.348   8.205   0.830  0.2303  3.1569  1.4842
40071SOL    HW222221   4.215   8.134   0.837  0.3027  2.6284 -1.4636
40072SOL     OW22222  10.048   4.012   8.279 -0.3282  0.2183 -0.2035
40072SOL    HW122223  10.040   3.978   8.190 -0.1874  1.5449 -0.7448
40072SOL    HW222224   9.958   4.023   8.309 -0.4094  1.2145 -0.7721
40073SOL     OW22225   7.227   3.552   7.154 -0.7742  0.1012 -0.2183
40073SOL    HW122226   7.238   3.647   7.151  0.0274  0.0606  0.7600
40073SOL    HW222227   7.189   3.530   7.069 -0.8243  1.2737 -0.5262
40074SOL     OW22228   0.670   6.151   2.340  0.5918 -0.1339  0.0895
40074SOL    HW122229   0.664   6.206   2.262 -2.8665 -0.1760  0.1762
40074SOL    HW222230   0.629   6.202   2.409 -3.4320 -2.8210  0.0224
40075SOL     OW22231   0.706   4.806   5.480 -0.3894  0.2434 -0.1332
40075SOL    HW122232   0.766   4.880   5.473 -1.5707  1.2417 -0.2135
40075SOL    HW222233   0.660   4.804   5.396 -0.6054 -0.3741 -0.0086
40076SOL     OW22234  10.064   3.934  10.507  0.1222 -0.1156 -0.4192
40076SOL    HW122235  10.153   3.959  10.532  0.1201 -0.6772  0.1711
40076SOL    HW222236  10.055   3.963  10.416  0.0361  2.2503  0.2804
40077SOL     OW22237   0.969   0.841   5.747  0.3877  0.2500 -0.3483
40077SOL    HW122238   0.974   0.911   5.681  1.0377  1.1509  0.6157
40077SOL    HW222239   0.972   0.887   5.831  1.4370 -0.9617  0.3266
40078SOL     OW22240   3.498   2.664   9.144 -0.3506  0.0101  0.4423
40078SOL    HW122241   3.432   2.733   9.141 -1.3128 -0.9338 -0.4275
40078SOL    HW222242   3.455   2.586   9.110  0.7400 -1.0280  1.3114
40079SOL     OW22243   9.328   1.910   2.526  0.5803 -0.3227 -0.3270
40079SOL    HW122244   9.352   1.905   2.433 -0.4271 -1.9298 -0.5392
40079SOL    HW222245   9.259   1.844   2.536  0.7668 -0.2613  1.6036
40080SOL     OW22246   9.865   7.180   5.438 -0.1971 -0.1634  0.2541
40080SOL    HW122247   9.781   7.197   5.481 -0.8320  1.0491 -1.3656
40080SOL    HW222248   9.930   7.185   5.509 -1.3350  0.3290  1.2956
40081SOL     OW22249   2.616   1.881   3.006  0.4269 -0.3544 -0.8059
40081SOL    HW122250   2.688   1.868   2.944  2.0218 -1.3993  1.1703
40081SOL    HW222251   2.595   1.794   3.038 -1.3376  0.0075 -0.8727
40082SOL     OW22252  10.472  10.528   6.924 -0.1293  0.1961  0.0372
40082SOL    HW122253  10.524  10.602   6.891 -0.9354  0.7020 -0.1378
40082SOL    HW222254  10.391  10.569   6.957  1.2970  0.0115  4.4090
40083SOL     OW22255   6.354   7.517  10.326 -0.2166 -0.3554 -0.4193
40083SOL    HW122256   6.347   7.443  10.386 -1.9200 -0.9183 -1.2547
40083SOL    HW222257   6.266   7.526  10.289 -0.4381  2.8650  0.5785
40084SOL     OW22258   4.884   5.137   8.134  0.1298 -0.0422 -0.3260
40084SOL    HW122259   4.793   5.166   8.140 -0.1879 -1.0145 -0.1603
40084SOL    HW222260   4.881   5.044   8.160  1.3011  0.1547  0.6411
40085SOL     OW22261  10.894   7.814   3.697 -0.3389 -0.0790  0.0262
40085SOL    HW122262  10.948   7.844   3.624  1.4601  1.0751  1.7483
40085SOL    HW222263  10.827   7.759   3.655  1.2943 -0.4392 -2.3596
40086SOL     OW22264   4.099   5.201   9.574  0.4801  0.9365  0.1102
40086SOL    HW122265   4.009   5.229   9.590 -0.5496 -0.4483 -2.7047
40086SOL    HW222266   4.091   5.121   9.523  3.3506  0.0638  0.8231
40087SOL     OW22267   9.322   4.241   3.113 -0.5050 -0.0804  0.4519
40087SOL    HW122268   9.279   4.321   3.142  0.5159  1.1731 -1.3349
40087SOL    HW222269   9.308   4.238   3.018  1.1642 -0.9330  0.1832
40088SOL     OW22270   6.381   4.682   1.911  0.1798  0.4303  0.5053
40088SOL    HW122271   6.297   4.700   1.952  0.1079  1.8504 -0.2303
40088SOL    HW222272   6.421   4.615   1.967 -1.8441 -1.0345  0.2925
40089SOL     OW22273   1.088   8.425   6.708  0.3220  0.1651  0.7545
40089SOL    HW122274   1.087   8.452   6.617  2.0452 -1.6433  0.1240
40089SOL    HW222275   1.069   8.331   6.706  0.8210 -0.0021  2.1778
40090SOL     OW22276   1.023   4.061   6.031 -0.0388 -0.0190  0.0487
40090SOL    HW122277   1.048   4.050   5.939  0.2276  1.0771 -0.0157
40090SOL    HW222278   0.987   4.149   6.036  2.0433  0.8204  1.4426
40091SOL     OW22279   9.440   3.969   0.897 -0.4566 -0.1113 -0.1135
40091SOL    HW122280   9.368   4.032   0.893 -1.2741 -1.0581 -0.6590
40091SOL    HW222281   9.401   3.886   0.870  1.0439 -0.4742 -1.2976
40092SOL     OW22282   8.994   4.455   4.128 -0.7105  0.1648 -0.4175
40092SOL    HW122283   8.953   4.385   4.180 -1.5661  1.5724  0.8772
40092SOL    HW222284   9.058   4.494   4.187  0.0375  0.2467 -1.2655
40093SOL     OW22285   0.060   6.339   1.716 -0.0195  0.2742  0.6539
40093SOL    HW122286   0.121   6.359   1.788 -1.4282  2.8007  1.2664
40093SOL    HW222287  -0.026   6.357   1.753 -0.8626  0.6661 -1.4049
40094SOL     OW22288   1.059   9.403   6.835  0.2259 -0.2136 -0.3802
40094SOL    HW122289   1.006   9.385   6.758 -1.0452  1.2638  0.1045
40094SOL    HW222290   1.044   9.329   6.893  1.4067 -1.4780 -1.6097
40095SOL     OW22291   6.542   1.877   9.478  0.0077 -0.0473  0.0636
40095SOL    HW122292   6.573   1.948   9.535  0.0559  0.0911 -0.1345
40095SOL    HW222293   6.447   1.879   9.487 -0.2342  1.8578 -2.0499
40096SOL     OW22294   1.454   7.128   3.477  0.4025 -0.4584  0.1373
40096SOL    HW122295   1.449   7.124   3.573 -0.5664 -0.5688  0.0846
40096SOL    HW222296   1.515   7.058   3.455 -1.0259 -1.9053  0.5615
40097SOL     OW22297   2.955   4.791   5.405  0.0965  0.1667 -0.3569
40097SOL    HW122298   2.907   4.826   5.480 -1.0372 -1.8440 -0.0815
40097SOL    HW222299   2.902   4.717   5.375  0.6038  0.7756 -3.0529
40098SOL     OW22300  10.406   1.049   2.141 -0.2496  0.1970  0.0490
40098SOL    HW122301  10.398   0.998   2.221 -0.7294  0.0834 -0.0676
40098SOL    HW222302  10.494   1.087   2.145 -0.4867  0.6880  0.9224
40099SOL     OW22303   0.909   2.634   5.827 -0.4353 -0.3428 -0.0330
40099SOL    HW122304   0.842   2.593   5.771  0.2083  1.2438 -2.0553
40099SOL    HW222305   0.991   2.620   5.780  0.4271 -0.5955  1.4876
40100SOL     OW22306  10.468   6.436   9.972 -0.3938  0.2493  0.3603
40100SOL    HW122307  10.443   6.471   9.887 -0.6786  0.2660  0.4522
40100SOL    HW222308  10.563   6.421   9.965 -0.1647  1.5345  0.4912
40101SOL     OW22309   9.264   8.717   3.167  0.0386  0.6543  0.5239
40101SOL    HW122310   9.263   8.662   3.244  0.3395  0.7220  0.5778
40101SOL    HW222311   9.174   8.748   3.157  0.4706  2.7947  2.3974
40102SOL     OW22312   2.475   1.191   2.720 -0.6140 -0.0971  0.4037
40102SOL    HW122313   2.515   1.199   2.634  0.8343 -1.1970  0.9383
40102SOL    HW222314   2.543   1.153   2.775 -1.9971 -0.8736  1.6670
40103SOL     OW22315   3.328   1.885   5.921 -0.2981 -0.0417  0.0991
40103SOL    HW122316   3.313   1.801   5.965  0.6013  0.0513  0.5926
40103SOL    HW222317   3.409   1.872   5.872 -0.2558  0.4789  0.0283
40104SOL     OW22318  10.578   7.282   1.117  0.0749  0.6660 -0.7045
40104SOL    HW122319  10.548   7.335   1.191 -0.4330  1.8163 -1.6930
40104SOL    HW222320  10.650   7.230   1.152 -0.9865  0.2180  0.9175
40105SOL     OW22321   8.633   4.480   3.126 -0.5903 -0.0243 -0.6709
40105SOL    HW122322   8.698   4.410   3.129 -0.2368  0.3115 -0.3598
40105SOL    HW222323   8.551   4.438   3.151 -0.1452 -0.0728  0.8495
40106SOL     OW22324  10.640   2.684   3.535 -0.1836 -0.3035 -0.3615
40106SOL    HW122325  10.727   2.723   3.530 -1.1168  1.9189 -0.9183
40106SOL    HW222326  10.655   2.593   3.558  2.1946  0.3907  1.2109
40107SOL     OW22327   2.144   5.896  10.577 -0.6011 -0.1879 -0.5039
40107SOL    HW122328   2.103   5.975  10.614 -1.3439 -0.3405 -0.9755
40107SOL    HW222329   2.232   5.896  10.614 -1.8084 -1.3189  2.7635
40108SOL     OW22330   0.698   3.495  10.166  0.4795  0.4044  0.0350
40108SOL    HW122331   0.785   3.513  10.129  0.1752  0.5569 -0.6211
40108SOL    HW222332   0.641   3.560  10.124 -0.3471 -0.9954 -1.1181
40109SOL     OW22333   6.945   8.948   1.454 -0.2385  1.0090 -0.4929
40109SOL    HW122334   6.888   8.928   1.529  0.7416  1.4140  0.3881
40109SOL    HW222335   6.912   8.892   1.384 -2.2394  1.8225 -0.2762
40110SOL     OW22336   4.803   5.696   2.672  0.3779 -0.0016  0.1598
40110SOL    HW122337   4.843   5.773   2.632  2.9322 -1.4083 -0.2095
40110SOL    HW222338   4.754   5.654   2.600 -0.9578  1.1836  0.3477
40111SOL     OW22339   4.183   3.580   6.478 -0.2340  0.5147 -0.5302
40111SOL    HW122340   4.195   3.488   6.456 -3.2173 -0.0511 -0.2376
40111SOL    HW222341   4.260   3.624   6.442  2.6240 -2.3258  1.4645
40112SOL     OW22342   4.259   9.359   3.065 -0.0778  0.0358  0.3233
40112SOL    HW122343   4.351   9.386   3.076  0.3316 -0.5075 -1.3959
40112SOL    HW222344   4.212   9.441   3.054 -0.4221  0.5960  4.4280
40113SOL     OW22345   0.827   5.452   7.807  0.2403 -0.3150 -0.5091
40113SOL    HW122346   0.916   5.457   7.842 -0.0700 -1.4390  0.5130
40113SOL    HW222347   0.782   5.527   7.845  0.3491 -0.5963  0.1821
40114SOL     OW22348   2.843   3.060   3.571 -0.1450  0.3764 -0.2109
40114SOL    HW122349   2.808   3.042   3.658 -1.8636 -0.1026 -0.9688
40114SOL    HW222350   2.915   2.998   3.561  1.2027  1.5587  1.4839
40115SOL     OW22351   9.949   5.842   1.943  0.2771  0.3345  0.8384
40115SOL    HW122352   9.872   5.899   1.936  0.6692  1.0296  1.9044
40115SOL    HW222353   9.982   5.837   1.853 -2.2860 -1.9053 -0.1449
40116SOL     OW22354   1.055   7.454   5.285  0.0472 -0.5747 -0.0814
40116SOL    HW122355   1.022   7.450   5.196  0.5238  1.9632 -0.4312
40116SOL    HW222356   0.977   7.449   5.340 -0.3042 -1.3943 -0.6277
40117SOL     OW22357   1.964   5.402   8.573  0.4250 -0.0247  0.5491
40117SOL    HW122358   2.027   5.455   8.524 -1.2685  0.6253 -1.0753
40117SOL    HW222359   1.966   5.439   8.662 -0.2559  2.4481 -0.3620
40118SOL     OW22360  10.996   4.476   2.482  0.2836  0.3830  0.0950
40118SOL    HW122361  11.011   4.439   2.569 -0.1433 -0.2092 -0.0802
40118SOL    HW222362  11.078   4.463   2.436  0.3515  0.2475  0.2520
40119SOL     OW22363   2.703   6.320   3.637 -0.4083 -0.3867 -0.1918
40119SOL    HW122364   2.685   6.241   3.586  2.4000 -0.9956 -0.4506
40119SOL    HW222365   2.620   6.343   3.677 -0.7181 -5.8896  3.3451
40120SOL     OW22366   3.546   7.273   0.922  0.0330  0.5286  0.0360
40120SOL    HW122367   3.567   7.259   1.014  1.3617 -0.4124 -0.3809
40120SOL    HW222368   3.604   7.214   0.875  1.7129  3.2285 -1.5905
40121SOL     OW22369   2.423   7.349   1.349 -0.1633  0.6184 -0.1488
40121SOL    HW122370   2.459   7.376   1.265  0.3424  0.8436  0.1406
40121SOL    HW222371   2.394   7.431   1.390 -1.6680  0.3891 -0.6688
40122SOL     OW22372   0.029  10.428   3.848  0.0077 -0.0517  0.2007
40122SOL    HW122373   0.031  10.505   3.791  1.9485  0.1340  0.4612
40122SOL    HW222374   0.081  10.362   3.803  0.8843 -0.1760  1.3385
40123SOL     OW22375   2.313   2.086   2.740 -0.0051  0.3812  0.3045
40123SOL    HW122376   2.393   2.138   2.746  1.4040 -1.3839 -1.5186
40123SOL    HW222377   2.276   2.110   2.655  0.1920 -0.9163 -0.1594
40124SOL     OW22378   3.982  10.116   3.933 -0.4895  0.2967 -0.1873
40124SOL    HW122379   4.038  10.189   3.961 -2.2215  2.0058 -0.9124
40124SOL    HW222380   4.007  10.043   3.990  2.8051  0.7681 -0.8439
40125SOL     OW22381   8.976   3.173   6.697  0.4975  0.4979 -0.2781
40125SOL    HW122382   8.891   3.217   6.691 -0.5802 -0.9850  2.6190
40125SOL    HW222383   8.961   3.086   6.660  0.3259 -0.2367  1.4387
40126SOL     OW22384   1.488   4.020   9.102 -0.1627 -0.2688 -0.3197
40126SOL    HW122385   1.397   4.052   9.101 -0.1766 -0.2634  0.4806
40126SOL    HW222386   1.500   3.980   9.016 -1.3746 -1.4980  0.0333
40127SOL     OW22387   8.803   7.384   4.366 -0.6428 -0.3519 -0.3802
40127SOL    HW122388   8.709   7.368   4.365 -0.3661 -2.2286 -0.0570
40127SOL    HW222389   8.841   7.305   4.328  0.7939  0.6077 -1.0306
40128SOL     OW22390   8.719   4.027   9.032 -0.4296  0.2377  0.6385
40128SOL    HW122391   8.777   4.036   9.107  0.7896  0.4917 -0.3012
40128SOL    HW222392   8.693   3.935   9.033  0.3431  0.0113  0.8342
40129SOL     OW22393   9.142   2.718   0.444  0.2761 -0.0366  0.0134
40129SOL    HW122394   9.132   2.723   0.349 -0.0709  2.0865  0.1143
40129SOL    HW222395   9.096   2.638   0.469 -2.4707  1.0329 -1.2677
40130SOL     OW22396   9.361   3.949   0.439  0.1367 -0.2896 -0.0513
40130SOL    HW122397   9.355   3.924   0.347  0.9742 -0.3718 -0.0919
40130SOL    HW222398   9.374   3.867   0.486 -1.3275 -0.3675  0.2655
40131SOL     OW22399   0.837   8.471   4.282 -0.1358  0.4181 -0.0076
40131SOL    HW122400   0.917   8.443   4.237 -0.7060 -0.4001 -0.5424
40131SOL    HW222401   0.858   8.558   4.316  1.1244  0.0337  0.2443
40132SOL     OW22402   8.298   2.450   9.597  0.5019 -0.1036  0.0523
40132SOL    HW122403   8.244   2.478   9.523  0.8584 -0.8673 -0.5165
40132SOL    HW222404   8.306   2.528   9.652 -2.2522 -0.2962  0.8597
40133SOL     OW22405   1.522   7.368   0.514 -0.3929  0.1727  0.5192
40133SOL    HW122406   1.527   7.304   0.443 -0.0079 -1.0630  1.6226
40133SOL    HW222407   1.459   7.433   0.482 -0.2539 -0.3563 -0.9326
40134SOL     OW22408   8.802   7.958   4.766  0.4773  0.3480  0.1296
40134SOL    HW122409   8.869   8.024   4.784  0.7761 -0.1818  1.0997
40134SOL    HW222410   8.747   7.958   4.844  0.0957 -0.0859 -0.1332
40135SOL     OW22411   4.218   6.105   1.059 -0.1347  0.3417 -0.4162
40135SOL    HW122412   4.206   6.116   0.965 -0.4180 -0.1972 -0.4515
40135SOL    HW222413   4.129   6.098   1.094 -0.0492  1.0186 -0.0395
40136SOL     OW22414   4.475   7.842   9.899 -0.5108  0.1770 -0.1421
40136SOL    HW122415   4.540   7.913   9.896 -2.8026  2.3905 -1.5406
40136SOL    HW222416   4.393   7.885   9.923 -2.3586 -1.6281 -2.5991
40137SOL     OW22417   9.253   3.993   1.370 -0.1387 -0.3566  0.4445
40137SOL    HW122418   9.178   4.012   1.313  1.3342  1.1885 -1.0890
40137SOL    HW222419   9.275   4.077   1.410  1.2247 -0.6074  0.2604
40138SOL     OW22420   3.391   7.250   9.300  0.0653 -0.1425 -0.3204
40138SOL    HW122421   3.324   7.187   9.329  0.9059 -0.3592  1.2415
40138SOL    HW222422   3.362   7.333   9.336  0.6620 -0.2519  0.4341
40139SOL     OW22423   0.451   1.037   8.230 -0.2780  0.3093  0.3679
40139SOL    HW122424   0.527   0.999   8.275  0.5437 -0.4273 -1.5317
40139SOL    HW222425   0.478   1.126   8.209  0.4000 -0.1545 -0.8991
40140SOL     OW22426   0.164   0.372   7.759 -0.1710  0.1562  0.3381
40140SOL    HW122427   0.192   0.341   7.673 -1.2902 -1.6678  0.5952
40140SOL    HW222428   0.221   0.326   7.821 -0.2398  0.4772  0.6426
40141SOL     OW22429  10.126   2.961   1.904 -0.1703 -0.2376 -0.0867
40141SOL    HW122430  10.114   3.056   1.910 -0.9593 -0.3707  0.6185
40141SOL    HW222431  10.091   2.927   1.986  0.2503 -1.1331 -0.2658
40142SOL     OW22432  10.797   5.704   3.543  0.0866 -0.4311  0.3607
40142SOL    HW122433  10.776   5.779   3.599 -1.2341 -0.9360  0.5561
40142SOL    HW222434  10.869   5.736   3.487 -1.2887  1.4235 -0.4563
40143SOL     OW22435   8.316   3.815   5.185 -0.1014  0.3672  0.0589
40143SOL    HW122436   8.227   3.848   5.192  0.0099  1.1537 -1.7843
40143SOL    HW222437   8.311   3.725   5.217 -1.5226  0.4239  0.0563
40144SOL     OW22438   9.269   4.476   5.515  0.8837  0.7232 -0.1634
40144SOL    HW122439   9.353   4.473   5.560  1.3266  0.0850 -0.9947
40144SOL    HW222440   9.282   4.424   5.436 -1.1218 -1.8819  1.0578
40145SOL     OW22441  10.685   9.822   3.279  0.1454  0.1096  0.3348
40145SOL    HW122442  10.727   9.736   3.270 -2.1637 -0.9742 -0.9445
40145SOL    HW222443  10.709   9.851   3.368  0.3196 -2.2323  1.1235
40146SOL     OW22444   8.248   3.815   1.460  0.3869 -0.2475 -0.9730
40146SOL    HW122445   8.260   3.727   1.426  1.0588 -0.2690 -0.6974
40146SOL    HW222446   8.336   3.842   1.488 -0.2415 -0.5104  1.4228
40147SOL     OW22447   1.310   7.240   9.192 -0.1510 -0.0874 -0.2195
40147SOL    HW122448   1.401   7.243   9.161  0.4128 -1.4227  1.1838
40147SOL    HW222449   1.278   7.155   9.163 -0.3242 -0.4231  0.9141
40148SOL     OW22450   8.309   4.482   0.982  0.1123  0.1328 -0.1029
40148SOL    HW122451   8.307   4.502   1.076  2.8564 -1.5254  0.4348
40148SOL    HW222452   8.396   4.510   0.954 -0.0362 -0.9112 -1.7500
40149SOL     OW22453  10.546   4.419   4.179  0.3159  0.1757  0.0420
40149SOL    HW122454  10.497   4.464   4.110  1.0052  0.9910  0.0762
40149SOL    HW222455  10.504   4.333   4.185 -0.7828  0.6677 -0.2854
40150SOL     OW22456   0.902   7.425   1.281  0.1388 -0.3224 -0.5218
40150SOL    HW122457   0.989   7.388   1.263 -0.4233 -1.4649 -0.9752
40150SOL    HW222458   0.854   7.353   1.322 -0.3593  0.5439  0.4657
40151SOL     OW22459  10.623   7.020   2.908  0.4328  0.3878 -0.2290
40151SOL    HW122460  10.613   7.066   2.825 -0.5841 -0.0183 -0.3450
40151SOL    HW222461  10.636   6.928   2.883 -2.1775 -0.1366  0.0620
40152SOL     OW22462  10.621   5.697   0.789  0.1104  0.4562  0.0645
40152SOL    HW122463  10.544   5.742   0.753 -0.1874 -0.5687 -0.6537
40152SOL    HW222464  10.628   5.729   0.879  0.3543  2.4435 -0.6089
40153SOL     OW22465  10.507   5.958   8.829  0.4348  0.3894 -0.0350
40153SOL    HW122466  10.495   5.942   8.923  1.5970 -1.3497 -0.1342
40153SOL    HW222467  10.543   5.876   8.795 -2.0131  0.1783 -2.4473
40154SOL     OW22468   2.354   6.093   0.367 -0.0358  0.3544  0.1579
40154SOL    HW122469   2.260   6.104   0.379 -0.0690  0.1181  0.1173
40154SOL    HW222470   2.390   6.085   0.455 -0.5899 -4.0690  0.2100
40155SOL     OW22471   6.256   3.666   8.507 -0.5649  0.0073 -0.5587
40155SOL    HW122472   6.201   3.609   8.454  0.2430 -1.3392 -0.0217
40155SOL    HW222473   6.322   3.700   8.445 -0.4555 -0.4477 -0.6953
40156SOL     OW22474  10.368   2.650  10.931 -0.7247 -0.1109  0.1895
40156SOL    HW122475  10.460   2.674  10.922 -0.5804 -0.2291  1.2569
40156SOL    HW222476  10.362   2.610  11.018 -1.3852 -1.9503 -0.6559
40157SOL     OW22477   8.685   5.407   4.233 -0.2883 -0.1068 -0.1225
40157SOL    HW122478   8.631   5.374   4.305 -0.5973 -1.3805 -0.9015
40157SOL    HW222479   8.745   5.335   4.214  0.4880  0.6210 -0.4492
40158SOL     OW22480   7.459   2.324   1.843 -0.1912  0.3729  0.0439
40158SOL    HW122481   7.428   2.400   1.892 -1.2815  2.2946 -3.3277
40158SOL    HW222482   7.555   2.332   1.845 -0.2947  2.1119 -0.5786
40159SOL     OW22483   0.179   4.661   7.444  0.6247  0.3697 -0.9146
40159SOL    HW122484   0.131   4.606   7.382 -2.3713  0.8630  0.7770
40159SOL    HW222485   0.227   4.600   7.499  0.6279 -0.2722 -1.6145
40160SOL     OW22486   3.356   3.799   3.985  0.3835  0.3369 -0.1315
40160SOL    HW122487   3.305   3.809   4.065 -0.3461  0.7359 -0.6365
40160SOL    HW222488   3.392   3.710   3.990  1.8281  0.9586  1.4641
40161SOL     OW22489   1.737   9.433  10.338 -0.1224 -0.3393 -0.4787
40161SOL    HW122490   1.657   9.395  10.376 -0.3142 -2.0970 -2.5021
40161SOL    HW222491   1.797   9.359  10.331  2.1203  1.0980  1.8083
40162SOL     OW22492   3.251   0.711   2.490 -0.1174 -0.2209 -0.1262
40162SOL    HW122493   3.179   0.720   2.427 -0.2811  1.3354  0.2450
40162SOL    HW222494   3.329   0.697   2.436 -0.3774  0.2721 -0.6375
40163SOL     OW22495   4.299   8.439   8.193  0.7305 -0.4843  0.4573
40163SOL    HW122496   4.299   8.380   8.117  0.8128 -0.0633  0.1264
40163SOL    HW222497   4.390   8.468   8.201  0.7135 -0.4921  0.6941
40164SOL     OW22498   9.452   2.157   3.581  0.3411 -0.5626  0.5599
40164SOL    HW122499   9.501   2.081   3.549  0.3972  0.0533 -0.8900
40164SOL    HW222500   9.376   2.162   3.522  0.0906  0.2243  0.9476
40165SOL     OW22501   3.729   1.902   2.832  0.0809 -0.6612 -0.1244
40165SOL    HW122502   3.670   1.826   2.826 -0.7491  0.0343 -0.9930
40165SOL    HW222503   3.680   1.967   2.881  0.5433 -0.4320  0.0450
40166SOL     OW22504   7.659   8.632   1.372  0.3139 -0.4513 -0.7415
40166SOL    HW122505   7.723   8.572   1.333 -0.8330 -2.2142 -0.0167
40166SOL    HW222506   7.606   8.662   1.298  0.9052 -0.3058 -1.1117
40167SOL     OW22507  10.311   5.660  10.792  0.0700  0.4524  0.3943
40167SOL    HW122508  10.375   5.730  10.780  0.0337  0.3361 -0.4887
40167SOL    HW222509  10.365   5.583  10.812  0.4589 -0.2903 -3.0301
40168SOL     OW22510   4.165  10.157   0.078 -0.5846  0.2527  0.2311
40168SOL    HW122511   4.135  10.199  -0.003 -2.4628  1.1847  1.3362
40168SOL    HW222512   4.091  10.166   0.138  0.3869 -1.3030  1.7494
40169SOL     OW22513   4.269   3.065   1.979  0.0750  0.4202  0.0676
40169SOL    HW122514   4.216   3.139   1.951 -0.2726  0.4819  0.8575
40169SOL    HW222515   4.282   3.013   1.900 -0.8895  0.5791 -0.2086
40170SOL     OW22516   6.040   7.256   8.903 -0.6042 -0.2640  0.2921
40170SOL    HW122517   6.080   7.190   8.846  2.1031  0.2234  1.4613
40170SOL    HW222518   6.062   7.227   8.992 -1.4653  0.9672  0.9301
40171SOL     OW22519   4.273   2.483   5.048 -0.0046  0.4083  0.5171
40171SOL    HW122520   4.327   2.416   5.091 -0.1532  1.5831  2.6992
40171SOL    HW222521   4.202   2.499   5.110 -1.3794  0.8456 -1.0939
40172SOL     OW22522   0.327   0.759   3.663  0.1413  0.2312 -0.2354
40172SOL    HW122523   0.280   0.730   3.585  1.1305  1.2405 -1.2364
40172SOL    HW222524   0.415   0.781   3.632 -0.0063  2.5088  0.7766
40173SOL     OW22525   5.371   7.240   2.740  0.1699  0.4664  0.4182
40173SOL    HW122526   5.377   7.183   2.817 -0.1047  0.3832  0.3776
40173SOL    HW222527   5.328   7.187   2.674  3.2439 -0.6238 -0.8948
40174SOL     OW22528   9.044   5.157   0.799 -0.5187  0.7035  0.3147
40174SOL    HW122529   9.105   5.229   0.787  0.1279 -0.1945 -2.5696
40174SOL    HW222530   8.972   5.176   0.739 -1.9286  0.4886  1.8550
40175SOL     OW22531   0.421   6.719  10.233 -0.0163  0.4585  0.4089
40175SOL    HW122532   0.387   6.791  10.180  1.5010 -1.0252 -2.8200
40175SOL    HW222533   0.349   6.696  10.291 -1.7636  2.2662 -0.9096
40176SOL     OW22534   0.346   9.331   3.562  0.2990  0.0337  0.4390
40176SOL    HW122535   0.375   9.267   3.627 -1.2101  0.5320  1.6750
40176SOL    HW222536   0.360   9.416   3.605  0.2812  0.4326 -0.3296
40177SOL     OW22537   2.793   1.649   5.295  0.4768  0.2142 -0.2567
40177SOL    HW122538   2.811   1.726   5.242 -1.0049  0.3157 -0.6533
40177SOL    HW222539   2.742   1.681   5.369  2.0912 -0.0082  1.0105
40178SOL     OW22540   2.419   2.641   6.341  0.4203 -0.3317 -0.6122
40178SOL    HW122541   2.414   2.618   6.249 -2.2500  0.5082 -0.7518
40178SOL    HW222542   2.421   2.557   6.387  2.9396 -0.7729 -1.3862
40179SOL     OW22543   1.835   2.106   7.223  0.0289  0.0748 -0.1962
40179SOL    HW122544   1.845   2.011   7.212 -0.2210 -0.3673  2.6983
40179SOL    HW222545   1.754   2.126   7.176  0.4304 -0.9722 -1.4223
40180SOL     OW22546   8.671   6.860   3.757  0.0087  0.1770 -0.3797
40180SOL    HW122547   8.610   6.873   3.830 -0.6595 -0.8517 -0.7242
40180SOL    HW222548   8.757   6.874   3.795 -0.2987 -0.8641  0.7644
40181SOL     OW22549   4.467   5.490   0.681  0.0316  0.4511  0.1803
40181SOL    HW122550   4.519   5.486   0.761 -1.4302 -0.3060  1.1288
40181SOL    HW222551   4.490   5.409   0.634 -1.9517 -1.1322  1.7358
40182SOL     OW22552   7.872   3.324   1.487 -0.0875  0.1645 -0.3836
40182SOL    HW122553   7.892   3.324   1.393 -0.9399  0.2065 -0.5807
40182SOL    HW222554   7.853   3.233   1.507 -1.5244  0.3765 -0.6437
40183SOL     OW22555   7.429   2.291   8.959 -0.2106  0.2602  0.2368
40183SOL    HW122556   7.513   2.245   8.955  0.1636  0.9467 -0.1932
40183SOL    HW222557   7.366   2.226   8.989  0.8944  0.2958  2.8443
40184SOL     OW22558  10.436   8.002   2.867  0.2248  0.2552 -0.4069
40184SOL    HW122559  10.400   8.008   2.779 -1.1563  1.3523  0.1931
40184SOL    HW222560  10.390   7.929   2.907  0.2734  0.2620 -0.3387
40185SOL     OW22561   2.303  10.947   1.158 -0.1985  0.0299  0.0586
40185SOL    HW122562   2.279  10.887   1.228 -0.2067 -0.0872 -0.0454
40185SOL    HW222563   2.388  10.917   1.127  0.5436  1.0207  1.0758
40186SOL     OW22564   1.760   7.727   4.391 -0.4505 -0.0997  0.5013
40186SOL    HW122565   1.773   7.715   4.297 -1.5639  0.3421  0.2782
40186SOL    HW222566   1.806   7.809   4.410  0.8543 -0.8334  0.6025
40187SOL     OW22567   8.533   0.878   1.624  0.4491  0.5371  0.3910
40187SOL    HW122568   8.585   0.803   1.594 -1.9444 -0.7036 -0.9513
40187SOL    HW222569   8.553   0.947   1.560  0.6133  0.1566  0.0210
40188SOL     OW22570   1.002   6.114   5.334  0.0472 -0.2227 -0.2142
40188SOL    HW122571   0.989   6.027   5.372 -0.4849  0.2530  0.7339
40188SOL    HW222572   1.051   6.098   5.253  1.1959 -1.2788  0.6535
40189SOL     OW22573   9.659   2.680   2.452  0.2142 -0.2331  0.1342
40189SOL    HW122574   9.604   2.648   2.380  1.6243 -2.6915  0.0188
40189SOL    HW222575   9.669   2.773   2.436 -1.2284 -0.3397 -1.6738
40190SOL     OW22576   4.453   5.678   2.322  0.1205  1.7832 -0.0315
40190SOL    HW122577   4.383   5.655   2.383  1.3679  0.3172  0.9009
40190SOL    HW222578   4.445   5.613   2.252  0.1944  1.9911 -0.2355
40191SOL     OW22579   8.719   1.113   9.481 -0.1138  0.8281 -0.1110
40191SOL    HW122580   8.799   1.059   9.485 -0.6250  0.0862  0.3598
40191SOL    HW222581   8.751   1.201   9.459  0.5885  0.0136 -2.7161
40192SOL     OW22582   7.377   1.201   8.421  0.2548 -0.7220 -0.3759
40192SOL    HW122583   7.304   1.156   8.463  0.7235 -1.7905 -0.6625
40192SOL    HW222584   7.454   1.152   8.449  0.7531 -0.2893 -0.9687
40193SOL     OW22585  10.596   5.186   0.703 -0.0776  0.3497 -0.4069
40193SOL    HW122586  10.652   5.261   0.722 -0.7921  0.9693 -0.6794
40193SOL    HW222587  10.640   5.112   0.744  0.3023  1.0263  0.4462
40194SOL     OW22588   0.550  10.153   8.923  0.4719  0.2163  0.1753
40194SOL    HW122589   0.608  10.088   8.962 -0.6273 -1.3049 -0.6080
40194SOL    HW222590   0.602  10.234   8.922  1.5959 -0.4182  1.9107
40195SOL     OW22591   6.388   3.017   2.714 -0.1245  0.1775  0.1991
40195SOL    HW122592   6.362   2.929   2.686  0.5494 -0.6049  1.8651
40195SOL    HW222593   6.436   3.053   2.640  0.0362 -1.0722 -0.3275
40196SOL     OW22594   7.946   4.945   5.026 -0.8404  0.0382 -0.3148
40196SOL    HW122595   8.016   4.925   4.964 -0.9803  0.7440 -0.7108
40196SOL    HW222596   7.916   5.032   5.001 -1.8330 -0.2383 -0.1173
40197SOL     OW22597   8.608   7.824   0.802  0.3570  0.8847 -0.4352
40197SOL    HW122598   8.665   7.892   0.764  2.0756 -0.7590 -0.9359
40197SOL    HW222599   8.615   7.837   0.896  1.0196  1.1347 -0.5159
40198SOL     OW22600  10.475   2.581   7.163  0.4605 -0.0688  0.0302
40198SOL    HW122601  10.505   2.660   7.117 -0.0512 -0.2221 -0.5834
40198SOL    HW222602  10.419   2.615   7.234 -1.0412  0.1058 -1.1699
40199SOL     OW22603   9.750   5.081   5.967 -0.4291  0.7822  1.1143
40199SOL    HW122604   9.687   5.016   5.998 -1.5399  0.5353 -1.4326
40199SOL    HW222605   9.712   5.165   5.992  0.3148  0.5716  3.1630
40200SOL     OW22606   1.942   8.904   2.272 -0.6052  0.5263 -0.3810
40200SOL    HW122607   1.861   8.916   2.322 -0.5052 -0.9060  0.1483
40200SOL    HW222608   1.918   8.848   2.198  0.0683 -0.6275  0.2557
40201SOL     OW22609   0.883   5.818   7.990  0.0767  0.6449 -0.1020
40201SOL    HW122610   0.843   5.785   7.910 -0.5147 -1.6995  1.0674
40201SOL    HW222611   0.977   5.804   7.978 -0.1935 -2.7950  0.7685
40202SOL     OW22612   7.438   9.238   4.519  0.0676  0.0975  0.0810
40202SOL    HW122613   7.529   9.234   4.548 -0.0995  0.5244  0.6591
40202SOL    HW222614   7.443   9.278   4.432  0.3467  1.0509  0.5239
40203SOL     OW22615   8.228   6.250   7.043  0.1467 -0.5361 -0.0894
40203SOL    HW122616   8.154   6.253   6.983  0.2603 -0.5966 -0.2348
40203SOL    HW222617   8.260   6.160   7.037  0.2110 -0.5197 -0.0031
40204SOL     OW22618   5.020  10.921  10.914  0.2905  0.6287 -0.1890
40204SOL    HW122619   4.956  10.853  10.933  0.7916  0.3893  0.7522
40204SOL    HW222620   5.053  10.947  11.000 -0.3314  2.5184 -0.4741
40205SOL     OW22621   9.197   1.535   1.432  0.6304 -0.5904  0.5250
40205SOL    HW122622   9.193   1.441   1.450  0.4836 -0.8465 -0.7482
40205SOL    HW222623   9.212   1.541   1.337  1.5885  0.6679  0.7301
40206SOL     OW22624   3.929   7.463   2.925 -0.3741  0.0036  0.2169
40206SOL    HW122625   3.856   7.403   2.937  1.4106 -2.2730  0.4472
40206SOL    HW222626   3.990   7.415   2.868  0.2023  2.5198 -1.4527
40207SOL     OW22627   0.835  10.578   0.593 -0.4065  0.7662  0.3930
40207SOL    HW122628   0.740  10.570   0.583 -0.2045 -2.8139 -0.0648
40207SOL    HW222629   0.848  10.600   0.685 -1.6534  0.2955  0.7017
40208SOL     OW22630   0.150   8.455  10.722  0.2467 -0.5265 -1.2473
40208SOL    HW122631   0.188   8.542  10.714  0.1041 -0.5690 -2.8451
40208SOL    HW222632   0.107   8.440  10.637 -0.9043 -1.6002 -0.5159
40209SOL     OW22633   2.718   8.660   3.046  0.2260 -0.1122 -0.0812
40209SOL    HW122634   2.637   8.660   3.097 -0.0468  0.7065 -0.5046
40209SOL    HW222635   2.782   8.617   3.104 -0.5661 -1.0218  0.1410
40210SOL     OW22636   5.725   2.643   8.233  0.2767 -0.2143  0.3058
40210SOL    HW122637   5.726   2.633   8.328  0.9369  1.9424  0.5811
40210SOL    HW222638   5.816   2.662   8.210  0.3460 -1.7591 -0.9440
40211SOL     OW22639   1.653   4.157   3.275 -0.6633 -0.0488  0.0131
40211SOL    HW122640   1.672   4.244   3.238 -0.3733 -0.3004 -0.4426
40211SOL    HW222641   1.725   4.140   3.335  0.2335 -0.6991 -1.1861
40212SOL     OW22642  10.548   3.973   4.474 -0.2525 -0.1801 -0.1989
40212SOL    HW122643  10.496   3.907   4.429 -1.4984 -0.4095  1.4860
40212SOL    HW222644  10.484   4.040   4.499  0.5522  0.3604  0.4481
40213SOL     OW22645   1.477   9.722   7.684  0.3412  0.1998  0.0874
40213SOL    HW122646   1.417   9.755   7.751  2.6351  2.0046  1.3999
40213SOL    HW222647   1.441   9.636   7.661 -3.7279  1.8705 -0.6299
40214SOL     OW22648   8.111   8.254   2.772  0.2375  0.0167 -0.1508
40214SOL    HW122649   8.100   8.276   2.680  1.8672  0.7391 -0.2081
40214SOL    HW222650   8.028   8.213   2.797 -1.3887  2.4433 -1.1631
40215SOL     OW22651   3.175   8.780   4.488  0.0791 -0.0616  0.2987
40215SOL    HW122652   3.228   8.750   4.561 -1.3435 -0.1150  1.3687
40215SOL    HW222653   3.198   8.873   4.478 -0.8616  0.3818  1.9172
40216SOL     OW22654   1.894   5.394  10.687  0.3926  0.3079  0.2142
40216SOL    HW122655   1.821   5.372  10.630 -1.3757  2.6843  1.4105
40216SOL    HW222656   1.952   5.447  10.633  1.9625 -2.4584 -1.0694
40217SOL     OW22657  10.666   9.309   1.158 -0.8350 -0.1685 -0.1162
40217SOL    HW122658  10.670   9.387   1.103 -1.0996 -0.6111 -0.7820
40217SOL    HW222659  10.594   9.257   1.121 -2.6374  0.5965  2.1081
40218SOL     OW22660   4.501   9.773   1.915  0.3916 -0.0089  0.1981
40218SOL    HW122661   4.521   9.780   1.822  0.0907  0.0054  0.1324
40218SOL    HW222662   4.446   9.849   1.934  0.4956  0.0179  0.4005
40219SOL     OW22663   1.303   7.692   6.199  0.1734  0.6289  0.3973
40219SOL    HW122664   1.328   7.655   6.114 -0.3989  1.8582 -0.3241
40219SOL    HW222665   1.244   7.627   6.237  1.6757 -0.6943  0.5965
40220SOL     OW22666   6.881   4.863  10.262  0.5626  0.2562  0.1244
40220SOL    HW122667   6.891   4.811  10.342 -0.4465  0.6593  0.5290
40220SOL    HW222668   6.861   4.951  10.294 -1.0641  0.1630 -0.5606
40221SOL     OW22669  10.130   0.704   0.329 -0.5430  0.0864  0.1682
40221SOL    HW122670  10.122   0.780   0.272  1.3751  0.7015  0.6283
40221SOL    HW222671  10.222   0.677   0.319 -0.0952  0.2842  2.9799
40222SOL     OW22672  11.001   6.751   1.822  0.2043 -0.0034 -0.1232
40222SOL    HW122673  11.024   6.825   1.878  0.8500 -0.5902  0.3986
40222SOL    HW222674  10.926   6.783   1.771  0.7160  1.1479 -0.1984
40223SOL     OW22675   2.271   4.271   1.231 -0.0685  0.3235  0.0885
40223SOL    HW122676   2.194   4.328   1.226 -1.1912 -1.1468  0.2372
40223SOL    HW222677   2.243   4.188   1.193  1.2074 -0.5123  0.8819
40224SOL     OW22678   6.651   4.761   2.181  0.4554 -0.0038 -0.2504
40224SOL    HW122679   6.694   4.741   2.098 -1.7861  0.9025 -1.7439
40224SOL    HW222680   6.557   4.756   2.161 -0.2214 -1.8481  2.7826
40225SOL     OW22681   2.574   7.048   2.917 -0.3167 -0.9950 -0.1030
40225SOL    HW122682   2.542   7.012   2.834  0.0176  0.7545 -1.0367
40225SOL    HW222683   2.612   6.973   2.962  0.7716 -1.7642 -2.1564
40226SOL     OW22684   0.859   3.004   0.056  0.1700  0.1898  0.6194
40226SOL    HW122685   0.953   3.024   0.055  0.3587 -0.6328  1.1539
40226SOL    HW222686   0.822   3.060  -0.013  0.8384  1.5309  1.3175
40227SOL     OW22687   2.424   4.203   1.915  0.3268  0.1458  0.3767
40227SOL    HW122688   2.490   4.137   1.935 -1.4105 -1.5268  0.8364
40227SOL    HW222689   2.468   4.262   1.853  2.0936 -1.1546  0.3082
40228SOL     OW22690   8.162  10.615   7.908 -0.2295 -0.3322  0.4910
40228SOL    HW122691   8.245  10.570   7.893 -0.7270 -1.6264  1.4330
40228SOL    HW222692   8.106  10.585   7.837  0.4011  1.4540 -0.8440
40229SOL     OW22693  10.011   7.578   4.657  0.3671 -0.4654  0.3802
40229SOL    HW122694  10.051   7.537   4.580 -0.2654 -1.3071  0.4738
40229SOL    HW222695   9.951   7.510   4.691  0.4167  0.0010  1.4334
40230SOL     OW22696  10.179   3.677   5.130  0.4336  0.1901  0.0740
40230SOL    HW122697  10.130   3.670   5.211  0.2222  1.1745  0.0422
40230SOL    HW222698  10.242   3.604   5.133 -1.6383 -1.7205 -0.3513
40231SOL     OW22699  10.087   2.050   5.108  0.0020 -0.4422  0.3244
40231SOL    HW122700  10.138   2.054   5.027  2.3528 -0.8166  1.6989
40231SOL    HW222701  10.062   1.958   5.116 -1.0117 -0.2473 -0.3818
40232SOL     OW22702   8.736  10.644   2.677 -0.3682 -0.4346 -0.4157
40232SOL    HW122703   8.660  10.611   2.724 -0.8012  0.5284 -0.4194
40232SOL    HW222704   8.705  10.659   2.588 -0.5949  1.3007 -0.0829
40233SOL     OW22705   6.983   9.746   3.240  0.1464  0.0788  0.2077
40233SOL    HW122706   6.905   9.744   3.295 -0.7503  2.3964 -0.8763
40233SOL    HW222707   6.950   9.744   3.151  1.4333 -0.6008 -0.2820
40234SOL     OW22708  10.243   3.919   2.701  0.2919  0.3603  0.1548
40234SOL    HW122709  10.177   3.984   2.677  1.1910  0.6570 -1.7165
40234SOL    HW222710  10.205   3.835   2.678  0.0791  0.4241  0.2739
40235SOL     OW22711   5.687   6.738   8.309  0.1620 -0.3839  0.0472
40235SOL    HW122712   5.746   6.684   8.362  0.1107 -1.2415 -0.7673
40235SOL    HW222713   5.653   6.679   8.242  0.3670  0.7303 -1.0719
40236SOL     OW22714   2.339   9.787   6.420 -0.3681  0.1780  0.3747
40236SOL    HW122715   2.409   9.736   6.379 -1.5291 -1.6224  0.5399
40236SOL    HW222716   2.324   9.859   6.359  1.0149  0.0995 -0.0946
40237SOL     OW22717   8.564  10.032   9.300  0.5601  0.4850  0.4760
40237SOL    HW122718   8.641  10.089   9.304  1.8667 -1.1108 -0.2826
40237SOL    HW222719   8.599   9.947   9.272 -1.2264 -0.7826  1.8163
40238SOL     OW22720   2.360   8.042   1.997  0.5328  0.5361  0.3947
40238SOL    HW122721   2.361   8.132   1.963  3.0192  0.7937  0.9127
40238SOL    HW222722   2.291   7.998   1.948  0.2627  2.3275 -0.9452
40239SOL     OW22723   0.851   6.780   5.544  0.3830 -0.6086 -0.3798
40239SOL    HW122724   0.928   6.808   5.495  0.0182 -0.2182 -0.7375
40239SOL    HW222725   0.794   6.739   5.478  0.8397 -2.0728  0.0967
40240SOL     OW22726   8.373   6.636   5.186  0.3946 -0.3780 -0.3237
40240SOL    HW122727   8.372   6.676   5.273 -0.6074  0.5389 -0.7279
40240SOL    HW222728   8.349   6.545   5.201  0.9207 -0.4052  0.4270
40241SOL     OW22729   6.109   7.879   6.742  0.0315 -0.4197  0.3925
40241SOL    HW122730   6.158   7.959   6.759  0.5282 -0.3976 -1.0000
40241SOL    HW222731   6.042   7.877   6.811  0.2049  1.0183  0.6434
40242SOL     OW22732  10.329   6.685   9.818  0.7620  0.1177 -0.1477
40242SOL    HW122733  10.352   6.743   9.745  1.6119  0.1272  0.1198
40242SOL    HW222734  10.350   6.597   9.786 -0.8636 -0.1033 -0.6880
40243SOL     OW22735   4.052   3.832   5.901 -0.5274  0.0829  0.4121
40243SOL    HW122736   4.091   3.802   5.983  0.6070 -0.9212 -0.4501
40243SOL    HW222737   4.099   3.913   5.880 -1.6116  0.9696  1.3021
40244SOL     OW22738   1.099   3.088   9.126  0.0493 -0.1007 -0.1251
40244SOL    HW122739   1.173   3.080   9.185  0.8300  0.5934 -0.9776
40244SOL    HW222740   1.043   3.155   9.166 -0.2936 -0.8488  0.6808
40245SOL     OW22741   2.893   4.511   9.647  0.0779 -0.7642  0.3226
40245SOL    HW122742   2.900   4.604   9.623  0.3580 -0.9342 -0.2639
40245SOL    HW222743   2.831   4.510   9.720 -1.4996 -0.3233 -0.9498
40246SOL     OW22744   2.293   2.573   0.778  0.1688 -0.2790 -0.0989
40246SOL    HW122745   2.350   2.498   0.765  0.4010 -0.2655  0.7903
40246SOL    HW222746   2.232   2.569   0.705 -0.9093 -2.3272  0.8253
40247SOL     OW22747   2.410   5.697  10.226 -0.4338  0.0167  0.4076
40247SOL    HW122748   2.426   5.704  10.132 -0.3657 -2.2216  0.2062
40247SOL    HW222749   2.434   5.783  10.261  2.8814 -0.1417 -1.1292
40248SOL     OW22750  10.057   3.977   4.730 -0.2556 -0.2074  0.0402
40248SOL    HW122751  10.006   4.031   4.669  0.7703 -0.9175 -1.4836
40248SOL    HW222752   9.995   3.956   4.800 -0.8206  2.5706  0.4997
40249SOL     OW22753   9.029   5.452   2.516 -0.1613 -0.5491 -0.5441
40249SOL    HW122754   9.066   5.369   2.487 -1.0703 -0.4643 -2.0305
40249SOL    HW222755   9.101   5.515   2.506  0.2201 -0.9560 -0.4023
40250SOL     OW22756   4.080   5.700   9.924  0.2406  0.4470  0.3520
40250SOL    HW122757   4.024   5.664   9.855  2.3304  1.5774 -2.0805
40250SOL    HW222758   4.099   5.789   9.896  1.6311  0.7738  2.1308
40251SOL     OW22759   8.978   6.483   3.749 -0.5032  0.3610  0.3495
40251SOL    HW122760   8.913   6.507   3.814  0.2907  0.3924  1.1557
40251SOL    HW222761   8.934   6.420   3.692 -0.6776 -1.0598  1.9976
40252SOL     OW22762   6.741   3.102   6.469  0.6207  0.6029  0.0663
40252SOL    HW122763   6.812   3.037   6.466  0.1023 -0.1385  2.2587
40252SOL    HW222764   6.694   3.082   6.550 -1.0536  2.1859 -0.4684
40253SOL     OW22765   2.175   7.147   6.231 -0.3411 -0.3183 -0.0519
40253SOL    HW122766   2.199   7.055   6.220 -2.8629 -1.1990  1.0553
40253SOL    HW222767   2.228   7.177   6.304  0.7759 -0.7526 -0.6608
40254SOL     OW22768   5.361   2.983  10.549  0.0150 -0.7701  0.0420
40254SOL    HW122769   5.335   3.030  10.470  0.0772  0.2033  0.5788
40254SOL    HW222770   5.306   3.020  10.618 -0.8311 -2.3902  0.2805
40255SOL     OW22771  11.052   4.658   1.130 -0.0375 -0.1346  0.0431
40255SOL    HW122772  11.023   4.573   1.163 -1.1504  0.7334  1.3975
40255SOL    HW222773  11.119   4.636   1.065  0.2065 -2.0101  0.8518
40256SOL     OW22774   4.308   5.015  10.746 -0.2161  0.2248 -0.2184
40256SOL    HW122775   4.314   5.101  10.788  3.1413  0.0838 -0.1340
40256SOL    HW222776   4.352   4.956  10.806 -0.2239 -1.0802 -1.4456
40257SOL     OW22777   5.038   4.692   7.560 -0.1985  0.5655 -0.2615
40257SOL    HW122778   5.076   4.747   7.492  1.1225  0.5621  0.4518
40257SOL    HW222779   5.073   4.727   7.642  1.1401 -1.6419  0.1841
40258SOL     OW22780   9.869   4.390   7.231  0.1157  0.0935 -0.4371
40258SOL    HW122781   9.843   4.332   7.160 -1.1894 -1.9975  1.6058
40258SOL    HW222782   9.934   4.449   7.192 -0.2903 -1.1662 -3.2139
40259SOL     OW22783   4.646   7.017   2.054  0.0822  0.0952 -0.0573
40259SOL    HW122784   4.610   6.964   2.125  1.0024 -2.3284 -1.3132
40259SOL    HW222785   4.580   7.086   2.041 -1.2936 -0.8436  1.4832
40260SOL     OW22786   7.621   0.679   8.555 -0.1049  0.0286  0.0780
40260SOL    HW122787   7.662   0.706   8.638  0.8086  2.5494 -1.0788
40260SOL    HW222788   7.527   0.687   8.571 -0.0244 -1.1375  1.3336
40261SOL     OW22789   6.904   8.788   5.641  0.3505  0.0448  0.3552
40261SOL    HW122790   6.904   8.879   5.613  0.1520  0.6194  2.0891
40261SOL    HW222791   6.813   8.759   5.631  0.6354 -0.3595 -1.3074
40262SOL     OW22792   5.780   5.368   8.625  0.3922  0.0967 -0.2323
40262SOL    HW122793   5.821   5.444   8.586  0.8202  0.8724  1.5997
40262SOL    HW222794   5.687   5.377   8.604  0.0724  2.3542  1.6895
40263SOL     OW22795   1.227   5.104   0.653 -0.2083  0.1489  0.2680
40263SOL    HW122796   1.276   5.047   0.594 -1.4448 -0.7192  0.0376
40263SOL    HW222797   1.167   5.152   0.596  1.3774  2.3805  0.3429
40264SOL     OW22798   0.193  10.873   7.013 -0.4010  0.0768  0.5827
40264SOL    HW122799   0.228  10.800   7.064 -0.5295 -1.3451 -1.2707
40264SOL    HW222800   0.163  10.833   6.931  0.6486  2.3591 -1.0240
40265SOL     OW22801   7.515   7.770   4.971 -0.1417  0.0516 -0.1857
40265SOL    HW122802   7.435   7.807   5.009 -0.8673 -1.7367  0.1246
40265SOL    HW222803   7.585   7.810   5.022 -0.9883 -0.4622  1.4742
40266SOL     OW22804  10.884   2.696   8.630 -0.1407 -0.0963 -0.3217
40266SOL    HW122805  10.911   2.638   8.559 -2.5854  0.8113 -2.1206
40266SOL    HW222806  10.789   2.701   8.623 -0.3950  0.7712  2.5016
40267SOL     OW22807  10.235   5.831   6.618 -0.3133  0.5450  0.1813
40267SOL    HW122808  10.325   5.801   6.610 -1.0110 -1.3160 -1.7529
40267SOL    HW222809  10.194   5.769   6.678 -0.4386  1.1273  0.7144
40268SOL     OW22810   9.353   5.827  10.007 -0.6336  0.2658  0.4810
40268SOL    HW122811   9.402   5.782  10.076  1.1845  0.2513 -0.7490
40268SOL    HW222812   9.262   5.821  10.035 -0.1765 -1.6584  1.7768
40269SOL     OW22813   3.303   4.680   7.143 -0.5947 -0.1083 -0.6656
40269SOL    HW122814   3.265   4.669   7.230 -0.2074  0.3512 -0.4376
40269SOL    HW222815   3.247   4.627   7.086  0.0376 -1.6441  0.0819
40270SOL     OW22816   1.443   5.078   7.627  0.6407  0.1564  0.3392
40270SOL    HW122817   1.410   4.989   7.625 -0.0644  0.4047 -1.8300
40270SOL    HW222818   1.365   5.133   7.633  0.7746  0.6608 -1.6838
40271SOL     OW22819  10.261   0.089   1.527 -0.0661 -0.2452  0.0771
40271SOL    HW122820  10.180   0.098   1.577  0.4683 -0.2353  0.9620
40271SOL    HW222821  10.234   0.050   1.444 -1.2018  1.2853 -0.3089
40272SOL     OW22822   2.440  10.370   4.247  0.3434  0.2676 -0.1479
40272SOL    HW122823   2.456  10.311   4.174 -0.4327 -1.3818  0.9555
40272SOL    HW222824   2.346  10.365   4.263  0.5103  0.5178  1.0196
40273SOL     OW22825   5.187   4.441   2.850 -0.1124 -0.2134 -0.4384
40273SOL    HW122826   5.177   4.491   2.931 -1.4109 -0.4440 -0.4270
40273SOL    HW222827   5.211   4.506   2.784 -1.4129  0.3987 -0.3464
40274SOL     OW22828   0.677   9.271   2.007 -0.3982  0.3436  0.4522
40274SOL    HW122829   0.722   9.350   1.974 -0.3063  0.3851  0.6759
40274SOL    HW222830   0.727   9.198   1.970 -1.9610  0.3221 -1.8802
40275SOL     OW22831   1.255   6.156   7.237 -0.5934 -0.0492  0.1087
40275SOL    HW122832   1.238   6.226   7.174 -0.7581  0.7632  1.0393
40275SOL    HW222833   1.229   6.076   7.191 -0.5073  0.5046 -0.9271
40276SOL     OW22834  10.639   6.158   2.931  0.3573 -0.6309  0.4500
40276SOL    HW122835  10.647   6.238   2.983 -0.4683 -0.0719 -0.2556
40276SOL    HW222836  10.593   6.097   2.988  2.3238 -1.1636  1.5646
40277SOL     OW22837  10.589   3.844   4.751 -0.2809  0.1478  0.0884
40277SOL    HW122838  10.591   3.763   4.699  0.7322  1.2388 -1.6649
40277SOL    HW222839  10.496   3.859   4.768 -0.5583 -0.8091 -0.4781
40278SOL     OW22840   1.524   0.417   9.937  0.4252 -0.1296 -0.7187
40278SOL    HW122841   1.458   0.437   9.871  2.6107  1.5176 -2.5723
40278SOL    HW222842   1.572   0.343   9.900  1.3096  0.4443 -0.7521
40279SOL     OW22843   9.204   8.448   2.023  0.4773  0.6330 -0.2084
40279SOL    HW122844   9.154   8.529   2.013  1.4687  1.3923  0.7008
40279SOL    HW222845   9.140   8.378   2.009 -1.2497  1.5384  2.4186
40280SOL     OW22846  10.115   8.647   6.432  0.1608  0.1756 -0.0703
40280SOL    HW122847  10.049   8.650   6.363  0.1967  1.3856 -0.0733
40280SOL    HW222848  10.186   8.593   6.396 -0.6458 -0.8044 -0.2142
40281SOL     OW22849   9.443   5.183   5.330 -0.2878 -0.4957 -0.1825
40281SOL    HW122850   9.429   5.234   5.251  1.4470  2.3570  1.1969
40281SOL    HW222851   9.529   5.210   5.362 -0.6894 -1.9019  2.4115
40282SOL     OW22852   5.842  10.224   7.559  0.1153  0.2640  0.0846
40282SOL    HW122853   5.749  10.212   7.580  0.0610  2.7583  1.6977
40282SOL    HW222854   5.843  10.246   7.466 -1.0336  1.0942  0.2499
40283SOL     OW22855   9.062   5.002   7.422 -0.1641  0.6451  0.8162
40283SOL    HW122856   9.148   4.982   7.385 -0.0198  0.5817  1.1800
40283SOL    HW222857   9.079   5.013   7.516 -0.4085  1.4789  0.7716
40284SOL     OW22858   4.204   4.545   5.813 -0.3515 -0.3763 -0.5708
40284SOL    HW122859   4.268   4.477   5.791  1.1013  1.3220 -1.8577
40284SOL    HW222860   4.247   4.598   5.879 -1.9314 -1.2847  1.2949
40285SOL     OW22861   0.160  10.802   3.403 -0.5602 -0.0771 -0.0331
40285SOL    HW122862   0.074  10.822   3.366 -0.1244  0.2976 -0.8878
40285SOL    HW222863   0.159  10.707   3.414 -0.8774 -0.1459 -0.5963
40286SOL     OW22864  10.084   0.357   0.863  0.1149  0.5653  0.0791
40286SOL    HW122865   9.992   0.353   0.888  0.2597 -0.7147  0.5131
40286SOL    HW222866  10.086   0.334   0.770 -0.0670  1.3651 -0.1254
40287SOL     OW22867   5.405   9.210   7.347  0.2836  0.1979  0.6823
40287SOL    HW122868   5.343   9.195   7.418 -0.7392 -0.0842 -0.2501
40287SOL    HW222869   5.446   9.294   7.370 -2.4318  1.8728 -0.0104
40288SOL     OW22870   9.020   0.219  10.088 -0.3628  0.2593  0.1160
40288SOL    HW122871   8.976   0.186  10.166  0.6277  0.9184  0.9721
40288SOL    HW222872   8.962   0.194  10.016 -1.0233 -0.8469  0.9932
40289SOL     OW22873   6.939   8.846   9.598  0.3448  0.3564  0.4350
40289SOL    HW122874   6.858   8.867   9.645  0.3282  0.4268  0.3739
40289SOL    HW222875   7.009   8.871   9.659  0.3381  1.1746  0.1195
40290SOL     OW22876   2.685   8.427   4.684  0.5284  0.2520 -0.2316
40290SOL    HW122877   2.705   8.356   4.623  0.0486  0.1574 -0.2847
40290SOL    HW222878   2.661   8.501   4.629  1.4998  0.6121 -0.1884
40291SOL     OW22879   0.378   4.872   1.581  0.4211  0.0086 -0.4899
40291SOL    HW122880   0.380   4.936   1.652  1.0778 -1.5302  0.9344
40291SOL    HW222881   0.463   4.880   1.539  0.8918 -0.5989  0.3259
40292SOL     OW22882   3.477   4.466   1.999  0.2830  0.3112 -0.4868
40292SOL    HW122883   3.402   4.439   2.052  0.6576 -0.9633 -0.5693
40292SOL    HW222884   3.553   4.429   2.045  0.9566  2.1136 -0.0448
40293SOL     OW22885   2.487   1.341  10.141  0.2604 -0.4796 -0.1808
40293SOL    HW122886   2.495   1.327  10.046  0.7535 -1.0231 -0.0632
40293SOL    HW222887   2.514   1.257  10.179  0.8171 -0.0043  0.4669
40294SOL     OW22888   2.616   4.973   7.046 -0.1876  0.4856  0.2641
40294SOL    HW122889   2.538   5.016   7.080  0.3428  0.3086  1.8084
40294SOL    HW222890   2.628   5.010   6.959 -1.3746  1.3105  0.4267
40295SOL     OW22891   9.389   9.922   4.182  0.4136  1.1715  0.1610
40295SOL    HW122892   9.354   9.963   4.103  0.9427  2.6488  0.6517
40295SOL    HW222893   9.483   9.919   4.167  0.2562 -2.8580 -1.1940
40296SOL     OW22894  10.158   4.043   3.495  0.5387 -0.0200 -0.0319
40296SOL    HW122895  10.228   3.978   3.488  0.5869 -0.2336  2.0106
40296SOL    HW222896  10.181   4.109   3.429  1.4916 -1.1280 -0.8531
40297SOL     OW22897  10.495   1.497   0.122 -0.1212 -0.6232  0.2495
40297SOL    HW122898  10.413   1.453   0.144  0.1425 -1.4585 -0.3624
40297SOL    HW222899  10.554   1.426   0.095  0.2274  0.1224 -1.0818
40298SOL     OW22900   9.382   6.592   1.064 -0.2051 -0.6072  0.1755
40298SOL    HW122901   9.292   6.574   1.038 -0.7028 -0.2571  1.5751
40298SOL    HW222902   9.429   6.510   1.049 -1.0042 -1.1220  0.4793
40299SOL     OW22903   2.450   6.681   2.601  0.0834 -0.0501 -0.0544
40299SOL    HW122904   2.449   6.647   2.691 -1.1681 -1.7725 -0.6578
40299SOL    HW222905   2.368   6.651   2.563  0.7257  0.3602 -1.8927
40300SOL     OW22906   4.378   6.506   5.051 -0.1065  0.3903  0.1226
40300SOL    HW122907   4.411   6.419   5.072 -0.7226 -0.7728 -3.1764
40300SOL    HW222908   4.302   6.517   5.109 -1.8467 -2.6199 -1.3503
40301SOL     OW22909   5.879   2.861   6.201  0.7068 -0.4766 -0.1169
40301SOL    HW122910   5.957   2.893   6.246  1.0655 -1.3046 -0.1161
40301SOL    HW222911   5.805   2.899   6.248  1.0854 -1.0278  0.9419
40302SOL     OW22912   3.434   4.070   2.357 -0.1094  0.1924 -0.2155
40302SOL    HW122913   3.427   4.151   2.307  2.0741 -0.3833 -1.6024
40302SOL    HW222914   3.374   4.082   2.431 -1.7414  2.0033 -1.7196
40303SOL     OW22915   8.705   1.610   3.448 -0.3358  0.2678  0.0442
40303SOL    HW122916   8.784   1.662   3.433 -0.6040  0.6500 -0.0547
40303SOL    HW222917   8.665   1.602   3.362  1.3800 -2.8996 -0.6309
40304SOL     OW22918   1.223   7.458   9.332 -0.6266 -0.0575  0.0625
40304SOL    HW122919   1.249   7.376   9.289  1.1475  0.5763 -0.1777
40304SOL    HW222920   1.164   7.431   9.402  0.7769 -1.6809  0.6856
40305SOL     OW22921   2.276   6.040   6.580 -0.0444 -1.0600 -0.2157
40305SOL    HW122922   2.347   6.081   6.630  0.6071 -2.3344 -0.0531
40305SOL    HW222923   2.275   6.088   6.497  1.2825 -1.2656 -0.3702
40306SOL     OW22924  11.059   7.388   6.474  0.5555  0.6342 -0.2548
40306SOL    HW122925  11.106   7.443   6.411  0.6587 -0.1692 -0.8895
40306SOL    HW222926  10.976   7.434   6.488  0.4413  0.7172 -1.1416
40307SOL     OW22927   9.719   4.136   2.425  0.6239  0.3193 -0.0307
40307SOL    HW122928   9.683   4.190   2.354 -0.5409 -0.6142 -0.1762
40307SOL    HW222929   9.666   4.057   2.424  0.6245  0.2511  1.8629
40308SOL     OW22930  10.394   9.891   0.480  0.2490  0.3703  0.1528
40308SOL    HW122931  10.468   9.926   0.431 -0.3044 -0.2352 -1.1500
40308SOL    HW222932  10.337   9.852   0.414 -1.5518  1.3434  1.0250
40309SOL     OW22933   2.557  10.829   7.994 -0.0869  0.0898  0.7177
40309SOL    HW122934   2.624  10.897   7.985  0.1646 -0.0065  1.7978
40309SOL    HW222935   2.569  10.774   7.916  0.7229  0.3890  0.6182
40310SOL     OW22936   8.043   6.093   5.345 -0.1222  0.0863 -0.3919
40310SOL    HW122937   8.026   6.082   5.251 -0.6979 -0.5577 -0.2194
40310SOL    HW222938   8.002   6.176   5.367  4.4173  3.0583 -1.7528
40311SOL     OW22939   7.267   1.656   1.319  0.0303  0.4388  0.4633
40311SOL    HW122940   7.281   1.568   1.353  0.3131 -0.1242 -1.0344
40311SOL    HW222941   7.194   1.648   1.259  0.9127  0.9205 -0.7204
40312SOL     OW22942  10.438   5.347   8.136  0.1302 -0.4985  0.2272
40312SOL    HW122943  10.428   5.318   8.046 -1.4380 -1.1649  0.5874
40312SOL    HW222944  10.486   5.276   8.179  0.6438 -0.2990 -0.0050
40313SOL     OW22945  11.018   6.057   5.981 -0.0521  0.1874  0.4322
40313SOL    HW122946  10.993   6.064   6.073 -2.7588  1.1669 -0.2789
40313SOL    HW222947  11.074   6.132   5.965  0.2572  0.1280  1.2090
40314SOL     OW22948   6.521   2.721   3.714  0.0829 -0.2366  0.0488
40314SOL    HW122949   6.566   2.763   3.641 -0.0335 -0.9772 -0.4707
40314SOL    HW222950   6.524   2.784   3.785 -1.2682  1.1913 -1.1007
40315SOL     OW22951   8.790   3.508   2.129 -0.3468  0.4086 -0.2632
40315SOL    HW122952   8.787   3.492   2.035 -1.6414 -1.1228 -0.0159
40315SOL    HW222953   8.804   3.421   2.167  0.4736  1.0421  0.9632
40316SOL     OW22954   6.509   7.728   3.111 -0.5738 -0.0232 -0.4241
40316SOL    HW122955   6.528   7.665   3.180  0.3704 -1.0367 -1.5534
40316SOL    HW222956   6.595   7.753   3.078 -0.9942  0.8313 -0.8993
40317SOL     OW22957   7.801   2.980   4.867 -0.0394  0.3014  0.1469
40317SOL    HW122958   7.804   3.061   4.919 -0.0104  1.7664 -2.0357
40317SOL    HW222959   7.892   2.966   4.840 -0.4790  1.3293 -2.0375
40318SOL     OW22960   0.744   6.884   5.205  0.3125 -0.1298  0.1105
40318SOL    HW122961   0.796   6.804   5.208  0.4612 -0.0507 -0.3729
40318SOL    HW222962   0.711   6.890   5.116 -0.1160  0.0873  0.2748
40319SOL     OW22963   9.505   9.797   4.721  0.4289  0.8031 -0.4263
40319SOL    HW122964   9.593   9.763   4.704  0.7392  0.8301  0.9719
40319SOL    HW222965   9.473   9.825   4.636  1.7865  0.7996 -0.9665
40320SOL     OW22966   2.791   4.797   8.361  0.2086  0.3038 -0.8996
40320SOL    HW122967   2.882   4.766   8.361  0.7003  1.6627 -0.0700
40320SOL    HW222968   2.776   4.829   8.272  0.7271  0.5429 -0.9045
40321SOL     OW22969   0.406   3.882   5.410 -0.3758 -0.0862  0.4665
40321SOL    HW122970   0.368   3.866   5.324 -2.6447  1.0287  1.1850
40321SOL    HW222971   0.447   3.799   5.433  0.6129 -0.3073 -1.8073
40322SOL     OW22972   8.066   0.571   1.688  0.0316  0.1455  0.7061
40322SOL    HW122973   8.113   0.654   1.693  1.9272 -0.7577 -0.8143
40322SOL    HW222974   7.990   0.590   1.633  1.4492  0.4966 -1.2077
40323SOL     OW22975  10.910   8.334   6.478  0.1034 -0.3624  0.2164
40323SOL    HW122976  10.888   8.311   6.568  0.4077 -2.2515 -0.1534
40323SOL    HW222977  10.835   8.386   6.448 -1.0483 -1.5882  0.8623
40324SOL     OW22978   8.199   2.808   6.530 -0.7824 -0.0402 -0.1668
40324SOL    HW122979   8.250   2.876   6.575 -0.9887 -1.0015  1.5844
40324SOL    HW222980   8.250   2.787   6.452 -0.2786  1.4914 -0.2808
40325SOL     OW22981  10.179   6.465   6.931 -0.5838  0.1507 -0.4464
40325SOL    HW122982  10.230   6.467   6.850 -0.3662  2.6236 -0.3303
40325SOL    HW222983  10.233   6.513   6.994 -2.8240  2.6020 -0.2320
40326SOL     OW22984   5.241   8.687   1.241 -0.6816  0.0083 -0.4067
40326SOL    HW122985   5.281   8.629   1.177  2.0109  0.0425  1.1217
40326SOL    HW222986   5.206   8.628   1.308 -0.0133  0.0578 -0.0054
40327SOL     OW22987   1.154   8.466   7.049 -0.3269 -0.2687 -0.3145
40327SOL    HW122988   1.063   8.470   7.077  0.1590  0.5345  1.2331
40327SOL    HW222989   1.205   8.487   7.127  1.2405 -1.7100 -0.8860
40328SOL     OW22990   6.438   8.660   6.809 -0.1911 -0.0536 -0.1467
40328SOL    HW122991   6.434   8.573   6.770  1.6583  0.3294 -1.2961
40328SOL    HW222992   6.372   8.658   6.878 -1.3692 -1.8023 -1.2373
40329SOL     OW22993   3.064   1.380   3.518  0.0055 -0.7736 -0.1568
40329SOL    HW122994   3.001   1.326   3.471 -1.5802  0.0466  0.9488
40329SOL    HW222995   3.106   1.433   3.450 -1.2494 -0.5934 -0.8090
40330SOL     OW22996  10.723   5.902   8.006  0.1280  0.0572  0.3653
40330SOL    HW122997  10.737   5.822   8.057  0.6663 -0.3923 -0.4655
40330SOL    HW222998  10.739   5.973   8.068  0.7176 -0.4742  0.8400
40331SOL     OW22999   7.386   5.231   0.243  0.5362 -0.4221 -0.1098
40331SOL    HW123000   7.389   5.150   0.192  0.9001 -1.6425  1.7450
40331SOL    HW223001   7.300   5.268   0.225  0.7291 -0.6863 -1.7332
40332SOL     OW23002  10.995   5.883   7.969 -0.2885 -0.1601 -0.0400
40332SOL    HW123003  11.038   5.966   7.949 -0.0427  0.6712  3.3168
40332SOL    HW223004  10.902   5.901   7.959 -0.1556 -0.2515 -1.6834
40333SOL     OW23005   7.231   1.539   5.819 -0.3280 -0.3573  0.0612
40333SOL    HW123006   7.269   1.619   5.781  2.0968 -1.3542  0.2457
40333SOL    HW223007   7.172   1.572   5.887  2.2269  1.3685  1.6549
40334SOL     OW23008   8.423   8.749   6.908  0.6453 -0.2236  0.5972
40334SOL    HW123009   8.405   8.833   6.951 -2.3712 -1.5710  2.3346
40334SOL    HW223010   8.488   8.707   6.964 -0.7243 -0.5478  2.0290
40335SOL     OW23011   0.948   3.996   9.465 -0.1206  0.0385  0.2456
40335SOL    HW123012   0.938   3.901   9.451 -0.7070 -0.0088  0.8904
40335SOL    HW223013   1.042   4.009   9.475  0.4806  0.1363 -3.8483
40336SOL     OW23014   1.483   6.938  10.356 -0.3276  0.8632 -0.0200
40336SOL    HW123015   1.399   6.976  10.330 -1.8176 -1.5570  0.9003
40336SOL    HW223016   1.533   6.933  10.274 -1.9917  0.2809 -1.0665
40337SOL     OW23017   3.164   3.274   2.408  0.2470  0.1565 -0.4259
40337SOL    HW123018   3.232   3.313   2.353  2.9098 -3.1294  0.2085
40337SOL    HW223019   3.085   3.275   2.353  0.7057  3.8236 -1.3031
40338SOL     OW23020   4.522   1.392   7.057 -0.0740  0.3226 -0.2561
40338SOL    HW123021   4.577   1.345   6.995  1.5766  2.7919 -0.7903
40338SOL    HW223022   4.580   1.415   7.129 -0.0060  3.7587 -1.2249
40339SOL     OW23023   9.696   5.782   4.152 -0.0947  0.0577  0.4229
40339SOL    HW123024   9.669   5.697   4.118  0.3116 -0.4165  1.2412
40339SOL    HW223025   9.790   5.772   4.168 -0.1605  0.4538  1.1028
40340SOL     OW23026  10.928   8.296   2.149 -0.0593  0.4002 -0.4929
40340SOL    HW123027  10.836   8.304   2.126 -0.2298  1.1905  0.3909
40340SOL    HW223028  10.943   8.364   2.215  0.7836 -0.6563  0.4701
40341SOL     OW23029  10.076   6.860   4.944  0.0398  0.1020  0.2095
40341SOL    HW123030  10.021   6.800   4.995  0.4049  0.3259  0.8786
40341SOL    HW223031  10.020   6.936   4.928 -0.0523  0.0650  0.3494
40342SOL     OW23032   7.306   5.201   3.951  0.4866  0.3354  0.4976
40342SOL    HW123033   7.212   5.214   3.954  0.5033  0.4369  0.6569
40342SOL    HW223034   7.318   5.107   3.945  0.3771  0.3111  0.6620
40343SOL     OW23035   5.931   5.541   3.502  0.4777  0.0254 -0.4671
40343SOL    HW123036   5.942   5.633   3.525  1.0941  0.0032 -0.6524
40343SOL    HW223037   5.988   5.528   3.426 -1.3662  0.0672 -1.9472
40344SOL     OW23038   6.094   1.404   4.059  0.2441  0.7559 -0.0558
40344SOL    HW123039   6.168   1.410   4.119  1.0210 -2.5798 -0.4858
40344SOL    HW223040   6.046   1.326   4.087 -2.3434  2.0072 -0.6897
40345SOL     OW23041   2.008   9.462   0.030 -0.0943 -0.2944 -0.1150
40345SOL    HW123042   1.993   9.373   0.062 -0.4263 -0.4568 -0.7022
40345SOL    HW223043   2.033   9.450  -0.061 -0.3865  0.2282 -0.2672
40346SOL     OW23044   0.430   3.851   7.174  0.4394 -0.0516  0.0389
40346SOL    HW123045   0.402   3.941   7.193  0.7717 -0.0477  0.5481
40346SOL    HW223046   0.391   3.799   7.244  0.9087 -0.1833  0.2071
40347SOL     OW23047   6.069   7.207   4.302  0.3539 -0.0443 -0.1374
40347SOL    HW123048   6.009   7.282   4.301  0.0627 -0.2492  0.8216
40347SOL    HW223049   6.107   7.207   4.390 -1.5232 -2.4358  0.8025
40348SOL     OW23050   8.768   5.707  10.504  0.2226 -0.2171 -0.8842
40348SOL    HW123051   8.850   5.714  10.553 -0.2763  0.2755 -0.0707
40348SOL    HW223052   8.776   5.773  10.435 -0.5359  1.8170  0.8460
40349SOL     OW23053  11.064   7.349   2.614 -0.2695  0.4082 -0.0922
40349SOL    HW123054  10.981   7.394   2.629  0.4905  1.8028  0.1683
40349SOL    HW223055  11.046   7.257   2.632 -1.3834  0.8918  1.4716
40350SOL     OW23056   3.761   7.365   2.567 -0.6085 -0.2098  0.3145
40350SOL    HW123057   3.794   7.366   2.657 -2.6559  0.1416  1.1129
40350SOL    HW223058   3.717   7.280   2.558 -0.6104 -0.1526 -0.2826
40351SOL     OW23059   0.408   5.048   9.526 -0.0996  0.3358 -0.1126
40351SOL    HW123060   0.374   4.963   9.556 -1.7641  0.9714 -0.0614
40351SOL    HW223061   0.432   5.093   9.607  0.4720  0.0399 -0.1158
40352SOL     OW23062  10.376   7.010   4.559  0.0725  0.2974  0.0709
40352SOL    HW123063  10.345   6.944   4.621 -1.4353  1.1568  0.2827
40352SOL    HW223064  10.368   7.093   4.606  0.8522  0.7665 -0.5873
40353SOL     OW23065   3.772   1.948   9.556 -0.2295  1.1194  0.5610
40353SOL    HW123066   3.771   1.853   9.561  1.6936  0.9206 -1.4960
40353SOL    HW223067   3.851   1.975   9.603  0.2478  1.5191 -0.4248
40354SOL     OW23068   1.648   5.571   5.123  0.6118  1.0719  1.0067
40354SOL    HW123069   1.593   5.583   5.200  0.4165  2.3140  0.6970
40354SOL    HW223070   1.720   5.516   5.152 -0.4368 -0.0291  1.5945
40355SOL     OW23071   8.121  10.962   6.559 -0.4301  0.1330 -0.1288
40355SOL    HW123072   8.170  11.006   6.629 -1.3576 -0.0520  0.6502
40355SOL    HW223073   8.111  11.029   6.491 -1.6017  1.0689  0.9305
40356SOL     OW23074   8.615   8.112   8.873  0.4201  0.6405 -0.0762
40356SOL    HW123075   8.533   8.071   8.846  0.7266 -0.2979  0.3518
40356SOL    HW223076   8.663   8.126   8.792  1.2308 -1.9081 -0.1307
40357SOL     OW23077   1.205   9.043   8.290 -0.1331 -0.1965 -0.5303
40357SOL    HW123078   1.171   8.964   8.249 -2.2696  0.8219 -0.8626
40357SOL    HW223079   1.127   9.097   8.306  1.3036  2.1157 -0.8991
40358SOL     OW23080   1.838   2.641   4.108  0.5448 -0.1481 -0.5377
40358SOL    HW123081   1.767   2.579   4.091  2.2468 -1.7638 -2.3706
40358SOL    HW223082   1.850   2.638   4.203 -2.0762  0.5733 -0.0977
40359SOL     OW23083   8.621   8.931   9.284 -0.0269 -0.5434  0.3102
40359SOL    HW123084   8.664   8.993   9.343 -0.1854 -0.2825  0.1525
40359SOL    HW223085   8.537   8.913   9.326 -0.4780  0.2552 -0.2258
40360SOL     OW23086  10.193   1.763   1.113 -0.1160 -0.5308 -0.0733
40360SOL    HW123087  10.166   1.687   1.165 -0.7363 -0.5962 -0.4823
40360SOL    HW223088  10.112   1.794   1.073  0.0697  0.5711  0.3809
40361SOL     OW23089   0.731   1.197   4.776 -0.2957 -0.2716 -0.2441
40361SOL    HW123090   0.762   1.129   4.836  0.2496  0.4196  0.2865
40361SOL    HW223091   0.712   1.272   4.833 -0.5820  0.1270 -0.8485
40362SOL     OW23092  10.053   8.589   9.899  0.1944  0.1355 -0.1838
40362SOL    HW123093  10.041   8.544   9.983  0.3343 -0.8207 -0.6533
40362SOL    HW223094  10.013   8.530   9.835  0.1665  0.8130 -0.7974
40363SOL     OW23095  10.698  10.107   6.588  0.1067 -0.5404  0.1386
40363SOL    HW123096  10.670  10.169   6.655 -1.1831 -0.6010 -0.3176
40363SOL    HW223097  10.725  10.162   6.515  2.9142 -0.4233  1.1661
40364SOL     OW23098  11.065   6.786   0.095 -0.1101  0.1585 -0.2873
40364SOL    HW123099  11.002   6.853   0.120 -0.9366  0.9548 -3.8799
40364SOL    HW223100  11.095   6.813   0.008 -1.0387 -4.4197 -2.3143
40365SOL     OW23101   2.341   3.724   3.177 -0.3180 -0.0256 -0.1589
40365SOL    HW123102   2.293   3.802   3.203  0.0965  0.8758 -2.0028
40365SOL    HW223103   2.343   3.670   3.257 -2.5851  0.7952  0.5209
40366SOL     OW23104   9.787   7.778   4.104  0.7003  0.8259  0.2659
40366SOL    HW123105   9.862   7.827   4.138  1.0878  0.7007 -0.3740
40366SOL    HW223106   9.713   7.839   4.110  1.0427  1.2621  0.0956
40367SOL     OW23107   2.254   8.141   3.671 -0.0287 -0.1777  0.4403
40367SOL    HW123108   2.204   8.191   3.606 -0.3862  1.6974  2.0388
40367SOL    HW223109   2.196   8.070   3.697  0.6402 -1.7920 -2.1783
40368SOL     OW23110   0.135   6.775   9.632  0.0000  1.1253  0.3541
40368SOL    HW123111   0.061   6.715   9.639  0.1928  0.7256 -0.8218
40368SOL    HW223112   0.196   6.746   9.700  0.4949 -0.6125 -0.7655
40369SOL     OW23113   5.734   1.025   5.280 -0.5811  0.0521  0.6062
40369SOL    HW123114   5.646   0.987   5.278 -1.0842  1.1402 -1.6772
40369SOL    HW223115   5.786   0.968   5.223 -0.3274  0.4730  0.4083
40370SOL     OW23116   8.379   8.881   9.974  0.2271  0.4250  0.6037
40370SOL    HW123117   8.328   8.828   9.913  2.8187 -0.2520 -1.1387
40370SOL    HW223118   8.342   8.968   9.966  0.3839  0.3464 -1.9496
40371SOL     OW23119   9.999   6.725   6.150  0.7461  0.3551  0.4768
40371SOL    HW123120   9.970   6.816   6.159  0.5049  0.2632  0.6584
40371SOL    HW223121  10.093   6.728   6.168  0.8510  0.6551 -0.0968
40372SOL     OW23122   6.174   3.085   5.424 -0.0554  0.1123  0.5226
40372SOL    HW123123   6.207   3.151   5.363  1.6341 -0.8960  0.2956
40372SOL    HW223124   6.134   3.136   5.495 -0.4224  1.3257 -0.5141
40373SOL     OW23125   6.034  10.933   3.730 -0.2366 -0.2671 -0.1345
40373SOL    HW123126   6.046  10.838   3.722 -1.8948 -0.3379 -3.1748
40373SOL    HW223127   6.110  10.970   3.684  1.3980  0.0582  2.5907
40374SOL     OW23128   2.403   5.925   2.247  0.1594  0.3319  0.6097
40374SOL    HW123129   2.350   5.887   2.317 -1.5643  2.4650  0.5461
40374SOL    HW223130   2.463   5.984   2.292  0.0411  0.6123  0.3997
40375SOL     OW23131   5.065   7.980   6.951  0.5861  0.0372  0.5068
40375SOL    HW123132   5.107   7.916   6.894 -1.1732 -0.3555 -0.4331
40375SOL    HW223133   4.975   7.983   6.921 -0.4673 -0.1916  3.2835
40376SOL     OW23134  10.231   3.009   7.266  0.4952  0.5658 -0.0669
40376SOL    HW123135  10.275   2.956   7.332 -2.3905 -0.2228  1.3903
40376SOL    HW223136  10.283   3.089   7.260  1.3352  0.2857  2.5355
40377SOL     OW23137   5.049   4.315   5.105  0.0144 -0.2606 -0.2216
40377SOL    HW123138   5.027   4.251   5.172 -1.3755  0.4921  0.0879
40377SOL    HW223139   5.069   4.395   5.153 -0.6099  0.1763 -0.6588
40378SOL     OW23140   1.651   2.169   3.253 -0.6364 -0.1776 -0.0908
40378SOL    HW123141   1.716   2.202   3.190 -0.5547  0.0605  0.1142
40378SOL    HW223142   1.657   2.230   3.327  0.2305 -1.2149  0.7274
40379SOL     OW23143   4.346   5.224   2.117  0.1237  0.3575  0.5482
40379SOL    HW123144   4.271   5.187   2.071  1.1539  1.5948 -2.4111
40379SOL    HW223145   4.375   5.154   2.176 -2.6304 -0.5330  0.9774
40380SOL     OW23146   0.908   4.832   9.293 -0.2594  0.3807  0.4778
40380SOL    HW123147   0.931   4.742   9.272 -0.5832  0.2463  0.6899
40380SOL    HW223148   0.812   4.833   9.291 -0.2972  0.4156  1.7544
40381SOL     OW23149   4.745  11.055   0.494 -0.1007  0.1506  0.1631
40381SOL    HW123150   4.765  10.964   0.472  0.2666  0.0602  0.8586
40381SOL    HW223151   4.747  11.101   0.409 -1.5664 -0.6995 -0.3778
40382SOL     OW23152   3.698   5.810   2.033  0.5816 -0.1101  0.8930
40382SOL    HW123153   3.764   5.772   2.092  1.1854 -1.0431 -0.3379
40382SOL    HW223154   3.663   5.734   1.986 -0.9690  0.4515  1.1058
40383SOL     OW23155  10.401   4.900   0.110 -0.2066 -0.7118  0.1009
40383SOL    HW123156  10.484   4.948   0.103 -0.2678 -0.3991  1.2542
40383SOL    HW223157  10.427   4.809   0.124 -0.0393 -0.5769  0.7148
40384SOL     OW23158   7.662   6.195   7.996  0.7093 -0.1533 -0.1638
40384SOL    HW123159   7.713   6.265   7.955 -1.0415 -0.5308 -3.2567
40384SOL    HW223160   7.671   6.121   7.937  1.6953 -2.3288  2.5213
40385SOL     OW23161   7.402   0.347   3.072 -0.2432  0.0115 -0.1812
40385SOL    HW123162   7.498   0.346   3.074 -0.2448  0.5123  0.4207
40385SOL    HW223163   7.379   0.437   3.094 -0.8479 -0.0137 -0.6914
40386SOL     OW23164   8.234   5.739   4.684 -0.1687  0.1578 -0.2022
40386SOL    HW123165   8.301   5.690   4.732 -0.7956  0.4442  0.9909
40386SOL    HW223166   8.180   5.672   4.642  0.0497 -0.1122 -0.0500
40387SOL     OW23167   3.694   2.855   5.894 -0.2765 -0.1864 -0.0335
40387SOL    HW123168   3.628   2.924   5.905  2.1797  2.4154 -0.3740
40387SOL    HW223169   3.777   2.900   5.904  1.5910 -2.6080 -2.9739
40388SOL     OW23170   3.258   8.786   2.354 -0.0814 -0.1251 -0.0851
40388SOL    HW123171   3.189   8.720   2.352 -0.4534  0.2310  0.8758
40388SOL    HW223172   3.216   8.865   2.321 -0.2201  0.1636  0.7680
40389SOL     OW23173   7.939   0.850   6.770  0.8180  0.0453 -0.1346
40389SOL    HW123174   7.967   0.800   6.847  1.1392  0.2993 -0.0851
40389SOL    HW223175   7.856   0.809   6.744  1.3831 -0.9179 -0.4708
40390SOL     OW23176   1.001   7.035   6.297  0.2133 -0.4385 -0.1247
40390SOL    HW123177   1.054   7.009   6.222  1.7823  0.7712  0.5069
40390SOL    HW223178   1.015   6.966   6.361  0.0660 -0.7132 -0.3846
40391SOL     OW23179   8.490   9.129   3.605 -0.1696 -0.6901  0.3438
40391SOL    HW123180   8.468   9.046   3.563  1.6894 -1.2429  0.3686
40391SOL    HW223181   8.530   9.181   3.536  1.9252 -1.1957  1.1177
40392SOL     OW23182   8.572   3.014   6.461  0.2565 -0.0477  0.0872
40392SOL    HW123183   8.626   3.090   6.442  1.5275 -1.1561 -0.9315
40392SOL    HW223184   8.633   2.949   6.496 -0.0240 -1.9074 -2.5681
40393SOL     OW23185   1.409   3.076   9.774 -0.4869 -1.0831 -1.1324
40393SOL    HW123186   1.496   3.104   9.802 -0.4097 -0.7895 -1.6624
40393SOL    HW223187   1.352   3.100   9.848  0.2799 -3.9849  0.5608
40394SOL     OW23188   0.300   1.293  10.001 -0.6756  0.2901 -0.1887
40394SOL    HW123189   0.314   1.383   9.970  1.9159  0.1796  0.4213
40394SOL    HW223190   0.343   1.238   9.935 -1.1553 -0.4151  0.0770
40395SOL     OW23191  10.953   3.901   5.597  0.2142  0.2074 -0.7385
40395SOL    HW123192  10.937   3.827   5.538 -2.7880  0.0509  0.1156
40395SOL    HW223193  11.022   3.870   5.656 -1.5364 -2.3543  0.1573
40396SOL     OW23194   8.988   5.912   5.270 -0.1591 -0.5238  0.3148
40396SOL    HW123195   9.005   6.006   5.282 -1.8825 -0.1875  0.4434
40396SOL    HW223196   8.907   5.897   5.318 -0.8317 -1.7205 -1.1167
40397SOL     OW23197  10.241   7.627   7.477  0.2952  0.3107  0.0445
40397SOL    HW123198  10.243   7.626   7.381  1.3635 -0.0761  0.0588
40397SOL    HW223199  10.199   7.544   7.500 -2.1338  1.4138 -0.0845
40398SOL     OW23200   5.410   7.588   5.908 -0.1016 -0.4984  0.1984
40398SOL    HW123201   5.492   7.546   5.933 -0.1051 -0.5135  0.1847
40398SOL    HW223202   5.436   7.662   5.853 -0.1344 -0.8891 -0.3479
40399SOL     OW23203   2.367   3.472   1.318  0.4625  0.3466  0.1791
40399SOL    HW123204   2.292   3.497   1.264  2.4073 -1.2200 -3.6419
40399SOL    HW223205   2.429   3.544   1.307  0.9322 -0.0561  0.1420
40400SOL     OW23206   2.768   6.604   9.208  0.0250  0.2230 -0.1158
40400SOL    HW123207   2.704   6.659   9.163  0.4872  0.3333 -0.6542
40400SOL    HW223208   2.725   6.519   9.217 -0.8140  0.7420  1.0031
40401SOL     OW23209   7.201   9.661   8.680 -0.4605  0.1634  0.0881
40401SOL    HW123210   7.238   9.645   8.593 -0.5052  0.1340  0.0740
40401SOL    HW223211   7.106   9.655   8.667 -0.4886  0.6464  0.0373
40402SOL     OW23212   3.758   9.076   3.355  0.2373 -0.1723  0.6276
40402SOL    HW123213   3.725   8.993   3.389  1.0125 -0.4190  0.7832
40402SOL    HW223214   3.837   9.053   3.307 -1.0512  0.0957 -1.7894
40403SOL     OW23215   3.921   6.042   1.662 -0.5792 -0.0726 -0.1883
40403SOL    HW123216   3.865   6.039   1.739 -0.2594 -0.3225  0.0400
40403SOL    HW223217   3.876   6.100   1.601 -0.2816  1.0749  0.6333
40404SOL     OW23218   9.476   6.972   8.347  0.2093 -0.0476 -0.1715
40404SOL    HW123219   9.406   6.942   8.290 -0.4560 -0.5450  0.8819
40404SOL    HW223220   9.435   6.983   8.432  1.6579 -1.5223  0.7691
40405SOL     OW23221   8.785   6.282   2.844  0.6453 -0.3473 -0.2585
40405SOL    HW123222   8.874   6.282   2.880  0.4679 -0.1977  0.1800
40405SOL    HW223223   8.728   6.267   2.919  0.2407  0.5062 -0.3748
40406SOL     OW23224   2.530   6.805   0.738 -0.1597 -0.3537  0.3492
40406SOL    HW123225   2.610   6.789   0.687  2.3029  0.6518  3.5704
40406SOL    HW223226   2.492   6.718   0.752 -0.2608 -0.7595 -2.0280
40407SOL     OW23227   7.843   7.112   9.761 -0.6653  0.0096 -0.1868
40407SOL    HW123228   7.799   7.030   9.782 -0.8361  0.3120  0.7143
40407SOL    HW223229   7.776   7.179   9.775  0.2989  0.5854  2.2822
40408SOL     OW23230   3.613   5.098   3.401 -0.0160  0.2392  0.3054
40408SOL    HW123231   3.677   5.028   3.389  0.5096  0.5590  1.0993
40408SOL    HW223232   3.557   5.068   3.472  0.0815  0.5264  0.5088
40409SOL     OW23233   7.979   3.353   4.921 -0.6025 -0.4044 -0.1768
40409SOL    HW123234   7.888   3.371   4.946 -0.2751  1.3935 -0.2089
40409SOL    HW223235   7.992   3.400   4.839  0.6087  0.0906  0.2722
40410SOL     OW23236   5.408   3.314   6.080  0.2608 -0.1646 -0.0514
40410SOL    HW123237   5.386   3.400   6.044 -0.2726 -0.5077 -0.5613
40410SOL    HW223238   5.357   3.252   6.028  0.8676 -0.8198  0.1158
40411SOL     OW23239   7.319   9.086   3.924  0.5049 -0.3496 -0.0237
40411SOL    HW123240   7.390   9.101   3.987  1.0758  2.0705 -1.1091
40411SOL    HW223241   7.359   9.105   3.838 -1.2016  0.1691 -0.7463
40412SOL     OW23242   0.342   5.878   6.670  0.4372  0.7847  0.0862
40412SOL    HW123243   0.412   5.829   6.714 -1.4471 -0.6271  1.6714
40412SOL    HW223244   0.273   5.813   6.656 -0.7708  2.2395 -0.9719
40413SOL     OW23245   1.828   3.828   4.782 -0.1874  0.1439 -0.0828
40413SOL    HW123246   1.899   3.856   4.841  0.0584 -0.4105 -0.1116
40413SOL    HW223247   1.861   3.846   4.694  0.6885 -1.7656 -0.2030
40414SOL     OW23248   7.869   7.167   4.353  0.6335 -0.2501  0.9206
40414SOL    HW123249   7.885   7.074   4.368 -0.2274 -0.3579  1.2086
40414SOL    HW223250   7.889   7.180   4.260  1.0762 -0.6513  0.9577
40415SOL     OW23251   2.711   9.312   8.662 -0.1279 -0.4001  0.0170
40415SOL    HW123252   2.674   9.291   8.748 -1.2954  3.0509  0.5334
40415SOL    HW223253   2.796   9.352   8.682 -0.2202  0.0300 -0.4148
40416SOL     OW23254   1.580  10.589   5.835  0.2359 -0.0871 -0.4220
40416SOL    HW123255   1.496  10.633   5.849 -0.8837 -0.6408 -4.1937
40416SOL    HW223256   1.621  10.638   5.763  2.4120 -0.8249  0.2328
40417SOL     OW23257   9.106   6.291   0.528  0.2657  0.6701  0.1921
40417SOL    HW123258   9.179   6.235   0.503  0.3152  1.1898 -0.8830
40417SOL    HW223259   9.114   6.369   0.472 -1.3364  0.5557 -0.2610
40418SOL     OW23260   8.278   7.688   3.842 -0.9911 -0.0938  0.1301
40418SOL    HW123261   8.211   7.619   3.847 -0.1569 -0.9426 -0.1661
40418SOL    HW223262   8.260   7.743   3.919 -0.5344 -1.7136  1.4671
40419SOL     OW23263   2.444   0.379   5.664  0.0033 -0.1801 -0.5325
40419SOL    HW123264   2.440   0.397   5.758 -0.6526  2.0312 -0.9345
40419SOL    HW223265   2.520   0.430   5.634 -0.2777 -0.2273 -1.3276
40420SOL     OW23266   4.289   5.503   8.905  0.2822  0.2154  0.3009
40420SOL    HW123267   4.312   5.464   8.989 -0.5667 -0.1012  0.4020
40420SOL    HW223268   4.223   5.443   8.868 -0.7645  1.3396  0.2832
40421SOL     OW23269   8.241   2.406   2.366  0.0622  0.0426  0.5405
40421SOL    HW123270   8.271   2.457   2.290  1.3638 -0.2852  0.8167
40421SOL    HW223271   8.170   2.459   2.404  0.2129  0.7877 -0.2002
40422SOL     OW23272   4.592   4.661   9.022  0.0787 -0.0745  0.1495
40422SOL    HW123273   4.599   4.641   8.929  0.3490  0.6693  0.0050
40422SOL    HW223274   4.613   4.754   9.029  0.6192 -0.2430  1.0206
40423SOL     OW23275   0.888   6.160   7.319  0.4727 -0.4307 -0.4678
40423SOL    HW123276   0.932   6.244   7.303  0.4239 -0.1761  0.6297
40423SOL    HW223277   0.795   6.178   7.299  0.4612 -0.2164 -0.2334
40424SOL     OW23278   2.352   6.696   1.405 -0.1930  0.0633  0.4394
40424SOL    HW123279   2.418   6.648   1.355 -1.0037 -1.7336  1.0025
40424SOL    HW223280   2.350   6.783   1.365 -0.4871 -1.1294 -2.3906
40425SOL     OW23281   7.197  10.074   6.601  0.2487 -0.1329 -0.5711
40425SOL    HW123282   7.197  10.021   6.680 -0.8028  0.2670 -0.2850
40425SOL    HW223283   7.137  10.030   6.542 -0.5365  0.6576 -0.3770
40426SOL     OW23284   2.367   0.130   2.132  0.1730 -0.1073 -0.0761
40426SOL    HW123285   2.449   0.101   2.171  0.0487 -0.1080  0.1882
40426SOL    HW223286   2.393   0.191   2.063  0.4022 -0.2505 -0.1143
40427SOL     OW23287   2.780   3.915   1.086  0.2612  0.1906 -0.1915
40427SOL    HW123288   2.755   3.977   1.154  0.8524  1.6480 -1.2560
40427SOL    HW223289   2.873   3.899   1.100  0.8799  2.0605 -1.7982
40428SOL     OW23290   0.422   7.923   4.157  0.0021  0.2140  0.4231
40428SOL    HW123291   0.496   7.869   4.186 -1.3638 -2.2798 -0.3537
40428SOL    HW223292   0.386   7.875   4.082 -0.9839  2.5930 -0.7264
40429SOL     OW23293   9.585   6.276   6.269 -0.4754  0.3236 -0.4313
40429SOL    HW123294   9.679   6.272   6.284 -0.6406 -0.1434  0.5219
40429SOL    HW223295   9.573   6.356   6.217  0.2202  1.5647  1.2399
40430SOL     OW23296   1.243   1.413   5.089  0.1978 -0.3589  0.6728
40430SOL    HW123297   1.277   1.391   5.176  0.4783 -0.9774  0.4163
40430SOL    HW223298   1.193   1.335   5.063  2.2398 -1.2991 -0.7892
40431SOL     OW23299   2.816   2.616   6.501 -0.1557  0.1828  0.3455
40431SOL    HW123300   2.752   2.667   6.451 -0.3234 -1.0515 -0.7696
40431SOL    HW223301   2.829   2.665   6.582 -1.4491  1.1895 -0.0310
40432SOL     OW23302   5.228  10.713   6.520 -0.1280  0.3419  0.4338
40432SOL    HW123303   5.297  10.723   6.454  0.8394 -0.1199  1.3500
40432SOL    HW223304   5.215  10.618   6.526 -1.1557  0.4316 -0.0157
40433SOL     OW23305   6.054   8.435   1.480 -0.3813 -0.0120  0.0554
40433SOL    HW123306   6.116   8.366   1.503 -0.4949 -0.4134 -0.7853
40433SOL    HW223307   6.003   8.398   1.407  0.5966  1.5198 -1.5041
40434SOL     OW23308   2.137   4.635   4.655 -0.7035 -0.1133  0.1527
40434SOL    HW123309   2.231   4.625   4.641 -0.7469  1.2204 -1.3325
40434SOL    HW223310   2.113   4.713   4.605 -2.0533  1.5297  3.0697
40435SOL     OW23311   8.966  10.686   4.218  0.2032  0.0837 -0.7110
40435SOL    HW123312   8.933  10.672   4.129  0.5087 -0.2503 -0.7755
40435SOL    HW223313   9.048  10.734   4.207 -1.7823  3.8772 -0.4042
40436SOL     OW23314   5.261   6.721   4.157  0.0413 -0.4003  0.1314
40436SOL    HW123315   5.309   6.647   4.120  1.8455  0.1075  1.3308
40436SOL    HW223316   5.219   6.687   4.236  1.0522 -0.1220  0.8040
40437SOL     OW23317   3.342   6.851   3.739  0.2524  0.3151  0.4016
40437SOL    HW123318   3.294   6.833   3.658  1.3449  1.9693 -0.6810
40437SOL    HW223319   3.398   6.774   3.751  0.5838  0.3309 -0.8389
40438SOL     OW23320   9.623   6.761   9.110  0.1497 -0.6365 -0.3016
40438SOL    HW123321   9.583   6.701   9.048 -1.0941  0.3464 -0.4775
40438SOL    HW223322   9.558   6.772   9.180 -0.2862  1.5585 -0.9620
40439SOL     OW23323   6.351   9.834   4.977 -0.5190 -0.4030 -0.4547
40439SOL    HW123324   6.321   9.808   4.889 -1.6968 -0.1010 -0.1646
40439SOL    HW223325   6.438   9.795   4.985 -0.2585 -0.1751 -1.8784
40440SOL     OW23326   7.468   8.639   9.904  0.7858  0.0113  0.8011
40440SOL    HW123327   7.468   8.689   9.822  0.0241  1.0270  1.3879
40440SOL    HW223328   7.543   8.673   9.953  0.7656 -0.0158  0.8508
40441SOL     OW23329   7.973   8.345   4.232 -0.0512 -0.2731 -0.4052
40441SOL    HW123330   8.006   8.286   4.300 -0.2937  0.0429 -0.0121
40441SOL    HW223331   7.896   8.301   4.197 -0.9046  0.3135  0.6652
40442SOL     OW23332   5.038   4.004   4.957 -0.0912 -0.1181 -0.1196
40442SOL    HW123333   4.967   3.953   4.996 -0.3820  1.7437  1.9990
40442SOL    HW223334   5.113   3.987   5.015  0.4404  0.0569 -0.7524
40443SOL     OW23335   5.611   6.971   1.078 -0.4877 -0.3847  0.1990
40443SOL    HW123336   5.563   7.046   1.042  2.5866  1.4701 -0.3757
40443SOL    HW223337   5.590   6.899   1.018 -0.0576  1.1698 -1.9556
40444SOL     OW23338   8.630   8.619   7.062 -0.0852 -0.2703 -1.0765
40444SOL    HW123339   8.692   8.585   7.127 -0.4735 -0.8461 -1.0001
40444SOL    HW223340   8.684   8.639   6.986  0.1755 -0.9547 -1.0792
40445SOL     OW23341   1.791   9.055   7.047  0.2230  0.0764 -0.2437
40445SOL    HW123342   1.732   9.020   7.114 -2.1676  1.1405 -1.6317
40445SOL    HW223343   1.874   9.069   7.093 -0.6819 -1.1154  1.9441
40446SOL     OW23344   7.752   7.581   7.982  0.0779 -0.1442  0.2664
40446SOL    HW123345   7.782   7.636   7.909  2.6295 -2.0989 -0.3107
40446SOL    HW223346   7.824   7.582   8.044 -1.0895 -0.4297  1.6764
40447SOL     OW23347   9.925   4.112  10.745  0.2774 -0.1947 -0.3183
40447SOL    HW123348   9.996   4.170  10.717 -0.7653  0.7226 -1.1674
40447SOL    HW223349   9.874   4.097  10.666 -1.8202  1.1006  0.7127
40448SOL     OW23350   7.727   5.389  10.441  0.1727 -0.0885 -0.0426
40448SOL    HW123351   7.662   5.453  10.412 -1.2712 -1.4818 -0.0358
40448SOL    HW223352   7.796   5.395  10.375 -0.8171  0.1717 -1.1099
40449SOL     OW23353   4.348   2.490   1.087  1.1326 -0.4552 -0.5451
40449SOL    HW123354   4.325   2.484   0.994  3.8447 -4.5070 -1.2276
40449SOL    HW223355   4.265   2.479   1.133 -0.1946  1.0127 -2.4279
40450SOL     OW23356   3.771   6.200   3.554 -1.0890  0.7486 -0.4603
40450SOL    HW123357   3.842   6.212   3.617 -0.9745  0.5818 -0.5571
40450SOL    HW223358   3.698   6.250   3.590 -1.7622 -1.1134  0.9671
40451SOL     OW23359   8.013   4.804   8.425 -0.1373 -0.5175  0.0015
40451SOL    HW123360   7.948   4.786   8.357  1.3775 -1.6052 -1.2235
40451SOL    HW223361   7.995   4.738   8.492  1.0701 -2.3221 -1.3678
40452SOL     OW23362   7.870   7.421   2.958 -0.0767 -0.6143  0.1898
40452SOL    HW123363   7.833   7.444   3.043 -1.3746 -1.2711 -0.1695
40452SOL    HW223364   7.852   7.498   2.903  1.9721  0.3800  0.8160
40453SOL     OW23365   5.295   8.104   5.928 -0.0938  0.1391  0.0045
40453SOL    HW123366   5.294   8.173   5.862 -0.4693  0.2503  0.1213
40453SOL    HW223367   5.387   8.079   5.935 -0.0503  0.1216 -0.5595
40454SOL     OW23368   5.149   8.662  10.077 -0.2837 -0.2794 -0.2460
40454SOL    HW123369   5.165   8.747  10.116 -1.9618 -0.3862  0.7982
40454SOL    HW223370   5.168   8.673   9.984  1.2192  0.7175  0.1508
40455SOL     OW23371   1.431  10.803   8.819  0.3409 -1.0046  0.3133
40455SOL    HW123372   1.509  10.766   8.861  0.6674 -1.2878 -0.5270
40455SOL    HW223373   1.381  10.842   8.892  2.1560  0.8321  0.6622
40456SOL     OW23374  10.186   7.900   1.740  0.0888 -0.1743  0.5567
40456SOL    HW123375  10.247   7.895   1.813  1.1268 -0.8813 -0.3325
40456SOL    HW223376  10.224   7.966   1.682  0.2444 -0.9004 -0.1920
40457SOL     OW23377  10.789   6.740   6.540 -0.0585 -0.2155 -0.2028
40457SOL    HW123378  10.785   6.836   6.536  1.8828 -0.0493  0.4491
40457SOL    HW223379  10.698   6.712   6.544 -0.6515  1.6720  0.7548
40458SOL     OW23380   1.337   9.489   0.906 -0.2968 -0.8849 -0.0258
40458SOL    HW123381   1.258   9.491   0.853 -0.9465 -1.3558  0.8960
40458SOL    HW223382   1.340   9.575   0.948  0.5274 -0.2958 -1.2268
40459SOL     OW23383   0.349   1.943   4.966  0.0860  0.0337  0.0740
40459SOL    HW123384   0.277   1.985   5.015 -0.5815 -1.2204  0.2022
40459SOL    HW223385   0.415   1.925   5.033  0.2728  0.6255  0.0605
40460SOL     OW23386   4.215  10.464   1.833  0.0302  0.1895  0.0346
40460SOL    HW123387   4.236  10.395   1.771 -0.8327  0.1193 -0.1790
40460SOL    HW223388   4.190  10.419   1.914  2.0540  0.2802  0.7743
40461SOL     OW23389   3.113   3.994   0.241  0.2816 -0.1527 -0.4480
40461SOL    HW123390   3.156   4.067   0.287 -0.9030 -0.7372  1.7342
40461SOL    HW223391   3.078   4.033   0.161  0.1849  1.5370  0.3774
40462SOL     OW23392   0.096   4.390   2.307 -0.2680 -0.2142  0.0866
40462SOL    HW123393   0.157   4.320   2.284 -0.0613 -0.5969  1.7067
40462SOL    HW223394   0.143   4.471   2.288  0.2939 -0.5167  0.1827
40463SOL     OW23395  10.962   0.905   1.234  0.0855  0.6228 -0.4218
40463SOL    HW123396  10.968   0.809   1.226 -1.9229  0.4856 -0.7644
40463SOL    HW223397  11.047   0.931   1.271  0.6584 -1.2816 -0.2734
40464SOL     OW23398   7.802   5.674   2.031  0.2641 -0.2750  0.0217
40464SOL    HW123399   7.863   5.725   1.978 -0.2324 -0.3161 -0.5922
40464SOL    HW223400   7.741   5.739   2.067 -0.1070 -0.3794 -0.4109
40465SOL     OW23401   8.267   1.451   7.048  0.7578  1.0009 -0.4069
40465SOL    HW123402   8.220   1.415   6.973  0.8340  0.2779 -0.1068
40465SOL    HW223403   8.256   1.546   7.039 -0.7086  0.8573 -0.3724
40466SOL     OW23404   3.266   2.436   8.607  0.2158 -0.0455  0.3495
40466SOL    HW123405   3.330   2.365   8.616  1.2732  0.7506 -0.6644
40466SOL    HW223406   3.181   2.391   8.606  0.7040 -1.0972  2.0004
40467SOL     OW23407   8.617   8.107   0.058 -0.2869 -0.3651  0.1737
40467SOL    HW123408   8.623   8.099   0.153 -0.5763  0.5732  0.2775
40467SOL    HW223409   8.544   8.166   0.042  0.3731  0.2824 -0.5922
40468SOL     OW23410   6.958   8.723   8.873 -0.0983  0.4550 -0.0127
40468SOL    HW123411   6.891   8.685   8.815  0.1976 -0.3885  0.1934
40468SOL    HW223412   6.950   8.674   8.954  0.3769  0.7534  0.2158
40469SOL     OW23413   1.505   5.314   6.688 -0.4917 -0.2457  0.2101
40469SOL    HW123414   1.442   5.262   6.637 -1.1318  1.8246 -1.2400
40469SOL    HW223415   1.500   5.277   6.776 -3.1177 -0.7429 -0.0556
40470SOL     OW23416   8.723   5.179   4.584 -0.3925  0.2380 -0.2028
40470SOL    HW123417   8.806   5.133   4.579 -0.6112 -0.1346 -0.4327
40470SOL    HW223418   8.682   5.165   4.498 -0.6426  0.5165 -0.1337
40471SOL     OW23419   1.599   7.580   6.860  0.0000 -0.0095  0.3005
40471SOL    HW123420   1.682   7.596   6.816  0.5726 -0.0334  1.3406
40471SOL    HW223421   1.565   7.668   6.880  1.3437  0.0481  2.6942
40472SOL     OW23422   2.766   7.169   1.720 -0.1535  0.1071  0.0040
40472SOL    HW123423   2.847   7.119   1.731 -1.1617 -2.1145 -1.8501
40472SOL    HW223424   2.786   7.231   1.649  0.5414  1.1276  1.0564
40473SOL     OW23425  10.000   8.250   5.581  0.0226  0.3479 -0.3907
40473SOL    HW123426   9.986   8.219   5.491  2.1083 -0.7087 -0.4230
40473SOL    HW223427  10.079   8.203   5.610 -0.4251  0.8879  1.8963
40474SOL     OW23428   2.447   6.390   7.225  0.1912 -0.0353  0.0215
40474SOL    HW123429   2.423   6.479   7.250  0.3202  0.1780 -0.6126
40474SOL    HW223430   2.503   6.400   7.148 -2.3974 -0.7559 -2.1365
40475SOL     OW23431   6.282   4.918   8.311 -0.9993 -0.1014  0.8189
40475SOL    HW123432   6.227   4.879   8.379  1.4289 -2.7207  1.4789
40475SOL    HW223433   6.363   4.944   8.356 -0.8611  1.9016 -0.4185
40476SOL     OW23434   0.940   1.398   0.394  0.3659  0.9078 -0.0980
40476SOL    HW123435   1.012   1.341   0.422  0.9784  1.1131 -1.2147
40476SOL    HW223436   0.906   1.435   0.475  2.2368  1.6649  0.3946
40477SOL     OW23437   5.668   9.266   1.221 -0.4389 -0.4124 -0.5833
40477SOL    HW123438   5.632   9.351   1.245 -0.2568 -0.2421 -0.9146
40477SOL    HW223439   5.591   9.213   1.199 -0.5730 -0.4217 -0.1060
40478SOL     OW23440   5.756   1.448   5.453 -0.2240 -0.0535 -0.2139
40478SOL    HW123441   5.765   1.542   5.441  1.5029 -0.3238 -1.2820
40478SOL    HW223442   5.681   1.424   5.399  0.3979  0.4691 -1.3280
40479SOL     OW23443  11.083   4.195  10.639  0.3648  0.5272 -0.3041
40479SOL    HW123444  11.075   4.273  10.583  0.3731  1.2135  0.6235
40479SOL    HW223445  10.994   4.175  10.665  0.3662  0.2441 -0.5199
40480SOL     OW23446  10.374   2.505   4.405 -0.3808  0.3561 -0.3484
40480SOL    HW123447  10.435   2.435   4.379  0.3803  0.4815  1.0127
40480SOL    HW223448  10.305   2.460   4.454  0.5341  0.6091  1.2385
40481SOL     OW23449   0.221   5.909   8.333  0.4499  0.3670 -0.2112
40481SOL    HW123450   0.210   5.986   8.278  3.1047  1.8064  1.0666
40481SOL    HW223451   0.245   5.944   8.419 -0.3166 -1.8636  0.9905
40482SOL     OW23452   0.595   0.472   5.128 -0.1472 -0.2591  0.2812
40482SOL    HW123453   0.600   0.550   5.073  0.9422  0.5715  1.4825
40482SOL    HW223454   0.593   0.399   5.066  0.1369  0.6683 -0.8609
40483SOL     OW23455   5.693   0.487   7.822 -0.2208  0.7887 -0.1621
40483SOL    HW123456   5.787   0.499   7.838 -0.1896 -1.0719  1.4835
40483SOL    HW223457   5.653   0.487   7.909 -1.8346  1.9343 -0.8592
40484SOL     OW23458   3.757   7.068   8.079 -0.0742  0.1237 -0.0754
40484SOL    HW123459   3.737   6.988   8.031  1.0247 -0.3758  0.2747
40484SOL    HW223460   3.839   7.100   8.040 -0.1707  0.7338  0.2121
40485SOL     OW23461   4.295   1.383   6.206 -0.3359  0.3257 -0.0326
40485SOL    HW123462   4.246   1.303   6.225  0.9267  0.0295  2.2735
40485SOL    HW223463   4.274   1.402   6.114 -3.1665 -0.8413  0.2667
40486SOL     OW23464   8.117  10.999   4.118 -0.0457  0.2931 -0.0379
40486SOL    HW123465   8.044  11.057   4.098 -1.5785 -1.7441 -0.6555
40486SOL    HW223466   8.107  10.926   4.058  1.1206 -1.1671  1.4482
40487SOL     OW23467  10.965   3.376   7.848  0.0047  0.1438  0.7982
40487SOL    HW123468  10.995   3.466   7.830  1.1418 -0.1980  0.8753
40487SOL    HW223469  10.899   3.385   7.916 -1.1741  1.0744 -0.4208
40488SOL     OW23470   9.105   5.605   9.789  0.1321  0.2691 -0.2470
40488SOL    HW123471   9.059   5.658   9.854 -2.0290 -1.5662 -0.1422
40488SOL    HW223472   9.130   5.525   9.836 -2.4271 -1.5883 -1.7341
40489SOL     OW23473   7.622  10.782   6.140 -0.4614  0.2090  0.2043
40489SOL    HW123474   7.563  10.715   6.106  0.4952 -0.5806  0.0538
40489SOL    HW223475   7.614  10.774   6.235  0.8410 -1.2679  0.2405
40490SOL     OW23476  10.838   0.150   3.941 -0.5457  0.1771  0.5511
40490SOL    HW123477  10.798   0.097   3.872  1.0034 -2.2357  1.3804
40490SOL    HW223478  10.783   0.133   4.018 -0.3514  0.1944  0.6944
40491SOL     OW23479   9.001   7.934   5.342  0.1084 -0.0788  0.0722
40491SOL    HW123480   9.024   7.852   5.387 -2.6040 -0.9799  0.0161
40491SOL    HW223481   8.991   7.998   5.412 -1.6785 -0.8545  0.5792
40492SOL     OW23482  10.734   4.854   7.612  0.3528  0.2777 -0.2906
40492SOL    HW123483  10.807   4.876   7.670 -0.1640  0.7031  0.2026
40492SOL    HW223484  10.714   4.762   7.632  2.2510 -0.6240 -2.0762
40493SOL     OW23485   6.798   7.027   6.657  0.2119 -0.0312  0.0093
40493SOL    HW123486   6.814   6.936   6.632 -0.1275 -0.4570  1.2697
40493SOL    HW223487   6.785   7.073   6.574  1.0295 -1.0011 -0.6761
40494SOL     OW23488   2.013   6.314  10.941  0.2272 -0.4275  0.2863
40494SOL    HW123489   1.986   6.305  11.033 -0.5989  1.6792  0.3046
40494SOL    HW223490   1.950   6.262  10.893  0.0838 -0.7827  0.8468
40495SOL     OW23491   8.447   6.917   6.756  0.0104 -0.4040 -0.4061
40495SOL    HW123492   8.467   6.868   6.676 -0.2008 -0.3778 -0.4756
40495SOL    HW223493   8.392   6.990   6.727 -0.8517 -0.9233 -0.1174
40496SOL     OW23494   0.252   0.070   4.358  0.4436  0.1972 -0.0249
40496SOL    HW123495   0.277   0.116   4.278  1.0320 -0.2064 -0.0866
40496SOL    HW223496   0.240  -0.021   4.331  0.8526  0.0177  0.3764
40497SOL     OW23497   0.500   7.411   4.129  0.2784  0.3910 -0.1787
40497SOL    HW123498   0.540   7.334   4.088 -1.7420  0.3186 -2.1736
40497SOL    HW223499   0.539   7.413   4.217  2.6235 -1.1349 -1.0706
40498SOL     OW23500   9.113   8.066   9.376 -0.0371 -0.5389  0.0713
40498SOL    HW123501   9.060   8.109   9.309 -0.8808 -1.4849  0.1014
40498SOL    HW223502   9.204   8.087   9.353 -0.4110  2.1257  0.7030
40499SOL     OW23503   6.257   6.647   3.350 -0.3597 -0.5658  0.0681
40499SOL    HW123504   6.178   6.698   3.366 -0.3948 -0.5816 -0.0632
40499SOL    HW223505   6.329   6.709   3.365 -0.4120 -0.3691 -0.4990
40500SOL     OW23506   2.302   6.625   2.256 -0.0841 -0.2012 -0.3001
40500SOL    HW123507   2.358   6.573   2.198  0.5113 -0.2207  0.2794
40500SOL    HW223508   2.257   6.686   2.197 -0.6266 -1.2049 -0.9689
40501SOL     OW23509  10.472   4.442   5.005  0.4475  0.8498 -0.1562
40501SOL    HW123510  10.444   4.362   4.960 -0.8134  0.4859  1.1958
40501SOL    HW223511  10.506   4.497   4.935  0.6409 -0.5606 -1.2352
40502SOL     OW23512   3.976   9.205   2.227 -0.5346  0.0921  0.3447
40502SOL    HW123513   4.049   9.266   2.216 -0.5442  0.1615  0.6352
40502SOL    HW223514   3.920   9.247   2.293 -0.6504 -0.1289  0.3886
40503SOL     OW23515   5.880   3.285  10.707  0.3382  0.0784  0.4154
40503SOL    HW123516   5.804   3.227  10.710  0.1275  0.3250 -0.0679
40503SOL    HW223517   5.941   3.247  10.771 -0.0706 -0.2840  0.6002
40504SOL     OW23518   6.334   7.026   8.214  0.1937 -0.1193 -0.0068
40504SOL    HW123519   6.260   7.085   8.198  0.1617 -0.5234 -1.4541
40504SOL    HW223520   6.381   7.066   8.288 -1.1294  0.4532  0.5466
40505SOL     OW23521  10.846   4.414   4.712 -0.0990  0.1826 -0.1606
40505SOL    HW123522  10.899   4.486   4.678 -1.0380  0.3930 -1.2492
40505SOL    HW223523  10.843   4.428   4.807  0.1110  1.3145 -0.3153
40506SOL     OW23524   5.565   8.553   5.473 -0.0319 -0.0095 -0.4255
40506SOL    HW123525   5.473   8.580   5.466 -0.3660 -1.3592 -1.9873
40506SOL    HW223526   5.597   8.554   5.383  1.9388  1.7417  0.2119
40507SOL     OW23527   1.287   4.778   5.538 -0.2044 -0.4737  0.3664
40507SOL    HW123528   1.233   4.803   5.464 -0.1873 -2.2821 -0.2878
40507SOL    HW223529   1.322   4.861   5.571 -2.0433  0.5677 -0.1944
40508SOL     OW23530   7.301   4.233   6.218  0.6575 -0.6453  0.0475
40508SOL    HW123531   7.266   4.238   6.129 -1.1236 -0.0896  0.7320
40508SOL    HW223532   7.225   4.248   6.274  1.7836 -0.7737  1.6673
40509SOL     OW23533   4.393   1.715   5.073  0.4714 -0.5447  0.1069
40509SOL    HW123534   4.321   1.676   5.123  0.4694 -0.4854  0.1509
40509SOL    HW223535   4.427   1.784   5.130 -1.4348  1.5612 -1.1020
40510SOL     OW23536   6.622   1.211   3.771  0.1748 -0.2589 -0.6204
40510SOL    HW123537   6.696   1.212   3.832 -1.0363 -0.2892  0.9351
40510SOL    HW223538   6.599   1.303   3.759  0.6836 -0.2290 -1.3936
40511SOL     OW23539   0.381   4.498   8.972 -0.4081  0.1454  0.2634
40511SOL    HW123540   0.436   4.460   8.903 -1.7310  0.7607 -1.1835
40511SOL    HW223541   0.420   4.466   9.053  0.9634 -0.9473 -0.7665
40512SOL     OW23542   4.598   5.742   0.972  0.1482 -0.3697  0.2458
40512SOL    HW123543   4.659   5.780   1.035 -0.0272 -1.2771  0.9865
40512SOL    HW223544   4.622   5.650   0.967 -0.8935 -0.6612  0.2440
40513SOL     OW23545   4.064  10.219   8.265  0.0251 -0.3641  0.1575
40513SOL    HW123546   4.107  10.201   8.348  0.6306 -0.0590 -0.0831
40513SOL    HW223547   3.978  10.177   8.272 -0.0083 -0.1669  1.0127
40514SOL     OW23548   6.829   6.081   9.570 -0.5182  0.0865 -0.1804
40514SOL    HW123549   6.734   6.069   9.563 -0.7698  0.6118  1.7285
40514SOL    HW223550   6.861   6.071   9.481 -2.3559 -0.2080 -0.8536
40515SOL     OW23551   2.433   1.909   1.295  0.0980  0.3301  0.0719
40515SOL    HW123552   2.367   1.959   1.246 -0.3237  1.3753  1.6280
40515SOL    HW223553   2.388   1.829   1.321 -0.1708  0.4834  0.0840
40516SOL     OW23554   2.091   3.654   3.983  0.4476  0.3353  0.5058
40516SOL    HW123555   2.120   3.597   4.054  1.3216  1.3500  0.9868
40516SOL    HW223556   2.141   3.624   3.906  0.8663  0.4069  0.7464
40517SOL     OW23557   6.044   6.034   5.578  0.7457 -0.2155  0.1834
40517SOL    HW123558   6.014   5.986   5.501  1.3584 -0.5653  0.1512
40517SOL    HW223559   6.026   6.125   5.559  2.2566 -0.1360 -1.0338
40518SOL     OW23560   8.647   2.122   4.094  0.0676 -0.3552  0.3565
40518SOL    HW123561   8.613   2.117   4.005 -0.9970 -0.2581  0.7509
40518SOL    HW223562   8.695   2.040   4.106 -0.3886 -0.6865 -0.0606
40519SOL     OW23563   4.711   3.311   6.577  0.7107  0.1379  0.3126
40519SOL    HW123564   4.779   3.377   6.593  2.2313 -0.4517 -2.8261
40519SOL    HW223565   4.760   3.233   6.551 -1.0918 -0.2728 -2.2077
40520SOL     OW23566   1.110   9.121  11.072  0.1522  0.2422 -0.8149
40520SOL    HW123567   1.032   9.145  11.122  1.3021 -0.2064  1.2726
40520SOL    HW223568   1.141   9.204  11.035 -0.2138  0.7421 -0.0194
40521SOL     OW23569   0.779   3.882   4.921  0.1485  0.1973 -0.4732
40521SOL    HW123570   0.700   3.869   4.867 -1.1092  0.8971  1.1218
40521SOL    HW223571   0.764   3.828   4.999  1.7541 -0.4720 -0.5895
40522SOL     OW23572   0.672   4.896  10.353  0.5353 -0.5445 -0.0408
40522SOL    HW123573   0.762   4.892  10.386  0.3020  0.2280  0.7335
40522SOL    HW223574   0.649   4.806  10.334  1.5034 -0.7450 -0.3215
40523SOL     OW23575   9.472  10.852   4.430 -0.3668 -0.0595  0.2740
40523SOL    HW123576   9.518  10.930   4.461  0.0050 -0.2810  0.2777
40523SOL    HW223577   9.411  10.831   4.501 -0.9846  0.6500 -0.0334
40524SOL     OW23578  10.064   4.221   9.437  0.5658 -0.2430  0.2796
40524SOL    HW123579  10.025   4.291   9.384  0.7945 -0.5426 -0.2974
40524SOL    HW223580   9.993   4.157   9.447  0.4364 -0.0526  0.5812
40525SOL     OW23581   8.957   7.626   8.060 -0.3934 -0.5332 -0.4774
40525SOL    HW123582   9.048   7.598   8.066 -0.3375  0.0119  2.7096
40525SOL    HW223583   8.910   7.547   8.032  0.9416 -1.0123 -1.4471
40526SOL     OW23584  10.084   8.326   7.990  0.3237 -0.1877  0.0446
40526SOL    HW123585  10.080   8.247   7.937  0.5773 -0.9061  1.0501
40526SOL    HW223586  10.129   8.390   7.935  1.4684 -1.2013 -0.2533
40527SOL     OW23587   9.984   1.785   5.025  0.3650 -0.0193 -0.1726
40527SOL    HW123588  10.048   1.737   4.972 -0.4932 -0.9720 -0.3959
40527SOL    HW223589   9.927   1.717   5.061  2.3241  0.3051  4.0424
40528SOL     OW23590   5.344   8.873   6.018  0.0899  0.0053 -0.1861
40528SOL    HW123591   5.353   8.967   6.027  0.2295 -0.0509  0.2791
40528SOL    HW223592   5.253   8.860   5.992 -0.4635  0.1542  1.5810
40529SOL     OW23593   1.713   6.573  10.045  0.1402 -0.1589  0.1432
40529SOL    HW123594   1.726   6.510   9.974  0.0001  0.3407 -0.3307
40529SOL    HW223595   1.763   6.649  10.019  0.4550 -0.1334  0.8042
40530SOL     OW23596   6.162   9.815  10.231  0.2010  0.1192  0.1491
40530SOL    HW123597   6.186   9.760  10.156  0.0208 -0.6258  0.6309
40530SOL    HW223598   6.231   9.882  10.234 -0.4047  0.8527 -1.3648
40531SOL     OW23599   8.240   3.902   7.949 -0.0432  0.3107  0.3673
40531SOL    HW123600   8.149   3.922   7.925 -0.5109  0.8143  2.4064
40531SOL    HW223601   8.247   3.928   8.041  2.0002 -0.3202  0.4325
40532SOL     OW23602   6.771   8.454   1.416  0.0841  0.3606  0.4926
40532SOL    HW123603   6.697   8.504   1.381 -0.4664  0.5615  1.9004
40532SOL    HW223604   6.738   8.364   1.421  0.8577 -0.0824 -1.4146
40533SOL     OW23605   6.124   3.956   3.223 -0.2779  0.6501  0.3027
40533SOL    HW123606   6.039   3.978   3.259  0.0297  0.0665  1.4429
40533SOL    HW223607   6.134   3.862   3.240 -0.5619  0.0817 -2.2917
40534SOL     OW23608   9.226   5.564   9.024 -0.3420 -0.0837  0.1936
40534SOL    HW123609   9.195   5.654   9.035  0.0731 -0.0939  1.7007
40534SOL    HW223610   9.172   5.512   9.084  1.0151 -0.4406  1.1568
40535SOL     OW23611   8.950   8.507   3.647 -0.1815  0.0108  0.1300
40535SOL    HW123612   9.027   8.565   3.646 -0.3518  0.2467  0.4469
40535SOL    HW223613   8.880   8.560   3.609 -0.3501  0.0297  0.4602
40536SOL     OW23614   7.478   6.655   5.196  0.0079  0.4225  0.2642
40536SOL    HW123615   7.531   6.627   5.271 -0.4812  2.1185  1.2932
40536SOL    HW223616   7.467   6.749   5.208 -2.1328  0.3454 -0.6261
40537SOL     OW23617   4.705   2.351   8.313  0.2612 -0.1870 -0.4327
40537SOL    HW123618   4.801   2.352   8.313  0.2742  1.3504 -0.3001
40537SOL    HW223619   4.682   2.266   8.349  1.6401  0.5919  2.6720
40538SOL     OW23620   8.423   9.894   6.305 -0.0934 -0.2294 -0.3890
40538SOL    HW123621   8.472   9.813   6.294  0.5021  0.3124 -2.1707
40538SOL    HW223622   8.397   9.895   6.397  0.4552 -2.1010 -0.1835
40539SOL     OW23623   8.388   8.742   5.995  0.3638  0.5334 -0.1424
40539SOL    HW123624   8.297   8.729   6.024  0.3328  0.3029 -0.3382
40539SOL    HW223625   8.386   8.722   5.902  1.3699 -3.5208  0.5198
40540SOL     OW23626   7.480   6.291  10.257  0.4091  0.4609 -0.5344
40540SOL    HW123627   7.479   6.350  10.182  1.6233 -0.9436 -1.7471
40540SOL    HW223628   7.438   6.211  10.225  4.1003 -1.5100 -1.0567
40541SOL     OW23629   2.021   2.247  10.855 -0.1973 -0.3194  0.3881
40541SOL    HW123630   1.926   2.233  10.858 -0.1790 -0.4901  0.1701
40541SOL    HW223631   2.045   2.232  10.764  0.0924 -0.6230  0.5095
40542SOL     OW23632  10.213   1.982   9.546 -0.0460  0.3466 -0.1149
40542SOL    HW123633  10.164   2.006   9.624  1.1232 -1.0717  1.1190
40542SOL    HW223634  10.290   2.039   9.547  1.3541 -1.4683  1.3265
40543SOL     OW23635   8.495   3.752   6.826 -0.2577  0.1501 -0.0046
40543SOL    HW123636   8.458   3.699   6.755 -0.2424  0.7477 -0.4729
40543SOL    HW223637   8.536   3.826   6.781  0.6061  0.0365  0.5764
40544SOL     OW23638   9.722   7.871   3.672  0.2009  0.6301 -0.1186
40544SOL    HW123639   9.788   7.825   3.724  0.2192  0.0274 -0.6618
40544SOL    HW223640   9.771   7.939   3.626  0.8226 -0.9399 -1.9294
40545SOL     OW23641   0.031   7.879   4.880  0.2221  0.0815  0.0377
40545SOL    HW123642  -0.032   7.807   4.875  0.9960 -0.5356 -2.3655
40545SOL    HW223643  -0.009   7.949   4.828  1.4313 -0.3183 -1.5141
40546SOL     OW23644   3.200   9.703   5.668 -0.7910 -0.0022  0.6722
40546SOL    HW123645   3.250   9.778   5.701  0.5286 -1.3094  1.8005
40546SOL    HW223646   3.148   9.739   5.596 -0.0750  1.9462  1.0481
40547SOL     OW23647   0.738   7.874   8.649 -0.3537 -0.1723 -0.8794
40547SOL    HW123648   0.647   7.857   8.626 -0.2272 -2.4560  0.0588
40547SOL    HW223649   0.743   7.969   8.661 -2.2064  0.1717 -2.4920
40548SOL     OW23650  10.811   9.835   8.336 -0.7663 -0.6066 -0.4382
40548SOL    HW123651  10.898   9.876   8.336 -0.5920 -0.9647  0.5510
40548SOL    HW223652  10.776   9.856   8.249  0.6248 -1.1301 -1.1712
40549SOL     OW23653   0.939   7.418   8.938 -0.4516  0.1225 -0.1464
40549SOL    HW123654   0.964   7.334   8.901  0.0986  0.5265 -0.7180
40549SOL    HW223655   0.892   7.396   9.019 -0.5641 -0.7320 -0.4387
40550SOL     OW23656   4.967   4.367   4.253 -0.1211  0.4245 -0.3881
40550SOL    HW123657   4.987   4.430   4.323  0.2975 -1.0343  0.8634
40550SOL    HW223658   4.923   4.295   4.298 -1.2892  0.1404 -1.9052
40551SOL     OW23659  10.740   6.763   2.604 -0.0885 -0.0183 -0.4341
40551SOL    HW123660  10.727   6.752   2.698  1.0554 -1.5482 -0.4115
40551SOL    HW223661  10.668   6.819   2.576  0.2209  1.4912  1.5407
40552SOL     OW23662   3.783   7.745   7.815 -0.4312  0.1139 -0.7451
40552SOL    HW123663   3.797   7.655   7.785  0.7126 -0.3830  1.1472
40552SOL    HW223664   3.847   7.797   7.766  1.7141 -0.7469  0.9785
40553SOL     OW23665   9.340   3.308  10.086  0.0966 -0.7852  0.3121
40553SOL    HW123666   9.425   3.297  10.044 -0.4763 -0.5555 -0.9657
40553SOL    HW223667   9.285   3.240  10.048 -0.4450 -0.5741  0.7036
40554SOL     OW23668   0.519   9.779   5.094  0.8450 -0.0692 -0.2425
40554SOL    HW123669   0.513   9.708   5.157 -0.4304  0.3452  0.1283
40554SOL    HW223670   0.549   9.737   5.013  0.3324 -0.9857  0.0343
40555SOL     OW23671   1.696   4.975  11.080  0.3300 -0.0447 -0.0951
40555SOL    HW123672   1.640   4.899  11.062 -0.9567  0.6830  0.6332
40555SOL    HW223673   1.652   5.048  11.035  0.8868  0.4848  0.2114
40556SOL     OW23674   0.599  10.964   7.127  0.7039  0.0734 -0.0944
40556SOL    HW123675   0.633  10.890   7.177 -0.1747  0.4801  1.1466
40556SOL    HW223676   0.652  11.038   7.157  0.3051  0.2825  0.0977
40557SOL     OW23677   8.223   7.924   6.867  0.3933  0.4519 -0.3704
40557SOL    HW123678   8.178   7.839   6.862 -0.0598  0.5722  1.2356
40557SOL    HW223679   8.207   7.964   6.781 -2.2360  0.3143 -0.0252
40558SOL     OW23680  10.425   6.100   5.444 -0.6853  0.1612 -0.0602
40558SOL    HW123681  10.517   6.101   5.469 -1.1240  0.0550  1.7238
40558SOL    HW223682  10.378   6.096   5.527 -2.2693 -1.7396 -0.9569
40559SOL     OW23683  10.961   7.416   5.451  0.2278 -0.3347  0.0779
40559SOL    HW123684  10.957   7.489   5.389  0.1026 -0.2069  0.2338
40559SOL    HW223685  11.033   7.361   5.419  0.9629  0.3526  0.4987
40560SOL     OW23686   3.063  10.138   3.799 -0.0511 -0.3641  0.0534
40560SOL    HW123687   3.030  10.079   3.731  0.0062 -0.4313  0.0836
40560SOL    HW223688   3.158  10.132   3.793 -0.0456 -0.4182  0.1797
40561SOL     OW23689   8.491   2.425   6.155 -0.6136  0.4426  0.1007
40561SOL    HW123690   8.463   2.350   6.102  0.0731  0.1870  0.0856
40561SOL    HW223691   8.493   2.391   6.245  1.9789 -0.2855 -0.1594
40562SOL     OW23692   1.528   4.773   8.121 -0.0059  0.1979  0.5647
40562SOL    HW123693   1.600   4.811   8.071  2.0345 -1.1671  2.2774
40562SOL    HW223694   1.541   4.805   8.210  0.0051 -2.0480  1.4284
40563SOL     OW23695  10.554   4.121   5.479 -0.3532  0.2465  0.2443
40563SOL    HW123696  10.504   4.200   5.463 -1.4028 -0.5383 -0.5067
40563SOL    HW223697  10.532   4.095   5.569  0.5611  1.1820  0.7532
40564SOL     OW23698   0.027   9.698   9.118  0.3629 -0.0185 -0.1606
40564SOL    HW123699   0.094   9.667   9.180 -0.5753  0.4082  1.1162
40564SOL    HW223700   0.022   9.792   9.135  0.2071  0.1288 -1.0216
40565SOL     OW23701   8.896   7.180   1.993  0.5896  0.0391  0.5459
40565SOL    HW123702   8.824   7.132   1.951 -1.2985  1.5719  1.8748
40565SOL    HW223703   8.920   7.126   2.068  1.5821 -0.9692 -0.4489
40566SOL     OW23704   0.715   8.897   5.035 -0.3745 -0.0095  0.0013
40566SOL    HW123705   0.735   8.838   4.962  0.3034  0.7405 -0.4233
40566SOL    HW223706   0.742   8.984   5.005 -0.1410  0.3228  1.1182
40567SOL     OW23707   9.723   1.171   2.681 -0.3078 -0.6738 -0.5717
40567SOL    HW123708   9.742   1.243   2.740  1.3854 -1.4852 -0.0478
40567SOL    HW223709   9.731   1.208   2.594  2.1574 -0.5329 -0.3431
40568SOL     OW23710  11.056   5.853   6.690  0.0493  0.1290  0.6901
40568SOL    HW123711  11.014   5.823   6.771 -0.8652  0.0022  0.1900
40568SOL    HW223712  10.985   5.854   6.626  0.5302  1.3094  0.1579
40569SOL     OW23713   8.070   1.473   1.406 -0.1974 -0.8677 -0.3416
40569SOL    HW123714   8.063   1.512   1.493  0.3050 -0.4910 -0.4651
40569SOL    HW223715   8.084   1.380   1.422  0.8731 -0.6613  0.0112
40570SOL     OW23716   4.492   6.160   7.575  0.1213 -0.1919  0.0046
40570SOL    HW123717   4.460   6.071   7.586 -0.0680 -0.1825 -0.4696
40570SOL    HW223718   4.548   6.157   7.498  0.0487  0.1126 -0.0620
40571SOL     OW23719   1.324   2.279   5.567 -0.1407  0.0357 -0.3771
40571SOL    HW123720   1.314   2.190   5.602 -0.1530 -0.7471 -2.2154
40571SOL    HW223721   1.418   2.289   5.553 -0.2381 -0.1901 -1.3014
40572SOL     OW23722   4.452   1.815  10.380  0.4180  0.5102  0.1993
40572SOL    HW123723   4.474   1.728  10.348  2.2683  0.8310  0.5115
40572SOL    HW223724   4.476   1.874  10.309 -0.7783  0.7995  0.0095
40573SOL     OW23725  11.087   5.416   2.125 -0.6396  0.2682  0.1890
40573SOL    HW123726  11.122   5.426   2.214 -0.5729  1.5557  0.0420
40573SOL    HW223727  11.019   5.483   2.119 -2.1565 -1.2174 -0.0306
40574SOL     OW23728   8.178   4.366   9.941  0.2297  0.0174  0.5979
40574SOL    HW123729   8.147   4.332  10.025 -0.9245  0.7082  0.4712
40574SOL    HW223730   8.155   4.459   9.943 -0.9190 -0.1896 -0.9522
40575SOL     OW23731   3.890   6.287   8.616  0.2868 -0.7303  0.5599
40575SOL    HW123732   3.812   6.312   8.666 -0.5491 -0.1685 -0.9746
40575SOL    HW223733   3.863   6.293   8.525  1.3432 -3.1047  0.0123
40576SOL     OW23734   0.722   1.905   3.743 -0.4018 -0.6877  0.2992
40576SOL    HW123735   0.761   1.946   3.666 -0.5327  1.2592  1.2203
40576SOL    HW223736   0.794   1.899   3.806 -0.9584  0.5342  1.0819
40577SOL     OW23737   1.835   7.169   5.954  0.2258 -0.0504  0.3860
40577SOL    HW123738   1.790   7.205   6.030 -3.6621 -2.6158 -0.3738
40577SOL    HW223739   1.785   7.201   5.879  1.2037 -1.0796 -0.7580
40578SOL     OW23740   9.168   9.587   3.981  0.2973  0.2938 -0.0622
40578SOL    HW123741   9.234   9.529   3.943 -1.5602 -1.5652 -0.6459
40578SOL    HW223742   9.125   9.628   3.906  0.2297  0.8593  0.2782
40579SOL     OW23743   9.705   4.654   7.866 -0.2041 -0.5880 -0.2141
40579SOL    HW123744   9.771   4.613   7.921 -0.6421 -2.4674 -0.9950
40579SOL    HW223745   9.755   4.702   7.800  0.3344  0.0744  0.6662
40580SOL     OW23746   8.818   4.006   5.126  0.4598 -0.1196  0.9881
40580SOL    HW123747   8.883   3.958   5.074 -1.2486 -1.7964  0.2547
40580SOL    HW223748   8.796   4.082   5.073 -1.5745 -2.0276 -1.1357
40581SOL     OW23749   2.010   8.633   6.029  0.2732 -0.6534 -0.3992
40581SOL    HW123750   2.105   8.642   6.026  0.2252 -0.0659 -0.2530
40581SOL    HW223751   1.977   8.709   5.981 -0.1710  0.7184  1.9351
40582SOL     OW23752   9.319   0.824   7.690 -0.4742 -0.7995  0.2734
40582SOL    HW123753   9.276   0.884   7.629  0.2353 -0.3158  0.2376
40582SOL    HW223754   9.412   0.833   7.671 -0.0796  0.6009  2.5105
40583SOL     OW23755   6.570   8.013   4.426  0.8281  0.2915 -0.6653
40583SOL    HW123756   6.500   7.957   4.459  1.1530 -0.1609 -0.7346
40583SOL    HW223757   6.525   8.087   4.386  0.4050  0.2947 -0.1935
40584SOL     OW23758   1.063   0.057   6.143 -0.1479  0.1147  0.4958
40584SOL    HW123759   1.000  -0.008   6.176 -0.2975  0.1463  0.2718
40584SOL    HW223760   1.031   0.079   6.056  1.0129 -1.0036 -0.2447
40585SOL     OW23761   2.338   4.497   4.985 -0.4608 -0.2423 -0.0269
40585SOL    HW123762   2.350   4.410   4.949 -0.3200 -0.5659  0.7941
40585SOL    HW223763   2.418   4.514   5.035 -0.1570  0.6618 -0.7940
40586SOL     OW23764   9.840   8.824   2.479 -0.2724  0.3520  0.2293
40586SOL    HW123765   9.892   8.793   2.404 -0.5055  0.2163  0.1233
40586SOL    HW223766   9.753   8.840   2.442  0.0584  1.9827  0.0859
40587SOL     OW23767   3.355   6.298   0.799  0.3837 -0.1481 -0.5987
40587SOL    HW123768   3.422   6.302   0.867 -1.9186 -0.0500  1.8293
40587SOL    HW223769   3.326   6.207   0.799 -1.0453  0.2786  0.0815
40588SOL     OW23770   2.359   6.964   6.539 -0.9304 -0.4328  0.7826
40588SOL    HW123771   2.303   6.994   6.610 -1.7185  0.3365 -0.1383
40588SOL    HW223772   2.438   7.018   6.546 -0.6666 -0.9068  1.5428
40589SOL     OW23773   6.947   4.052   5.295 -0.4738  0.5331  0.8214
40589SOL    HW123774   6.969   4.138   5.333 -0.4457  0.8101  0.1892
40589SOL    HW223775   6.940   4.069   5.201  0.4603 -0.3476  0.5803
40590SOL     OW23776   1.361   0.243  11.027 -0.3122  0.7399  0.5919
40590SOL    HW123777   1.449   0.280  11.026 -0.3322  0.9415 -2.7734
40590SOL    HW223778   1.370   0.157  10.987 -1.8456  1.6161 -1.8878
40591SOL     OW23779   7.501   3.303   6.475 -0.3558 -0.0582  0.0373
40591SOL    HW123780   7.467   3.257   6.398 -0.2060  0.7478 -0.5196
40591SOL    HW223781   7.471   3.250   6.549 -0.6927 -0.7247 -0.5590
40592SOL     OW23782  10.269   6.019   5.700 -0.0205 -1.1625 -0.1797
40592SOL    HW123783  10.190   6.006   5.646  0.2444 -1.7390 -0.4406
40592SOL    HW223784  10.335   5.963   5.659  0.3216 -1.2400  0.4656
40593SOL     OW23785  11.083   6.335   7.762  0.8113 -0.5194  0.3086
40593SOL    HW123786  11.059   6.396   7.832  3.6188  0.1143  0.8504
40593SOL    HW223787  11.018   6.350   7.694  0.2088  1.6156  1.2615
40594SOL     OW23788   9.047   6.175   4.564 -0.0726 -0.0997 -0.2269
40594SOL    HW123789   9.057   6.108   4.631 -0.1050 -1.1855 -1.2863
40594SOL    HW223790   8.970   6.149   4.514 -1.0522  1.6006  0.3041
40595SOL     OW23791   2.031   1.058   1.818 -0.2851 -0.1158  0.0310
40595SOL    HW123792   2.106   1.096   1.772 -0.9339 -1.7223 -2.6015
40595SOL    HW223793   1.955   1.086   1.766 -1.0866 -1.9271  0.1480
40596SOL     OW23794  10.453   5.598   5.625 -0.7528 -0.5371  0.4392
40596SOL    HW123795  10.364   5.589   5.657 -0.1571  0.5716  2.5961
40596SOL    HW223796  10.509   5.581   5.701  0.7880  1.1133 -0.2268
40597SOL     OW23797   6.827   1.302   5.332 -0.0027 -0.5130  0.3129
40597SOL    HW123798   6.823   1.322   5.239 -0.7661 -1.4290  0.1397
40597SOL    HW223799   6.920   1.303   5.353  0.1104  1.2759 -0.0880
40598SOL     OW23800   3.472   5.555  10.614  0.8212  0.0690  0.0798
40598SOL    HW123801   3.416   5.502  10.671  0.0854 -0.1015 -0.7864
40598SOL    HW223802   3.433   5.548  10.527  1.3848  1.0878 -0.2814
40599SOL     OW23803   4.332   2.800   8.728  0.1821  0.3936 -0.2155
40599SOL    HW123804   4.410   2.746   8.739  0.1397  0.1476 -1.0671
40599SOL    HW223805   4.277   2.778   8.803  2.0946  2.6502  2.0149
40600SOL     OW23806   9.366   2.270   9.373  0.3917 -0.2869  0.2232
40600SOL    HW123807   9.278   2.244   9.345  1.3505 -1.6503 -1.8342
40600SOL    HW223808   9.420   2.193   9.356  1.9361  0.3610  1.8690
40601SOL     OW23809   8.383   5.702   9.414  0.0948  0.6048 -0.3019
40601SOL    HW123810   8.382   5.747   9.498  2.0090 -0.5455  0.4228
40601SOL    HW223811   8.476   5.681   9.400 -0.2450  0.3246 -2.4645
40602SOL     OW23812   9.990   2.027   9.126 -0.3532  0.1591  0.1086
40602SOL    HW123813  10.018   2.110   9.086 -1.7115  0.5856 -0.0115
40602SOL    HW223814  10.072   1.984   9.151  0.4195  1.1017 -0.6923
40603SOL     OW23815   9.597   9.375   5.026 -0.0974 -0.5405 -0.1126
40603SOL    HW123816   9.509   9.383   4.989 -0.6530 -1.2394  0.9936
40603SOL    HW223817   9.656   9.380   4.951 -1.0481  0.4268 -0.8222
40604SOL     OW23818   8.388   4.046  11.089  0.7090 -0.1447 -0.3336
40604SOL    HW123819   8.384   4.100  11.168  4.0384 -0.8390  0.4626
40604SOL    HW223820   8.382   4.109  11.017  2.2012  1.1218  0.5607
40605SOL     OW23821   9.060   2.456   5.457 -0.3831  0.0255 -0.1167
40605SOL    HW123822   9.030   2.545   5.476  1.4551  1.1669 -2.1228
40605SOL    HW223823   8.990   2.417   5.405 -0.3973  1.0016 -0.8564
40606SOL     OW23824   0.242   5.785   9.591  0.3440  0.3296 -0.2725
40606SOL    HW123825   0.293   5.743   9.522 -1.2743  0.4144 -1.5634
40606SOL    HW223826   0.307   5.835   9.641  2.2126 -2.8938  0.8278
40607SOL     OW23827   1.852   2.348   8.291  0.3070 -0.1793 -0.6815
40607SOL    HW123828   1.812   2.308   8.214  0.5854  0.6371 -1.2643
40607SOL    HW223829   1.785   2.408   8.324  0.0071 -0.8686  0.0089
40608SOL     OW23830   1.150   7.578   4.861 -0.3008 -0.1183 -0.0414
40608SOL    HW123831   1.073   7.561   4.915 -0.2203  3.7043  1.5816
40608SOL    HW223832   1.223   7.576   4.923  0.2245  1.1974 -0.5958
40609SOL     OW23833  11.014  10.196   7.393 -0.4541 -0.3141 -0.4123
40609SOL    HW123834  11.070  10.131   7.350  0.5473  0.8666 -0.9834
40609SOL    HW223835  10.962  10.234   7.322  0.5946  1.0527 -0.4981
40610SOL     OW23836   7.370   8.956   1.177 -0.0920  1.0401 -0.6564
40610SOL    HW123837   7.339   8.971   1.266  1.1567 -1.3264  0.2838
40610SOL    HW223838   7.416   9.036   1.153 -1.5432  2.2176  0.2759
40611SOL     OW23839   9.191   6.297   8.293  0.2229 -0.2559 -0.0706
40611SOL    HW123840   9.117   6.240   8.275 -1.9448  2.8131 -1.9656
40611SOL    HW223841   9.253   6.280   8.222 -0.5805 -0.0619 -0.8407
40612SOL     OW23842   2.022   9.099   4.285  0.2268 -0.7019  0.3548
40612SOL    HW123843   1.939   9.056   4.265 -0.7686  1.4289 -0.4420
40612SOL    HW223844   2.048   9.140   4.203  1.5489 -0.4712  0.8637
40613SOL     OW23845   3.716   9.582   4.797 -0.5138 -0.0761  0.6133
40613SOL    HW123846   3.687   9.523   4.728 -0.3247 -0.1582  0.6052
40613SOL    HW223847   3.681   9.545   4.878  0.9991 -1.1329  0.8234
40614SOL     OW23848   7.916   0.446   0.063 -0.0225  0.1358  0.0060
40614SOL    HW123849   7.966   0.485  -0.009 -0.2840 -1.1078 -0.8799
40614SOL    HW223850   7.945   0.494   0.141  1.8046  0.1168 -0.6215
40615SOL     OW23851   9.758   7.592   2.589  0.2720 -0.1386 -0.6647
40615SOL    HW123852   9.799   7.661   2.537  1.6227 -2.1635 -2.4766
40615SOL    HW223853   9.666   7.593   2.563  0.6599 -0.2124 -2.1128
40616SOL     OW23854   5.516  10.550   8.707 -0.1691 -0.1365  0.5539
40616SOL    HW123855   5.472  10.467   8.721 -1.5158  0.2255 -1.2752
40616SOL    HW223856   5.464  10.595   8.641  0.7702  1.9886  1.1629
40617SOL     OW23857   9.892   7.663   9.552 -0.2570 -0.2066  0.2381
40617SOL    HW123858   9.802   7.646   9.579 -0.6328  0.5931 -0.4509
40617SOL    HW223859   9.943   7.665   9.633 -1.4285  2.7485  1.0081
40618SOL     OW23860   6.738   5.225   2.170  0.0404 -0.1562  0.5761
40618SOL    HW123861   6.660   5.268   2.136  1.2888  1.8858  0.1555
40618SOL    HW223862   6.708   5.183   2.251 -1.6265 -0.0409  0.0638
40619SOL     OW23863   8.510   1.085   7.310  0.1289 -0.3704 -0.5568
40619SOL    HW123864   8.514   1.113   7.219 -0.9720  1.3665 -0.1258
40619SOL    HW223865   8.430   1.124   7.344  1.2244  0.2303  1.5357
40620SOL     OW23866   9.394   4.089   8.514 -0.8537  0.6704  0.5446
40620SOL    HW123867   9.461   4.027   8.543 -1.0280 -0.3764 -1.1079
40620SOL    HW223868   9.343   4.108   8.592  0.5730  0.4772  1.5657
40621SOL     OW23869   1.377   7.234   5.902 -0.4158 -0.3234  0.0983
40621SOL    HW123870   1.354   7.145   5.875 -1.2121  0.2348 -1.1890
40621SOL    HW223871   1.375   7.285   5.821  2.1052  0.4852  0.4405
40622SOL     OW23872   7.321   1.263   5.921  0.6677 -0.0989 -0.0940
40622SOL    HW123873   7.242   1.230   5.962  0.1842  1.2012  0.0526
40622SOL    HW223874   7.290   1.317   5.849  1.3867  0.9757  0.3796
40623SOL     OW23875   3.496   4.882  11.063 -0.0060 -0.2090  0.3934
40623SOL    HW123876   3.467   4.970  11.086  0.4911  0.4719 -1.4209
40623SOL    HW223877   3.443   4.859  10.986  1.4996 -0.5285 -0.5823
40624SOL     OW23878   7.950   2.408   9.271 -0.4315 -0.0698 -0.3804
40624SOL    HW123879   7.873   2.454   9.239 -0.9778 -0.6207  0.1244
40624SOL    HW223880   7.972   2.346   9.202 -0.5933 -0.0916 -0.4115
40625SOL     OW23881   2.190   4.037  10.735  0.8808 -0.1338 -0.5789
40625SOL    HW123882   2.164   3.987  10.813  1.2129  0.2309 -0.2290
40625SOL    HW223883   2.244   3.976  10.685  1.3442 -0.1046 -0.1182
40626SOL     OW23884   4.080   1.081   5.491 -0.1552 -0.0223  0.4705
40626SOL    HW123885   3.989   1.109   5.476 -0.3783 -0.3955  1.0908
40626SOL    HW223886   4.099   1.108   5.580  0.6767  0.8858  0.0358
40627SOL     OW23887  10.319   5.451   5.945  0.1536 -0.5989  0.3156
40627SOL    HW123888  10.336   5.543   5.925 -2.3625  0.3781  2.1669
40627SOL    HW223889  10.366   5.403   5.877  0.5692  2.0662 -1.4438
40628SOL     OW23890   9.853   3.926   7.816 -0.3797  0.2519  0.8336
40628SOL    HW123891   9.926   3.984   7.795 -1.8341  2.0445  0.4863
40628SOL    HW223892   9.801   3.975   7.880 -1.0622 -1.1658  1.4036
40629SOL     OW23893   2.407   6.762   8.927 -0.2978  0.4271  0.3148
40629SOL    HW123894   2.433   6.853   8.914 -1.1363  0.5206 -0.9425
40629SOL    HW223895   2.318   6.767   8.961 -1.4653  0.1383 -2.3982
40630SOL     OW23896  10.794   6.438   9.396 -0.3865  0.0741  0.2130
40630SOL    HW123897  10.732   6.370   9.370 -0.1182  0.8871 -2.9366
40630SOL    HW223898  10.780   6.509   9.334  1.0331  1.9311  1.8743
40631SOL     OW23899   1.533   7.238   6.144 -0.2938 -0.2349 -0.1425
40631SOL    HW123900   1.487   7.210   6.064  0.8050 -1.3228 -0.4256
40631SOL    HW223901   1.552   7.331   6.129  1.4883 -0.8121 -2.0094
40632SOL     OW23902   3.124   7.571   1.611 -0.5204  0.2181  0.0276
40632SOL    HW123903   3.038   7.613   1.604 -0.8271 -0.2647  0.7969
40632SOL    HW223904   3.111   7.484   1.573 -0.3647  0.1519  0.1260
40633SOL     OW23905  10.840   9.660  11.067  0.3304 -0.3171  0.3443
40633SOL    HW123906  10.866   9.747  11.035  0.5324 -0.8923 -1.1087
40633SOL    HW223907  10.806   9.615  10.990  2.2045 -2.2721  0.5799
40634SOL     OW23908  10.573   3.692   8.743  0.3741  0.0238  0.2884
40634SOL    HW123909  10.547   3.783   8.759  1.4160  0.4337 -0.2415
40634SOL    HW223910  10.616   3.694   8.657 -0.6305 -1.1959 -0.2792
40635SOL     OW23911   9.955   5.697   9.480  1.3146 -0.8097  0.0578
40635SOL    HW123912   9.920   5.616   9.517  1.3831 -0.8557  0.0249
40635SOL    HW223913  10.038   5.670   9.440  0.2728 -1.1873 -1.9676
40636SOL     OW23914   5.325   9.408   9.839 -0.1649  0.2500  0.1401
40636SOL    HW123915   5.350   9.318   9.860 -1.1852  0.1253  0.9367
40636SOL    HW223916   5.395   9.440   9.782  1.7805 -0.0815  2.1927
40637SOL     OW23917   5.140   7.371   7.316 -0.6811 -0.5299 -0.2445
40637SOL    HW123918   5.061   7.354   7.367  0.7896 -0.1255  2.3880
40637SOL    HW223919   5.140   7.465   7.301 -1.0301 -0.6251 -0.8570
40638SOL     OW23920   0.368   8.954   7.338 -0.4284  0.7147 -0.0675
40638SOL    HW123921   0.459   8.928   7.350 -0.4287  1.1903  1.1021
40638SOL    HW223922   0.371   9.024   7.272 -0.0380  0.2163 -0.5815
40639SOL     OW23923   7.097   2.941   4.525 -0.5155 -0.1717 -0.1822
40639SOL    HW123924   7.059   3.024   4.497  0.7015  0.9508  1.2874
40639SOL    HW223925   7.176   2.966   4.574 -0.1889 -2.1890  0.4280
40640SOL     OW23926   3.574   1.430   3.868  0.6131 -0.2978  0.3642
40640SOL    HW123927   3.574   1.341   3.833 -0.2054  0.1573 -0.8605
40640SOL    HW223928   3.495   1.470   3.832  2.0517  1.5971 -0.9025
40641SOL     OW23929   6.384   0.573  10.634 -0.2200 -0.5867 -0.5045
40641SOL    HW123930   6.378   0.486  10.594 -0.6489 -0.7039 -0.1914
40641SOL    HW223931   6.475   0.579  10.664 -0.1443 -0.8657 -0.6749
40642SOL     OW23932   0.265   2.921   7.143 -0.0248 -0.0127  0.0069
40642SOL    HW123933   0.256   2.844   7.198  0.4353  0.2852  0.5049
40642SOL    HW223934   0.306   2.889   7.063 -0.3746 -0.3864 -0.0223
40643SOL     OW23935   4.664   9.206  10.345  0.8019 -0.3986 -0.0393
40643SOL    HW123936   4.593   9.198  10.408 -0.0788 -0.6119 -1.0278
40643SOL    HW223937   4.704   9.291  10.363  1.0069 -0.7363  1.2216
40644SOL     OW23938   8.245   6.059   7.747 -0.6790  0.4482  0.0331
40644SOL    HW123939   8.220   6.047   7.839 -0.9274 -0.8255 -0.1686
40644SOL    HW223940   8.311   5.992   7.732 -2.0342 -0.6903 -1.2070
40645SOL     OW23941   1.578   8.701   5.230 -0.1807 -0.2703  0.3438
40645SOL    HW123942   1.524   8.635   5.274  0.6912 -1.2560 -0.0191
40645SOL    HW223943   1.552   8.784   5.271 -0.9382 -0.8920  1.1755
40646SOL     OW23944   9.960  10.815   0.241  0.4860  0.5438  0.2710
40646SOL    HW123945   9.910  10.802   0.321  0.5576 -2.5129 -0.0614
40646SOL    HW223946  10.038  10.863   0.269  0.2705 -0.0219  1.9262
40647SOL     OW23947   8.665   5.956   1.982 -0.2517 -0.0263  0.7932
40647SOL    HW123948   8.591   6.016   1.989 -0.0601  0.0863  2.1663
40647SOL    HW223949   8.740   6.011   1.960 -0.2209  0.1476  1.3134
40648SOL     OW23950   1.667   8.695   5.998 -0.1362  0.0727 -0.0721
40648SOL    HW123951   1.592   8.637   6.010  0.5167 -0.4353  1.9139
40648SOL    HW223952   1.704   8.670   5.914 -1.9234  0.0592 -0.8987
40649SOL     OW23953  10.642   7.464  10.388  0.2463 -0.2702 -0.2316
40649SOL    HW123954  10.570   7.421  10.434 -1.3208  1.0367 -1.3181
40649SOL    HW223955  10.689   7.511  10.455 -0.4290 -0.4761  0.4008
40650SOL     OW23956   9.007   9.391   9.205 -0.3193 -0.1391  0.5645
40650SOL    HW123957   8.978   9.340   9.129 -0.5271  0.2989  0.3459
40650SOL    HW223958   8.937   9.381   9.269 -1.2581  1.3422 -0.1546
40651SOL     OW23959   7.673   3.956   3.418  0.1572 -0.4046 -0.2807
40651SOL    HW123960   7.655   3.863   3.430  1.2254 -0.6658 -0.6169
40651SOL    HW223961   7.632   3.976   3.333 -2.4596  0.1200  0.9946
40652SOL     OW23962   6.972   2.649   5.178 -0.4460 -0.0945  0.2081
40652SOL    HW123963   7.025   2.577   5.143 -0.6414 -0.3183  0.3700
40652SOL    HW223964   6.882   2.617   5.174 -0.5136  0.0570  0.4835
40653SOL     OW23965   9.912   8.480   5.021  0.0422  0.1122  0.0297
40653SOL    HW123966   9.832   8.443   5.058  0.5606 -0.3557  0.7105
40653SOL    HW223967   9.945   8.412   4.962  0.8905 -0.4623  1.1319
40654SOL     OW23968   1.276   3.845   9.611  0.1404  0.0373 -0.9156
40654SOL    HW123969   1.297   3.904   9.684  0.6286 -0.7336 -0.4277
40654SOL    HW223970   1.324   3.765   9.630 -1.1008 -0.7947 -1.1862
40655SOL     OW23971  11.038   3.648   7.776  0.8840 -0.3721  0.4778
40655SOL    HW123972  10.949   3.668   7.804  0.8942  0.5693 -0.1180
40655SOL    HW223973  11.094   3.696   7.837  0.9691 -0.5317  0.5248
40656SOL     OW23974   0.605   5.667   3.720 -0.2474 -0.1910  0.7228
40656SOL    HW123975   0.583   5.702   3.806  0.0851 -1.5842  1.4117
40656SOL    HW223976   0.691   5.628   3.731 -0.8995 -1.8614  0.2436
40657SOL     OW23977   1.907   6.213   8.777 -0.6796 -0.1965 -0.1148
40657SOL    HW123978   1.936   6.255   8.858  0.1852 -0.8464 -0.0825
40657SOL    HW223979   1.876   6.127   8.804 -1.1285 -0.1188 -0.3743
40658SOL     OW23980   6.437   1.298  10.875  0.1190  0.1357  0.0338
40658SOL    HW123981   6.432   1.360  10.802 -1.7750  0.4454  0.3698
40658SOL    HW223982   6.381   1.225  10.847  0.1205 -0.1567  0.7874
40659SOL     OW23983   6.834   4.990   7.665 -0.3588 -0.2879 -0.1459
40659SOL    HW123984   6.772   4.919   7.682  0.2441 -1.0172 -0.8578
40659SOL    HW223985   6.902   4.978   7.731  1.4837 -2.5214 -2.2423
40660SOL     OW23986   4.235   8.529   7.582 -0.0967 -0.0376 -0.0535
40660SOL    HW123987   4.153   8.481   7.574  0.2567 -0.5362 -0.8078
40660SOL    HW223988   4.221   8.589   7.654 -0.8273 -0.7247  0.3872
40661SOL     OW23989   7.225   1.337   8.220  0.0203  0.0650 -0.1663
40661SOL    HW123990   7.294   1.309   8.281 -0.0435  0.1355 -0.0613
40661SOL    HW223991   7.160   1.266   8.224 -0.2292  0.3131  0.2404
40662SOL     OW23992   6.368   7.911   0.207 -0.3848  0.0180 -0.0566
40662SOL    HW123993   6.428   7.928   0.280 -0.2697  1.5783 -0.4855
40662SOL    HW223994   6.289   7.959   0.229 -0.1126  1.0615 -1.2550
40663SOL     OW23995   0.940   9.300   0.872 -0.6978  0.3858 -0.4838
40663SOL    HW123996   0.896   9.341   0.796  0.5269  0.5499 -1.1255
40663SOL    HW223997   1.009   9.247   0.833 -0.1018  0.4139  0.5265
40664SOL     OW23998   2.449   4.471   9.905  0.0539 -0.0743 -0.1624
40664SOL    HW123999   2.383   4.426   9.957 -1.7974  3.6436  1.0506
40664SOL    HW224000   2.457   4.419   9.825 -1.9085 -2.4056  1.0582
40665SOL     OW24001   1.862   6.357   7.261 -0.2896  0.2581  0.0069
40665SOL    HW124002   1.885   6.450   7.259 -2.8282  0.9875  0.1017
40665SOL    HW224003   1.809   6.348   7.341 -1.1642 -0.9441 -0.6768
40666SOL     OW24004   9.183   2.421   0.851  0.4967  0.1695  0.8747
40666SOL    HW124005   9.113   2.357   0.866 -1.1394  1.5683 -0.4947
40666SOL    HW224006   9.218   2.437   0.939  1.2156 -2.7957  1.2532
40667SOL     OW24007   0.511   1.312   6.098 -0.1785  0.2463  0.3221
40667SOL    HW124008   0.535   1.394   6.142  0.5225 -0.0895  0.5693
40667SOL    HW224009   0.435   1.336   6.045 -0.4612  0.8810  0.9819
40668SOL     OW24010  10.730   4.182   8.402 -0.1368  0.1168 -0.2167
40668SOL    HW124011  10.825   4.187   8.392 -0.2079  2.0592 -0.2327
40668SOL    HW224012  10.706   4.099   8.361  1.6232 -0.7792  0.4625
40669SOL     OW24013   5.215   7.443   9.065  0.2213 -0.0784  0.2447
40669SOL    HW124014   5.229   7.516   9.125 -1.8153  0.3719  0.2579
40669SOL    HW224015   5.155   7.477   8.999  0.3926 -1.3241 -0.5966
40670SOL     OW24016   5.283   5.548   9.108  0.4762  0.4283  0.7107
40670SOL    HW124017   5.281   5.632   9.062 -0.6690  0.2945  0.5035
40670SOL    HW224018   5.357   5.501   9.068 -1.0908 -0.0935 -1.7615
40671SOL     OW24019   2.209   7.972   7.519 -0.4814 -0.0824  0.0095
40671SOL    HW124020   2.248   8.057   7.499 -2.9011  1.6459  2.0860
40671SOL    HW224021   2.195   7.932   7.433  2.2969  0.7425 -0.9588
40672SOL     OW24022   8.615   0.139   8.136 -0.8679 -0.5769 -0.0173
40672SOL    HW124023   8.606   0.229   8.166 -0.4662 -0.1614 -1.0871
40672SOL    HW224024   8.655   0.093   8.210 -1.5341 -0.0095  0.7233
40673SOL     OW24025   6.961  10.692   2.756  0.6933  0.1936  0.4450
40673SOL    HW124026   6.967  10.760   2.689  1.6650  0.4506  0.7720
40673SOL    HW224027   7.052  10.669   2.774  0.4269 -0.1491  1.3983
40674SOL     OW24028   0.087   7.559   7.260 -0.0536 -0.4867 -0.3749
40674SOL    HW124029   0.020   7.505   7.220 -0.1197  0.9170 -2.2849
40674SOL    HW224030   0.053   7.578   7.348 -1.5501 -0.8618 -0.8490
40675SOL     OW24031   9.906   8.881   7.323 -0.1564  0.6135 -0.1278
40675SOL    HW124032   9.890   8.964   7.367 -0.1910  1.2124 -1.2247
40675SOL    HW224033   9.824   8.832   7.334 -0.1179  0.7054  0.5687
40676SOL     OW24034   0.409   7.239   5.302 -0.2754 -0.0341  0.7929
40676SOL    HW124035   0.329   7.262   5.255 -0.3037  0.0713  0.8917
40676SOL    HW224036   0.394   7.271   5.391 -0.4554 -0.7274  1.0202
40677SOL     OW24037   1.520   7.010   9.693 -0.4017  0.1910 -0.1275
40677SOL    HW124038   1.587   6.975   9.752  2.1823  1.9834 -1.7903
40677SOL    HW224039   1.529   7.105   9.700 -0.9400  0.4644 -2.3766
40678SOL     OW24040   8.320   0.094   4.069 -0.0442 -0.0153 -0.3046
40678SOL    HW124041   8.255   0.027   4.089  1.9445 -1.8859  0.3883
40678SOL    HW224042   8.302   0.120   3.979 -0.1901 -2.4218 -1.0392
40679SOL     OW24043   6.164   5.364   0.278  0.2805  0.6665  0.0567
40679SOL    HW124044   6.187   5.306   0.206  1.3000  0.0239  0.8715
40679SOL    HW224045   6.076   5.335   0.304  0.0577  0.6610 -0.6781
40680SOL     OW24046   9.696   4.702   3.020 -0.0261  0.4198 -0.1331
40680SOL    HW124047   9.611   4.661   3.008  0.4379 -0.2516 -1.3449
40680SOL    HW224048   9.713   4.695   3.114  0.0167 -2.2100 -0.2629
40681SOL     OW24049   1.298   3.195   7.756 -0.1100  0.3649  0.0546
40681SOL    HW124050   1.321   3.283   7.783 -0.9579  0.4301  0.5862
40681SOL    HW224051   1.203   3.189   7.769 -0.0253 -0.7199  0.3158
40682SOL     OW24052   0.861   2.919   4.434  0.6085 -0.3179  0.0069
40682SOL    HW124053   0.841   3.011   4.449  0.9805 -0.1143 -0.7019
40682SOL    HW224054   0.850   2.878   4.520 -3.0510 -0.3130 -0.3274
40683SOL     OW24055   8.046   4.160   9.304 -0.2004  0.0529 -0.0733
40683SOL    HW124056   7.966   4.116   9.278  0.0660  0.6945 -2.1693
40683SOL    HW224057   8.036   4.175   9.398 -2.6944  0.4199 -0.3358
40684SOL     OW24058   3.833   0.199   2.014  0.0634 -0.0157 -0.0560
40684SOL    HW124059   3.912   0.145   2.012 -0.1200 -0.2690 -1.2602
40684SOL    HW224060   3.770   0.149   2.066  0.7455  0.2922  1.1117
40685SOL     OW24061   0.155   6.859   5.502  0.7448 -0.1781 -0.1331
40685SOL    HW124062   0.077   6.847   5.557 -1.4083 -0.1642 -2.9504
40685SOL    HW224063   0.227   6.869   5.564 -1.7125  1.5733  2.7056
40686SOL     OW24064  10.425   5.965   9.141  0.2196 -0.1002 -0.0085
40686SOL    HW124065  10.387   6.014   9.214 -0.2821  0.5861 -0.7124
40686SOL    HW224066  10.516   5.996   9.137 -0.4215  1.8392 -1.2679
40687SOL     OW24067   2.973   9.245   6.074  0.3713  0.1877 -0.0536
40687SOL    HW124068   3.022   9.267   6.153  0.1195  0.6694 -0.0224
40687SOL    HW224069   2.901   9.190   6.105  1.2767 -1.1254 -0.1948
40688SOL     OW24070   8.885   8.430   8.019 -0.3239 -0.1755 -1.2699
40688SOL    HW124071   8.912   8.359   8.078  0.6701  0.8079 -0.4943
40688SOL    HW224072   8.967   8.472   7.994 -0.9435  1.0504 -1.2817
40689SOL     OW24073   9.565   4.638   4.351 -0.0044 -0.5700 -0.4293
40689SOL    HW124074   9.579   4.588   4.431  0.6697  0.7099  0.2702
40689SOL    HW224075   9.556   4.571   4.283 -0.7750 -1.6863  0.7176
40690SOL     OW24076   9.933   9.011   6.084  0.1823 -0.0631 -0.5163
40690SOL    HW124077   9.883   8.934   6.058 -0.0450  0.1684 -0.7798
40690SOL    HW224078   9.869   9.083   6.082  0.5698  0.2726 -1.0486
40691SOL     OW24079   4.871   8.919  10.860 -0.2582 -0.0137  0.0711
40691SOL    HW124080   4.942   8.948  10.918  0.6148 -0.7688 -0.5869
40691SOL    HW224081   4.824   8.999  10.838 -0.5397  0.3024  1.7132
40692SOL     OW24082   6.110   7.294   3.248  0.0597 -0.4962 -0.2079
40692SOL    HW124083   6.129   7.330   3.334 -0.5036  1.0775 -0.6873
40692SOL    HW224084   6.156   7.211   3.244  0.3780 -0.4148  1.4679
40693SOL     OW24085   1.009   5.244  10.484 -0.0095  0.1071 -0.7218
40693SOL    HW124086   0.981   5.328  10.519  1.4945  1.2535 -2.0623
40693SOL    HW224087   0.976   5.179  10.545 -0.8803  1.7058  0.5669
40694SOL     OW24088   9.117   3.097   1.633 -0.1345  0.5982  0.7416
40694SOL    HW124089   9.108   3.121   1.540 -0.3778  0.6216  0.7707
40694SOL    HW224090   9.051   3.029   1.647  1.1259 -0.7290  0.4514
40695SOL     OW24091   1.561   6.477   7.206  0.1367  0.5460 -0.1219
40695SOL    HW124092   1.547   6.395   7.254  1.2273  1.2046  1.3848
40695SOL    HW224093   1.482   6.486   7.152 -0.3530 -1.0954  0.2484
40696SOL     OW24094  10.893   8.606   7.799 -0.4063  0.8178 -0.3108
40696SOL    HW124095  10.799   8.605   7.781 -0.6969 -0.7357  1.0604
40696SOL    HW224096  10.932   8.640   7.718 -2.1090  1.2665 -1.0018
40697SOL     OW24097   1.512   9.132   9.534 -0.2443  0.6443 -0.2660
40697SOL    HW124098   1.429   9.085   9.524 -0.7174  0.8731  2.0157
40697SOL    HW224099   1.489   9.214   9.576  0.9360  1.6595 -1.4989
40698SOL     OW24100   7.348   2.853  10.285 -0.0916 -0.5968  0.0855
40698SOL    HW124101   7.434   2.833  10.250  0.3849 -0.8197  1.3333
40698SOL    HW224102   7.347   2.948  10.293 -0.3868 -0.4965 -0.9282
40699SOL     OW24103   1.547   4.291   8.393 -0.1043 -0.5813 -0.1821
40699SOL    HW124104   1.620   4.308   8.452 -0.3304 -0.6741  0.1300
40699SOL    HW224105   1.575   4.327   8.309  0.2921 -0.6023 -0.0619
40700SOL     OW24106   7.993   4.844   7.206 -0.2154 -0.0486 -0.0605
40700SOL    HW124107   8.014   4.856   7.113  0.7874  1.4818  0.3286
40700SOL    HW224108   8.054   4.901   7.252 -0.5996 -0.8867  1.5710
40701SOL     OW24109   8.744   4.782   9.959 -0.3083 -0.1632  0.4930
40701SOL    HW124110   8.751   4.811  10.050  0.0794 -2.6321  1.3270
40701SOL    HW224111   8.832   4.754   9.935 -0.0506  1.8707 -1.2302
40702SOL     OW24112   9.298  10.062   9.512  0.1717  0.1781  0.2505
40702SOL    HW124113   9.230  10.051   9.445  0.0345 -0.7557  0.5237
40702SOL    HW224114   9.328   9.973   9.530  1.4120  0.5772  0.2066
40703SOL     OW24115   8.263   9.483   4.200 -0.3092 -1.1569  0.7875
40703SOL    HW124116   8.204   9.416   4.235 -2.6253  1.0817  1.4898
40703SOL    HW224117   8.216   9.566   4.213  2.1402  0.5847 -0.5594
40704SOL     OW24118   1.048   2.765   7.088 -0.0404  0.4789 -0.3477
40704SOL    HW124119   0.969   2.799   7.046 -0.0441  0.3069 -0.4815
40704SOL    HW224120   1.120   2.797   7.033 -0.0101  0.7102 -0.1751
40705SOL     OW24121   1.995   9.801   1.555 -0.3743  0.1340 -0.0286
40705SOL    HW124122   2.016   9.824   1.465  0.5890 -0.2402  0.0916
40705SOL    HW224123   2.078   9.772   1.593 -0.3745  1.8557  1.4696
40706SOL     OW24124   8.258   6.084  10.468 -0.0027 -0.0752 -0.1323
40706SOL    HW124125   8.277   5.997  10.503  1.5811  0.8367  1.4880
40706SOL    HW224126   8.323   6.098  10.400  0.6898  0.3635  0.6011
40707SOL     OW24127   9.409   7.506   4.981  0.1193 -0.1618 -0.0532
40707SOL    HW124128   9.323   7.542   5.004 -0.7850 -0.4451 -2.5552
40707SOL    HW224129   9.453   7.578   4.935  0.1872 -0.7672 -0.9610
40708SOL     OW24130   9.509   4.787  10.531 -0.0636 -0.6888 -0.1092
40708SOL    HW124131   9.601   4.806  10.516 -0.0521  1.0026  1.6723
40708SOL    HW224132   9.509   4.702  10.575  0.8668  0.1662  1.6625
40709SOL     OW24133   4.240  10.421   5.672 -0.1284  0.6834 -0.1395
40709SOL    HW124134   4.173  10.407   5.738 -0.3793 -0.7335 -0.6694
40709SOL    HW224135   4.191  10.449   5.594  0.0551  1.1397 -0.0978
40710SOL     OW24136   8.176   9.675   8.930 -0.2934  0.1255  0.3397
40710SOL    HW124137   8.180   9.759   8.976  0.4187  0.1837  0.1907
40710SOL    HW224138   8.243   9.683   8.862  0.2436 -0.8083  0.7474
40711SOL     OW24139   7.198   6.787   7.560  0.2277 -0.0289 -0.1722
40711SOL    HW124140   7.228   6.740   7.638 -0.3039  2.1464  1.4526
40711SOL    HW224141   7.242   6.872   7.565 -0.0997  0.2939 -2.0908
40712SOL     OW24142  11.079   6.532   9.637  0.6472  0.3421 -0.7662
40712SOL    HW124143  11.103   6.529   9.544  0.7603 -1.2528 -0.7202
40712SOL    HW224144  10.987   6.505   9.638 -0.7592  4.4510 -0.7584
40713SOL     OW24145   3.129   1.719   0.817  0.1750 -0.6357  0.6408
40713SOL    HW124146   3.035   1.720   0.836 -0.0169 -0.8538 -0.2512
40713SOL    HW224147   3.162   1.641   0.861 -0.2222 -1.0353  0.2399
40714SOL     OW24148   0.847   6.377   5.579  0.3522  0.0069  0.2537
40714SOL    HW124149   0.910   6.328   5.632  0.1611  0.7511  1.1915
40714SOL    HW224150   0.893   6.459   5.558 -0.4732  0.8175  1.4439
40715SOL     OW24151   3.032   1.563   2.632 -0.1349 -0.6002 -0.3604
40715SOL    HW124152   2.989   1.647   2.621 -1.3225 -1.0278  0.6771
40715SOL    HW224153   3.101   1.561   2.566 -0.4418  0.9468 -0.7489
40716SOL     OW24154   0.604   2.004   1.081  0.2491  0.3402  0.1820
40716SOL    HW124155   0.532   1.943   1.061  1.1093 -0.0368 -2.1100
40716SOL    HW224156   0.682   1.960   1.049  1.1474  1.8961  0.1394
40717SOL     OW24157   0.330   5.088   6.969  0.5796 -0.3376  0.1829
40717SOL    HW124158   0.398   5.145   6.932 -0.0551  0.7832  0.6834
40717SOL    HW224159   0.316   5.021   6.903  1.6437 -0.1596 -0.2493
40718SOL     OW24160   1.365   5.289   3.925  0.1227  0.1105 -1.0135
40718SOL    HW124161   1.281   5.313   3.965  0.2025 -1.1718 -0.0397
40718SOL    HW224162   1.341   5.259   3.837 -0.1521  1.9767 -1.6359
40719SOL     OW24163   0.211   3.800   8.212  0.4425 -0.3394  0.5855
40719SOL    HW124164   0.297   3.759   8.202  1.2103  1.0373  1.1497
40719SOL    HW224165   0.186   3.826   8.124 -0.2114 -2.2734  0.1765
40720SOL     OW24166   6.050   5.564   2.610  0.3803  0.3113  0.1597
40720SOL    HW124167   6.060   5.651   2.571 -1.0866  0.8002  0.8135
40720SOL    HW224168   6.129   5.554   2.664 -0.4533  2.2441  1.8733
40721SOL     OW24169   4.566   8.984   3.659  0.2091  0.3844 -0.2393
40721SOL    HW124170   4.497   8.963   3.597  1.5675 -0.7416 -1.4382
40721SOL    HW224171   4.521   9.024   3.734 -1.7583 -0.8173 -0.7386
40722SOL     OW24172  10.419   6.426   9.696  0.1637  0.1547 -0.4020
40722SOL    HW124173  10.348   6.377   9.653 -0.3132  0.8951 -0.4891
40722SOL    HW224174  10.460   6.475   9.625 -1.1234  1.9904  0.0474
40723SOL     OW24175   0.699   2.515   2.871  0.0020  0.0769 -0.6831
40723SOL    HW124176   0.783   2.530   2.916  0.5310 -0.2061 -1.5402
40723SOL    HW224177   0.645   2.471   2.936  0.3003  0.8130  0.0891
40724SOL     OW24178  10.661   2.525   7.532  0.0660  0.0112  0.2490
40724SOL    HW124179  10.599   2.587   7.494 -1.6106 -0.7360  1.6010
40724SOL    HW224180  10.704   2.484   7.457 -1.4335  0.2152 -0.7706
40725SOL     OW24181   1.262  10.771   0.025  0.4564 -0.1494 -0.3297
40725SOL    HW124182   1.343  10.822   0.026 -0.2035  0.9330 -0.2627
40725SOL    HW224183   1.241  10.758   0.117 -1.0688  2.3081 -0.2379
40726SOL     OW24184   8.401   6.366   1.217 -0.4365  0.4233  0.6730
40726SOL    HW124185   8.326   6.424   1.225 -1.7559 -1.1239  0.1232
40726SOL    HW224186   8.429   6.374   1.126  0.6918  1.6702  1.0906
40727SOL     OW24187   3.373  10.159   2.996  0.0596 -0.2491  0.0430
40727SOL    HW124188   3.368  10.252   2.975  0.9179  0.0256  1.0153
40727SOL    HW224189   3.285  10.136   3.026  0.0555  0.4405  0.5781
40728SOL     OW24190   5.245   0.858   4.986 -0.3286 -0.1992 -0.6127
40728SOL    HW124191   5.172   0.803   5.013 -0.5155  1.3214  2.4992
40728SOL    HW224192   5.323   0.806   5.008 -0.4955  0.6740  2.5874
40729SOL     OW24193   7.942   4.322   9.818  0.1651  0.4650 -0.2479
40729SOL    HW124194   8.019   4.330   9.874 -0.4864 -0.3212  0.8005
40729SOL    HW224195   7.949   4.235   9.779 -0.1159  0.4505 -0.2675
40730SOL     OW24196  10.438   9.715   5.471 -0.2681 -0.1485  0.0209
40730SOL    HW124197  10.447   9.769   5.392  0.2228 -0.6831 -0.2975
40730SOL    HW224198  10.419   9.778   5.540  0.2081  0.4316 -0.3559
40731SOL     OW24199   7.033  11.096   9.380  0.3597  0.2478 -0.0763
40731SOL    HW124200   6.972  11.079   9.308 -2.1352 -0.0027  1.9416
40731SOL    HW224201   7.071  11.181   9.360 -0.9607  0.5957 -1.2669
40732SOL     OW24202   5.976   5.234  10.776  0.2112 -0.4607  0.0937
40732SOL    HW124203   5.945   5.271  10.859 -1.0781  0.0223 -0.5776
40732SOL    HW224204   5.955   5.301  10.711 -1.5540 -2.0444 -1.0566
40733SOL     OW24205   7.981   2.885   0.592  0.2282  0.1190 -0.2351
40733SOL    HW124206   8.059   2.835   0.616  0.0036  0.5856  1.6445
40733SOL    HW224207   7.968   2.945   0.665 -2.0375 -0.0987 -0.4068
40734SOL     OW24208  10.488   7.626   8.937  0.1493 -0.1084  0.5883
40734SOL    HW124209  10.442   7.661   9.014  0.6882 -0.5205  1.1124
40734SOL    HW224210  10.579   7.617   8.966 -0.0208 -2.2550  0.6039
40735SOL     OW24211   1.186  10.301   8.190 -0.2743  0.0202 -0.1479
40735SOL    HW124212   1.130  10.242   8.241 -0.1145 -0.3882 -0.4340
40735SOL    HW224213   1.187  10.262   8.103  1.3502 -0.6111  0.1221
40736SOL     OW24214   4.506   6.641   9.937 -0.0859 -0.4037 -0.9602
40736SOL    HW124215   4.465   6.577   9.995 -1.5736  0.5497 -0.8930
40736SOL    HW224216   4.555   6.699   9.996 -1.3490  0.3826 -0.6263
40737SOL     OW24217   3.691   6.120   1.023 -0.3504  0.8017  0.1312
40737SOL    HW124218   3.635   6.059   1.071  2.5253 -0.2419  2.4950
40737SOL    HW224219   3.678   6.204   1.067 -1.1011  0.9317 -0.3135
40738SOL     OW24220   1.773   1.378   2.656 -0.1984  0.0584 -0.8681
40738SOL    HW124221   1.849   1.428   2.628  0.2146 -0.4742 -0.7244
40738SOL    HW224222   1.794   1.350   2.746 -0.5192 -0.1766 -0.8612
40739SOL     OW24223   9.818   7.883   0.962 -0.7413 -0.3821 -0.7356
40739SOL    HW124224   9.808   7.944   1.035  0.6038 -1.1523  0.1305
40739SOL    HW224225   9.729   7.851   0.945 -1.0485 -0.3303  0.6750
40740SOL     OW24226  10.294   9.389   7.032  0.2675  0.2259 -0.0801
40740SOL    HW124227  10.225   9.344   7.080 -0.2291 -0.3486 -1.2942
40740SOL    HW224228  10.266   9.481   7.029  0.1388  0.2015  0.4246
40741SOL     OW24229   0.373   8.651   7.890  0.2187  0.5450  0.4768
40741SOL    HW124230   0.448   8.658   7.949  0.9535 -0.0761 -0.3523
40741SOL    HW224231   0.400   8.697   7.811 -1.4091  2.8869  1.1747
40742SOL     OW24232   4.903   6.269   9.397  0.3318 -0.1859  0.0120
40742SOL    HW124233   4.981   6.277   9.342  0.0081 -1.1285 -0.6241
40742SOL    HW224234   4.868   6.182   9.376 -1.3896  0.5604 -0.3782
40743SOL     OW24235   7.660   7.336   8.879  0.1154 -0.3487  0.1021
40743SOL    HW124236   7.669   7.362   8.971 -0.3653  0.2609 -0.0144
40743SOL    HW224237   7.631   7.416   8.835 -0.5444 -0.8736 -0.4238
40744SOL     OW24238   9.946   7.094   5.223  0.6376  0.2067 -0.0974
40744SOL    HW124239   9.918   7.118   5.311 -0.7613  1.4245 -0.8090
40744SOL    HW224240   9.992   7.011   5.233 -1.3797 -0.7966  1.5026
40745SOL     OW24241   6.701   8.693   4.177 -0.9459 -0.1210  0.3936
40745SOL    HW124242   6.658   8.699   4.091 -0.0064  0.0955 -0.0745
40745SOL    HW224243   6.790   8.666   4.157 -0.2771  1.4152  1.1812
40746SOL     OW24244  10.088   6.483   9.992 -0.4631 -0.2573 -0.3487
40746SOL    HW124245  10.146   6.490  10.067 -0.6284  0.9605 -0.3045
40746SOL    HW224246  10.098   6.393   9.961  1.7170  0.0198 -0.5792
40747SOL     OW24247   1.117   2.827  10.513 -0.0807 -0.4801  0.1586
40747SOL    HW124248   1.140   2.909  10.556 -0.2105 -0.3641  0.0086
40747SOL    HW224249   1.132   2.760  10.580 -0.5606 -0.2732  0.4817
40748SOL     OW24250   5.529   3.213   6.572 -0.1522 -0.4884 -0.1626
40748SOL    HW124251   5.488   3.259   6.498 -0.2572 -1.4020 -0.6812
40748SOL    HW224252   5.573   3.283   6.621  0.5435  0.0390 -1.4833
40749SOL     OW24253   0.992   5.630   2.006 -0.1103  0.4204 -0.4764
40749SOL    HW124254   1.025   5.557   2.059 -1.5862 -1.3460 -1.8652
40749SOL    HW224255   1.064   5.652   1.948  0.2846 -0.0535 -0.1766
40750SOL     OW24256   6.763   5.046   3.541  0.2551 -0.4843  0.4867
40750SOL    HW124257   6.802   4.974   3.493  1.3393  0.0736  0.4982
40750SOL    HW224258   6.731   5.007   3.623  0.8159 -0.9462  0.4856
40751SOL     OW24259   1.319  10.146   0.874  0.3238 -0.4018 -0.0918
40751SOL    HW124260   1.235  10.101   0.877 -0.9196  1.8447  1.0193
40751SOL    HW224261   1.301  10.234   0.907  3.2807 -0.0934  1.0157
40752SOL     OW24262   9.090   5.436   7.860 -0.0981  0.3858 -0.5192
40752SOL    HW124263   9.066   5.489   7.784  0.7403 -1.0289 -1.8225
40752SOL    HW224264   9.185   5.440   7.863  0.0538 -1.7027 -1.1836
40753SOL     OW24265   5.977   1.586   9.835  0.0559 -0.2560 -0.0567
40753SOL    HW124266   5.899   1.550   9.793  0.0082  0.2773 -0.4390
40753SOL    HW224267   5.946   1.663   9.882  0.1648 -0.6766  0.7150
40754SOL     OW24268  10.077   0.393   8.831 -0.2584  0.1145 -0.3226
40754SOL    HW124269   9.984   0.410   8.847 -0.1376  1.1669 -0.6293
40754SOL    HW224270  10.116   0.393   8.918 -0.3857  0.7770 -0.2565
40755SOL     OW24271   9.061   5.647   5.580 -0.1648 -0.0799 -0.1421
40755SOL    HW124272   9.069   5.621   5.488 -2.5933 -1.2219 -0.1036
40755SOL    HW224273   9.045   5.741   5.577  2.4052  0.4235 -0.6614
40756SOL     OW24274   0.418   1.921   8.459  0.3486  0.0921 -0.3593
40756SOL    HW124275   0.334   1.876   8.448  1.6501 -2.2297 -1.5778
40756SOL    HW224276   0.428   1.930   8.554 -1.2614  0.4760 -0.1883
40757SOL     OW24277   0.850   3.645   9.208  0.1180  0.2468  0.4108
40757SOL    HW124278   0.928   3.685   9.247  0.2535  0.4040 -0.0171
40757SOL    HW224279   0.778   3.674   9.263  0.4037 -0.2077  1.0381
40758SOL     OW24280   6.561   3.427   4.610  0.3572 -1.0265 -0.4025
40758SOL    HW124281   6.650   3.447   4.580  0.3673 -1.1028 -0.4248
40758SOL    HW224282   6.557   3.462   4.699  0.3416 -0.8396 -0.4778
40759SOL     OW24283   3.081   9.042   2.310  0.3794  0.3609 -0.2268
40759SOL    HW124284   3.077   9.131   2.344 -0.2648  0.0873  0.4441
40759SOL    HW224285   3.102   9.052   2.217  1.4279  1.1615  0.0786
40760SOL     OW24286   6.504   3.083   4.864 -0.2556  0.1778 -0.2049
40760SOL    HW124287   6.519   3.153   4.928  1.4453  0.6841 -1.1014
40760SOL    HW224288   6.490   3.130   4.782 -0.4631 -0.5174 -0.5700
40761SOL     OW24289   9.987   5.255   6.130 -0.4525 -0.1439 -0.0607
40761SOL    HW124290   9.981   5.323   6.197  1.1258  1.0278 -1.0260
40761SOL    HW224291   9.898   5.249   6.094 -0.6327  1.4351  0.0497
40762SOL     OW24292   0.727   0.304   7.999  0.2018 -0.0737  0.0580
40762SOL    HW124293   0.631   0.304   7.998  0.1935 -0.8863 -0.5194
40762SOL    HW224294   0.751   0.391   8.031 -0.7288  0.3028 -0.2265
40763SOL     OW24295   0.677   4.573   9.441  0.1581  0.3438 -0.0296
40763SOL    HW124296   0.727   4.542   9.365  1.4339  1.1304  0.4566
40763SOL    HW224297   0.655   4.493   9.489 -1.3822 -0.2573 -1.6013
40764SOL     OW24298   1.282   4.965   6.842 -0.0463  0.1461 -0.0099
40764SOL    HW124299   1.220   5.004   6.904  1.2203  0.5603  1.0474
40764SOL    HW224300   1.343   4.916   6.896  1.6714  1.2945 -0.7868
40765SOL     OW24301   2.727   7.017   4.053 -1.1574  0.1731 -0.5928
40765SOL    HW124302   2.763   6.938   4.014 -1.7733  0.2689 -1.3815
40765SOL    HW224303   2.704   6.991   4.143 -0.0901 -0.1523 -0.4008
40766SOL     OW24304   5.011   3.733   0.579 -0.2204  0.0438 -0.0937
40766SOL    HW124305   5.075   3.681   0.531  0.9220  0.2119  1.1856
40766SOL    HW224306   4.927   3.710   0.540  0.3717 -1.9264 -0.3031
40767SOL     OW24307  10.071   8.343  11.004 -0.3522  0.5388 -0.0342
40767SOL    HW124308  10.042   8.396  10.930  0.4941  1.2460  0.1118
40767SOL    HW224309  10.130   8.278  10.966  0.3040  1.0777  0.0309
40768SOL     OW24310   3.255   7.210   7.365  0.3643 -0.1800  0.5736
40768SOL    HW124311   3.191   7.148   7.330 -1.1943  1.4250  0.4542
40768SOL    HW224312   3.293   7.166   7.441 -0.5438 -1.3547  0.3702
40769SOL     OW24313   5.435   1.545   8.634 -0.5962  0.1862 -0.0373
40769SOL    HW124314   5.501   1.576   8.572  0.4513  1.4432  1.6178
40769SOL    HW224315   5.352   1.577   8.599 -0.1432  0.0793 -1.2424
40770SOL     OW24316   8.324   4.015   9.100  0.0113  0.1960  0.3431
40770SOL    HW124317   8.378   4.091   9.076 -0.1657  0.6533  1.3435
40770SOL    HW224318   8.237   4.038   9.068  0.3525 -0.4672 -1.1176
40771SOL     OW24319   1.858   1.145   2.516 -0.2137  0.0577 -0.2805
40771SOL    HW124320   1.830   1.192   2.594  0.5767 -0.1849  0.1650
40771SOL    HW224321   1.894   1.063   2.549  1.2282  0.4496 -0.7746
40772SOL     OW24322   8.692   1.561   7.292  0.3484  0.3125  0.4039
40772SOL    HW124323   8.777   1.517   7.282 -0.4111 -0.9672 -0.7510
40772SOL    HW224324   8.627   1.492   7.275 -0.9323  1.2981  1.1135
40773SOL     OW24325   2.763   1.889  10.976 -0.2601 -0.2093 -0.6857
40773SOL    HW124326   2.769   1.978  10.941 -1.3097  0.7751  1.4401
40773SOL    HW224327   2.823   1.890  11.051 -1.2186 -0.8857  0.1061
40774SOL     OW24328   5.859   1.483   7.548 -0.0696  0.0025  0.2979
40774SOL    HW124329   5.944   1.457   7.512 -0.8026 -2.4751  0.1591
40774SOL    HW224330   5.799   1.481   7.473 -0.6493 -0.2982  0.7604
40775SOL     OW24331  10.717   8.257   5.951  0.0049 -0.4270  0.6528
40775SOL    HW124332  10.693   8.238   5.860 -0.3717 -1.8581  1.0333
40775SOL    HW224333  10.667   8.194   6.003 -1.5861  1.8399  2.0690
40776SOL     OW24334  10.174   8.714   9.173 -0.2359 -0.2823  0.2808
40776SOL    HW124335  10.232   8.790   9.178 -0.8026  0.2259 -0.5685
40776SOL    HW224336  10.215   8.658   9.107  0.0635 -0.6243  0.7491
40777SOL     OW24337   0.121   0.417   7.320 -0.0509 -0.1269  0.5810
40777SOL    HW124338   0.138   0.431   7.227  1.3630  1.5493  1.0368
40777SOL    HW224339   0.130   0.504   7.359  0.9025 -1.0395  2.5172
40778SOL     OW24340   0.322   5.403   5.032  0.2534 -0.5251  0.1721
40778SOL    HW124341   0.378   5.403   4.955  0.4770  1.7399  0.2520
40778SOL    HW224342   0.312   5.496   5.054 -2.2867 -0.9238  1.0641
40779SOL     OW24343   3.445   1.644   0.274  0.5895 -0.0956  0.6104
40779SOL    HW124344   3.422   1.687   0.357 -2.0882 -0.5085  0.1987
40779SOL    HW224345   3.495   1.710   0.226 -0.9704  1.5817  1.1461
40780SOL     OW24346   3.357   9.314   8.327 -0.8028  0.7058 -0.0352
40780SOL    HW124347   3.303   9.264   8.265 -0.8698  1.9259 -1.0033
40780SOL    HW224348   3.394   9.386   8.274  0.8400  0.5816  0.8627
40781SOL     OW24349   4.528   4.996   8.766  0.5209  0.2565 -0.1062
40781SOL    HW124350   4.440   4.979   8.802 -0.2599  2.4942 -0.7713
40781SOL    HW224351   4.577   5.033   8.840  0.9955 -1.1270  0.3048
40782SOL     OW24352   5.752  10.114   2.793 -0.1471 -0.2544 -0.3741
40782SOL    HW124353   5.760  10.053   2.867 -1.4074 -0.6155 -0.5093
40782SOL    HW224354   5.818  10.181   2.810  0.0450 -0.6946  0.7334
40783SOL     OW24355   5.391   7.696   5.321  0.5223  0.5540  0.0918
40783SOL    HW124356   5.402   7.615   5.270  0.6678  1.2108 -0.9502
40783SOL    HW224357   5.376   7.666   5.411  0.3843 -0.6353 -0.3098
40784SOL     OW24358   4.906  10.897   4.654 -0.1237  0.2907  0.2126
40784SOL    HW124359   4.824  10.921   4.698 -0.3624  0.0330 -0.0897
40784SOL    HW224360   4.934  10.977   4.610 -0.3133  0.3292  0.1615
40785SOL     OW24361   9.715   6.186  10.751  0.0779 -0.4948  0.0030
40785SOL    HW124362   9.668   6.174  10.833  2.0629 -1.9594  1.0126
40785SOL    HW224363   9.774   6.110  10.745  2.3733  1.2342 -1.0723
40786SOL     OW24364   7.297   4.616   1.982  0.6203 -0.8934 -0.0135
40786SOL    HW124365   7.235   4.611   2.055  0.4808 -0.0735 -0.0645
40786SOL    HW224366   7.250   4.576   1.908 -0.4791  1.0235 -0.4488
40787SOL     OW24367   5.703   4.871   1.888 -0.4071  0.2252  0.4338
40787SOL    HW124368   5.689   4.792   1.836 -1.9172  1.6019 -1.4028
40787SOL    HW224369   5.797   4.875   1.901 -0.3925 -2.4967  1.6788
40788SOL     OW24370   9.487   4.373   8.210  0.4649  0.1922  0.2256
40788SOL    HW124371   9.462   4.298   8.156  2.3579 -0.4330  0.1525
40788SOL    HW224372   9.412   4.385   8.269  0.1056 -1.7633  0.2431
40789SOL     OW24373   0.798   6.049   1.070  0.1006  0.2674  0.3365
40789SOL    HW124374   0.712   6.089   1.082 -0.5694 -1.0687  0.1768
40789SOL    HW224375   0.782   5.955   1.077  1.7247  0.0318  1.3055
40790SOL     OW24376  10.530   4.537   2.050  0.6349 -0.2559  0.0001
40790SOL    HW124377  10.488   4.460   2.013 -0.6024  1.1610 -1.7035
40790SOL    HW224378  10.616   4.541   2.007  1.1989 -1.2533  0.9535
40791SOL     OW24379   8.477   9.928   4.682 -0.5705 -0.4968 -0.2082
40791SOL    HW124380   8.479  10.016   4.643 -1.1355  0.0135  0.8666
40791SOL    HW224381   8.466   9.869   4.608 -1.0969  0.4073 -0.8761
40792SOL     OW24382   1.112   8.801   5.582  0.1015  0.2074  0.0601
40792SOL    HW124383   1.069   8.736   5.638  1.4386  0.9109  2.0096
40792SOL    HW224384   1.206   8.783   5.593  0.4153  0.5082 -1.8396
40793SOL     OW24385   9.276   3.612   6.761  0.1475 -0.0785 -0.1368
40793SOL    HW124386   9.280   3.517   6.753 -0.4788 -0.0199 -1.5368
40793SOL    HW224387   9.193   3.636   6.720  0.4214  1.0896 -0.0561
40794SOL     OW24388   7.344   8.175   9.888  0.0933 -0.1570 -0.0412
40794SOL    HW124389   7.326   8.267   9.867 -0.9686 -0.4869 -0.6482
40794SOL    HW224390   7.324   8.128   9.808 -2.2728 -1.2432  1.0935
40795SOL     OW24391   3.791   2.579   4.161 -0.5197  0.2338 -0.0149
40795SOL    HW124392   3.720   2.528   4.201  1.3182 -1.4484  1.3133
40795SOL    HW224393   3.773   2.669   4.186 -0.7386 -0.4779  2.7647
40796SOL     OW24394   3.055   4.483   6.529  0.1680 -0.0681 -0.1263
40796SOL    HW124395   3.148   4.474   6.512  0.2955 -1.2484  1.0784
40796SOL    HW224396   3.049   4.543   6.603  0.0108 -0.6087  0.3001
40797SOL     OW24397   6.763   8.675   0.228  1.1298  0.3777  0.2265
40797SOL    HW124398   6.669   8.694   0.222  0.4372 -1.7632  2.5587
40797SOL    HW224399   6.798   8.747   0.280  0.9650  1.5378 -1.2041
40798SOL     OW24400   9.486  10.504   0.578 -0.4114 -0.1498  0.2164
40798SOL    HW124401   9.482  10.412   0.553  0.8687  0.0978 -1.0261
40798SOL    HW224402   9.533  10.546   0.507  1.7344  0.9486  2.1686
40799SOL     OW24403   8.336   0.516   7.628 -0.1667  0.1225 -0.1112
40799SOL    HW124404   8.247   0.542   7.653 -0.5288  0.1990 -1.4110
40799SOL    HW224405   8.369   0.467   7.704  0.0724  3.1738  1.9479
40800SOL     OW24406   2.169   1.132   0.224 -0.1604  0.7100 -0.1889
40800SOL    HW124407   2.146   1.199   0.159  0.0219  0.8181 -0.1418
40800SOL    HW224408   2.178   1.181   0.306  1.4830  0.8699 -0.4352
40801SOL     OW24409   0.040   7.578  10.556  0.4146  0.1764 -0.4440
40801SOL    HW124410   0.128   7.614  10.545  0.2820  0.6279 -0.0228
40801SOL    HW224411  -0.002   7.636  10.619 -0.0496 -0.2813 -0.3322
40802SOL     OW24412   8.741   3.486  10.853  0.5616  0.0921  0.7627
40802SOL    HW124413   8.774   3.398  10.866  0.2244 -0.1244  0.2091
40802SOL    HW224414   8.749   3.501  10.759 -0.9580  0.0054  0.5944
40803SOL     OW24415   1.773   2.727   6.567  0.1402 -0.5870 -0.1082
40803SOL    HW124416   1.687   2.697   6.597 -0.8514  0.7012 -1.5527
40803SOL    HW224417   1.796   2.668   6.495  1.8404 -2.7211  1.9891
40804SOL     OW24418   0.625   8.474   3.944 -0.2168  0.3210  0.2505
40804SOL    HW124419   0.688   8.531   3.989  0.4990 -0.0224 -0.2983
40804SOL    HW224420   0.659   8.386   3.958 -1.3136  0.0004  1.0846
40805SOL     OW24421   0.203   6.255   8.608  0.3300  0.0669  0.6699
40805SOL    HW124422   0.243   6.196   8.544 -1.3403 -0.2476 -0.1326
40805SOL    HW224423   0.165   6.197   8.674 -1.6157  0.1525 -0.2996
40806SOL     OW24424   6.527   8.088  10.555  0.4345  0.4352  0.0045
40806SOL    HW124425   6.595   8.023  10.571 -1.0879 -0.6071  3.0605
40806SOL    HW224426   6.459   8.040  10.506  0.5137  0.5494 -0.2184
40807SOL     OW24427   5.507   0.958   3.877 -0.3955 -0.2779  0.2411
40807SOL    HW124428   5.467   1.009   3.806  2.7870  0.9341 -0.8547
40807SOL    HW224429   5.446   0.968   3.951 -2.1998  1.1753 -1.3182
40808SOL     OW24430   9.125   1.144   3.887 -0.6485  0.7078 -0.5456
40808SOL    HW124431   9.220   1.145   3.900 -0.8205  0.5656  0.8757
40808SOL    HW224432   9.112   1.188   3.803  0.6287  1.2698 -0.4712
40809SOL     OW24433   8.349   5.466   5.380  0.4889 -0.2219 -0.1066
40809SOL    HW124434   8.433   5.421   5.395 -0.1500 -1.4414 -0.0501
40809SOL    HW224435   8.365   5.520   5.303  1.5285  0.1095  0.3119
40810SOL     OW24436   1.421   7.507   7.743 -0.0506  0.1777 -0.1995
40810SOL    HW124437   1.504   7.487   7.786  0.6879  0.1030 -1.6026
40810SOL    HW224438   1.440   7.583   7.688 -0.8293 -0.0193 -0.7636
40811SOL     OW24439   2.414   2.371   9.560  0.5900 -0.1556 -0.3695
40811SOL    HW124440   2.473   2.432   9.604 -0.2691  0.7749 -0.4631
40811SOL    HW224441   2.329   2.415   9.562 -0.0987 -1.4481 -0.2563
40812SOL     OW24442   4.446   2.539   1.685  0.2051  0.0336 -0.4193
40812SOL    HW124443   4.355   2.547   1.656 -0.2062 -1.2436  0.4080
40812SOL    HW224444   4.444   2.470   1.751  1.5999  0.8013  0.4727
40813SOL     OW24445   6.880   7.814   6.608  0.0018 -0.4180  0.3826
40813SOL    HW124446   6.893   7.769   6.691  0.0486  1.4349  1.4433
40813SOL    HW224447   6.791   7.848   6.612 -0.4019 -1.2715 -0.8423
40814SOL     OW24448   2.003  10.853   8.220  0.0123 -0.2582  0.0759
40814SOL    HW124449   1.951  10.776   8.243 -0.8636  0.1196 -0.5995
40814SOL    HW224450   2.094  10.825   8.232 -0.3222 -1.0331  0.9473
40815SOL     OW24451   9.184  10.466  10.573  0.2203  0.2712 -0.5174
40815SOL    HW124452   9.254  10.439  10.513  0.5542  0.7645 -0.3565
40815SOL    HW224453   9.183  10.399  10.641  0.1108 -0.0757 -0.8565
40816SOL     OW24454   2.721   4.591   1.242 -0.0226  0.1709 -0.8322
40816SOL    HW124455   2.637   4.600   1.196 -0.2547 -0.9255 -0.6592
40816SOL    HW224456   2.700   4.610   1.333 -0.3862 -1.2975 -0.5692
40817SOL     OW24457   6.132   5.535   8.252  0.2115  0.4192  0.3626
40817SOL    HW124458   6.196   5.501   8.315  1.2840 -0.0834 -0.9562
40817SOL    HW224459   6.185   5.579   8.186 -0.8956  0.9695 -0.1852
40818SOL     OW24460  10.451   6.568   0.678 -0.1348  0.0290  0.1850
40818SOL    HW124461  10.531   6.618   0.664  1.0575 -1.8444 -0.1495
40818SOL    HW224462  10.405   6.614   0.748  0.5789  1.8725 -0.5061
40819SOL     OW24463   1.873   6.938   2.299  0.4902  0.1569 -0.4583
40819SOL    HW124464   1.787   6.979   2.304  0.2064 -0.3686 -0.9963
40819SOL    HW224465   1.861   6.862   2.242  1.1029 -0.4565  0.2138
40820SOL     OW24466  10.192  10.238  10.426 -0.0863  0.0941  0.1543
40820SOL    HW124467  10.138  10.242  10.347 -0.2293  1.2891  0.3036
40820SOL    HW224468  10.130  10.227  10.498  0.0970 -2.0808  0.0543
40821SOL     OW24469   1.606   7.104   2.377  0.2681 -0.1311  0.4976
40821SOL    HW124470   1.588   7.195   2.399  2.6854  0.5796 -0.1016
40821SOL    HW224471   1.521   7.061   2.379 -1.0503  2.2869  0.1155
40822SOL     OW24472   0.543  10.571   0.594 -0.5292  0.3865 -0.8422
40822SOL    HW124473   0.470  10.629   0.617 -0.1484  2.0134 -3.3087
40822SOL    HW224474   0.507  10.514   0.525 -0.2191 -0.7293 -0.1045
40823SOL     OW24475   9.933   2.091   5.350 -0.0395  0.2581 -0.0700
40823SOL    HW124476   9.868   2.036   5.394  0.9207 -0.2893  0.6864
40823SOL    HW224477   9.982   2.030   5.295 -1.5407  0.9887 -2.3791
40824SOL     OW24478   1.338   8.498   8.468 -0.0587  0.0315 -0.6103
40824SOL    HW124479   1.394   8.574   8.481 -0.0001 -0.2989  1.4009
40824SOL    HW224480   1.366   8.461   8.384  1.7659  0.6735 -0.3224
40825SOL     OW24481   7.930   2.335   6.980  0.2236  0.0665  0.7005
40825SOL    HW124482   7.925   2.325   7.075  0.5470  0.2365  0.7362
40825SOL    HW224483   7.839   2.336   6.952  0.1305 -1.3823  0.8554
40826SOL     OW24484   1.270   2.128   7.484 -0.3187 -0.4825  0.1188
40826SOL    HW124485   1.245   2.214   7.518 -0.3208 -0.2293 -0.5096
40826SOL    HW224486   1.263   2.137   7.389 -1.7324 -1.6125  0.0940
40827SOL     OW24487   9.610   2.238   6.521  0.5515  0.1712  0.0236
40827SOL    HW124488   9.705   2.225   6.521  0.6920  1.0729  0.6384
40827SOL    HW224489   9.573   2.151   6.532  1.2810 -0.2986 -1.0620
40828SOL     OW24490   0.121   0.922   7.652 -0.2612  0.7079  0.3908
40828SOL    HW124491   0.135   0.925   7.746 -1.2432  0.7245  0.5498
40828SOL    HW224492   0.195   0.873   7.618 -0.0547  0.4396  1.2094
40829SOL     OW24493   9.813   4.687   7.155  0.0185  0.0361  0.4257
40829SOL    HW124494   9.782   4.619   7.214  0.3512  0.5358  1.1959
40829SOL    HW224495   9.735   4.717   7.109  0.0004 -1.5109 -0.6342
40830SOL     OW24496   0.723   0.894   8.061  0.5161 -0.0864  0.0728
40830SOL    HW124497   0.749   0.977   8.100  0.9373 -0.2564  0.1630
40830SOL    HW224498   0.644   0.868   8.110  2.1143 -1.2564  2.2082
40831SOL     OW24499   2.839  10.324   0.688  0.1561 -0.0387 -0.1865
40831SOL    HW124500   2.775  10.395   0.683  1.2477  1.0056  0.0776
40831SOL    HW224501   2.912  10.353   0.633  0.5487 -1.0379 -0.2137
40832SOL     OW24502   7.957   6.192   8.221  0.2832 -0.4329 -0.1776
40832SOL    HW124503   7.939   6.249   8.146 -0.1813  1.3827  1.2181
40832SOL    HW224504   8.045   6.217   8.249 -0.7219  1.2394  1.7316
40833SOL     OW24505   4.653   6.674   0.377  0.2710 -0.1856 -0.0454
40833SOL    HW124506   4.652   6.599   0.317 -1.3332  1.8012 -2.7036
40833SOL    HW224507   4.728   6.727   0.348  0.6655 -0.1310  1.0267
40834SOL     OW24508   1.918   5.014   1.466 -0.0165 -0.1749 -0.2255
40834SOL    HW124509   1.826   4.989   1.457 -0.5460  1.4749  0.2540
40834SOL    HW224510   1.932   5.023   1.560  0.1796  1.0978 -0.3600
40835SOL     OW24511   2.226   5.863   7.756 -0.4130 -0.1456 -0.2282
40835SOL    HW124512   2.245   5.840   7.847  2.3472  0.3258 -0.5973
40835SOL    HW224513   2.154   5.926   7.762 -0.5063 -0.3602  1.5980
40836SOL     OW24514   8.325   0.689   7.892  0.7509  0.3177 -0.5123
40836SOL    HW124515   8.362   0.601   7.891  0.9883  0.3486  1.8910
40836SOL    HW224516   8.230   0.676   7.891  0.7773 -0.0055  0.6322
40837SOL     OW24517   9.556   2.237  10.141  0.1604  0.7466  0.3386
40837SOL    HW124518   9.492   2.181  10.098  1.3270 -1.6326  1.4773
40837SOL    HW224519   9.508   2.276  10.215 -0.3283  0.1008  0.3694
40838SOL     OW24520   0.267   3.011   3.578 -0.6713 -0.7596  0.0867
40838SOL    HW124521   0.256   3.002   3.673 -2.4581 -3.1624 -0.2362
40838SOL    HW224522   0.347   2.962   3.559  1.1270  1.7987  0.5184
40839SOL     OW24523  10.621   1.203   4.400  0.4796 -0.4102  0.8321
40839SOL    HW124524  10.546   1.232   4.451  1.6851 -0.0751  2.4775
40839SOL    HW224525  10.681   1.278   4.400  1.7072 -1.3578  1.3169
40840SOL     OW24526   8.819   8.353   7.055 -0.1187 -0.0051 -0.3139
40840SOL    HW124527   8.728   8.326   7.044 -0.3723  0.7614 -0.1201
40840SOL    HW224528   8.847   8.308   7.135 -0.6230  0.5041  0.1602
40841SOL     OW24529   6.190   7.116  10.867  0.0249 -0.4443 -0.3811
40841SOL    HW124530   6.142   7.177  10.923 -0.4724 -0.4476 -0.8032
40841SOL    HW224531   6.269   7.095  10.917  0.7638  1.4173 -0.7005
40842SOL     OW24532   9.684   6.313   2.082  0.4590 -0.0087  0.6540
40842SOL    HW124533   9.655   6.403   2.067 -0.0631  0.0522  1.9474
40842SOL    HW224534   9.615   6.273   2.134  1.5384 -0.6035  1.6829
40843SOL     OW24535  10.293   8.734   0.943  0.0303 -0.2111 -0.4281
40843SOL    HW124536  10.247   8.793   0.884 -0.4711 -0.4516 -0.2856
40843SOL    HW224537  10.231   8.719   1.015  0.2819 -0.6422 -0.2982
40844SOL     OW24538   9.952   8.319   8.553 -0.3044 -0.5407  0.3878
40844SOL    HW124539   9.956   8.400   8.604 -2.8856 -0.9522  1.4328
40844SOL    HW224540   9.954   8.348   8.462  1.0774  0.4851  0.7082
40845SOL     OW24541  10.452   0.809   2.650 -0.1903 -0.2680 -0.2208
40845SOL    HW124542  10.456   0.714   2.668 -1.8029 -0.3506 -0.1921
40845SOL    HW224543  10.397   0.844   2.720 -2.1323  0.2273 -1.9052
40846SOL     OW24544   7.249   2.122   4.165 -0.4807  0.3666 -0.1595
40846SOL    HW124545   7.270   2.200   4.114 -1.4694  1.1793  0.6459
40846SOL    HW224546   7.331   2.100   4.210  0.0088  0.4731 -0.9763
40847SOL     OW24547   8.965   2.801   0.648  0.6896  0.0356 -0.4311
40847SOL    HW124548   8.955   2.893   0.672  1.1571  0.1498 -0.6758
40847SOL    HW224549   9.019   2.802   0.569 -0.4102 -0.3647 -1.2270
40848SOL     OW24550   2.706   4.181   8.294  0.2454 -0.1990  0.0046
40848SOL    HW124551   2.790   4.140   8.316  0.3452  0.2692  0.5166
40848SOL    HW224552   2.667   4.122   8.229  0.2963 -1.2237  0.8568
40849SOL     OW24553   5.987   8.087   0.087  0.0444 -0.1667 -0.4259
40849SOL    HW124554   5.990   8.170   0.038  0.3114 -0.7282 -1.3769
40849SOL    HW224555   5.894   8.063   0.087  0.2398 -1.0321 -2.1676
40850SOL     OW24556  10.759   1.964   1.422 -0.0210  0.0379  0.2355
40850SOL    HW124557  10.784   2.042   1.372 -0.7250  0.1673  0.0700
40850SOL    HW224558  10.821   1.897   1.395  0.8256  0.6327  0.6501
40851SOL     OW24559   1.529  10.513   5.194  0.3251 -0.6649 -0.2772
40851SOL    HW124560   1.548  10.603   5.222 -0.4732 -0.4537 -0.4074
40851SOL    HW224561   1.451  10.489   5.243 -1.0145 -0.3535 -2.1349
40852SOL     OW24562   0.306   3.007   1.614 -0.2100 -0.1313  0.5061
40852SOL    HW124563   0.371   2.953   1.659 -0.9802 -1.4579  0.0851
40852SOL    HW224564   0.352   3.041   1.537  1.1267  2.1697  2.1688
40853SOL     OW24565  10.530  10.303  10.006  0.1565 -0.7014 -0.0871
40853SOL    HW124566  10.558  10.363   9.936 -0.3302 -1.0776 -0.6127
40853SOL    HW224567  10.453  10.345  10.044  0.9589 -0.0474  0.8436
40854SOL     OW24568   3.965   1.534   4.871 -0.4359  0.0540 -0.4266
40854SOL    HW124569   3.905   1.584   4.815 -1.7589  0.2652  1.1275
40854SOL    HW224570   4.025   1.600   4.906 -1.4081  0.4073  0.6387
40855SOL     OW24571   8.801   6.685   3.000  0.9147  0.1131  0.2985
40855SOL    HW124572   8.838   6.773   3.010  0.1434  0.5595 -0.5807
40855SOL    HW224573   8.877   6.627   2.998  1.3955  0.3181  4.1892
40856SOL     OW24574   8.851   5.624   0.003  0.0768 -0.4909 -0.1509
40856SOL    HW124575   8.777   5.598  -0.051 -0.3847 -1.4378  0.9126
40856SOL    HW224576   8.812   5.668   0.078  0.5877 -0.8727  0.3485
40857SOL     OW24577  10.981   1.976   4.176  0.0475  0.0103 -0.2142
40857SOL    HW124578  10.940   1.898   4.139 -2.2871  1.2721 -0.5298
40857SOL    HW224579  10.907   2.032   4.201  1.6178  1.9723  0.3409
40858SOL     OW24580   9.633   6.648   9.925  0.0592  0.6736 -0.1612
40858SOL    HW124581   9.717   6.644   9.879  0.1432  1.2144 -0.0625
40858SOL    HW224582   9.621   6.740   9.945  0.4450  0.3629  1.6654
40859SOL     OW24583   4.569   2.605   8.742  0.0005 -0.5279 -0.1059
40859SOL    HW124584   4.565   2.558   8.658 -1.0383 -0.0100 -0.3557
40859SOL    HW224585   4.532   2.544   8.805 -1.7313  0.0543 -0.4993
40860SOL     OW24586  10.334   6.176   0.500 -0.3592 -0.1869  0.0158
40860SOL    HW124587  10.400   6.224   0.450  0.6075 -0.1134  1.3289
40860SOL    HW224588  10.259   6.235   0.505 -0.5886 -0.3012 -1.5629
40861SOL     OW24589   7.121  10.798   7.834  0.0784 -0.2692 -0.0745
40861SOL    HW124590   7.044  10.834   7.876 -0.6749 -0.2951 -1.3613
40861SOL    HW224591   7.187  10.867   7.839  0.4390 -0.7143  2.1805
40862SOL     OW24592   3.064   9.327   2.304  0.3132  0.0077 -0.0397
40862SOL    HW124593   2.972   9.324   2.332  0.3967  0.2317  0.2675
40862SOL    HW224594   3.084   9.420   2.299  0.3564 -0.0353 -0.6745
40863SOL     OW24595   2.712   3.649   3.956  0.2696 -0.0630  0.1443
40863SOL    HW124596   2.682   3.732   3.994 -2.1056 -0.4676 -0.6401
40863SOL    HW224597   2.653   3.583   3.994  1.5049 -1.2803  0.0354
40864SOL     OW24598   8.680   4.345   8.106 -0.2161  0.2857  0.1727
40864SOL    HW124599   8.704   4.427   8.150 -0.0448 -0.4560  1.5131
40864SOL    HW224600   8.684   4.279   8.175 -0.1984 -0.8888 -0.9235
40865SOL     OW24601   0.594   4.372   9.580 -0.4257 -0.4267 -0.0630
40865SOL    HW124602   0.630   4.291   9.543 -2.0658 -1.4159  0.3824
40865SOL    HW224603   0.610   4.363   9.674  1.4676  0.8985 -0.2081
40866SOL     OW24604   1.860   6.733   9.744 -0.0797  0.6146 -0.1019
40866SOL    HW124605   1.891   6.644   9.724 -0.2602  0.0013  2.1517
40866SOL    HW224606   1.814   6.760   9.665  0.9807 -0.8175 -1.2768
40867SOL     OW24607   8.540   6.048   5.296  0.0073  0.1363 -0.5328
40867SOL    HW124608   8.620   6.016   5.338 -0.4764 -1.6937 -0.9034
40867SOL    HW224609   8.473   5.984   5.321 -1.3397  1.5877 -0.2878
40868SOL     OW24610   3.844   0.871   7.138 -0.2105  0.2951 -0.5386
40868SOL    HW124611   3.752   0.843   7.134  0.6531 -3.4559  1.4023
40868SOL    HW224612   3.889   0.812   7.077  1.2220  0.3479  0.4276
40869SOL     OW24613  10.090   5.863   0.816  0.2191 -0.1732  0.3694
40869SOL    HW124614  10.107   5.903   0.731 -3.1619 -0.5828 -0.6408
40869SOL    HW224615  10.095   5.769   0.800 -0.1891 -0.2507  0.6726
40870SOL     OW24616   2.811   7.862   0.177  0.1966  0.4678  0.3745
40870SOL    HW124617   2.875   7.931   0.195  1.6019 -0.6800  0.0032
40870SOL    HW224618   2.836   7.827   0.091 -1.1072  0.1639  0.0961
40871SOL     OW24619  10.133   3.084   7.024 -0.0638  0.0423 -0.2404
40871SOL    HW124620  10.168   3.053   7.108 -1.9468 -1.6481 -0.0107
40871SOL    HW224621  10.210   3.117   6.978  1.0781  0.8057  2.0243
40872SOL     OW24622   7.942   9.380   7.367 -0.3352  0.0542 -0.2171
40872SOL    HW124623   7.893   9.458   7.342 -0.8876 -0.3754 -0.5015
40872SOL    HW224624   7.972   9.398   7.456  0.5442  1.0722 -0.6970
40873SOL     OW24625   9.485   2.311   2.247 -0.0542 -0.0801 -0.2565
40873SOL    HW124626   9.566   2.275   2.211 -0.6428 -1.7997  0.0599
40873SOL    HW224627   9.422   2.306   2.175 -0.2448 -0.0713 -0.0938
40874SOL     OW24628   1.152   7.501   7.788  0.0618  0.2131  0.0857
40874SOL    HW124629   1.245   7.484   7.771 -0.2700 -0.2915 -1.3659
40874SOL    HW224630   1.152   7.580   7.842  1.2975  1.0274 -1.0308
40875SOL     OW24631  10.860   3.816   9.626 -0.0833 -0.0128  0.6216
40875SOL    HW124632  10.835   3.856   9.542 -1.1476 -0.9960  0.4411
40875SOL    HW224633  10.914   3.882   9.669 -1.4330  1.4440  0.1643
40876SOL     OW24634  10.130   5.909   4.702  0.1074  0.1526  0.0861
40876SOL    HW124635  10.078   5.854   4.759  0.7268 -0.4432  0.0905
40876SOL    HW224636  10.158   5.982   4.757  1.6938 -1.0154  0.9271
40877SOL     OW24637   7.606   9.973   5.560 -0.7021  0.0771 -0.2593
40877SOL    HW124638   7.572  10.029   5.490  0.3324  0.2347 -0.6536
40877SOL    HW224639   7.529   9.925   5.592 -1.3414  0.6464 -0.9082
40878SOL     OW24640   6.348   6.798   7.327  0.2653  0.2506 -0.6284
40878SOL    HW124641   6.433   6.814   7.368 -1.1385  0.6228  2.3939
40878SOL    HW224642   6.326   6.880   7.284  1.1872  0.3235 -0.9722
40879SOL     OW24643   9.157   6.582   0.747 -0.5492 -0.3101  0.4961
40879SOL    HW124644   9.183   6.491   0.738 -3.8539 -1.3482 -0.0052
40879SOL    HW224645   9.173   6.621   0.661  0.5422 -0.4634  0.6124
40880SOL     OW24646  10.236   0.914   7.970  0.6600 -0.1681 -0.0592
40880SOL    HW124647  10.245   1.005   7.944 -0.1983 -0.4052 -1.2922
40880SOL    HW224648  10.156   0.911   8.023  0.4008 -0.2793 -0.4522
40881SOL     OW24649   2.178  10.734   0.406 -0.1970  0.2761  0.4356
40881SOL    HW124650   2.159  10.722   0.313  0.5165 -1.3675  0.4670
40881SOL    HW224651   2.108  10.791   0.438 -2.1466 -1.4199 -0.5147
40882SOL     OW24652   8.943   1.259   0.612 -0.3664 -0.5781  0.5071
40882SOL    HW124653   8.901   1.204   0.545  0.0265  0.5745 -0.7483
40882SOL    HW224654   9.037   1.247   0.597 -0.2356  1.6437 -0.9271
40883SOL     OW24655   0.030   0.786   2.268  0.1425  0.3590 -0.4741
40883SOL    HW124656   0.024   0.837   2.348 -2.4845 -0.1858 -0.2405
40883SOL    HW224657  -0.053   0.800   2.223  1.1457 -0.1258 -2.6561
40884SOL     OW24658   2.168   9.585   2.698 -0.1136  0.5098 -0.3219
40884SOL    HW124659   2.128   9.508   2.737  1.4906  0.1813  0.7517
40884SOL    HW224660   2.200   9.556   2.612 -0.3055  0.2301 -0.2969
40885SOL     OW24661   0.144   0.930   0.383 -0.4889 -1.0279  0.0450
40885SOL    HW124662   0.236   0.908   0.388 -0.1261 -0.1493 -1.7677
40885SOL    HW224663   0.124   0.971   0.467  0.0943 -3.4102  1.4457
40886SOL     OW24664   6.178  10.933   0.788  0.5548 -0.3888 -0.0806
40886SOL    HW124665   6.268  10.967   0.785  0.6548 -0.6869 -0.6334
40886SOL    HW224666   6.186  10.844   0.754  0.1452 -0.6288  0.4535
40887SOL     OW24667   6.337   8.296  10.230 -0.8421 -0.6339 -0.1940
40887SOL    HW124668   6.391   8.327  10.302  0.3564 -0.0987 -1.2865
40887SOL    HW224669   6.261   8.255  10.273  0.6856 -1.9408  1.4150
40888SOL     OW24670  10.349   7.885   6.816  0.2202 -0.2499 -0.0525
40888SOL    HW124671  10.407   7.959   6.833  0.6579 -0.3938 -0.8601
40888SOL    HW224672  10.350   7.876   6.721  0.5738 -1.5988  0.0597
40889SOL     OW24673   0.640   8.395   9.050  0.4688  0.0205 -0.1152
40889SOL    HW124674   0.611   8.356   8.967 -1.3726  1.2787 -0.1277
40889SOL    HW224675   0.677   8.322   9.099 -1.6420 -1.5102 -0.6445
40890SOL     OW24676   7.866   7.787   8.544 -0.0406 -0.7566 -0.1803
40890SOL    HW124677   7.960   7.788   8.557  0.0114  1.1010 -0.3738
40890SOL    HW224678   7.833   7.724   8.607  1.1514  0.0920  1.3630
40891SOL     OW24679   4.555   0.571   4.609  0.6531  0.0031  0.6351
40891SOL    HW124680   4.627   0.534   4.661  0.4972 -0.2507  0.6751
40891SOL    HW224681   4.516   0.637   4.665  1.2933  0.6379  0.3488
40892SOL     OW24682   3.121   9.897   1.689  0.1042 -0.0586 -0.1342
40892SOL    HW124683   3.169   9.980   1.684  2.5997 -1.2841  1.2357
40892SOL    HW224684   3.114   9.868   1.598 -2.4514  2.3905 -0.8544
40893SOL     OW24685   5.807  10.506   8.634  0.2153  0.1401  0.0201
40893SOL    HW124686   5.715  10.529   8.630 -0.0744 -0.8128  0.7737
40893SOL    HW224687   5.837  10.510   8.544 -0.3194  1.3782 -0.1169
40894SOL     OW24688   5.561   4.650   8.781  0.5176  0.4883 -0.1701
40894SOL    HW124689   5.613   4.611   8.851 -0.3874 -1.1868 -0.3687
40894SOL    HW224690   5.571   4.744   8.793  0.5901  0.2555  2.0633
40895SOL     OW24691   2.565   2.744   3.736 -0.2784 -0.5790 -0.3676
40895SOL    HW124692   2.613   2.671   3.775 -0.7343 -0.5947  0.1881
40895SOL    HW224693   2.578   2.734   3.642  1.1873 -0.3052 -0.2038
40896SOL     OW24694   4.499   8.478   3.284  0.1342  0.5286 -0.0842
40896SOL    HW124695   4.455   8.413   3.231  0.6441 -1.1652  1.4772
40896SOL    HW224696   4.522   8.548   3.222 -3.4092  0.8846 -1.2104
40897SOL     OW24697   7.675   2.155   8.895  0.5205  0.8115 -0.5215
40897SOL    HW124698   7.722   2.073   8.910  1.8589  0.9303 -3.3628
40897SOL    HW224699   7.629   2.141   8.812 -1.7162  1.9433  0.4316
40898SOL     OW24700   6.659   0.457  10.672  0.3587  0.7915 -0.0061
40898SOL    HW124701   6.711   0.379  10.651 -0.8476 -0.3939  1.1678
40898SOL    HW224702   6.621   0.438  10.758 -1.1524  2.0526 -0.3395
40899SOL     OW24703   6.476   6.509   1.496  0.1292  0.4436 -0.3996
40899SOL    HW124704   6.485   6.506   1.591 -0.3581 -0.4522 -0.3697
40899SOL    HW224705   6.518   6.429   1.465  0.3579  0.7695 -0.9452
40900SOL     OW24706   0.468  11.041   2.684  0.2648 -0.3267 -0.3478
40900SOL    HW124707   0.468  11.104   2.612 -0.7830 -1.0546 -1.0251
40900SOL    HW224708   0.397  11.070   2.742 -0.2343 -0.8802 -0.6721
40901SOL     OW24709   7.058   6.165  10.161  0.4607  0.2807  0.8140
40901SOL    HW124710   7.073   6.151  10.068  2.1101  0.6579  0.9876
40901SOL    HW224711   7.031   6.079  10.194  3.1106 -0.7504  0.5380
40902SOL     OW24712   4.087   3.087   0.387 -0.8797 -0.2678  0.0013
40902SOL    HW124713   4.109   3.114   0.298 -0.7203 -1.6616 -0.4131
40902SOL    HW224714   4.171   3.072   0.429 -0.8984  2.1353  0.9986
40903SOL     OW24715   2.127   4.838   7.334 -0.1123  0.1038  0.2611
40903SOL    HW124716   2.086   4.811   7.417  0.3959 -0.5866  0.2992
40903SOL    HW224717   2.213   4.872   7.360  0.0742 -0.1717  0.0203
40904SOL     OW24718   9.635  10.065   5.353 -0.6800  0.5347  1.0251
40904SOL    HW124719   9.703  10.007   5.318 -1.1543  0.7951 -0.4172
40904SOL    HW224720   9.684  10.134   5.399 -0.0882 -0.5946  2.1445
40905SOL     OW24721   9.354  11.101   2.768  0.1698 -0.2677  0.1974
40905SOL    HW124722   9.442  11.063   2.769  0.5259  0.5365  0.9530
40905SOL    HW224723   9.364  11.182   2.718 -0.3400 -0.6041 -0.4657
40906SOL     OW24724   2.954   8.919   0.788  0.4416 -0.2600 -0.2918
40906SOL    HW124725   3.007   8.859   0.735 -0.7325 -1.4087 -0.2245
40906SOL    HW224726   2.885   8.864   0.824  0.1179  0.8812  0.9098
40907SOL     OW24727   9.228   1.862   1.059 -0.4300 -0.6776 -0.0897
40907SOL    HW124728   9.142   1.847   1.098 -0.7772  2.3348  0.5257
40907SOL    HW224729   9.278   1.909   1.127  0.6047  0.3976 -1.5201
40908SOL     OW24730   8.777   7.209  11.063 -0.8980 -0.4825 -0.9567
40908SOL    HW124731   8.745   7.279  11.006  0.2199  1.1450  0.3125
40908SOL    HW224732   8.870   7.230  11.076 -1.7068  1.4661  4.3103
40909SOL     OW24733   3.543   7.347  11.090 -0.2073  0.2196 -0.0808
40909SOL    HW124734   3.551   7.339  10.995 -0.8955  2.3544 -0.3870
40909SOL    HW224735   3.542   7.442  11.106  0.0741 -0.0851  2.0826
40910SOL     OW24736   7.943  10.735   6.482  0.1796 -0.1868 -0.2315
40910SOL    HW124737   7.895  10.786   6.546  0.5714  1.1644 -0.9642
40910SOL    HW224738   8.028  10.779   6.475  1.1225 -1.8601  0.2308
40911SOL     OW24739  10.821   0.247   0.711 -0.5324  1.0090  0.9837
40911SOL    HW124740  10.887   0.204   0.656 -1.4084  0.4393  0.3495
40911SOL    HW224741  10.737   0.220   0.674 -1.1352  1.7829  1.7265
40912SOL     OW24742   8.383   0.230   6.527  0.2380  0.0963 -0.0088
40912SOL    HW124743   8.351   0.251   6.615  0.1459  1.1692 -0.2851
40912SOL    HW224744   8.406   0.137   6.531 -1.3514 -0.2958  0.6675
40913SOL     OW24745   8.246  10.632   8.268  0.3823  0.5508 -0.1076
40913SOL    HW124746   8.232  10.626   8.363 -0.7918  0.8323 -0.2445
40913SOL    HW224747   8.176  10.579   8.230  0.5644  0.8113 -0.8300
40914SOL     OW24748   0.765   5.574   8.988 -0.5653  0.4648 -0.2238
40914SOL    HW124749   0.739   5.589   9.079  1.1339  0.6379  0.2684
40914SOL    HW224750   0.849   5.618   8.980 -0.2506 -0.3381 -1.6209
40915SOL     OW24751  11.023   5.814   4.072  0.1956  0.6101 -0.1948
40915SOL    HW124752  11.099   5.813   4.129  0.3760 -0.4299 -0.4450
40915SOL    HW224753  11.038   5.745   4.008 -1.3164 -0.1862  0.2445
40916SOL     OW24754   0.180  10.584   8.884  0.2047  0.4434  0.8540
40916SOL    HW124755   0.228  10.520   8.936 -0.0842 -2.0556 -1.7082
40916SOL    HW224756   0.247  10.627   8.831  0.1434  0.3318  0.6822
40917SOL     OW24757   0.534   7.677   9.157 -0.6111  0.2434  0.2781
40917SOL    HW124758   0.600   7.644   9.217 -0.8732 -1.3391 -0.2469
40917SOL    HW224759   0.539   7.772   9.165 -1.0058  0.1172  3.2086
40918SOL     OW24760   5.249   5.070   2.049  0.3725  0.6443  0.3811
40918SOL    HW124761   5.315   5.138   2.063  1.3296 -0.4630  1.5260
40918SOL    HW224762   5.270   5.003   2.114 -0.2790 -0.9211 -0.9451
40919SOL     OW24763   9.733   8.583  10.933  0.3153 -0.0338  0.5690
40919SOL    HW124764   9.674   8.644  10.888  0.3346 -0.6934 -0.3691
40919SOL    HW224765   9.820   8.623  10.926  0.0576  0.8130  1.7305
40920SOL     OW24766   4.427   0.254  10.620 -0.1233  0.1381 -0.7653
40920SOL    HW124767   4.490   0.270  10.550 -0.3535 -0.0226 -1.0106
40920SOL    HW224768   4.472   0.282  10.700  0.3759 -0.2633 -0.9015
40921SOL     OW24769   8.922   9.211   9.014 -0.2885 -0.4004 -0.2079
40921SOL    HW124770   8.956   9.170   8.934 -0.9314 -0.0969 -0.6457
40921SOL    HW224771   8.847   9.156   9.038 -0.2381 -0.3537  0.0540
40922SOL     OW24772   4.759   8.532   8.707 -0.4935 -0.4427  0.0552
40922SOL    HW124773   4.673   8.514   8.745 -1.8516  0.5496 -2.2641
40922SOL    HW224774   4.822   8.495   8.768 -2.4372  1.0682  3.1986
40923SOL     OW24775   4.252   6.418   8.505 -0.3417 -0.2959 -0.3594
40923SOL    HW124776   4.237   6.428   8.599  0.2680 -2.4263  0.0259
40923SOL    HW224777   4.339   6.378   8.499  0.3906  1.4076 -1.9512
40924SOL     OW24778   3.931  10.748   3.244  0.2860  0.0217  0.3378
40924SOL    HW124779   3.940  10.768   3.337 -0.8271 -0.8952  0.6601
40924SOL    HW224780   3.838  10.763   3.225  0.5103  0.2685 -0.6511
40925SOL     OW24781   5.062   7.609   0.186 -0.0836 -0.3226  0.3283
40925SOL    HW124782   5.032   7.699   0.201 -1.4695 -0.8710  1.0376
40925SOL    HW224783   5.103   7.584   0.269 -0.4134 -0.6160  0.4010
40926SOL     OW24784   8.783   0.669   0.823 -0.3214  0.3491  0.4926
40926SOL    HW124785   8.833   0.741   0.785 -1.0263  0.3308 -0.5073
40926SOL    HW224786   8.842   0.594   0.816 -1.0071 -0.0501 -2.2309
40927SOL     OW24787  10.619   0.256   8.390  0.7110 -0.0547 -0.8633
40927SOL    HW124788  10.566   0.207   8.327 -0.0896  0.4481 -0.5990
40927SOL    HW224789  10.709   0.238   8.364  0.5050 -2.4958 -0.1598
40928SOL     OW24790   0.456   5.098   4.738  0.0431  0.1761 -0.0606
40928SOL    HW124791   0.463   5.067   4.647  0.5253 -0.8813  0.3224
40928SOL    HW224792   0.430   5.190   4.730 -3.3520 -0.7391 -1.2489
40929SOL     OW24793  10.088   7.947  10.893 -0.0534  0.1216 -0.8348
40929SOL    HW124794   9.993   7.939  10.901 -0.0437  1.3184  1.1154
40929SOL    HW224795  10.124   7.891  10.962  0.7085 -0.7875 -1.9308
40930SOL     OW24796   0.057   5.954   4.781  0.4226  0.0342 -0.1609
40930SOL    HW124797   0.150   5.937   4.765  0.3525  1.2399 -2.1620
40930SOL    HW224798   0.015   5.933   4.698 -1.1068 -0.4117  0.6992
40931SOL     OW24799   4.844   3.051   7.425 -0.2452 -0.0543  0.1611
40931SOL    HW124800   4.847   3.013   7.337 -1.1376 -0.2587  0.2047
40931SOL    HW224801   4.779   2.998   7.471 -0.0167  0.2561  0.8473
40932SOL     OW24802  10.359   0.902   6.965  0.1784 -0.1132 -0.1666
40932SOL    HW124803  10.297   0.864   6.903 -0.0740  0.0609 -0.0204
40932SOL    HW224804  10.328   0.873   7.051 -0.4227  0.9935  0.0034
40933SOL     OW24805   7.901   4.310   7.231 -0.5979  0.2459 -0.0467
40933SOL    HW124806   7.882   4.401   7.254 -0.0458  0.4107 -0.2170
40933SOL    HW224807   7.837   4.259   7.280 -2.2418  0.8106 -1.4841
40934SOL     OW24808   5.650   7.884   8.105  0.5669  0.3751  0.0717
40934SOL    HW124809   5.571   7.900   8.156  1.3910  1.6558  1.0249
40934SOL    HW224810   5.659   7.962   8.049  1.1564  0.2531 -0.0103
40935SOL     OW24811   7.191   5.508   2.503 -0.5489 -0.0329  0.8534
40935SOL    HW124812   7.128   5.444   2.536 -0.6240  0.0437  0.8587
40935SOL    HW224813   7.150   5.593   2.520 -1.0096 -0.0111 -0.3029
40936SOL     OW24814   8.190   5.445   9.034  0.1822  0.5926  0.0483
40936SOL    HW124815   8.232   5.498   9.101  1.6697  0.8418 -1.0403
40936SOL    HW224816   8.237   5.361   9.036 -1.2629 -0.2552  0.8353
40937SOL     OW24817   0.528   7.307   1.309 -0.1068 -0.2410  0.4012
40937SOL    HW124818   0.605   7.252   1.320  0.8778  1.3007  1.5712
40937SOL    HW224819   0.550   7.390   1.352 -2.3272  0.3304  0.6011
40938SOL     OW24820   9.818   6.247   1.815  0.1700 -0.0832  0.5252
40938SOL    HW124821   9.773   6.226   1.897 -1.7585 -0.0879 -0.4574
40938SOL    HW224822   9.761   6.210   1.747  2.8205 -2.0723 -0.7843
40939SOL     OW24823   7.137   9.478   6.442  0.2234  0.4761  0.7323
40939SOL    HW124824   7.216   9.442   6.403  0.6193  0.2274  1.7255
40939SOL    HW224825   7.168   9.529   6.517 -0.4968  1.0400  0.6605
40940SOL     OW24826   9.754   2.761   7.858  0.3439 -1.0047  0.0554
40940SOL    HW124827   9.679   2.821   7.856  0.1830 -1.2099 -0.0739
40940SOL    HW224828   9.800   2.784   7.939  0.9496  0.1002 -0.5700
40941SOL     OW24829  10.658   2.723   0.118 -0.0180 -0.1341 -0.0107
40941SOL    HW124830  10.753   2.731   0.124  0.1724  0.3618 -2.6913
40941SOL    HW224831  10.639   2.729   0.024 -2.6059 -1.3402  0.3586
40942SOL     OW24832   0.020   8.420   7.839 -0.2660  0.3486  0.2855
40942SOL    HW124833   0.098   8.430   7.785  0.9929 -1.8412  1.5874
40942SOL    HW224834  -0.034   8.496   7.817  2.7609  2.6578  0.2593
40943SOL     OW24835   5.157   1.202   7.240 -0.1231  0.0847  0.2295
40943SOL    HW124836   5.135   1.294   7.230 -0.6686 -0.1351 -0.7036
40943SOL    HW224837   5.204   1.179   7.160  1.3189 -0.0906  1.0995
40944SOL     OW24838   8.827   8.478   8.990 -0.6430  0.0271 -0.3955
40944SOL    HW124839   8.800   8.387   9.008  1.4942 -0.7569 -0.8504
40944SOL    HW224840   8.878   8.472   8.910  2.7095  0.9226  1.4644
40945SOL     OW24841  10.623   0.960   3.975 -0.2495 -0.3703  0.0266
40945SOL    HW124842  10.650   1.047   4.006  0.6982 -1.3234  2.1014
40945SOL    HW224843  10.527   0.965   3.971 -0.1950  0.8359 -0.0920
40946SOL     OW24844   0.917   2.999   2.412  0.0459 -0.1814  0.4051
40946SOL    HW124845   0.938   3.056   2.486  1.3070  0.4008 -0.3705
40946SOL    HW224846   0.851   2.938   2.446 -2.0451  2.2618  1.0388
40947SOL     OW24847   6.902  10.427   5.240  0.3599 -0.3819 -0.0219
40947SOL    HW124848   6.836  10.398   5.178  1.3612  0.6850 -1.6625
40947SOL    HW224849   6.853  10.446   5.320 -1.0393 -1.3140 -0.6188
40948SOL     OW24850   5.124   8.073   6.275 -0.1101 -0.2635  0.0279
40948SOL    HW124851   5.102   8.148   6.219 -0.9943 -1.2146 -0.9463
40948SOL    HW224852   5.168   8.011   6.217  2.7798  0.4007  1.3325
40949SOL     OW24853   1.545   7.101   8.621  0.6266 -0.8176  0.3114
40949SOL    HW124854   1.547   7.156   8.543 -1.1519 -0.7873  0.2480
40949SOL    HW224855   1.538   7.162   8.694  1.1390 -0.8877  0.4239
40950SOL     OW24856  10.564   2.901   9.634 -0.0685  0.3100 -0.1381
40950SOL    HW124857  10.537   2.818   9.595 -1.5872 -0.0609  1.5506
40950SOL    HW224858  10.484   2.954   9.634 -0.1596  0.2734  2.3975
40951SOL     OW24859   6.093   3.242   7.158 -0.6225 -0.8628 -0.5594
40951SOL    HW124860   6.134   3.324   7.129 -0.2874  0.7693  3.7553
40951SOL    HW224861   6.013   3.271   7.204 -0.8391 -2.9926  0.5310
40952SOL     OW24862   7.691   3.869   6.796 -0.2820 -0.5608  0.2425
40952SOL    HW124863   7.716   3.957   6.825 -0.9976  0.0244 -0.8380
40952SOL    HW224864   7.602   3.857   6.828  0.2211 -1.3744  1.3828
40953SOL     OW24865   7.802   8.626   1.094 -0.3730 -0.1507 -0.2875
40953SOL    HW124866   7.796   8.531   1.105 -2.0520  0.0059  0.3358
40953SOL    HW224867   7.712   8.657   1.099  0.2021  1.5526  0.0815
40954SOL     OW24868   9.337   8.177   8.656  0.3696  0.2527  0.2647
40954SOL    HW124869   9.388   8.242   8.607  1.2264 -1.0617 -0.6443
40954SOL    HW224870   9.354   8.197   8.748  1.2681  0.8179 -0.0132
40955SOL     OW24871   9.240   6.969   2.328  0.3118 -0.4126  0.4047
40955SOL    HW124872   9.146   6.952   2.335  0.2919 -0.3808  0.2090
40955SOL    HW224873   9.253   7.050   2.377  0.2538 -0.4666  0.5115
40956SOL     OW24874   7.012   7.381   7.471 -0.0146  0.3963  0.6454
40956SOL    HW124875   7.097   7.338   7.478  0.3956  1.3137  1.4027
40956SOL    HW224876   6.949   7.311   7.491  0.3998 -0.8188 -1.8599
40957SOL     OW24877   1.270   2.473   7.871 -0.2050 -0.6334 -0.7868
40957SOL    HW124878   1.330   2.508   7.937 -1.3103  1.0123 -0.6025
40957SOL    HW224879   1.232   2.395   7.912  0.7646 -0.9105 -0.3831
40958SOL     OW24880   7.966   3.581   1.261 -0.5363 -0.2189  0.2482
40958SOL    HW124881   7.920   3.502   1.233 -0.8157 -0.8863  2.3960
40958SOL    HW224882   7.898   3.638   1.297 -0.0122 -0.2159  1.2791
40959SOL     OW24883   8.737   6.317   0.312  0.1150 -0.0984  0.0340
40959SOL    HW124884   8.765   6.408   0.317  1.1002 -0.4423  1.3775
40959SOL    HW224885   8.717   6.303   0.220 -1.1629  1.7748 -0.0348
40960SOL     OW24886   8.276  11.081  10.092 -0.0003 -0.7098 -0.4995
40960SOL    HW124887   8.193  11.104  10.049  0.8957 -0.1746 -2.0139
40960SOL    HW224888   8.249  11.044  10.176 -1.8035 -0.9985 -1.1430
40961SOL     OW24889   6.704   4.698   1.064 -0.3011 -0.3092 -0.5735
40961SOL    HW124890   6.795   4.727   1.058  0.2060 -2.0505 -3.9392
40961SOL    HW224891   6.690   4.679   1.156  2.5608  0.5346  0.1200
40962SOL     OW24892   0.351   6.961  10.128  0.5479 -0.2569 -0.1623
40962SOL    HW124893   0.324   6.994  10.043 -1.6720 -1.2361  0.0925
40962SOL    HW224894   0.423   7.018  10.155  0.2235  1.0722 -1.9575
40963SOL     OW24895   2.444   0.249  10.620 -0.3181 -0.2871 -0.0865
40963SOL    HW124896   2.510   0.277  10.684  0.1319  0.4615 -0.8631
40963SOL    HW224897   2.393   0.328  10.603  0.5476 -0.0488 -1.8124
40964SOL     OW24898   9.136   9.099  10.032  0.1527 -0.1275 -0.4060
40964SOL    HW124899   9.170   9.010  10.022  0.3644  0.1481 -2.5864
40964SOL    HW224900   9.134   9.113  10.126  2.5159 -1.5335 -0.0503
40965SOL     OW24901   2.062   9.093   1.751 -0.1017 -0.0766 -0.0901
40965SOL    HW124902   2.109   9.067   1.671 -1.7745 -0.4342 -1.0206
40965SOL    HW224903   2.032   9.011   1.789  1.6344 -0.0012  1.5986
40966SOL     OW24904   8.905   3.957   5.545 -0.2039 -0.4102  0.1248
40966SOL    HW124905   8.877   4.037   5.502 -1.5335 -0.0965  1.5033
40966SOL    HW224906   8.998   3.950   5.523 -0.3125  0.8999 -0.9156
40967SOL     OW24907  10.772  10.304   1.762 -0.5375 -0.1035 -0.6265
40967SOL    HW124908  10.696  10.250   1.738  0.4430 -1.5095 -0.6867
40967SOL    HW224909  10.742  10.354   1.838 -0.6011 -3.0640  1.4867
40968SOL     OW24910   8.233   2.070   6.668  0.1818  0.1555  0.6610
40968SOL    HW124911   8.150   2.062   6.716 -0.2521  1.5909  0.1753
40968SOL    HW224912   8.248   2.164   6.660  0.7631 -0.0521 -1.1354
40969SOL     OW24913   1.783   5.928   5.803  0.0709  0.3135 -0.5450
40969SOL    HW124914   1.830   5.901   5.724  0.8535  1.1392 -0.3711
40969SOL    HW224915   1.733   6.005   5.778  1.2361  1.2858  0.0412
40970SOL     OW24916   8.831   8.201   5.811  0.2651  0.2081  0.6653
40970SOL    HW124917   8.755   8.191   5.754  0.7214  1.2952 -0.1787
40970SOL    HW224918   8.832   8.294   5.833  1.1270  0.1297  0.9888
40971SOL     OW24919   5.464   9.482   0.632  0.0210  0.3239 -0.6258
40971SOL    HW124920   5.390   9.498   0.573 -0.2910 -3.4301 -1.5572
40971SOL    HW224921   5.423   9.461   0.716  0.0057 -0.7667 -0.8819
40972SOL     OW24922   5.495   1.423   2.828  0.3440  0.0788  0.0539
40972SOL    HW124923   5.543   1.363   2.772  0.6790  1.3601 -1.0676
40972SOL    HW224924   5.434   1.468   2.769 -1.0965 -0.3345  1.1598
40973SOL     OW24925   4.017   9.799   7.084 -0.0776 -0.0403 -0.0101
40973SOL    HW124926   3.992   9.837   7.168  2.3093  3.0936 -0.5343
40973SOL    HW224927   3.953   9.834   7.022  0.8486  1.4505 -0.1532
40974SOL     OW24928   4.527   4.554   7.452  0.3426  0.5533  0.0084
40974SOL    HW124929   4.484   4.640   7.460  2.0606  1.7642 -2.3185
40974SOL    HW224930   4.618   4.570   7.479  0.5881 -0.6456 -0.0523
40975SOL     OW24931   5.773   0.841   8.116  0.1187  0.0766 -0.3142
40975SOL    HW124932   5.800   0.818   8.205  0.7004 -1.2325 -0.8073
40975SOL    HW224933   5.679   0.859   8.124  0.3794  1.1460  0.7610
40976SOL     OW24934   8.170   7.627   6.414  0.0073  0.1533 -0.2175
40976SOL    HW124935   8.254   7.669   6.396  0.4655  0.5101  2.4246
40976SOL    HW224936   8.192   7.539   6.444 -0.6453 -0.1515 -0.5990
40977SOL     OW24937   1.500   2.005   2.189 -0.2104 -0.0299  0.0127
40977SOL    HW124938   1.433   2.068   2.215 -0.5480 -0.9516  1.4823
40977SOL    HW224939   1.524   2.030   2.100 -0.8481  1.7158  0.3086
40978SOL     OW24940   9.957  10.989   4.840 -0.1121  0.2822 -0.3306
40978SOL    HW124941   9.892  10.998   4.910  0.2978 -0.3346  0.1297
40978SOL    HW224942  10.006  10.910   4.862  2.7789  2.2889  0.9407
40979SOL     OW24943   7.524   1.146   6.891 -0.1464  0.0375  0.3158
40979SOL    HW124944   7.618   1.148   6.904 -0.3253 -0.7181  2.1077
40979SOL    HW224945   7.508   1.070   6.835  0.2015 -1.0746  1.6608
40980SOL     OW24946   3.855   9.829   0.427 -0.3555 -0.2929 -0.0783
40980SOL    HW124947   3.768   9.870   0.424  0.0967  0.7098 -2.2061
40980SOL    HW224948   3.897   9.860   0.347  2.3439  0.0529  1.3781
40981SOL     OW24949   8.901   4.186   5.751 -0.9297 -0.2840  0.0728
40981SOL    HW124950   8.820   4.160   5.796 -0.4685  1.2437  1.9118
40981SOL    HW224951   8.969   4.177   5.817 -0.0826  1.2592 -0.5301
40982SOL     OW24952   9.926   9.420   4.349  0.9960 -0.1457 -0.8825
40982SOL    HW124953   9.838   9.382   4.348  0.1905  1.6623 -1.0301
40982SOL    HW224954   9.916   9.507   4.312  2.8713  0.1034 -0.9247
40983SOL     OW24955   3.172   6.677   0.129 -0.1786 -0.3243  0.2286
40983SOL    HW124956   3.204   6.766   0.121  1.1812 -0.8465 -0.4555
40983SOL    HW224957   3.156   6.648   0.039  1.3548 -1.4105  0.2516
40984SOL     OW24958  10.172   9.361  11.040  0.3431  0.1113 -0.0418
40984SOL    HW124959  10.204   9.365  10.950  1.2306 -1.8490  0.1231
40984SOL    HW224960  10.238   9.406  11.092  1.7310 -1.8202 -0.0026
40985SOL     OW24961   9.246   3.854   4.227 -0.4104  0.6010 -0.3087
40985SOL    HW124962   9.156   3.831   4.252  0.5831 -2.3606  1.0251
40985SOL    HW224963   9.299   3.832   4.303  1.7738 -0.7384 -2.0587
40986SOL     OW24964   5.254   9.148   0.879  0.3985 -0.0166 -0.0159
40986SOL    HW124965   5.173   9.125   0.924  1.1030  0.6747  1.6719
40986SOL    HW224966   5.250   9.100   0.796 -1.0950 -1.0716  0.6347
40987SOL     OW24967   0.407   5.091   8.246 -0.3223 -0.4102  0.2058
40987SOL    HW124968   0.316   5.115   8.264 -0.3045  0.6883 -1.0676
40987SOL    HW224969   0.401   5.021   8.181 -0.2532 -0.7738  0.5814
40988SOL     OW24970   5.938   1.634   4.161  0.3172 -0.0421  0.3274
40988SOL    HW124971   5.934   1.585   4.242 -0.9305 -1.2263 -0.3944
40988SOL    HW224972   5.955   1.568   4.093 -2.2832  0.2840 -0.7695
40989SOL     OW24973   8.400   6.354   3.049  0.3771 -0.2382  0.2057
40989SOL    HW124974   8.465   6.283   3.052  0.5599 -0.0897 -0.2029
40989SOL    HW224975   8.449   6.431   3.078  0.3885 -0.1228 -0.1181
40990SOL     OW24976   9.019   8.063   5.599  0.1347 -0.8094 -0.1225
40990SOL    HW124977   9.007   8.136   5.659  0.9909 -0.8156  0.0697
40990SOL    HW224978   9.114   8.051   5.594  0.1961  0.0563 -2.5189
40991SOL     OW24979   9.812   8.608   3.582  0.1613  0.5946 -0.8521
40991SOL    HW124980   9.744   8.559   3.630  1.8606 -1.0827 -0.0049
40991SOL    HW224981   9.763   8.670   3.529 -2.0213 -0.2368  0.0360
40992SOL     OW24982   8.819   6.385   8.220 -0.3612  0.0356  0.0535
40992SOL    HW124983   8.879   6.455   8.194 -0.9760  0.2347 -0.8800
40992SOL    HW224984   8.789   6.410   8.307  0.9211 -0.0772  0.5441
40993SOL     OW24985   2.278   8.909   2.041 -0.0663  0.4464  0.4141
40993SOL    HW124986   2.338   8.836   2.060  1.6445  1.7449  0.2309
40993SOL    HW224987   2.243   8.889   1.955 -0.3236 -0.5961  0.7383
40994SOL     OW24988  10.759   5.233   2.286 -0.3363 -0.4476  0.0818
40994SOL    HW124989  10.724   5.312   2.326 -1.2225 -0.6335 -0.2820
40994SOL    HW224990  10.784   5.259   2.197 -1.8104 -0.8126 -0.4856
40995SOL     OW24991   3.108   6.383  10.318 -0.2080  0.2571 -0.2312
40995SOL    HW124992   3.081   6.466  10.357  0.0882  0.2738 -0.0626
40995SOL    HW224993   3.093   6.395  10.224 -0.0066  0.5588 -0.2242
40996SOL     OW24994   0.921  10.312   0.325 -0.0313 -0.1716 -0.0268
40996SOL    HW124995   0.898  10.290   0.235  0.2889 -1.6613  0.2364
40996SOL    HW224996   0.837  10.318   0.371 -0.3227  2.2879 -0.7434
40997SOL     OW24997   9.796   4.500   9.924 -0.4541  0.2593 -0.1954
40997SOL    HW124998   9.738   4.452   9.982 -0.4706  0.4654 -0.0388
40997SOL    HW224999   9.841   4.562   9.982 -0.6059  0.5920 -0.4351
40998SOL     OW25000   7.432   0.655   0.136 -0.0155 -0.1351 -0.1912
40998SOL    HW125001   7.439   0.726   0.072 -0.4749  2.3616  2.3289
40998SOL    HW225002   7.523   0.628   0.152  0.1576 -0.1902 -1.1905
40999SOL     OW25003  10.261   5.518   0.840  0.3481  0.6354  0.0145
40999SOL    HW125004  10.278   5.424   0.836  1.4411  0.8200 -0.1518
40999SOL    HW225005  10.342   5.558   0.808  0.0252  1.6442  0.4176
41000SOL     OW25006   1.393   3.498   8.477 -0.4714  0.0895  0.2266
41000SOL    HW125007   1.442   3.500   8.559  2.1459  0.9943 -1.2204
41000SOL    HW225008   1.398   3.588   8.444 -1.5749 -0.2137 -0.8574
41001SOL     OW25009  10.279   0.879   8.672 -0.3722 -0.3096 -0.2154
41001SOL    HW125010  10.314   0.803   8.626 -0.1465  0.4248 -1.3079
41001SOL    HW225011  10.266   0.850   8.762 -0.2833 -1.6283 -0.6174
41002SOL     OW25012   8.049  10.570   0.517 -0.5984  0.0055 -0.3518
41002SOL    HW125013   8.058  10.484   0.560  1.8660  0.0481 -0.6458
41002SOL    HW225014   8.069  10.633   0.587 -0.6030  0.2518 -0.5743
41003SOL     OW25015   9.489   6.867   0.173  0.2412 -0.1390 -0.1974
41003SOL    HW125016   9.505   6.830   0.086  0.3978  0.9698 -0.6586
41003SOL    HW225017   9.575   6.875   0.212  0.0979 -1.5873  0.4956
41004SOL     OW25018  11.049   5.178   5.102 -0.2077 -0.1245  0.6199
41004SOL    HW125019  11.098   5.185   5.184  0.1259 -0.3955  0.4445
41004SOL    HW225020  11.087   5.245   5.045 -1.5626  1.2465  1.2392
41005SOL     OW25021   9.292   6.867   4.027  0.0295 -0.1365 -0.8377
41005SOL    HW125022   9.352   6.829   4.091  1.0488  2.0690 -0.3759
41005SOL    HW225023   9.205   6.840   4.057  0.5075  0.4136  1.2482
41006SOL     OW25024  10.723   6.513  10.800 -0.3659  0.1613  0.2374
41006SOL    HW125025  10.728   6.593  10.748  0.3890 -0.1135 -0.1434
41006SOL    HW225026  10.806   6.468  10.782 -0.9511 -0.9119  0.0972
41007SOL     OW25027   0.861  10.755   5.207 -0.3241  0.2442 -0.2772
41007SOL    HW125028   0.888  10.829   5.153  1.5761  2.1003  2.8940
41007SOL    HW225029   0.933  10.692   5.199 -0.0059  0.5535  0.0931
41008SOL     OW25030   0.762   3.335   5.914  0.0533 -0.3528 -0.4201
41008SOL    HW125031   0.688   3.382   5.876  0.1568  1.2870  1.2266
41008SOL    HW225032   0.780   3.382   5.995  2.6199 -1.0012 -0.5457
41009SOL     OW25033   6.769   6.640   5.906 -0.3224  0.0469 -0.1400
41009SOL    HW125034   6.809   6.678   5.827 -1.6902  1.4820 -0.2080
41009SOL    HW225035   6.736   6.555   5.877  0.3594 -0.0301 -0.7445
41010SOL     OW25036   7.773   7.363   7.475  0.5064  0.2199 -1.0147
41010SOL    HW125037   7.797   7.284   7.427  1.3688 -0.1725  0.0207
41010SOL    HW225038   7.855   7.394   7.513 -0.3376 -0.2379  1.2998
41011SOL     OW25039   4.517   2.884   4.768 -0.7058 -0.3583  0.2620
41011SOL    HW125040   4.525   2.971   4.729 -0.7731 -0.8104 -0.8076
41011SOL    HW225041   4.423   2.866   4.769 -0.7386 -0.1945  1.0295
41012SOL     OW25042   7.512   2.215   5.526  0.2201 -0.0247 -0.3007
41012SOL    HW125043   7.537   2.142   5.583  1.2413  0.3472 -0.2521
41012SOL    HW225044   7.451   2.176   5.463 -0.1730 -0.6501  0.4500
41013SOL     OW25045   0.070   9.646   9.725 -0.0565  0.7337  0.6095
41013SOL    HW125046   0.037   9.591   9.654  2.3268  1.6294 -1.3240
41013SOL    HW225047  -0.007   9.662   9.780 -1.6081 -1.4650 -0.7512
41014SOL     OW25048   9.143   5.140   6.870 -0.0448 -0.0118  0.6082
41014SOL    HW125049   9.238   5.153   6.872 -0.0851  0.3000  0.4724
41014SOL    HW225050   9.108   5.222   6.837 -0.4227  0.1754  1.4535
41015SOL     OW25051  10.425   3.794   0.432  0.1652 -0.4686 -0.4271
41015SOL    HW125052  10.368   3.849   0.380 -0.4719 -0.6187  0.0971
41015SOL    HW225053  10.413   3.826   0.522  0.1707 -1.1274 -0.1886
41016SOL     OW25054   7.800   7.631   0.829 -0.5552 -0.2429 -0.0680
41016SOL    HW125055   7.745   7.709   0.820  0.1173  0.5866  2.2289
41016SOL    HW225056   7.887   7.659   0.800 -0.4991 -0.4092 -0.0645
41017SOL     OW25057   6.134   7.369   7.557  0.9235 -0.0636  0.2722
41017SOL    HW125058   6.103   7.280   7.576  2.2557 -0.2100  1.9954
41017SOL    HW225059   6.083   7.425   7.615 -0.4088  0.4361 -1.3019
41018SOL     OW25060   4.617   9.115   9.050  0.0718 -0.0735  0.6697
41018SOL    HW125061   4.551   9.159   9.104 -0.2442  0.7180 -0.3491
41018SOL    HW225062   4.597   9.022   9.061 -2.0631  0.1707 -0.6051
41019SOL     OW25063   8.965   9.889   4.648  0.0816  0.1696  0.2482
41019SOL    HW125064   8.935   9.801   4.669  1.2845 -0.6055 -1.0443
41019SOL    HW225065   8.948   9.940   4.727 -2.0939 -0.8102  0.4827
41020SOL     OW25066   2.921   3.185   0.028  0.5007  0.1639 -0.0124
41020SOL    HW125067   2.837   3.232   0.027  1.1662  1.3997  0.1519
41020SOL    HW225068   2.913   3.121  -0.043 -0.0696  1.2015 -0.9144
41021SOL     OW25069   3.648   6.209   2.342  0.2619  0.2557  0.2078
41021SOL    HW125070   3.645   6.133   2.400  1.0710 -0.0567 -0.1458
41021SOL    HW225071   3.663   6.283   2.401 -1.2796  0.2654  0.6371
41022SOL     OW25072   9.051   1.093   7.170 -0.1457  0.0961 -0.2150
41022SOL    HW125073   9.125   1.136   7.213  0.9142 -1.6752 -0.1789
41022SOL    HW225074   9.004   1.164   7.127 -0.3783  1.7261  2.5256
41023SOL     OW25075   3.778   8.277   9.701  0.2283  0.7118 -0.1200
41023SOL    HW125076   3.771   8.213   9.772  0.1272  2.2251  1.2830
41023SOL    HW225077   3.870   8.274   9.674  0.6524  1.2390  1.1883
41024SOL     OW25078   9.802   3.213   7.440  0.2151  0.4968  0.0382
41024SOL    HW125079   9.838   3.133   7.401  0.3528  0.7362 -0.3301
41024SOL    HW225080   9.770   3.185   7.526 -2.7412 -0.6662 -1.3308
41025SOL     OW25081   3.559   5.857   4.377 -0.3338 -0.1602  0.2109
41025SOL    HW125082   3.654   5.854   4.383 -0.3767 -0.4221  1.0071
41025SOL    HW225083   3.536   5.778   4.328 -0.1872 -0.6825  0.9585
41026SOL     OW25084   8.924  10.620   9.243  0.2354  0.6064  0.0244
41026SOL    HW125085   8.877  10.537   9.233  3.2419 -1.2453 -0.0045
41026SOL    HW225086   8.916  10.641   9.336 -0.9547  0.5803 -0.0553
41027SOL     OW25087  10.348   4.596   1.804  1.0389 -0.6634 -0.2838
41027SOL    HW125088  10.350   4.623   1.712  0.4358  0.3697 -0.0075
41027SOL    HW225089  10.359   4.677   1.854 -1.8102 -0.6835  0.5742
41028SOL     OW25090   6.226   5.812  10.968 -0.2871 -0.2872 -0.1140
41028SOL    HW125091   6.196   5.804  11.058  0.0873  0.6373  0.1130
41028SOL    HW225092   6.171   5.881  10.930  1.2693  1.2387  0.2293
41029SOL     OW25093   3.650   0.595   1.491  0.9153  0.2473  0.0864
41029SOL    HW125094   3.578   0.655   1.507  1.1945  1.2228 -2.0019
41029SOL    HW225095   3.712   0.645   1.438  2.2316 -1.1780  0.1997
41030SOL     OW25096   0.992   8.450  10.422 -0.9727 -0.2461 -0.1449
41030SOL    HW125097   1.039   8.493  10.351 -0.8831  0.7897  0.5196
41030SOL    HW225098   1.036   8.365  10.431  1.9856  1.2821  1.5521
41031SOL     OW25099   7.163   8.161   5.723  0.0806 -0.0844 -0.4620
41031SOL    HW125100   7.159   8.214   5.644  0.3629  0.9889  0.2301
41031SOL    HW225101   7.073   8.131   5.737 -0.0339  0.0112 -0.9818
41032SOL     OW25102   3.034   8.139   1.075 -0.1953  0.5302  0.2727
41032SOL    HW125103   3.075   8.072   1.021 -0.5480  0.6452 -0.1438
41032SOL    HW225104   3.079   8.133   1.159 -0.7830 -0.7865  0.5140
41033SOL     OW25105  10.272   0.053   6.467  0.3322  0.1797  0.1895
41033SOL    HW125106  10.250   0.008   6.385  0.4879  2.1315 -1.0030
41033SOL    HW225107  10.199   0.113   6.481  0.4656  0.0857  1.3383
41034SOL     OW25108   8.999   2.836  10.260 -0.2430 -0.0933  0.0546
41034SOL    HW125109   9.031   2.873  10.342 -3.1021  0.2125  1.1726
41034SOL    HW225110   8.977   2.745  10.282  1.5901 -0.8903 -1.1926
41035SOL     OW25111   7.255   0.125   4.601  0.4967  0.1809  0.2407
41035SOL    HW125112   7.231   0.161   4.516  1.5003  0.5238  0.0892
41035SOL    HW225113   7.290   0.038   4.582  1.4488  0.5559  0.1945
41036SOL     OW25114   8.995   5.042   1.721  0.1533  0.1025 -0.1625
41036SOL    HW125115   8.946   5.040   1.803 -0.0668  1.8082 -0.2164
41036SOL    HW225116   8.992   5.133   1.693  0.8444 -0.3067 -1.7069
41037SOL     OW25117  10.187  11.100   0.179  0.0639  0.4358 -0.1981
41037SOL    HW125118  10.154  11.187   0.204  0.7040  0.3728  0.9469
41037SOL    HW225119  10.163  11.091   0.087 -0.1960  1.7470 -0.2829
41038SOL     OW25120   6.395   8.936   3.390 -0.9527 -0.0110  0.1289
41038SOL    HW125121   6.489   8.949   3.403 -0.8017 -0.0135 -0.8614
41038SOL    HW225122   6.372   8.864   3.449 -0.8578  1.6073  2.2307
41039SOL     OW25123  10.574   7.322   6.345 -0.3707  0.6071  0.5023
41039SOL    HW125124  10.530   7.237   6.336 -0.3818  0.6565  0.0687
41039SOL    HW225125  10.517   7.384   6.300 -1.0813  1.1149  2.0173
41040SOL     OW25126   9.976   7.424   2.732 -0.6763  0.0497  0.0291
41040SOL    HW125127   9.898   7.477   2.715  0.0490  1.3128  0.4836
41040SOL    HW225128   9.969   7.351   2.670 -0.7927  1.6495 -1.9884
41041SOL     OW25129   6.816   9.135   9.451 -0.4077 -0.3208  0.3196
41041SOL    HW125130   6.848   9.045   9.448 -1.9393 -1.1655  3.9119
41041SOL    HW225131   6.838   9.172   9.365  1.1154 -3.7811 -0.9376
41042SOL     OW25132   9.777   6.792   3.693  0.7135  0.6206 -0.0376
41042SOL    HW125133   9.685   6.797   3.665  0.9835 -2.1544 -1.8048
41042SOL    HW225134   9.801   6.700   3.679  2.7229  0.3313  3.9303
41043SOL     OW25135   3.082   1.911   3.745  0.3353  0.4241  0.0994
41043SOL    HW125136   3.121   1.951   3.823 -0.9911 -0.4089  1.2414
41043SOL    HW225137   3.002   1.869   3.777 -0.6568  0.6955 -1.8520
41044SOL     OW25138   9.411   9.101  10.774  0.7194  0.0501  0.5859
41044SOL    HW125139   9.502   9.127  10.764  0.7589 -0.9502 -3.3591
41044SOL    HW225140   9.406   9.016  10.732 -1.8485 -0.4695  1.7644
41045SOL     OW25141   8.539   7.320   9.621 -0.0205 -0.1021  0.1864
41045SOL    HW125142   8.502   7.236   9.647 -1.1545  0.5198  0.6605
41045SOL    HW225143   8.598   7.299   9.548  1.2314 -1.5443  1.5575
41046SOL     OW25144   6.700   8.964   9.715 -0.5207  0.3904  0.6359
41046SOL    HW125145   6.614   8.974   9.756 -0.7869  3.1479 -0.3507
41046SOL    HW225146   6.744   9.047   9.732  2.2159 -1.1043  1.5316
41047SOL     OW25147   0.257   5.649   2.709  0.3381  0.2215 -0.1095
41047SOL    HW125148   0.258   5.631   2.615 -0.4082 -0.1065 -0.0680
41047SOL    HW225149   0.306   5.577   2.748  0.6494  0.3584 -0.2422
41048SOL     OW25150  10.901   6.181   6.259 -0.0546  0.2163  0.0361
41048SOL    HW125151  10.990   6.190   6.294 -0.7300 -0.8364  2.1715
41048SOL    HW225152  10.861   6.112   6.311 -1.7075 -0.3461 -1.8228
41049SOL     OW25153   2.511  10.089   7.781  0.2500  0.0674 -0.1540
41049SOL    HW125154   2.508  10.021   7.714  0.9921  1.4378 -1.6696
41049SOL    HW225155   2.494  10.170   7.733 -0.9412  0.9456  1.6374
41050SOL     OW25156   2.152   5.595   9.625 -0.3804  0.2443  0.2205
41050SOL    HW125157   2.068   5.587   9.670  0.1886  0.1848  1.3031
41050SOL    HW225158   2.164   5.690   9.613 -0.8002  0.2302 -0.3350
41051SOL     OW25159   1.889   7.496   8.199 -0.1942 -0.6388  0.2261
41051SOL    HW125160   1.844   7.494   8.284 -2.2712 -0.4451 -0.7926
41051SOL    HW225161   1.932   7.411   8.193  2.3291  0.3364  2.5847
41052SOL     OW25162   8.718   6.367   1.133  0.1307 -0.1196  0.5052
41052SOL    HW125163   8.670   6.324   1.062 -0.2255 -0.2695  0.8290
41052SOL    HW225164   8.685   6.456   1.134 -0.2830 -0.2686  0.8395
41053SOL     OW25165   8.677   8.247   7.938  0.5575 -0.7268 -0.0945
41053SOL    HW125166   8.741   8.190   7.979  0.4412 -0.2893  0.7065
41053SOL    HW225167   8.719   8.333   7.933 -0.1914 -0.2716  1.0510
41054SOL     OW25168   1.208   6.195   7.504  0.4964  0.6135 -0.6131
41054SOL    HW125169   1.297   6.227   7.520  0.9965  0.6199 -3.0179
41054SOL    HW225170   1.202   6.189   7.409 -2.2956  1.1861 -0.5465
41055SOL     OW25171   5.512   0.316   9.747 -0.0123 -0.3612  0.7375
41055SOL    HW125172   5.513   0.280   9.658 -0.6617 -2.6737  1.5709
41055SOL    HW225173   5.457   0.394   9.741  2.2838  1.2226 -1.3975
41056SOL     OW25174   9.758   9.659   9.573 -0.2033 -0.1866 -0.4757
41056SOL    HW125175   9.747   9.619   9.659 -0.2015  0.0759 -0.3524
41056SOL    HW225176   9.763   9.753   9.590  0.8915 -0.2024 -0.6618
41057SOL     OW25177   7.422   6.934   4.103 -0.2935  0.6311 -0.0065
41057SOL    HW125178   7.358   7.003   4.086 -0.0384  0.7247 -0.6162
41057SOL    HW225179   7.504   6.982   4.119 -0.2653  0.4961  0.2468
41058SOL     OW25180   9.167   9.466   0.764  0.3821  1.0564  0.8685
41058SOL    HW125181   9.159   9.526   0.839 -2.7809  2.1628 -0.1849
41058SOL    HW225182   9.141   9.381   0.798 -0.7592  1.4947  1.1319
41059SOL     OW25183   2.869   1.164  10.905  0.2582 -0.3397  0.2972
41059SOL    HW125184   2.878   1.104  10.979 -1.8872 -0.1823  0.7505
41059SOL    HW225185   2.785   1.208  10.920  0.0209  0.0837 -1.9509
41060SOL     OW25186   5.746   1.798   0.855 -0.2388  0.1990  0.3781
41060SOL    HW125187   5.666   1.801   0.906 -0.2534  0.3960  0.3458
41060SOL    HW225188   5.726   1.741   0.781 -0.7994  1.3625 -0.3893
41061SOL     OW25189   7.908   6.420   5.160  0.1504 -0.2012  0.8364
41061SOL    HW125190   7.942   6.429   5.071 -2.3354 -0.6989 -0.2453
41061SOL    HW225191   7.922   6.506   5.200 -1.2908  0.9976 -1.0632
41062SOL     OW25192   2.456   9.822   9.413 -0.2355 -0.2701 -0.2290
41062SOL    HW125193   2.518   9.770   9.464  1.1198  2.3406  0.9611
41062SOL    HW225194   2.396   9.858   9.477 -0.6098  0.3495 -0.9131
41063SOL     OW25195   6.476   7.208   4.830  0.2365 -0.4300 -0.2171
41063SOL    HW125196   6.432   7.145   4.773 -0.1001 -0.3013 -0.0974
41063SOL    HW225197   6.407   7.243   4.885  0.4137  0.0890 -0.3200
41064SOL     OW25198   5.673   6.471   7.597 -0.1956 -0.2362 -0.2295
41064SOL    HW125199   5.619   6.441   7.671  0.0899  0.4742  0.2843
41064SOL    HW225200   5.737   6.531   7.637 -1.0088  1.3865 -1.2368
41065SOL     OW25201   1.156  10.562   2.904  0.5482  0.4383  0.1586
41065SOL    HW125202   1.133  10.497   2.837  1.9680 -0.4836  0.5181
41065SOL    HW225203   1.082  10.623   2.904  0.1339  0.0179 -1.6795
41066SOL     OW25204   0.125   2.239   0.309 -0.0327  0.1147 -0.2489
41066SOL    HW125205   0.034   2.210   0.303 -0.2717  0.7346  0.2804
41066SOL    HW225206   0.119   2.334   0.319  0.7148  0.3170 -1.4568
41067SOL     OW25207  10.584   7.360   7.468 -0.1959 -0.2656 -0.2121
41067SOL    HW125208  10.601   7.395   7.381  0.5190 -1.7276 -0.6957
41067SOL    HW225209  10.670   7.335   7.501 -0.6319 -1.2361  0.2212
41068SOL     OW25210   5.821   0.580   2.253 -0.1649 -0.1317 -0.6541
41068SOL    HW125211   5.735   0.585   2.294 -0.8013  2.0180 -2.1383
41068SOL    HW225212   5.874   0.531   2.316 -2.2686 -0.9641  0.5781
41069SOL     OW25213   3.360   3.125   8.678 -0.2531 -0.5353 -0.0441
41069SOL    HW125214   3.374   3.032   8.665 -1.1908 -0.4508 -1.8737
41069SOL    HW225215   3.269   3.133   8.706  0.3136 -0.2641  1.9328
41070SOL     OW25216   9.527   0.118   3.683 -0.2217  0.0163 -0.2171
41070SOL    HW125217   9.591   0.153   3.621  2.0925 -1.6556  1.0310
41070SOL    HW225218   9.472   0.192   3.707  1.3086  1.5729 -1.3180
41071SOL     OW25219   7.330   1.974   8.172  0.0920 -0.5008 -0.2379
41071SOL    HW125220   7.256   1.988   8.113  0.2910 -1.8158 -0.8363
41071SOL    HW225221   7.369   1.892   8.142  0.4347 -1.0114  1.4945
41072SOL     OW25222  10.927   6.193   3.094  0.1200 -0.1547 -1.0560
41072SOL    HW125223  10.929   6.241   3.011  2.6405 -1.9201 -2.1377
41072SOL    HW225224  10.978   6.248   3.154  1.1577 -0.3996 -1.6777
41073SOL     OW25225   3.751   1.173   0.405  0.3575 -0.4262  0.4276
41073SOL    HW125226   3.755   1.119   0.326  1.1788 -1.2829  1.0297
41073SOL    HW225227   3.708   1.254   0.377 -1.8013 -1.7326 -0.3023
41074SOL     OW25228   6.848   1.142   9.962  0.0970  0.3957  0.4170
41074SOL    HW125229   6.812   1.216   9.913 -1.4409 -0.9364 -0.5915
41074SOL    HW225230   6.848   1.070   9.899 -1.6789 -1.3256  2.2257
41075SOL     OW25231  10.415   9.799   8.911  0.0584  0.4723  0.5395
41075SOL    HW125232  10.465   9.869   8.953 -2.2738  1.5384  1.7306
41075SOL    HW225233  10.324   9.815   8.938 -0.8587 -1.7484 -0.9514
41076SOL     OW25234   0.673   7.911   7.569 -0.2859 -0.4344 -0.2857
41076SOL    HW125235   0.756   7.952   7.592 -0.3509 -0.1632 -0.5227
41076SOL    HW225236   0.619   7.918   7.648 -0.9195  1.5112 -0.8216
41077SOL     OW25237   2.485   8.175   0.662  0.3887  0.3447 -0.3256
41077SOL    HW125238   2.395   8.146   0.674  0.3299  1.0092  1.0142
41077SOL    HW225239   2.523   8.110   0.602 -0.1638 -1.6212  1.3465
41078SOL     OW25240   0.475  11.034   8.431 -0.0670 -0.0565  0.0155
41078SOL    HW125241   0.495  11.031   8.524 -0.0958 -1.2412 -0.0105
41078SOL    HW225242   0.550  11.078   8.392 -0.0971  0.5295  0.5997
41079SOL     OW25243   1.028  10.064   1.279 -0.1322  1.0669 -0.2080
41079SOL    HW125244   1.087  10.049   1.206 -0.6262  1.3016 -0.6634
41079SOL    HW225245   0.976   9.983   1.285 -0.9197  1.5020 -0.9056
41080SOL     OW25246   4.980   4.734   5.568 -0.5633  0.3273 -0.3683
41080SOL    HW125247   5.046   4.799   5.544 -0.2642  0.0614 -0.2838
41080SOL    HW225248   4.990   4.723   5.662 -1.1895  0.7795 -0.2458
41081SOL     OW25249   9.484  10.992   9.677  0.4648  0.0215 -0.5788
41081SOL    HW125250   9.477  10.897   9.680  1.5851 -0.0782 -0.5819
41081SOL    HW225251   9.461  11.021   9.765  0.0055 -0.2395 -0.6116
41082SOL     OW25252   0.362   6.066   2.949 -0.2611 -0.3974  0.3445
41082SOL    HW125253   0.411   5.995   2.907 -0.3891 -0.1627 -0.2210
41082SOL    HW225254   0.350   6.038   3.040  0.1732 -0.8434  0.2654
41083SOL     OW25255   6.007   1.388   9.448 -0.2651  0.0821  0.0379
41083SOL    HW125256   5.997   1.296   9.471 -2.1895 -0.2113 -1.7130
41083SOL    HW225257   5.918   1.422   9.445  0.2133  1.3472 -1.7666
41084SOL     OW25258   8.369   7.878   1.060  0.4059  0.0064 -0.2438
41084SOL    HW125259   8.445   7.929   1.087 -0.3964  1.1788 -0.1129
41084SOL    HW225260   8.365   7.806   1.123  1.3985 -0.0765 -0.2564
41085SOL     OW25261   0.077   8.741   3.938  0.0313 -0.0547 -0.2956
41085SOL    HW125262   0.001   8.684   3.946  1.5894 -2.0866  0.9948
41085SOL    HW225263   0.145   8.698   3.990  1.3359  2.9847  0.7376
41086SOL     OW25264   6.905   9.642   4.183  0.3104 -0.1588  0.1175
41086SOL    HW125265   6.837   9.656   4.117  0.6159  0.4768 -0.0733
41086SOL    HW225266   6.937   9.553   4.168  0.1697 -0.1228 -0.3972
41087SOL     OW25267  10.535   9.272   7.037  0.1563  0.6725 -0.1085
41087SOL    HW125268  10.449   9.314   7.047  0.6712  1.6120  0.5314
41087SOL    HW225269  10.592   9.342   7.007  1.0589  0.4871  1.0931
41088SOL     OW25270   5.513   6.395   7.813 -0.1736  0.1312 -0.1458
41088SOL    HW125271   5.490   6.375   7.904  0.6999  0.2919  0.1237
41088SOL    HW225272   5.481   6.320   7.763  0.0981 -0.3594  0.4042
41089SOL     OW25273   3.246   5.633   1.221 -0.1954  0.1973 -0.0016
41089SOL    HW125274   3.326   5.609   1.268  0.6468  1.8502 -0.4876
41089SOL    HW225275   3.186   5.662   1.289  0.7487  1.8573  0.1815
41090SOL     OW25276   8.646  10.362   4.475 -0.0201  0.1894 -0.0751
41090SOL    HW125277   8.740  10.363   4.454 -0.4872  0.6631 -2.4299
41090SOL    HW225278   8.604  10.400   4.398 -2.6036 -4.8723 -1.6515
41091SOL     OW25279   8.187   0.973   8.452 -0.5179  0.5352 -0.5654
41091SOL    HW125280   8.118   1.005   8.511 -1.0726  0.3743 -1.1200
41091SOL    HW225281   8.190   0.879   8.469 -0.6815  0.4881 -0.7951
41092SOL     OW25282   6.974   8.152   6.782 -0.0800  0.6085 -0.0967
41092SOL    HW125283   6.999   8.081   6.722  0.2935  1.0499 -0.4761
41092SOL    HW225284   6.879   8.147   6.787 -0.0633  0.1333 -0.1896
41093SOL     OW25285   7.907   5.357   9.120 -0.2048  0.1810 -0.0877
41093SOL    HW125286   7.905   5.356   9.025 -0.2275 -1.0815 -0.0986
41093SOL    HW225287   8.000   5.365   9.142  0.1916 -2.6309 -0.2993
41094SOL     OW25288   8.725   2.760   7.537  0.9202  0.1895 -0.7724
41094SOL    HW125289   8.632   2.779   7.523  0.2387 -2.6261 -0.5235
41094SOL    HW225290   8.753   2.824   7.603 -1.2730 -0.0088  0.4174
41095SOL     OW25291   4.922   9.974  10.641  0.1445 -0.2674  0.2397
41095SOL    HW125292   4.875   9.952  10.561 -1.1161  2.5659  0.0996
41095SOL    HW225293   4.854  10.003  10.702  1.3495  0.2367  1.3872
41096SOL     OW25294   3.091   3.051   2.806  0.4229  0.1120 -0.0691
41096SOL    HW125295   3.053   3.108   2.739 -0.9950 -1.3651 -0.5711
41096SOL    HW225296   3.031   3.059   2.881  0.4859 -0.3619  0.0302
41097SOL     OW25297   2.120   7.698   8.668  0.6181  0.5938 -0.4816
41097SOL    HW125298   2.149   7.687   8.578  0.9315 -0.7980 -0.2377
41097SOL    HW225299   2.167   7.775   8.700 -0.0633  1.5565 -1.7125
41098SOL     OW25300   1.886   1.875   8.923 -0.2317 -0.1880  0.1788
41098SOL    HW125301   1.969   1.851   8.881 -1.1740 -2.4015 -0.6106
41098SOL    HW225302   1.897   1.851   9.014  1.1359  2.7953  0.9118
41099SOL     OW25303   1.830   4.249   0.128  0.0153  0.0386 -0.1924
41099SOL    HW125304   1.819   4.320   0.064 -1.4157  0.6043  0.6572
41099SOL    HW225305   1.743   4.235   0.164  1.1975  1.8422  3.8682
41100SOL     OW25306   2.410   0.092   0.593  0.0329  0.4485  0.4656
41100SOL    HW125307   2.468   0.043   0.651 -0.0221  0.8215  0.8473
41100SOL    HW225308   2.466   0.121   0.521  0.3616  0.9481  0.9162
41101SOL     OW25309   9.692   6.208  10.021 -0.0276 -0.2837 -0.1603
41101SOL    HW125310   9.618   6.149  10.010  0.3369 -0.7583 -0.0601
41101SOL    HW225311   9.764   6.152  10.049  0.0885  0.3257  0.8175
41102SOL     OW25312   2.443  10.686   6.620  0.6994 -0.3072  0.0270
41102SOL    HW125313   2.495  10.764   6.637  0.9896 -0.7075  1.0375
41102SOL    HW225314   2.371  10.716   6.564  0.9611  0.6218  0.1829
41103SOL     OW25315   4.873   6.559   7.903  0.2605 -0.6219 -0.1326
41103SOL    HW125316   4.828   6.571   7.819  0.1778 -2.7455 -0.4425
41103SOL    HW225317   4.814   6.597   7.967 -1.0338 -1.5160 -0.7545
41104SOL     OW25318   0.648  10.254   9.848 -0.2251 -0.0245 -0.0763
41104SOL    HW125319   0.723  10.291   9.894 -0.9037 -0.1454  1.1812
41104SOL    HW225320   0.633  10.312   9.774  0.0094  1.0232  0.6815
41105SOL     OW25321   4.658   4.439   9.173  0.1751  0.1548 -0.2663
41105SOL    HW125322   4.656   4.478   9.261  1.8204  0.1100 -0.1836
41105SOL    HW225323   4.632   4.511   9.115  0.5321  0.6084  0.1259
41106SOL     OW25324   4.026   7.656   9.538 -0.2554 -0.1361  0.0419
41106SOL    HW125325   3.989   7.570   9.557  0.4131 -0.5681 -0.5428
41106SOL    HW225326   3.961   7.697   9.480  0.1666 -0.8982 -1.0003
41107SOL     OW25327   0.315   3.606   8.675 -0.1965 -0.1140  0.5774
41107SOL    HW125328   0.398   3.563   8.652  0.4774  1.3913  0.0721
41107SOL    HW225329   0.312   3.604   8.770 -1.0629 -2.8335  0.5807
41108SOL     OW25330   7.651   8.101   2.320  0.5488  0.0314  0.0420
41108SOL    HW125331   7.613   8.152   2.249  0.4065  0.6654  0.5582
41108SOL    HW225332   7.615   8.013   2.308  2.1966 -0.4374 -1.9055
41109SOL     OW25333   5.887   6.195  10.343  0.8698  0.2508 -0.2016
41109SOL    HW125334   5.870   6.121  10.284  2.4173 -1.0832  0.9412
41109SOL    HW225335   5.868   6.272  10.289 -1.2753 -0.9255 -1.2887
41110SOL     OW25336   0.559   8.496  10.918 -0.5283  0.4552 -0.1815
41110SOL    HW125337   0.532   8.588  10.917  1.1853  1.0031 -2.2591
41110SOL    HW225338   0.478   8.448  10.901 -1.2916  1.6182  0.0451
41111SOL     OW25339  10.034   9.102   2.441 -0.1717 -0.4596 -0.1081
41111SOL    HW125340   9.948   9.092   2.481 -1.0050  1.8646 -1.1106
41111SOL    HW225341  10.020   9.081   2.348  0.5092 -0.7126 -0.1621
41112SOL     OW25342  10.134   9.222   4.310 -0.2397 -0.7062 -0.1005
41112SOL    HW125343  10.152   9.199   4.218  2.4978  1.8464 -0.3586
41112SOL    HW225344  10.083   9.303   4.305  0.7963  0.0137  0.5624
41113SOL     OW25345   6.405   7.027  11.036  0.3907  0.4658  0.8359
41113SOL    HW125346   6.383   6.934  11.034 -0.0889  0.5873  0.1596
41113SOL    HW225347   6.376   7.057  11.123  0.0029  0.1124  0.8313
41114SOL     OW25348   1.426   6.328   3.977 -0.7589  0.2511 -0.0001
41114SOL    HW125349   1.513   6.311   4.013 -0.8331 -1.1649 -0.4047
41114SOL    HW225350   1.443   6.373   3.894 -0.2915 -1.2642 -0.7811
41115SOL     OW25351   5.895   1.647   7.748 -0.1654 -0.3856  0.4934
41115SOL    HW125352   5.838   1.596   7.805 -1.4603  0.7339  0.2482
41115SOL    HW225353   5.886   1.605   7.662  0.3046 -0.9066  0.6884
41116SOL     OW25354   6.349   4.827   0.002  0.0057 -0.1748 -0.1901
41116SOL    HW125355   6.311   4.900   0.051 -0.1079 -1.2080  1.2965
41116SOL    HW225356   6.322   4.844  -0.089 -0.9805  1.0196  0.2873
41117SOL     OW25357   2.674  11.099   0.674  0.0646 -0.1749 -0.3371
41117SOL    HW125358   2.632  11.030   0.622  0.6575 -0.2618 -0.7063
41117SOL    HW225359   2.746  11.054   0.719  0.0548  0.0706 -0.0770
41118SOL     OW25360   6.491   1.842   2.117 -0.5412  0.1387  0.7097
41118SOL    HW125361   6.448   1.779   2.061 -1.1422  1.1309  0.0220
41118SOL    HW225362   6.473   1.927   2.077 -1.5142  0.9540  2.7068
41119SOL     OW25363   0.060   2.117   4.886  0.1875 -0.0701  0.3158
41119SOL    HW125364   0.084   2.041   4.940 -0.5954 -0.6274 -0.1003
41119SOL    HW225365  -0.004   2.164   4.939 -1.1673 -1.0357 -0.4088
41120SOL     OW25366   1.836   4.701   3.165  0.3994 -1.1134 -0.5815
41120SOL    HW125367   1.873   4.693   3.253  1.1549 -0.8660 -0.8668
41120SOL    HW225368   1.754   4.748   3.177  0.8236 -0.4855 -0.0813
41121SOL     OW25369   0.039   7.252   1.192  0.0944 -0.1646  1.0400
41121SOL    HW125370   0.079   7.339   1.186 -1.0561  0.3104 -0.2368
41121SOL    HW225371  -0.030   7.261   1.258 -0.6571  0.1670  0.2201
41122SOL     OW25372   8.100   6.411   1.224 -0.2634 -0.0805  0.0843
41122SOL    HW125373   8.022   6.450   1.264 -0.3832  0.7158 -0.8858
41122SOL    HW225374   8.067   6.360   1.150  0.1518  0.6180 -0.6016
41123SOL     OW25375   0.283   6.083   2.081  0.5213 -0.2015  0.1227
41123SOL    HW125376   0.350   6.031   2.125  0.8920  0.1294 -0.0429
41123SOL    HW225377   0.312   6.088   1.991 -0.0444 -0.5612 -0.0869
41124SOL     OW25378   8.905   8.827   8.310  0.1103 -0.3484  0.2322
41124SOL    HW125379   8.840   8.759   8.323 -0.0321 -0.0578  1.1348
41124SOL    HW225380   8.867   8.905   8.351  1.3818 -0.3886  1.5513
41125SOL     OW25381   5.587   8.545   2.484  0.0221 -0.7265 -0.2348
41125SOL    HW125382   5.652   8.607   2.452  1.1501 -1.7967 -0.1163
41125SOL    HW225383   5.526   8.534   2.411 -2.1135  2.8815  0.7995
41126SOL     OW25384   8.227   7.898   2.176 -0.1750  0.0542  0.3396
41126SOL    HW125385   8.188   7.956   2.110  2.4077  0.5405 -0.8637
41126SOL    HW225386   8.215   7.945   2.259 -2.4518 -0.0413  0.1429
41127SOL     OW25387  10.983  10.792   6.653 -0.1141  0.2317  0.8625
41127SOL    HW125388  10.978  10.700   6.679  1.2404 -0.4929 -1.1837
41127SOL    HW225389  10.895  10.812   6.620 -0.7886  0.1052  2.4787
41128SOL     OW25390   0.548   3.551   4.476  0.4801  0.0787 -0.3627
41128SOL    HW125391   0.635   3.513   4.480  0.3059 -0.3078 -0.1600
41128SOL    HW225392   0.561   3.644   4.490  0.6138 -0.2909  2.4519
41129SOL     OW25393   8.335   3.603   8.464 -0.4909 -0.7349  0.0801
41129SOL    HW125394   8.398   3.552   8.414  0.0223 -1.8451  1.7597
41129SOL    HW225395   8.384   3.679   8.495 -0.6191 -0.4141 -0.4887
41130SOL     OW25396   0.325   7.754   5.196  0.3467 -0.2510 -0.0205
41130SOL    HW125397   0.368   7.671   5.179 -2.1006 -0.9950 -3.8087
41130SOL    HW225398   0.395   7.819   5.187  1.5055 -1.6318 -1.8096
41131SOL     OW25399   0.795   7.223   5.639 -0.3609  0.2594  0.2284
41131SOL    HW125400   0.876   7.211   5.688  0.3805  2.0738 -0.4826
41131SOL    HW225401   0.736   7.269   5.699  0.4779  2.3012 -0.4198
41132SOL     OW25402   5.055  10.787   7.874 -0.6303  0.3349  0.3943
41132SOL    HW125403   4.989  10.840   7.830 -2.1414 -1.4459  0.4216
41132SOL    HW225404   5.022  10.777   7.963 -0.6091 -1.0208  0.2634
41133SOL     OW25405   0.364  10.117   7.783  0.1568 -0.3022 -0.2687
41133SOL    HW125406   0.379  10.025   7.805 -2.8418 -1.1033 -1.0791
41133SOL    HW225407   0.378  10.122   7.689  0.0258 -0.0005 -0.2727
41134SOL     OW25408   0.504  11.033  11.083  0.5535  0.2598 -0.0158
41134SOL    HW125409   0.593  11.005  11.061  0.5217  0.2585 -0.1416
41134SOL    HW225410   0.467  11.064  11.000  0.3609  0.0556 -0.0063
41135SOL     OW25411   3.775   9.083   9.125  0.2195  0.2378  0.5359
41135SOL    HW125412   3.730   9.123   9.050  1.1528  1.3860  0.5509
41135SOL    HW225413   3.710   9.025   9.164 -0.5838  0.3350 -0.6146
41136SOL     OW25414  10.780   4.068   5.065  0.4496 -0.0025  0.1282
41136SOL    HW125415  10.854   4.103   5.016  1.1200 -0.8784  0.4754
41136SOL    HW225416  10.781   4.115   5.149  1.6170 -1.1038  0.7717
41137SOL     OW25417   9.726   9.258   3.201 -0.3332 -0.0601  0.3190
41137SOL    HW125418   9.700   9.277   3.110  1.6817 -1.2089 -0.5729
41137SOL    HW225419   9.821   9.267   3.200 -0.1228 -1.6779  1.9201
41138SOL     OW25420   4.675  10.486   2.493 -0.3265  0.0477  0.0185
41138SOL    HW125421   4.644  10.576   2.505 -0.3953 -0.1894  1.9682
41138SOL    HW225422   4.673  10.448   2.581  0.8655 -1.4901 -0.5739
41139SOL     OW25423   8.434   8.667   1.451 -0.1232  0.1530 -0.5943
41139SOL    HW125424   8.522   8.687   1.419 -0.5404  2.4928 -0.4043
41139SOL    HW225425   8.385   8.644   1.372  0.2512  0.4683 -0.9221
41140SOL     OW25426   8.150   3.045   5.066  0.4222  0.5244 -0.2870
41140SOL    HW125427   8.114   3.124   5.105 -0.6698  0.0441 -0.2619
41140SOL    HW225428   8.179   2.992   5.140  2.2026  1.3586 -0.3564
41141SOL     OW25429   6.180  10.184  10.191  0.0510 -0.4494  0.0748
41141SOL    HW125430   6.146  10.144  10.271 -1.3081  1.3332  0.4487
41141SOL    HW225431   6.274  10.187  10.204 -0.0660 -1.0701  1.1838
41142SOL     OW25432   7.828  10.899   6.018  0.3129  0.5111  0.6523
41142SOL    HW125433   7.750  10.852   6.047 -0.8749  1.3732 -0.9884
41142SOL    HW225434   7.795  10.985   5.990  2.2200  1.8880  2.3463
41143SOL     OW25435   2.446  10.756  10.667  0.2225 -0.1815 -0.3177
41143SOL    HW125436   2.514  10.726  10.728 -0.1772 -0.2493  0.1076
41143SOL    HW225437   2.364  10.744  10.716 -0.3417 -2.3126 -1.6355
41144SOL     OW25438   7.077   6.728  10.256  0.0046  0.1888  0.1775
41144SOL    HW125439   7.070   6.633  10.244 -0.1223  0.3494 -1.2170
41144SOL    HW225440   7.163   6.750  10.221 -0.6354  0.7801 -1.1215
41145SOL     OW25441   2.725   3.875   7.829  0.0468 -0.2851  0.2620
41145SOL    HW125442   2.723   3.951   7.770  1.4429 -0.0559  0.4795
41145SOL    HW225443   2.748   3.801   7.772 -1.5975 -0.6331 -0.0040
41146SOL     OW25444   3.455  10.834   0.336  0.1772 -0.1399 -0.6382
41146SOL    HW125445   3.471  10.843   0.242 -1.4427  0.4161 -0.8993
41146SOL    HW225446   3.360  10.826   0.343  0.1444  1.1395  1.0270
41147SOL     OW25447   3.140   7.297   0.665 -0.4109  0.4346 -0.4189
41147SOL    HW125448   3.227   7.334   0.673 -0.0627 -0.4042 -0.2216
41147SOL    HW225449   3.091   7.361   0.613 -0.2357  1.8124  1.0301
41148SOL     OW25450   0.260   2.080   0.840  0.5559  0.2078  0.3519
41148SOL    HW125451   0.257   2.168   0.803 -0.4173  0.8807  1.8991
41148SOL    HW225452   0.261   2.094   0.935 -1.2268 -1.4169  0.6886
41149SOL     OW25453  10.922   9.915   2.330  0.6268  0.1665 -0.1935
41149SOL    HW125454  10.831   9.945   2.333  0.3018 -0.6843 -1.0635
41149SOL    HW225455  10.959   9.941   2.414 -0.8242 -0.7660  0.7579
41150SOL     OW25456   6.621   8.571   7.308  0.5823  0.1789 -0.5244
41150SOL    HW125457   6.603   8.507   7.377  0.3272  0.9639  0.1376
41150SOL    HW225458   6.538   8.583   7.263  0.4875  0.5081 -0.2591
41151SOL     OW25459   6.353   5.240   3.791 -0.2055 -0.9499 -0.1504
41151SOL    HW125460   6.299   5.297   3.846  2.2398  1.0019  0.4214
41151SOL    HW225461   6.325   5.259   3.702  1.1708  2.0943 -0.0657
41152SOL     OW25462   4.436   3.058   5.781 -0.2296  0.0258  0.2980
41152SOL    HW125463   4.440   3.004   5.859  1.6291 -2.5660 -1.4349
41152SOL    HW225464   4.491   3.134   5.801 -1.8549  0.7445  2.3292
41153SOL     OW25465   5.712   3.662   8.477  0.3539 -0.5224  0.5074
41153SOL    HW125466   5.735   3.691   8.389 -0.8127 -0.2052  0.2892
41153SOL    HW225467   5.730   3.738   8.533 -1.6466  0.3113  0.0962
41154SOL     OW25468   7.492   6.702   3.231 -0.6388  0.3860 -0.1859
41154SOL    HW125469   7.574   6.709   3.182 -0.8938 -1.1114 -0.8901
41154SOL    HW225470   7.467   6.793   3.249  0.9655  0.8840 -0.2783
41155SOL     OW25471   7.284   7.575   9.697  0.1337  0.6393  0.3615
41155SOL    HW125472   7.358   7.568   9.757  1.1093 -3.0065 -1.0115
41155SOL    HW225473   7.322   7.558   9.611 -1.8969  1.5145 -0.7668
41156SOL     OW25474   8.461   4.132   2.266  0.5378 -0.6877  0.0406
41156SOL    HW125475   8.411   4.055   2.241 -0.9981  0.3344 -0.1662
41156SOL    HW225476   8.414   4.205   2.227  2.1270  0.3528 -0.0406
41157SOL     OW25477   5.182   7.347   2.442  0.0964 -0.1685  0.1822
41157SOL    HW125478   5.246   7.401   2.397 -0.6603  0.6689  0.0817
41157SOL    HW225479   5.205   7.257   2.419  1.5640  0.0811  0.6052
41158SOL     OW25480   7.737   5.175   9.260 -1.1399 -0.3856 -0.0457
41158SOL    HW125481   7.792   5.163   9.338 -0.1901 -1.1629 -0.8149
41158SOL    HW225482   7.781   5.243   9.209 -0.8719 -1.0215 -0.6728
41159SOL     OW25483   8.863   9.262  10.165 -0.3919  0.3812  0.4720
41159SOL    HW125484   8.829   9.174  10.155 -0.3882  0.1191  2.4241
41159SOL    HW225485   8.785   9.318  10.172 -0.4015  0.6396 -1.2432
41160SOL     OW25486   0.403   5.994   1.346 -0.2572  0.4248 -0.3850
41160SOL    HW125487   0.481   5.954   1.384 -0.2031 -0.0456 -0.9774
41160SOL    HW225488   0.332   5.934   1.368 -0.3666  0.5806 -0.3078
41161SOL     OW25489   6.138   6.118   0.839 -0.3977 -0.6376 -0.4180
41161SOL    HW125490   6.153   6.185   0.905  0.8710 -0.6293 -0.7060
41161SOL    HW225491   6.116   6.166   0.760  0.3185 -0.5573 -0.5738
41162SOL     OW25492   2.148   5.771   6.901 -0.0852  0.0799 -0.0612
41162SOL    HW125493   2.054   5.771   6.919 -0.3431 -0.9644 -1.2848
41162SOL    HW225494   2.155   5.803   6.811  0.6119 -1.0429 -0.4288
41163SOL     OW25495   9.152   8.933   2.862  0.0531 -0.1812  0.7136
41163SOL    HW125496   9.159   8.838   2.859  0.3026 -0.1858  1.2616
41163SOL    HW225497   9.101   8.956   2.784  0.4859 -0.7129  0.2661
41164SOL     OW25498   8.701   9.163   1.560 -0.8589  0.5383 -0.1197
41164SOL    HW125499   8.606   9.159   1.570 -0.8602  0.0388 -0.3438
41164SOL    HW225500   8.720   9.103   1.489 -0.4604  1.2881 -0.6665
41165SOL     OW25501   0.077   4.904   8.231 -0.2270 -0.0090  0.3154
41165SOL    HW125502   0.126   4.985   8.219  0.4603 -0.5998 -0.9650
41165SOL    HW225503  -0.000   4.914   8.175 -0.0283 -0.3350 -0.0162
41166SOL     OW25504   1.187   7.731   7.923  0.0301 -0.3136  0.1274
41166SOL    HW125505   1.264   7.785   7.902 -0.4332  0.3731  0.1528
41166SOL    HW225506   1.182   7.733   8.019  0.7091 -1.4173  0.2103
41167SOL     OW25507  10.803   5.238  10.866  0.2195 -0.0126  0.0831
41167SOL    HW125508  10.801   5.144  10.882  1.1546  0.1703  1.3568
41167SOL    HW225509  10.866   5.273  10.929 -1.3043  1.6905  0.7587
41168SOL     OW25510   1.196   6.933   2.086  0.1526 -0.0216  0.6801
41168SOL    HW125511   1.286   6.967   2.087  0.5807 -1.1139  1.0288
41168SOL    HW225512   1.184   6.901   1.997  0.0657  0.2227  0.6030
41169SOL     OW25513   1.461   5.797  10.873  0.4060 -0.3828 -0.3390
41169SOL    HW125514   1.484   5.824  10.784 -1.8882  1.2950 -0.5186
41169SOL    HW225515   1.503   5.861  10.929  1.0610 -0.8782 -0.2498
41170SOL     OW25516   6.423   2.983   5.829 -0.3216  0.2929  0.6091
41170SOL    HW125517   6.457   2.995   5.918  0.9072  0.3154  0.1508
41170SOL    HW225518   6.415   3.072   5.794 -0.1571  0.2447  0.4536
41171SOL     OW25519  10.733   8.838  10.769  0.5163 -0.4211  0.0267
41171SOL    HW125520  10.689   8.903  10.714  0.1134 -0.8351 -0.1450
41171SOL    HW225521  10.757   8.768  10.709 -2.6950 -2.3707  0.7627
41172SOL     OW25522   6.730   8.355   4.996  0.0748  0.0426  0.2223
41172SOL    HW125523   6.764   8.307   4.919  0.3119 -0.0692  0.3947
41172SOL    HW225524   6.710   8.286   5.060  1.2302  0.2136  0.7943
41173SOL     OW25525   1.442   9.811   9.149 -0.7082 -0.3219 -0.1794
41173SOL    HW125526   1.451   9.884   9.210  1.7305  0.4262 -1.3297
41173SOL    HW225527   1.347   9.794   9.147 -1.2025  1.7834  1.2495
41174SOL     OW25528   8.705  10.641   0.593  0.3541 -0.3243 -0.1824
41174SOL    HW125529   8.622  10.679   0.622  1.2752 -0.0283  2.2733
41174SOL    HW225530   8.749  10.713   0.548 -0.4826 -0.3302 -1.0322
41175SOL     OW25531   6.652   3.889   7.150  0.0023  0.2321  0.0053
41175SOL    HW125532   6.686   3.905   7.238 -1.8144 -1.1795  1.0417
41175SOL    HW225533   6.722   3.917   7.091  1.0432  1.7528  1.8630
41176SOL     OW25534   0.052   7.387   0.052  0.3681  0.6120 -0.5538
41176SOL    HW125535   0.079   7.395  -0.039  1.0534  1.3294 -0.2970
41176SOL    HW225536   0.133   7.392   0.102 -0.0632  0.9782  0.1327
41177SOL     OW25537  10.989   7.824   1.219  0.3041 -0.4213 -0.0021
41177SOL    HW125538  10.943   7.895   1.174 -2.0807 -1.5122  0.5480
41177SOL    HW225539  11.034   7.776   1.149  0.8835  0.8380 -0.5315
41178SOL     OW25540   8.820   1.731   2.804 -0.0410  0.1151  0.2008
41178SOL    HW125541   8.905   1.764   2.776 -0.3103 -0.0245 -0.8012
41178SOL    HW225542   8.761   1.749   2.731 -0.9128  0.3518  0.9466
41179SOL     OW25543   4.220   5.412   9.700  0.0400 -0.0441  0.5300
41179SOL    HW125544   4.148   5.474   9.692 -0.1445 -0.3876 -0.6574
41179SOL    HW225545   4.184   5.329   9.669  0.8452 -0.2927  0.2167
41180SOL     OW25546   1.287   5.202   7.907 -0.2208 -0.2163 -0.2957
41180SOL    HW125547   1.325   5.180   7.992  1.2739 -0.4028 -0.9881
41180SOL    HW225548   1.359   5.241   7.857 -1.2421  0.5143 -1.2616
41181SOL     OW25549   9.189   2.331   0.123  0.4274  0.0392  0.0410
41181SOL    HW125550   9.214   2.411   0.078  0.0535  0.3910  0.4452
41181SOL    HW225551   9.200   2.352   0.216  0.8301 -0.5493  0.1310
41182SOL     OW25552   8.551   6.583   3.080 -0.1257 -0.0246  0.1458
41182SOL    HW125553   8.645   6.594   3.066 -0.1322 -0.5870 -0.4012
41182SOL    HW225554   8.543   6.564   3.174  0.3992 -0.8304  0.0456
41183SOL     OW25555   6.058   8.245   4.735 -0.3748  0.0853 -0.1365
41183SOL    HW125556   6.045   8.188   4.658 -0.8038 -1.0824  0.7676
41183SOL    HW225557   6.117   8.313   4.704  0.4055 -1.0167 -1.2027
41184SOL     OW25558   5.861   0.308   1.350 -0.1522  0.0950 -0.0040
41184SOL    HW125559   5.771   0.283   1.372  0.5646 -1.7756  1.0035
41184SOL    HW225560   5.910   0.226   1.353  1.0607  0.5144 -3.6173
41185SOL     OW25561  10.604   5.632   3.851  0.3956 -0.3882  0.3154
41185SOL    HW125562  10.642   5.716   3.824  2.8765 -1.8387 -1.0929
41185SOL    HW225563  10.561   5.651   3.934  1.6148  2.0895  0.4863
41186SOL     OW25564   2.474   8.438   0.806 -0.0868  0.2280  0.2330
41186SOL    HW125565   2.405   8.464   0.745 -0.1454  0.2957  0.3287
41186SOL    HW225566   2.493   8.347   0.783  0.4839  0.5125 -0.4515
41187SOL     OW25567   8.385   2.458  10.563 -0.0861 -0.1018 -0.1501
41187SOL    HW125568   8.357   2.550  10.568 -1.8886 -0.6445  0.5455
41187SOL    HW225569   8.407   2.445  10.471 -1.0558  0.6901 -0.5126
41188SOL     OW25570   5.027  10.238   9.240 -0.2116  0.3887  0.1541
41188SOL    HW125571   5.066  10.156   9.268  0.6129  0.5899 -0.3671
41188SOL    HW225572   5.013  10.228   9.145 -0.8740  0.5497  0.2231
41189SOL     OW25573   6.152   7.475   2.316  0.9337 -0.6478  0.0675
41189SOL    HW125574   6.097   7.533   2.368 -0.1097  0.3992 -2.1122
41189SOL    HW225575   6.236   7.520   2.310  1.6999 -1.6281  2.2719
41190SOL     OW25576   5.533   9.159   0.008  0.7118 -0.3927  0.2657
41190SOL    HW125577   5.617   9.160  -0.038  0.6338 -0.5430  0.1187
41190SOL    HW225578   5.550   9.205   0.090  0.6554  0.6126 -0.2675
41191SOL     OW25579   4.010   3.755   2.504  0.3861  0.4970  0.9040
41191SOL    HW125580   3.932   3.742   2.450  0.9181 -1.1694  0.4934
41191SOL    HW225581   4.020   3.851   2.508 -1.2938  0.7313  0.4456
41192SOL     OW25582   8.517   8.983   2.165  0.2751  0.0912 -0.4382
41192SOL    HW125583   8.580   9.047   2.197  0.0042  0.4109 -0.5349
41192SOL    HW225584   8.524   8.988   2.069  0.4167 -0.1895 -0.4435
41193SOL     OW25585   8.773   8.812   2.047  0.0410  0.0526 -0.0425
41193SOL    HW125586   8.722   8.875   1.997 -0.0311 -0.7076 -0.9608
41193SOL    HW225587   8.710   8.771   2.107  0.2912  1.5536  1.3174
41194SOL     OW25588   2.231   4.913   5.879  0.3610 -0.2822  0.0374
41194SOL    HW125589   2.181   4.978   5.929 -0.0659 -0.4122 -0.2169
41194SOL    HW225590   2.315   4.955   5.862  0.0496  0.2426 -0.2147
41195SOL     OW25591   2.383  10.489  10.929 -0.1946 -0.5709 -0.5394
41195SOL    HW125592   2.377  10.397  10.904 -0.2350 -1.4733  2.4277
41195SOL    HW225593   2.474  10.513  10.909  0.6369 -2.1230  1.1147
41196SOL     OW25594   9.618   4.938   6.346 -0.0112  0.2169  0.0759
41196SOL    HW125595   9.588   5.026   6.323 -0.5169  0.2824  0.9435
41196SOL    HW225596   9.600   4.885   6.268 -1.7676  0.4048  0.3131
41197SOL     OW25597   1.553   7.129   3.738 -0.3778  0.1097 -0.0660
41197SOL    HW125598   1.593   7.211   3.764 -1.2036 -0.3751  3.1195
41197SOL    HW225599   1.625   7.066   3.738 -0.4882 -0.1617  2.8032
41198SOL     OW25600   8.373   4.295   5.527 -0.2038 -0.4209 -0.0540
41198SOL    HW125601   8.468   4.291   5.527 -0.1314  0.5832  1.3609
41198SOL    HW225602   8.345   4.211   5.492  1.1905 -0.4683 -1.1348
41199SOL     OW25603   1.776   4.310   4.658  0.4390 -0.4115  0.0107
41199SOL    HW125604   1.832   4.252   4.709  0.5471 -1.2167 -0.9859
41199SOL    HW225605   1.734   4.252   4.594 -2.4269 -0.0669  1.4228
41200SOL     OW25606   7.135   6.705   0.229 -0.1602  0.0700  0.6905
41200SOL    HW125607   7.071   6.763   0.271 -0.5847 -0.2476  0.4925
41200SOL    HW225608   7.199   6.764   0.190 -0.6536  0.4130  0.3855
41201SOL     OW25609   6.254   9.487   9.325 -0.1212  0.0764  0.2897
41201SOL    HW125610   6.348   9.493   9.309 -0.1026  3.3792  0.8745
41201SOL    HW225611   6.220   9.433   9.254  2.1957 -1.3372  0.1765
41202SOL     OW25612   8.613   7.035   5.408 -0.0182  0.4132 -0.8140
41202SOL    HW125613   8.569   7.093   5.346 -0.0089 -0.0647 -1.2767
41202SOL    HW225614   8.659   7.094   5.468  1.3910  0.8851 -2.2890
41203SOL     OW25615   7.727  10.552   9.523 -0.2961 -0.1687  0.6940
41203SOL    HW125616   7.650  10.605   9.540 -0.8637  0.0174 -1.9524
41203SOL    HW225617   7.699  10.462   9.540 -0.3561  0.0795  1.9655
41204SOL     OW25618   9.069   7.724   1.448 -0.5807 -0.0263  0.2350
41204SOL    HW125619   9.016   7.651   1.417 -0.0310 -0.3200 -0.0130
41204SOL    HW225620   9.159   7.697   1.433 -0.3634  0.5766  0.4242
41205SOL     OW25621   1.332   9.036   4.244  0.2734 -0.0827  0.4386
41205SOL    HW125622   1.260   9.018   4.305  1.1483  0.9718  1.8552
41205SOL    HW225623   1.357   8.950   4.210 -0.3141 -0.7008  1.5095
41206SOL     OW25624   2.263   7.092   7.258 -0.1285  0.4914  0.7548
41206SOL    HW125625   2.296   7.118   7.344 -0.2719  1.1618  0.6150
41206SOL    HW225626   2.168   7.103   7.265 -0.0884  1.1715  0.3146
41207SOL     OW25627   9.006   2.225   9.072 -0.2459 -0.1692  0.9163
41207SOL    HW125628   9.005   2.159   9.003  2.8746 -2.4003  2.7187
41207SOL    HW225629   8.919   2.221   9.111 -1.4232 -0.2590 -1.5690
41208SOL     OW25630   8.408   4.980   1.110  0.1215  0.5832 -0.2114
41208SOL    HW125631   8.335   4.981   1.049 -0.2714  1.1888  0.2563
41208SOL    HW225632   8.380   4.919   1.179  0.5529 -0.0815 -0.6150
41209SOL     OW25633   6.972   7.024  10.622  0.0700 -0.6742 -0.3502
41209SOL    HW125634   6.958   7.080  10.699 -0.5860 -3.2277  1.5085
41209SOL    HW225635   7.066   7.005  10.624  0.2286  0.0083 -0.7782
41210SOL     OW25636   9.573   5.919   4.776 -0.3768  0.3661  0.1240
41210SOL    HW125637   9.627   5.967   4.713  0.3912  0.6392  0.9699
41210SOL    HW225638   9.541   5.843   4.728 -1.2686  1.4778 -1.1318
41211SOL     OW25639   8.249   4.502   8.045  0.0484  0.5162 -0.6615
41211SOL    HW125640   8.200   4.531   8.122  0.4696 -0.0830 -0.1572
41211SOL    HW225641   8.317   4.445   8.080  0.4555  0.5037 -1.4530
41212SOL     OW25642   7.694   6.687   1.261  0.9005 -0.4412 -0.6512
41212SOL    HW125643   7.766   6.741   1.293 -0.2912 -0.1551  1.7188
41212SOL    HW225644   7.639   6.746   1.211 -0.2405  0.5671  1.6774
41213SOL     OW25645   0.148   8.997   1.491 -0.3205 -0.5934 -0.1643
41213SOL    HW125646   0.144   9.005   1.586  0.6706  0.7747 -0.1933
41213SOL    HW225647   0.057   8.992   1.462 -0.6882  0.3194  0.7788
41214SOL     OW25648   0.810   3.829   0.793  0.2191  0.2273 -0.3512
41214SOL    HW125649   0.845   3.748   0.829  2.1587  1.0493 -0.2287
41214SOL    HW225650   0.778   3.878   0.869  1.0209  0.4538 -0.1466
41215SOL     OW25651   7.147   6.308   2.526 -0.2607 -0.0593  0.2626
41215SOL    HW125652   7.194   6.359   2.592  1.7904 -2.4241  0.8165
41215SOL    HW225653   7.055   6.328   2.540  0.3758  2.7230  0.9876
41216SOL     OW25654   4.093   8.816   6.531  0.0083 -0.2434  0.2698
41216SOL    HW125655   4.094   8.814   6.435 -0.9529  1.1246  0.1987
41216SOL    HW225656   4.185   8.810   6.556  0.2863 -0.4477 -0.7440
41217SOL     OW25657   0.971   8.778   8.929  0.3106 -0.2986 -0.4253
41217SOL    HW125658   0.996   8.833   9.003  1.6636 -1.6141  0.1573
41217SOL    HW225659   1.043   8.789   8.866  0.5377 -1.2423 -0.3556
41218SOL     OW25660   4.567   7.543   2.667 -0.3123  0.3369 -0.3824
41218SOL    HW125661   4.616   7.505   2.739 -1.4373 -1.0179 -0.2963
41218SOL    HW225662   4.624   7.533   2.591  0.3531  0.6147  0.0693
41219SOL     OW25663   2.200   0.268   3.475 -0.2583 -0.0768  0.1844
41219SOL    HW125664   2.201   0.189   3.528 -1.8687  0.7494  1.5282
41219SOL    HW225665   2.227   0.337   3.535 -1.3064  0.7672 -0.2814
41220SOL     OW25666   7.887   5.102   3.767  0.4080  0.0939 -0.1406
41220SOL    HW125667   7.903   5.066   3.854 -2.4942  1.7658  1.2340
41220SOL    HW225668   7.925   5.190   3.769  0.1720  0.2070 -0.5032
41221SOL     OW25669  10.248   5.244   4.995 -0.0329 -0.2795 -0.0787
41221SOL    HW125670  10.282   5.317   4.943 -0.7794  1.2358  1.4584
41221SOL    HW225671  10.307   5.171   4.976 -0.1717  0.2541 -2.8342
41222SOL     OW25672   9.511   6.519   5.435 -0.1196 -0.7125 -0.1746
41222SOL    HW125673   9.519   6.539   5.342 -0.2083  0.6954  0.1052
41222SOL    HW225674   9.455   6.441   5.439 -1.1869 -0.0168 -1.2238
41223SOL     OW25675   5.009   6.233   5.030  0.7250 -0.0762  0.0792
41223SOL    HW125676   4.928   6.189   5.004  0.3324 -1.3527  3.0358
41223SOL    HW225677   5.078   6.184   4.985  0.0243 -1.0595  0.0465
41224SOL     OW25678   2.027   8.942  10.936  0.1867  0.1415 -0.2075
41224SOL    HW125679   2.026   8.923  10.843  1.2101 -0.8495 -0.0336
41224SOL    HW225680   1.938   8.972  10.956 -0.3137 -0.5699 -1.3059
41225SOL     OW25681   1.421   7.289   4.090  0.0059 -0.9849 -0.3913
41225SOL    HW125682   1.372   7.246   4.160 -0.9652 -0.6054 -0.8220
41225SOL    HW225683   1.387   7.251   4.010  0.2398 -0.5297 -0.7127
41226SOL     OW25684   9.650   9.979   5.991  0.4601  0.3385 -0.2058
41226SOL    HW125685   9.640   9.891   5.953  0.6475 -0.8401  2.2644
41226SOL    HW225686   9.733  10.011   5.956 -0.2332  0.1285 -2.1635
41227SOL     OW25687  10.305   3.701   3.498  0.0246  0.2258  0.2740
41227SOL    HW125688  10.354   3.624   3.525 -0.9187 -0.6657 -0.4169
41227SOL    HW225689  10.360   3.743   3.432  1.4064  1.2650  2.0255
41228SOL     OW25690   2.544   3.506   5.917 -0.5087 -0.4913 -0.1578
41228SOL    HW125691   2.586   3.585   5.949 -0.3684 -0.6951  0.1676
41228SOL    HW225692   2.455   3.533   5.895 -0.2462 -0.0851 -0.7330
41229SOL     OW25693   6.871   6.068   1.468  0.1764  0.3451 -0.0741
41229SOL    HW125694   6.947   6.011   1.457 -0.4496 -0.9067  1.6811
41229SOL    HW225695   6.796   6.008   1.469 -0.6329  1.3308  0.4496
41230SOL     OW25696   1.021   4.206   4.103  0.2009  0.1796 -0.1419
41230SOL    HW125697   1.027   4.280   4.163  0.9588 -0.6178  0.8031
41230SOL    HW225698   1.001   4.245   4.018 -0.8519  1.3354  0.6115
41231SOL     OW25699   1.741   3.899   5.696  0.1285  0.0247  0.3424
41231SOL    HW125700   1.675   3.954   5.652 -0.5815  0.0739  1.4469
41231SOL    HW225701   1.809   3.887   5.629  0.6503  2.7921  0.2508
41232SOL     OW25702   7.498   7.919   0.726  0.2388 -0.0952  0.5931
41232SOL    HW125703   7.425   7.861   0.704  0.1390  1.1258 -2.9206
41232SOL    HW225704   7.457   8.005   0.738  0.8529  0.1263  1.1557
41233SOL     OW25705  10.080   5.662   9.189  0.8306 -0.1992  0.1034
41233SOL    HW125706  10.019   5.597   9.154 -1.2620  0.9943  1.3317
41233SOL    HW225707  10.142   5.612   9.242 -0.4161 -1.2593  0.5927
41234SOL     OW25708   3.514   3.782   1.758  0.1372  0.1135 -0.7031
41234SOL    HW125709   3.486   3.874   1.756  0.0603  0.1025 -0.1164
41234SOL    HW225710   3.566   3.774   1.838 -1.6450 -0.8654  0.4217
41235SOL     OW25711   8.762  10.196   9.632  0.4209 -0.1924  0.3416
41235SOL    HW125712   8.769  10.290   9.615 -0.3733  0.0847  1.4528
41235SOL    HW225713   8.780  10.155   9.547  1.6068  0.9149  0.0188
41236SOL     OW25714  10.430  10.714   2.571 -0.5139 -0.1473 -0.3535
41236SOL    HW125715  10.353  10.673   2.610 -1.1839  0.6978 -0.7670
41236SOL    HW225716  10.504  10.665   2.607 -1.2950 -2.4270 -1.6342
41237SOL     OW25717   1.818   6.666   0.492  0.3248 -0.3374 -0.1911
41237SOL    HW125718   1.790   6.715   0.570  1.7778  0.8314 -0.3683
41237SOL    HW225719   1.899   6.624   0.518  0.7140 -0.1040 -1.0076
41238SOL     OW25720   8.456   0.333  10.008  0.1785  0.2294 -0.7376
41238SOL    HW125721   8.488   0.417   9.977 -0.2913 -0.0166 -1.9768
41238SOL    HW225722   8.469   0.334  10.102  0.2962  1.6346 -0.7604
41239SOL     OW25723   2.371   8.397   3.259  0.4179 -0.8914  0.1509
41239SOL    HW125724   2.401   8.309   3.235 -1.9767 -1.7114 -0.1262
41239SOL    HW225725   2.304   8.417   3.194  1.0923  1.2929  0.0614
41240SOL     OW25726   7.471   8.701  11.067 -0.5594  0.4145  0.1591
41240SOL    HW125727   7.555   8.657  11.054 -0.0673  1.8847 -2.1578
41240SOL    HW225728   7.406   8.633  11.051  0.1237 -0.7446  1.9802
41241SOL     OW25729  10.931   1.356  10.179  0.2980 -0.5600 -0.1729
41241SOL    HW125730  10.953   1.294  10.248  2.8526  1.3577  0.8957
41241SOL    HW225731  11.011   1.406  10.165 -1.0243  1.1265 -2.4510
41242SOL     OW25732   0.176   8.818   6.333 -0.4653 -0.2435  0.3810
41242SOL    HW125733   0.232   8.885   6.293  1.0489 -0.9493  1.2409
41242SOL    HW225734   0.218   8.735   6.309 -1.4038 -0.8095  0.6908
41243SOL     OW25735   9.718   0.790   3.635 -0.1223 -0.3412 -0.4420
41243SOL    HW125736   9.679   0.707   3.607 -0.5089 -0.3217  0.0377
41243SOL    HW225737   9.812   0.775   3.630 -0.1921 -0.7476 -0.5387
41244SOL     OW25738  10.302   7.476   5.720  0.1949  0.0306 -0.2465
41244SOL    HW125739  10.218   7.430   5.729 -0.2256  0.8415  0.0533
41244SOL    HW225740  10.296   7.519   5.635  0.0889  0.5128  0.0028
41245SOL     OW25741  10.932   8.554   3.963  0.1442  0.0055 -0.3042
41245SOL    HW125742  10.935   8.485   3.897 -0.6879 -0.8261  0.5056
41245SOL    HW225743  10.845   8.545   4.003  0.2015  1.2209  0.1378
41246SOL     OW25744  10.507   8.354   1.808 -0.2175  0.9636  0.5657
41246SOL    HW125745  10.547   8.354   1.895 -0.5691  1.9265  0.7436
41246SOL    HW225746  10.413   8.356   1.825 -0.3201  0.0147  0.1527
41247SOL     OW25747   6.174   0.829   7.697  0.4773  0.2767  0.3592
41247SOL    HW125748   6.127   0.912   7.693 -0.4012 -0.2695 -1.1256
41247SOL    HW225749   6.263   0.850   7.667  0.5262  0.8280  0.8566
41248SOL     OW25750   8.174   6.775  10.929  0.3919  0.0781 -0.3921
41248SOL    HW125751   8.237   6.847  10.932  0.2219  0.3550 -2.3771
41248SOL    HW225752   8.115   6.793  11.002  1.6760  0.6824  0.5395
41249SOL     OW25753   0.159   7.598   5.695  0.2106  0.4226 -0.4749
41249SOL    HW125754   0.230   7.661   5.712  0.7447  0.1361 -1.5323
41249SOL    HW225755   0.125   7.576   5.781  3.5334 -1.8711  0.4491
41250SOL     OW25756   7.846   7.684   4.308  0.0185 -0.1259 -0.3237
41250SOL    HW125757   7.899   7.752   4.349 -1.5475  1.4909 -0.8400
41250SOL    HW225758   7.756   7.712   4.323 -0.6424 -1.4011 -1.7035
41251SOL     OW25759   0.521   9.437   4.671 -0.0048 -0.7076  0.1315
41251SOL    HW125760   0.600   9.478   4.704  0.0119  0.1423 -0.9311
41251SOL    HW225761   0.471   9.415   4.750  0.5050  0.3187  0.7617
41252SOL     OW25762   3.318   1.641   7.979  0.4739 -0.5764 -0.8782
41252SOL    HW125763   3.227   1.630   7.949 -0.1485 -0.0674  0.7182
41252SOL    HW225764   3.343   1.555   8.011 -0.6108 -0.0496  1.6196
41253SOL     OW25765   9.235  10.058   3.472 -0.4865  0.2685  1.0732
41253SOL    HW125766   9.143  10.034   3.480 -0.3711 -0.6315 -0.0605
41253SOL    HW225767   9.234  10.137   3.417 -0.5219 -0.3654  0.1510
41254SOL     OW25768   9.376   5.415   6.123 -0.6449  0.1159  0.2631
41254SOL    HW125769   9.395   5.472   6.050  0.2937  0.2023  0.5667
41254SOL    HW225770   9.291   5.375   6.101 -0.7780  0.7800 -0.4552
41255SOL     OW25771  10.576   5.998   3.177  0.7132 -0.3815 -0.5322
41255SOL    HW125772  10.520   5.924   3.158 -1.4670  1.4544 -1.6601
41255SOL    HW225773  10.530   6.046   3.246  1.9588  0.1016  0.0051
41256SOL     OW25774   7.079   5.948   8.734  0.2943 -0.4055  0.0894
41256SOL    HW125775   7.084   6.005   8.810 -0.1138 -0.9805  0.5599
41256SOL    HW225776   7.142   5.984   8.672  2.8960 -1.6216  1.8436
41257SOL     OW25777   3.068   7.626   0.298 -0.5911  0.2963 -0.3538
41257SOL    HW125778   3.150   7.672   0.316 -0.4292 -0.4365  0.9612
41257SOL    HW225779   3.002   7.675   0.348 -0.4748 -0.6276  0.7700
41258SOL     OW25780   0.839   8.567   0.078 -0.3735  0.3137 -0.2263
41258SOL    HW125781   0.857   8.473   0.075  1.2155  0.5851 -0.1952
41258SOL    HW225782   0.827   8.591  -0.014 -2.2825 -0.1461 -0.1388
41259SOL     OW25783   2.948  10.427   2.050 -0.0054  0.1379  0.1871
41259SOL    HW125784   2.996  10.369   1.990 -2.5614 -1.5370 -0.4209
41259SOL    HW225785   2.978  10.515   2.027  1.5525 -0.6894 -1.2038
41260SOL     OW25786   8.505   2.054   3.830  0.0824  0.0436  0.2175
41260SOL    HW125787   8.439   2.077   3.895 -0.3206 -1.6766  0.4875
41260SOL    HW225788   8.468   1.978   3.785  0.1701  1.3872 -2.3181
41261SOL     OW25789   8.619   8.027   6.970  0.3325 -0.3489 -0.2151
41261SOL    HW125790   8.571   8.109   6.964 -0.7203 -0.7387  1.9033
41261SOL    HW225791   8.698   8.049   7.020 -0.2128 -0.7107  0.8203
41262SOL     OW25792   4.305   6.576   3.945  0.2935  0.9095 -0.4796
41262SOL    HW125793   4.359   6.502   3.973 -1.4221 -0.4667 -0.6799
41262SOL    HW225794   4.363   6.652   3.955  1.4415 -0.1453  1.8156
41263SOL     OW25795  11.057   5.416  10.996 -0.0583 -0.0695 -0.0128
41263SOL    HW125796  11.127   5.364  10.956  0.8894  0.8544  0.3993
41263SOL    HW225797  11.054   5.386  11.087 -1.4017 -1.3264 -0.4388
41264SOL     OW25798   9.843  10.106   0.429  0.2681  0.6587  0.2460
41264SOL    HW125799   9.885  10.038   0.376  0.4407 -0.9646  2.3504
41264SOL    HW225800   9.900  10.182   0.418  0.7611  0.1309 -1.1905
41265SOL     OW25801   8.021   0.272   7.041  0.1046  0.4152 -0.3159
41265SOL    HW125802   7.980   0.221   7.111  1.2640  2.5922  2.0939
41265SOL    HW225803   7.952   0.333   7.013  0.3785  1.2708  0.8012
41266SOL     OW25804   8.348   8.854   3.615  0.1154 -0.0199  0.0687
41266SOL    HW125805   8.410   8.818   3.551  2.1344 -1.1956  2.4456
41266SOL    HW225806   8.338   8.783   3.679 -2.5080  0.7583  0.6132
41267SOL     OW25807   6.715   3.842   0.660 -0.1198 -0.1867 -0.4893
41267SOL    HW125808   6.713   3.836   0.756 -0.7971 -1.5662 -0.5697
41267SOL    HW225809   6.698   3.753   0.630 -2.6608  0.6764 -1.9028
41268SOL     OW25810   6.842   9.979   0.100  0.0324  0.6097 -0.4790
41268SOL    HW125811   6.820   9.989   0.192  1.1307 -1.1820  0.0276
41268SOL    HW225812   6.782  10.038   0.054 -0.9467  1.0759  1.3201
41269SOL     OW25813   4.076   0.219   0.843 -1.2363 -0.1958  0.5046
41269SOL    HW125814   4.018   0.143   0.839  0.8157 -1.8434 -0.0619
41269SOL    HW225815   4.111   0.218   0.932  0.0713 -1.0002  0.0175
41270SOL     OW25816   8.079   0.010   9.501  0.0012 -0.4095 -0.1301
41270SOL    HW125817   8.065   0.063   9.579  0.6110 -1.2611  0.5629
41270SOL    HW225818   8.140  -0.058   9.528 -0.2633 -1.0871 -1.1829
41271SOL     OW25819  10.597   6.426   0.063 -0.8042 -0.7262 -0.3746
41271SOL    HW125820  10.654   6.350   0.076  2.1123  1.6740  3.0092
41271SOL    HW225821  10.578   6.457   0.152  0.1137  3.6993 -1.4629
41272SOL     OW25822  10.949  10.560  10.895  0.5634  0.0298  0.3136
41272SOL    HW125823  10.943  10.505  10.817  1.1300  1.0835 -0.4961
41272SOL    HW225824  10.864  10.602  10.901  0.5920  0.1135  0.1356
41273SOL     OW25825   2.566   3.695   1.233  0.4254  0.0024 -0.1025
41273SOL    HW125826   2.502   3.764   1.215  0.9631  0.6507  0.4025
41273SOL    HW225827   2.624   3.734   1.298  1.0589 -0.7442 -0.2163
41274SOL     OW25828   8.163  10.175   7.530 -0.0367  0.3904 -0.1799
41274SOL    HW125829   8.094  10.116   7.562 -1.5044  1.5265 -1.0831
41274SOL    HW225830   8.241  10.151   7.580 -0.9684 -1.2568  0.5664
41275SOL     OW25831   8.799   3.709  10.190 -0.4369  0.1068 -1.0115
41275SOL    HW125832   8.810   3.680  10.281  0.3780 -1.3229 -1.5256
41275SOL    HW225833   8.708   3.687  10.169 -0.8162  1.0104 -0.3692
41276SOL     OW25834   8.259   9.267   7.518 -0.2498 -0.1988 -0.2573
41276SOL    HW125835   8.331   9.240   7.461 -0.4431  0.4018 -0.7870
41276SOL    HW225836   8.281   9.356   7.545 -1.0044  0.1619 -0.7834
41277SOL     OW25837   4.656   0.290   6.805 -0.2770  0.2577  0.1099
41277SOL    HW125838   4.738   0.339   6.803 -1.0680  1.5954 -1.0620
41277SOL    HW225839   4.649   0.251   6.718 -0.6502 -0.2866  0.3752
41278SOL     OW25840   1.477   4.893   7.075  0.2455 -0.0132 -0.3945
41278SOL    HW125841   1.462   4.810   7.120  1.1888 -0.3957 -0.7563
41278SOL    HW225842   1.568   4.916   7.097 -0.2033  1.2538  0.2238
41279SOL     OW25843  10.890   4.319   0.529 -0.6403  0.0992  0.1352
41279SOL    HW125844  10.862   4.240   0.577 -1.3717 -0.0848 -0.5618
41279SOL    HW225845  10.948   4.286   0.461  0.3653  0.3562  0.8546
41280SOL     OW25846   2.626   5.087   3.209  0.4966  0.4724 -0.8115
41280SOL    HW125847   2.596   4.997   3.223  1.7084  0.2220  0.4048
41280SOL    HW225848   2.553   5.130   3.166 -1.1593 -0.4157  0.9337
41281SOL     OW25849   0.131   8.293   3.616  0.1841  0.3019 -0.0547
41281SOL    HW125850   0.202   8.355   3.597 -0.0935  0.5246 -0.3731
41281SOL    HW225851   0.174   8.222   3.663  0.6168  0.4451 -0.2228
41282SOL     OW25852  10.771   9.588   4.561 -0.2368  0.1506  0.4899
41282SOL    HW125853  10.805   9.527   4.495  0.6961  0.1025  0.9975
41282SOL    HW225854  10.705   9.639   4.515  1.6785  1.4148 -1.0446
41283SOL     OW25855   0.046   2.439   4.015  0.5775  0.0790  0.5086
41283SOL    HW125856   0.038   2.358   4.065 -0.7329  0.5772  1.1367
41283SOL    HW225857   0.106   2.416   3.943  0.3920 -1.3878  0.7810
41284SOL     OW25858   2.665   6.713   6.399 -0.2134 -0.4280  0.2038
41284SOL    HW125859   2.695   6.804   6.397 -0.5541 -0.3124  0.4087
41284SOL    HW225860   2.686   6.682   6.487  0.9839 -0.9163 -0.2326
41285SOL     OW25861   0.438   7.302   1.054  0.9330 -0.7142  0.5138
41285SOL    HW125862   0.475   7.289   1.141 -1.2420 -1.7849  1.3586
41285SOL    HW225863   0.358   7.351   1.069  1.2485  0.3508 -1.0797
41286SOL     OW25864   7.473   5.432   9.779  0.5769 -0.5149 -0.0630
41286SOL    HW125865   7.431   5.400   9.699 -0.6603 -0.0987  0.4025
41286SOL    HW225866   7.429   5.515   9.798  2.8278  0.8977 -0.5444
41287SOL     OW25867   9.948  10.483  10.407  0.1396  0.9033 -0.3280
41287SOL    HW125868   9.955  10.419  10.336 -0.5606  0.8170 -0.3251
41287SOL    HW225869   9.891  10.551  10.371  0.3412  1.1945 -0.0899
41288SOL     OW25870   9.531   9.942  10.478  0.0986  0.2231  0.2585
41288SOL    HW125871   9.549   9.964  10.387  0.6252 -0.6723  0.1288
41288SOL    HW225872   9.607   9.973  10.527  0.6820 -0.9419  0.1219
41289SOL     OW25873   5.204  10.580   8.258 -0.4093  0.3214  0.4580
41289SOL    HW125874   5.117  10.612   8.234 -1.1982 -0.8857  1.6171
41289SOL    HW225875   5.247  10.563   8.174 -1.8363 -0.4946 -0.1359
41290SOL     OW25876   5.243   7.222   4.002  0.6873 -0.0490  0.2782
41290SOL    HW125877   5.249   7.306   3.957  0.4053 -0.1401  0.0684
41290SOL    HW225878   5.323   7.217   4.055  1.4502 -0.3322 -0.8705
41291SOL     OW25879   0.488   7.735   1.280 -0.7484  0.2404  0.0120
41291SOL    HW125880   0.453   7.809   1.330 -1.6472 -0.4037  0.3498
41291SOL    HW225881   0.514   7.671   1.346  1.0313  0.6607 -0.2311
41292SOL     OW25882   1.816   8.220   6.359 -0.7948 -0.6386  0.3697
41292SOL    HW125883   1.721   8.208   6.365 -0.9930  1.3094  2.2792
41292SOL    HW225884   1.827   8.304   6.315  0.1184 -1.1956 -0.5223
41293SOL     OW25885  10.004   7.390  10.398 -0.4935  0.0252  0.3399
41293SOL    HW125886  10.052   7.416  10.477  1.1208 -1.5532 -0.0588
41293SOL    HW225887  10.019   7.462  10.337  2.7118 -0.9509 -0.2619
41294SOL     OW25888   0.070   4.790   2.102  0.7308 -0.3547  0.6966
41294SOL    HW125889   0.072   4.817   2.194  1.1384  0.0670  0.5679
41294SOL    HW225890   0.001   4.843   2.063  1.1597  0.1119  0.5654
41295SOL     OW25891   6.016   5.823   1.451 -0.3246  0.5712 -0.4694
41295SOL    HW125892   6.059   5.776   1.379 -2.1108 -1.2574 -0.4343
41295SOL    HW225893   6.004   5.911   1.417  1.0407  0.4188 -1.4622
41296SOL     OW25894   1.821   9.509   2.719 -0.1087 -0.1475  0.2103
41296SOL    HW125895   1.895   9.560   2.754 -1.0259 -0.9195  3.7009
41296SOL    HW225896   1.859   9.455   2.650  1.6150  2.5634 -1.1631
41297SOL     OW25897   9.760   8.439   1.065 -0.2376 -0.3378 -0.1408
41297SOL    HW125898   9.778   8.440   0.971  2.7873  0.0121  0.3556
41297SOL    HW225899   9.840   8.405   1.105 -2.0771 -2.1877  2.2494
41298SOL     OW25900   2.465   7.434   8.309 -0.2282 -0.3491 -0.6873
41298SOL    HW125901   2.412   7.498   8.261 -0.9869  0.9295  1.6895
41298SOL    HW225902   2.469   7.468   8.398  2.7085 -1.5982 -0.2059
41299SOL     OW25903   0.742   5.531   1.461 -0.6189  0.5390  0.6965
41299SOL    HW125904   0.720   5.532   1.368 -1.5541  0.4149  0.9067
41299SOL    HW225905   0.776   5.443   1.477 -0.4750  0.5546  0.4742
41300SOL     OW25906   2.315  10.603   5.021  0.1130  0.7948  0.3482
41300SOL    HW125907   2.251  10.640   4.960  0.5328  0.2309 -0.4645
41300SOL    HW225908   2.336  10.675   5.081 -0.4274  1.3187 -0.0778
41301SOL     OW25909  10.600   1.179   8.189  0.0115  0.4953 -0.2057
41301SOL    HW125910  10.526   1.144   8.238  0.0043  0.6833 -0.0768
41301SOL    HW225911  10.568   1.262   8.154  0.1940  0.6295 -0.0578
41302SOL     OW25912   2.721   5.696   6.352 -0.3400 -0.6449 -0.4251
41302SOL    HW125913   2.710   5.606   6.382 -3.2186 -0.4953 -0.6749
41302SOL    HW225914   2.670   5.748   6.414  0.9292  0.7826 -0.5198
41303SOL     OW25915   3.479   5.987   1.138 -0.1271 -0.4830  0.0537
41303SOL    HW125916   3.404   5.961   1.191 -1.7177  1.3441 -1.1687
41303SOL    HW225917   3.443   6.002   1.051  1.8150 -0.2161 -0.7586
41304SOL     OW25918   7.090   7.265   5.171  0.4125  0.1388 -0.6200
41304SOL    HW125919   7.068   7.223   5.088  1.0805  1.6854 -1.6281
41304SOL    HW225920   7.185   7.275   5.167  0.6752 -1.2281  1.0828
41305SOL     OW25921   6.002   2.534   2.320 -0.2943  0.1743 -0.8006
41305SOL    HW125922   6.092   2.520   2.351 -0.5742 -1.4711 -0.6327
41305SOL    HW225923   5.947   2.512   2.394 -0.8557  0.9352 -0.9832
41306SOL     OW25924   3.265   2.624   0.680 -0.4337  0.1434 -0.0691
41306SOL    HW125925   3.269   2.557   0.748 -1.0893  0.2160  0.0497
41306SOL    HW225926   3.172   2.646   0.674 -0.1657  1.4662  0.3229
41307SOL     OW25927   7.162   1.457   6.207  0.3728 -0.3767  0.0108
41307SOL    HW125928   7.086   1.400   6.193 -0.2028  0.6190 -1.1538
41307SOL    HW225929   7.223   1.434   6.137  0.1908  0.3203 -0.3912
41308SOL     OW25930   2.781  10.355   9.727 -0.1544 -0.5659  0.5478
41308SOL    HW125931   2.695  10.323   9.700 -0.9033  1.2054  0.7364
41308SOL    HW225932   2.811  10.291   9.792 -2.4761  0.1167  2.4183
41309SOL     OW25933   6.524  10.663   7.084  0.3615 -0.0085  0.1044
41309SOL    HW125934   6.473  10.594   7.126 -0.8922  0.1442 -1.0805
41309SOL    HW225935   6.592  10.617   7.035  0.6610 -0.2849  0.7772
41310SOL     OW25936   4.292   8.737   1.946 -0.2016 -0.4482 -0.1028
41310SOL    HW125937   4.196   8.731   1.945 -0.3594  1.4537  0.5191
41310SOL    HW225938   4.311   8.830   1.933  1.4833 -0.3989  2.0535
41311SOL     OW25939   5.668   1.497   7.864  0.0770 -0.2187 -0.4790
41311SOL    HW125940   5.648   1.588   7.886  2.1169  0.4510 -1.0790
41311SOL    HW225941   5.592   1.467   7.814 -0.5532  1.2323 -0.4461
41312SOL     OW25942   6.888   8.146   5.611 -0.4188 -0.1466 -0.2284
41312SOL    HW125943   6.892   8.106   5.524  1.7460 -2.3721  0.7839
41312SOL    HW225944   6.818   8.098   5.656  0.6889 -1.3154  0.2802
41313SOL     OW25945  10.873   6.481   3.903  0.1852  0.2902  0.5271
41313SOL    HW125946  10.940   6.527   3.954  2.3159 -3.1488  1.1745
41313SOL    HW225947  10.917   6.458   3.821 -1.8782  2.0692 -1.2194
41314SOL     OW25948   8.434   8.897   1.105  0.4580 -0.0262  0.0536
41314SOL    HW125949   8.382   8.816   1.104 -0.4561  0.4868  1.7532
41314SOL    HW225950   8.509   8.876   1.161  0.6808  0.0340 -0.2237
41315SOL     OW25951   1.925   5.101  10.468  0.2718 -0.0523 -0.5793
41315SOL    HW125952   1.918   5.068  10.378 -1.2464 -0.6485 -0.2793
41315SOL    HW225953   1.960   5.189  10.458  0.2423 -0.1533 -1.7533
41316SOL     OW25954   8.658   6.305   6.622 -0.5073  0.1884  0.4197
41316SOL    HW125955   8.749   6.277   6.613 -0.6673 -1.0409  2.1457
41316SOL    HW225956   8.623   6.301   6.533  0.6179 -1.1948  0.0041
41317SOL     OW25957   1.090  10.369   0.550 -0.2671  0.3523  0.1586
41317SOL    HW125958   1.022  10.342   0.488 -0.6596 -0.8718  1.0960
41317SOL    HW225959   1.129  10.446   0.509 -0.7801 -0.1770 -1.4186
41318SOL     OW25960   8.974   2.084   8.838  0.6234 -0.5322  0.9239
41318SOL    HW125961   8.956   2.017   8.771  1.5142 -0.0023  0.1282
41318SOL    HW225962   8.891   2.131   8.847  0.2346 -1.1854  0.8625
41319SOL     OW25963   0.049   8.912   4.254 -0.0743 -0.3797 -0.3687
41319SOL    HW125964   0.115   8.975   4.224  1.3251 -0.4729  2.2492
41319SOL    HW225965   0.070   8.831   4.207 -0.1725  0.3508 -1.7145
41320SOL     OW25966   0.404   7.407  10.078  0.0065 -0.1474 -0.3202
41320SOL    HW125967   0.446   7.386  10.162 -0.2655 -0.0516 -0.1580
41320SOL    HW225968   0.379   7.499  10.086 -3.3414 -1.0104  0.9832
41321SOL     OW25969   6.430   1.348   5.638  0.1884  0.1960  0.4731
41321SOL    HW125970   6.356   1.361   5.578  0.5911 -1.8327 -0.5334
41321SOL    HW225971   6.504   1.390   5.595  0.1528  0.0384  0.2565
41322SOL     OW25972   9.722   7.617   3.430 -0.2189 -0.1404  0.1073
41322SOL    HW125973   9.684   7.540   3.471 -1.0449  0.2532  0.1029
41322SOL    HW225974   9.802   7.634   3.480 -1.2677  0.4087  1.6515
41323SOL     OW25975   4.877   0.229   3.417 -0.1410 -0.1241 -0.0092
41323SOL    HW125976   4.791   0.272   3.413 -0.2395 -0.4072 -2.6013
41323SOL    HW225977   4.868   0.152   3.361  0.8223 -2.1581  2.4864
41324SOL     OW25978   7.425   5.413   4.091  0.3930 -0.4581  0.1850
41324SOL    HW125979   7.373   5.354   4.036  2.3614  0.6689 -3.1983
41324SOL    HW225980   7.360   5.472   4.130 -1.1301  0.4883 -3.3170
41325SOL     OW25981   7.084   7.393   0.964 -0.2584  0.1764 -0.8664
41325SOL    HW125982   7.152   7.405   0.897  0.2699  2.5850  0.0032
41325SOL    HW225983   7.019   7.337   0.922  2.8198 -3.4733 -1.2667
41326SOL     OW25984   5.672   0.814  10.776  0.2747 -0.8087 -0.3641
41326SOL    HW125985   5.744   0.751  10.782 -0.1297 -1.2662 -0.2373
41326SOL    HW225986   5.711   0.898  10.801  1.0641 -0.8146 -1.4802
41327SOL     OW25987  10.571   7.594   4.839  0.3603 -0.1208 -0.1249
41327SOL    HW125988  10.582   7.506   4.874  0.4036 -0.3220 -0.6255
41327SOL    HW225989  10.656   7.636   4.852  0.8202 -0.6592 -1.2319
41328SOL     OW25990   7.327   9.874   2.771 -1.1552  0.1695  0.5611
41328SOL    HW125991   7.383   9.950   2.782  1.8816 -1.9078  0.5379
41328SOL    HW225992   7.327   9.857   2.677  1.5168 -2.0365  0.8426
41329SOL     OW25993   1.695   3.641   6.634  0.0006 -0.4627 -0.0898
41329SOL    HW125994   1.638   3.627   6.709  1.2228  0.9341  1.1683
41329SOL    HW225995   1.648   3.702   6.578 -0.1040  0.0345  0.5299
41330SOL     OW25996   1.260   7.624   2.687  0.0884 -0.1636  0.3201
41330SOL    HW125997   1.351   7.641   2.662 -0.5976  2.4310 -0.6800
41330SOL    HW225998   1.266   7.595   2.778  1.9318 -0.6861  0.0840
41331SOL     OW25999   8.003   3.795   1.615 -0.1840 -0.0585 -0.0996
41331SOL    HW126000   8.084   3.808   1.565 -1.0025  0.0104 -1.4682
41331SOL    HW226001   8.016   3.712   1.661  0.7209  0.0290 -0.1854
41332SOL     OW26002   8.121   6.846   0.545  0.0272 -0.1892  0.1131
41332SOL    HW126003   8.140   6.790   0.470 -1.1431 -0.5029  0.0307
41332SOL    HW226004   8.039   6.811   0.582  0.0440  0.5778  0.9253
41333SOL     OW26005   4.465   8.186   7.773  0.1605 -0.2008 -0.1761
41333SOL    HW126006   4.373   8.192   7.745  0.2856  0.8015 -0.4070
41333SOL    HW226007   4.494   8.100   7.740 -0.7829 -0.6862  0.2078
41334SOL     OW26008   1.943   6.515   2.855 -0.2795 -0.2146  0.3455
41334SOL    HW126009   1.903   6.569   2.786 -2.0416 -0.8582  0.8085
41334SOL    HW226010   2.007   6.573   2.897 -0.4563  0.7561 -0.6726
41335SOL     OW26011  10.464   9.550   9.015  0.0008 -0.4421  0.2054
41335SOL    HW126012  10.497   9.608   8.946  3.5475 -2.1784  0.1985
41335SOL    HW226013  10.398   9.602   9.060 -0.3328  1.8481 -2.5933
41336SOL     OW26014   4.159   7.791   6.025  0.1639  0.2023 -0.6873
41336SOL    HW126015   4.190   7.748   6.105  0.2823 -0.2762 -0.9842
41336SOL    HW226016   4.151   7.883   6.048  0.6864  0.1455 -0.2658
41337SOL     OW26017   3.138   4.817   9.001 -0.6170 -0.0234  0.0368
41337SOL    HW126018   3.204   4.751   8.983 -1.0761 -0.3233 -0.5863
41337SOL    HW226019   3.172   4.866   9.076  1.2595  1.0978 -1.4465
41338SOL     OW26020   8.609   3.232   5.381 -0.1561 -0.0518 -0.6113
41338SOL    HW126021   8.590   3.140   5.399  1.8432 -0.3435  0.3265
41338SOL    HW226022   8.620   3.272   5.467  0.2018  0.7678 -1.0234
41339SOL     OW26023   3.800   3.875   5.771 -0.8742 -0.0381 -0.8999
41339SOL    HW126024   3.882   3.853   5.814 -0.8040  1.3104 -0.2786
41339SOL    HW226025   3.766   3.950   5.821 -2.5403 -0.6394 -1.0603
41340SOL     OW26026   9.908   4.024   6.465 -0.2938  0.5665  0.1937
41340SOL    HW126027   9.950   4.104   6.435 -0.2556  0.7038  0.6111
41340SOL    HW226028   9.861   3.991   6.388 -0.5831  1.1612  0.1140
41341SOL     OW26029   3.520   6.261   4.535  0.1829 -0.4227  0.2642
41341SOL    HW126030   3.466   6.211   4.596 -0.9870  1.1339  0.5437
41341SOL    HW226031   3.580   6.196   4.498 -0.5891 -1.8231  1.3762
41342SOL     OW26032   7.759   8.655   5.010  0.3570  0.2900 -0.1518
41342SOL    HW126033   7.833   8.682   4.956  1.4004  0.3230  1.2331
41342SOL    HW226034   7.682   8.687   4.963  1.3161  1.9194 -0.7072
41343SOL     OW26035   1.885   6.628   3.484 -0.6397  0.1585 -0.0069
41343SOL    HW126036   1.865   6.665   3.398 -1.6366 -0.0380  0.1327
41343SOL    HW226037   1.819   6.560   3.496  0.3219 -0.7341  0.3350
41344SOL     OW26038   7.906   9.120   3.346 -0.1682  0.3020 -0.5538
41344SOL    HW126039   7.838   9.073   3.392 -1.0179  0.2032 -1.8494
41344SOL    HW226040   7.959   9.160   3.415 -1.5937  0.4750  0.4785
41345SOL     OW26041   9.429   8.563   3.006  0.0829 -0.6021  0.2648
41345SOL    HW126042   9.356   8.608   3.048 -0.1669 -0.3444 -0.4318
41345SOL    HW226043   9.486   8.538   3.078 -0.2188  0.0400  0.7367
41346SOL     OW26044  10.849   3.728   8.958 -0.3547 -0.0005  0.8264
41346SOL    HW126045  10.795   3.654   8.987 -0.5755  0.2277  1.0059
41346SOL    HW226046  10.831   3.797   9.022 -0.9945  0.5813  0.0397
41347SOL     OW26047   6.579  11.034   8.492  0.0947 -0.8981  0.0909
41347SOL    HW126048   6.503  10.987   8.526  1.3390 -1.7991  1.8192
41347SOL    HW226049   6.650  10.970   8.496  0.7603 -0.4205 -2.5023
41348SOL     OW26050   0.076   9.349   7.256  0.7817 -0.0088  0.3257
41348SOL    HW126051   0.125   9.426   7.228  0.1188  0.8010  1.2898
41348SOL    HW226052   0.075   9.355   7.352 -0.7572 -0.2525  0.3577
41349SOL     OW26053   7.847   8.206  10.453  0.3307 -0.2707  0.2602
41349SOL    HW126054   7.926   8.159  10.480 -0.1734  0.3382  3.0578
41349SOL    HW226055   7.880   8.291  10.423  0.7595 -0.0675  1.2754
41350SOL     OW26056  10.292   7.265   3.320  0.6576  0.0399  0.4018
41350SOL    HW126057  10.380   7.300   3.309  0.1900  0.7496 -1.4119
41350SOL    HW226058  10.271   7.281   3.412  2.5147 -0.4233  0.9413
41351SOL     OW26059   2.839   2.943   5.797  0.6016 -0.4621  0.2001
41351SOL    HW126060   2.845   2.849   5.810  3.1656 -0.4210 -0.1492
41351SOL    HW226061   2.901   2.962   5.727 -0.7338  1.3745 -0.5951
41352SOL     OW26062   1.621   2.015  10.717  0.4860 -0.3700 -0.3693
41352SOL    HW126063   1.532   2.007  10.681 -0.6371  1.6951  1.6405
41352SOL    HW226064   1.637   1.931  10.760  0.4175 -1.5302 -2.4653
41353SOL     OW26065  10.621   7.123   7.267  0.0886  0.2757  0.0316
41353SOL    HW126066  10.700   7.162   7.304  0.2545 -0.9283  1.0181
41353SOL    HW226067  10.637   7.120   7.173 -0.3846  3.5151 -0.2635
41354SOL     OW26068   8.652   3.101   4.826 -0.6181  0.6089 -0.0891
41354SOL    HW126069   8.648   3.046   4.747 -1.1837  1.0094 -0.3462
41354SOL    HW226070   8.563   3.096   4.862 -0.3297  0.3275  0.5950
41355SOL     OW26071  10.132   7.039   5.470 -0.2428  0.1228 -0.0679
41355SOL    HW126072  10.212   7.073   5.431  0.4484 -0.2020  1.0182
41355SOL    HW226073  10.130   6.946   5.446 -0.6603  0.2825 -0.6690
41356SOL     OW26074   4.684   6.878   8.306 -0.2847 -0.2200 -0.3491
41356SOL    HW126075   4.625   6.809   8.335 -0.1896 -0.0623  0.2358
41356SOL    HW226076   4.666   6.952   8.364  1.7408 -0.7592  1.0624
41357SOL     OW26077   5.245   7.586  10.599  0.0889  0.2095 -0.0730
41357SOL    HW126078   5.251   7.678  10.575 -0.1058  0.4210  0.6379
41357SOL    HW226079   5.211   7.542  10.522 -1.6632  1.0354  0.1814
41358SOL     OW26080  10.986   4.843   9.163 -0.8505 -0.2961 -0.0275
41358SOL    HW126081  11.033   4.805   9.237 -0.3789 -0.1977 -0.2707
41358SOL    HW226082  10.920   4.899   9.202 -0.1617  0.2909  0.3171
41359SOL     OW26083   8.199   0.926   7.502 -0.5917  0.6648  1.0272
41359SOL    HW126084   8.224   0.931   7.594  1.4756  0.0679  0.5649
41359SOL    HW226085   8.239   1.003   7.462 -0.4215  0.2787  0.4320
41360SOL     OW26086  10.998   3.579   0.061 -0.0911  0.6008  0.1829
41360SOL    HW126087  11.075   3.527   0.084  0.2080  0.8863 -0.1470
41360SOL    HW226088  10.943   3.520   0.010  0.7115  0.8787 -1.0529
41361SOL     OW26089   1.165   5.257   5.848 -0.0106 -0.1504  0.3236
41361SOL    HW126090   1.120   5.341   5.838 -0.2528 -0.3273 -0.1258
41361SOL    HW226091   1.100   5.200   5.888  0.8434  0.4521  2.7077
41362SOL     OW26092   2.320   3.015   6.783 -0.4032 -0.8228 -0.4724
41362SOL    HW126093   2.343   2.935   6.830 -1.9341 -1.2081 -0.3246
41362SOL    HW226094   2.396   3.073   6.795 -0.3783 -1.2265  1.7606
41363SOL     OW26095   0.095   0.937   7.236 -0.2340  0.1470 -0.0716
41363SOL    HW126096   0.092   0.989   7.317 -0.7592  1.2497 -0.7755
41363SOL    HW226097   0.120   1.000   7.168 -0.5710 -0.5981 -0.8980
41364SOL     OW26098   2.685   8.409  10.971  0.3159 -0.0290  0.0903
41364SOL    HW126099   2.643   8.469  10.910  1.5304  2.4317  1.5133
41364SOL    HW226100   2.647   8.323  10.950  0.0836  0.7913 -3.4880
41365SOL     OW26101   9.087   6.573   1.466 -0.0624  0.1427  0.0494
41365SOL    HW126102   9.112   6.492   1.510 -1.0696  0.6375  1.6337
41365SOL    HW226103   9.004   6.553   1.424  1.3493 -0.6122 -2.5960
41366SOL     OW26104   4.147   8.231   5.620 -0.4017  0.1691  0.0395
41366SOL    HW126105   4.163   8.153   5.567 -2.5375 -0.6140  0.4435
41366SOL    HW226106   4.055   8.252   5.604  0.0621  2.4687  0.1587
41367SOL     OW26107   8.745   0.280  10.453 -0.3849  0.0532  0.0877
41367SOL    HW126108   8.670   0.242  10.408 -1.8241  2.2443  0.4878
41367SOL    HW226109   8.745   0.372  10.426  1.0960  0.5091  1.4721
41368SOL     OW26110   0.894   5.129   5.167 -0.0055  0.3757 -0.0514
41368SOL    HW126111   0.974   5.165   5.204  0.2203  0.1976 -0.3660
41368SOL    HW226112   0.923   5.071   5.097 -0.4282  0.6278 -0.4439
41369SOL     OW26113   1.508   0.322   0.561 -0.2881  0.3746 -0.6017
41369SOL    HW126114   1.437   0.359   0.614  0.7552  0.9940  0.3981
41369SOL    HW226115   1.573   0.392   0.555  0.2745 -0.1999 -1.4601
41370SOL     OW26116   9.582  10.085   0.508  0.0143 -0.7723  0.3784
41370SOL    HW126117   9.674  10.093   0.481 -0.0629 -0.7833  0.1014
41370SOL    HW226118   9.539  10.046   0.431 -0.4612  0.3822  0.0434
41371SOL     OW26119  10.058   5.418   4.596  0.5007  0.0409 -0.2579
41371SOL    HW126120  10.086   5.374   4.676  0.8153  0.7656  0.0447
41371SOL    HW226121  10.139   5.446   4.554  0.2962  1.5850  0.2979
41372SOL     OW26122   8.627   6.231   3.927 -0.2567 -0.3148  0.6661
41372SOL    HW126123   8.615   6.153   3.980 -1.1081 -2.1535 -2.0486
41372SOL    HW226124   8.543   6.277   3.932 -0.2915 -0.4116  0.9790
41373SOL     OW26125   1.928   6.337   8.193 -0.0097  0.7880 -0.9821
41373SOL    HW126126   1.964   6.303   8.274 -0.2765 -0.3762 -1.3298
41373SOL    HW226127   1.834   6.318   8.199 -0.1592  1.4430 -1.2036
41374SOL     OW26128   5.799   2.284   7.248 -0.4445 -0.5525 -0.1595
41374SOL    HW126129   5.815   2.240   7.164 -1.3779 -0.8160 -0.2120
41374SOL    HW226130   5.762   2.369   7.223  2.3178  0.7792 -0.1008
41375SOL     OW26131   3.086  10.405   5.546  0.3389  0.1132 -0.3224
41375SOL    HW126132   3.027  10.382   5.474  1.2508 -0.9972 -0.7277
41375SOL    HW226133   3.039  10.376   5.624 -2.6062  4.9279  0.1392
41376SOL     OW26134   0.119   0.429   9.596  0.1373  0.2423 -0.1491
41376SOL    HW126135   0.119   0.451   9.690 -0.1064 -0.1763 -0.0492
41376SOL    HW226136   0.095   0.337   9.593  1.4144 -0.0974 -0.5456
41377SOL     OW26137   5.318   4.199   0.767  0.0313  0.0630  0.1802
41377SOL    HW126138   5.307   4.283   0.722 -2.1765 -0.5866 -0.6351
41377SOL    HW226139   5.372   4.147   0.707  0.0763  0.3696 -0.0516
41378SOL     OW26140   1.406   8.253   5.898 -0.1559 -0.2627  0.2258
41378SOL    HW126141   1.315   8.260   5.925 -0.3924 -1.6982 -0.1406
41378SOL    HW226142   1.403   8.238   5.803  0.5614  1.7638 -0.1708
41379SOL     OW26143  10.281   8.955   1.600 -0.0074 -0.0494  0.3625
41379SOL    HW126144  10.305   8.898   1.674 -1.0467  1.3901  1.8896
41379SOL    HW226145  10.185   8.951   1.597 -0.0858  1.3958  0.3541
41380SOL     OW26146   9.127   8.905   6.874 -0.2629  0.5955 -0.6376
41380SOL    HW126147   9.136   8.949   6.959 -1.7459  1.7161 -1.0134
41380SOL    HW226148   9.083   8.822   6.895  0.7243  0.1783 -0.1544
41381SOL     OW26149   6.016   6.318   3.025  0.1367  0.1158  0.4732
41381SOL    HW126150   6.002   6.277   3.111 -0.3946  0.1918  0.4288
41381SOL    HW226151   5.946   6.284   2.970  2.2394 -2.3599 -0.8682
41382SOL     OW26152   0.806  10.893   9.606  0.6035 -0.7801 -0.1480
41382SOL    HW126153   0.777  10.879   9.516  3.1641 -0.9327 -1.0490
41382SOL    HW226154   0.824  10.805   9.639  2.0793 -0.5988 -0.4128
41383SOL     OW26155   8.623   6.502  10.027 -0.3212 -0.5597 -0.2230
41383SOL    HW126156   8.633   6.437   9.956 -0.4449  0.1447 -0.9006
41383SOL    HW226157   8.554   6.467  10.082  0.2610 -1.4744 -0.0521
41384SOL     OW26158   2.047   7.510   4.444  0.1634 -0.3656 -0.4694
41384SOL    HW126159   1.980   7.442   4.437  1.2143 -1.6087  1.0329
41384SOL    HW226160   2.076   7.507   4.535  1.8920  0.4811 -0.9450
41385SOL     OW26161   0.507   8.313   2.105  0.0862 -0.5481 -0.2642
41385SOL    HW126162   0.532   8.383   2.166 -0.0681 -0.6826 -0.0474
41385SOL    HW226163   0.426   8.343   2.065  0.5699 -0.1189 -0.9560
41386SOL     OW26164   9.545   5.153   2.483  0.6747 -0.1366  0.1346
41386SOL    HW126165   9.468   5.165   2.427  0.2066  0.5253  0.9023
41386SOL    HW226166   9.620   5.167   2.425  0.1916  0.8073 -0.2650
41387SOL     OW26167   0.846   8.709   8.004 -0.4678  0.4003 -1.1773
41387SOL    HW126168   0.897   8.765   7.946 -0.0051 -0.3764 -1.5299
41387SOL    HW226169   0.907   8.689   8.076 -0.6808  0.4660 -0.9783
41388SOL     OW26170   8.912   6.159   5.750  0.0992  0.2698  0.2000
41388SOL    HW126171   8.924   6.238   5.698 -0.1174  1.6834  2.1897
41388SOL    HW226172   8.891   6.191   5.838  0.3298 -2.0043  1.1489
41389SOL     OW26173   2.818   4.272   4.444 -0.1458  0.0330 -0.0588
41389SOL    HW126174   2.746   4.313   4.397  0.6704 -0.5456 -1.9114
41389SOL    HW226175   2.890   4.335   4.439  1.4277 -1.7363 -3.7461
41390SOL     OW26176   8.876   9.580   0.688 -0.2236 -0.2661  0.1351
41390SOL    HW126177   8.931   9.561   0.611 -2.4854 -1.0413 -1.3949
41390SOL    HW226178   8.859   9.494   0.726 -2.7026 -0.4695 -1.1909
41391SOL     OW26179   3.466   6.291   2.628 -0.0186  0.1121  0.4550
41391SOL    HW126180   3.465   6.204   2.667  1.5247 -1.4379 -2.6536
41391SOL    HW226181   3.383   6.298   2.581  1.0773 -1.0493 -1.8088
41392SOL     OW26182   3.313   4.868   1.841  0.1353  0.9224 -0.1103
41392SOL    HW126183   3.271   4.948   1.871  0.1749  0.9440 -0.1110
41392SOL    HW226184   3.334   4.886   1.749  0.9052  1.2347  0.1114
41393SOL     OW26185   8.884   6.897   3.162 -0.5684  0.2829 -0.3901
41393SOL    HW126186   8.830   6.960   3.115 -1.3752  1.1305  1.5714
41393SOL    HW226187   8.828   6.864   3.233  1.1306  0.4574  1.1341
41394SOL     OW26188   7.105   5.695  10.594  0.6273  0.2413  0.0590
41394SOL    HW126189   7.090   5.742  10.512  1.8246 -1.5087 -1.2543
41394SOL    HW226190   7.131   5.607  10.566  1.1673 -0.3817  2.3391
41395SOL     OW26191   6.010   0.452  10.297 -0.0740  0.8470 -0.1995
41395SOL    HW126192   6.104   0.452  10.283 -0.2027 -1.2042 -1.5517
41395SOL    HW226193   5.973   0.474  10.212 -0.7931 -0.5014 -0.2761
41396SOL     OW26194   3.958   9.066   6.490 -0.8570  0.1537  0.3797
41396SOL    HW126195   4.025   9.094   6.428 -1.7466  0.5582 -0.4245
41396SOL    HW226196   3.999   8.996   6.541 -0.0845 -0.1304 -0.6208
41397SOL     OW26197   1.164   1.740   2.715  0.5089  0.1126 -0.0880
41397SOL    HW126198   1.077   1.699   2.714 -0.0861  1.2972  0.7699
41397SOL    HW226199   1.223   1.670   2.688 -0.6657 -0.8224 -0.3547
41398SOL     OW26200  10.967   1.822   0.913  0.4726  0.4613 -0.5500
41398SOL    HW126201  10.929   1.791   0.831  1.7759 -0.2542 -0.9110
41398SOL    HW226202  10.922   1.905   0.930 -2.5170 -1.1072  0.0038
41399SOL     OW26203   4.134   9.085   4.470 -0.0812  0.2509 -0.2763
41399SOL    HW126204   4.226   9.105   4.485  0.2393  0.4227 -2.2132
41399SOL    HW226205   4.134   8.998   4.429 -0.7998  0.1006  0.0227
41400SOL     OW26206   2.182   7.895   0.030 -0.0190 -0.3410  0.1703
41400SOL    HW126207   2.253   7.837   0.004  1.1122  0.7752  0.6510
41400SOL    HW226208   2.154   7.862   0.116 -0.9375 -1.5182 -0.5628
41401SOL     OW26209   3.817   3.123   4.711 -0.1581  0.2842 -0.3820
41401SOL    HW126210   3.863   3.064   4.770 -0.3355  0.3386 -0.1846
41401SOL    HW226211   3.868   3.123   4.630 -1.1417 -1.5412 -1.0449
41402SOL     OW26212   5.419   9.341   9.375 -0.3102 -0.0040 -0.1846
41402SOL    HW126213   5.375   9.301   9.300 -1.3649 -1.1666  0.9902
41402SOL    HW226214   5.374   9.304   9.451  0.8053  1.0340  1.0285
41403SOL     OW26215  10.076   5.360   9.726  0.7550 -0.7752 -0.4128
41403SOL    HW126216  10.114   5.380   9.811 -0.3868  2.5919 -0.5365
41403SOL    HW226217  10.033   5.275   9.737  1.6228 -0.9597  1.9759
41404SOL     OW26218   9.665   1.958   8.307  0.2017 -0.0103  0.3110
41404SOL    HW126219   9.712   1.964   8.224 -0.1205  0.2066  0.1390
41404SOL    HW226220   9.722   2.000   8.371  0.1896  0.3649  0.0813
41405SOL     OW26221   2.093   9.155   1.288  0.8241 -0.1296 -0.3256
41405SOL    HW126222   2.073   9.190   1.201  0.8320  0.0594 -0.2528
41405SOL    HW226223   2.098   9.233   1.344  0.4235 -0.2825 -0.0764
41406SOL     OW26224   4.273   9.928   8.362  0.0900 -0.1769 -0.6117
41406SOL    HW126225   4.258   9.990   8.290 -2.0176 -0.1850 -0.2512
41406SOL    HW226226   4.367   9.935   8.381  0.0678  2.3276 -1.1019
41407SOL     OW26227   7.730   5.656   7.596 -0.3856  0.3030  0.2750
41407SOL    HW126228   7.681   5.738   7.598 -1.1370 -0.1562  1.0648
41407SOL    HW226229   7.695   5.609   7.520 -0.0028  0.6606 -0.1375
41408SOL     OW26230   4.331   9.191   9.173 -0.3337 -0.5785 -0.1005
41408SOL    HW126231   4.323   9.248   9.096  0.2682 -0.1054  0.1840
41408SOL    HW226232   4.268   9.227   9.236 -1.4514 -1.4791 -0.6686
41409SOL     OW26233   5.704   1.327   0.519 -0.2545  0.2869  0.0879
41409SOL    HW126234   5.661   1.264   0.460  1.7466 -0.5459 -0.5661
41409SOL    HW226235   5.787   1.346   0.476  0.2168  1.5233  1.5027
41410SOL     OW26236   2.441   4.701  10.050 -0.1690  0.0152 -0.4632
41410SOL    HW126237   2.520   4.753  10.037  0.3606 -0.7629 -0.4684
41410SOL    HW226238   2.460   4.618  10.006 -1.4285  0.2062 -1.4221
41411SOL     OW26239  10.303   5.172   8.792  0.1862 -0.4671  0.3797
41411SOL    HW126240  10.291   5.084   8.829 -2.4863 -0.4946 -0.3200
41411SOL    HW226241  10.239   5.176   8.720  2.0361  1.1739 -1.2756
41412SOL     OW26242   4.445   8.466   7.443 -0.2129 -0.4293  0.6195
41412SOL    HW126243   4.491   8.544   7.474 -0.4151 -0.0475 -0.0305
41412SOL    HW226244   4.356   8.476   7.477  0.2450 -1.3606  2.2128
41413SOL     OW26245   8.308  10.699   2.623 -0.1105 -0.9276  0.5303
41413SOL    HW126246   8.377  10.717   2.559 -0.3743 -0.2294  0.4389
41413SOL    HW226247   8.295  10.782   2.669 -0.7153 -1.1235  0.7229
41414SOL     OW26248   6.170   7.333   9.367 -1.1208  0.3867 -0.1803
41414SOL    HW126249   6.097   7.367   9.418 -0.2829  1.5096  0.3075
41414SOL    HW226250   6.173   7.389   9.289 -1.5256 -0.4320 -0.7981
41415SOL     OW26251   9.484   3.579   3.029  0.0713 -0.2886 -0.0348
41415SOL    HW126252   9.407   3.549   3.078  0.5323 -0.3698  0.6488
41415SOL    HW226253   9.557   3.569   3.090  0.7947 -1.1436 -1.0027
41416SOL     OW26254   0.153   7.075  10.767  0.2362 -0.3232  0.3649
41416SOL    HW126255   0.123   7.166  10.769  1.7317  0.2118  0.0408
41416SOL    HW226256   0.232   7.077  10.712 -0.1001 -1.9460 -0.2382
41417SOL     OW26257   6.377   1.783   7.270 -0.4229  0.0973  0.6269
41417SOL    HW126258   6.367   1.834   7.190 -1.4817 -0.3142  0.4736
41417SOL    HW226259   6.367   1.847   7.340  0.9681  0.5376  0.4497
41418SOL     OW26260   7.574   0.658  10.148  0.5082 -0.0188  0.7934
41418SOL    HW126261   7.569   0.744  10.105 -0.1371 -0.1609  0.5748
41418SOL    HW226262   7.599   0.598  10.078  0.0217 -0.1587  0.7368
41419SOL     OW26263   1.880   5.653   8.350 -0.7457 -0.0201 -0.0307
41419SOL    HW126264   1.858   5.562   8.332 -0.1452 -0.6252  2.0205
41419SOL    HW226265   1.976   5.655   8.354 -0.7433  0.7453 -0.2471
41420SOL     OW26266  10.357   2.571   8.223 -0.0794 -0.4401  0.2977
41420SOL    HW126267  10.380   2.577   8.316 -0.4430 -0.6658  0.4043
41420SOL    HW226268  10.261   2.571   8.222 -0.1526  2.3172 -0.2410
41421SOL     OW26269   2.581   7.262   4.196  0.2120  0.2151 -0.1721
41421SOL    HW126270   2.649   7.265   4.129 -0.6664  1.5244 -1.0825
41421SOL    HW226271   2.507   7.220   4.152 -0.2267  0.6739  0.1192
41422SOL     OW26272   1.962   9.498   5.095  0.5709 -0.2064 -0.0243
41422SOL    HW126273   1.935   9.527   5.008  1.3197 -0.7509 -0.4497
41422SOL    HW226274   2.057   9.489   5.089  0.4252 -2.4627  0.1583
41423SOL     OW26275   0.001   8.706   4.683  0.1060  0.4220  0.2648
41423SOL    HW126276   0.021   8.800   4.681  0.9644  0.2408 -0.0629
41423SOL    HW226277   0.055   8.669   4.614  1.6965 -0.6773  1.9934
41424SOL     OW26278   8.934   6.147   8.406  0.1138  0.3510 -0.0257
41424SOL    HW126279   8.951   6.237   8.432  0.0616  0.8864 -1.6841
41424SOL    HW226280   8.847   6.150   8.364  0.1485 -0.4433 -0.1772
41425SOL     OW26281   0.510  10.944   6.647 -0.3656 -0.1973  0.3852
41425SOL    HW126282   0.570  10.926   6.575 -1.0452 -0.3696 -0.1532
41425SOL    HW226283   0.564  10.940   6.725  0.7095  1.5270 -0.2186
41426SOL     OW26284   3.025  10.385   2.303 -0.1836  0.0396 -0.2127
41426SOL    HW126285   2.932  10.364   2.317 -0.0066 -0.3900  0.3690
41426SOL    HW226286   3.033  10.395   2.208 -0.9154  0.5290 -0.2398
41427SOL     OW26287   0.411   8.913   1.986  0.9222  0.6487  0.9006
41427SOL    HW126288   0.498   8.879   2.008  0.4173 -1.1604  0.2495
41427SOL    HW226289   0.358   8.895   2.064  1.1043  1.7723  1.3070
41428SOL     OW26290   7.551  10.869   3.491  0.1065 -0.0911 -0.2233
41428SOL    HW126291   7.583  10.922   3.565 -0.2395 -0.2903  0.0733
41428SOL    HW226292   7.578  10.918   3.413 -1.0121  1.0087  0.0534
41429SOL     OW26293   1.615  10.197   3.886  0.3299  0.1209  0.2787
41429SOL    HW126294   1.660  10.281   3.878 -1.0111  0.7450 -1.7066
41429SOL    HW226295   1.658  10.140   3.822  0.0701 -0.1300  0.3236
41430SOL     OW26296   6.587   5.547  10.138 -0.0540  1.0000 -0.6876
41430SOL    HW126297   6.645   5.493  10.085 -0.1583  0.3448 -0.1493
41430SOL    HW226298   6.638   5.626  10.156  1.1375 -0.0336  0.7348
41431SOL     OW26299  11.031   7.843   4.308 -0.3974  0.4893 -0.4092
41431SOL    HW126300  10.956   7.784   4.301 -0.6389  0.4914  1.4845
41431SOL    HW226301  11.027   7.897   4.229 -3.1815  1.3520  0.1946
41432SOL     OW26302  11.077   7.631   9.886  0.4583  0.1188 -0.6600
41432SOL    HW126303  11.068   7.725   9.902 -1.3957  0.3902 -2.7454
41432SOL    HW226304  11.161   7.622   9.840  1.3523  0.5029  0.8315
41433SOL     OW26305   5.229   6.201   2.314  0.2617 -0.4256  0.2469
41433SOL    HW126306   5.320   6.218   2.338 -0.6608  1.2644  2.9909
41433SOL    HW226307   5.232   6.117   2.268  2.9847 -1.4299  2.0117
41434SOL     OW26308   7.554   0.848   7.512  0.3944 -0.3148  0.0211
41434SOL    HW126309   7.474   0.821   7.557  0.8202 -0.6199  0.6097
41434SOL    HW226310   7.624   0.798   7.555  0.7974 -0.7283 -1.0840
41435SOL     OW26311   8.574   7.483   6.000  0.0496 -0.1999 -0.6306
41435SOL    HW126312   8.659   7.498   5.959  0.2054  1.3493  0.1882
41435SOL    HW226313   8.595   7.456   6.089 -0.3079 -0.7198 -0.7039
41436SOL     OW26314   9.586   2.236   4.880  0.5202  0.1149  0.4152
41436SOL    HW126315   9.667   2.246   4.830  2.0317 -1.7974  2.3411
41436SOL    HW226316   9.526   2.191   4.820  0.5358  2.1644 -1.2746
41437SOL     OW26317   4.911  11.003   9.215  0.5788  0.4010  0.0114
41437SOL    HW126318   4.830  10.979   9.260  1.2751  0.0169  1.1003
41437SOL    HW226319   4.901  11.097   9.196  0.3088  0.5936  1.0620
41438SOL     OW26320  10.605   2.603  10.092 -0.0622 -0.4706  0.1934
41438SOL    HW126321  10.605   2.542  10.166 -1.9454 -2.0609 -1.0016
41438SOL    HW226322  10.518   2.643  10.095 -0.2754 -0.7733 -1.2763
41439SOL     OW26323   3.152   7.317   9.581  0.1570  0.7869 -0.4902
41439SOL    HW126324   3.175   7.399   9.537  1.2184  0.5212 -0.4465
41439SOL    HW226325   3.222   7.304   9.645  0.2733 -0.4326 -0.8558
41440SOL     OW26326   6.888   3.052   2.872  0.1939 -0.1265  0.4564
41440SOL    HW126327   6.796   3.035   2.855 -0.4232  2.0010  1.3539
41440SOL    HW226328   6.921   3.090   2.790  0.2494 -0.7888  0.1707
41441SOL     OW26329   3.419   9.848   8.835  0.1280  0.2537  0.0296
41441SOL    HW126330   3.403   9.763   8.794 -0.4265  0.2791  0.1836
41441SOL    HW226331   3.384   9.839   8.924  0.4738  0.5019  0.1962
41442SOL     OW26332   3.429  10.225   6.288  0.2722 -0.2105 -0.1369
41442SOL    HW126333   3.405  10.191   6.374  2.4767  0.3618  0.7684
41442SOL    HW226334   3.392  10.313   6.285 -0.5825 -0.5530 -0.1928
41443SOL     OW26335   5.797   4.381   4.731 -0.2707  0.5920 -0.0870
41443SOL    HW126336   5.838   4.454   4.685  0.0327  2.3792  2.7453
41443SOL    HW226337   5.849   4.370   4.811 -2.3023 -0.4222  1.1962
41444SOL     OW26338   1.284   9.086   5.877  0.0941 -0.1644 -0.2519
41444SOL    HW126339   1.322   9.141   5.809 -0.9339 -0.0830 -0.7750
41444SOL    HW226340   1.304   8.996   5.850 -0.4068 -0.1378 -0.7353
41445SOL     OW26341   8.451   8.682   0.482 -0.5430  0.4578 -0.0245
41445SOL    HW126342   8.389   8.647   0.547 -0.2815  0.2628  0.1196
41445SOL    HW226343   8.397   8.738   0.426 -0.7668  0.6456  0.3741
41446SOL     OW26344  10.207   9.432   7.549  0.0316  0.4058 -0.4142
41446SOL    HW126345  10.293   9.391   7.551  0.4360  1.2310  1.4800
41446SOL    HW226346  10.148   9.364   7.584  0.0784  0.1969 -0.7381
41447SOL     OW26347   0.261   4.628   4.013  0.0297 -0.2728 -0.8572
41447SOL    HW126348   0.353   4.637   3.988  0.0439 -0.6340 -0.9430
41447SOL    HW226349   0.216   4.700   3.968  0.2332 -0.2395 -1.0078
41448SOL     OW26350   5.998   7.460   5.209  0.1524 -0.1463 -0.4346
41448SOL    HW126351   6.088   7.443   5.238  0.3380  2.1641  0.5737
41448SOL    HW226352   5.985   7.402   5.135  3.0015  0.4226 -1.5009
41449SOL     OW26353  10.118   7.929  10.335 -0.3324 -0.0401  0.2240
41449SOL    HW126354  10.151   8.012  10.299 -2.9057  1.5627  1.2486
41449SOL    HW226355  10.094   7.950  10.425 -0.0276 -2.2278  0.8478
41450SOL     OW26356  10.500   8.942   4.504  0.5408  0.0927  0.5836
41450SOL    HW126357  10.467   8.969   4.590 -2.0897  0.6275 -0.5058
41450SOL    HW226358  10.468   8.853   4.493 -0.9618  0.7442 -0.6415
41451SOL     OW26359   7.764   7.187   0.126 -0.1211 -0.2423  0.0286
41451SOL    HW126360   7.817   7.110   0.108 -1.3029 -1.1257  0.2529
41451SOL    HW226361   7.828   7.256   0.146  0.9414 -1.1671 -0.1070
41452SOL     OW26362   4.234   7.732   9.722  0.2151  0.6510 -0.0013
41452SOL    HW126363   4.181   7.712   9.645 -1.1234 -2.7045  1.6075
41452SOL    HW226364   4.183   7.798   9.769  1.1624  2.9299 -1.9314
41453SOL     OW26365   7.702   0.197   9.925 -0.0431 -0.4061  0.2603
41453SOL    HW126366   7.727   0.168   9.837 -0.7921 -2.2047  0.5872
41453SOL    HW226367   7.667   0.118   9.967  0.3185  0.4035  2.1917
41454SOL     OW26368  10.790   5.917   4.230  0.1910  0.0036  0.1676
41454SOL    HW126369  10.841   5.853   4.179  0.4064  1.1860 -1.1677
41454SOL    HW226370  10.836   6.000   4.216  0.4211  0.3406  2.5722
41455SOL     OW26371   5.911   9.358   1.510 -0.1284  0.4962  0.4264
41455SOL    HW126372   5.939   9.437   1.556 -0.7878  0.4862  0.8613
41455SOL    HW226373   5.886   9.388   1.423  2.3949  0.3333 -0.4590
41456SOL     OW26374   7.884  10.314   3.194  0.4708  0.1876 -0.5850
41456SOL    HW126375   7.894  10.223   3.165 -0.4263 -0.2977  0.5452
41456SOL    HW226376   7.938  10.320   3.273  1.4203  0.9760 -1.2640
41457SOL     OW26377   0.253   3.774   6.522  0.5196  0.1643  0.6699
41457SOL    HW126378   0.254   3.861   6.562  0.9377  0.4433  0.0734
41457SOL    HW226379   0.274   3.715   6.594  0.4697  0.5776  1.0317
41458SOL     OW26380   7.062   9.801   6.155 -0.2658  0.9300  0.0437
41458SOL    HW126381   6.981   9.778   6.200  0.1645 -2.3553 -0.6734
41458SOL    HW226382   7.052   9.769   6.066  1.4136  1.4139 -0.3721
41459SOL     OW26383   1.961   8.227   6.581 -0.1834  0.1609  0.3915
41459SOL    HW126384   1.921   8.214   6.667  0.6967 -1.7189  0.5703
41459SOL    HW226385   1.893   8.200   6.519 -0.4209  0.4082  0.5417
41460SOL     OW26386   4.612   3.424   5.316  0.0067 -0.0723  1.0384
41460SOL    HW126387   4.650   3.489   5.376  0.3475  0.3289  0.3995
41460SOL    HW226388   4.571   3.476   5.247 -0.1468 -0.5331  0.7778
41461SOL     OW26389   8.494  10.348   2.140  0.2718 -0.0903 -0.0189
41461SOL    HW126390   8.418  10.297   2.169 -0.2908  0.5103 -0.4006
41461SOL    HW226391   8.512  10.316   2.052  1.7900 -1.6983  0.8188
41462SOL     OW26392  10.321   9.897   4.201  0.3977  0.5426 -0.5075
41462SOL    HW126393  10.377   9.924   4.274  1.2022 -1.0890 -0.4965
41462SOL    HW226394  10.374   9.835   4.151 -1.0928 -0.4031 -0.9717
41463SOL     OW26395   9.185   0.168   0.754 -0.2944 -0.1190  0.1773
41463SOL    HW126396   9.260   0.114   0.728 -0.0569  0.7683 -1.0440
41463SOL    HW226397   9.144   0.193   0.672 -1.0610  0.6417  0.7805
41464SOL     OW26398   0.529   7.673   6.563 -0.2944 -0.2771 -0.3309
41464SOL    HW126399   0.483   7.757   6.570  0.1632 -0.0498  0.0091
41464SOL    HW226400   0.474   7.621   6.504  0.5056  1.0158 -2.3301
41465SOL     OW26401   2.963   7.504   3.992  0.3054 -0.5061 -0.7483
41465SOL    HW126402   2.956   7.508   3.897 -1.6487 -0.5358 -0.6503
41465SOL    HW226403   3.023   7.431   4.009  0.6261 -0.5372 -1.9547
41466SOL     OW26404   0.714   5.649   0.460 -0.1379  0.1742 -0.4147
41466SOL    HW126405   0.743   5.715   0.397 -0.3759 -0.1312 -0.8547
41466SOL    HW226406   0.621   5.639   0.443 -0.9065  2.2252  1.9763
41467SOL     OW26407   7.883   8.010   2.056  0.3787  0.4553 -0.6795
41467SOL    HW126408   7.819   8.067   2.015  0.0194 -0.2357 -1.1023
41467SOL    HW226409   7.950   7.996   1.988  0.1933 -0.0387 -0.7707
41468SOL     OW26410   1.300   1.674   1.706 -0.4010 -0.0474  0.6233
41468SOL    HW126411   1.279   1.691   1.798  0.5711  0.6955  0.7146
41468SOL    HW226412   1.372   1.733   1.686  0.3209 -1.1863 -0.2313
41469SOL     OW26413   9.653  10.636   8.490 -0.3107  0.4179 -0.2181
41469SOL    HW126414   9.657  10.718   8.441 -0.3644  0.2596 -0.4898
41469SOL    HW226415   9.744  10.611   8.505 -0.2953  0.7492  0.2386
41470SOL     OW26416   9.014   9.849   9.114  0.1685  0.0078  0.0892
41470SOL    HW126417   9.100   9.818   9.085  0.1580 -1.5916  1.5636
41470SOL    HW226418   8.954   9.823   9.044  0.4189 -2.0069  0.5620
41471SOL     OW26419   0.656   3.810   6.213  0.3139 -0.3465  0.4352
41471SOL    HW126420   0.715   3.858   6.272 -1.3051  1.6833  0.4882
41471SOL    HW226421   0.603   3.877   6.171  0.3819 -1.8510 -2.2738
41472SOL     OW26422   4.202   7.479   9.860  0.1901 -0.5375 -0.0300
41472SOL    HW126423   4.196   7.575   9.857 -0.4768 -0.5629  0.3882
41472SOL    HW226424   4.290   7.463   9.895  0.0905 -0.0666  0.4607
41473SOL     OW26425   9.829   6.531   1.124  0.1912 -0.1091  0.3765
41473SOL    HW126426   9.751   6.518   1.179  0.4723 -0.2081  0.7525
41473SOL    HW226427   9.854   6.622   1.141  0.0454 -0.0170  0.1069
41474SOL     OW26428   1.251   5.552   4.595  0.6294 -0.4347 -0.3460
41474SOL    HW126429   1.319   5.620   4.592  1.0996 -0.9301 -1.4892
41474SOL    HW226430   1.204   5.562   4.512 -0.7802 -0.0427  0.4702
41475SOL     OW26431  10.689   4.080   0.618 -0.8856 -0.2452 -0.5539
41475SOL    HW126432  10.633   4.081   0.695 -1.6930  1.1591 -1.1235
41475SOL    HW226433  10.629   4.091   0.544 -0.0632 -0.8887 -1.3429
41476SOL     OW26434   2.268   3.921   8.650 -0.1316  0.0247  0.2764
41476SOL    HW126435   2.220   3.852   8.604  1.6227  0.1938 -1.9847
41476SOL    HW226436   2.226   4.002   8.622  1.3952  0.1798 -1.7856
41477SOL     OW26437   7.068   9.826   2.882  0.3244  0.0956  0.1067
41477SOL    HW126438   7.045   9.737   2.859  0.1154  0.0444  0.5021
41477SOL    HW226439   7.163   9.831   2.869  0.2923 -0.0976 -0.1935
41478SOL     OW26440   8.567   1.035   4.734 -0.1378  0.2056  0.7761
41478SOL    HW126441   8.551   0.971   4.665  1.8815  0.1853  0.2783
41478SOL    HW226442   8.482   1.077   4.748 -0.9102 -0.8084 -0.6698
41479SOL     OW26443   9.748   7.617   5.732  0.5489 -0.3070 -0.6165
41479SOL    HW126444   9.801   7.697   5.727  0.2228 -0.0443 -0.0569
41479SOL    HW226445   9.736   7.590   5.641  1.4428 -0.2443 -0.7674
41480SOL     OW26446   6.107   7.753   3.380  0.0688  0.6475  0.1862
41480SOL    HW126447   6.106   7.722   3.289  0.0639 -0.5892  0.5859
41480SOL    HW226448   6.019   7.734   3.413 -0.2912  2.1387  0.1314
41481SOL     OW26449   8.446   0.417  10.284 -0.0822  0.2453 -0.3701
41481SOL    HW126450   8.424   0.510  10.288 -0.2797  0.2633 -1.4479
41481SOL    HW226451   8.438   0.386  10.374 -1.1598  1.0155 -0.1844
41482SOL     OW26452   4.747   8.277   1.803  0.4430  0.5232  0.3653
41482SOL    HW126453   4.756   8.268   1.898  0.2432 -1.3457  0.2352
41482SOL    HW226454   4.826   8.239   1.767 -0.1615 -0.1830 -0.2525
41483SOL     OW26455  10.368   9.661   9.901  0.0576  0.3990  0.5056
41483SOL    HW126456  10.281   9.640   9.867  0.2998 -0.0490  0.1603
41483SOL    HW226457  10.394   9.740   9.852  0.8939 -0.8865 -1.2638
41484SOL     OW26458  10.414   1.702   7.977  0.3913  0.2882  0.2624
41484SOL    HW126459  10.474   1.667   8.042 -1.1894  0.5380  1.9475
41484SOL    HW226460  10.462   1.698   7.895  3.2609  1.8986  1.7137
41485SOL     OW26461   6.019   4.823  11.016  0.1029  0.3287 -0.1446
41485SOL    HW126462   6.072   4.841  10.938 -1.7435  0.4896 -1.4078
41485SOL    HW226463   5.943   4.776  10.983 -0.4011 -0.2110  1.6802
41486SOL     OW26464   3.770   8.645   9.937 -0.3895  1.2132  0.0061
41486SOL    HW126465   3.859   8.618   9.914 -0.6965 -0.0368  0.2238
41486SOL    HW226466   3.772   8.740   9.930  0.8722  1.1866 -0.3249
41487SOL     OW26467   4.200   1.041   2.606 -0.1920 -0.3032  0.0680
41487SOL    HW126468   4.217   1.002   2.520 -0.0617  0.3222 -0.1912
41487SOL    HW226469   4.278   1.019   2.658  0.3130  0.4231 -0.3661
41488SOL     OW26470   3.128   8.409   3.109  0.2249 -0.1699 -0.6071
41488SOL    HW126471   3.129   8.340   3.175  0.5578 -0.6404 -1.0909
41488SOL    HW226472   3.213   8.453   3.120 -0.8650  1.6371  1.1892
41489SOL     OW26473   5.869   9.188  11.082  0.2912  0.3054  0.0608
41489SOL    HW126474   5.882   9.267  11.029  0.0773  0.3923  0.1364
41489SOL    HW226475   5.951   9.140  11.074  0.7943  1.0059  0.8016
41490SOL     OW26476   7.668   8.318   5.454  0.5086  0.7171 -0.3272
41490SOL    HW126477   7.677   8.376   5.378  1.7818  0.6159 -0.2691
41490SOL    HW226478   7.750   8.269   5.457  0.5646  0.8456  1.2119
41491SOL     OW26479   1.293   8.220   4.404  0.3547  0.1355 -0.8306
41491SOL    HW126480   1.199   8.215   4.389 -0.0944 -0.4692  1.6759
41491SOL    HW226481   1.327   8.137   4.372 -0.0451  0.0902 -1.1482
41492SOL     OW26482   2.103   8.159   7.086 -0.1894  0.3743 -0.2029
41492SOL    HW126483   2.178   8.212   7.112  1.0271 -0.6991 -1.4008
41492SOL    HW226484   2.139   8.091   7.030 -2.1441  0.2250 -1.3825
41493SOL     OW26485  10.610   7.961   1.204 -0.2913 -0.0650  0.2567
41493SOL    HW126486  10.523   8.000   1.193 -0.4865  0.0563  1.9571
41493SOL    HW226487  10.670   8.035   1.193 -0.3910 -0.1333 -0.8475
41494SOL     OW26488   5.775   9.890   4.221  0.8258 -0.8447 -0.1540
41494SOL    HW126489   5.684   9.861   4.222  0.5178 -0.0118 -1.3779
41494SOL    HW226490   5.817   9.843   4.293 -0.7074 -0.7824  0.8142
41495SOL     OW26491   4.502   6.754   3.998  0.1199  0.4598  0.4064
41495SOL    HW126492   4.584   6.711   4.022  1.4796  2.2970 -0.6725
41495SOL    HW226493   4.491   6.822   4.064  0.5966  1.5286 -0.5736
41496SOL     OW26494   5.881   2.044   5.345 -0.6533  0.9345  0.3851
41496SOL    HW126495   5.863   2.131   5.310 -0.0090  1.7687  2.0643
41496SOL    HW226496   5.962   2.017   5.302  0.1509  1.9586  1.2241
41497SOL     OW26497   4.697   9.751   2.700  0.0297 -0.0760 -0.5757
41497SOL    HW126498   4.670   9.736   2.609  0.6883  1.4946 -1.0725
41497SOL    HW226499   4.792   9.738   2.699  0.0845  0.2745 -0.1981
41498SOL     OW26500   5.292   7.060   9.637  0.5350  0.3974 -0.0185
41498SOL    HW126501   5.287   7.139   9.691 -1.3746 -0.0148  0.5093
41498SOL    HW226502   5.228   7.075   9.567  0.4524 -0.4951 -0.1480
41499SOL     OW26503   8.893   6.805   1.213  0.0138 -0.1115 -0.5378
41499SOL    HW126504   8.983   6.773   1.225  0.0730  0.6280  1.3099
41499SOL    HW226505   8.902   6.900   1.206 -0.6234 -0.0388 -0.4276
41500SOL     OW26506   7.743   6.802   3.594 -0.6060  0.0135  0.6043
41500SOL    HW126507   7.776   6.874   3.540 -2.4447  0.0051 -0.6121
41500SOL    HW226508   7.734   6.840   3.682  0.2603  0.6751  0.4285
41501SOL     OW26509   2.085   5.679   7.518 -0.8852  0.0092  0.2429
41501SOL    HW126510   2.146   5.749   7.495 -0.1084 -1.5864 -3.2213
41501SOL    HW226511   2.059   5.699   7.608  2.7048  2.2229  1.0123
41502SOL     OW26512   6.884   8.176   8.129  0.2050  0.4242  0.5183
41502SOL    HW126513   6.873   8.254   8.183 -2.2827  0.8928 -0.5446
41502SOL    HW226514   6.839   8.196   8.047 -0.6724 -2.1483  0.2739
41503SOL     OW26515   8.332   8.622   3.784 -0.1477 -0.0271 -0.5910
41503SOL    HW126516   8.346   8.659   3.871  0.5948  0.7895 -1.0433
41503SOL    HW226517   8.399   8.554   3.776 -1.5220 -1.5521  0.2458
41504SOL     OW26518  10.396   6.356   4.222 -0.1987  0.0361  0.3098
41504SOL    HW126519  10.332   6.427   4.216  0.3753  0.4664 -1.0995
41504SOL    HW226520  10.416   6.334   4.131  0.7213 -0.9417  0.7297
41505SOL     OW26521   0.915   6.965   8.114  0.2698 -0.1402 -0.5726
41505SOL    HW126522   0.937   7.049   8.155 -1.2709 -0.5610  1.3117
41505SOL    HW226523   0.938   6.976   8.022 -0.6349  2.6517 -0.5583
41506SOL     OW26524   6.062   6.040   7.595 -0.3591  0.3210  0.2402
41506SOL    HW126525   6.005   5.971   7.562  0.2695  0.4900 -1.2934
41506SOL    HW226526   6.014   6.121   7.577  0.1133  0.4320 -0.5837
41507SOL     OW26527  10.317  10.785   7.985 -0.2789 -0.1669 -0.1838
41507SOL    HW126528  10.285  10.727   8.055 -1.2099  0.9685  0.3639
41507SOL    HW226529  10.238  10.810   7.937  0.1848  0.1956 -0.7656
41508SOL     OW26530   1.186  10.943   6.400 -0.2076 -0.0874  0.1263
41508SOL    HW126531   1.245  10.884   6.352  2.3818  1.6598  0.9209
41508SOL    HW226532   1.185  11.023   6.348  0.9615  1.0910  1.8133
41509SOL     OW26533   7.701   7.454   5.139  0.6673  0.3308  0.1066
41509SOL    HW126534   7.655   7.517   5.194  1.1725 -0.0394  0.9595
41509SOL    HW226535   7.793   7.459   5.167  1.1633  0.9584 -1.4630
41510SOL     OW26536   0.171   8.184   5.427 -0.2044 -0.2204  0.0971
41510SOL    HW126537   0.212   8.101   5.403  0.2116 -0.0422  0.1933
41510SOL    HW226538   0.080   8.175   5.397 -0.2918 -0.9003  0.5536
41511SOL     OW26539   9.906  10.723   6.570  0.3087  0.0859  0.0372
41511SOL    HW126540   9.950  10.771   6.500  0.2834 -1.0278 -0.7572
41511SOL    HW226541   9.969  10.721   6.642  0.5393  0.7614 -0.1454
41512SOL     OW26542   7.657   6.399   0.601 -0.0900  0.3103  0.1087
41512SOL    HW126543   7.636   6.475   0.654  0.2481 -0.6749  1.7385
41512SOL    HW226544   7.734   6.361   0.644  0.5581 -0.2170 -1.4423
41513SOL     OW26545   6.185   8.893   1.761 -0.0448  0.2699 -0.0081
41513SOL    HW126546   6.194   8.969   1.703  1.6677  2.0710  2.4188
41513SOL    HW226547   6.259   8.837   1.739 -0.1502  0.2852 -0.4140
41514SOL     OW26548   6.251   5.214   7.997 -0.0293 -0.3354  0.2493
41514SOL    HW126549   6.325   5.221   7.937 -0.7158  1.2724 -0.4544
41514SOL    HW226550   6.175   5.241   7.946 -1.2504 -2.5151  0.7755
41515SOL     OW26551   5.863   4.838   5.953  0.4107  0.2058  0.1401
41515SOL    HW126552   5.769   4.826   5.938  0.2172  2.1145 -0.4354
41515SOL    HW226553   5.879   4.797   6.038 -0.5694 -1.6458 -0.4905
41516SOL     OW26554   0.336   0.286   4.527  0.3383 -0.0279 -0.1848
41516SOL    HW126555   0.303   0.232   4.456 -0.3824  0.6677 -0.3942
41516SOL    HW226556   0.365   0.367   4.484 -3.4740  1.9755  0.5827
41517SOL     OW26557   8.658   2.745   0.410 -0.7156 -0.0353  0.6487
41517SOL    HW126558   8.644   2.651   0.423  2.2943 -0.6722  0.0944
41517SOL    HW226559   8.679   2.753   0.317 -1.4444  1.3205  0.5707
41518SOL     OW26560   2.293   5.192   4.185 -1.0141  0.2239 -0.4651
41518SOL    HW126561   2.241   5.268   4.160 -0.6391  0.3061 -1.0036
41518SOL    HW226562   2.379   5.228   4.207 -0.6239 -0.1209 -1.4048
41519SOL     OW26563  10.093   9.804   3.617  0.0229  0.5842  0.3133
41519SOL    HW126564  10.154   9.877   3.624 -0.4894  0.9417  1.2124
41519SOL    HW226565  10.014   9.835   3.660 -0.6502 -0.0343 -0.4571
41520SOL     OW26566   5.976   5.945   9.654 -0.4490  0.1652 -0.8668
41520SOL    HW126567   6.070   5.960   9.651 -0.5412  0.7245 -1.0905
41520SOL    HW226568   5.938   6.015   9.601 -0.9912 -0.0527 -0.7826
41521SOL     OW26569   8.471  10.009   4.992  0.0494  0.2086  0.6707
41521SOL    HW126570   8.510   9.926   4.962 -1.0935  0.0972 -0.5609
41521SOL    HW226571   8.546  10.068   5.001  0.6205 -0.2329 -0.8826
41522SOL     OW26572   8.166   8.813   2.886 -0.1963 -0.5766 -0.7155
41522SOL    HW126573   8.228   8.792   2.956 -1.7636 -0.3998  0.7944
41522SOL    HW226574   8.096   8.749   2.897 -2.0880  1.4998  0.0472
41523SOL     OW26575   8.219   5.883   3.368 -0.2631 -0.0730  0.0634
41523SOL    HW126576   8.136   5.915   3.402 -0.0944 -1.4875  1.9490
41523SOL    HW226577   8.199   5.794   3.338 -0.3540  0.9897 -3.5197
41524SOL     OW26578   1.513   4.611   8.525 -0.3249  0.1445  0.1919
41524SOL    HW126579   1.604   4.626   8.502  0.1386 -0.6124  1.4208
41524SOL    HW226580   1.516   4.575   8.614 -1.8909  1.2561  0.7504
41525SOL     OW26581   9.323   7.579   2.888 -0.2261 -0.1242 -0.4438
41525SOL    HW126582   9.259   7.572   2.818 -0.9193  1.2979  0.0025
41525SOL    HW226583   9.271   7.594   2.967  0.5153 -2.0891  0.4827
41526SOL     OW26584   7.117   5.075   6.118  0.0536 -0.0394  0.4575
41526SOL    HW126585   7.127   4.981   6.101 -0.9785  0.3130 -2.9223
41526SOL    HW226586   7.093   5.080   6.211 -0.8856 -3.2012  0.5177
41527SOL     OW26587   1.473   2.104   2.682  0.3753  0.3226  0.0595
41527SOL    HW126588   1.387   2.101   2.640  0.2159 -0.5911  0.4103
41527SOL    HW226589   1.534   2.080   2.613  0.4378  1.6794 -0.3749
41528SOL     OW26590  10.656   0.938   1.190 -0.4764 -0.1485  0.1133
41528SOL    HW126591  10.637   0.971   1.102 -0.6538  0.3842  0.3458
41528SOL    HW226592  10.751   0.931   1.192 -0.3096  1.6901  0.5031
41529SOL     OW26593   9.545   0.174   6.616 -0.4609  0.6491 -0.4109
41529SOL    HW126594   9.591   0.224   6.684 -0.0702 -1.0222  0.6157
41529SOL    HW226595   9.517   0.094   6.660 -1.0820 -0.0425 -1.9907
41530SOL     OW26596   8.455   6.543   8.822  0.0920 -0.5145  0.3613
41530SOL    HW126597   8.517   6.611   8.846 -0.5367  0.0295  0.4804
41530SOL    HW226598   8.442   6.492   8.902 -1.2633  0.7063  0.9714
41531SOL     OW26599   0.976   6.159   2.972  0.0638  0.1095 -0.7256
41531SOL    HW126600   1.032   6.101   2.920 -0.4346  0.0333 -1.1830
41531SOL    HW226601   0.933   6.216   2.908 -0.4217  0.1333 -0.3861
41532SOL     OW26602  10.204   5.062  10.323  0.5994  0.3958 -0.1759
41532SOL    HW126603  10.124   5.098  10.284  1.4004  1.5673 -0.7829
41532SOL    HW226604  10.208   4.972  10.289 -1.4737 -0.3860  1.4392
41533SOL     OW26605   0.762   0.891   7.199  0.2203  0.1171  0.3253
41533SOL    HW126606   0.775   0.968   7.254  1.5868 -0.1107  0.3612
41533SOL    HW226607   0.708   0.922   7.126  0.9342  1.1680  0.2254
41534SOL     OW26608   0.141   6.984   2.586  0.2141  0.3205 -0.4573
41534SOL    HW126609   0.165   7.015   2.499  0.0626 -1.0511 -1.0171
41534SOL    HW226610   0.212   6.925   2.611 -0.1335  0.0933  0.0070
41535SOL     OW26611   7.501   6.905   6.238 -0.2221 -0.5799  0.0689
41535SOL    HW126612   7.514   6.904   6.143  1.2120 -0.1584  0.2387
41535SOL    HW226613   7.413   6.941   6.250 -0.0197  0.3316 -1.0617
41536SOL     OW26614   1.454   6.884   5.578 -0.2103  0.0202 -0.2108
41536SOL    HW126615   1.388   6.864   5.512 -0.7321 -0.3567  0.4087
41536SOL    HW226616   1.466   6.979   5.572  1.5456 -0.2522 -2.4913
41537SOL     OW26617   7.294   1.938   2.483  0.7165 -0.0512 -0.2768
41537SOL    HW126618   7.357   1.999   2.445  1.2534 -1.6780 -2.1523
41537SOL    HW226619   7.301   1.859   2.429 -1.3465 -1.0853  0.8484
41538SOL     OW26620   8.680   4.611   9.720  0.0494  0.5944  0.2182
41538SOL    HW126621   8.700   4.654   9.637  1.1616 -1.2145 -0.5318
41538SOL    HW226622   8.721   4.667   9.787  1.0364  0.9671 -0.6661
41539SOL     OW26623   1.461   3.231   9.341  0.0988 -0.0118 -0.2349
41539SOL    HW126624   1.434   3.253   9.430 -3.7938  1.5078 -1.5488
41539SOL    HW226625   1.516   3.305   9.314  0.3501  0.0915  0.5306
41540SOL     OW26626   9.070   3.734   6.643  0.0286 -0.3725 -0.1340
41540SOL    HW126627   9.024   3.716   6.561 -0.1196  0.7053 -0.3033
41540SOL    HW226628   9.006   3.713   6.712 -0.2994 -0.0254 -0.3324
41541SOL     OW26629   4.289   5.961   1.784 -0.2380  0.0090  0.3613
41541SOL    HW126630   4.242   6.044   1.776 -0.5567 -0.1461  0.6054
41541SOL    HW226631   4.231   5.896   1.744  0.0999 -0.0664 -0.0139
41542SOL     OW26632   2.260   9.144   0.970 -0.2002  0.0403 -0.1152
41542SOL    HW126633   2.173   9.178   0.951  0.2404  0.9297 -0.6065
41542SOL    HW226634   2.263   9.139   1.066 -0.7863  0.0036 -0.0949
41543SOL     OW26635   6.953   8.878   9.884 -0.1572 -0.1921  0.2974
41543SOL    HW126636   6.936   8.789   9.912 -0.8611 -0.4600 -0.9390
41543SOL    HW226637   7.045   8.877   9.855  0.0225 -0.3459  0.8578
41544SOL     OW26638   8.936   1.167   1.715  0.0135  0.5118 -0.2199
41544SOL    HW126639   8.900   1.212   1.639 -0.1759  1.9134  0.6742
41544SOL    HW226640   8.860   1.149   1.770  0.0133 -1.3820 -0.7622
41545SOL     OW26641   7.142   4.666   8.028 -0.2044 -0.3944  0.3043
41545SOL    HW126642   7.179   4.578   8.039 -0.8019 -0.6077  0.6409
41545SOL    HW226643   7.052   4.658   8.060  0.2510  0.7643  1.9754
41546SOL     OW26644   0.593   0.788   9.017 -0.1578 -0.2104 -0.2131
41546SOL    HW126645   0.629   0.724   9.079  0.0291 -0.3711 -0.4868
41546SOL    HW226646   0.663   0.851   9.005 -0.7470  0.7037  0.9576
41547SOL     OW26647   9.475   7.337   6.186  0.5420  0.6276 -0.1699
41547SOL    HW126648   9.471   7.421   6.233  0.3219  0.5225  0.0006
41547SOL    HW226649   9.498   7.361   6.096  0.5425  0.8666 -0.1066
41548SOL     OW26650   9.160   6.599   9.249  0.3894 -0.0223 -0.4707
41548SOL    HW126651   9.173   6.644   9.332 -1.3717  1.6368 -1.0077
41548SOL    HW226652   9.159   6.669   9.184 -0.3585 -1.0539 -1.6139
41549SOL     OW26653   8.678   7.824   1.353  0.2815  0.6344 -0.1079
41549SOL    HW126654   8.708   7.828   1.443 -0.3758 -1.4094  0.2438
41549SOL    HW226655   8.585   7.800   1.360 -0.9874  4.4068 -1.2279
41550SOL     OW26656   6.104   4.876   7.993 -0.1155  0.3399  0.8380
41550SOL    HW126657   6.106   4.962   7.952  0.2191 -0.2862 -0.5140
41550SOL    HW226658   6.195   4.856   8.012  0.0210 -0.4384 -0.4882
41551SOL     OW26659   4.499   1.167   4.156 -0.0882 -0.6111 -0.4821
41551SOL    HW126660   4.465   1.130   4.075 -1.3053 -0.1392 -0.2113
41551SOL    HW226661   4.567   1.105   4.184 -2.8300 -3.3711  0.5842
41552SOL     OW26662  10.442  10.273   6.228 -0.0621 -0.0465 -0.6351
41552SOL    HW126663  10.364  10.290   6.175 -1.0766 -1.3209  0.3913
41552SOL    HW226664  10.427  10.187   6.267  1.2324  0.2817  0.6904
41553SOL     OW26665   9.357  10.710  10.991 -0.1678 -0.0480  0.4565
41553SOL    HW126666   9.323  10.738  10.906 -0.8113 -0.8484  0.4394
41553SOL    HW226667   9.432  10.655  10.970  0.2081  0.4658  0.4412
41554SOL     OW26668   5.679   5.944   8.948 -0.3002 -0.2757  0.8209
41554SOL    HW126669   5.774   5.942   8.951 -0.3018  0.3532  1.8345
41554SOL    HW226670   5.651   5.882   9.016 -0.6384 -1.4639 -0.3693
41555SOL     OW26671   8.731  10.365   3.658 -0.1408  0.2407  0.0826
41555SOL    HW126672   8.640  10.363   3.687 -0.2867 -1.0245 -0.4043
41555SOL    HW226673   8.738  10.292   3.596  1.4155 -0.2380  0.7777
41556SOL     OW26674  10.376   1.463  10.130  0.1042  0.1963 -0.0043
41556SOL    HW126675  10.301   1.523  10.132  0.9174  1.2963 -1.2362
41556SOL    HW226676  10.452   1.520  10.122  1.0821 -0.9190  0.9588
41557SOL     OW26677   8.102   9.916   5.412 -0.2037 -0.1184  0.2696
41557SOL    HW126678   8.085   9.945   5.501 -0.7339  0.7013 -0.0853
41557SOL    HW226679   8.181   9.963   5.386 -0.3691  0.0726  0.1133
41558SOL     OW26680   3.320   2.470  10.017  0.2072  0.2104  0.4586
41558SOL    HW126681   3.403   2.510   9.989 -0.2746 -0.0901 -1.5453
41558SOL    HW226682   3.281   2.437   9.936 -0.6926 -1.9376  1.6859
41559SOL     OW26683   5.491   5.578   8.094  0.4793  0.1926 -0.1133
41559SOL    HW126684   5.411   5.603   8.048 -0.7450 -0.8120  1.3497
41559SOL    HW226685   5.537   5.521   8.033 -0.6613 -0.3782 -0.4769
41560SOL     OW26686   7.165   6.438   8.038 -0.1000  0.2238 -0.0613
41560SOL    HW126687   7.135   6.432   7.948 -1.4059 -2.2576  0.4389
41560SOL    HW226688   7.248   6.390   8.039  0.1609  0.6732 -0.0298
41561SOL     OW26689   3.285   2.866   3.143  0.5876  0.2035 -0.4265
41561SOL    HW126690   3.295   2.809   3.219  0.0554  0.4317 -0.1811
41561SOL    HW226691   3.249   2.809   3.075  0.0121  0.2523 -0.1684
41562SOL     OW26692   9.859   9.706   4.284 -0.3036 -0.4731 -0.0249
41562SOL    HW126693   9.912   9.757   4.222 -0.9876  0.6675  0.3017
41562SOL    HW226694   9.797   9.769   4.320 -0.4655 -1.3037  1.2122
41563SOL     OW26695   5.092   4.867   1.572  0.1858  0.2148 -0.2835
41563SOL    HW126696   5.082   4.772   1.580  0.2029  0.3356  1.6733
41563SOL    HW226697   5.158   4.889   1.638 -1.6639  1.8713  1.0990
41564SOL     OW26698   6.818   2.029   2.505 -0.0873 -0.3359 -0.0609
41564SOL    HW126699   6.889   1.966   2.515  0.6542  0.1142 -2.0697
41564SOL    HW226700   6.750   1.998   2.565  0.1887 -3.1322 -1.0259
41565SOL     OW26701   4.738   3.555   9.132  0.5405 -0.1714 -0.0247
41565SOL    HW126702   4.707   3.644   9.151  1.5752  0.2384 -0.1455
41565SOL    HW226703   4.708   3.537   9.043 -0.2936 -0.2313  0.2671
41566SOL     OW26704   9.838   7.634   6.291  0.1592 -0.8248 -0.2398
41566SOL    HW126705   9.849   7.567   6.224  0.8635 -1.5525  0.5831
41566SOL    HW226706   9.795   7.707   6.245 -0.3829 -1.7250 -1.2038
41567SOL     OW26707   0.244   1.889   2.404 -0.3431  0.0415 -0.1880
41567SOL    HW126708   0.165   1.901   2.352 -0.8035 -0.3045  0.4255
41567SOL    HW226709   0.316   1.902   2.341 -0.8688  0.6988 -0.6740
41568SOL     OW26710   7.259   6.418  10.694  0.1406  0.0018 -0.0965
41568SOL    HW126711   7.229   6.402  10.604  1.1092 -1.1181 -0.2299
41568SOL    HW226712   7.198   6.485  10.727 -0.1392  0.5518 -1.6223
41569SOL     OW26713   8.143  10.989  11.096  0.4162  0.0011 -0.0498
41569SOL    HW126714   8.061  10.940  11.091  0.3333  0.2043 -0.6605
41569SOL    HW226715   8.205  10.938  11.043  0.3149  0.5771 -0.7324
41570SOL     OW26716   0.096   4.253   6.471 -0.4202 -0.9544 -0.2406
41570SOL    HW126717   0.082   4.263   6.377  0.4117 -0.0621 -0.2937
41570SOL    HW226718   0.137   4.336   6.497  1.3269 -1.9950  0.4951
41571SOL     OW26719   8.375   1.785   9.869  0.7740 -0.4503 -0.1754
41571SOL    HW126720   8.330   1.750   9.946 -0.2708 -0.4142 -0.7498
41571SOL    HW226721   8.356   1.722   9.800  0.6345  0.1574 -0.7044
41572SOL     OW26722   3.870   1.000   6.329  0.0135  0.1374  0.1385
41572SOL    HW126723   3.838   1.062   6.262  0.1433  1.5063  1.3026
41572SOL    HW226724   3.965   1.006   6.323  0.0270 -0.0656  0.1590
41573SOL     OW26725   2.040   0.376   6.327  0.3047 -0.1094 -0.4455
41573SOL    HW126726   2.017   0.454   6.277 -0.5511  0.1554  0.3365
41573SOL    HW226727   1.970   0.313   6.306  0.3185 -0.2331 -0.1226
41574SOL     OW26728   9.985   9.012  10.308  0.0184  0.4094 -0.4437
41574SOL    HW126729  10.070   8.972  10.295 -0.7622 -1.8153  0.8540
41574SOL    HW226730   9.932   8.980  10.236 -0.4414 -0.4591  0.2612
41575SOL     OW26731   8.450  10.490   5.302  0.2738 -0.2432  0.5679
41575SOL    HW126732   8.473  10.550   5.372 -2.2374  0.7351  0.6648
41575SOL    HW226733   8.386  10.538   5.249  1.2997 -1.3282 -1.8021
41576SOL     OW26734   4.542   6.852   6.350  0.3522  0.4661  0.4821
41576SOL    HW126735   4.546   6.946   6.332  0.8466  0.1884 -1.0452
41576SOL    HW226736   4.456   6.825   6.317  0.8021  0.1490 -0.4788
41577SOL     OW26737   1.648   6.809   9.517 -0.4137  0.7291  0.1209
41577SOL    HW126738   1.580   6.857   9.564 -0.5904  0.7145 -0.1216
41577SOL    HW226739   1.711   6.877   9.491 -0.0388  0.6653  0.8490
41578SOL     OW26740   5.864   4.839   4.683 -0.1126 -0.1377 -0.3488
41578SOL    HW126741   5.787   4.802   4.727 -1.0002  0.3324 -1.4512
41578SOL    HW226742   5.935   4.780   4.706 -0.3513  0.4645  2.2744
41579SOL     OW26743   6.478   7.744   0.983 -0.7215  0.0579  0.1720
41579SOL    HW126744   6.473   7.794   0.902 -0.7702 -0.0127  0.1318
41579SOL    HW226745   6.499   7.655   0.956  0.1069  0.2056  0.2896
41580SOL     OW26746   7.022   1.764   7.806  0.3509  0.3759 -0.3629
41580SOL    HW126747   7.114   1.755   7.781  0.7450  3.4466 -0.3712
41580SOL    HW226748   6.981   1.804   7.729 -0.2692  1.9609  0.7485
41581SOL     OW26749   2.698   7.481   2.614  0.1522  0.9785 -0.1556
41581SOL    HW126750   2.685   7.448   2.703 -2.7518  0.5962 -0.6146
41581SOL    HW226751   2.768   7.426   2.578 -0.3709 -0.5946  1.0939
41582SOL     OW26752   8.274   7.660   4.924 -0.2319  0.1748  0.2014
41582SOL    HW126753   8.220   7.626   4.995  0.4272  0.1619  0.7137
41582SOL    HW226754   8.355   7.608   4.929  0.1981  0.8139  0.0568
41583SOL     OW26755   8.496   9.194   9.691 -0.1218 -0.1356 -0.0414
41583SOL    HW126756   8.491   9.209   9.596 -1.2138 -0.2849 -0.0195
41583SOL    HW226757   8.500   9.282   9.729 -0.6822 -0.0537 -0.1775
41584SOL     OW26758   6.170   0.523   2.568 -0.1345 -0.3362 -0.6115
41584SOL    HW126759   6.236   0.522   2.499  0.7684  0.1494  0.2126
41584SOL    HW226760   6.165   0.615   2.594 -0.8944 -0.4266 -0.4311
41585SOL     OW26761   0.675   3.267   6.787 -0.1975 -0.2501  0.3005
41585SOL    HW126762   0.605   3.325   6.757 -0.3989 -0.3095  0.6419
41585SOL    HW226763   0.648   3.179   6.761  0.1492 -0.1869 -0.2925
41586SOL     OW26764  10.972   4.296   7.324 -0.6325 -0.1458  0.1172
41586SOL    HW126765  11.026   4.246   7.385 -1.2234  0.7350  1.4234
41586SOL    HW226766  10.887   4.253   7.326 -0.6956 -0.0271  0.0391
41587SOL     OW26767  11.027   9.533   3.788 -0.3824 -0.1157  0.2749
41587SOL    HW126768  11.037   9.521   3.694  1.9840 -1.4734  0.6306
41587SOL    HW226769  10.988   9.452   3.819 -1.1213  0.3127  0.4999
41588SOL     OW26770   7.932   8.869   0.268 -0.4735  0.1442 -0.0091
41588SOL    HW126771   7.905   8.900   0.181 -0.5794  1.0001  0.3164
41588SOL    HW226772   7.959   8.778   0.254 -0.1597  0.3745 -1.0047
41589SOL     OW26773   2.384   7.711   3.666 -0.4547 -0.2102 -0.2330
41589SOL    HW126774   2.366   7.751   3.751  1.6030  0.3985 -0.0400
41589SOL    HW226775   2.368   7.780   3.602 -0.6296 -0.2454 -0.2277
41590SOL     OW26776   1.659   5.096   3.018 -0.3690 -0.0004  0.3847
41590SOL    HW126777   1.589   5.151   3.055 -0.1024  0.8473 -0.3419
41590SOL    HW226778   1.703   5.153   2.955  0.6920 -0.6747  0.5026
41591SOL     OW26779   5.914  10.388   2.587 -0.0944 -0.5751 -0.3809
41591SOL    HW126780   5.945  10.352   2.670  0.3710 -1.1440 -0.7909
41591SOL    HW226781   5.883  10.476   2.609  1.9954  0.1150  0.0336
41592SOL     OW26782   6.055   4.957   0.348  0.2811 -1.0300 -0.1036
41592SOL    HW126783   6.060   4.888   0.413 -0.3530 -0.3204  0.7172
41592SOL    HW226784   6.020   5.033   0.395  0.6289 -0.2458 -1.0572
41593SOL     OW26785   2.812   5.570   7.475 -0.1567  0.3498  0.1888
41593SOL    HW126786   2.792   5.565   7.568 -0.1600  1.5438  0.2577
41593SOL    HW226787   2.901   5.605   7.471  0.2962 -0.7708 -0.2466
41594SOL     OW26788  10.921   0.365   3.128 -0.3460  0.1689  0.5897
41594SOL    HW126789  10.870   0.283   3.128 -0.1278  0.0322  0.4363
41594SOL    HW226790  10.919   0.394   3.037  0.5239 -0.2608  0.4289
41595SOL     OW26791   4.932   8.450   3.881  0.2706 -0.5679  0.0200
41595SOL    HW126792   4.930   8.439   3.976  0.6056 -0.8312  0.0011
41595SOL    HW226793   4.840   8.451   3.854  0.1571  0.1673  0.4172
41596SOL     OW26794   3.839   9.675   5.287 -0.6101  0.1942  0.1118
41596SOL    HW126795   3.790   9.753   5.315 -0.0583 -0.4796  3.4245
41596SOL    HW226796   3.788   9.602   5.321  0.5809 -0.7194 -0.0080
41597SOL     OW26797   2.910   4.785   6.307 -0.3030 -0.1027 -0.0828
41597SOL    HW126798   2.910   4.691   6.293  0.5753 -0.0321 -0.6447
41597SOL    HW226799   2.913   4.822   6.218  2.9923  0.4002  0.1254
41598SOL     OW26800   6.924   2.519   6.055 -0.1987 -0.6442 -0.3921
41598SOL    HW126801   6.851   2.482   6.106  0.2412 -1.9884 -0.6767
41598SOL    HW226802   6.889   2.527   5.966 -0.6164  0.6273 -0.1192
41599SOL     OW26803   1.583   4.869   8.765 -0.0132 -1.0531  0.2442
41599SOL    HW126804   1.669   4.861   8.724  0.4242  1.7299  0.3884
41599SOL    HW226805   1.522   4.870   8.692  0.4370  0.2976 -0.1506
41600SOL     OW26806  10.019   2.839   1.140  0.3491  0.2058  0.0571
41600SOL    HW126807   9.926   2.828   1.159  0.4016 -1.9943 -0.7372
41600SOL    HW226808  10.063   2.786   1.206  0.9134 -0.6891 -1.0193
41601SOL     OW26809   1.564   6.956   7.488  0.5708  0.0486 -0.7528
41601SOL    HW126810   1.600   7.038   7.456 -1.0038  1.1790  0.2007
41601SOL    HW226811   1.474   6.955   7.454  0.3512 -0.9372 -0.1778
41602SOL     OW26812   3.039  11.006   8.006  0.0395  0.1348 -0.3591
41602SOL    HW126813   3.085  10.947   7.945  0.1851  0.6745 -0.7860
41602SOL    HW226814   3.074  11.093   7.985 -0.6114  0.4506 -0.1470
41603SOL     OW26815   2.213   7.197   8.945 -0.0141  0.0500 -0.0150
41603SOL    HW126816   2.174   7.168   9.028 -0.1037 -1.6667 -0.6117
41603SOL    HW226817   2.244   7.286   8.963 -2.3284  0.7243  1.1056
41604SOL     OW26818   2.833   1.809   3.850 -0.5203 -0.1383 -0.3942
41604SOL    HW126819   2.864   1.720   3.833 -0.1253 -0.1424  0.3418
41604SOL    HW226820   2.744   1.797   3.883 -1.1226 -0.1563 -1.9568
41605SOL     OW26821   3.334   3.339   6.259 -0.3189  0.5432  0.1398
41605SOL    HW126822   3.269   3.276   6.228  1.3874 -1.5134  0.5078
41605SOL    HW226823   3.363   3.304   6.343  2.8750  0.0497 -1.0337
41606SOL     OW26824   8.152   2.234   1.747  0.1751 -0.1810 -0.1980
41606SOL    HW126825   8.113   2.267   1.828  0.7830  1.2855 -0.4860
41606SOL    HW226826   8.246   2.238   1.761  0.2829 -0.1839 -0.8810
41607SOL     OW26827   7.797   9.922   0.529 -0.8060 -0.1725  0.0522
41607SOL    HW126828   7.716   9.879   0.556 -0.5010 -0.9228 -0.1919
41607SOL    HW226829   7.858   9.850   0.512  0.1566  0.3978  0.9681
41608SOL     OW26830  10.339   4.367   7.822 -0.2946 -0.1364 -0.0574
41608SOL    HW126831  10.381   4.322   7.895  0.7185 -0.4502 -0.8165
41608SOL    HW226832  10.253   4.325   7.813 -0.5182  0.0557  1.0766
41609SOL     OW26833   0.782   6.965   1.205  0.0091 -0.2000 -0.0897
41609SOL    HW126834   0.725   6.940   1.278  0.2401 -0.4579  0.0054
41609SOL    HW226835   0.787   6.886   1.152 -0.6795  0.1765 -0.7336
41610SOL     OW26836   7.499  10.101   2.735 -0.4712 -0.9777 -0.1860
41610SOL    HW126837   7.491  10.179   2.680  0.3600 -1.5136 -1.1122
41610SOL    HW226838   7.533  10.134   2.818  0.0681 -0.3691 -0.6329
41611SOL     OW26839   4.039   5.889   3.528  0.1890 -0.2838  0.1814
41611SOL    HW126840   3.954   5.847   3.515  0.8569 -1.0678 -2.2347
41611SOL    HW226841   4.056   5.882   3.622 -1.3827 -2.1680  0.3753
41612SOL     OW26842  10.041   3.722   6.957 -0.4989 -0.1427 -0.3640
41612SOL    HW126843  10.074   3.698   7.043 -1.1922 -0.5434 -0.2051
41612SOL    HW226844  10.089   3.801   6.934  0.4481 -0.6142 -0.0683
41613SOL     OW26845   4.103   8.737   7.244 -0.3135  0.1888  0.0757
41613SOL    HW126846   4.009   8.728   7.260 -0.1434 -1.5337  0.2751
41613SOL    HW226847   4.134   8.648   7.229  0.7117  0.9971 -3.4662
41614SOL     OW26848   5.114   2.842   9.777  0.0991  0.7750 -0.2449
41614SOL    HW126849   5.133   2.748   9.778  0.9007  0.9071 -1.6450
41614SOL    HW226850   5.087   2.861   9.687 -1.5856  1.6220  0.3739
41615SOL     OW26851   2.371   8.423   4.917  0.2456  0.4075  0.1437
41615SOL    HW126852   2.336   8.455   4.834 -0.8914 -0.8594  0.0902
41615SOL    HW226853   2.445   8.367   4.892 -0.5466 -0.5539 -0.0828
41616SOL     OW26854  10.664   1.317   5.628 -0.1841 -0.2251  0.5872
41616SOL    HW126855  10.680   1.411   5.617 -1.2912 -0.2427 -1.6221
41616SOL    HW226856  10.751   1.279   5.637  0.4044  0.8080 -0.4169
41617SOL     OW26857   0.675   7.712   5.780 -0.4109 -0.2496 -0.1266
41617SOL    HW126858   0.678   7.762   5.861  1.3495 -0.4624 -0.0063
41617SOL    HW226859   0.582   7.705   5.758 -0.9952 -0.8399  2.2663
41618SOL     OW26860   6.118   0.716   4.334 -0.3772 -0.4553 -0.4585
41618SOL    HW126861   6.188   0.738   4.396  0.0015  0.0003 -1.0401
41618SOL    HW226862   6.123   0.621   4.326 -0.4815 -0.5327  0.2648
41619SOL     OW26863   2.218   1.267   5.558 -0.6771 -0.1401 -0.9931
41619SOL    HW126864   2.310   1.246   5.576 -1.1183 -1.5035 -0.1349
41619SOL    HW226865   2.181   1.286   5.644 -1.7244 -1.9922 -0.9741
41620SOL     OW26866   8.731   6.928   8.444 -0.3655  0.4675 -0.4444
41620SOL    HW126867   8.711   6.919   8.537 -1.3261  0.9228 -0.5928
41620SOL    HW226868   8.700   7.016   8.422  1.5524  1.0993 -0.7869
41621SOL     OW26869   0.885   0.944   5.258 -0.3585 -0.0331  0.0692
41621SOL    HW126870   0.887   0.869   5.199  0.7312  0.7985 -0.9983
41621SOL    HW226871   0.824   0.919   5.327  2.1683 -3.1978  1.4282
41622SOL     OW26872   9.185   2.295   6.806  0.5266 -0.0371 -0.5037
41622SOL    HW126873   9.142   2.373   6.843 -0.1747 -0.4801 -0.3584
41622SOL    HW226874   9.186   2.310   6.712 -0.8228 -0.4372 -0.5981
41623SOL     OW26875   2.936  10.440  10.614  0.0062 -0.3345  0.1619
41623SOL    HW126876   2.954  10.505  10.547 -0.1601  0.6756  1.0645
41623SOL    HW226877   3.003  10.456  10.681 -0.9646 -0.0553  1.0951
41624SOL     OW26878   0.508   4.606   9.976  0.4798  0.1918  0.1296
41624SOL    HW126879   0.431   4.574   9.929 -0.4845 -2.4001  3.1596
41624SOL    HW226880   0.494   4.701   9.984 -1.2475  0.0923 -1.2654
41625SOL     OW26881   8.832   1.694   8.584 -0.5039  0.3728 -0.1711
41625SOL    HW126882   8.839   1.610   8.540 -0.3444  0.8738 -1.1174
41625SOL    HW226883   8.896   1.690   8.655 -0.3963 -0.2430 -0.3017
41626SOL     OW26884   8.559   6.328   6.372  0.4368  0.0745  0.4416
41626SOL    HW126885   8.642   6.282   6.357  1.1851  1.6221 -0.3714
41626SOL    HW226886   8.572   6.415   6.333 -2.1399 -0.1884 -1.2629
41627SOL     OW26887   7.103   0.572   9.564 -0.1430  0.6585 -0.4845
41627SOL    HW126888   7.051   0.611   9.635  1.4698  1.0237  0.5612
41627SOL    HW226889   7.114   0.480   9.590 -0.6147  0.4780 -0.9181
41628SOL     OW26890   5.823   1.584   4.666 -0.4308  0.2042 -0.3548
41628SOL    HW126891   5.840   1.640   4.742 -3.2008 -1.0057  1.3243
41628SOL    HW226892   5.869   1.503   4.686 -1.1171 -0.0958  0.0445
41629SOL     OW26893   6.659   4.071   0.524  0.3232  0.3611 -0.1302
41629SOL    HW126894   6.637   4.028   0.442  2.2071  0.1960 -0.6064
41629SOL    HW226895   6.691   4.001   0.581  1.1415  0.7700 -0.0674
41630SOL     OW26896   1.824   5.007   3.432  0.4848  0.1563  0.5639
41630SOL    HW126897   1.854   5.040   3.347  0.5435  0.7066  0.7930
41630SOL    HW226898   1.745   4.957   3.412 -0.2159  1.3258  0.3249
41631SOL     OW26899   9.435   2.536   5.623  0.0041 -0.2476  0.0638
41631SOL    HW126900   9.461   2.495   5.705 -1.6350 -0.8480  0.3149
41631SOL    HW226901   9.471   2.478   5.555  1.0006  0.0271  0.3432
41632SOL     OW26902   0.292   3.716  10.897 -0.0634 -0.3336 -0.3306
41632SOL    HW126903   0.306   3.787  10.834  0.1150 -0.6609 -0.6666
41632SOL    HW226904   0.201   3.689  10.882  0.2347 -0.9901 -1.0676
41633SOL     OW26905   7.332   3.660   5.913  0.3164  0.0672 -0.7208
41633SOL    HW126906   7.300   3.750   5.914 -1.6020 -0.5402 -1.6071
41633SOL    HW226907   7.304   3.625   5.828  1.6830 -1.1541 -0.7104
41634SOL     OW26908   6.876   3.555   2.654 -0.3628 -0.4969 -0.0651
41634SOL    HW126909   6.893   3.649   2.666 -2.5365 -0.1817  1.0069
41634SOL    HW226910   6.870   3.520   2.743 -2.6057 -1.0070 -0.3668
41635SOL     OW26911   9.620   6.884   6.451  0.2895  0.2182 -0.2822
41635SOL    HW126912   9.583   6.972   6.441  1.2114  1.1530  3.1067
41635SOL    HW226913   9.566   6.842   6.518  0.9935 -1.0971 -0.4945
41636SOL     OW26914   5.984   8.431   5.760  0.2303  0.2910  0.2007
41636SOL    HW126915   5.961   8.448   5.669  1.1376  0.2989 -0.0299
41636SOL    HW226916   6.074   8.461   5.769  0.5061 -0.6833  0.8337
41637SOL     OW26917  10.466   6.655   6.148  0.3579 -0.2973 -0.4907
41637SOL    HW126918  10.528   6.719   6.113 -0.3810  0.5504 -0.2949
41637SOL    HW226919  10.467   6.584   6.085  0.7331  0.1896 -1.0479
41638SOL     OW26920   3.776   3.962   6.330  0.0421  0.6306 -0.3721
41638SOL    HW126921   3.736   3.971   6.417  2.0731  2.1201  0.5202
41638SOL    HW226922   3.719   4.012   6.272  0.1139  2.0009  0.6822
41639SOL     OW26923   6.361  10.595   4.197 -0.1381  0.1806 -0.7981
41639SOL    HW126924   6.380  10.653   4.270 -1.5422 -0.4692  0.1432
41639SOL    HW226925   6.406  10.634   4.122  1.4477  0.7892  0.4200
41640SOL     OW26926   9.310   8.295   5.584  0.4719  0.7173  0.2252
41640SOL    HW126927   9.295   8.246   5.665 -1.0758  1.0878  0.1859
41640SOL    HW226928   9.283   8.236   5.514  0.3118  0.9660  0.0729
41641SOL     OW26929   7.924   0.197   0.712 -0.6871 -0.2281 -0.3171
41641SOL    HW126930   7.874   0.262   0.663 -2.2455 -1.0464  0.1159
41641SOL    HW226931   7.923   0.229   0.803 -1.3454 -0.7577 -0.1261
41642SOL     OW26932  10.331  10.252  10.756  0.3380 -0.4068 -0.0930
41642SOL    HW126933  10.314  10.346  10.750  0.9955 -0.3820 -3.0490
41642SOL    HW226934  10.245  10.211  10.745  0.0843 -0.1931  0.9780
41643SOL     OW26935   2.853  10.594   7.019 -0.2710  0.3012  0.0837
41643SOL    HW126936   2.903  10.604   7.100  1.1338 -1.4784 -0.4968
41643SOL    HW226937   2.789  10.526   7.039 -0.1037  0.0568 -0.1972
41644SOL     OW26938   0.659  10.084  10.687  0.1366 -0.4717  0.1609
41644SOL    HW126939   0.590  10.141  10.723  0.2672  0.1033 -0.4809
41644SOL    HW226940   0.615  10.030  10.622  0.1573 -0.5897  0.2450
41645SOL     OW26941   9.589   7.213   9.677  0.5720 -0.0997  0.4361
41645SOL    HW126942   9.495   7.198   9.686 -0.0269  1.2186 -2.3851
41645SOL    HW226943   9.629   7.127   9.689 -1.1862 -1.0190 -0.0744
41646SOL     OW26944   9.577   7.527   1.145 -0.0221 -0.7267 -0.1633
41646SOL    HW126945   9.578   7.614   1.184 -0.0209 -0.6237 -0.3884
41646SOL    HW226946   9.652   7.526   1.085  1.3860 -1.6715  1.5163
41647SOL     OW26947   8.880  10.799   5.187 -0.0138 -0.5565 -0.4455
41647SOL    HW126948   8.909  10.753   5.266 -1.4192 -0.4377  0.1875
41647SOL    HW226949   8.784  10.804   5.197 -0.1136  0.3982 -1.6496
41648SOL     OW26950   5.264   6.180   3.811 -0.4262 -0.0127 -0.1968
41648SOL    HW126951   5.289   6.129   3.888  0.7685  0.8500  0.0245
41648SOL    HW226952   5.182   6.141   3.782 -0.1282 -1.3221  0.6180
41649SOL     OW26953   2.323   7.243  10.302  0.0759  0.2534 -0.8289
41649SOL    HW126954   2.312   7.160  10.349 -1.4656  1.6209  1.3831
41649SOL    HW226955   2.404   7.280  10.336 -0.0819  0.3997 -0.6128
41650SOL     OW26956   4.401   7.782   4.593 -0.5621  0.1108  0.0516
41650SOL    HW126957   4.462   7.715   4.624 -0.4790  0.0773 -0.1827
41650SOL    HW226958   4.382   7.757   4.502 -0.5855  0.3673 -0.0138
41651SOL     OW26959   7.986   8.938   8.894  0.1666 -0.0018 -0.2308
41651SOL    HW126960   8.049   8.893   8.950  0.3265  1.7544  1.1145
41651SOL    HW226961   7.903   8.893   8.910  0.9678 -2.1635 -1.8188
41652SOL     OW26962   8.957  10.871   5.896  0.2774  0.1500 -0.1674
41652SOL    HW126963   8.949  10.930   5.821  1.5381 -0.0234 -0.4515
41652SOL    HW226964   8.901  10.910   5.963  0.5922  1.3187 -0.5612
41653SOL     OW26965   3.858   8.954   0.657 -0.0129 -0.2258 -0.2902
41653SOL    HW126966   3.787   9.011   0.625 -0.6678  0.0240  1.4893
41653SOL    HW226967   3.818   8.867   0.662 -0.0852 -0.1591  0.3464
41654SOL     OW26968   6.860   7.577   0.464  0.4722  0.2339  0.2731
41654SOL    HW126969   6.897   7.665   0.473  3.0345 -0.5312 -1.6939
41654SOL    HW226970   6.861   7.560   0.370 -2.8742 -0.8164  0.2998
41655SOL     OW26971   5.211   4.041   0.190  0.1994 -0.4335 -0.7120
41655SOL    HW126972   5.233   4.021   0.281  1.5302 -0.0800 -0.9325
41655SOL    HW226973   5.157   4.119   0.195  0.8738  0.0094 -0.2615
41656SOL     OW26974   0.301   5.111   3.291 -0.4473  0.4073 -0.0570
41656SOL    HW126975   0.324   5.019   3.304 -1.5584  0.2934  1.4638
41656SOL    HW226976   0.370   5.146   3.236 -0.4347 -1.5293 -1.3523
41657SOL     OW26977  10.657   9.046  10.573  0.0651  0.4839  0.1764
41657SOL    HW126978  10.637   9.095  10.493  1.0418  1.8274  0.7272
41657SOL    HW226979  10.738   8.999  10.552 -0.5873 -0.5169 -0.1720
41658SOL     OW26980   1.160   6.303   9.380 -0.4644  0.0967  0.4746
41658SOL    HW126981   1.089   6.262   9.331  0.1761 -0.3893 -0.0726
41658SOL    HW226982   1.127   6.309   9.469 -0.3381 -2.3481  0.7679
41659SOL     OW26983   3.155   3.160   6.410 -0.5866  0.4642 -0.3157
41659SOL    HW126984   3.218   3.194   6.473  0.8854 -2.3620 -0.0650
41659SOL    HW226985   3.090   3.115   6.463 -0.2716 -0.4872 -0.7157
41660SOL     OW26986   9.062   6.567   7.226  0.4607  0.9886 -0.1749
41660SOL    HW126987   9.047   6.650   7.272 -1.1272  0.2688  0.6886
41660SOL    HW226988   9.026   6.500   7.285  0.6945 -0.2081 -1.3476
41661SOL     OW26989   7.989   0.123  10.684  0.0434  0.2050  0.0184
41661SOL    HW126990   7.914   0.105  10.627  0.8486  0.7640 -1.2841
41661SOL    HW226991   7.959   0.192  10.743 -0.5096  0.3290 -0.3965
41662SOL     OW26992   6.850   1.503   9.140 -0.4320  0.3845  0.1322
41662SOL    HW126993   6.884   1.522   9.228  1.4776  1.2283 -0.7216
41662SOL    HW226994   6.807   1.584   9.114  0.8826  0.9081 -0.5008
41663SOL     OW26995   5.969   7.342   7.087  0.1563 -0.4681 -0.0550
41663SOL    HW126996   5.959   7.396   7.008  0.4632 -1.1368 -0.5633
41663SOL    HW226997   5.906   7.378   7.149 -0.0039  0.1480 -0.5634
41664SOL     OW26998   8.344   4.112   7.529  0.1273  0.7394 -0.0414
41664SOL    HW126999   8.379   4.173   7.595  1.3260 -0.5207  0.5405
41664SOL    HW227000   8.350   4.026   7.571 -1.5383  0.1945 -0.8425
41665SOL     OW27001   9.378  10.419   3.613 -0.0262  0.2469 -0.4015
41665SOL    HW127002   9.381  10.475   3.691  0.2380 -1.6376  1.0469
41665SOL    HW227003   9.470  10.410   3.587 -0.1483  1.1853 -1.1967
41666SOL     OW27004   0.363   4.077   6.972 -0.4160  0.3685 -0.1109
41666SOL    HW127005   0.289   4.028   6.936 -1.0366  1.1155  0.1051
41666SOL    HW227006   0.322   4.140   7.031  0.5787 -1.5895  2.9337
41667SOL     OW27007   1.405   6.215   9.149 -0.5237 -0.3042 -0.3246
41667SOL    HW127008   1.443   6.176   9.227  0.0395  0.5199 -0.1778
41667SOL    HW227009   1.429   6.308   9.154 -0.1560 -0.3072 -1.6506
41668SOL     OW27010   6.356   6.410   3.267 -0.5618  0.4295 -0.6618
41668SOL    HW127011   6.325   6.491   3.308  0.6258  0.7581 -0.3507
41668SOL    HW227012   6.395   6.439   3.184 -0.2592  0.1597 -0.6167
41669SOL     OW27013  10.816   7.933   5.157  0.2549  0.5298 -0.4159
41669SOL    HW127014  10.752   7.916   5.227 -1.1497  1.6243 -1.3630
41669SOL    HW227015  10.798   7.865   5.092  3.0808 -1.9365  1.1393
41670SOL     OW27016   7.930   7.509   5.270 -0.3316  0.3456 -0.1602
41670SOL    HW127017   7.967   7.510   5.358  0.2262 -0.9408 -0.3600
41670SOL    HW227018   8.001   7.539   5.213 -0.3843  0.2429 -0.2811
41671SOL     OW27019   2.757   8.923   7.499 -0.7763  0.0707 -0.1038
41671SOL    HW127020   2.783   8.991   7.436 -1.0312  0.4146  0.1596
41671SOL    HW227021   2.778   8.841   7.455  0.9657  0.3256  0.1685
41672SOL     OW27022   6.855   6.585   4.366 -0.2429 -0.1549  0.2651
41672SOL    HW127023   6.844   6.532   4.445  1.8895  0.4468  1.0412
41672SOL    HW227024   6.939   6.558   4.330 -1.2945 -0.6033 -2.0058
41673SOL     OW27025   1.813   7.145   2.969 -0.3045  0.0696  0.2566
41673SOL    HW127026   1.775   7.208   3.031  1.0700  2.1455 -0.8999
41673SOL    HW227027   1.759   7.154   2.890 -0.7921 -1.0887  0.4301
41674SOL     OW27028   2.200   3.538   7.094 -0.0572 -0.5721 -0.0524
41674SOL    HW127029   2.114   3.501   7.114 -0.0164 -1.2960 -1.1070
41674SOL    HW227030   2.181   3.628   7.068 -0.3725 -0.4073  0.7135
41675SOL     OW27031   0.620   6.111   6.597 -0.1477 -0.2255  0.2918
41675SOL    HW127032   0.577   6.180   6.647  2.2355  1.1386  0.5934
41675SOL    HW227033   0.578   6.113   6.511 -2.6775 -1.0143  1.4150
41676SOL     OW27034   9.352   2.532   2.522 -0.0057  0.2376  0.1540
41676SOL    HW127035   9.407   2.502   2.449 -2.0686 -1.4588 -0.8468
41676SOL    HW227036   9.413   2.551   2.592  1.9124 -0.6391 -1.1829
41677SOL     OW27037   3.118   7.976  10.569 -0.0038 -0.1331  0.2168
41677SOL    HW127038   3.077   7.918  10.633  0.3925 -1.3255 -0.5681
41677SOL    HW227039   3.179   8.029  10.620 -0.6169 -0.1739  1.0066
41678SOL     OW27040  10.144   7.442  10.632 -0.1543 -0.6397 -0.4124
41678SOL    HW127041  10.180   7.378  10.693  0.3371  0.0837  0.0832
41678SOL    HW227042  10.221   7.486  10.596 -0.5047  0.4492  0.1279
41679SOL     OW27043   6.651   8.895   8.953 -0.1217  0.1561 -0.0582
41679SOL    HW127044   6.697   8.908   9.036 -0.7277  2.5741 -0.0225
41679SOL    HW227045   6.671   8.805   8.929  1.2432 -0.1717  1.9883
41680SOL     OW27046   8.741   4.768   7.421  1.0236 -0.3173 -0.1042
41680SOL    HW127047   8.827   4.765   7.379  0.4106 -0.2235 -1.4125
41680SOL    HW227048   8.695   4.691   7.388  0.9188 -0.8851  1.3209
41681SOL     OW27049   2.767   0.729  10.494 -0.2755 -0.1145  0.2312
41681SOL    HW127050   2.762   0.652  10.551 -0.8210 -0.7983 -0.7172
41681SOL    HW227051   2.828   0.788  10.539  0.9853 -1.5282  0.4565
41682SOL     OW27052   8.787   8.548  10.746 -0.3494  0.3025 -0.1465
41682SOL    HW127053   8.739   8.629  10.764 -2.2179 -0.7361 -0.2023
41682SOL    HW227054   8.740   8.508  10.674  0.0543 -1.2180  0.3990
41683SOL     OW27055   5.164   6.790   0.255 -0.3716 -0.6461 -0.2114
41683SOL    HW127056   5.220   6.776   0.331  0.1722  0.3770 -0.4187
41683SOL    HW227057   5.187   6.876   0.223 -2.1976 -0.0980 -0.1971
41684SOL     OW27058  10.936   1.228   6.285  0.7668 -0.2877 -0.6251
41684SOL    HW127059  10.855   1.277   6.281 -0.6686 -2.5107 -0.7806
41684SOL    HW227060  10.974   1.235   6.197  0.3366  0.1039 -0.7810
41685SOL     OW27061   7.976  10.211   7.143 -0.2252 -0.2574  0.1395
41685SOL    HW127062   7.907  10.266   7.104 -0.1260  1.0629  1.7147
41685SOL    HW227063   8.052  10.225   7.088 -0.3149  0.9233  0.2940
41686SOL     OW27064   3.020   1.407   0.485  0.0619 -0.6641 -0.0743
41686SOL    HW127065   2.936   1.424   0.529  0.9023  0.5673  1.1432
41686SOL    HW227066   3.075   1.368   0.552  0.1538 -2.5521 -1.1783
41687SOL     OW27067   5.083  10.048   2.258 -0.1675  0.3574 -0.1791
41687SOL    HW127068   5.021   9.976   2.265 -1.8153  1.8131  0.9736
41687SOL    HW227069   5.065  10.088   2.173 -0.7313  0.6961  0.0964
41688SOL     OW27070   7.616   9.185   2.836  0.0382  0.1630 -0.2619
41688SOL    HW127071   7.691   9.183   2.776 -0.4903 -0.9694 -0.9124
41688SOL    HW227072   7.580   9.273   2.825  0.2562  0.1510 -1.2277
41689SOL     OW27073   0.604   9.648   1.533  0.4584  0.0023  0.6339
41689SOL    HW127074   0.642   9.607   1.455 -1.7042  0.3203 -0.6812
41689SOL    HW227075   0.638   9.737   1.533 -0.3813  0.3490 -0.6376
41690SOL     OW27076   0.008   7.568   3.141 -0.0485  0.5881 -0.1250
41690SOL    HW127077  -0.082   7.598   3.155 -0.9508 -2.0771  0.2671
41690SOL    HW227078   0.020   7.570   3.046 -0.4681  1.0149 -0.1729
41691SOL     OW27079   4.801   3.428   7.018  0.4393 -0.4563  0.0480
41691SOL    HW127080   4.745   3.387   6.952  0.3911 -1.1869  0.5325
41691SOL    HW227081   4.747   3.497   7.056  0.2487 -0.4463 -0.2358
41692SOL     OW27082   9.143   3.890   1.751 -0.6076  0.1964 -0.1043
41692SOL    HW127083   9.235   3.893   1.779 -0.3913 -1.3357 -0.5586
41692SOL    HW227084   9.142   3.938   1.668  0.0840 -0.9331 -0.7968
41693SOL     OW27085   8.077   6.362   4.549 -0.6150  0.1689  0.5177
41693SOL    HW127086   8.145   6.381   4.484  0.5530  1.6605  2.0889
41693SOL    HW227087   8.063   6.267   4.542 -0.2451  0.2287 -1.5904
41694SOL     OW27088   3.934   4.993   8.152 -0.3188  0.3876  0.2545
41694SOL    HW127089   3.859   4.939   8.178 -0.9346  0.1100 -1.9205
41694SOL    HW227090   3.906   5.083   8.170 -0.4777  0.1872  1.0607
41695SOL     OW27091   6.783   8.977   2.314 -0.2865 -0.2533  0.0943
41695SOL    HW127092   6.833   8.898   2.333  1.6849  0.8394 -0.2022
41695SOL    HW227093   6.824   9.012   2.234 -1.2697  0.9288  0.0769
41696SOL     OW27094   9.184   8.226   7.352  0.3133  0.0832  0.5176
41696SOL    HW127095   9.194   8.289   7.424  1.7107  0.4577  0.0350
41696SOL    HW227096   9.268   8.230   7.306 -0.7340  0.2296 -1.4503
41697SOL     OW27097   5.512   1.616   0.386  0.2740 -0.5130 -0.7132
41697SOL    HW127098   5.475   1.693   0.342 -0.1420 -0.6767 -0.6475
41697SOL    HW227099   5.603   1.641   0.404 -0.0499  0.2338 -0.0515
41698SOL     OW27100  10.329   0.035   7.879  0.0517  0.7090  0.1283
41698SOL    HW127101  10.331  -0.026   7.806  0.1513 -0.6624  1.2382
41698SOL    HW227102  10.240   0.070   7.879  0.0150  0.6217 -0.5655
41699SOL     OW27103   5.739   3.836   8.704  0.4797 -0.5903 -0.4925
41699SOL    HW127104   5.823   3.870   8.734 -0.1041  1.3102 -0.8816
41699SOL    HW227105   5.709   3.779   8.775  2.1439 -1.4737 -0.4269
41700SOL     OW27106   8.847   4.161   4.707  0.5485 -0.3788  0.4925
41700SOL    HW127107   8.818   4.070   4.709  0.5477 -0.5094 -2.1669
41700SOL    HW227108   8.927   4.160   4.655 -0.6095  1.3506 -1.5091
41701SOL     OW27109   5.618   8.931   8.308  0.2025  0.1691 -0.3718
41701SOL    HW127110   5.655   8.843   8.309 -0.9278 -0.3293  0.6092
41701SOL    HW227111   5.693   8.989   8.300  1.3497 -0.7380  2.6383
41702SOL     OW27112   0.372   9.136   7.149 -0.2134 -0.2078  0.0615
41702SOL    HW127113   0.458   9.152   7.111 -0.3371 -0.3581 -0.2840
41702SOL    HW227114   0.310   9.165   7.082 -0.4611 -2.6378 -0.8419
41703SOL     OW27115   3.237   7.192   1.654  0.1831  0.4765 -0.1265
41703SOL    HW127116   3.321   7.149   1.671 -0.5235 -2.1811 -2.5820
41703SOL    HW227117   3.182   7.166   1.728  0.4311 -1.0372 -0.4401
41704SOL     OW27118   1.081   4.644   6.664 -0.3094  0.5025  0.1918
41704SOL    HW127119   1.092   4.738   6.649 -0.2576  0.3531 -0.7612
41704SOL    HW227120   1.165   4.615   6.699 -0.4571  0.8791  0.8718
41705SOL     OW27121   0.605   8.563   5.581 -0.3723  0.0628 -0.0748
41705SOL    HW127122   0.603   8.535   5.489  0.5119 -0.5906  0.0894
41705SOL    HW227123   0.644   8.651   5.578 -0.4003  0.0663 -0.3371
41706SOL     OW27124   1.506   8.893   7.224 -0.1079 -0.2928 -0.1963
41706SOL    HW127125   1.411   8.897   7.215  0.0474 -0.4017 -2.4479
41706SOL    HW227126   1.538   8.973   7.183  0.8014 -0.6852 -0.2924
41707SOL     OW27127   0.389   2.320   9.207  0.2766 -0.0997 -0.0864
41707SOL    HW127128   0.467   2.265   9.195  0.7210  0.7148 -1.1457
41707SOL    HW227129   0.410   2.401   9.160 -0.2948  1.0597  1.5743
41708SOL     OW27130   9.345   8.229   8.963 -0.4777 -0.1247  0.1654
41708SOL    HW127131   9.259   8.258   8.990  0.0202  1.5073  0.0756
41708SOL    HW227132   9.406   8.288   9.007  0.6559 -1.6933  0.8192
41709SOL     OW27133   9.615   4.655   9.101  1.5790 -0.1037 -0.0553
41709SOL    HW127134   9.599   4.601   9.023  0.9799 -1.5341  1.0345
41709SOL    HW227135   9.672   4.726   9.068 -1.1581  1.1802 -2.4939
41710SOL     OW27136   2.825   2.239   0.617  0.0740 -0.1527  0.1417
41710SOL    HW127137   2.765   2.253   0.544  0.3188 -1.3131 -0.3070
41710SOL    HW227138   2.820   2.146   0.635  1.1378 -0.1354  0.6303
41711SOL     OW27139   9.479   2.245   6.223  0.5523  0.0541  0.0398
41711SOL    HW127140   9.411   2.312   6.222 -0.6310 -1.1152 -0.8235
41711SOL    HW227141   9.561   2.294   6.214 -0.3879  1.3137 -3.0879
41712SOL     OW27142   8.909   2.100   3.107 -0.4629  0.6661 -0.1735
41712SOL    HW127143   8.954   2.183   3.123  0.0091  0.5382 -0.7499
41712SOL    HW227144   8.932   2.078   3.016 -1.2939  0.3417 -0.3172
41713SOL     OW27145  10.863   9.036  10.896  0.0689  0.5455 -0.0860
41713SOL    HW127146  10.824   8.966  10.842  0.9902  0.8356 -1.1733
41713SOL    HW227147  10.939   8.995  10.936  0.5088  0.8688 -0.5843
41714SOL     OW27148   9.715   1.966  10.793  0.3107 -0.5337  0.1550
41714SOL    HW127149   9.642   1.965  10.731  0.2189 -1.4437  0.2543
41714SOL    HW227150   9.747   2.056  10.793 -0.9359 -0.0728  0.2486
41715SOL     OW27151   1.529   6.735   6.525 -0.3009 -0.3107  0.2900
41715SOL    HW127152   1.537   6.642   6.505  0.6189 -0.0092 -0.9041
41715SOL    HW227153   1.615   6.758   6.562 -0.1018  0.3050 -0.5432
41716SOL     OW27154   6.952   4.571   9.864 -0.0879  0.2234  0.4564
41716SOL    HW127155   7.019   4.626   9.905  1.0666  1.2499 -2.5042
41716SOL    HW227156   6.875   4.628   9.860  0.2336  0.6402 -0.0340
41717SOL     OW27157   3.357   3.773   7.257 -0.3130  0.5381  0.9004
41717SOL    HW127158   3.311   3.714   7.318 -0.3165 -1.3999 -0.8669
41717SOL    HW227159   3.367   3.721   7.177  1.0252  2.4748 -0.2576
41718SOL     OW27160   3.211   9.185   3.264  0.3670  0.5245  0.8752
41718SOL    HW127161   3.203   9.260   3.323 -2.2779 -0.4310  1.8534
41718SOL    HW227162   3.306   9.170   3.259  0.8331  2.2467  2.8196
41719SOL     OW27163   7.539   4.273  10.029  0.9485 -0.6003 -0.1442
41719SOL    HW127164   7.595   4.202  10.061  0.6627 -2.0265 -2.5651
41719SOL    HW227165   7.450   4.244  10.050  0.9299  0.5118  1.5058
41720SOL     OW27166   3.193   2.106   0.957  0.2589 -0.9291  0.3728
41720SOL    HW127167   3.128   2.140   0.896  1.9400  1.9144  0.0123
41720SOL    HW227168   3.257   2.061   0.902  0.9079  0.1951  0.1850
41721SOL     OW27169  10.400   5.550   1.165 -0.4847  0.1154  0.6736
41721SOL    HW127170  10.447   5.621   1.209 -1.1015 -0.2503  1.9664
41721SOL    HW227171  10.334   5.595   1.113 -1.2737  0.5158  1.9586
41722SOL     OW27172   2.501   9.641   4.493 -0.1909 -0.6181 -0.3787
41722SOL    HW127173   2.462   9.566   4.538  0.4424 -0.1601  0.9870
41722SOL    HW227174   2.428   9.701   4.479 -0.2322 -0.2206  1.2354
41723SOL     OW27175   6.424   5.881   8.645  0.3304 -0.0034  0.3305
41723SOL    HW127176   6.394   5.822   8.575  0.1713 -0.9192  1.1451
41723SOL    HW227177   6.368   5.958   8.637  0.7134  0.1670 -0.9272
41724SOL     OW27178   8.746   7.894   9.688 -0.1153 -0.0060  0.0840
41724SOL    HW127179   8.777   7.924   9.773 -1.7141 -0.2362  0.7847
41724SOL    HW227180   8.742   7.799   9.696 -1.9379  0.0566  0.4086
41725SOL     OW27181   6.720   2.200  10.963 -0.2081  0.3322  0.2593
41725SOL    HW127182   6.788   2.152  10.915 -0.1606  0.7385 -0.0881
41725SOL    HW227183   6.759   2.216  11.049  0.7381  1.8074 -0.3888
41726SOL     OW27184   6.469   5.019   3.653  0.2319 -0.0749  0.2401
41726SOL    HW127185   6.430   5.106   3.657 -1.7531 -0.9339  0.5940
41726SOL    HW227186   6.529   5.016   3.728  0.0478  0.8680  0.4345
41727SOL     OW27187   8.148   8.079   7.473  0.4591  0.1293  0.0573
41727SOL    HW127188   8.180   8.163   7.506 -0.5337  0.9668 -1.0579
41727SOL    HW227189   8.226   8.023   7.473  0.8069  0.4951  2.4051
41728SOL     OW27190   1.896   7.093   5.625  0.2607  0.5984  0.2510
41728SOL    HW127191   1.869   7.004   5.602 -1.7084  1.2626 -0.1334
41728SOL    HW227192   1.818   7.133   5.663  1.1363  2.1424  0.4981
41729SOL     OW27193   0.003   5.704   8.147 -0.0958  0.0607  0.1902
41729SOL    HW127194  -0.069   5.659   8.192 -0.1581 -1.3477 -1.2496
41729SOL    HW227195  -0.041   5.765   8.088 -0.1265 -0.5590 -0.4429
41730SOL     OW27196   2.135   4.952   5.255 -0.1741  0.0620 -0.1235
41730SOL    HW127197   2.080   4.986   5.326  0.3321 -1.0107  0.8252
41730SOL    HW227198   2.073   4.914   5.193 -0.5778 -0.0752  0.3536
41731SOL     OW27199   7.107   7.148   7.671 -0.2609  0.5655  0.0543
41731SOL    HW127200   7.019   7.150   7.634  0.4551  0.6142 -1.7674
41731SOL    HW227201   7.165   7.151   7.594  1.3237  0.5098  1.2030
41732SOL     OW27202   2.584  10.364   7.385 -0.1426  0.0905  0.1857
41732SOL    HW127203   2.623  10.278   7.401 -1.3793 -0.6169 -0.4827
41732SOL    HW227204   2.520  10.349   7.315  1.8730  2.1575 -2.3255
41733SOL     OW27205   2.526   0.346   1.428 -0.1413  0.5639 -0.2721
41733SOL    HW127206   2.495   0.306   1.347 -2.7135  0.7199  0.5311
41733SOL    HW227207   2.523   0.440   1.412  1.3816  0.5681 -0.6414
41734SOL     OW27208   0.460   4.547   5.291 -0.5226 -0.8601  0.1578
41734SOL    HW127209   0.540   4.531   5.242  1.6197  3.2777  1.8307
41734SOL    HW227210   0.405   4.597   5.230 -0.0608 -0.1988  0.2712
41735SOL     OW27211   9.800   4.924   7.417 -0.5114  0.5188 -0.0028
41735SOL    HW127212   9.859   4.996   7.436 -1.1689  1.2216 -0.5625
41735SOL    HW227213   9.777   4.935   7.324 -0.9660 -0.1432  0.0231
41736SOL     OW27214   8.061   8.438   1.521 -0.6716 -0.0078 -0.3659
41736SOL    HW127215   8.070   8.502   1.591 -0.9889  0.1436 -0.4605
41736SOL    HW227216   7.966   8.430   1.508 -0.6352 -0.4828 -0.3661
41737SOL     OW27217   1.271   8.847   0.908  0.6935  0.6877 -0.2063
41737SOL    HW127218   1.315   8.848   0.993  1.5372 -1.1265 -0.5661
41737SOL    HW227219   1.222   8.929   0.905 -0.0507  0.4433  2.3906
41738SOL     OW27220  10.163   3.118   3.399 -0.3844 -0.1916 -0.8198
41738SOL    HW127221  10.243   3.114   3.346  1.5773  3.4708  1.4270
41738SOL    HW227222  10.170   3.045   3.460 -1.0816 -2.5157 -3.3559
41739SOL     OW27223  10.067   0.126   4.259 -0.4158 -0.5726 -0.0441
41739SOL    HW127224   9.988   0.146   4.309 -0.8441 -0.3971 -0.7815
41739SOL    HW227225  10.035   0.076   4.184  0.3701 -2.0935  0.5838
41740SOL     OW27226   8.284   5.617   6.263  0.0245  0.2321 -0.1663
41740SOL    HW127227   8.247   5.698   6.298  0.2596  0.1674  0.2386
41740SOL    HW227228   8.211   5.554   6.267 -0.3541  0.5903 -1.1038
41741SOL     OW27229   2.890   8.949   9.025  0.2866  0.3363  0.0915
41741SOL    HW127230   2.940   9.031   9.018  0.6375  0.1620  0.4807
41741SOL    HW227231   2.860   8.948   9.116  0.1182  0.1245  0.0333
41742SOL     OW27232   9.492   9.544   8.489 -0.1386  0.6464  0.3804
41742SOL    HW127233   9.506   9.453   8.464  0.4759  1.6385 -3.5310
41742SOL    HW227234   9.411   9.543   8.540 -2.1814 -1.7933 -2.5413
41743SOL     OW27235   3.926  11.077   8.867  0.2759  0.0741  0.2664
41743SOL    HW127236   3.928  11.168   8.839  0.4960 -0.2222 -0.6916
41743SOL    HW227237   3.836  11.049   8.852 -0.0343  0.3865  1.4270
41744SOL     OW27238   3.483   8.570   6.828 -0.3703 -1.1113  0.2152
41744SOL    HW127239   3.557   8.544   6.883 -0.2267  0.8903  1.0427
41744SOL    HW227240   3.514   8.552   6.739  0.0883 -2.6850  0.6426
41745SOL     OW27241   4.706   7.711   0.596  0.4989 -0.1698 -0.4249
41745SOL    HW127242   4.729   7.733   0.506  1.0066 -1.6593 -0.6907
41745SOL    HW227243   4.702   7.615   0.596 -0.1905 -0.1596  0.9734
41746SOL     OW27244   5.733   7.779   9.007  0.2674  0.4771 -0.4622
41746SOL    HW127245   5.813   7.827   8.984  0.0744  1.0102 -0.0333
41746SOL    HW227246   5.712   7.808   9.096 -0.5351  0.5227 -0.6602
41747SOL     OW27247  10.282  10.797   3.333 -0.2730  0.2377  0.4579
41747SOL    HW127248  10.217  10.812   3.264  1.0458 -0.2294 -0.9420
41747SOL    HW227249  10.259  10.860   3.402 -1.7848  0.5410 -0.2804
41748SOL     OW27250   6.325  10.952   0.481  0.2295  0.1481 -0.2098
41748SOL    HW127251   6.395  11.014   0.500 -0.7480  0.8964  1.0924
41748SOL    HW227252   6.331  10.886   0.550  0.1371 -0.2175 -0.5482
41749SOL     OW27253   9.964   6.242   5.781 -0.0633 -0.1990  0.2719
41749SOL    HW127254  10.020   6.252   5.857  1.4390  0.6948 -0.8863
41749SOL    HW227255   9.965   6.328   5.739 -0.8937 -0.6554 -0.7256
41750SOL     OW27256   9.151   3.174   4.430  0.2831 -0.2247  0.1005
41750SOL    HW127257   9.152   3.152   4.337  1.1232 -2.5288  0.5794
41750SOL    HW227258   9.078   3.124   4.466  1.0160 -0.7223  0.9368
41751SOL     OW27259   3.895   6.154  10.905  0.0068 -0.7766 -0.5690
41751SOL    HW127260   3.880   6.239  10.865  2.4580  0.1694  0.3331
41751SOL    HW227261   3.822   6.144  10.967 -0.6472  0.3616 -1.1189
41752SOL     OW27262   9.469   1.411   8.907 -0.3039 -0.4875 -0.2720
41752SOL    HW127263   9.549   1.364   8.934  0.9988  1.8438  0.1867
41752SOL    HW227264   9.419   1.421   8.987 -1.0172 -1.7767 -0.5248
41753SOL     OW27265   7.215   2.293   6.579  0.3841  0.1959  0.6056
41753SOL    HW127266   7.202   2.202   6.607  0.0628 -0.1033 -0.4693
41753SOL    HW227267   7.282   2.288   6.511  2.3277  1.1003  2.3432
41754SOL     OW27268   3.789   7.360  10.691  0.1042 -0.0322  0.0004
41754SOL    HW127269   3.850   7.299  10.731  0.5112  0.1018 -0.4168
41754SOL    HW227270   3.766   7.320  10.607  1.5814  1.1091 -0.9968
41755SOL     OW27271   2.791   9.327   8.272 -0.2797  0.3686 -0.0235
41755SOL    HW127272   2.751   9.411   8.294  0.1171  0.7877 -0.8571
41755SOL    HW227273   2.752   9.265   8.333 -0.1093  1.2651  1.0253
41756SOL     OW27274   4.303   8.230   5.834 -0.7961 -0.2159 -0.3598
41756SOL    HW127275   4.256   8.260   5.912  1.1809  1.2527  0.3382
41756SOL    HW227276   4.250   8.262   5.760 -0.0054  3.1314  0.3806
41757SOL     OW27277   7.742   5.091   6.625 -0.1326  0.3658 -0.2966
41757SOL    HW127278   7.746   5.185   6.642 -0.7640  0.4503 -0.5946
41757SOL    HW227279   7.677   5.082   6.554 -1.8289 -0.4863  1.2810
41758SOL     OW27280   7.913   5.657   7.908  0.1803 -0.3013 -0.0173
41758SOL    HW127281   7.947   5.652   7.818  0.7025  1.3188  0.0682
41758SOL    HW227282   7.970   5.599   7.958 -0.5303 -1.7648 -0.8196
41759SOL     OW27283   9.949   1.203   0.531  0.5969  0.9355 -0.0881
41759SOL    HW127284   9.887   1.226   0.600  1.0073 -0.1988  0.6905
41759SOL    HW227285  10.029   1.179   0.578  0.7252 -0.3781 -0.9328
41760SOL     OW27286   2.426   8.078   2.694 -0.0218 -0.1198  0.5723
41760SOL    HW127287   2.479   8.040   2.623  0.3066 -1.0234  1.2845
41760SOL    HW227288   2.341   8.094   2.654  0.5183  0.5580 -0.3634
41761SOL     OW27289   9.270  10.873   2.513 -0.0748  0.1495  0.4122
41761SOL    HW127290   9.323  10.806   2.557 -0.2991 -0.1027  0.2974
41761SOL    HW227291   9.324  10.952   2.518  0.5106 -0.2032 -0.0824
41762SOL     OW27292   4.844   7.578   5.403 -0.2024  0.0726 -0.4105
41762SOL    HW127293   4.935   7.551   5.388 -0.3039  0.1932 -1.2717
41762SOL    HW227294   4.851   7.646   5.470  0.1722 -1.0967  0.7924
41763SOL     OW27295  10.592  10.377   8.913 -0.2925 -0.0240  0.9921
41763SOL    HW127296  10.606  10.420   8.828 -0.7104  0.1340  1.0035
41763SOL    HW227297  10.657  10.417   8.971  0.2692 -0.4180  0.6536
41764SOL     OW27298   7.152   9.649   9.449  0.0904 -0.1318 -0.2017
41764SOL    HW127299   7.094   9.724   9.462  1.0428  0.7711 -0.9069
41764SOL    HW227300   7.100   9.587   9.398 -0.5354  0.2814 -0.0826
41765SOL     OW27301   9.129   7.411   5.275  0.1275 -0.1482  0.0351
41765SOL    HW127302   9.171   7.327   5.296  1.2233  0.0323 -1.2592
41765SOL    HW227303   9.036   7.396   5.291  0.5176 -0.9894  1.7256
41766SOL     OW27304   5.387   8.684   4.804 -0.1250 -0.2360  0.1999
41766SOL    HW127305   5.425   8.609   4.759  3.1676  0.4451  1.5743
41766SOL    HW227306   5.382   8.658   4.896 -1.3010  0.4049  0.3485
41767SOL     OW27307  11.039   7.359   1.960 -0.0561  0.1325 -0.3414
41767SOL    HW127308  10.964   7.334   2.014  0.4250 -0.2982  0.1345
41767SOL    HW227309  11.080   7.277   1.936 -0.8161  0.2426 -2.2056
41768SOL     OW27310   5.720   8.357   2.754  0.2043  0.4360 -0.0202
41768SOL    HW127311   5.686   8.294   2.691 -0.2776  0.6253  0.0486
41768SOL    HW227312   5.813   8.365   2.732  0.6276 -1.3861  0.8524
41769SOL     OW27313   0.105   3.007   3.825  0.2133 -0.6151 -0.0631
41769SOL    HW127314   0.068   3.011   3.914 -0.0260 -2.3171 -0.0524
41769SOL    HW227315   0.175   3.072   3.826 -0.7225  0.4409  0.9021
41770SOL     OW27316  10.084   9.457   3.037 -0.2069  0.3098  0.2316
41770SOL    HW127317  10.039   9.535   3.069 -0.9840 -0.1080  0.1855
41770SOL    HW227318  10.073   9.392   3.107  0.4764  0.2497  0.2939
41771SOL     OW27319   3.070   9.549   6.922 -0.1039 -0.7733  0.3437
41771SOL    HW127320   3.054   9.563   7.016  0.8948 -0.2538  0.4442
41771SOL    HW227321   2.984   9.527   6.887 -0.7310  0.2927  1.1522
41772SOL     OW27322  10.044   9.872   5.095  0.7591 -0.2146 -0.0681
41772SOL    HW127323   9.976   9.920   5.048 -0.9169 -2.5375 -0.1269
41772SOL    HW227324  10.123   9.925   5.082 -0.4003  1.0793 -2.4252
41773SOL     OW27325   3.723   5.532   5.214  0.0821  0.2613  0.4352
41773SOL    HW127326   3.755   5.606   5.163 -1.9968  1.5152  0.8210
41773SOL    HW227327   3.799   5.504   5.265  1.1839  1.4699 -0.4680
41774SOL     OW27328   4.250   6.228   8.138 -0.0798  0.0140  0.2879
41774SOL    HW127329   4.327   6.171   8.134  0.1732  0.0667  2.6484
41774SOL    HW227330   4.178   6.173   8.109  0.2316 -1.4471  2.0971
41775SOL     OW27331   6.430   7.402   7.297  0.1517 -0.4743 -0.4446
41775SOL    HW127332   6.348   7.450   7.310  1.6352  1.6219  2.1121
41775SOL    HW227333   6.450   7.414   7.204 -0.7675  1.8526 -0.4051
41776SOL     OW27334   7.858   8.508   0.467  0.0852 -0.1823  0.3675
41776SOL    HW127335   7.852   8.529   0.374  0.2235  2.0853  0.8144
41776SOL    HW227336   7.767   8.515   0.498 -0.0237 -1.3411  0.3505
41777SOL     OW27337   7.769   6.418   3.669  0.3215  0.1786 -0.6543
41777SOL    HW127338   7.841   6.460   3.715  0.7687 -2.2854  1.0780
41777SOL    HW227339   7.692   6.471   3.689  1.5325  3.0156 -2.7484
41778SOL     OW27340  10.615  10.182  10.758  0.3077  0.1853 -0.7574
41778SOL    HW127341  10.522  10.201  10.770  0.5061  1.4970 -1.2100
41778SOL    HW227342  10.651  10.259  10.715  1.6653 -0.2063 -0.3883
41779SOL     OW27343   2.474   3.843   6.103 -0.3562 -0.0803  0.8420
41779SOL    HW127344   2.399   3.894   6.133  0.2741  0.8273  0.8954
41779SOL    HW227345   2.535   3.844   6.176 -0.0046 -0.2452  0.5563
41780SOL     OW27346   7.378   9.824   5.671 -0.2748 -0.1121  0.0379
41780SOL    HW127347   7.360   9.888   5.740  1.0866 -1.0836  1.3436
41780SOL    HW227348   7.352   9.740   5.709  2.0554 -0.8897  0.0733
41781SOL     OW27349  10.484   8.129   4.967 -0.3168 -0.1494  0.6099
41781SOL    HW127350  10.445   8.064   4.909  0.8526 -2.3163  2.0929
41781SOL    HW227351  10.448   8.213   4.938  0.2680 -1.0493 -3.2664
41782SOL     OW27352   3.465   7.023   9.524  0.2953 -0.0724  0.0121
41782SOL    HW127353   3.380   7.065   9.527  1.0632  1.5718 -0.1077
41782SOL    HW227354   3.455   6.943   9.575 -1.4322 -0.1653 -0.4306
41783SOL     OW27355   3.252   8.618   9.798 -0.0814  1.0175 -0.3148
41783SOL    HW127356   3.269   8.708   9.769 -0.5780  0.7106 -1.6447
41783SOL    HW227357   3.336   8.587   9.829  0.3984  1.5296 -1.0589
41784SOL     OW27358   9.155   9.167   6.694  0.2453  0.3636  0.6183
41784SOL    HW127359   9.142   9.185   6.788  0.6540 -0.3395  0.8216
41784SOL    HW227360   9.225   9.102   6.692  0.0363  0.1504 -0.1673
41785SOL     OW27361   0.943   3.693   6.937  0.1397  0.1618  0.1839
41785SOL    HW127362   0.914   3.602   6.930  1.4179 -0.2755  0.2114
41785SOL    HW227363   0.886   3.732   7.002 -0.7304 -0.4934 -0.1761
41786SOL     OW27364   9.505   8.061   5.868  0.2142  0.1223  0.1565
41786SOL    HW127365   9.548   7.983   5.833  0.3323 -0.5669  1.7567
41786SOL    HW227366   9.549   8.134   5.824  1.3290 -0.6562 -0.0639
41787SOL     OW27367   1.355   4.701   2.579 -0.4620 -0.0272  0.1853
41787SOL    HW127368   1.393   4.788   2.581 -0.5239  0.0968 -1.7855
41787SOL    HW227369   1.424   4.643   2.613 -0.0110  0.6655  0.4574
41788SOL     OW27370   3.757   2.401   6.825  0.6217  0.2137 -0.1724
41788SOL    HW127371   3.686   2.396   6.889 -0.0057  2.1209 -0.6458
41788SOL    HW227372   3.728   2.467   6.763  3.6094  2.4845  0.6317
41789SOL     OW27373   8.194  10.301   8.242 -0.0772  0.6381  0.6627
41789SOL    HW127374   8.275  10.328   8.199  1.0798 -3.1906  0.0279
41789SOL    HW227375   8.134  10.374   8.229  2.6270  2.8369 -0.5654
41790SOL     OW27376  10.465   0.467  10.761  0.0095 -0.4019 -0.4264
41790SOL    HW127377  10.471   0.561  10.779  1.0202 -0.8140  1.7607
41790SOL    HW227378  10.373   0.446  10.777 -0.0548  0.0717 -0.1380
41791SOL     OW27379  10.706   2.975   7.897  0.0146 -0.1557 -0.3675
41791SOL    HW127380  10.644   3.033   7.853 -0.8577 -0.1476  0.8357
41791SOL    HW227381  10.775   2.960   7.832 -0.6679  0.7500 -1.3297
41792SOL     OW27382   0.532  10.804   7.535  0.3366  0.1266  0.1087
41792SOL    HW127383   0.513  10.890   7.572  2.0640  0.2640  0.7244
41792SOL    HW227384   0.622  10.810   7.503  0.3665 -1.3430 -0.1598
41793SOL     OW27385   9.069   4.145  10.421 -0.4691 -0.4423  0.0034
41793SOL    HW127386   9.128   4.103  10.483 -0.9173  0.5776  1.1610
41793SOL    HW227387   8.984   4.105  10.438 -0.7318  0.3355  0.5462
41794SOL     OW27388   4.046   1.821   7.540  0.0079 -0.3376  0.7271
41794SOL    HW127389   4.082   1.902   7.504 -1.5134 -0.0208 -0.1607
41794SOL    HW227390   4.069   1.754   7.476  0.4195 -0.4482  0.9828
41795SOL     OW27391   2.694   1.956  10.230 -0.5941 -0.6752 -0.1391
41795SOL    HW127392   2.735   2.041  10.249  0.3250 -1.1677  0.1423
41795SOL    HW227393   2.731   1.930  10.146 -2.8427  0.3862 -1.5285
41796SOL     OW27394   2.141   2.483   6.200  0.3118 -0.0326  0.8628
41796SOL    HW127395   2.101   2.530   6.272  0.0251  0.6135  0.2886
41796SOL    HW227396   2.151   2.393   6.232  0.8213  0.3942  1.9489
41797SOL     OW27397   0.936   8.058   9.106  0.2436 -0.1150  0.3032
41797SOL    HW127398   1.024   8.095   9.113  0.2561 -0.1844  0.5152
41797SOL    HW227399   0.879   8.124   9.147 -0.0996  0.9992 -1.8433
41798SOL     OW27400   9.669   1.039   5.299  0.0330 -0.4634  0.5464
41798SOL    HW127401   9.588   1.068   5.255  0.5197  0.7167  0.3816
41798SOL    HW227402   9.711   0.981   5.236  0.2591  0.4757 -0.1988
41799SOL     OW27403  10.742   1.651   3.700  0.0467  0.6177 -0.4240
41799SOL    HW127404  10.778   1.625   3.615  0.6366  2.1823 -0.6987
41799SOL    HW227405  10.701   1.736   3.683 -1.3550  0.1613  0.4992
41800SOL     OW27406   3.751   0.722   5.168 -0.5996  0.4015 -0.0127
41800SOL    HW127407   3.684   0.675   5.216 -1.8939  0.6970 -1.4434
41800SOL    HW227408   3.706   0.757   5.091  1.1415  0.8106 -0.9129
41801SOL     OW27409   8.740   0.889   5.891  0.3204  0.7059  0.0411
41801SOL    HW127410   8.805   0.955   5.866 -0.1143  0.6260 -1.3719
41801SOL    HW227411   8.656   0.930   5.870 -0.0983  0.6805  1.5502
41802SOL     OW27412   5.987  11.017   7.417  0.3698 -0.4284  0.3297
41802SOL    HW127413   5.959  11.081   7.483  0.1904 -1.3368  1.1480
41802SOL    HW227414   6.083  11.020   7.420  0.3698 -0.8453  1.0231
41803SOL     OW27415   0.854   9.994   9.381 -0.4512  0.0439 -0.4265
41803SOL    HW127416   0.819   9.923   9.436 -2.3564  1.2529  0.0163
41803SOL    HW227417   0.886  10.059   9.444 -0.0041  0.1918 -0.8070
41804SOL     OW27418   2.219   3.666  10.699 -0.4717  0.0261 -0.5196
41804SOL    HW127419   2.159   3.687  10.771  2.3731  0.3498  1.9093
41804SOL    HW227420   2.263   3.749  10.679  0.3940 -0.5518 -1.0887
41805SOL     OW27421   6.604   0.030   0.520  0.3084  0.1472  0.2035
41805SOL    HW127422   6.679  -0.021   0.490  0.6486  1.1382 -0.6720
41805SOL    HW227423   6.636   0.077   0.598  0.8285  1.0969 -0.5619
41806SOL     OW27424   8.081   9.204   8.288  0.6724  0.3085 -0.1166
41806SOL    HW127425   7.995   9.181   8.253  0.7604 -1.4225  0.6827
41806SOL    HW227426   8.063   9.276   8.349 -0.4301 -0.8504  0.9826
41807SOL     OW27427   0.536   4.423   8.722 -0.3570 -0.6464  0.1672
41807SOL    HW127428   0.623   4.399   8.690 -0.3971 -1.8152  0.8479
41807SOL    HW227429   0.476   4.373   8.666 -0.5596 -0.3638  0.1301
41808SOL     OW27430   1.402   7.833   7.267  0.1240  0.0917  0.3102
41808SOL    HW127431   1.385   7.775   7.193  1.6616 -2.5574  1.9014
41808SOL    HW227432   1.333   7.812   7.331  0.9693 -0.3885  1.0902
41809SOL     OW27433   1.012   9.865   5.845 -0.1988 -0.8499 -0.2970
41809SOL    HW127434   1.083   9.886   5.906  0.8235 -2.4954 -0.8437
41809SOL    HW227435   1.037   9.906   5.763 -0.9284  0.2664  0.0101
41810SOL     OW27436  10.025   8.958   2.203 -0.4125  0.1430 -0.0482
41810SOL    HW127437   9.942   9.006   2.199 -0.3469  0.1809 -1.9280
41810SOL    HW227438  10.001   8.870   2.231 -0.6912  0.8758  2.2246
41811SOL     OW27439   4.229   9.219   1.395  0.4196 -0.0747 -0.4185
41811SOL    HW127440   4.282   9.293   1.363 -0.5545  0.6262 -0.4599
41811SOL    HW227441   4.145   9.228   1.350  0.1566 -1.0011 -0.1351
41812SOL     OW27442   7.770   1.031   8.457 -0.2963  0.8160  0.3954
41812SOL    HW127443   7.683   1.002   8.484 -0.7350  1.4009 -0.3453
41812SOL    HW227444   7.806   0.955   8.412 -0.7112  0.7967  0.0826
41813SOL     OW27445   8.232   3.678   2.860  0.4426 -0.1141 -0.0133
41813SOL    HW127446   8.225   3.772   2.873  0.9083  0.0703 -0.9532
41813SOL    HW227447   8.283   3.647   2.935 -1.5927  0.0032  1.5183
41814SOL     OW27448   2.504   6.256   9.542  0.6673 -0.1781  0.0290
41814SOL    HW127449   2.492   6.162   9.555  0.3821 -0.0373  0.8027
41814SOL    HW227450   2.434   6.281   9.481 -0.7753 -0.0470  1.6555
41815SOL     OW27451   7.781   6.776   8.618  0.1548  0.7070  0.1019
41815SOL    HW127452   7.818   6.723   8.548  1.0009 -0.1319  1.1551
41815SOL    HW227453   7.841   6.766   8.692 -1.1917  0.8005  1.2763
41816SOL     OW27454   5.292  10.795   1.161 -0.3423  0.2703 -0.0445
41816SOL    HW127455   5.251  10.877   1.187 -0.2037 -0.0176  1.1566
41816SOL    HW227456   5.267  10.783   1.070 -2.1645  0.5825  0.3700
41817SOL     OW27457   3.679   7.973   2.197 -0.1235 -0.2370 -0.2314
41817SOL    HW127458   3.691   7.902   2.260 -1.4360  0.6177  1.0530
41817SOL    HW227459   3.634   7.932   2.123  1.7239 -1.3273 -0.8020
41818SOL     OW27460   9.033   4.121   1.232  0.2655  0.0761 -0.1789
41818SOL    HW127461   8.970   4.172   1.283  0.3452 -0.9314  0.9686
41818SOL    HW227462   8.988   4.038   1.217  1.0195 -0.3591 -0.0343
41819SOL     OW27463   9.111   5.426   5.128  0.3053  0.4981 -0.4965
41819SOL    HW127464   9.113   5.427   5.224  1.8889  0.1252 -0.4978
41819SOL    HW227465   9.097   5.518   5.104  0.9364  0.7618  0.0930
41820SOL     OW27466  10.512   8.391   8.089  0.7547 -0.4187 -0.3068
41820SOL    HW127467  10.486   8.332   8.019 -0.7857 -0.7808  0.5147
41820SOL    HW227468  10.507   8.337   8.168 -0.2914  0.6687  0.4099
41821SOL     OW27469   1.371   5.561  10.011 -0.0026  0.4660 -0.0091
41821SOL    HW127470   1.443   5.592   9.955  0.2232 -0.1947 -0.0945
41821SOL    HW227471   1.413   5.543  10.095  0.4761 -2.3327 -0.7578
41822SOL     OW27472   3.017   0.405   5.446  0.2953  0.3357  0.8667
41822SOL    HW127473   3.051   0.457   5.519  1.5318 -0.3390  0.7826
41822SOL    HW227474   2.927   0.438   5.434  0.0153  0.3837  2.7452
41823SOL     OW27475   8.845   8.541   6.739 -0.0920 -0.6219 -0.2183
41823SOL    HW127476   8.753   8.513   6.744 -0.6024  0.9285 -0.2016
41823SOL    HW227477   8.895   8.462   6.754 -1.4394 -1.2723  1.1723
41824SOL     OW27478  10.997   8.172   7.587  0.6320 -0.9447  0.0428
41824SOL    HW127479  10.998   8.085   7.545  2.2262 -1.2199  0.5879
41824SOL    HW227480  11.072   8.170   7.646  0.6155  0.7787  0.1504
41825SOL     OW27481   8.143   6.334   5.660  0.0549 -0.2706  0.2551
41825SOL    HW127482   8.219   6.332   5.603  0.0050  1.6033  0.0658
41825SOL    HW227483   8.105   6.246   5.653  1.0450 -0.6108 -1.1937
41826SOL     OW27484   6.562   9.458   8.906 -0.7368  0.2968  0.5288
41826SOL    HW127485   6.540   9.546   8.877 -1.0122  0.0667  0.0064
41826SOL    HW227486   6.635   9.469   8.967 -1.6933  1.0158  1.5876
41827SOL     OW27487   8.314   6.855   4.283 -0.1913  0.5636  0.2264
41827SOL    HW127488   8.329   6.921   4.351  0.5438  0.2412  0.3801
41827SOL    HW227489   8.229   6.880   4.245 -0.0952  1.3888  0.5202
41828SOL     OW27490   9.818   9.484   5.473 -0.3447 -0.3503 -0.0693
41828SOL    HW127491   9.816   9.547   5.546 -0.1282 -0.3231 -0.0858
41828SOL    HW227492   9.834   9.400   5.515 -2.2297 -0.6580  0.1251
41829SOL     OW27493   2.326   6.761   5.748 -0.6081 -0.0442  0.0601
41829SOL    HW127494   2.370   6.810   5.817 -1.3835 -0.7443  1.0865
41829SOL    HW227495   2.381   6.683   5.735 -1.3869 -0.8049  1.1796
41830SOL     OW27496   5.071   9.901   8.262  0.0372 -0.0466 -0.4219
41830SOL    HW127497   5.121   9.884   8.341 -0.2515 -1.0101 -0.4237
41830SOL    HW227498   4.982   9.919   8.293  0.0835  0.3052 -0.4895
41831SOL     OW27499   8.242  10.757   1.087 -0.3876 -0.1610 -0.3658
41831SOL    HW127500   8.253  10.824   1.020 -0.4517  1.8394  1.5233
41831SOL    HW227501   8.148  10.738   1.087 -0.0927 -2.0282 -2.4433
41832SOL     OW27502   3.048   3.161   6.130  0.2400 -0.1544 -0.6115
41832SOL    HW127503   2.956   3.185   6.120  0.5056  0.8000 -0.8360
41832SOL    HW227504   3.071   3.190   6.218  0.4047 -0.1470 -0.6573
41833SOL     OW27505   9.341   3.593   8.108  0.0569  0.0164  0.2360
41833SOL    HW127506   9.289   3.552   8.039 -0.4708  2.6174 -1.0284
41833SOL    HW227507   9.429   3.603   8.070  0.3411 -0.4298  0.7514
41834SOL     OW27508   7.248   1.708   9.512 -0.5458 -0.2039  0.1913
41834SOL    HW127509   7.189   1.697   9.586 -1.1130 -0.1470 -0.2412
41834SOL    HW227510   7.335   1.694   9.548 -0.7133  0.9543  1.1203
41835SOL     OW27511   6.748   7.851   4.994  0.6511  0.3027  0.2414
41835SOL    HW127512   6.803   7.858   4.916 -0.5088 -3.8380 -1.2028
41835SOL    HW227513   6.658   7.860   4.962  0.2044  0.8819  1.5521
41836SOL     OW27514   1.055   4.833   8.736  0.2979  0.6247 -0.5408
41836SOL    HW127515   1.075   4.789   8.819  1.7017  0.6427 -0.8425
41836SOL    HW227516   0.963   4.858   8.744 -0.0064 -0.6450  0.4265
41837SOL     OW27517   3.012   9.866   5.930 -0.6147 -0.5279 -0.0205
41837SOL    HW127518   2.988   9.802   5.863  0.5721 -0.7889 -0.2199
41837SOL    HW227519   3.105   9.884   5.914 -0.4742 -0.1175  1.1685
41838SOL     OW27520   1.099   7.243   2.481  0.3385  0.2924  0.5719
41838SOL    HW127521   1.071   7.315   2.538  1.9822  1.7024 -0.2903
41838SOL    HW227522   1.032   7.238   2.413  0.5993  1.6195  0.1783
41839SOL     OW27523   0.079   3.848  10.174 -0.8292  0.1067  0.0206
41839SOL    HW127524   0.030   3.929  10.190 -2.2461 -0.9586  1.2809
41839SOL    HW227525   0.125   3.831  10.256 -1.8940 -1.2471  0.3621
41840SOL     OW27526  10.276   7.924   9.028  0.0225  0.4427  0.5239
41840SOL    HW127527  10.237   7.879   9.103  3.0823 -0.9636  1.4508
41840SOL    HW227528  10.308   8.007   9.063 -0.1323  0.5877  0.3250
41841SOL     OW27529   0.996  10.911   8.709 -0.0202 -0.2944 -0.1250
41841SOL    HW127530   0.953  10.950   8.633 -1.8314 -0.5038  0.7498
41841SOL    HW227531   0.948  10.945   8.785  0.9157 -1.0954  0.8713
41842SOL     OW27532   4.840   0.426   5.977  0.4524  0.0504 -0.1131
41842SOL    HW127533   4.800   0.476   5.906 -1.6496 -0.9361  0.3077
41842SOL    HW227534   4.826   0.335   5.954  1.4190 -0.3218  0.6816
41843SOL     OW27535   7.242   9.756   3.198 -0.3288  0.0428  0.8565
41843SOL    HW127536   7.149   9.745   3.214 -1.0279  0.2855 -2.3081
41843SOL    HW227537   7.268   9.676   3.152  0.8857  0.2231  1.1865
41844SOL     OW27538   0.335   7.513  10.760  0.0335 -0.2784  0.0207
41844SOL    HW127539   0.429   7.504  10.777  0.0004  0.0587  0.4024
41844SOL    HW227540   0.328   7.510  10.665  0.5105  0.4142 -0.0440
41845SOL     OW27541   3.320   0.398   8.123  0.0584 -0.8616 -0.1619
41845SOL    HW127542   3.391   0.436   8.072  0.8186  0.5234  1.8231
41845SOL    HW227543   3.353   0.313   8.152  0.4034 -0.7737 -0.3016
41846SOL     OW27544   2.755   8.430   3.403  0.1615  0.5862 -0.1801
41846SOL    HW127545   2.755   8.525   3.419 -2.3935  0.8648 -1.4136
41846SOL    HW227546   2.676   8.399   3.447  0.5084 -0.8620 -0.5398
41847SOL     OW27547   3.152   9.105  10.313  0.1308  0.1023  0.1732
41847SOL    HW127548   3.184   9.043  10.248  0.4925 -0.0625  0.5068
41847SOL    HW227549   3.114   9.176  10.262  2.2846  0.9981 -0.2762
41848SOL     OW27550  10.353   6.141  10.740 -0.9589 -0.1985  0.3507
41848SOL    HW127551  10.398   6.062  10.769 -0.1205  0.1466  0.0581
41848SOL    HW227552  10.351   6.197  10.817 -0.8483 -0.2000  0.3548
41849SOL     OW27553   8.684   9.043  10.099 -0.2372 -0.2018 -0.4062
41849SOL    HW127554   8.671   9.033  10.004 -0.6264  2.0622 -0.6729
41849SOL    HW227555   8.601   9.080  10.130  0.8990  1.9883  0.2300
41850SOL     OW27556   4.156   4.455   9.797 -0.6620  0.0239  0.3648
41850SOL    HW127557   4.162   4.389   9.728 -1.1131 -1.3230  1.5671
41850SOL    HW227558   4.244   4.492   9.804  0.3019 -2.2754  1.3673
41851SOL     OW27559   2.117   8.624  10.672  0.2769  0.1264  0.3633
41851SOL    HW127560   2.139   8.540  10.630 -1.4464 -1.0003  1.5617
41851SOL    HW227561   2.092   8.600  10.761 -0.8052  1.8710  0.5724
41852SOL     OW27562   7.251   1.646  10.574 -0.3358  0.1086 -0.0954
41852SOL    HW127563   7.267   1.704  10.649  0.0748  0.9439 -0.8125
41852SOL    HW227564   7.308   1.570  10.590  0.9023  0.9620 -0.2930
41853SOL     OW27565   7.696   8.843   8.344 -0.0678 -1.0128  0.2671
41853SOL    HW127566   7.698   8.886   8.259  0.7632 -0.1560  0.7009
41853SOL    HW227567   7.788   8.827   8.365 -0.1984 -0.4103  1.3846
41854SOL     OW27568   5.673   2.658   2.613  0.1962 -0.9983 -0.2992
41854SOL    HW127569   5.626   2.604   2.677  1.1127 -3.5075 -1.6201
41854SOL    HW227570   5.748   2.692   2.661 -0.4651 -0.7676  0.5981
41855SOL     OW27571   0.256   5.576   4.298 -0.4393  0.0472  0.8194
41855SOL    HW127572   0.320   5.510   4.324  1.8653  1.7784 -0.0688
41855SOL    HW227573   0.174   5.547   4.337  0.7149 -2.6428  1.4843
41856SOL     OW27574   2.543   9.216   0.874  0.7565 -0.0284 -0.5722
41856SOL    HW127575   2.586   9.225   0.959  0.1944  3.8970 -0.5425
41856SOL    HW227576   2.453   9.192   0.895  0.7447  0.4285 -0.1060
41857SOL     OW27577   0.689   3.652   8.723  0.5943 -0.0800  0.6073
41857SOL    HW127578   0.683   3.725   8.785  0.2287  0.4277 -0.0167
41857SOL    HW227579   0.781   3.648   8.699  0.2312  1.9502 -1.4252
41858SOL     OW27580   0.080   5.996   8.634 -0.2423 -0.6009 -0.2333
41858SOL    HW127581   0.042   5.954   8.557  0.0215  0.2913 -0.8715
41858SOL    HW227582   0.094   5.925   8.696 -0.8637 -1.2712 -0.8404
41859SOL     OW27583   4.935   7.152   9.960 -0.6125 -0.2969 -0.6941
41859SOL    HW127584   4.887   7.069   9.953 -0.4684 -0.7055  1.9756
41859SOL    HW227585   4.986   7.158   9.879 -1.1339 -2.4944 -1.2384
41860SOL     OW27586   0.149   7.054   0.127  0.1555  0.0452  0.3959
41860SOL    HW127587   0.195   7.120   0.075  1.9567 -1.7038 -0.3682
41860SOL    HW227588   0.105   7.104   0.196  0.5657  2.1127 -0.7369
41861SOL     OW27589   1.600  10.363   0.530 -0.3854 -0.6616 -0.0672
41861SOL    HW127590   1.510  10.361   0.561  0.0095 -1.8696  1.1317
41861SOL    HW227591   1.648  10.311   0.595  1.4960  1.4181  0.3259
41862SOL     OW27592   8.997   6.371   8.795  0.1116 -0.7716 -0.2241
41862SOL    HW127593   8.903   6.386   8.788 -0.0141 -0.7519  1.3271
41862SOL    HW227594   9.025   6.427   8.867  1.1178 -1.6312  0.0775
41863SOL     OW27595   8.054   5.124   9.537  0.2087  0.5840  0.4683
41863SOL    HW127596   8.089   5.036   9.520  0.8237  1.1278 -1.3402
41863SOL    HW227597   8.104   5.181   9.478 -0.1206  2.1719  1.6697
41864SOL     OW27598   3.321   4.582   8.672 -0.3572  0.4473 -0.1153
41864SOL    HW127599   3.354   4.658   8.721  0.0856 -0.2038  0.6117
41864SOL    HW227600   3.226   4.592   8.672 -0.2517  1.8369 -1.3939
41865SOL     OW27601   2.267   0.643   0.330 -0.5968 -0.3458  0.3650
41865SOL    HW127602   2.191   0.685   0.371 -0.3343 -1.2639  1.8727
41865SOL    HW227603   2.272   0.557   0.371  0.4544 -0.8349 -0.7197
41866SOL     OW27604   9.683   3.062  11.015 -0.1855 -0.2816  0.5382
41866SOL    HW127605   9.758   3.100  10.969  1.2669 -2.5414  0.8583
41866SOL    HW227606   9.670   3.119  11.091  1.0074  0.3303  0.3081
41867SOL     OW27607   8.841   5.341   2.726 -0.5669  0.1730 -0.6325
41867SOL    HW127608   8.747   5.329   2.740 -0.6773  0.1102 -1.3682
41867SOL    HW227609   8.854   5.323   2.633  0.0443  1.0102 -0.7229
41868SOL     OW27610   8.108   3.863   6.608  0.1517 -0.0889  0.3028
41868SOL    HW127611   8.031   3.806   6.600  0.9235 -1.2608  0.8166
41868SOL    HW227612   8.138   3.849   6.698  0.9215  0.3949  0.1299
41869SOL     OW27613   4.581   4.706   7.133 -0.5791  0.1634 -0.3524
41869SOL    HW127614   4.657   4.748   7.173  0.1924 -1.5813  0.0733
41869SOL    HW227615   4.546   4.649   7.202 -1.6780  0.1828 -0.8722
41870SOL     OW27616   2.965  10.216   1.753  0.2771 -0.2910  0.0296
41870SOL    HW127617   2.926  10.129   1.757  1.4214 -0.8414 -0.4058
41870SOL    HW227618   3.020  10.223   1.831  0.3848 -0.0548 -0.0644
41871SOL     OW27619   9.661   6.992   7.466 -0.1852  0.0987 -0.2912
41871SOL    HW127620   9.737   7.041   7.498  0.0663 -0.1165 -0.5541
41871SOL    HW227621   9.691   6.952   7.385  0.0989 -1.7224  0.6641
41872SOL     OW27622  10.251   0.990   5.757  0.0527  0.6230 -0.3626
41872SOL    HW127623  10.226   0.982   5.665 -1.9679  1.2920  0.0815
41872SOL    HW227624  10.304   1.069   5.762  1.6961 -0.3634 -1.1918
41873SOL     OW27625   7.665   7.536   4.870 -0.2349 -0.1962  0.6297
41873SOL    HW127626   7.695   7.509   4.957 -1.1232 -0.2329  0.9291
41873SOL    HW227627   7.595   7.598   4.887 -0.0843  0.1748 -0.0684
41874SOL     OW27628   7.604   5.149  10.560 -0.3759  0.4019 -0.0571
41874SOL    HW127629   7.683   5.102  10.589  0.4905  1.9783  0.2145
41874SOL    HW227630   7.637   5.218  10.503 -1.4393  1.7714  0.9172
41875SOL     OW27631   2.288   5.608   1.971  0.3705  0.6170 -0.0289
41875SOL    HW127632   2.317   5.699   1.964  1.9068  0.1782  0.4025
41875SOL    HW227633   2.230   5.596   1.895  1.3437  1.5295 -0.9496
41876SOL     OW27634   2.546   4.685   8.091  0.1923  0.4421  0.0305
41876SOL    HW127635   2.621   4.745   8.091  0.2411  0.3806 -0.0690
41876SOL    HW227636   2.554   4.636   8.010 -0.4441  1.0410 -0.4087
41877SOL     OW27637   9.979  10.203  10.241 -0.9490 -0.2887 -0.0865
41877SOL    HW127638  10.006  10.111  10.239 -1.2730 -0.4055  0.7194
41877SOL    HW227639   9.957  10.224  10.150  0.1062 -0.7083 -0.4501
41878SOL     OW27640   4.496   0.576   0.353  0.1793 -0.4730  0.5048
41878SOL    HW127641   4.493   0.657   0.405 -0.6934  0.2226 -0.5765
41878SOL    HW227642   4.430   0.520   0.393 -0.4627  0.0422  0.1906
41879SOL     OW27643   8.458   5.285   8.155  0.2932 -0.7441 -0.0370
41879SOL    HW127644   8.413   5.227   8.094 -0.4023  0.4133 -0.6789
41879SOL    HW227645   8.389   5.346   8.184  1.2683  0.6242 -0.4769
41880SOL     OW27646   0.835   8.697   7.687 -0.1196  0.2041  0.6265
41880SOL    HW127647   0.909   8.675   7.743  1.2879  1.5311 -0.6179
41880SOL    HW227648   0.802   8.780   7.722 -1.1312 -0.4380  1.2457
41881SOL     OW27649   0.633   5.399   4.577 -0.5220 -0.2629  0.1539
41881SOL    HW127650   0.644   5.490   4.605 -0.4789  0.4711 -2.0078
41881SOL    HW227651   0.548   5.397   4.534 -0.3517 -1.1388 -0.1761
41882SOL     OW27652  11.100   5.629   8.781 -0.5855 -0.1001  0.3798
41882SOL    HW127653  11.042   5.556   8.804 -1.1339  0.0178 -0.5954
41882SOL    HW227654  11.155   5.641   8.858 -1.7211 -0.3502  1.2525
41883SOL     OW27655   4.910  10.350  10.955 -0.0630  0.8804  0.1952
41883SOL    HW127656   4.952  10.420  10.906  0.0906  0.7797  0.1819
41883SOL    HW227657   4.983  10.300  10.993 -0.1245  0.0320 -0.7471
41884SOL     OW27658   4.885   8.801   1.742 -0.5148  0.1271  0.2524
41884SOL    HW127659   4.789   8.808   1.742 -0.5245  0.1008  1.5130
41884SOL    HW227660   4.902   8.710   1.719 -0.7472  0.4126 -1.1395
41885SOL     OW27661   0.971   5.195   6.736 -0.0681  0.1793 -0.4607
41885SOL    HW127662   1.048   5.200   6.792 -0.3524  1.2339 -0.1518
41885SOL    HW227663   0.899   5.227   6.790 -0.8241 -1.1775 -0.6098
41886SOL     OW27664  11.040   2.304   8.101 -0.2145 -0.2506  0.6263
41886SOL    HW127665  11.092   2.319   8.180  0.8444 -1.7570  0.2641
41886SOL    HW227666  10.956   2.271   8.132 -0.5598  1.0969  1.1794
41887SOL     OW27667   3.045   6.473   2.375  0.3537  0.8978  0.4350
41887SOL    HW127668   3.053   6.467   2.280  0.0139 -0.5634  0.4717
41887SOL    HW227669   3.108   6.410   2.409 -1.2955 -0.4997  1.0844
41888SOL     OW27670   8.404   3.726   7.214  0.0361  0.3786 -0.2382
41888SOL    HW127671   8.474   3.697   7.155 -0.8861 -0.3737 -0.9861
41888SOL    HW227672   8.397   3.820   7.198  1.3417  0.6039  0.3735
41889SOL     OW27673   6.844  10.991   6.684 -0.0297 -0.4031  0.3387
41889SOL    HW127674   6.903  10.927   6.644  0.5264  0.2059  0.1793
41889SOL    HW227675   6.759  10.973   6.644  0.5030  0.1620 -1.1021
41890SOL     OW27676   8.734   6.322   8.716 -0.2500 -0.4568 -0.1338
41890SOL    HW127677   8.657   6.320   8.773 -0.7238  2.4686 -0.5190
41890SOL    HW227678   8.766   6.232   8.717 -0.9382 -0.8516  3.7436
41891SOL     OW27679   6.301   0.281   8.882 -0.1093 -0.4684  0.3722
41891SOL    HW127680   6.228   0.331   8.844 -0.0314 -0.1034  0.6976
41891SOL    HW227681   6.328   0.333   8.958  0.7278 -0.4110  0.0412
41892SOL     OW27682   0.327   8.191   7.460  0.7031 -0.0610  0.0814
41892SOL    HW127683   0.377   8.240   7.526  2.1578 -0.5760 -0.5892
41892SOL    HW227684   0.308   8.256   7.392  0.7080  0.0860  0.2205
41893SOL     OW27685   2.060   0.954   8.179 -0.3431  0.2414 -0.0694
41893SOL    HW127686   2.070   0.930   8.087 -0.7400  0.6882 -0.2329
41893SOL    HW227687   2.121   1.026   8.192 -0.3759  0.2592 -0.0152
41894SOL     OW27688   9.966   9.013   5.704  0.0053  1.0939 -0.5056
41894SOL    HW127689   9.891   9.020   5.763 -0.1273 -1.6130 -0.2113
41894SOL    HW227690  10.041   9.036   5.759 -0.2372 -0.2379  0.4351
41895SOL     OW27691   4.904   9.405   7.782 -0.3107  0.6194 -0.4664
41895SOL    HW127692   4.973   9.455   7.739 -0.7192 -0.4948 -2.5953
41895SOL    HW227693   4.950   9.338   7.833  0.2357 -0.2197 -1.9923
41896SOL     OW27694   6.054   5.190   1.816 -0.6293  0.1763 -0.2227
41896SOL    HW127695   6.088   5.219   1.900 -1.5886 -0.4531  0.3997
41896SOL    HW227696   5.974   5.240   1.803 -0.5562  0.1765 -0.6950
41897SOL     OW27697   0.385  10.120   0.444 -0.1705 -0.0430 -0.5783
41897SOL    HW127698   0.332  10.040   0.445 -2.1031  0.9482  3.9253
41897SOL    HW227699   0.472  10.091   0.469 -0.3733 -0.9429 -0.8900
41898SOL     OW27700   1.162   2.824   6.103  0.2984 -0.5452 -0.1413
41898SOL    HW127701   1.089   2.875   6.135 -2.0290 -3.4210 -0.4586
41898SOL    HW227702   1.199   2.782   6.181  1.9314  1.1107  0.0607
41899SOL     OW27703   8.804   0.308   0.600 -0.0840  0.5749  0.0675
41899SOL    HW127704   8.841   0.228   0.637 -0.4091  0.0915 -0.6275
41899SOL    HW227705   8.802   0.369   0.673 -0.4906 -0.2837  0.7990
41900SOL     OW27706   6.505   3.681   0.473  0.5055 -0.1377 -0.1575
41900SOL    HW127707   6.468   3.701   0.387  1.2303  0.9021 -0.2514
41900SOL    HW227708   6.455   3.606   0.504 -1.7947  1.2749 -0.2068
41901SOL     OW27709  10.658   7.383   9.749 -0.3579  0.2707  0.0918
41901SOL    HW127710  10.685   7.353   9.662  0.8247  2.5706 -0.4091
41901SOL    HW227711  10.600   7.314   9.781  2.2732 -2.6577 -0.8411
41902SOL     OW27712  10.228   8.516   7.572  0.1588  0.3990  0.7304
41902SOL    HW127713  10.185   8.596   7.542  2.8635  1.1201 -1.5880
41902SOL    HW227714  10.233   8.460   7.495  0.8829 -0.7958  1.5999
41903SOL     OW27715   8.845   9.666   6.016 -0.0870 -0.4687  0.7004
41903SOL    HW127716   8.930   9.636   5.987  0.4083  1.3667  0.1169
41903SOL    HW227717   8.864   9.728   6.087 -0.7170  1.6872 -0.9031
41904SOL     OW27718   1.119   9.644   6.633 -0.4356  0.2336  0.5025
41904SOL    HW127719   1.035   9.599   6.621 -1.1250  1.7927 -0.9252
41904SOL    HW227720   1.097   9.737   6.639  1.1916  0.7204 -0.2914
41905SOL     OW27721   6.859   7.331   6.070 -0.4501  0.2063 -0.4757
41905SOL    HW127722   6.788   7.301   6.127  0.2769  3.2130  2.3146
41905SOL    HW227723   6.898   7.250   6.037 -2.9402 -1.6465  0.7105
41906SOL     OW27724   1.977   9.043   9.754 -0.1705 -0.2974  0.6404
41906SOL    HW127725   1.957   9.136   9.751  2.1782  0.2470 -1.3639
41906SOL    HW227726   2.002   9.026   9.844 -0.1141  1.1330  0.9109
41907SOL     OW27727   7.798   8.758  10.379 -0.2344  0.2540  0.8859
41907SOL    HW127728   7.754   8.683  10.338  2.9975 -0.4738 -1.6247
41907SOL    HW227729   7.838   8.721  10.458  0.1505 -0.3364  0.4237
41908SOL     OW27730   1.738  10.375   1.463  0.4086 -0.2951 -0.2633
41908SOL    HW127731   1.829  10.358   1.488  0.2219 -1.6147 -0.4126
41908SOL    HW227732   1.697  10.407   1.543  0.8328 -0.4065  0.0055
41909SOL     OW27733   8.535   6.481   4.410  0.1744 -1.0452  0.1874
41909SOL    HW127734   8.595   6.536   4.460 -0.9269 -0.1556  0.5636
41909SOL    HW227735   8.509   6.412   4.471 -0.9178 -0.1440  0.7660
41910SOL     OW27736   2.415   7.205   7.845  0.1696 -0.4162  0.6946
41910SOL    HW127737   2.477   7.141   7.811  1.3084  0.3471  1.2425
41910SOL    HW227738   2.444   7.288   7.807 -0.7930 -0.1041  0.6190
41911SOL     OW27739   5.751   0.108   8.519  0.1730  0.4089 -1.0230
41911SOL    HW127740   5.664   0.091   8.555  0.6136  0.2915  0.0093
41911SOL    HW227741   5.811   0.090   8.591  1.0749  0.2562 -1.7936
41912SOL     OW27742   3.343   0.509   5.475 -0.6095 -0.5988  0.1867
41912SOL    HW127743   3.419   0.554   5.513  0.1919 -1.5108 -0.2612
41912SOL    HW227744   3.274   0.518   5.540  0.6346 -1.9098  1.7831
41913SOL     OW27745   1.486   5.224   3.187  0.0308  0.3346 -0.1529
41913SOL    HW127746   1.461   5.172   3.264 -0.5791 -0.5640 -0.9394
41913SOL    HW227747   1.423   5.296   3.186  0.1076  0.4085  0.2572
41914SOL     OW27748   7.395   9.400   7.005  0.1867 -0.1945 -0.1339
41914SOL    HW127749   7.350   9.336   7.061  0.9583  0.2626  1.0502
41914SOL    HW227750   7.470   9.428   7.057  0.5172  0.8126 -1.1212
41915SOL     OW27751   6.439  10.169   4.004  0.2840 -0.4494 -0.2507
41915SOL    HW127752   6.391  10.227   3.944 -0.2134 -0.5608  0.0316
41915SOL    HW227753   6.389  10.088   4.002 -0.4043 -0.0922  1.1882
41916SOL     OW27754   8.249   4.621   5.507 -0.4171  0.0183 -0.1430
41916SOL    HW127755   8.179   4.658   5.454 -0.2258  0.9776  0.2500
41916SOL    HW227756   8.269   4.689   5.572  2.7689  1.0026 -1.8956
41917SOL     OW27757   0.507   6.297   4.853  0.0489  0.2811  0.3873
41917SOL    HW127758   0.443   6.364   4.831  1.1329  1.4243  0.5856
41917SOL    HW227759   0.496   6.230   4.786 -0.6993  0.9063 -0.1281
41918SOL     OW27760   3.011   4.060   0.865 -0.1775  0.4333  0.2094
41918SOL    HW127761   3.014   4.024   0.777 -1.6450 -1.3598  0.8324
41918SOL    HW227762   3.070   4.004   0.916  0.6351  1.4321  0.4027
41919SOL     OW27763   8.536   3.471   8.334  0.2715  0.2306  0.0719
41919SOL    HW127764   8.615   3.522   8.313 -0.5660  0.9047 -1.5991
41919SOL    HW227765   8.534   3.402   8.268 -2.4345  2.3987 -2.3747
41920SOL     OW27766   6.119   7.318  10.586 -0.4159  0.3244  0.7861
41920SOL    HW127767   6.209   7.331  10.616  0.1180 -0.9782 -0.1211
41920SOL    HW227768   6.110   7.223  10.578 -1.4521  0.4943 -0.4007
41921SOL     OW27769   4.028   7.284   2.741 -0.1904  0.1560 -0.7866
41921SOL    HW127770   4.088   7.341   2.694 -0.1524 -0.6290 -1.7139
41921SOL    HW227771   4.069   7.197   2.737 -2.1600 -0.7712 -2.9552
41922SOL     OW27772   0.689   5.552   4.948 -0.3728  0.0811  0.2733
41922SOL    HW127773   0.757   5.613   4.975  1.9461 -1.6474 -1.2704
41922SOL    HW227774   0.656   5.588   4.865 -0.3675  0.2118  0.3281
41923SOL     OW27775   8.514   5.318   3.406  0.0443  0.1516 -0.0534
41923SOL    HW127776   8.438   5.376   3.400 -0.5141 -0.5983 -0.4672
41923SOL    HW227777   8.516   5.273   3.321 -1.6183 -2.9351  1.3919
41924SOL     OW27778   0.243   8.340   6.995 -0.7520  0.5637  0.4149
41924SOL    HW127779   0.274   8.269   6.939 -1.3785  1.0593 -0.5818
41924SOL    HW227780   0.291   8.328   7.077  1.4193  0.7935 -0.7525
41925SOL     OW27781   7.405   8.342   7.540  0.2651  0.2779 -0.5622
41925SOL    HW127782   7.373   8.409   7.600  1.6112  0.3935  0.0799
41925SOL    HW227783   7.462   8.287   7.594  0.2124 -0.5963 -1.3758
41926SOL     OW27784   7.574   5.528   8.973 -0.0381  0.3075 -0.6519
41926SOL    HW127785   7.571   5.439   9.008  1.8937  0.5584  0.3175
41926SOL    HW227786   7.602   5.582   9.047 -0.9428  1.7096 -1.2816
41927SOL     OW27787   0.886   8.473   5.363 -0.2149 -0.1535 -0.6248
41927SOL    HW127788   0.955   8.408   5.373 -1.2640 -1.1597  0.3823
41927SOL    HW227789   0.896   8.507   5.274  1.0817 -0.8290 -0.7453
41928SOL     OW27790   6.339   3.452   9.305 -0.1023 -0.2136  0.1001
41928SOL    HW127791   6.275   3.452   9.375  0.2653  0.4930  0.4376
41928SOL    HW227792   6.420   3.483   9.345  0.4310 -0.9583 -0.3518
41929SOL     OW27793   3.777  10.000   7.019 -0.4097  0.1289  0.0030
41929SOL    HW127794   3.790   9.966   7.107  0.7357 -0.8218 -0.5035
41929SOL    HW227795   3.838  10.074   7.013 -1.2501  0.8624  0.3441
41930SOL     OW27796   4.855   8.027   6.281  0.5323 -0.1235 -0.1664
41930SOL    HW127797   4.818   8.106   6.241 -1.0808  0.6972  2.6695
41930SOL    HW227798   4.943   8.053   6.308  0.1178  0.6381  0.4856
41931SOL     OW27799   2.219   6.259  10.789 -0.5000  0.9475 -0.0061
41931SOL    HW127800   2.302   6.305  10.800  0.0934 -0.5069  2.3821
41931SOL    HW227801   2.159   6.303  10.851 -0.8258  0.4847  0.0110
41932SOL     OW27802   6.613   6.724   8.902  0.4349 -0.3748 -0.1964
41932SOL    HW127803   6.696   6.707   8.857 -0.2388 -2.0628 -0.8757
41932SOL    HW227804   6.549   6.732   8.831 -0.5587 -2.5269  0.3757
41933SOL     OW27805   4.646   3.726   0.191 -0.7230 -0.0354 -0.3352
41933SOL    HW127806   4.720   3.674   0.161 -2.7479 -3.0379 -0.5413
41933SOL    HW227807   4.569   3.681   0.156 -2.7793  1.7855  1.5031
41934SOL     OW27808   5.962   1.040   1.211 -0.5098  0.9112 -0.3823
41934SOL    HW127809   5.991   1.095   1.283  0.0116  0.0267  0.1026
41934SOL    HW227810   5.924   1.101   1.147 -0.5991  1.7399  0.4518
41935SOL     OW27811   7.081   4.342   6.686  0.7778 -0.2635  0.0947
41935SOL    HW127812   7.047   4.339   6.776  0.0157  0.7897 -0.1385
41935SOL    HW227813   7.176   4.334   6.696  1.2054  4.0526  1.4175
41936SOL     OW27814   3.057  11.005   6.564 -0.0352  0.4124 -0.3962
41936SOL    HW127815   3.140  11.042   6.594  0.2506 -0.3219 -0.2828
41936SOL    HW227816   3.045  10.926   6.616 -0.2095 -0.1451 -1.2714
41937SOL     OW27817  10.425   7.597  10.527  0.0195  0.0148 -0.2187
41937SOL    HW127818  10.386   7.624  10.443 -2.3198 -2.3528 -0.0253
41937SOL    HW227819  10.440   7.503  10.518  1.1419 -0.0168  1.5237
41938SOL     OW27820  10.681   8.228   1.633  0.4059  0.0810 -0.0511
41938SOL    HW127821  10.765   8.272   1.645  0.0297  0.4195  1.6633
41938SOL    HW227822  10.620   8.277   1.688 -0.1442 -2.2598  1.5962
41939SOL     OW27823   6.372   0.718   5.384  0.4504  0.0643 -0.6863
41939SOL    HW127824   6.403   0.727   5.474  0.6804 -0.9431 -0.6460
41939SOL    HW227825   6.429   0.651   5.346 -0.8897 -0.9468 -0.9839
41940SOL     OW27826   6.688   2.309   4.314 -0.0213  0.2832  0.2609
41940SOL    HW127827   6.759   2.372   4.323 -0.3233  0.4832  1.3685
41940SOL    HW227828   6.608   2.360   4.329 -0.3361 -0.1394  0.0505
41941SOL     OW27829   2.551   5.689   0.424  0.4171 -0.5197 -0.2522
41941SOL    HW127830   2.541   5.628   0.351 -0.9817  0.5199 -0.9857
41941SOL    HW227831   2.598   5.763   0.388  0.9828 -0.6007  0.2972
41942SOL     OW27832   9.865   6.790   7.719 -0.0877 -0.3846  0.1843
41942SOL    HW127833   9.883   6.741   7.799  2.2938 -1.0859 -0.7070
41942SOL    HW227834   9.814   6.730   7.665  1.3651 -1.3132 -0.2168
41943SOL     OW27835   0.094   7.073   7.706 -0.0720  0.3243  0.7629
41943SOL    HW127836   0.165   7.113   7.655  0.7278 -1.9205 -0.0190
41943SOL    HW227837   0.108   7.104   7.795  0.3098  1.9523  0.1815
41944SOL     OW27838   3.077   5.509  10.958 -0.1103  0.4083  0.5789
41944SOL    HW127839   2.982   5.500  10.953  0.0891 -1.4552 -0.6454
41944SOL    HW227840   3.101   5.465  11.039 -0.1871 -0.1794  0.2843
41945SOL     OW27841   7.251   0.101   9.078 -0.2851  0.1946 -0.0341
41945SOL    HW127842   7.181   0.120   9.016 -0.3783  0.8428  0.2520
41945SOL    HW227843   7.329   0.088   9.025 -0.4368  0.3980 -0.3063
41946SOL     OW27844  10.985   7.633   7.438  0.0350 -0.6633 -1.0615
41946SOL    HW127845  10.894   7.657   7.419 -0.0380  0.5580  0.5408
41946SOL    HW227846  10.978   7.560   7.499  0.1318 -0.7828 -1.1947
41947SOL     OW27847   5.416   8.361   5.063  0.1668  0.8418 -0.4236
41947SOL    HW127848   5.323   8.356   5.081  0.5301 -0.3767  1.3829
41947SOL    HW227849   5.448   8.272   5.078  1.5697  1.1500 -1.3825
41948SOL     OW27850   2.659   8.246  10.710  0.3802 -0.3657  0.6081
41948SOL    HW127851   2.564   8.248  10.697  0.6205 -0.5241 -1.6457
41948SOL    HW227852   2.681   8.153  10.716  0.4537 -0.3707  0.3164
41949SOL     OW27853   4.690   0.211   5.398  0.4473  0.1941  0.7934
41949SOL    HW127854   4.691   0.124   5.358 -2.6341  0.6758 -0.6652
41949SOL    HW227855   4.674   0.271   5.325 -0.1494  1.6828  2.0773
41950SOL     OW27856   9.436   0.695   5.039 -0.0324 -0.5325 -0.0047
41950SOL    HW127857   9.455   0.698   4.945 -0.3972 -1.9874 -0.1515
41950SOL    HW227858   9.473   0.612   5.068  2.9284  1.2632  1.8362
41951SOL     OW27859   1.638   1.541   7.782  0.0259  0.3483 -0.5068
41951SOL    HW127860   1.625   1.635   7.769 -0.5973  0.2028 -0.9942
41951SOL    HW227861   1.630   1.504   7.694  1.5047 -0.0304 -0.5006
41952SOL     OW27862   7.019  10.307  10.841 -0.3793 -0.1001  0.0475
41952SOL    HW127863   7.039  10.317  10.748 -2.7578 -0.6201 -0.5871
41952SOL    HW227864   7.052  10.220  10.864 -0.3457 -0.2203 -0.4598
41953SOL     OW27865   1.688   9.297   5.239 -0.5136 -0.0195 -0.6893
41953SOL    HW127866   1.637   9.346   5.174  0.8416 -0.2779 -2.0095
41953SOL    HW227867   1.650   9.322   5.323 -1.4253  1.4164 -1.4821
41954SOL     OW27868   1.830   8.481   5.802 -0.7606 -0.1955  0.5557
41954SOL    HW127869   1.918   8.477   5.841  0.0952 -1.6251 -1.3565
41954SOL    HW227870   1.819   8.397   5.759 -2.3155  0.6527 -0.8152
41955SOL     OW27871   4.439  10.303   4.478  0.0728  0.4506 -0.0083
41955SOL    HW127872   4.427  10.298   4.383  4.1560 -0.2537 -0.6785
41955SOL    HW227873   4.504  10.372   4.490  0.0420  0.1716  2.2467
41956SOL     OW27874   9.276   5.857   9.081 -0.0473 -0.5716  0.5707
41956SOL    HW127875   9.271   5.926   9.015  2.4832  0.3458  1.2462
41956SOL    HW227876   9.356   5.809   9.061 -0.0752 -1.2994  2.0198
41957SOL     OW27877  10.199   7.341   6.678  0.6523  1.0490 -0.1507
41957SOL    HW127878  10.182   7.255   6.718  1.8809 -0.1269 -2.0139
41957SOL    HW227879  10.126   7.396   6.709 -0.8654 -0.9919  0.1447
41958SOL     OW27880   4.677   6.148   9.641  0.3298  0.1926 -0.0945
41958SOL    HW127881   4.616   6.192   9.700  2.5483  0.3630  2.2366
41958SOL    HW227882   4.681   6.058   9.673 -1.1873 -0.7726 -2.3737
41959SOL     OW27883   2.244   1.042   3.100 -0.1259  0.1075 -0.1587
41959SOL    HW127884   2.211   1.017   3.186  0.0805  2.4711  0.6998
41959SOL    HW227885   2.334   1.010   3.098 -0.5484 -1.1499 -0.0950
41960SOL     OW27886   9.960   8.804   7.728  0.0325 -0.1860 -0.7510
41960SOL    HW127887  10.018   8.869   7.767 -0.0147 -0.5210 -0.1132
41960SOL    HW227888  10.012   8.763   7.659  1.1925 -1.6741  0.9081
41961SOL     OW27889   9.767   8.813   5.982  0.1308  0.0585 -0.0332
41961SOL    HW127890   9.673   8.817   5.963 -0.1932 -0.6417  1.2412
41961SOL    HW227891   9.797   8.735   5.936  0.0681  0.2279 -0.3630
41962SOL     OW27892   1.110   3.959   1.633  0.1626 -0.0579  0.4067
41962SOL    HW127893   1.203   3.941   1.650  0.7188  0.5365 -1.7685
41962SOL    HW227894   1.077   3.991   1.717  1.3704 -2.2853  1.8400
41963SOL     OW27895   0.556   4.376   6.371 -0.0507  0.3403  0.3558
41963SOL    HW127896   0.615   4.316   6.326  0.6723  0.2267  1.4300
41963SOL    HW227897   0.514   4.323   6.439 -1.7985  0.2886 -0.7078
41964SOL     OW27898   8.952   9.828  10.004 -0.0162  0.7271 -0.3358
41964SOL    HW127899   8.920   9.918   9.999 -2.5416 -0.0529  0.4593
41964SOL    HW227900   9.042   9.833   9.972 -0.3169  3.3948 -0.9975
41965SOL     OW27901   2.484   4.835   8.347 -0.1718  0.3260 -0.5006
41965SOL    HW127902   2.525   4.862   8.266 -0.0113 -1.1266 -0.9405
41965SOL    HW227903   2.405   4.889   8.353  0.0922  0.8276 -1.3327
41966SOL     OW27904   8.920  10.019   5.470  0.0402  0.2397 -0.2993
41966SOL    HW127905   8.962   9.937   5.445 -1.9912 -0.7179 -0.8034
41966SOL    HW227906   8.986  10.086   5.454  0.7497 -0.9589 -2.8508
41967SOL     OW27907   2.862   3.775   7.058 -0.3142  0.2330 -0.2234
41967SOL    HW127908   2.820   3.832   6.994  0.8108  1.2582 -0.0843
41967SOL    HW227909   2.943   3.821   7.082 -0.3318 -0.4872  1.3595
41968SOL     OW27910   8.742   8.606   5.607 -0.1302  0.5939  0.5082
41968SOL    HW127911   8.671   8.543   5.613 -0.7472  1.1862 -0.2923
41968SOL    HW227912   8.699   8.691   5.620  0.0934  1.1039 -1.7012
41969SOL     OW27913   9.564  10.385   0.049  0.0877 -0.2942  0.1856
41969SOL    HW127914   9.500  10.368   0.118 -1.3746  0.8908 -0.8257
41969SOL    HW227915   9.615  10.304   0.044 -0.6678 -0.9114  1.6978
41970SOL     OW27916   1.387  10.366   4.849  0.5304 -0.4060 -0.1215
41970SOL    HW127917   1.312  10.363   4.790  0.8776 -1.1420 -0.5336
41970SOL    HW227918   1.371  10.296   4.912  0.5936 -0.1925  0.1344
41971SOL     OW27919   3.792   6.457   0.890 -0.8969 -0.0133  0.3491
41971SOL    HW127920   3.795   6.479   0.797 -0.7916 -0.0898  0.3348
41971SOL    HW227921   3.770   6.539   0.934 -1.5681 -0.1095  0.2020
41972SOL     OW27922   4.293  10.554   2.226 -0.3756  0.1412  0.3094
41972SOL    HW127923   4.317  10.537   2.135  0.6885 -1.9449  0.9163
41972SOL    HW227924   4.366  10.604   2.262  0.2348 -0.9092  0.5592
41973SOL     OW27925   4.277   3.115  10.771 -0.1999 -0.5183 -0.0338
41973SOL    HW127926   4.234   3.198  10.791 -0.6842 -0.8674  0.3926
41973SOL    HW227927   4.262   3.060  10.848  1.5182 -0.4658  0.3919
41974SOL     OW27928   9.111   3.429  10.050  0.2709 -0.3215  0.0932
41974SOL    HW127929   9.055   3.420  10.128 -1.7591 -0.5174 -1.3189
41974SOL    HW227930   9.196   3.396  10.078 -0.5346 -0.8835  2.0829
41975SOL     OW27931   3.098   6.743   8.674 -0.5416  1.0116 -0.3227
41975SOL    HW127932   3.058   6.666   8.633 -0.1096  0.1483  0.8105
41975SOL    HW227933   3.094   6.725   8.768  1.4234  1.4060 -0.1200
41976SOL     OW27934   4.988   0.604   4.416 -0.2586  0.0077 -0.0070
41976SOL    HW127935   4.971   0.650   4.499  0.5173 -0.2579  0.3060
41976SOL    HW227936   4.924   0.533   4.415  1.0600 -1.3006  1.4090
41977SOL     OW27937   7.057   8.689  10.193 -0.1088  0.3493  1.0690
41977SOL    HW127938   6.980   8.734  10.228 -0.9033  0.9066 -1.2011
41977SOL    HW227939   7.031   8.662  10.105  2.5783  1.4471 -0.1840
41978SOL     OW27940   4.456   7.230   2.036  0.0529 -0.1006  0.1941
41978SOL    HW127941   4.444   7.323   2.055 -1.4006  0.4709 -2.9551
41978SOL    HW227942   4.369   7.192   2.047  0.1751 -0.6337 -0.6194
41979SOL     OW27943   9.180   9.586   2.827  0.3404  0.0633  0.1198
41979SOL    HW127944   9.259   9.633   2.799 -0.4517 -0.1057 -2.6629
41979SOL    HW227945   9.213   9.520   2.888  2.4051 -0.0026 -0.9517
41980SOL     OW27946   2.915   6.557   3.808  0.0748 -0.1420 -0.0296
41980SOL    HW127947   2.937   6.552   3.715  2.1026  0.1719  0.3800
41980SOL    HW227948   2.992   6.524   3.854 -1.6368 -2.2780  1.5548
41981SOL     OW27949   2.195   8.152   0.350 -0.1535 -0.3805 -0.0638
41981SOL    HW127950   2.182   8.155   0.445 -1.4576  0.4453 -0.2447
41981SOL    HW227951   2.222   8.062   0.332  1.6535 -0.1543  1.2462
41982SOL     OW27952   8.995   1.087   6.726  0.1338  0.0024  0.5622
41982SOL    HW127953   8.905   1.057   6.711  0.3350  0.3787 -1.6825
41982SOL    HW227954   9.024   1.038   6.803 -1.1100 -2.0516 -0.2041
41983SOL     OW27955   9.796   7.305   7.295  0.8347 -1.1659 -0.1318
41983SOL    HW127956   9.864   7.265   7.241  0.8392 -2.2947  0.6726
41983SOL    HW227957   9.839   7.380   7.336  0.5333  0.3955 -2.4800
41984SOL     OW27958  10.453   6.015   4.994  0.1647 -0.1148 -0.3981
41984SOL    HW127959  10.487   5.932   4.960  1.6663  0.3845 -0.1533
41984SOL    HW227960  10.395   5.989   5.066 -0.6751 -1.0148 -1.3514
41985SOL     OW27961   1.967   5.636   9.210 -0.3500  0.4407  0.1158
41985SOL    HW127962   1.884   5.665   9.172 -1.4216 -1.6438  0.7708
41985SOL    HW227963   1.990   5.705   9.272 -1.6806  0.9830  0.0419
41986SOL     OW27964   7.332   4.544   6.559  0.1503 -0.6800 -0.2203
41986SOL    HW127965   7.303   4.568   6.471 -0.9972 -0.9733  0.0486
41986SOL    HW227966   7.325   4.625   6.610  0.8391 -0.5043 -0.3974
41987SOL     OW27967   0.359   2.244   7.764  0.2418 -0.4412 -0.1227
41987SOL    HW127968   0.265   2.259   7.756  0.0604 -2.1829 -2.5964
41987SOL    HW227969   0.366   2.158   7.806  0.5181 -1.6946 -2.5271
41988SOL     OW27970   0.155   0.453   8.877 -0.4263  0.0402 -0.7128
41988SOL    HW127971   0.232   0.484   8.830 -0.5491 -1.7238 -2.2051
41988SOL    HW227972   0.100   0.412   8.809 -2.2651  0.4629  0.4466
41989SOL     OW27973   4.801   6.280   1.882  0.8204  0.1007 -0.3905
41989SOL    HW127974   4.746   6.343   1.837  0.7054  0.6190  0.4492
41989SOL    HW227975   4.745   6.204   1.895  0.2889  0.6190  0.4410
41990SOL     OW27976   5.429   8.143  10.821 -0.0881 -0.4100  0.2649
41990SOL    HW127977   5.359   8.100  10.871  0.2826 -1.4286 -0.0682
41990SOL    HW227978   5.445   8.225  10.869 -1.5210 -0.1385  0.3217
41991SOL     OW27979   4.377   6.023   2.230 -0.3958 -0.2675  0.4409
41991SOL    HW127980   4.398   5.992   2.318 -2.4497  0.4180  1.2392
41991SOL    HW227981   4.297   6.074   2.241 -0.2176  0.6001 -1.7024
41992SOL     OW27982   1.534   4.577   3.314 -0.2567  0.4146 -0.4723
41992SOL    HW127983   1.551   4.527   3.234 -1.4486 -1.5132  0.3984
41992SOL    HW227984   1.441   4.565   3.331  0.1602 -0.1726  1.7526
41993SOL     OW27985   6.288   9.512   5.772  0.2832  0.2624 -0.3941
41993SOL    HW127986   6.330   9.585   5.725 -0.3720 -0.9235 -2.9848
41993SOL    HW227987   6.321   9.434   5.728 -0.3158 -0.9453  1.2509
41994SOL     OW27988   1.218  10.131   6.206  0.2231  0.1029  0.3633
41994SOL    HW127989   1.284  10.170   6.263  1.4376  0.9920 -1.5442
41994SOL    HW227990   1.136  10.139   6.255  1.2410  0.5087  2.0853
41995SOL     OW27991   0.719   9.583   7.686 -0.7642 -0.3191  0.2474
41995SOL    HW127992   0.752   9.508   7.636 -2.9686 -1.5806  0.5615
41995SOL    HW227993   0.668   9.545   7.756 -0.3937  1.4993  1.5827
41996SOL     OW27994   1.936   2.084   7.846 -0.1649  0.3805  0.2591
41996SOL    HW127995   1.972   2.126   7.924 -1.0127 -0.4012  1.0922
41996SOL    HW227996   1.844   2.110   7.844 -0.2843 -0.0569 -0.1681
41997SOL     OW27997   1.220   5.203   7.034 -0.0836  0.4381  0.2156
41997SOL    HW127998   1.315   5.202   7.042  0.0179 -2.0877 -0.5251
41997SOL    HW227999   1.189   5.151   7.108 -0.7474 -0.3412 -0.5852
41998SOL     OW28000   9.454  10.431   9.937 -0.0252 -0.0159  0.3939
41998SOL    HW128001   9.524  10.497   9.932 -0.9557  1.1932  2.2847
41998SOL    HW228002   9.386  10.465   9.879  0.0030  0.0347  0.3899
41999SOL     OW28003   3.292   2.875   7.023 -0.0152  0.0008 -0.0235
41999SOL    HW128004   3.199   2.855   7.031 -0.2984  1.4163  0.4668
41999SOL    HW228005   3.329   2.798   6.980 -1.4650 -0.4361 -0.5581
42000SOL     OW28006   2.023   4.424   4.404  0.1518  0.0181  0.3813
42000SOL    HW128007   1.994   4.339   4.373  0.5238  0.5559 -1.5955
42000SOL    HW228008   1.945   4.479   4.401  0.5744  0.6054 -1.7542
42001SOL     OW28009   3.996   4.529   9.498 -0.5160 -0.1211  0.0249
42001SOL    HW128010   4.084   4.547   9.532 -0.5531 -1.3960  0.8783
42001SOL    HW228011   4.001   4.553   9.405  0.9414 -0.8301 -0.1105
42002SOL     OW28012   4.606   7.882   3.414  0.3581  0.7676  0.0188
42002SOL    HW128013   4.545   7.951   3.442 -0.1676  0.3942 -0.1986
42002SOL    HW228014   4.690   7.927   3.406  0.6500  0.8552  2.5431
42003SOL     OW28015   6.754   1.082   9.167 -0.3227  0.4731  0.0106
42003SOL    HW128016   6.728   1.103   9.077  0.9101 -0.3195 -0.5566
42003SOL    HW228017   6.821   1.146   9.188  2.5416 -1.8810 -1.2730
42004SOL     OW28018  10.113   3.651   9.305 -0.2722 -0.6098 -0.3770
42004SOL    HW128019  10.146   3.666   9.217  0.9544 -1.1214 -0.0162
42004SOL    HW228020  10.163   3.711   9.360  0.2409 -1.5564  0.2105
42005SOL     OW28021   6.784   8.603   7.577 -0.3421  0.1800  0.4323
42005SOL    HW128022   6.746   8.602   7.489  3.3242  0.9281 -1.3204
42005SOL    HW228023   6.735   8.672   7.623 -3.0453 -0.9440 -0.5222
42006SOL     OW28024   9.189   3.775  10.966  0.3726  0.7593  0.2218
42006SOL    HW128025   9.132   3.815  11.031  0.7593  1.4104  0.1723
42006SOL    HW228026   9.260   3.838  10.954  1.0000  0.0570  0.1346
42007SOL     OW28027   9.405   0.166   3.280 -0.5991  0.1378 -0.6481
42007SOL    HW128028   9.426   0.254   3.311  0.3156  0.4089 -1.9271
42007SOL    HW228029   9.401   0.112   3.359 -1.8598  1.4481  0.2096
42008SOL     OW28030   9.648  11.070   4.442  0.0544  0.3434 -0.1052
42008SOL    HW128031   9.638  11.136   4.373  1.1054  0.1810 -0.4284
42008SOL    HW228032   9.736  11.086   4.478 -0.5676  0.5875  1.3797
42009SOL     OW28033   8.463   6.334   4.625  0.3402 -0.3953  0.1331
42009SOL    HW128034   8.509   6.414   4.651  0.4053 -0.7434  1.1381
42009SOL    HW228035   8.384   6.334   4.679 -1.1915  0.4913 -1.9626
42010SOL     OW28036   9.896   3.117  10.807  0.1196  0.3518 -0.4187
42010SOL    HW128037   9.948   3.194  10.829 -1.0275  0.6520  1.5017
42010SOL    HW228038   9.955   3.043  10.818  0.8838  0.8445 -1.0714
42011SOL     OW28039   4.771   1.673  10.536 -0.4204  0.6418 -0.4219
42011SOL    HW128040   4.844   1.711  10.487 -0.4719 -0.2551 -1.2300
42011SOL    HW228041   4.723   1.622  10.471  0.9929 -2.7914  0.9678
42012SOL     OW28042   7.122  10.631   8.881  0.0698  0.1742 -0.7907
42012SOL    HW128043   7.189  10.571   8.914  0.2603 -0.1966 -1.8268
42012SOL    HW228044   7.169  10.711   8.860  0.1419  0.0151 -1.2405
42013SOL     OW28045   2.262   5.967   9.961  0.7825 -0.3817 -0.4045
42013SOL    HW128046   2.259   6.055   9.924  0.1947 -0.2450 -0.0498
42013SOL    HW228047   2.321   5.975  10.036  1.9760 -0.6599 -1.2824
42014SOL     OW28048  10.461   7.363   8.779 -0.4152 -0.2074 -0.1714
42014SOL    HW128049  10.506   7.341   8.860 -0.0276  1.1337  0.0002
42014SOL    HW228050  10.504   7.309   8.712  0.3766 -0.1090  0.2498
42015SOL     OW28051  10.795  10.045   0.188 -0.0269 -0.8759 -0.2314
42015SOL    HW128052  10.842  10.010   0.113  0.1614 -1.6570  0.2387
42015SOL    HW228053  10.843  10.125   0.211 -2.3281  1.6218 -3.2901
42016SOL     OW28054   5.237   8.005   9.412 -0.4034 -0.1745  0.2972
42016SOL    HW128055   5.145   7.992   9.436 -0.6817  1.0221 -0.0464
42016SOL    HW228056   5.284   7.998   9.495 -0.9133  0.0520  0.6140
42017SOL     OW28057   9.855   3.293   2.952  0.2705  0.3134  0.1844
42017SOL    HW128058   9.894   3.249   3.027  0.0084 -0.6858 -0.2465
42017SOL    HW228059   9.930   3.323   2.900  0.5449 -1.6974 -0.7025
42018SOL     OW28060   9.313   1.012   2.507 -0.4551 -0.2530 -0.4955
42018SOL    HW128061   9.306   1.107   2.515  2.5162 -0.0928  2.6602
42018SOL    HW228062   9.232   0.979   2.546 -1.7762  0.8977 -2.1139
42019SOL     OW28063   1.362   0.231   8.771 -0.0817  0.0911  0.2589
42019SOL    HW128064   1.357   0.280   8.689 -0.3175 -2.3827 -1.3098
42019SOL    HW228065   1.444   0.181   8.764 -1.0362 -1.5965  0.6099
42020SOL     OW28066   2.217   0.597   2.698 -0.2124  0.0153 -0.0224
42020SOL    HW128067   2.169   0.637   2.626 -0.7097 -1.4170 -0.5108
42020SOL    HW228068   2.289   0.550   2.657 -0.6655 -1.0522  0.3626
42021SOL     OW28069   0.030  10.253   0.326 -0.4728 -0.4556 -0.3117
42021SOL    HW128070   0.069  10.330   0.285 -1.1838  0.6971  1.0906
42021SOL    HW228071   0.050  10.262   0.419 -0.8633 -1.8004 -0.0714
42022SOL     OW28072   0.396   3.000  10.644  0.2999 -0.2728 -0.2633
42022SOL    HW128073   0.329   3.053  10.687 -0.6662  0.2835 -2.3376
42022SOL    HW228074   0.479   3.040  10.670 -0.3095  0.8769 -0.0200
42023SOL     OW28075   7.229   7.399  10.026  0.4736 -0.6792  0.5101
42023SOL    HW128076   7.169   7.347   9.972  1.4562 -0.3984 -0.9288
42023SOL    HW228077   7.272   7.457   9.964 -0.7987  2.1535  2.0851
42024SOL     OW28078   4.389   9.625   3.502 -0.0315  0.5494 -0.1774
42024SOL    HW128079   4.430   9.710   3.518 -0.6121  0.6599  0.8003
42024SOL    HW228080   4.322   9.644   3.436  1.2365  0.4251 -1.5385
42025SOL     OW28081  11.005   0.564   6.490 -0.4388 -0.4489 -0.5493
42025SOL    HW128082  11.074   0.499   6.483 -1.4197 -1.7440  1.0218
42025SOL    HW228083  10.962   0.544   6.573  0.5353  3.5295  1.1312
42026SOL     OW28084   1.774   8.950   0.375  0.5950  0.3287 -0.1085
42026SOL    HW128085   1.792   8.955   0.281  2.0467 -0.8710  0.0676
42026SOL    HW228086   1.854   8.984   0.416  1.0539 -1.5720  0.6847
42027SOL     OW28087   6.780   2.969   9.025  0.4815  0.2285 -0.4968
42027SOL    HW128088   6.872   2.991   9.011  0.6436 -0.6331 -0.8818
42027SOL    HW228089   6.752   2.930   8.942 -0.7431  2.1034 -1.0222
42028SOL     OW28090   7.674   7.090   0.466  0.0844 -0.3177 -0.2838
42028SOL    HW128091   7.662   7.184   0.449  0.1829 -0.1769  0.3993
42028SOL    HW228092   7.745   7.087   0.530  0.0482 -0.8609 -0.2687
42029SOL     OW28093   2.992   2.203  11.005  0.0506 -0.1653 -0.2841
42029SOL    HW128094   2.984   2.192  11.100  0.2354 -0.6861 -0.3242
42029SOL    HW228095   3.045   2.282  10.995  0.9877 -0.7217  0.0747
42030SOL     OW28096   1.932   5.797   3.433 -0.2892  0.2907 -0.3314
42030SOL    HW128097   1.977   5.775   3.515 -1.3215 -0.5608  0.0388
42030SOL    HW228098   1.911   5.713   3.394 -0.4630  0.6851 -1.1081
42031SOL     OW28099   7.706   7.732   3.462 -0.6598 -0.2188 -0.0791
42031SOL    HW128100   7.621   7.773   3.477  0.0154  1.2263 -0.0256
42031SOL    HW228101   7.731   7.760   3.374 -0.5764 -1.3138 -0.4285
42032SOL     OW28102   5.626   3.529   9.213  0.5239  0.1767 -0.1855
42032SOL    HW128103   5.707   3.566   9.179  0.6989  1.0696  1.1179
42032SOL    HW228104   5.565   3.532   9.139  1.2310  0.9054 -0.7511
42033SOL     OW28105   5.835   9.141   9.298  0.4207 -0.0693 -0.9332
42033SOL    HW128106   5.785   9.082   9.241  0.0783  1.5881 -2.4221
42033SOL    HW228107   5.924   9.108   9.293 -0.0627 -1.5559 -0.2553
42034SOL     OW28108   9.494   6.264   8.908  0.0167  0.7155 -0.8396
42034SOL    HW128109   9.575   6.227   8.875  0.3038  1.1894 -0.6668
42034SOL    HW228110   9.429   6.195   8.893  0.3964  0.4290 -1.1983
42035SOL     OW28111   9.315   9.401   3.848  0.9075  0.3277 -0.1379
42035SOL    HW128112   9.239   9.342   3.855  1.6848 -0.8083 -0.9491
42035SOL    HW228113   9.367   9.382   3.926  1.8281 -1.0954 -1.0411
42036SOL     OW28114   8.163   0.641   9.202 -0.4605  0.7842  0.3691
42036SOL    HW128115   8.169   0.568   9.264  0.5644  1.2076  0.7854
42036SOL    HW228116   8.253   0.671   9.192 -0.4621  0.1726 -2.0168
42037SOL     OW28117   8.755   8.035   0.676  0.4575  0.2128 -0.0691
42037SOL    HW128118   8.849   8.016   0.672  0.4707  0.3622 -0.5867
42037SOL    HW228119   8.750   8.129   0.697  0.4445  0.4107 -0.9042
42038SOL     OW28120   9.062   3.551   2.288 -0.0464 -0.2022  0.1143
42038SOL    HW128121   9.105   3.474   2.250  1.1396  0.0652  0.8561
42038SOL    HW228122   9.008   3.585   2.217  1.4697 -0.1858 -1.1087
42039SOL     OW28123   6.315   7.554  10.878  0.4822  0.1549  0.7527
42039SOL    HW128124   6.277   7.509  10.954  1.9235 -2.5228 -0.0100
42039SOL    HW228125   6.368   7.624  10.916 -0.9739  0.6386  2.0305
42040SOL     OW28126   1.693   3.172   5.535 -0.1033 -0.0906 -0.2912
42040SOL    HW128127   1.732   3.255   5.507  1.0092 -0.7555 -0.7641
42040SOL    HW228128   1.599   3.185   5.525  0.1138  0.7458 -1.4123
42041SOL     OW28129   9.599   8.355   1.753 -0.5324  0.9528  0.0787
42041SOL    HW128130   9.528   8.324   1.698 -0.5764 -2.4893  1.7859
42041SOL    HW228131   9.563   8.356   1.842  0.8520  1.6150  0.6806
42042SOL     OW28132   0.297  10.426   4.327  0.0532  0.7733  0.0379
42042SOL    HW128133   0.314  10.519   4.322  0.0896  0.7207 -0.9890
42042SOL    HW228134   0.335  10.389   4.247  1.0230 -0.2848  0.9435
42043SOL     OW28135  10.313   4.038  10.521  0.4815  0.1539 -0.2226
42043SOL    HW128136  10.330   4.132  10.529 -0.2225  0.2337  0.5720
42043SOL    HW228137  10.393   4.001  10.485  0.1230  1.3091 -2.3777
42044SOL     OW28138   0.967   6.546   8.161  0.3529 -0.6664 -0.1165
42044SOL    HW128139   1.008   6.613   8.215  0.4101 -0.0686 -0.8749
42044SOL    HW228140   0.924   6.487   8.223 -0.5321  0.6091  0.5255
42045SOL     OW28141   6.516  11.096   1.646 -0.1176 -0.5666  0.4859
42045SOL    HW128142   6.611  11.106   1.649  0.0395 -1.4453 -0.7245
42045SOL    HW228143   6.502  11.020   1.589 -1.5559 -0.2057  0.3259
42046SOL     OW28144   7.754   6.515   7.109  0.5393 -0.0518  0.4399
42046SOL    HW128145   7.765   6.609   7.096  3.3696 -0.2856  0.6741
42046SOL    HW228146   7.812   6.493   7.181 -0.7931 -1.8592  1.0303
42047SOL     OW28147   7.368   7.624   1.707 -0.4326  0.1935 -0.3098
42047SOL    HW128148   7.430   7.665   1.768 -1.0625  0.1914  0.3431
42047SOL    HW228149   7.289   7.610   1.759 -1.0058  0.2414 -1.1479
42048SOL     OW28150   6.935   9.147   8.152 -0.0864  0.6207 -0.3765
42048SOL    HW128151   6.867   9.183   8.095 -0.7227  0.6533  0.3750
42048SOL    HW228152   6.931   9.053   8.136 -1.0286  0.5075  0.3929
42049SOL     OW28153   9.071   1.770   3.250 -0.1569 -0.3535  0.1242
42049SOL    HW128154   9.107   1.686   3.279  0.5805  0.0935  0.5476
42049SOL    HW228155   9.093   1.774   3.156 -0.3119 -0.6872  0.0716
42050SOL     OW28156   8.715   8.651   2.861  0.0588  0.4226 -0.2138
42050SOL    HW128157   8.642   8.613   2.811 -1.2660  1.7052  0.6743
42050SOL    HW228158   8.709   8.610   2.947  0.5410  0.3651 -0.2063
42051SOL     OW28159   1.127   5.848   7.877  0.3498  0.1273  0.0138
42051SOL    HW128160   1.209   5.811   7.844  0.3007  0.9343 -1.0383
42051SOL    HW228161   1.106   5.919   7.817 -0.4060  0.8279  1.0680
42052SOL     OW28162   1.413   8.204   5.617  0.0038  0.2941  0.1786
42052SOL    HW128163   1.445   8.138   5.556 -0.4208 -0.3382  0.6225
42052SOL    HW228164   1.470   8.279   5.604 -1.0083  0.7365 -2.0531
42053SOL     OW28165   3.193   6.565   7.753  0.3350 -0.8019 -0.4674
42053SOL    HW128166   3.149   6.510   7.817  0.1248 -0.5398 -0.3870
42053SOL    HW228167   3.149   6.545   7.670 -1.5077  1.1075 -0.0389
42054SOL     OW28168   8.136   4.582   8.271 -0.3885 -0.2729  0.3081
42054SOL    HW128169   8.051   4.579   8.315 -0.7744 -0.5248 -0.4398
42054SOL    HW228170   8.188   4.644   8.322 -0.1304 -2.0104  2.2960
42055SOL     OW28171   4.609   7.854   5.216 -0.2097  0.0409 -0.2312
42055SOL    HW128172   4.575   7.852   5.306 -0.3147 -0.3402 -0.2761
42055SOL    HW228173   4.570   7.932   5.177 -1.5821 -0.7287 -0.4769
42056SOL     OW28174   7.004   2.879   2.121  0.2629 -0.4383 -0.2025
42056SOL    HW128175   7.095   2.907   2.119  0.1276  0.0049 -0.5287
42056SOL    HW228176   6.959   2.947   2.172 -0.0216 -0.1925 -0.7613
42057SOL     OW28177   6.740   7.925  10.673  0.2678  0.1238  0.0065
42057SOL    HW128178   6.716   7.977  10.749 -1.3421 -0.5283 -0.0126
42057SOL    HW228179   6.831   7.947  10.656 -0.1455  2.3906  0.4161
42058SOL     OW28180  10.003   1.025   5.869  0.3233  0.2965  0.2265
42058SOL    HW128181  10.094   1.013   5.840  0.6342  0.7186  0.9882
42058SOL    HW228182  10.010   1.038   5.964 -0.2859  2.6819  0.0119
42059SOL     OW28183   0.617   6.653   6.447  0.0564  0.2981 -0.6327
42059SOL    HW128184   0.666   6.586   6.495  0.9152  1.4706  0.1731
42059SOL    HW228185   0.621   6.730   6.503 -0.1832  1.2763 -1.9319
42060SOL     OW28186   9.991   5.168  10.207  0.1369 -0.4106  0.4028
42060SOL    HW128187   9.964   5.260  10.198 -0.3162 -0.4631  1.1262
42060SOL    HW228188   9.924   5.119  10.159  1.8238 -0.2245 -2.3242
42061SOL     OW28189   2.299   9.781  10.985  0.4905  0.3316  0.4925
42061SOL    HW128190   2.347   9.848  11.034  0.3424 -0.0385  1.1577
42061SOL    HW228191   2.280   9.713  11.050 -0.3769  0.1804  0.0942
42062SOL     OW28192  10.108   5.792  10.916  0.4586 -0.2912  0.3985
42062SOL    HW128193  10.036   5.774  10.856  0.3488  1.1411  0.0578
42062SOL    HW228194  10.183   5.746  10.879  0.6231  1.3055 -1.4183
42063SOL     OW28195   9.127   7.351   7.747  0.3722  0.1811  0.4510
42063SOL    HW128196   9.122   7.415   7.818 -0.6354  0.9800 -0.2984
42063SOL    HW228197   9.195   7.386   7.689  0.3821  0.1431  0.4401
42064SOL     OW28198   1.135   9.000   9.733  0.3777  0.3432 -0.1547
42064SOL    HW128199   1.207   8.989   9.671 -0.2325  0.4571 -0.8902
42064SOL    HW228200   1.100   9.087   9.714 -0.0075  0.2576  0.1403
42065SOL     OW28201   2.487  10.774   3.662 -0.1442  0.3629  0.4904
42065SOL    HW128202   2.395  10.787   3.684 -0.2794 -0.4304  0.4099
42065SOL    HW228203   2.493  10.683   3.632  0.5506  0.5834 -0.0971
42066SOL     OW28204   9.804   7.652   6.688 -0.1219  0.2153 -0.1691
42066SOL    HW128205   9.724   7.698   6.714  0.0232  0.0609  0.5881
42066SOL    HW228206   9.865   7.723   6.665 -0.2763  0.3540 -0.1579
42067SOL     OW28207   8.989   8.687   0.680 -0.0903 -0.4002  0.1336
42067SOL    HW128208   8.966   8.757   0.619 -0.3432  0.4457  1.1628
42067SOL    HW228209   9.065   8.720   0.728  0.2986 -1.1807  0.0728
42068SOL     OW28210  10.771   5.544   2.291 -0.2798 -0.3764  0.3416
42068SOL    HW128211  10.814   5.575   2.212  1.2337  0.5630  1.4685
42068SOL    HW228212  10.715   5.618   2.318  0.7246  0.1012  1.1860
42069SOL     OW28213   0.489   7.808   8.606 -0.0215 -0.0060 -0.1322
42069SOL    HW128214   0.430   7.802   8.681  1.6704  1.0600  1.3524
42069SOL    HW228215   0.505   7.717   8.580 -0.7885 -0.3747  0.6530
42070SOL     OW28216   6.863   6.781   6.514 -0.1285 -0.6886 -0.0265
42070SOL    HW128217   6.778   6.741   6.495  0.4240 -1.2010 -1.5940
42070SOL    HW228218   6.923   6.707   6.519  0.5401 -0.2017 -0.7697
42071SOL     OW28219   5.101   1.558  10.133 -0.3922  0.1369 -0.3148
42071SOL    HW128220   5.086   1.469  10.101  0.2478 -0.2643  0.4399
42071SOL    HW228221   5.116   1.610  10.055 -2.2431 -0.1013 -0.8779
42072SOL     OW28222   8.546   8.485   0.319 -0.1321 -0.1661  0.5205
42072SOL    HW128223   8.582   8.556   0.265 -1.2811  0.3547  0.4154
42072SOL    HW228224   8.496   8.529   0.387 -2.4360 -0.8399 -0.6276
42073SOL     OW28225   2.655   9.944   9.769  0.2663  0.4653  0.4858
42073SOL    HW128226   2.597  10.019   9.757  1.2063  1.1252 -0.0119
42073SOL    HW228227   2.595   9.870   9.781 -0.8155  0.6322 -2.7286
42074SOL     OW28228   6.945  10.237  10.480 -0.3567 -0.0098 -0.0830
42074SOL    HW128229   6.919  10.161  10.427 -0.1089  0.5208 -0.9807
42074SOL    HW228230   6.875  10.246  10.545 -0.3442 -1.0558  0.0880
42075SOL     OW28231   8.787   5.871   2.334  0.5105  0.0834  0.3024
42075SOL    HW128232   8.880   5.862   2.313  0.1683 -0.5253 -1.0579
42075SOL    HW228233   8.778   5.961   2.367  1.8015 -0.3117  1.8074
42076SOL     OW28234   6.242   8.882   5.531 -0.4551 -0.7817  0.4718
42076SOL    HW128235   6.322   8.914   5.571 -0.0389 -1.3455  0.1051
42076SOL    HW228236   6.172   8.907   5.592  0.0177 -0.4705  0.8882
42077SOL     OW28237   0.438   3.649   9.209 -0.2543 -0.0329 -0.0607
42077SOL    HW128238   0.472   3.697   9.285  0.7020  0.9323 -1.0448
42077SOL    HW228239   0.391   3.575   9.246  1.1349 -0.2208  1.4529
42078SOL     OW28240   2.759   3.631   2.634  0.0422  0.6058 -0.4583
42078SOL    HW128241   2.796   3.565   2.694 -2.6779 -0.4031  0.2525
42078SOL    HW228242   2.733   3.581   2.557  0.8793  1.4389 -1.3071
42079SOL     OW28243   8.832   0.262   2.166 -0.3334  0.3387 -0.1556
42079SOL    HW128244   8.816   0.167   2.162 -0.6839  0.3699  0.4493
42079SOL    HW228245   8.791   0.296   2.087  1.7474 -0.2696 -1.5995
42080SOL     OW28246   8.629   0.017  10.692 -0.1795  0.1555 -0.0564
42080SOL    HW128247   8.719  -0.004  10.669  0.3493 -0.9641  2.7078
42080SOL    HW228248   8.576  -0.051  10.650  0.6012 -1.0368  0.8380
42081SOL     OW28249  10.905   2.950  11.028 -0.4137  0.2493 -0.0222
42081SOL    HW128250  10.842   3.022  11.027 -0.8688 -0.1083 -2.3659
42081SOL    HW228251  10.977   2.983  11.081 -1.0201  2.0674 -0.2371
42082SOL     OW28252   0.321   1.477   1.800  0.2963 -0.2838  0.4934
42082SOL    HW128253   0.374   1.547   1.763  0.1274 -0.1848  0.4377
42082SOL    HW228254   0.369   1.449   1.878  0.6765 -0.5203  0.1795
42083SOL     OW28255  10.643  11.015   5.242  0.1684  0.3797  0.6722
42083SOL    HW128256  10.655  10.936   5.190  2.8373  0.4779  0.9851
42083SOL    HW228257  10.606  10.984   5.325  0.3882 -0.4369  0.4704
42084SOL     OW28258  10.373   7.336  10.781  0.7359  0.2081 -0.4902
42084SOL    HW128259  10.396   7.255  10.827  0.2237  0.2861 -0.0824
42084SOL    HW228260  10.353   7.398  10.851 -0.0597  0.3239 -0.8111
42085SOL     OW28261  10.568   5.783   1.051 -0.4706 -0.3967  0.0507
42085SOL    HW128262  10.553   5.837   1.128 -0.3703 -0.3690  0.0509
42085SOL    HW228263  10.637   5.722   1.077  0.2896  0.2791 -0.3422
42086SOL     OW28264   8.363   4.951  10.577  0.2224  0.2412 -0.2233
42086SOL    HW128265   8.346   4.874  10.523 -1.1323 -1.2742  2.1663
42086SOL    HW228266   8.306   5.019  10.540  1.9555  0.4225 -2.7990
42087SOL     OW28267   8.645   6.786   7.421 -0.4844  0.1888  0.5956
42087SOL    HW128268   8.582   6.814   7.487 -0.8373  0.9819 -0.0642
42087SOL    HW228269   8.700   6.863   7.405 -0.0051 -0.1839  0.4200
42088SOL     OW28270   7.147   6.702   7.059  0.0506  0.2294 -0.8358
42088SOL    HW128271   7.181   6.754   7.131  1.2967 -0.5307 -0.8465
42088SOL    HW228272   7.061   6.739   7.041 -0.5903  0.0290  1.4725
42089SOL     OW28273   4.382   9.623   4.563 -0.4515  0.1534  0.0174
42089SOL    HW128274   4.472   9.616   4.531 -1.0851 -0.2614 -1.7769
42089SOL    HW228275   4.354   9.710   4.536  0.0932  1.2363  2.5996
42090SOL     OW28276  10.203   4.863   8.960 -0.3738 -0.0427  0.4917
42090SOL    HW128277  10.218   4.777   8.998 -2.3257  0.2053  1.9817
42090SOL    HW228278  10.255   4.923   9.014 -0.3371 -0.1041  0.5241
42091SOL     OW28279   8.155   9.776   2.662 -0.3380 -0.0891  0.3048
42091SOL    HW128280   8.199   9.858   2.640  0.6133 -0.6914 -0.1307
42091SOL    HW228281   8.062   9.794   2.648  0.0400  0.1232 -2.5150
42092SOL     OW28282   7.105   3.464   6.372  0.6493  0.0164  0.3438
42092SOL    HW128283   7.013   3.451   6.348  0.4572 -1.0537  1.5384
42092SOL    HW228284   7.147   3.382   6.347  1.6977  1.1504 -1.8711
42093SOL     OW28285   5.749   4.699   9.251 -0.1251 -0.4065  0.0348
42093SOL    HW128286   5.693   4.638   9.300 -0.2708  0.0443  0.4279
42093SOL    HW228287   5.707   4.784   9.261 -0.6306 -0.4316 -1.5841
42094SOL     OW28288   9.901   8.394   9.008 -1.0594 -0.0309  0.2344
42094SOL    HW128289   9.866   8.479   9.035 -1.3286 -0.5824  1.7159
42094SOL    HW228290   9.981   8.383   9.059 -1.2803 -0.8741  0.4255
42095SOL     OW28291   2.100   7.004   9.711  0.0394  0.3044  0.9522
42095SOL    HW128292   2.071   7.013   9.802  0.6012  0.4457  1.1173
42095SOL    HW228293   2.195   6.999   9.716  0.0198 -0.8561  0.4661
42096SOL     OW28294   2.590   5.273   6.629 -0.6699 -0.0124 -0.8047
42096SOL    HW128295   2.511   5.244   6.584 -0.0091 -0.8224 -1.4618
42096SOL    HW228296   2.614   5.355   6.585 -1.3509  0.4580 -0.3328
42097SOL     OW28297  10.227   5.893   7.156 -0.0415  0.3862 -0.1057
42097SOL    HW128298  10.256   5.909   7.246 -0.4910  0.3980  0.0350
42097SOL    HW228299  10.309   5.893   7.106  0.0202  3.2274 -0.1633
42098SOL     OW28300   0.318   3.267   0.729  0.0419 -0.3688  0.0373
42098SOL    HW128301   0.403   3.310   0.735 -0.2084  0.5846 -2.1165
42098SOL    HW228302   0.257   3.327   0.771  0.2622 -0.5283  0.5925
42099SOL     OW28303   9.861   5.070   5.223  0.4037 -0.5896 -0.5429
42099SOL    HW128304   9.955   5.075   5.206  0.4971  1.0840  0.3007
42099SOL    HW228305   9.821   5.123   5.153  0.1866 -0.2590 -0.1703
42100SOL     OW28306   9.512   5.439   1.594 -0.4948  0.3671 -0.3211
42100SOL    HW128307   9.601   5.433   1.628 -0.5429  1.5896  0.0336
42100SOL    HW228308   9.524   5.462   1.501 -0.4489  0.3662 -0.3156
42101SOL     OW28309   3.571   8.464   9.726 -0.0415 -0.6055 -0.6457
42101SOL    HW128310   3.539   8.476   9.815 -0.7847 -2.6212 -0.5732
42101SOL    HW228311   3.624   8.384   9.730 -1.1497 -1.4908 -2.2214
42102SOL     OW28312   8.070   1.382   9.637  0.2250 -0.7671  0.2175
42102SOL    HW128313   8.003   1.380   9.706 -2.1939 -1.8512 -2.0210
42102SOL    HW228314   8.039   1.321   9.571  1.6057  1.3437 -2.5948
42103SOL     OW28315   9.603   6.931  10.036  0.4196 -0.1976 -0.6428
42103SOL    HW128316   9.511   6.950  10.054  0.2268  0.2481 -2.0023
42103SOL    HW228317   9.650   6.980  10.104 -0.3180  0.1238 -0.3482
42104SOL     OW28318   1.127   6.097   5.066 -0.1467 -0.3368  0.4224
42104SOL    HW128319   1.166   6.012   5.046 -0.6954 -1.0621  2.2712
42104SOL    HW228320   1.064   6.111   4.995 -1.4130 -2.4003  1.0502
42105SOL     OW28321   3.906   6.624   7.213 -0.0588  0.4871 -0.2584
42105SOL    HW128322   3.895   6.602   7.306 -1.5653 -0.5392 -0.6507
42105SOL    HW228323   3.932   6.542   7.172 -1.3986  0.4205 -1.0428
42106SOL     OW28324   9.393  10.449   6.020 -0.4029 -0.0360  0.0420
42106SOL    HW128325   9.376  10.362   6.057  0.3959 -0.7141 -1.1021
42106SOL    HW228326   9.456  10.433   5.950  0.8220  1.6619  0.6948
42107SOL     OW28327   8.292   5.099   1.591 -0.3705 -0.5691 -0.6216
42107SOL    HW128328   8.347   5.026   1.619  0.6443 -0.4749 -2.2561
42107SOL    HW228329   8.226   5.059   1.535 -1.3323 -0.5178  0.4156
42108SOL     OW28330   0.083   4.776   7.696 -0.4227 -0.0631  0.0511
42108SOL    HW128331   0.125   4.857   7.667  1.3359 -0.8219  0.3447
42108SOL    HW228332   0.135   4.707   7.657 -1.8846 -1.0817 -0.1695
42109SOL     OW28333   3.081   0.510   6.492  0.6329  0.4307 -0.0197
42109SOL    HW128334   3.113   0.475   6.575 -1.0049  0.2322  0.5688
42109SOL    HW228335   3.152   0.565   6.460  0.6191  2.0086  2.4372
42110SOL     OW28336   2.567   2.411   6.653 -0.0172 -0.2064  0.3434
42110SOL    HW128337   2.561   2.451   6.566 -0.2586 -0.0484  0.4345
42110SOL    HW228338   2.628   2.338   6.640 -1.0389 -0.9751 -0.2571
42111SOL     OW28339   0.693   2.652   2.331 -0.4895 -0.5531 -0.0849
42111SOL    HW128340   0.697   2.718   2.400 -2.1843 -0.0895 -0.3941
42111SOL    HW228341   0.743   2.579   2.366 -1.5619 -0.4579  1.8123
42112SOL     OW28342   5.952   2.457  10.453  0.3924  0.4194  0.2215
42112SOL    HW128343   5.939   2.545  10.488 -0.0101  0.8506 -0.9896
42112SOL    HW228344   5.965   2.469  10.359 -0.3054 -0.8476 -0.0712
42113SOL     OW28345  10.026   3.802   0.389 -0.0713 -0.8261  0.2777
42113SOL    HW128346  10.074   3.767   0.464 -0.8649 -1.5669  0.4462
42113SOL    HW228347  10.034   3.897   0.398 -1.7459 -0.8044  2.3892
42114SOL     OW28348   5.502   8.265   9.462 -0.2368 -0.0305  0.2960
42114SOL    HW128349   5.457   8.276   9.546  0.5865 -0.1233  0.7603
42114SOL    HW228350   5.591   8.239   9.485  0.3414  1.0462 -0.5667
42115SOL     OW28351   2.049   7.151   8.728  0.1403  0.1241 -0.4082
42115SOL    HW128352   2.108   7.135   8.801 -1.0455  0.0332  0.5627
42115SOL    HW228353   2.060   7.244   8.707 -1.0083  0.6860  1.2935
42116SOL     OW28354   3.882   7.538  10.412 -0.4006  1.2409 -0.0427
42116SOL    HW128355   3.804   7.571  10.368 -0.8962  1.7190  1.1300
42116SOL    HW228356   3.952   7.598  10.386 -0.6965  1.5549 -0.1248
42117SOL     OW28357   2.358  10.540   0.918 -0.2501 -0.1363  0.5295
42117SOL    HW128358   2.383  10.475   0.853 -2.0807 -0.3767 -0.0070
42117SOL    HW228359   2.363  10.624   0.872 -0.1450 -0.1561  0.5060
42118SOL     OW28360   1.061  10.110   6.428 -0.6128 -0.0443  0.1939
42118SOL    HW128361   1.087  10.183   6.484  0.0484 -0.7114  0.7707
42118SOL    HW228362   1.031  10.042   6.488  0.9270 -1.1033 -0.1798
42119SOL     OW28363   6.012   6.348   9.669 -0.7396 -0.1486 -0.3563
42119SOL    HW128364   5.958   6.329   9.746 -1.1867  0.9487 -0.3802
42119SOL    HW228365   6.005   6.442   9.658  0.5401 -0.0946 -0.8535
42120SOL     OW28366   0.887   2.319   8.789 -0.1263 -0.4812  0.6805
42120SOL    HW128367   0.929   2.269   8.859  0.0845  0.3439  1.1528
42120SOL    HW228368   0.793   2.309   8.804 -0.0886 -0.9137  0.6405
42121SOL     OW28369  10.116   6.786  10.257  0.3244  0.1891 -0.4279
42121SOL    HW128370  10.126   6.785  10.161 -0.4993 -1.7215 -0.5436
42121SOL    HW228371  10.189   6.839  10.288  2.1972 -1.2924 -1.9878
42122SOL     OW28372   5.684   7.243   8.880  0.1166 -0.2232  0.1075
42122SOL    HW128373   5.612   7.279   8.930  0.1883 -0.5229  0.4362
42122SOL    HW228374   5.741   7.202   8.946  0.5656 -0.0252 -0.1471
42123SOL     OW28375   5.248   5.446   9.990  0.3606 -0.0403  0.0037
42123SOL    HW128376   5.243   5.490  10.075 -2.8313  0.7756 -0.4871
42123SOL    HW228377   5.206   5.361  10.005 -1.3001  0.5663 -0.9371
42124SOL     OW28378   1.135   7.504  10.639  0.1928 -0.2384 -0.5131
42124SOL    HW128379   1.081   7.500  10.560  0.5650  0.4221 -0.8212
42124SOL    HW228380   1.085   7.458  10.706 -1.2013  1.1488 -0.5326
42125SOL     OW28381   8.564   6.233   8.953 -0.1204  0.3326 -0.5881
42125SOL    HW128382   8.544   6.145   8.984 -0.8395  0.5810 -0.3414
42125SOL    HW228383   8.558   6.288   9.031  3.1645  0.2143 -0.0987
42126SOL     OW28384   7.137   1.914   9.297 -0.2188  0.0329 -0.3776
42126SOL    HW128385   7.213   1.875   9.340  0.0970  1.0492  0.0168
42126SOL    HW228386   7.068   1.913   9.363  0.5722  2.5801  0.6129
42127SOL     OW28387   7.987   2.701   4.606 -0.3339  0.2288 -0.3560
42127SOL    HW128388   7.956   2.625   4.656  1.2098  0.5973  1.2317
42127SOL    HW228389   8.036   2.663   4.533  0.2861 -0.3138  0.3322
42128SOL     OW28390   8.720   4.443   6.210  0.2416 -0.4524  0.1706
42128SOL    HW128391   8.769   4.472   6.133  0.9332  0.3203  0.8858
42128SOL    HW228392   8.631   4.475   6.194  0.8320  1.5639  0.6293
42129SOL     OW28393   7.195   7.435   6.362 -0.1762  0.1634 -0.1892
42129SOL    HW128394   7.123   7.481   6.405  0.6248  0.8303  0.4721
42129SOL    HW228395   7.200   7.351   6.408  0.6848  0.8744  1.0955
42130SOL     OW28396   6.485   4.534   6.245 -0.1048  0.1607 -0.0650
42130SOL    HW128397   6.509   4.504   6.333  0.4184 -0.8188 -0.5326
42130SOL    HW228398   6.525   4.621   6.238  3.4868 -1.3919 -0.8275
42131SOL     OW28399  10.619   1.098   7.908  0.3360  0.1129  0.0093
42131SOL    HW128400  10.672   1.019   7.894 -0.4176 -0.6936  1.3745
42131SOL    HW228401  10.624   1.113   8.003 -1.8901 -0.0434  0.2120
42132SOL     OW28402   9.157   8.716   1.603  0.0956 -0.2943  0.3841
42132SOL    HW128403   9.137   8.711   1.509 -0.5771  1.7102  0.3794
42132SOL    HW228404   9.096   8.654   1.643 -0.5600 -0.1671 -0.3850
42133SOL     OW28405   1.750   4.822   2.399 -0.2039 -0.5809  0.4669
42133SOL    HW128406   1.841   4.801   2.420  0.1498  0.2602 -0.1640
42133SOL    HW228407   1.754   4.910   2.361 -1.1121 -1.0567 -0.7919
42134SOL     OW28408   6.285   6.548   8.952  0.3756 -0.2582  0.4780
42134SOL    HW128409   6.280   6.632   8.906  0.3805 -0.2709  0.4539
42134SOL    HW228410   6.195   6.531   8.981  0.4896  0.0540  1.0154
42135SOL     OW28411   4.109   9.393   3.605  0.1275  0.3023  0.7880
42135SOL    HW128412   4.086   9.435   3.688 -0.6682 -0.4106  0.9316
42135SOL    HW228413   4.203   9.374   3.614  0.3981  1.5907  0.9123
42136SOL     OW28414   6.960   6.846   7.436 -0.5797  0.4986 -0.0001
42136SOL    HW128415   7.050   6.836   7.469 -0.1586 -3.1294 -1.7625
42136SOL    HW228416   6.905   6.841   7.514  0.6515  0.8307  0.9210
42137SOL     OW28417   1.377   2.366   3.446  0.4658 -0.5712 -0.3014
42137SOL    HW128418   1.361   2.459   3.465 -2.0340 -1.1687  1.0132
42137SOL    HW228419   1.472   2.355   3.455  0.6296  1.5011  1.2606
42138SOL     OW28420   0.109   3.955  10.637  0.3573 -0.1988 -0.0389
42138SOL    HW128421   0.103   4.047  10.612  1.0407 -0.6806 -2.1531
42138SOL    HW228422   0.197   3.947  10.675 -0.2893  0.3029  1.6904
42139SOL     OW28423  10.426   8.262  10.441 -0.0418  0.2714 -0.7559
42139SOL    HW128424  10.340   8.236  10.409 -0.9725  1.0765  0.9408
42139SOL    HW228425  10.472   8.180  10.456 -1.1377 -0.2563 -0.1258
42140SOL     OW28426   2.617   5.636   1.610 -0.8299  0.4538  0.3187
42140SOL    HW128427   2.596   5.557   1.661 -2.4860  0.1536 -0.7736
42140SOL    HW228428   2.540   5.650   1.555 -0.0007  2.0752 -0.4741
42141SOL     OW28429   2.934   9.968   7.000  0.2330 -0.5062  0.0981
42141SOL    HW128430   2.890   9.972   6.915 -0.9527  0.3335  0.7151
42141SOL    HW228431   3.016   9.921   6.983 -1.5137 -3.4860 -0.8472
42142SOL     OW28432   7.616   9.404   1.751  0.3354 -0.1548 -0.0626
42142SOL    HW128433   7.569   9.451   1.820 -0.1100 -0.4936 -0.1281
42142SOL    HW228434   7.555   9.400   1.678  0.8983  0.4285 -0.5842
42143SOL     OW28435   2.065   8.704   8.816 -0.0509 -0.4352  0.2849
42143SOL    HW128436   2.063   8.657   8.899  2.0060 -0.9384  0.0970
42143SOL    HW228437   2.157   8.702   8.789 -0.3547  1.3741 -1.0696
42144SOL     OW28438   1.538   7.199   0.298  0.4441  0.3544  0.4509
42144SOL    HW128439   1.627   7.168   0.314  1.1361  2.2114  0.4938
42144SOL    HW228440   1.533   7.209   0.203 -0.3935 -1.5012  0.2505
42145SOL     OW28441   2.410   7.373   0.170  0.0700 -0.8697 -0.2964
42145SOL    HW128442   2.407   7.386   0.075 -1.2706 -2.2599 -0.4867
42145SOL    HW228443   2.391   7.459   0.207 -0.4975 -0.5420 -1.3207
42146SOL     OW28444   7.849   8.306   2.249  0.7291  0.1147 -0.4553
42146SOL    HW128445   7.803   8.386   2.272 -1.8143 -1.2980 -0.1888
42146SOL    HW228446   7.796   8.236   2.289  2.0001 -1.7798 -1.9027
42147SOL     OW28447  10.439   5.440   2.168 -0.0640  0.4262 -0.3076
42147SOL    HW128448  10.494   5.506   2.125  0.0127  1.0806  0.7504
42147SOL    HW228449  10.496   5.364   2.179 -0.2229  0.0609 -1.7594
42148SOL     OW28450  10.895   4.151   9.457  0.3663  0.2640 -0.0388
42148SOL    HW128451  10.958   4.119   9.522 -1.0224 -0.2243  1.1370
42148SOL    HW228452  10.857   4.071   9.420  2.0048  0.5000 -2.4145
42149SOL     OW28453   8.563   2.251   5.384  0.0048  0.1652  0.2112
42149SOL    HW128454   8.499   2.321   5.398  1.3836  1.4799  0.2853
42149SOL    HW228455   8.555   2.194   5.460 -0.1439  1.0815  0.8958
42150SOL     OW28456   0.270   3.510   9.586  0.2434 -0.3474 -0.1400
42150SOL    HW128457   0.244   3.469   9.668  1.6767 -0.2445  0.3998
42150SOL    HW228458   0.351   3.558   9.607 -1.5917  3.3111 -0.5517
42151SOL     OW28459   7.957   4.255   0.870 -0.0415  0.5945 -0.0773
42151SOL    HW128460   7.919   4.215   0.792 -1.0738  0.9167  0.2421
42151SOL    HW228461   7.964   4.348   0.848 -0.5821  0.7289  0.2980
42152SOL     OW28462   8.571   0.350   7.478 -0.2319  0.0280 -0.2690
42152SOL    HW128463   8.549   0.261   7.506 -0.1830 -0.4083 -1.5469
42152SOL    HW228464   8.508   0.405   7.523 -0.0013 -0.5927  0.8738
42153SOL     OW28465  10.188   7.989   6.392  0.1688 -0.2615  0.0714
42153SOL    HW128466  10.190   7.894   6.401 -0.0768 -0.1412  1.4874
42153SOL    HW228467  10.110   8.017   6.439  0.2844  0.6583 -0.2585
42154SOL     OW28468   0.413   9.464   0.549  0.0979  0.8099 -0.6495
42154SOL    HW128469   0.378   9.481   0.637  0.8469  1.7924 -0.5147
42154SOL    HW228470   0.363   9.523   0.492  2.7900  3.8430 -0.1646
42155SOL     OW28471   0.018   6.658   7.161  0.2556 -0.4245 -0.6785
42155SOL    HW128472   0.009   6.574   7.115  2.1188 -0.4663 -1.0479
42155SOL    HW228473   0.055   6.717   7.095 -1.5317  0.8908 -0.5919
42156SOL     OW28474   2.553   7.587   6.255 -0.4257 -0.1073  0.4918
42156SOL    HW128475   2.492   7.556   6.322 -2.1034 -1.0913 -1.4125
42156SOL    HW228476   2.549   7.521   6.186  1.3864  0.7882 -0.5552
42157SOL     OW28477   7.878   5.787   8.549  0.0371  0.2898  0.3582
42157SOL    HW128478   7.954   5.770   8.604 -0.7483  0.1155  1.4055
42157SOL    HW228479   7.893   5.875   8.514  1.5558 -0.4065 -0.8745
42158SOL     OW28480   5.994   8.089   7.351 -0.1588 -0.3974 -0.0279
42158SOL    HW128481   6.033   8.124   7.431 -0.0026 -0.4520 -0.0795
42158SOL    HW228482   6.047   8.013   7.330 -0.2216 -0.4037 -0.1635
42159SOL     OW28483   9.079   7.325   6.139 -0.0980  0.1698 -0.5808
42159SOL    HW128484   9.066   7.235   6.170 -1.8578  0.9924  1.2956
42159SOL    HW228485   9.035   7.380   6.204  2.5777  2.5831 -0.5675
42160SOL     OW28486   2.336   9.010   8.247  0.2718  0.1745  0.2757
42160SOL    HW128487   2.420   9.056   8.238 -0.2732  1.3928  1.1372
42160SOL    HW228488   2.361   8.919   8.261  1.4762  0.5480  0.7639
42161SOL     OW28489   2.650   4.091   7.374  0.4848 -0.3092 -0.5229
42161SOL    HW128490   2.699   4.169   7.399 -1.1655  0.8444 -0.6942
42161SOL    HW228491   2.673   4.025   7.440  1.3552  0.5484  0.0514
42162SOL     OW28492   7.741   5.170   1.634  0.4397 -0.3554 -0.5673
42162SOL    HW128493   7.700   5.083   1.638  0.0423 -0.1584 -0.2955
42162SOL    HW228494   7.791   5.169   1.552 -0.5709 -0.4055 -1.2000
42163SOL     OW28495   9.547   8.823   9.646  0.2072 -0.0987  0.6617
42163SOL    HW128496   9.603   8.881   9.595  1.3822 -0.8453  1.0662
42163SOL    HW228497   9.467   8.874   9.661  0.9393  1.1628  0.4441
42164SOL     OW28498  11.025   6.749   2.865 -0.2486  0.3142  0.3913
42164SOL    HW128499  11.091   6.788   2.922 -0.1946  1.2699 -0.3075
42164SOL    HW228500  11.076   6.699   2.800 -0.2370  0.5362  0.2286
42165SOL     OW28501   8.910   7.417   7.534 -0.1011 -0.4133 -0.3147
42165SOL    HW128502   8.916   7.330   7.574 -1.6189 -0.8635 -0.9756
42165SOL    HW228503   8.968   7.412   7.458 -1.1992 -1.3533 -1.1370
42166SOL     OW28504   8.135   2.984   2.453 -0.0546 -0.0978 -0.0143
42166SOL    HW128505   8.067   3.030   2.403  1.1582  0.5160 -1.1395
42166SOL    HW228506   8.217   3.008   2.411  0.9273 -0.4967  1.5662
42167SOL     OW28507  10.745   9.967   9.595 -0.5130  0.3298 -0.2672
42167SOL    HW128508  10.803  10.030   9.553 -2.2371  2.1482 -0.0636
42167SOL    HW228509  10.722   9.906   9.525  0.8596  0.1189 -0.5722
42168SOL     OW28510   9.662   2.978   6.822 -0.4219 -1.2725 -0.2431
42168SOL    HW128511   9.748   2.942   6.842  0.3381 -0.0908 -1.2465
42168SOL    HW228512   9.648   3.045   6.889 -0.5850 -1.4849 -0.0623
42169SOL     OW28513   1.497   0.818   6.713  0.1232  0.1504  0.2789
42169SOL    HW128514   1.432   0.879   6.747 -1.0748 -0.3499 -1.0342
42169SOL    HW228515   1.459   0.732   6.728  0.9344 -0.2082  0.3587
42170SOL     OW28516   0.667   7.110   9.808  0.1696 -0.1440 -0.5665
42170SOL    HW128517   0.598   7.176   9.796  0.1856 -0.0498 -0.1243
42170SOL    HW228518   0.746   7.160   9.826  0.8392 -0.1253 -3.0778
42171SOL     OW28519   1.065  10.479   0.863 -0.4100 -0.6551  0.1546
42171SOL    HW128520   1.084  10.408   0.802  1.4056  1.4897 -1.9623
42171SOL    HW228521   1.144  10.488   0.916 -0.9028 -0.6582  0.9089
42172SOL     OW28522   6.056   1.201  10.254 -0.4451  0.1220  0.1675
42172SOL    HW128523   6.102   1.198  10.171 -0.1608  1.3495  0.2624
42172SOL    HW228524   6.123   1.224  10.318 -1.0265  1.1936  0.4174
42173SOL     OW28525  10.655   2.706   8.479  0.1372  0.0544  0.2713
42173SOL    HW128526  10.651   2.800   8.461 -0.1774  0.0882  0.5176
42173SOL    HW228527  10.565   2.676   8.473  0.2217 -0.2109  0.3058
42174SOL     OW28528  10.016   8.187   0.563 -0.5425  0.5282 -0.2634
42174SOL    HW128529  10.048   8.116   0.620  0.3546  1.1111 -0.0258
42174SOL    HW228530  10.028   8.154   0.474  1.2614  0.9349 -0.2042
42175SOL     OW28531   0.766  10.918   0.811 -0.3411  0.5327  0.2725
42175SOL    HW128532   0.818  10.911   0.730 -2.9727 -0.3843 -1.4597
42175SOL    HW228533   0.801  10.850   0.868 -0.1468 -0.6035 -1.1474
42176SOL     OW28534   8.988   6.505   0.313  0.6622 -0.1528 -0.4723
42176SOL    HW128535   8.909   6.551   0.285 -0.1735 -1.1780  0.1098
42176SOL    HW228536   8.982   6.419   0.272  1.7121 -0.0993 -0.7721
42177SOL     OW28537   9.763   3.735   2.374 -0.0227  0.2294  0.1507
42177SOL    HW128538   9.763   3.729   2.278 -0.3256 -0.1473  0.1749
42177SOL    HW228539   9.738   3.648   2.404 -1.5805  0.7723  0.5409
42178SOL     OW28540   0.048   5.398   8.930  0.6720 -0.3588  0.0218
42178SOL    HW128541   0.083   5.477   8.972  0.0370 -0.4067  0.6710
42178SOL    HW228542   0.123   5.339   8.924  0.8952 -0.1532  0.6369
42179SOL     OW28543  11.012   4.779   0.166 -0.3228  0.3131 -0.2882
42179SOL    HW128544  10.970   4.793   0.251 -1.8242 -1.9178 -0.5610
42179SOL    HW228545  11.081   4.715   0.184  0.6417  1.2727 -0.4668
42180SOL     OW28546   2.842  10.731   9.395  1.1904  0.0661  0.3190
42180SOL    HW128547   2.867  10.791   9.465 -0.2964  1.6191 -0.4097
42180SOL    HW228548   2.849  10.783   9.315 -0.7043 -0.5265 -0.2774
42181SOL     OW28549  10.073   4.367   1.510 -0.3702 -0.3017 -0.1307
42181SOL    HW128550  10.099   4.275   1.504 -2.0013 -0.8786  0.9080
42181SOL    HW228551  10.046   4.391   1.421  0.6446 -0.6376 -0.5312
42182SOL     OW28552   5.788   7.507   0.994  0.0269  0.1322 -0.2614
42182SOL    HW128553   5.810   7.598   0.974  0.5219  0.0391 -0.1672
42182SOL    HW228554   5.729   7.512   1.070  0.9634  0.3386  0.4790
42183SOL     OW28555   0.834   6.877   5.960  0.1622 -0.2474  0.1267
42183SOL    HW128556   0.819   6.917   6.046  2.3864  1.7076 -0.2736
42183SOL    HW228557   0.781   6.929   5.900  1.6319  1.0230 -0.1425
42184SOL     OW28558   4.065   4.759   1.481 -1.1837 -0.0468 -0.2424
42184SOL    HW128559   4.044   4.772   1.573  2.4708 -0.4381  0.7944
42184SOL    HW228560   4.089   4.847   1.449  0.7031 -0.3906  0.1488
42185SOL     OW28561  10.092   6.103   7.392 -0.2848 -0.3483 -0.5904
42185SOL    HW128562  10.114   6.105   7.299  2.7755 -1.5198 -0.0051
42185SOL    HW228563  10.094   6.195   7.419  1.8135 -0.1789 -1.1355
42186SOL     OW28564   4.819   0.218   9.699  0.1463 -0.0576 -0.1680
42186SOL    HW128565   4.865   0.175   9.627 -0.5225  1.2236 -1.4187
42186SOL    HW228566   4.729   0.228   9.667 -0.2447  0.2680  0.9806
42187SOL     OW28567   1.202   9.648   9.166 -0.0307  0.8485 -0.0027
42187SOL    HW128568   1.228   9.581   9.229 -0.0382  0.3802 -0.4967
42187SOL    HW228569   1.132   9.696   9.211 -0.0800  0.4796  0.3244
42188SOL     OW28570   5.385   6.241   0.066 -0.2678  0.0160  0.0011
42188SOL    HW128571   5.409   6.159   0.109  0.3673 -0.7505 -1.7052
42188SOL    HW228572   5.291   6.234   0.050 -0.5057  0.3073  1.2089
42189SOL     OW28573   8.005   6.271   6.893 -0.0117  0.2808 -0.2552
42189SOL    HW128574   7.917   6.238   6.910  0.3664  0.0901  1.5407
42189SOL    HW228575   7.999   6.365   6.906  0.2828  0.1322  1.1761
42190SOL     OW28576   3.600   1.859   4.201  0.0647 -0.0440 -0.0189
42190SOL    HW128577   3.553   1.846   4.118  0.1752 -2.0594  0.1830
42190SOL    HW228578   3.687   1.887   4.174  0.0606 -0.5585 -0.6023
42191SOL     OW28579  10.605   5.889   5.936 -0.5084  0.0689 -0.1487
42191SOL    HW128580  10.602   5.849   6.023 -1.2371 -0.2491 -0.3104
42191SOL    HW228581  10.667   5.835   5.887 -0.8492 -0.3557 -0.1176
42192SOL     OW28582   3.214   7.028   9.386  0.0134 -0.0428 -0.3146
42192SOL    HW128583   3.120   7.042   9.381  0.1203  1.4285  1.0729
42192SOL    HW228584   3.225   6.960   9.453 -0.0263  0.7732  0.5447
42193SOL     OW28585   7.351   8.949   8.329  0.5829 -0.0866 -0.1935
42193SOL    HW128586   7.276   8.950   8.389 -0.1627  1.5368 -1.0742
42193SOL    HW228587   7.423   8.985   8.380  0.8062 -1.6972  0.6752
42194SOL     OW28588   1.581   5.951   7.956  0.1696 -0.1618 -0.2493
42194SOL    HW128589   1.526   5.876   7.932  2.0532 -1.6341 -0.2139
42194SOL    HW228590   1.595   5.940   8.050  0.7531  0.0325 -0.3156
42195SOL     OW28591   9.176   7.819   4.969 -0.1584 -0.3783  0.0400
42195SOL    HW128592   9.175   7.806   4.875 -1.2584  1.1990 -0.2018
42195SOL    HW228593   9.188   7.731   5.005 -0.2827 -1.0782 -1.5446
42196SOL     OW28594   1.301   2.945   0.402 -0.2470 -0.6019 -0.7117
42196SOL    HW128595   1.324   2.957   0.310  1.0378  0.8308 -0.2378
42196SOL    HW228596   1.231   3.009   0.418 -2.3750 -2.6497 -1.2983
42197SOL     OW28597  10.255   9.870   9.657  0.2895  0.3837 -0.0446
42197SOL    HW128598  10.213   9.788   9.631 -1.3055  0.7295  1.2116
42197SOL    HW228599  10.230   9.932   9.589 -0.4867  0.3549  0.1995
42198SOL     OW28600  10.817   2.734   2.133  0.6551 -0.3271 -0.2092
42198SOL    HW128601  10.769   2.792   2.192  1.7704  2.4200 -1.8162
42198SOL    HW228602  10.765   2.731   2.053  0.0489 -2.5838  0.1888
42199SOL     OW28603  10.078   8.267   1.525 -0.2258 -0.3912 -0.4521
42199SOL    HW128604  10.116   8.294   1.609  0.8570 -0.1695 -1.0012
42199SOL    HW228605   9.989   8.240   1.547 -0.0884  0.0464  0.7058
42200SOL     OW28606  10.692   6.626   9.215  0.3226 -0.0690 -0.3278
42200SOL    HW128607  10.649   6.564   9.155  0.5169 -0.4513 -0.0779
42200SOL    HW228608  10.780   6.638   9.178  0.7869 -1.0706  0.4010
42201SOL     OW28609   3.212   8.725   0.167  0.0707  0.5546  0.2386
42201SOL    HW128610   3.305   8.702   0.156 -0.0432  0.8544 -1.6352
42201SOL    HW228611   3.194   8.785   0.095 -1.6976  0.1503  0.3169
42202SOL     OW28612   9.095  10.414   3.534 -0.7834 -0.3385  0.1135
42202SOL    HW128613   9.186  10.437   3.553 -0.9375  2.0097 -1.5255
42202SOL    HW228614   9.083  10.328   3.574  1.2978  0.4794  2.7942
42203SOL     OW28615   9.926  10.631   1.421  0.3872  0.2652 -1.0726
42203SOL    HW128616   9.892  10.618   1.509  1.8866  0.4120 -0.4452
42203SOL    HW228617   9.880  10.566   1.367 -0.2322 -0.1163 -0.1036
42204SOL     OW28618  10.791  10.523   2.360 -0.5953 -0.0144  0.0337
42204SOL    HW128619  10.860  10.552   2.419 -1.6642  0.9775  0.8231
42204SOL    HW228620  10.828  10.537   2.272 -0.3118  1.9036  0.4131
42205SOL     OW28621   6.225   8.685   6.583 -0.1369 -0.0322 -0.1128
42205SOL    HW128622   6.277   8.605   6.592  0.4053  0.4966  1.9321
42205SOL    HW228623   6.182   8.677   6.498  0.4378 -2.1730 -0.2379
42206SOL     OW28624   7.843   2.431   1.249 -0.1659 -0.2371 -0.4290
42206SOL    HW128625   7.891   2.394   1.323  0.3943  1.1340 -0.0832
42206SOL    HW228626   7.758   2.386   1.250 -0.8061  0.8638  2.0275
42207SOL     OW28627   2.163   8.023   8.284 -0.0686 -0.1553 -0.0021
42207SOL    HW128628   2.087   7.970   8.263 -0.3439  0.9926 -2.1518
42207SOL    HW228629   2.196   8.054   8.200  0.5147  2.4463  1.0613
42208SOL     OW28630   0.500  11.010   5.052  0.6166  0.9004  0.4454
42208SOL    HW128631   0.519  10.994   5.145 -0.6852  2.7869  1.1056
42208SOL    HW228632   0.415  11.054   5.052 -0.4256 -0.8894 -1.8367
42209SOL     OW28633  10.660   3.927   1.512 -0.3393 -0.1010 -0.2983
42209SOL    HW128634  10.678   3.959   1.424 -0.0672 -0.5920 -0.4214
42209SOL    HW228635  10.692   3.997   1.570 -0.4266  0.1771 -0.5808
42210SOL     OW28636   9.738   2.987   2.394  0.1433  0.1783 -0.0472
42210SOL    HW128637   9.811   2.933   2.364  0.5917  0.2878  0.8334
42210SOL    HW228638   9.710   3.034   2.315  0.4943 -0.4728 -0.5689
42211SOL     OW28639   0.085   5.215   1.968  0.0212  0.6855  0.1930
42211SOL    HW128640   0.178   5.240   1.967  0.4908 -0.9553  0.4338
42211SOL    HW228641   0.043   5.281   2.023  1.1762  1.0233  0.7034
42212SOL     OW28642   0.069   6.953   9.927 -0.3847  0.3969  0.3950
42212SOL    HW128643   0.097   6.882   9.985  1.4638  0.0541 -0.8415
42212SOL    HW228644   0.147   7.006   9.914 -0.7406  0.4657 -1.7483
42213SOL     OW28645   8.621   9.262   3.358  0.5516 -0.2985  0.3585
42213SOL    HW128646   8.715   9.261   3.374  0.5281  2.8049  1.2898
42213SOL    HW228647   8.613   9.265   3.263  1.2586 -2.2498  0.1779
42214SOL     OW28648   5.919   8.848   6.497  0.8929  0.1653  0.2302
42214SOL    HW128649   5.952   8.846   6.587  0.1201 -0.1107  0.5179
42214SOL    HW228650   5.877   8.763   6.485 -0.4910  0.8358  0.1907
42215SOL     OW28651   8.989   1.639   9.467 -0.3145  0.4611 -0.6462
42215SOL    HW128652   8.917   1.578   9.484 -0.6651  0.9727 -0.2946
42215SOL    HW228653   9.034   1.602   9.391 -1.8169  0.8961 -1.7807
42216SOL     OW28654   9.300   1.569  10.435 -0.1315 -0.0385 -0.2595
42216SOL    HW128655   9.257   1.613  10.362  0.0977  0.3145 -0.1848
42216SOL    HW228656   9.269   1.479  10.431 -0.6647  0.1495 -0.3705
42217SOL     OW28657   2.008   4.672   4.184 -0.0127 -0.0102  0.0763
42217SOL    HW128658   2.037   4.586   4.153 -1.1989 -0.1947 -0.5785
42217SOL    HW228659   1.915   4.659   4.205 -0.9477  1.6897 -2.5041
42218SOL     OW28660   0.777   4.174   3.442 -0.3904 -0.5191  0.2018
42218SOL    HW128661   0.762   4.233   3.516 -0.9397 -1.2999  0.7296
42218SOL    HW228662   0.708   4.108   3.450 -1.3349  0.1634 -1.8274
42219SOL     OW28663   9.440   2.901   3.095  0.1691  0.1997 -0.3361
42219SOL    HW128664   9.434   2.916   3.189 -1.2426 -0.1038 -0.3438
42219SOL    HW228665   9.450   2.988   3.056 -1.3096  0.5407 -0.0096
42220SOL     OW28666  10.869  10.798   3.607 -0.1184  0.3946  0.2167
42220SOL    HW128667  10.858  10.732   3.675  2.6167  0.2058  0.5699
42220SOL    HW228668  10.806  10.773   3.539  0.2634 -2.0885  0.6897
42221SOL     OW28669   2.494   6.102   2.419  0.2684 -0.1615  0.1184
42221SOL    HW128670   2.580   6.133   2.447  0.2645  0.8354 -0.9235
42221SOL    HW228671   2.434   6.170   2.448  0.1579  0.4537 -1.4518
42222SOL     OW28672  10.316   8.981   7.040  0.9456 -0.0506 -0.3829
42222SOL    HW128673  10.293   9.017   7.126  0.0854 -1.0133 -0.1778
42222SOL    HW228674  10.310   8.886   7.052  0.4054 -0.1938 -1.5972
42223SOL     OW28675   6.930   1.587  10.345  0.1399  0.4887 -0.7239
42223SOL    HW128676   6.985   1.618  10.274 -0.5300  1.4392 -0.8492
42223SOL    HW228677   6.850   1.640  10.338  0.4026  1.2123  1.2466
42224SOL     OW28678   7.259   5.373   2.000  0.1281  0.3353  0.2414
42224SOL    HW128679   7.176   5.338   2.032 -0.7825  1.6246 -0.6075
42224SOL    HW228680   7.319   5.363   2.073 -0.3967 -1.7989  0.4541
42225SOL     OW28681   1.088  10.563  10.672  0.0192 -0.0559  0.3897
42225SOL    HW128682   1.031  10.501  10.718 -1.0461  1.7559  1.6360
42225SOL    HW228683   1.164  10.572  10.729  0.3765 -0.5211 -0.0058
42226SOL     OW28684   2.095   9.894   8.132 -0.4264  0.9375 -0.6971
42226SOL    HW128685   2.102   9.925   8.042 -0.3955  0.2324 -0.9431
42226SOL    HW228686   2.031   9.824   8.128  0.9075 -0.3295 -0.5060
42227SOL     OW28687   0.536  10.208   8.212  0.5080  0.4199  0.4932
42227SOL    HW128688   0.462  10.235   8.267  1.4525  1.2083  1.4109
42227SOL    HW228689   0.604  10.182   8.274  1.8073  1.8663 -0.2544
42228SOL     OW28690   9.416   3.164   3.056  0.2090  0.0927 -0.0990
42228SOL    HW128691   9.425   3.259   3.066  0.3092  0.1108 -0.3523
42228SOL    HW228692   9.324   3.151   3.034  0.2489  0.1494 -0.2959
42229SOL     OW28693   2.943   7.551   0.784  0.2318  0.1889 -0.2956
42229SOL    HW128694   2.852   7.572   0.804 -0.2676 -0.4902 -1.7004
42229SOL    HW228695   2.973   7.500   0.859 -0.7366 -0.0842 -0.0767
42230SOL     OW28696   7.177  11.004   0.104  0.7463 -0.6572  0.2385
42230SOL    HW128697   7.090  10.964   0.107  0.6252 -0.4726 -0.5657
42230SOL    HW228698   7.237  10.931   0.119  0.4249 -0.5958  1.9710
42231SOL     OW28699   5.383   3.080   2.147  0.7834 -0.5462  0.0746
42231SOL    HW128700   5.290   3.091   2.167  0.5997 -1.3739 -0.2626
42231SOL    HW228701   5.418   3.033   2.223  1.0525  0.2295  0.4442
42232SOL     OW28702   0.828   3.057   3.639 -0.5378 -0.6024 -1.2081
42232SOL    HW128703   0.866   2.972   3.660 -0.6227 -0.5997 -1.0414
42232SOL    HW228704   0.800   3.049   3.548  0.3525 -0.4259 -1.5115
42233SOL     OW28705  10.214  10.698   9.957  0.6681 -0.0722  0.7918
42233SOL    HW128706  10.153  10.717  10.028  0.7937  0.9785  0.6320
42233SOL    HW228707  10.168  10.634   9.902  0.1549 -0.1001  1.2476
42234SOL     OW28708   9.063   1.137   5.066  0.0433 -0.0788 -0.7710
42234SOL    HW128709   9.135   1.190   5.033  1.8368 -1.0767  1.2840
42234SOL    HW228710   9.074   1.052   5.023 -0.4692  0.0235 -1.1165
42235SOL     OW28711   2.233  10.022   2.964  0.1851 -0.6226 -0.1020
42235SOL    HW128712   2.211  10.111   2.936  0.6336 -0.6474 -0.5479
42235SOL    HW228713   2.328  10.016   2.954  0.4070 -0.5787  1.5994
42236SOL     OW28714   6.652  10.697   8.114  0.1478  0.5508 -0.6209
42236SOL    HW128715   6.744  10.706   8.141 -0.3018  0.6711  0.9743
42236SOL    HW228716   6.644  10.606   8.085  0.7472  0.5181 -0.6924
42237SOL     OW28717  10.613   0.978   3.034  0.5667 -0.3517  0.2872
42237SOL    HW128718  10.550   0.976   2.962  0.7227  0.2305  0.1370
42237SOL    HW228719  10.658   0.893   3.028  0.2549 -0.4980 -0.0105
42238SOL     OW28720   2.640   4.779   9.624 -0.1536 -0.0955  0.0913
42238SOL    HW128721   2.638   4.756   9.531 -0.7261 -0.0730  0.0944
42238SOL    HW228722   2.704   4.850   9.630 -1.1754  0.9013 -0.5222
42239SOL     OW28723   7.486   3.551   9.324  0.5032  0.3569  0.2154
42239SOL    HW128724   7.490   3.635   9.370  1.5269  0.0022  0.8294
42239SOL    HW228725   7.415   3.503   9.367  0.8811  0.3640  0.8762
42240SOL     OW28726   4.907   2.786   2.206 -0.0297  0.4075 -0.0239
42240SOL    HW128727   4.860   2.869   2.218 -0.4334  0.1840 -0.0568
42240SOL    HW228728   4.844   2.729   2.163  0.3610  0.1874 -0.3092
42241SOL     OW28729   7.818   8.036   1.611  0.2368 -0.2423 -0.8642
42241SOL    HW128730   7.804   7.944   1.634  1.1076 -0.1981 -0.0802
42241SOL    HW228731   7.786   8.085   1.687 -2.1940  0.2626 -2.1104
42242SOL     OW28732   0.346   1.806   9.895  0.3830  0.3392  0.5542
42242SOL    HW128733   0.425   1.853   9.923  1.6368  0.1676 -2.3350
42242SOL    HW228734   0.282   1.876   9.879  0.1926  0.5452  2.0750
42243SOL     OW28735   5.837   1.046   3.532 -0.0677  0.1258  0.1001
42243SOL    HW128736   5.745   1.025   3.544  0.3831 -1.6765  0.6964
42243SOL    HW228737   5.879   1.016   3.612  1.1582  0.1809 -0.4967
42244SOL     OW28738  10.758   2.173   2.709  0.1262  0.6599 -0.1218
42244SOL    HW128739  10.828   2.216   2.759  3.0512 -0.5677 -2.8588
42244SOL    HW228740  10.727   2.241   2.649  0.4669  0.6466 -0.3188
42245SOL     OW28741  10.826   7.844   7.911  0.3924  0.2239 -0.0212
42245SOL    HW128742  10.764   7.858   7.983  0.0127  1.0312 -0.4945
42245SOL    HW228743  10.833   7.929   7.868  1.3304 -0.0180 -0.3820
42246SOL     OW28744   0.602   6.409  10.930 -0.0532 -0.3573  0.2245
42246SOL    HW128745   0.589   6.495  10.969  1.9905  0.0024  0.2200
42246SOL    HW228746   0.653   6.426  10.851  0.1151 -1.5403  0.0610
42247SOL     OW28747  10.075   0.420   6.228  0.0342  0.0302 -0.5701
42247SOL    HW128748  10.147   0.446   6.286  0.8586  1.3195 -2.0951
42247SOL    HW228749  10.039   0.503   6.196 -2.3255 -0.5712  0.3212
42248SOL     OW28750   5.090  10.501   5.864  0.5075 -0.7190 -0.4103
42248SOL    HW128751   5.181  10.521   5.888 -0.0382  1.4086  0.1428
42248SOL    HW228752   5.083  10.526   5.772  0.5885 -1.2832 -0.5697
42249SOL     OW28753   4.582   3.825   9.787 -0.5411  0.0693  0.2320
42249SOL    HW128754   4.611   3.913   9.808 -0.7971  0.3126 -0.4101
42249SOL    HW228755   4.489   3.834   9.768 -0.1282  0.0706 -2.0488
42250SOL     OW28756   2.494   8.182   9.196  0.5590  0.3973 -0.1350
42250SOL    HW128757   2.438   8.111   9.166 -0.7559  0.6179  1.6048
42250SOL    HW228758   2.531   8.219   9.116  0.0027 -1.2105 -1.1835
42251SOL     OW28759  10.351   6.031   2.374 -0.5669 -0.2607 -0.0252
42251SOL    HW128760  10.301   6.011   2.294  0.4559  0.3321 -0.8379
42251SOL    HW228761  10.284   6.062   2.436 -1.2635  0.2907 -1.0099
42252SOL     OW28762   9.729   4.163   5.384  0.2936  0.4034 -0.2206
42252SOL    HW128763   9.682   4.091   5.343 -0.1469  0.3219  0.4123
42252SOL    HW228764   9.683   4.178   5.466  0.1746  1.6271 -0.4948
42253SOL     OW28765   7.527   5.900   2.490  0.3544 -0.0540 -0.4023
42253SOL    HW128766   7.591   5.919   2.558  0.2263 -2.4897  0.4980
42253SOL    HW228767   7.444   5.892   2.537  0.0061 -0.3244 -1.0537
42254SOL     OW28768   6.135   7.473   9.131  0.0393 -0.0783 -0.2758
42254SOL    HW128769   6.205   7.503   9.072 -0.9874  1.6387 -0.6847
42254SOL    HW228770   6.075   7.425   9.074  0.0574 -0.1310 -0.2500
42255SOL     OW28771   0.363   8.745   5.544  0.4207  0.2046 -0.3300
42255SOL    HW128772   0.420   8.737   5.467  0.3891  1.3153 -0.4965
42255SOL    HW228773   0.423   8.754   5.618  0.4514 -0.9127 -0.2085
42256SOL     OW28774  10.830  10.231   1.300  0.3594 -0.7829  0.0356
42256SOL    HW128775  10.739  10.206   1.321 -0.0395  0.7382  0.1967
42256SOL    HW228776  10.865  10.266   1.382  0.8280 -0.5829 -0.2493
42257SOL     OW28777   3.335   8.787   5.319 -0.7438 -0.5722  0.3168
42257SOL    HW128778   3.303   8.870   5.281 -0.7667  0.3472  2.2200
42257SOL    HW228779   3.257   8.747   5.357 -0.1533  0.4787  2.8162
42258SOL     OW28780   4.165   1.504  10.158  0.6941 -0.0759  0.3216
42258SOL    HW128781   4.192   1.422  10.117  1.0282  0.5562 -0.7522
42258SOL    HW228782   4.174   1.570  10.089 -0.6008  0.6963  0.8447
42259SOL     OW28783   3.254   0.908   0.910  0.1800  1.0676  0.1946
42259SOL    HW128784   3.244   0.994   0.869  0.5964  0.7275 -0.6515
42259SOL    HW228785   3.346   0.885   0.895 -0.1162  0.1308 -0.3042
42260SOL     OW28786   7.924  10.560  10.279 -0.2801 -0.1379 -0.2886
42260SOL    HW128787   7.860  10.489  10.288  0.6346 -0.9357  0.0725
42260SOL    HW228788   7.884  10.620  10.216 -1.7224 -0.2269  0.4983
42261SOL     OW28789   4.023   8.647  10.390  0.1018 -0.0299  0.1997
42261SOL    HW128790   4.110   8.685  10.378 -0.0317  0.0246 -0.6675
42261SOL    HW228791   3.975   8.712  10.441  0.4609  0.0939  0.3863
42262SOL     OW28792   1.772   1.233   8.297  0.3529  0.1104  0.2435
42262SOL    HW128793   1.838   1.250   8.230  0.3327 -2.7209 -0.6315
42262SOL    HW228794   1.819   1.186   8.366 -0.3269 -0.0615  0.6029
42263SOL     OW28795   6.932   2.082   4.344 -0.3172  0.2362  0.0085
42263SOL    HW128796   6.845   2.070   4.380 -0.1022  1.0483  0.8506
42263SOL    HW228797   6.981   2.004   4.372  0.4152  1.7161  3.3385
42264SOL     OW28798   3.348   1.121   4.109 -0.5414  0.0296  0.0248
42264SOL    HW128799   3.377   1.114   4.200  1.5385 -1.0854 -0.6305
42264SOL    HW228800   3.299   1.203   4.105 -0.1003  0.4502  1.9881
42265SOL     OW28801   4.704   0.076  10.646 -0.5465  0.2119  0.2866
42265SOL    HW128802   4.736   0.004  10.592 -1.0826  1.0037 -1.1608
42265SOL    HW228803   4.619   0.046  10.679 -0.6318  0.0610 -0.0664
42266SOL     OW28804   2.967   8.876  10.824  0.4029  0.3837 -0.0671
42266SOL    HW128805   3.034   8.940  10.801  0.7469  0.3821  0.9073
42266SOL    HW228806   2.927   8.910  10.904  1.1711 -1.0162  0.9543
42267SOL     OW28807   9.847   0.143   2.403 -0.3507  0.1291 -0.2049
42267SOL    HW128808   9.925   0.115   2.450 -0.9273 -0.2285  0.5510
42267SOL    HW228809   9.877   0.158   2.313  0.1939 -1.8696 -0.3940
42268SOL     OW28810   5.461   0.578   0.993 -0.0879 -0.8472 -0.2871
42268SOL    HW128811   5.505   0.585   1.077  1.5873  0.1412 -1.2022
42268SOL    HW228812   5.368   0.582   1.014  0.2911 -0.9599  1.5340
42269SOL     OW28813   4.528   7.974   2.561 -0.6778 -0.1673 -0.1053
42269SOL    HW128814   4.459   7.934   2.615  0.1719  0.4689  1.5354
42269SOL    HW228815   4.522   8.067   2.579  3.0813 -0.2911  3.4583
42270SOL     OW28816   0.428   4.641   0.723  0.0554 -0.2007 -0.1482
42270SOL    HW128817   0.360   4.708   0.729 -0.4018 -0.5755 -0.9060
42270SOL    HW228818   0.380   4.558   0.728  0.7108 -0.5056  1.7873
42271SOL     OW28819   1.178   9.902   2.781  0.0379 -0.2391  0.7151
42271SOL    HW128820   1.269   9.873   2.792 -0.0443 -1.5870 -1.4812
42271SOL    HW228821   1.137   9.832   2.730 -1.4090  1.7458 -1.0133
42272SOL     OW28822   0.311   7.580   3.947  0.1702  0.2393  0.7383
42272SOL    HW128823   0.257   7.614   4.019  2.6022  1.7323  2.0041
42272SOL    HW228824   0.366   7.513   3.989 -1.6187 -2.4100 -0.8510
42273SOL     OW28825   1.734   7.687  10.489  0.0164  0.2152 -0.3231
42273SOL    HW128826   1.744   7.715  10.398  1.4292  1.3364  0.1344
42273SOL    HW228827   1.668   7.747  10.525 -1.7383 -1.2518 -0.9817
42274SOL     OW28828   8.052  10.353   8.656 -0.0125 -0.1978  0.0702
42274SOL    HW128829   7.967  10.341   8.613 -0.3396  1.1305  0.3070
42274SOL    HW228830   8.100  10.410   8.597  0.8165 -1.1175 -0.1668
42275SOL     OW28831   2.402   1.822   9.012 -0.7211  0.4114  0.3606
42275SOL    HW128832   2.323   1.781   9.046 -0.4691  0.6965  1.3433
42275SOL    HW228833   2.430   1.880   9.083 -0.7566  1.8433 -0.7552
42276SOL     OW28834  10.313  10.745   0.400  0.0445 -0.2308  0.2188
42276SOL    HW128835  10.291  10.651   0.395 -0.5075 -0.0371 -1.6339
42276SOL    HW228836  10.309  10.775   0.310 -1.8471  2.0442  0.9659
42277SOL     OW28837   8.398   2.899   1.971  0.0024  0.2416  0.1137
42277SOL    HW128838   8.477   2.885   1.919 -1.0388  1.0189 -1.7798
42277SOL    HW228839   8.414   2.982   2.017 -0.0748  0.8945 -1.0113
42278SOL     OW28840   2.616   7.939   7.763 -0.8031 -0.0477  0.1289
42278SOL    HW128841   2.663   7.928   7.681 -0.7284  0.5844  0.0854
42278SOL    HW228842   2.654   7.872   7.821  0.3621  0.6273  0.1836
42279SOL     OW28843   3.083   9.798   1.995 -0.0167  0.1949 -0.0555
42279SOL    HW128844   3.149   9.782   1.928  0.1688  0.1337  0.1415
42279SOL    HW228845   3.026   9.721   1.992 -0.0189  0.2007 -0.1542
42280SOL     OW28846   0.358   1.792   2.910 -0.7647 -0.1965 -0.6255
42280SOL    HW128847   0.323   1.778   2.822 -0.7838 -1.1681 -0.4690
42280SOL    HW228848   0.432   1.731   2.917 -1.4192 -0.9063  0.4013
42281SOL     OW28849   3.147   1.437  10.249 -0.1906  0.2236 -0.6238
42281SOL    HW128850   3.181   1.375  10.313  0.4088  1.2341  0.0589
42281SOL    HW228851   3.073   1.391  10.208 -0.3573 -0.5746  0.5290
42282SOL     OW28852   2.880   1.627   9.271 -0.3283 -0.6308 -0.3700
42282SOL    HW128853   2.788   1.610   9.290 -0.5998  1.6847  0.7968
42282SOL    HW228854   2.902   1.566   9.201 -1.6892 -3.8009  1.7422
42283SOL     OW28855   3.658  10.325   7.666 -0.4780  0.0740 -0.1679
42283SOL    HW128856   3.692  10.407   7.632 -0.8626 -0.1886 -1.2329
42283SOL    HW228857   3.563  10.334   7.660 -0.5333 -0.2366  0.2231
42284SOL     OW28858   7.143   1.552   9.333  0.3848  0.1914 -0.3295
42284SOL    HW128859   7.053   1.539   9.363  0.4250  1.3151  0.3604
42284SOL    HW228860   7.180   1.614   9.396  1.3846  0.4002 -1.0966
42285SOL     OW28861   4.298   8.228   8.003 -0.0891 -0.4177  0.4756
42285SOL    HW128862   4.385   8.204   7.971 -0.0502  0.0505  0.2250
42285SOL    HW228863   4.254   8.144   8.017  0.1409 -0.6472 -0.1300
42286SOL     OW28864   7.189   6.117  10.472 -0.0691 -0.0660  0.2273
42286SOL    HW128865   7.177   6.130  10.566  1.9840 -1.7597  0.7972
42286SOL    HW228866   7.131   6.043  10.451 -1.1680  0.8467 -0.0624
42287SOL     OW28867   1.581   8.251   7.074 -0.0137 -0.2399 -0.0462
42287SOL    HW128868   1.595   8.340   7.041 -0.5117  0.3280  1.1952
42287SOL    HW228869   1.668   8.214   7.083  0.3357  0.8336  1.2599
42288SOL     OW28870  10.546   8.248   3.412  0.1722 -0.4813 -0.0184
42288SOL    HW128871  10.634   8.284   3.403  0.9460 -2.0026  1.0945
42288SOL    HW228872  10.556   8.175   3.472 -1.8278 -0.8325 -0.0535
42289SOL     OW28873   7.738   0.071   3.460 -0.0100 -0.8117 -0.2557
42289SOL    HW128874   7.710   0.014   3.389 -0.3180  0.3710 -1.1174
42289SOL    HW228875   7.666   0.070   3.523  0.1801 -1.7125 -0.0427
42290SOL     OW28876   8.295  10.414   4.120  0.4421 -0.0372  0.2272
42290SOL    HW128877   8.258  10.419   4.208 -0.1988 -0.0411 -0.0353
42290SOL    HW228878   8.289  10.503   4.085  0.2562 -0.1340  0.0116
42291SOL     OW28879   1.451   3.096   9.098 -0.0422 -0.3128  0.4217
42291SOL    HW128880   1.442   3.133   9.186 -0.2926 -1.2935  0.8133
42291SOL    HW228881   1.407   3.012   9.102  0.0630 -0.4295 -0.6131
42292SOL     OW28882   2.600   8.164   7.987  0.7171  0.3997  0.1731
42292SOL    HW128883   2.685   8.196   8.017  2.1107 -1.8108 -1.1385
42292SOL    HW228884   2.577   8.096   8.051 -0.4531  1.4548  0.9165
42293SOL     OW28885   2.686   2.299   5.303  0.1977  0.2023 -0.6560
42293SOL    HW128886   2.779   2.291   5.283  0.4473 -0.4167  0.6226
42293SOL    HW228887   2.642   2.293   5.218  1.2978  0.1369 -1.2371
42294SOL     OW28888   2.534   6.546  10.726 -0.1519 -0.5567  0.2671
42294SOL    HW128889   2.478   6.505  10.792  1.2581 -0.4229  1.6303
42294SOL    HW228890   2.524   6.640  10.742 -0.0606 -0.5159  0.0828
42295SOL     OW28891   3.008   0.103   7.216 -0.0271  0.1151 -0.3095
42295SOL    HW128892   2.989   0.156   7.294  0.4849  1.0805 -0.8209
42295SOL    HW228893   3.100   0.078   7.226 -0.5176 -1.5935  0.4319
42296SOL     OW28894   2.744   4.143   1.248 -0.0627 -0.1077  0.0779
42296SOL    HW128895   2.830   4.170   1.279  0.0634 -1.7602  1.3040
42296SOL    HW228896   2.685   4.214   1.275  0.7568  0.6321 -0.0225
42297SOL     OW28897   0.348   9.303   8.554 -0.4056 -0.0787 -0.6248
42297SOL    HW128898   0.257   9.327   8.575 -0.7728 -0.0083 -2.1791
42297SOL    HW228899   0.355   9.316   8.460  0.3742 -2.8707 -1.0238
42298SOL     OW28900   0.101   1.231   7.925  0.4284  0.3493 -0.2357
42298SOL    HW128901   0.130   1.255   8.013  1.5707  0.6853 -0.6955
42298SOL    HW228902   0.016   1.190   7.939  0.2068  1.1469  0.9495
42299SOL     OW28903   3.798   3.618   5.500 -1.0491 -0.3436  0.3794
42299SOL    HW128904   3.707   3.594   5.483 -0.5007 -1.6712 -0.8624
42299SOL    HW228905   3.849   3.562   5.442  0.5361  0.8734  0.5217
42300SOL     OW28906   1.757   0.930   9.948 -0.5782  0.3080 -0.0346
42300SOL    HW128907   1.848   0.915   9.923  0.0566  1.3783  1.4426
42300SOL    HW228908   1.706   0.879   9.885  1.1209 -2.5161  0.6634
42301SOL     OW28909   6.366   2.098   7.971  0.2886  0.2491  0.3302
42301SOL    HW128910   6.388   2.164   8.037  1.7032  0.0456  0.0976
42301SOL    HW228911   6.445   2.045   7.963 -0.0669 -0.1054 -1.0975
42302SOL     OW28912   2.229   0.875   0.945 -0.2254  0.2587 -0.5462
42302SOL    HW128913   2.141   0.901   0.972  0.4511  1.7415  0.3815
42302SOL    HW228914   2.228   0.880   0.849 -1.1819  0.0999 -0.5504
42303SOL     OW28915   4.023   7.924   9.800  0.4666 -0.5108  0.5290
42303SOL    HW128916   3.969   7.934   9.722 -0.6114 -0.7553  1.2227
42303SOL    HW228917   4.084   7.998   9.797  1.2463 -1.1846 -1.1462
42304SOL     OW28918   0.681   0.890   0.858  0.4842 -0.4348  0.3983
42304SOL    HW128919   0.656   0.807   0.818 -0.2406 -0.2409  0.4259
42304SOL    HW228920   0.684   0.873   0.952 -0.3806 -0.2634  0.4660
42305SOL     OW28921   7.049  10.184   4.050  0.5782  0.1682  0.1916
42305SOL    HW128922   6.972  10.139   4.084  0.7013  0.9085  1.5359
42305SOL    HW228923   7.077  10.131   3.975 -1.4210  0.0974 -0.5474
42306SOL     OW28924   6.385  10.943  10.363 -0.1807  0.4949  1.0906
42306SOL    HW128925   6.316  10.892  10.405 -0.4311 -1.2487 -1.2323
42306SOL    HW228926   6.465  10.892  10.379 -0.4939 -1.0392 -1.6100
42307SOL     OW28927   2.826  11.064   3.867  0.0308 -0.4044  0.4105
42307SOL    HW128928   2.744  11.021   3.845 -0.0770  0.0550 -0.1103
42307SOL    HW228929   2.844  11.038   3.957  0.9198 -3.0526 -0.4243
42308SOL     OW28930   0.804   0.635   4.316 -0.2318  0.1914  0.0991
42308SOL    HW128931   0.805   0.695   4.391  1.3058  0.9202 -0.4674
42308SOL    HW228932   0.893   0.602   4.310 -0.6814 -0.9463 -0.5748
42309SOL     OW28933  10.470   0.119   2.547  0.0297 -0.1191  0.4644
42309SOL    HW128934  10.391   0.163   2.579 -0.3804  0.1411 -0.8470
42309SOL    HW228935  10.438   0.040   2.504  0.1421  1.3825 -2.6126
42310SOL     OW28936  10.779   8.938  10.019  0.1135 -0.0095 -0.2414
42310SOL    HW128937  10.830   8.949  10.099  0.2143 -2.3354  0.1090
42310SOL    HW228938  10.688   8.945  10.047  0.1763  0.5489 -0.1801
42311SOL     OW28939   1.322  10.734   4.363 -0.3788  0.0864  0.0078
42311SOL    HW128940   1.250  10.794   4.347 -0.0249  0.4389 -0.2837
42311SOL    HW228941   1.395  10.769   4.312  0.2068  0.1263  0.8333
42312SOL     OW28942   1.581   9.702   3.112 -0.3044 -1.0037 -0.1908
42312SOL    HW128943   1.629   9.692   3.194  0.1886  0.4478 -0.2653
42312SOL    HW228944   1.616   9.635   3.054  0.4792 -1.0122  0.2857
42313SOL     OW28945  10.459   2.204  10.409 -0.8394  0.3282 -0.4858
42313SOL    HW128946  10.514   2.205  10.487  0.7613 -2.2717 -1.4224
42313SOL    HW228947  10.370   2.212  10.441 -0.1041  2.2964  1.3059
42314SOL     OW28948  10.651   8.921   7.626  0.1352  0.7891  0.4325
42314SOL    HW128949  10.709   8.969   7.567  1.6931 -0.9266  0.4408
42314SOL    HW228950  10.633   8.981   7.697 -0.5654  2.3922 -1.0340
42315SOL     OW28951   2.456   1.326   2.278  0.3047  0.3313  0.0325
42315SOL    HW128952   2.534   1.271   2.283 -0.1985 -0.4031  0.0000
42315SOL    HW228953   2.452   1.352   2.186 -0.3921 -1.0098 -0.3492
42316SOL     OW28954  11.085   7.767   9.518  0.2853 -0.5610 -0.2939
42316SOL    HW128955  11.000   7.758   9.561  0.8918  1.7515  1.6648
42316SOL    HW228956  11.097   7.862   9.510  2.4136 -0.8518 -1.0792
42317SOL     OW28957   7.650   6.899   4.587  0.0789  0.0017 -0.3463
42317SOL    HW128958   7.596   6.976   4.603  0.0476 -0.0934  0.0296
42317SOL    HW228959   7.656   6.856   4.673  1.4758  0.4775 -0.1688
42318SOL     OW28960   8.731   0.587   3.095  0.3256  0.3819 -0.4123
42318SOL    HW128961   8.684   0.662   3.059  1.4566 -0.1049 -3.1711
42318SOL    HW228962   8.710   0.514   3.037  2.0358 -0.5828  0.0866
42319SOL     OW28963   1.302   2.108   4.520 -0.3084  0.4179 -0.1370
42319SOL    HW128964   1.258   2.116   4.436 -0.9883  1.3630  0.2834
42319SOL    HW228965   1.237   2.067   4.578  0.1538 -0.2303 -0.0800
42320SOL     OW28966   9.829   8.253   6.794  0.1593 -0.2443 -0.2145
42320SOL    HW128967   9.820   8.348   6.792  0.0547 -0.2372  0.3593
42320SOL    HW228968   9.772   8.222   6.723 -0.1123  0.1056 -0.1533
42321SOL     OW28969   0.581   0.802   6.866 -0.1520  0.0071 -0.0541
42321SOL    HW128970   0.599   0.881   6.917  1.6751  0.7868 -1.7967
42321SOL    HW228971   0.539   0.834   6.787  2.3558 -0.4684 -1.6786
42322SOL     OW28972  10.372   0.816   9.884  0.2608 -0.4601  0.1011
42322SOL    HW128973  10.376   0.830   9.979  1.6434 -0.5067  0.0621
42322SOL    HW228974  10.459   0.840   9.852  0.1502 -1.4664 -1.0241
42323SOL     OW28975   4.701   2.236   1.304  0.3381 -0.2580 -0.6888
42323SOL    HW128976   4.670   2.301   1.241 -1.7202  0.4607  0.9543
42323SOL    HW228977   4.630   2.229   1.368  0.9916 -3.2752 -0.1528
42324SOL     OW28978   4.999   1.233   5.004  0.0767 -0.3100  0.6082
42324SOL    HW128979   5.042   1.164   4.955  0.9407  0.1547  0.6839
42324SOL    HW228980   4.993   1.307   4.943  0.5154  0.0351  0.9706
42325SOL     OW28981   1.652   9.031   3.341  0.6373 -0.0385  0.0115
42325SOL    HW128982   1.595   9.107   3.355 -0.7123 -1.1475  0.8652
42325SOL    HW228983   1.601   8.973   3.284  1.8397 -0.1271 -1.0095
42326SOL     OW28984   9.649   9.331   2.934  0.3615  0.0480 -0.7480
42326SOL    HW128985   9.577   9.319   2.872 -0.1572 -0.0991 -0.1422
42326SOL    HW228986   9.648   9.424   2.955  1.6112  0.4264 -2.1943
42327SOL     OW28987   4.722   2.179   1.686 -0.1176  0.1013 -0.5584
42327SOL    HW128988   4.654   2.222   1.738  0.1808  1.0257 -0.9104
42327SOL    HW228989   4.794   2.243   1.683  0.0019 -0.0731 -1.8149
42328SOL     OW28990   7.242   2.988   3.319 -0.0126 -0.1583 -1.0287
42328SOL    HW128991   7.289   3.072   3.319  0.8174 -0.5128 -3.8994
42328SOL    HW228992   7.193   2.989   3.237 -0.5581 -2.2164 -0.7648
42329SOL     OW28993   2.337   6.953  10.208 -0.1921  0.1714 -0.1073
42329SOL    HW128994   2.401   6.883  10.220 -0.2462 -0.0817 -1.2338
42329SOL    HW228995   2.300   6.966  10.295  0.1778 -0.8507  0.2204
42330SOL     OW28996   1.010  10.912   3.272  0.0178  0.3058  0.0130
42330SOL    HW128997   0.968  10.997   3.263 -0.9461  0.0108  1.4262
42330SOL    HW228998   1.085  10.927   3.329  1.2771  0.6172 -1.6293
42331SOL     OW28999   9.772   0.453   8.810  0.4453  0.5252  0.2292
42331SOL    HW129000   9.705   0.404   8.858  2.0639 -1.4881  0.5778
42331SOL    HW229001   9.780   0.407   8.727  0.5303  1.5361 -0.3445
42332SOL     OW29002   8.242   8.378   8.759  0.0949 -0.2618  0.0469
42332SOL    HW129003   8.316   8.326   8.728 -0.5517 -0.9584 -0.3756
42332SOL    HW229004   8.265   8.469   8.739 -0.4626 -0.6922 -2.9070
42333SOL     OW29005   0.942   9.809   3.220 -0.3098 -0.0394  1.0312
42333SOL    HW129006   0.886   9.732   3.231 -0.2762  0.2133  3.7185
42333SOL    HW229007   0.884   9.883   3.238  0.1694  0.4189  0.7001
42334SOL     OW29008   7.670  10.637  11.041  0.1153 -0.2879 -1.1922
42334SOL    HW129009   7.681  10.725  11.005 -1.2495  0.7120  0.6361
42334SOL    HW229010   7.599  10.598  10.988  0.2689 -0.0416 -1.5829
42335SOL     OW29011   7.418   8.333   2.513 -0.2410 -0.4943  0.8138
42335SOL    HW129012   7.387   8.317   2.603 -0.6728 -0.8986  0.5978
42335SOL    HW229013   7.408   8.427   2.501 -0.5559 -0.4925  1.0608
42336SOL     OW29014   1.790   8.664  10.695  0.1992 -0.9461 -0.1360
42336SOL    HW129015   1.776   8.743  10.642  0.6422 -0.0095  1.0952
42336SOL    HW229016   1.882   8.640  10.678  0.8631  0.3121  1.3789
42337SOL     OW29017   4.291   9.567   9.161 -0.4668  0.2043  0.3539
42337SOL    HW129018   4.221   9.574   9.225  1.0581 -1.5864  2.3847
42337SOL    HW229019   4.369   9.598   9.207  0.2075  1.7335 -1.6867
42338SOL     OW29020   8.507   0.914   0.212  0.2219 -0.5637  0.1211
42338SOL    HW129021   8.487   0.823   0.233  1.2614 -0.4233  1.9286
42338SOL    HW229022   8.453   0.965   0.272  2.1418 -0.1008  1.5667
42339SOL     OW29023   9.703   1.324   4.276  0.0729 -0.4466  0.0067
42339SOL    HW129024   9.793   1.303   4.300  0.4147  0.7093 -0.2019
42339SOL    HW229025   9.675   1.252   4.220  0.6394 -1.1426  0.6095
42340SOL     OW29026   3.129   2.676   6.759  0.4290  0.3434 -0.1494
42340SOL    HW129027   3.170   2.590   6.765 -0.9526 -0.3527 -0.3906
42340SOL    HW229028   3.196   2.731   6.717  1.3451 -0.5866  0.0529
42341SOL     OW29029   1.755   2.423   2.417  0.4304  0.0591  0.0906
42341SOL    HW129030   1.791   2.493   2.471  1.0937 -2.0682  2.6205
42341SOL    HW229031   1.661   2.422   2.438  0.8286 -1.3611  2.1262
42342SOL     OW29032   2.526   9.420   3.268 -0.0476 -0.0946  0.1864
42342SOL    HW129033   2.492   9.434   3.357  0.7513 -0.0282  0.4949
42342SOL    HW229034   2.452   9.384   3.219 -0.7473  0.6721  0.6508
42343SOL     OW29035   4.485   3.469   1.123 -0.4843  0.4188 -0.2925
42343SOL    HW129036   4.464   3.543   1.066 -1.3879  0.6588  0.3186
42343SOL    HW229037   4.400   3.432   1.146 -0.1075 -0.0203  0.4358
42344SOL     OW29038   2.438  10.663   2.662 -0.1834 -0.0948  0.1938
42344SOL    HW129039   2.396  10.748   2.647 -0.7736 -0.5135 -0.5549
42344SOL    HW229040   2.399  10.631   2.744  0.2551  0.4796  0.6342
42345SOL     OW29041   7.734   9.524   4.478  0.5086 -0.0241 -0.3020
42345SOL    HW129042   7.758   9.614   4.500 -1.0602  0.2064  0.6086
42345SOL    HW229043   7.639   9.525   4.475  0.4769 -1.6266 -0.4540
42346SOL     OW29044   9.704   3.101  10.612  0.1167 -0.0633  0.2602
42346SOL    HW129045   9.766   3.122  10.682  1.2571 -0.9080 -0.4491
42346SOL    HW229046   9.647   3.035  10.649  1.1778 -1.0492  0.2026
42347SOL     OW29047  10.341   2.893   1.674  0.7824  0.1168  0.1890
42347SOL    HW129048  10.247   2.901   1.688  0.5620 -2.6527  0.8214
42347SOL    HW229049  10.380   2.925   1.755  0.1780 -1.7089  1.2582
42348SOL     OW29050   1.414   2.773   1.553 -0.4852 -0.2772  0.3409
42348SOL    HW129051   1.347   2.705   1.563 -0.2283 -0.4797  0.7414
42348SOL    HW229052   1.407   2.800   1.462 -0.2939 -1.1609  0.0484
42349SOL     OW29053   3.719   0.462  10.097  0.2719  0.6254  0.6364
42349SOL    HW129054   3.732   0.377  10.055 -0.2669  0.7582  0.1782
42349SOL    HW229055   3.708   0.523  10.024 -3.5438  0.4431  0.8156
42350SOL     OW29056   8.307  10.017   5.910 -0.6431  0.7205  0.4808
42350SOL    HW129057   8.400  10.033   5.925 -0.9779  1.7769  1.6422
42350SOL    HW229058   8.265  10.101   5.931 -1.8703  0.2449  0.0294
42351SOL     OW29059   4.725   9.835   2.048 -0.6710  0.0071 -0.3700
42351SOL    HW129060   4.645   9.796   2.013 -0.5324  0.1031 -0.8011
42351SOL    HW229061   4.795   9.795   1.997 -0.3878 -0.5951  0.4720
42352SOL     OW29062   8.958   1.703   5.970 -0.2315 -0.8041  0.1867
42352SOL    HW129063   8.886   1.733   5.915  0.6178  0.3230 -0.3474
42352SOL    HW229064   9.003   1.783   5.996  1.2638 -1.5266 -0.1030
42353SOL     OW29065   1.168   6.346   0.028 -0.1403  0.0743 -0.1162
42353SOL    HW129066   1.136   6.308   0.110  0.2558  1.0851  0.5244
42353SOL    HW229067   1.253   6.383   0.050 -0.7345  1.7877 -0.5625
42354SOL     OW29068   8.052  10.134  10.456  0.3241 -0.3775  0.9258
42354SOL    HW129069   8.061  10.096  10.369  0.4501  1.0617  0.3025
42354SOL    HW229070   8.142  10.158  10.481  0.1217  0.4416  0.8852
42355SOL     OW29071   8.751   9.397   8.906 -0.1764  0.4779  0.2391
42355SOL    HW129072   8.788   9.395   8.818  0.5203  1.4181  0.4857
42355SOL    HW229073   8.815   9.351   8.961 -2.1418 -3.0998 -0.2058
42356SOL     OW29074   2.492   9.326   2.897 -0.2167 -0.1055 -0.0601
42356SOL    HW129075   2.496   9.419   2.876 -1.1909  0.2489  1.2286
42356SOL    HW229076   2.561   9.313   2.962  0.8132 -0.5939 -1.1977
42357SOL     OW29077   1.112   7.930   9.717 -0.3930  0.5908 -0.1776
42357SOL    HW129078   1.037   7.920   9.775 -1.2768 -1.2852 -1.5549
42357SOL    HW229079   1.080   7.905   9.630  1.2997  1.7214 -1.2108
42358SOL     OW29080   9.993  10.803   2.432 -0.2178  0.3438  0.1295
42358SOL    HW129081   9.998  10.719   2.478  0.5577  1.3966  2.1375
42358SOL    HW229082   9.900  10.820   2.422 -0.4529  0.3041  1.8944
42359SOL     OW29083   7.948  10.817   1.093  0.0109  0.1949  0.4381
42359SOL    HW129084   7.909  10.794   1.177 -0.7384  1.5607  0.4970
42359SOL    HW229085   7.914  10.905   1.074  0.3189  0.0019 -1.1865
42360SOL     OW29086  10.306   9.040   4.993  0.2384  0.1528 -0.4668
42360SOL    HW129087  10.283   8.955   5.030  0.0551 -0.7728 -2.5717
42360SOL    HW229088  10.227   9.093   5.000  0.7613  0.7126  2.1655
42361SOL     OW29089   5.011  10.772   9.042  0.6432 -0.0306 -0.2502
42361SOL    HW129090   4.928  10.724   9.046  0.0273  1.0757  1.2650
42361SOL    HW229091   4.994  10.854   9.089  2.0178  1.1290 -1.6470
42362SOL     OW29092   0.323  10.739   9.453  0.1308 -0.1306 -0.2824
42362SOL    HW129093   0.311  10.658   9.504  1.5294 -0.3143 -0.2121
42362SOL    HW229094   0.399  10.721   9.399  1.6544  1.7930  1.0856
42363SOL     OW29095   1.283   2.632   3.643  0.1423  0.7659  0.0338
42363SOL    HW129096   1.322   2.548   3.667  0.7500  1.0906  0.2145
42363SOL    HW229097   1.211   2.644   3.706 -1.0254 -0.3768 -1.0213
42364SOL     OW29098   8.100   2.820   8.523  0.1539 -0.2081  0.4132
42364SOL    HW129099   8.129   2.790   8.609  0.5588  0.3873  0.4927
42364SOL    HW229100   8.028   2.763   8.500 -0.2907 -0.0470  1.3795
42365SOL     OW29101   0.254   7.689   0.155 -0.4235 -0.1103 -0.6948
42365SOL    HW129102   0.253   7.730   0.241  0.2067 -0.6543 -0.4172
42365SOL    HW229103   0.248   7.595   0.173  3.6963 -0.6404 -0.9247
42366SOL     OW29104   7.727   8.133   1.856 -0.3607 -0.1301 -0.7400
42366SOL    HW129105   7.645   8.092   1.884 -0.5896  1.3243  0.8542
42366SOL    HW229106   7.709   8.227   1.860  1.1339  0.1979 -1.2055
42367SOL     OW29107   3.579   9.073   3.021 -0.4080 -0.0356  0.2626
42367SOL    HW129108   3.526   9.016   3.078  1.0271 -1.0121  0.6870
42367SOL    HW229109   3.630   9.012   2.968  1.1344  0.8405  0.6798
42368SOL     OW29110  10.273   6.871   8.721  0.0875 -0.1427  0.4354
42368SOL    HW129111  10.200   6.881   8.783 -1.3915  0.2719 -1.2580
42368SOL    HW229112  10.256   6.788   8.677 -0.3927  0.7418 -1.1538
42369SOL     OW29113   9.516   8.918   1.614 -0.8884  0.3362 -0.1900
42369SOL    HW129114   9.482   8.935   1.702  2.2159  0.5513  1.1067
42369SOL    HW229115   9.540   8.825   1.615  0.6459  0.7053 -0.1886
42370SOL     OW29116   1.315   9.594   2.062 -0.1193 -0.3670 -0.5291
42370SOL    HW129117   1.232   9.640   2.051  0.1321  0.3646  0.4640
42370SOL    HW229118   1.316   9.529   1.992 -2.4788 -1.8021  0.6474
42371SOL     OW29119  10.292   0.837   0.817 -0.2876 -0.0718 -0.5901
42371SOL    HW129120  10.317   0.768   0.756 -1.3783  0.0861 -1.2375
42371SOL    HW229121  10.197   0.845   0.808 -0.3713  0.5165  0.5385
42372SOL     OW29122   9.209   5.990   1.840  0.4090 -0.0641 -0.1123
42372SOL    HW129123   9.177   5.900   1.837  1.0233 -0.2583 -1.0146
42372SOL    HW229124   9.195   6.024   1.752  0.3281  0.6797  0.1807
42373SOL     OW29125   6.816   8.576   8.682  0.4439 -0.2095  0.4159
42373SOL    HW129126   6.866   8.501   8.648  0.6961  0.2231 -0.1831
42373SOL    HW229127   6.772   8.612   8.605 -0.4775 -0.3385  0.8725
42374SOL     OW29128   4.693   0.346  10.732 -0.3903 -0.4096  0.2696
42374SOL    HW129129   4.655   0.301  10.807  1.0332 -1.7342  0.2398
42374SOL    HW229130   4.712   0.277  10.669 -0.2217  0.5140 -0.7239
42375SOL     OW29131   4.218   1.766   8.857  0.2353  0.0533 -0.3649
42375SOL    HW129132   4.177   1.814   8.785  2.2897 -0.7757 -2.1882
42375SOL    HW229133   4.241   1.834   8.920 -1.3306  0.8399 -0.5815
42376SOL     OW29134   6.349  10.042   0.427  0.7011 -0.4935 -0.3586
42376SOL    HW129135   6.289   9.969   0.417  1.7303 -1.1574 -2.0047
42376SOL    HW229136   6.365  10.047   0.522 -3.0533  0.7142  0.3676
42377SOL     OW29137   6.274   2.553   9.670  0.3222 -0.2163 -0.0058
42377SOL    HW129138   6.222   2.623   9.711 -0.7628 -1.4297  0.7672
42377SOL    HW229139   6.365   2.576   9.688 -0.0358  0.7441  0.6328
42378SOL     OW29140  11.009   8.972   7.629  0.2042  0.1236  0.8086
42378SOL    HW129141  11.095   9.014   7.624  0.0109  0.5397  0.9705
42378SOL    HW229142  10.965   8.998   7.548  1.6804 -3.3792 -1.3534
42379SOL     OW29143   0.267   4.896   0.740  0.3832 -0.3618  0.2618
42379SOL    HW129144   0.203   4.958   0.775  1.4900  0.9469  0.0565
42379SOL    HW229145   0.352   4.933   0.764  1.0956 -1.9195  0.3007
42380SOL     OW29146   4.620   1.131   0.643 -0.1931 -0.2345  0.0913
42380SOL    HW129147   4.628   1.150   0.550  1.2765 -1.0939  0.0164
42380SOL    HW229148   4.527   1.142   0.661 -0.4584  0.2443 -1.4077
42381SOL     OW29149   8.222   9.916   0.944  0.3296 -0.1321 -0.1096
42381SOL    HW129150   8.137   9.874   0.930 -0.5008  0.8342  1.6386
42381SOL    HW229151   8.215   9.999   0.896  0.1987  0.0322  0.1887
42382SOL     OW29152   8.934   1.159   8.342 -0.5154  0.2953 -0.2369
42382SOL    HW129153   8.952   1.070   8.372  1.4278  0.4943 -0.6726
42382SOL    HW229154   8.863   1.148   8.279  0.4129 -1.1207 -1.1034
42383SOL     OW29155   8.666   6.920   6.479 -0.6247 -0.5762 -0.0618
42383SOL    HW129156   8.721   6.845   6.456 -0.9771 -0.7156 -0.4554
42383SOL    HW229157   8.598   6.923   6.411 -1.0330 -0.3318  0.3495
42384SOL     OW29158   7.710   6.321   1.516  0.6417  0.5894  0.1464
42384SOL    HW129159   7.755   6.250   1.562  0.6342  0.6070  0.1818
42384SOL    HW229160   7.738   6.401   1.562 -0.6052  0.4872  1.1651
42385SOL     OW29161  10.430   6.330   7.957  0.1404  0.2430  0.3348
42385SOL    HW129162  10.522   6.306   7.959 -0.1647 -1.4386 -1.9425
42385SOL    HW229163  10.383   6.250   7.980 -0.7890  0.9735  1.0883
42386SOL     OW29164   3.779   3.373   8.275 -0.1153  0.1009  0.1475
42386SOL    HW129165   3.748   3.405   8.359 -0.5579  0.8837 -0.3025
42386SOL    HW229166   3.733   3.427   8.210 -0.2050 -0.8497 -0.6091
42387SOL     OW29167   0.268   9.244   5.251 -0.3362 -0.3761 -0.3042
42387SOL    HW129168   0.247   9.152   5.270 -0.2561 -0.1740  0.8003
42387SOL    HW229169   0.268   9.287   5.336  0.2479  0.5323 -0.7474
42388SOL     OW29170   5.651   0.146   0.218 -0.5013 -0.3220  0.4457
42388SOL    HW129171   5.695   0.159   0.133 -2.9327 -1.6143 -1.1383
42388SOL    HW229172   5.567   0.191   0.208 -0.0990  1.1464  2.9533
42389SOL     OW29173   8.435   8.742  10.268 -0.2333  0.0573 -0.3650
42389SOL    HW129174   8.490   8.678  10.224 -1.0516 -1.0808  0.2231
42389SOL    HW229175   8.397   8.794  10.198 -1.5800 -1.7690 -1.0727
42390SOL     OW29176   4.469  10.104   0.931  0.1088 -0.0452  0.6623
42390SOL    HW129177   4.498  10.149   1.010 -1.4555  2.4084 -0.0281
42390SOL    HW229178   4.468  10.173   0.864 -1.4482 -1.3445 -0.7338
42391SOL     OW29179   8.939   1.866  10.412  0.1945  0.3691  0.0646
42391SOL    HW129180   8.844   1.874  10.426 -0.1649 -0.3226 -1.7682
42391SOL    HW229181   8.965   1.952  10.378 -0.3868 -0.3427 -2.3719
42392SOL     OW29182  10.154   6.981   5.757  0.3288  0.0305  0.1181
42392SOL    HW129183  10.103   6.948   5.684  0.8923  2.1760 -1.3372
42392SOL    HW229184  10.243   6.992   5.722  1.2213 -1.1943  1.8484
42393SOL     OW29185   6.277   9.265   2.430 -0.6428 -0.0975 -0.4268
42393SOL    HW129186   6.340   9.272   2.358  1.1518  3.1814  1.2338
42393SOL    HW229187   6.329   9.243   2.506 -1.9805 -0.1841  0.5019
42394SOL     OW29188  10.924   2.869   3.024  0.5298 -0.0936  0.1307
42394SOL    HW129189  10.836   2.832   3.030 -0.7388  2.7147  0.4654
42394SOL    HW229190  10.952   2.882   3.114  0.7326  0.2731  0.0164
42395SOL     OW29191   3.892   0.487   2.657 -0.0734 -0.6809 -0.4037
42395SOL    HW129192   3.915   0.486   2.564  0.2886 -0.1405 -0.3278
42395SOL    HW229193   3.888   0.580   2.679  0.4294 -0.8118  0.2634
42396SOL     OW29194   0.702   9.050   1.517  0.3938  0.0175  0.0246
42396SOL    HW129195   0.694   9.138   1.555 -0.8170  0.6594 -1.6423
42396SOL    HW229196   0.613   9.015   1.518  0.9534 -1.4959  1.2620
42397SOL     OW29197   0.115   8.564   2.282 -0.1968  0.0340 -0.6927
42397SOL    HW129198   0.134   8.587   2.373  0.8361  0.1670 -0.9261
42397SOL    HW229199   0.040   8.618   2.259  0.0274  0.5940 -0.1548
42398SOL     OW29200   8.655   4.427   0.732 -0.1876  0.0055  0.5765
42398SOL    HW129201   8.748   4.451   0.738 -0.3759  0.8361  0.3074
42398SOL    HW229202   8.617   4.494   0.676 -0.7220 -1.0248 -0.3354
42399SOL     OW29203   7.468   7.045   7.186 -0.1950  0.3874 -0.0207
42399SOL    HW129204   7.464   7.141   7.184 -0.5951  0.3665 -0.7652
42399SOL    HW229205   7.383   7.018   7.220 -1.0215  0.2657 -2.0229
42400SOL     OW29206   8.088  10.256   4.325 -0.1907 -0.0973 -0.0050
42400SOL    HW129207   8.155  10.216   4.381  0.2520  2.9099  1.8614
42400SOL    HW229208   8.007  10.213   4.351  0.2684  0.0195  1.7912
42401SOL     OW29209   1.559  10.951  10.759  0.1050 -0.2617  0.5254
42401SOL    HW129210   1.532  10.860  10.776  0.4510 -1.0821 -2.7294
42401SOL    HW229211   1.654  10.949  10.767  0.0036  0.3779  2.4668
42402SOL     OW29212   5.768   7.378   2.472  0.1998 -0.0087 -0.2023
42402SOL    HW129213   5.742   7.461   2.513  1.2010  0.0708  0.3060
42402SOL    HW229214   5.710   7.313   2.512  0.8796  0.1326  1.0735
42403SOL     OW29215   1.235   2.137   0.956 -0.8259 -0.8320  0.0534
42403SOL    HW129216   1.327   2.159   0.940 -0.5568 -0.8607  1.4312
42403SOL    HW229217   1.202   2.210   1.008 -1.8349 -0.4173 -1.1215
42404SOL     OW29218   2.838   8.775   3.711 -0.1521  0.1484 -0.2978
42404SOL    HW129219   2.884   8.799   3.792 -0.4231  0.7875 -0.3251
42404SOL    HW229220   2.907   8.745   3.652  0.0543 -0.2724  0.1494
42405SOL     OW29221   9.605   0.193   4.244  0.2188 -0.2979  0.1027
42405SOL    HW129222   9.660   0.260   4.203  1.5407 -0.4916  1.4551
42405SOL    HW229223   9.516   0.227   4.235  0.8921  2.1614  1.5573
42406SOL     OW29224   9.566   5.925   3.823  0.4380  0.4935  0.3504
42406SOL    HW129225   9.534   5.989   3.886  0.5328 -0.7407  1.6994
42406SOL    HW229226   9.617   5.863   3.875 -2.0136 -2.3305 -0.3606
42407SOL     OW29227   3.052   2.417   0.452 -0.3350 -0.0500 -0.2061
42407SOL    HW129228   3.010   2.492   0.494 -1.2927  0.1266 -1.4531
42407SOL    HW229229   2.991   2.345   0.466 -0.1446 -0.2373 -0.3438
42408SOL     OW29230   7.588   2.966   8.724  0.0769  0.5440 -0.2932
42408SOL    HW129231   7.587   3.029   8.796 -0.1728 -0.2327  0.4079
42408SOL    HW229232   7.652   3.000   8.662 -1.0234  2.2003 -0.5949
42409SOL     OW29233   2.719  10.643   0.355  0.7989  0.0817  0.0974
42409SOL    HW129234   2.706  10.672   0.265 -0.2256 -0.5108  0.0384
42409SOL    HW229235   2.630  10.627   0.388  1.2468 -1.5816  0.5737
42410SOL     OW29236   3.088   6.448   4.351  0.3992 -0.0028  0.4186
42410SOL    HW129237   3.140   6.369   4.360 -0.2182 -0.4265  0.3292
42410SOL    HW229238   3.028   6.430   4.278 -0.0164  0.3898  0.6536
42411SOL     OW29239   2.217   1.065  10.204 -0.3044  0.2123  0.7088
42411SOL    HW129240   2.164   1.081  10.283  0.1048  0.3540  0.9566
42411SOL    HW229241   2.307   1.058  10.237 -0.2293 -0.5412  0.3552
42412SOL     OW29242   7.785   8.586   5.745  0.1902 -0.1345  0.5053
42412SOL    HW129243   7.813   8.672   5.714 -1.0359  0.2197  0.3497
42412SOL    HW229244   7.807   8.526   5.673  2.7775 -0.3118  1.3422
42413SOL     OW29245  10.568   5.175   7.160 -0.2509 -0.3011 -0.8244
42413SOL    HW129246  10.610   5.166   7.075  1.1440 -0.8122 -0.1239
42413SOL    HW229247  10.580   5.267   7.184 -1.6924  0.1300 -1.6713
42414SOL     OW29248   4.371   8.989   5.809 -0.1652  0.2369  0.2485
42414SOL    HW129249   4.291   9.025   5.771  0.3208  0.6027 -0.4300
42414SOL    HW229250   4.370   8.897   5.783 -0.8067  0.0204  0.9899
42415SOL     OW29251   9.616   7.119   7.156 -0.1625 -0.0446 -0.4671
42415SOL    HW129252   9.543   7.070   7.194  0.6074 -0.6443  0.2741
42415SOL    HW229253   9.689   7.104   7.216  0.0459  2.2753 -0.0674
42416SOL     OW29254   2.137   8.612   7.550  0.5339 -0.0795 -0.8922
42416SOL    HW129255   2.201   8.601   7.479  1.2343 -0.7833 -0.1683
42416SOL    HW229256   2.066   8.553   7.527 -0.0722  0.9925 -1.9062
42417SOL     OW29257   8.095  10.742   0.726 -0.0900 -0.1787 -0.0673
42417SOL    HW129258   8.140  10.795   0.791  0.2880  0.5464 -0.9020
42417SOL    HW229259   8.082  10.800   0.651  3.2716 -1.9813 -2.3471
42418SOL     OW29260   7.587   4.834   6.777  0.0236 -0.5703  0.1007
42418SOL    HW129261   7.610   4.760   6.721 -3.3402 -2.0984  0.4963
42418SOL    HW229262   7.556   4.902   6.717 -0.2977 -0.8700 -0.0712
42419SOL     OW29263  10.116   1.334   5.737  0.4624  0.0156 -0.2022
42419SOL    HW129264  10.082   1.372   5.656 -0.5576  0.8700  0.5850
42419SOL    HW229265  10.066   1.254   5.749 -0.2239  0.4856  0.1618
42420SOL     OW29266   4.203   9.096   4.872  0.1819 -0.2545 -0.0224
42420SOL    HW129267   4.290   9.136   4.873 -0.4391  1.1333 -0.4389
42420SOL    HW229268   4.187   9.072   4.963  0.3787  0.8692  0.3160
42421SOL     OW29269   7.051   6.135   1.150 -0.0219  0.1288  0.1673
42421SOL    HW129270   7.012   6.049   1.168 -0.2555  0.1171 -0.3464
42421SOL    HW229271   7.087   6.126   1.062 -0.7367  0.7878 -0.2063
42422SOL     OW29272   5.744   4.903   3.759 -0.8905  0.4254  0.3892
42422SOL    HW129273   5.653   4.919   3.737 -0.8667 -1.3974 -1.3724
42422SOL    HW229274   5.772   4.834   3.698  0.5012 -2.0001  3.4590
42423SOL     OW29275   4.392   6.301   1.141 -0.1709 -0.0892  0.3828
42423SOL    HW129276   4.348   6.222   1.111 -2.0157  0.6744  0.9695
42423SOL    HW229277   4.442   6.273   1.218 -1.3192 -0.5850  0.9687
42424SOL     OW29278   9.571   8.374   2.330  0.0210  0.2914 -0.4691
42424SOL    HW129279   9.564   8.364   2.235 -2.6198  1.0472 -0.4273
42424SOL    HW229280   9.552   8.466   2.347  0.8872  0.2702  0.7832
42425SOL     OW29281   9.326   0.487   1.594 -0.7855 -0.2642  0.0511
42425SOL    HW129282   9.332   0.571   1.548 -0.1696 -0.6258 -0.5403
42425SOL    HW229283   9.415   0.469   1.623 -1.0744 -0.3003  0.9537
42426SOL     OW29284   5.470   9.397   6.156  0.0750 -0.0018 -0.4523
42426SOL    HW129285   5.556   9.406   6.196  0.6745  0.5572 -1.7916
42426SOL    HW229286   5.418   9.348   6.220  1.5584 -0.8682  0.1388
42427SOL     OW29287   0.606   5.310   1.013 -0.1666  0.3856 -0.1646
42427SOL    HW129288   0.545   5.344   0.947  0.9035  1.1330 -0.7995
42427SOL    HW229289   0.682   5.282   0.963 -0.4269 -1.6582  0.4989
42428SOL     OW29290   9.206   9.607   0.995  0.9434 -0.1793  0.1681
42428SOL    HW129291   9.230   9.698   0.980 -0.4464  0.1461 -0.1888
42428SOL    HW229292   9.288   9.565   1.023  1.2148  1.5868  2.3059
42429SOL     OW29293   1.712   3.271  10.106  0.2272 -0.5070  0.0452
42429SOL    HW129294   1.669   3.284  10.191  1.7453 -1.2217  0.9699
42429SOL    HW229295   1.772   3.198  10.121 -0.0509 -1.1897 -1.8826
42430SOL     OW29296   8.820   9.572   6.329  0.7156 -0.1026 -0.2116
42430SOL    HW129297   8.859   9.485   6.318  1.4479 -0.0296  1.4314
42430SOL    HW229298   8.795   9.575   6.421 -1.1070  0.7306 -0.6992
42431SOL     OW29299   5.621   2.492   7.185 -0.4723 -0.7342  0.0097
42431SOL    HW129300   5.562   2.559   7.218  0.8109  1.7461 -2.3029
42431SOL    HW229301   5.564   2.426   7.145 -1.7653 -1.1972  2.4356
42432SOL     OW29302   2.229   2.008  10.427  0.6076  0.2886  0.2673
42432SOL    HW129303   2.312   2.034  10.466  1.3911  0.9686 -1.6997
42432SOL    HW229304   2.250   1.927  10.379  0.4247  0.9797 -1.0340
42433SOL     OW29305  10.841   2.808   1.503  0.1294  0.7411  0.9895
42433SOL    HW129306  10.828   2.714   1.511  0.9343  0.4659 -0.5790
42433SOL    HW229307  10.801   2.845   1.582 -2.3449 -0.7027  0.5003
42434SOL     OW29308   2.784   5.066   2.292  0.6779  0.2770  0.1049
42434SOL    HW129309   2.809   5.121   2.367  1.9775  1.1677 -0.9216
42434SOL    HW229310   2.705   5.107   2.258  1.1225  0.9775 -0.1032
42435SOL     OW29311   9.340   3.037   1.856  0.1147 -0.5261  0.4126
42435SOL    HW129312   9.285   2.962   1.832 -2.7780  0.4362  3.2606
42435SOL    HW229313   9.300   3.112   1.812  0.5757 -0.1146  0.6835
42436SOL     OW29314   8.368   7.265   1.975 -0.2411 -0.7868 -0.2426
42436SOL    HW129315   8.356   7.227   2.062 -0.5628  0.2769  0.1946
42436SOL    HW229316   8.279   7.279   1.943 -0.1970  0.9268  0.2336
42437SOL     OW29317   8.984   1.765   1.532 -0.4117 -0.2093 -0.0851
42437SOL    HW129318   8.936   1.708   1.472 -0.2650 -1.6614  1.1054
42437SOL    HW229319   8.916   1.813   1.579 -0.6368 -0.8098  0.2163
42438SOL     OW29320   8.212   9.489   5.385  0.1933  0.0462  0.0265
42438SOL    HW129321   8.194   9.397   5.366  0.6571  0.1707 -1.1002
42438SOL    HW229322   8.266   9.519   5.311  0.2266  1.1624  0.4807
42439SOL     OW29323   1.637   2.638  10.761 -0.3732  0.6583  0.1800
42439SOL    HW129324   1.544   2.663  10.755 -0.2081  1.3792  0.4856
42439SOL    HW229325   1.653   2.627  10.854 -0.4622 -0.7497  0.0494
42440SOL     OW29326  10.695   2.728   3.003  0.2220 -0.0223  0.6261
42440SOL    HW129327  10.696   2.665   2.931  0.9205  2.6595 -1.8796
42440SOL    HW229328  10.602   2.745   3.019  0.0512 -0.9930  0.7058
42441SOL     OW29329   3.883   2.629   2.520  0.4924  0.0036  0.1454
42441SOL    HW129330   3.887   2.719   2.489  1.4660  0.7951  2.4139
42441SOL    HW229331   3.934   2.579   2.456 -0.9280  0.8198 -1.7203
42442SOL     OW29332   8.402   5.624   7.127  0.7580 -0.1632  0.1051
42442SOL    HW129333   8.374   5.702   7.080 -0.3759 -0.3829  0.3912
42442SOL    HW229334   8.368   5.551   7.076  0.8234 -0.4420  0.4542
42443SOL     OW29335   6.678   9.928  10.319 -0.2711  0.0705  0.0750
42443SOL    HW129336   6.683   9.905  10.226  0.9001  1.5246 -0.2554
42443SOL    HW229337   6.739   9.867  10.361  2.6673  2.2191 -0.7645
42444SOL     OW29338   8.708   9.127   3.781 -0.2341  0.0473 -0.5780
42444SOL    HW129339   8.728   9.220   3.786 -1.2597  0.2295  0.6061
42444SOL    HW229340   8.627   9.122   3.731 -1.3974  0.0110  1.2434
42445SOL     OW29341   9.636   5.632   6.078 -0.8289 -0.5601 -0.0671
42445SOL    HW129342   9.653   5.681   6.158 -1.1031 -0.8396  0.1660
42445SOL    HW229343   9.561   5.676   6.038 -0.2278  0.0450 -0.5695
42446SOL     OW29344   9.795   3.122   4.511  0.1614 -0.1797 -0.5577
42446SOL    HW129345   9.731   3.176   4.464 -1.3208 -1.0880  0.3180
42446SOL    HW229346   9.791   3.155   4.601  0.5408 -0.6073 -0.3834
42447SOL     OW29347   4.529   6.901   2.281 -0.4063 -0.2959  0.4103
42447SOL    HW129348   4.464   6.853   2.332 -0.9958  0.9891  0.9036
42447SOL    HW229349   4.613   6.869   2.313 -0.7793 -1.2724  0.4456
42448SOL     OW29350  11.084   4.873   6.959 -0.0849 -0.0563 -0.1943
42448SOL    HW129351  11.076   4.791   6.911  2.2315 -0.3394 -0.2444
42448SOL    HW229352  11.108   4.938   6.892  1.1965 -0.0408  0.2465
42449SOL     OW29353   8.381   9.548   4.577 -0.0831  0.1438 -0.1551
42449SOL    HW129354   8.389   9.533   4.671 -0.7895 -1.1721 -0.2736
42449SOL    HW229355   8.311   9.488   4.549 -0.0614  0.6950 -1.4732
42450SOL     OW29356   8.999   7.583   3.599  0.0456 -0.1221 -0.5736
42450SOL    HW129357   9.057   7.646   3.641 -0.5014  0.2166 -0.3160
42450SOL    HW229358   9.056   7.509   3.578  0.8416  0.7318 -1.5197
42451SOL     OW29359   0.895   5.555   5.372  0.5496  0.5378  0.1286
42451SOL    HW129360   0.909   5.501   5.294  0.8959  1.2106 -0.2914
42451SOL    HW229361   0.879   5.493   5.442 -0.1445 -0.0779 -0.5510
42452SOL     OW29362   1.196  10.913   4.984  0.2628 -0.2093 -0.2133
42452SOL    HW129363   1.194  11.003   4.949  0.5161 -0.3198 -0.5247
42452SOL    HW229364   1.151  10.919   5.068 -0.7262 -0.0125 -0.7421
42453SOL     OW29365   1.151   4.467   8.486  0.0286 -0.7174 -0.7027
42453SOL    HW129366   1.105   4.546   8.515  1.5555 -0.3942  0.9758
42453SOL    HW229367   1.230   4.499   8.443  0.1853 -1.3087 -0.8678
42454SOL     OW29368   4.255  11.031   4.598  0.0287 -0.4688  0.1411
42454SOL    HW129369   4.167  11.066   4.612  0.7509  1.1719  0.8522
42454SOL    HW229370   4.272  11.044   4.505  0.5098  1.8319  0.4731
42455SOL     OW29371   0.652   5.036   6.287 -0.4533  0.9192  0.4283
42455SOL    HW129372   0.688   4.976   6.222 -1.4596  1.5731 -0.7612
42455SOL    HW229373   0.693   5.120   6.267  0.5463  0.7739  1.7523
42456SOL     OW29374   8.324   8.512  11.040 -0.1740 -0.4310  0.4200
42456SOL    HW129375   8.316   8.595  11.087 -1.8781  1.1467 -2.4390
42456SOL    HW229376   8.413   8.513  11.004 -0.4155  0.4884 -0.1616
42457SOL     OW29377   6.301   6.092   7.452  0.4999 -0.6198 -0.2791
42457SOL    HW129378   6.272   6.039   7.377 -2.1838 -0.9509  0.8610
42457SOL    HW229379   6.236   6.074   7.520  0.5217  2.7298  0.7934
42458SOL     OW29380   2.933   9.922   0.786  0.1618  0.3420 -0.0161
42458SOL    HW129381   3.021   9.888   0.775 -0.3928 -1.0222 -0.4050
42458SOL    HW229382   2.895   9.919   0.698 -0.8095 -0.6581  0.4173
42459SOL     OW29383   3.155   1.091   0.726  0.6873  0.3476 -0.2691
42459SOL    HW129384   3.074   1.093   0.676  0.7069 -0.3762 -0.3371
42459SOL    HW229385   3.224   1.104   0.660  0.6693  0.1667 -0.3240
42460SOL     OW29386   4.179   2.879   4.088  0.0537  0.4747  0.1762
42460SOL    HW129387   4.262   2.838   4.064  0.5722  1.0122  1.0395
42460SOL    HW229388   4.196   2.973   4.083 -0.3452  0.5891  0.8751
42461SOL     OW29389   7.298   9.580   9.688  0.2575  0.2681  0.6250
42461SOL    HW129390   7.254   9.593   9.604 -0.8059 -1.1193  0.9309
42461SOL    HW229391   7.337   9.493   9.681 -1.3873 -0.6586  2.1818
42462SOL     OW29392  10.426   5.816  10.210  0.5149  0.2558 -0.2342
42462SOL    HW129393  10.388   5.729  10.202 -0.9130  0.6453  1.6744
42462SOL    HW229394  10.395   5.862  10.131 -0.4157 -0.3635 -0.2510
42463SOL     OW29395   1.444  10.676   7.118  0.0245 -0.5264 -0.2852
42463SOL    HW129396   1.401  10.648   7.199 -0.4601 -0.0262 -0.3674
42463SOL    HW229397   1.535  10.690   7.144  0.1561 -1.5971 -0.1130
42464SOL     OW29398   0.438   1.376   5.648  0.3793 -0.3791 -0.3485
42464SOL    HW129399   0.362   1.359   5.704  0.2385  0.6065 -0.2205
42464SOL    HW229400   0.401   1.417   5.570  0.6959 -0.7228 -0.6854
42465SOL     OW29401   4.209   5.434   2.336  1.3159  0.4988 -0.1048
42465SOL    HW129402   4.145   5.370   2.367  1.4198  0.5944  0.3150
42465SOL    HW229403   4.181   5.455   2.247  1.8570 -0.9055 -0.6384
42466SOL     OW29404   7.769  10.638   2.830 -0.4314 -0.1658 -0.4626
42466SOL    HW129405   7.741  10.577   2.762  0.0011  0.0835 -0.8711
42466SOL    HW229406   7.812  10.583   2.895 -1.4054 -0.4880 -0.0662
42467SOL     OW29407   8.149   7.154  10.342  0.0859  0.0358  0.2666
42467SOL    HW129408   8.172   7.222  10.404 -1.0657  2.3281 -1.6747
42467SOL    HW229409   8.224   7.094  10.344  1.8725  2.1488  0.9707
42468SOL     OW29410   1.722   0.199   1.519 -0.0358 -0.3924 -0.4330
42468SOL    HW129411   1.738   0.206   1.425 -1.0286  2.3025 -0.4804
42468SOL    HW229412   1.645   0.143   1.527 -1.6558  1.5725 -1.4820
42469SOL     OW29413   0.648   4.974   1.366  0.2697  0.1033  0.3345
42469SOL    HW129414   0.609   4.977   1.279  0.1612  0.3447  0.3908
42469SOL    HW229415   0.671   4.882   1.379 -1.0709 -0.2028  0.6535
42470SOL     OW29416   2.636   9.335   4.600  0.2728 -0.0829  0.0499
42470SOL    HW129417   2.603   9.254   4.559 -0.9038  0.9279 -1.0964
42470SOL    HW229418   2.636   9.399   4.529  1.2271  0.9351  0.9289
42471SOL     OW29419  10.154   7.669   0.516  0.3827  0.5215  0.4654
42471SOL    HW129420  10.218   7.725   0.470  0.6579 -1.3825 -1.6747
42471SOL    HW229421  10.183   7.580   0.496 -1.1115 -0.3986  2.1983
42472SOL     OW29422   7.711   2.443   5.779  0.0776  0.7363  0.0950
42472SOL    HW129423   7.618   2.422   5.772  0.2388 -0.5452  1.4162
42472SOL    HW229424   7.712   2.530   5.821 -0.5416 -0.1636  2.1058
42473SOL     OW29425   8.733   5.058   8.888  0.7237  0.1300  0.5298
42473SOL    HW129426   8.740   5.086   8.797 -0.0327 -1.1713  0.0331
42473SOL    HW229427   8.659   4.997   8.889  1.7424 -1.1738  1.6646
42474SOL     OW29428   7.970   6.712   3.966  0.5839  0.1298 -0.1676
42474SOL    HW129429   8.002   6.661   4.040  2.2432  1.3864  0.0440
42474SOL    HW229430   7.907   6.773   4.005  2.3701  1.6448  0.5100
42475SOL     OW29431   2.528   2.302  10.506 -0.1957 -0.2513 -0.0341
42475SOL    HW129432   2.531   2.206  10.503  0.6589 -0.2782  0.9412
42475SOL    HW229433   2.616   2.328  10.534 -0.3650  0.8305 -0.4557
42476SOL     OW29434  10.639  10.444  10.677 -0.3195 -0.2281  0.2274
42476SOL    HW129435  10.675  10.509  10.737  2.6890 -0.5693 -1.0331
42476SOL    HW229436  10.590  10.495  10.613  1.8581  0.8826 -0.6498
42477SOL     OW29437   8.684   7.665   2.455  0.6648  0.4253  0.0947
42477SOL    HW129438   8.589   7.667   2.473  0.7445 -0.1755  0.6578
42477SOL    HW229439   8.690   7.662   2.360  0.0531 -1.0463  0.0639
42478SOL     OW29440   4.474   0.257   0.220 -0.3126  0.1918  0.0372
42478SOL    HW129441   4.418   0.214   0.284 -0.0183  1.5890  1.3100
42478SOL    HW229442   4.457   0.351   0.234  0.6085  0.5534 -1.1569
42479SOL     OW29443   1.626   0.169   9.870 -0.1321  0.2472  0.0182
42479SOL    HW129444   1.588   0.140   9.787  0.5325 -0.4603 -0.0487
42479SOL    HW229445   1.592   0.108   9.935 -0.4809  0.6711  0.2406
42480SOL     OW29446   0.545   8.099   0.123  0.0370 -0.5107 -0.3951
42480SOL    HW129447   0.481   8.153   0.076 -1.3106 -2.0467 -0.4066
42480SOL    HW229448   0.579   8.040   0.057  0.9504 -0.1863 -0.2245
42481SOL     OW29449   8.097   6.006   0.124  0.5527 -0.3056  0.2239
42481SOL    HW129450   8.171   6.029   0.179  0.3909  1.6061 -0.2975
42481SOL    HW229451   8.136   5.975   0.042  0.7772 -2.5484  1.1054
42482SOL     OW29452   3.497   5.442   9.710 -0.7128  0.4538 -0.6956
42482SOL    HW129453   3.484   5.361   9.660 -1.2053  0.5521 -0.7239
42482SOL    HW229454   3.412   5.461   9.748 -0.6150  1.0032 -0.7492
42483SOL     OW29455   9.524   7.096   2.232 -0.0189 -0.2562 -0.2095
42483SOL    HW129456   9.515   7.128   2.142  0.6421 -2.1913 -1.0208
42483SOL    HW229457   9.434   7.093   2.266 -0.0931  3.1113  0.2564
42484SOL     OW29458   3.879   6.572  10.183  0.0438  0.9203  0.2125
42484SOL    HW129459   3.942   6.542  10.248 -0.4966  1.0313  0.7971
42484SOL    HW229460   3.821   6.497  10.169 -1.7417  1.8184  2.1998
42485SOL     OW29461   7.515   3.692   7.767 -0.4621 -0.5095  0.3693
42485SOL    HW129462   7.581   3.672   7.701 -1.2666  0.0444 -0.6396
42485SOL    HW229463   7.479   3.777   7.739 -1.1675 -0.5089  1.2419
42486SOL     OW29464   0.658   2.204  10.808  0.0708  0.5831  0.5032
42486SOL    HW129465   0.593   2.155  10.857  0.4269  0.7206  1.1239
42486SOL    HW229466   0.671   2.154  10.727  0.3693 -0.3051  1.0929
42487SOL     OW29467   8.605   1.753   9.980  0.2019 -0.1328 -0.2824
42487SOL    HW129468   8.610   1.658   9.978  0.9963 -0.1311  0.7465
42487SOL    HW229469   8.517   1.774   9.948 -0.2536 -1.2383  0.2151
42488SOL     OW29470   0.846  10.423   8.228  0.3471 -0.4958  0.1367
42488SOL    HW129471   0.871  10.473   8.151 -0.9339 -1.1374 -0.7388
42488SOL    HW229472   0.838  10.333   8.196  0.2501 -0.8519  1.1239
42489SOL     OW29473   8.154   5.077   5.569  0.0199 -0.2967  0.2063
42489SOL    HW129474   8.107   5.059   5.487  1.5644 -2.6112 -0.2498
42489SOL    HW229475   8.089   5.062   5.638 -1.2749  1.5932 -0.5395
42490SOL     OW29476   6.111   9.102   9.313 -0.3529  0.8031  0.3156
42490SOL    HW129477   6.163   9.066   9.241  0.5414 -1.1690  1.8456
42490SOL    HW229478   6.117   9.036   9.382 -1.2093  2.5889  2.2024
42491SOL     OW29479   2.176   9.744   2.304 -0.0467  0.6689  0.2478
42491SOL    HW129480   2.271   9.736   2.314 -0.0608  0.9595  0.6371
42491SOL    HW229481   2.140   9.670   2.352 -0.0432  0.9968  0.7616
42492SOL     OW29482   0.752   4.311   1.259  0.2848 -0.3781  0.1047
42492SOL    HW129483   0.704   4.390   1.235  0.2202 -0.1704  0.9116
42492SOL    HW229484   0.844   4.336   1.250  0.3032  0.2873  1.8685
42493SOL     OW29485   0.718   8.159   2.090  0.0644 -0.3613 -0.0274
42493SOL    HW129486   0.806   8.192   2.074 -0.2066 -0.0760 -1.0499
42493SOL    HW229487   0.661   8.233   2.069 -0.5638 -1.4355 -2.4725
42494SOL     OW29488   0.914   9.076   2.873 -0.2037  0.0716 -0.2342
42494SOL    HW129489   0.879   9.002   2.823  0.5793 -0.3358 -0.2057
42494SOL    HW229490   0.966   9.126   2.810 -0.7842  0.6355 -0.2668
42495SOL     OW29491   5.613   3.596   6.904  0.0665  0.0204 -0.3256
42495SOL    HW129492   5.672   3.668   6.924 -0.0738 -0.1032  0.6209
42495SOL    HW229493   5.529   3.623   6.942  0.3258 -1.1751  1.2132
42496SOL     OW29494  10.957   5.852   6.961 -0.1450 -0.2098 -0.0227
42496SOL    HW129495  10.968   5.769   7.007 -1.3293  0.2961  1.2194
42496SOL    HW229496  10.960   5.919   7.030  0.2190  0.7535 -0.9339
42497SOL     OW29497   0.910   7.911   1.308  0.1809  0.2422 -0.7315
42497SOL    HW129498   0.846   7.873   1.247  0.4479 -0.4315 -0.6012
42497SOL    HW229499   0.864   7.986   1.347 -1.6377 -1.8805  1.5389
42498SOL     OW29500   4.067   3.017   1.652  0.3213  0.0715  0.3343
42498SOL    HW129501   4.159   3.040   1.665  0.6676 -0.2898 -1.2640
42498SOL    HW229502   4.062   2.988   1.561 -1.1664 -0.9422  0.6933
42499SOL     OW29503  10.442   0.730   0.272  0.5360 -0.0280  0.7293
42499SOL    HW129504  10.453   0.821   0.298 -0.5296 -0.1858  1.8834
42499SOL    HW229505  10.520   0.685   0.304  2.3095  0.8391 -2.0497
42500SOL     OW29506   0.996   6.848   8.624  0.0029  0.0363  0.2034
42500SOL    HW129507   1.019   6.816   8.537 -0.4626 -2.9354  1.0795
42500SOL    HW229508   0.903   6.829   8.632 -0.0525  0.6800  1.2010
42501SOL     OW29509   3.611   1.582   7.310 -0.1380  0.1195  0.2895
42501SOL    HW129510   3.553   1.518   7.352 -1.0100  1.1849  0.7602
42501SOL    HW229511   3.696   1.566   7.350 -0.6584  0.2018  1.4929
42502SOL     OW29512   9.430   1.766  10.697  0.5619 -0.1105  0.5409
42502SOL    HW129513   9.517   1.729  10.686  0.6110 -0.3573  1.6299
42502SOL    HW229514   9.442   1.861  10.686  1.0137 -0.1230  0.9064
42503SOL     OW29515   9.199   7.548   5.677 -0.0298 -0.0389 -0.5233
42503SOL    HW129516   9.220   7.536   5.770  0.9959 -2.4038 -0.9775
42503SOL    HW229517   9.282   7.573   5.637  0.4627 -2.4786 -1.2529
42504SOL     OW29518   7.331   2.225  10.718  0.1750 -0.0972 -0.1983
42504SOL    HW129519   7.278   2.278  10.658  1.5322  0.9123 -0.5521
42504SOL    HW229520   7.267   2.174  10.768 -1.0927  0.6755 -0.9825
42505SOL     OW29521   9.438   1.058   1.468  0.4360  0.2308  0.5180
42505SOL    HW129522   9.475   1.144   1.448  0.5768  0.5840  2.0946
42505SOL    HW229523   9.494   1.024   1.538 -1.6039  0.4237  2.3962
42506SOL     OW29524  11.078   6.910   4.883  0.2866 -0.1520  0.1439
42506SOL    HW129525  11.058   6.937   4.973  0.5786 -1.0109  0.4769
42506SOL    HW229526  11.150   6.967   4.856 -1.5800  2.0359 -0.5808
42507SOL     OW29527  10.593   8.251   4.563 -0.5949 -0.2794 -0.3553
42507SOL    HW129528  10.642   8.271   4.643 -0.8167 -0.1628 -0.2468
42507SOL    HW229529  10.643   8.292   4.493 -0.4514 -0.2966 -0.2637
42508SOL     OW29530   7.061   6.690   6.066 -0.0190  0.5059 -0.6356
42508SOL    HW129531   6.980   6.729   6.033  0.0042  0.7976 -0.3561
42508SOL    HW229532   7.130   6.740   6.023  0.0278  1.6862  0.7036
42509SOL     OW29533   3.349   8.731   8.834  0.0451 -0.2031  0.0768
42509SOL    HW129534   3.413   8.737   8.763 -0.8877  2.5387 -0.6267
42509SOL    HW229535   3.388   8.781   8.905 -0.4414 -0.2198  0.3553
42510SOL     OW29536   1.371  10.948   1.973 -0.1139 -0.0224  0.0708
42510SOL    HW129537   1.382  10.969   2.065 -1.0219 -2.5680  0.8662
42510SOL    HW229538   1.321  10.866   1.973 -0.2451 -0.0508 -2.6865
42511SOL     OW29539   0.463   1.118   9.842  0.1086 -0.0144 -0.4011
42511SOL    HW129540   0.511   1.127   9.759 -0.5602 -0.2171 -0.8200
42511SOL    HW229541   0.508   1.047   9.888  2.0230  1.7336  0.5206
42512SOL     OW29542   0.361   3.680   2.642 -0.0333 -0.0021 -0.0930
42512SOL    HW129543   0.429   3.747   2.637  1.2866 -1.0388  2.1750
42512SOL    HW229544   0.279   3.729   2.639  0.8745  1.8688  2.0449
42513SOL     OW29545   6.984  10.248   1.702  0.0901 -0.8884  0.8476
42513SOL    HW129546   7.052  10.313   1.717  1.2086 -1.8522  0.1102
42513SOL    HW229547   7.018  10.168   1.743 -1.0465 -1.1478  1.3275
42514SOL     OW29548   8.043   7.327   1.467  0.1949  0.0167  0.2638
42514SOL    HW129549   7.975   7.262   1.447  1.0855 -0.3458 -1.7739
42514SOL    HW229550   8.054   7.376   1.386  1.3528  1.0480  1.0174
42515SOL     OW29551   8.250   0.783   5.471  0.2352  0.3697 -0.2987
42515SOL    HW129552   8.336   0.795   5.430  0.5646 -0.6620  0.0638
42515SOL    HW229553   8.260   0.706   5.527 -1.2013 -0.3428 -0.9758
42516SOL     OW29554   9.874   6.163   7.164  0.4293  0.4604  0.1502
42516SOL    HW129555   9.952   6.201   7.123  0.6421 -1.1950 -1.0879
42516SOL    HW229556   9.801   6.202   7.117  0.5663  0.6523  0.0921
42517SOL     OW29557   7.586   7.969   6.457 -0.1611 -0.4406 -0.5373
42517SOL    HW129558   7.636   7.924   6.525 -0.2000 -0.3984 -0.4809
42517SOL    HW229559   7.627   8.055   6.449  1.3869 -1.2849 -2.2474
42518SOL     OW29560   7.371  10.763   1.375 -0.3691  0.2506 -0.5298
42518SOL    HW129561   7.278  10.763   1.354 -0.7209  0.9849  0.8973
42518SOL    HW229562   7.374  10.770   1.471  1.1329  2.0805 -0.6443
42519SOL     OW29563   8.459   6.000   9.205  0.4801 -0.0373  0.1286
42519SOL    HW129564   8.499   6.030   9.287 -1.5482 -0.9449  1.5390
42519SOL    HW229565   8.492   5.911   9.193  1.9082  0.5812 -0.8953
42520SOL     OW29566   2.713   8.278   7.666  0.0713 -0.1382  0.0162
42520SOL    HW129567   2.796   8.240   7.639 -0.8037 -1.2316 -1.2838
42520SOL    HW229568   2.720   8.371   7.644  0.7443 -0.3322 -0.6198
42521SOL     OW29569   9.061   5.538   2.808 -0.0393 -0.1631  0.4075
42521SOL    HW129570   8.991   5.477   2.788 -0.8268  1.2416 -1.4299
42521SOL    HW229571   9.051   5.557   2.901 -3.7259  1.8305 -0.2166
42522SOL     OW29572   6.174   7.689   5.525  0.1342 -0.0946  0.0217
42522SOL    HW129573   6.207   7.755   5.464  1.1732 -0.0657  0.6057
42522SOL    HW229574   6.087   7.721   5.549  0.9051  1.4749  0.8742
42523SOL     OW29575   2.836   8.278   9.224  0.5871  0.0164 -0.3432
42523SOL    HW129576   2.873   8.205   9.274 -2.2449  0.8919  3.4441
42523SOL    HW229577   2.783   8.235   9.157 -1.3693 -1.5955  2.0584
42524SOL     OW29578   0.880   5.690   3.385  0.5561  0.3265 -0.1376
42524SOL    HW129579   0.819   5.645   3.327  0.6608 -0.3536  0.2641
42524SOL    HW229580   0.825   5.728   3.454  0.5469  0.0439  0.0123
42525SOL     OW29581   6.580  10.366   5.757 -0.3326 -0.2606  0.7886
42525SOL    HW129582   6.569  10.433   5.825 -0.5571  0.3521  0.1517
42525SOL    HW229583   6.674  10.366   5.738 -0.4960  0.7809 -0.1103
42526SOL     OW29584   4.732   7.192   0.345 -0.2818 -0.0903  0.2797
42526SOL    HW129585   4.724   7.122   0.280 -1.3762  0.2825 -0.0204
42526SOL    HW229586   4.643   7.202   0.380 -0.0620  0.8701  0.5934
42527SOL     OW29587   2.476   4.283   1.640  0.0373  0.5973  0.1270
42527SOL    HW129588   2.439   4.271   1.553  2.3552 -2.4252 -0.6367
42527SOL    HW229589   2.563   4.319   1.625  0.5606 -0.1788  1.1531
42528SOL     OW29590   1.409   1.054  10.305  0.4370 -0.4216 -0.0465
42528SOL    HW129591   1.481   1.004  10.344 -1.0550 -2.5856  0.1248
42528SOL    HW229592   1.362   1.091  10.380 -1.1030 -2.6830  0.2011
42529SOL     OW29593   9.482   5.920   2.390  0.7690  0.0395  0.6129
42529SOL    HW129594   9.451   5.832   2.370  1.8776 -0.2204 -0.1161
42529SOL    HW229595   9.562   5.929   2.337  0.9853  1.2691  1.1158
42530SOL     OW29596   9.913   8.937   6.424 -0.3279  0.0012  0.0888
42530SOL    HW129597   9.994   8.975   6.391  0.7988 -1.8038  0.6604
42530SOL    HW229598   9.912   8.960   6.517 -0.2911 -0.2856  0.1598
42531SOL     OW29599   0.770   1.081   4.119 -0.6229 -0.0668 -0.5653
42531SOL    HW129600   0.841   1.070   4.055 -1.6103 -0.0146 -1.7040
42531SOL    HW229601   0.729   0.994   4.125 -0.4554 -0.1072  0.1180
42532SOL     OW29602   7.442   0.273   3.512 -0.5540  0.9510  0.2699
42532SOL    HW129603   7.424   0.228   3.429 -0.4185 -0.1246  0.8040
42532SOL    HW229604   7.369   0.335   3.522 -1.0717  0.4329 -0.1908
42533SOL     OW29605   6.229   8.835  10.986  0.5094 -0.4749 -0.1335
42533SOL    HW129606   6.254   8.774  10.917  0.0049 -0.5038 -0.3012
42533SOL    HW229607   6.310   8.855  11.032  0.8097 -0.6587 -0.5745
42534SOL     OW29608  10.517   9.425   3.673 -0.4415 -0.0707  0.2112
42534SOL    HW129609  10.451   9.478   3.629  1.1355  1.2372 -0.7277
42534SOL    HW229610  10.584   9.489   3.700  0.8169 -1.4231  0.3832
42535SOL     OW29611   8.335   5.633   9.162  0.4810 -0.0240 -0.8122
42535SOL    HW129612   8.369   5.692   9.230 -0.4499  1.2574 -1.4087
42535SOL    HW229613   8.335   5.686   9.082  0.1446 -1.0275 -1.4896
42536SOL     OW29614   1.819   8.716   1.336 -0.0228 -0.3703 -0.0147
42536SOL    HW129615   1.873   8.692   1.412  1.8095  0.9819 -0.8038
42536SOL    HW229616   1.872   8.691   1.260  0.4805  2.7576 -0.8340
42537SOL     OW29617   9.055   0.571   5.806  0.3637  0.4010  0.1240
42537SOL    HW129618   9.004   0.509   5.859 -0.2592 -0.4330 -1.4031
42537SOL    HW229619   9.127   0.519   5.770  0.0842  0.6453 -0.8204
42538SOL     OW29620   9.500   5.103   9.706  0.1178  0.2915 -0.0742
42538SOL    HW129621   9.501   5.016   9.666  0.2555  1.3621 -2.5894
42538SOL    HW229622   9.432   5.150   9.657  0.6482  1.8483  0.6505
42539SOL     OW29623   8.274   9.620   8.223 -0.2130 -0.2524  0.4782
42539SOL    HW129624   8.321   9.537   8.219 -0.9090 -0.6171 -1.3405
42539SOL    HW229625   8.181   9.596   8.218 -0.4909  0.5753  1.3398
42540SOL     OW29626  10.955   3.608   5.798  0.8984 -0.5350  0.5366
42540SOL    HW129627  11.037   3.602   5.749  0.5957 -1.4174  0.1287
42540SOL    HW229628  10.952   3.700   5.827  0.6070  0.3169 -1.9403
42541SOL     OW29629  10.432   2.862   0.174  0.3811  0.0979 -0.3989
42541SOL    HW129630  10.382   2.814   0.240  0.1563  1.2983  0.3250
42541SOL    HW229631  10.515   2.814   0.168  0.6795  0.3544  1.2537
42542SOL     OW29632   9.476   2.502   1.371 -0.2875 -0.2855 -0.6419
42542SOL    HW129633   9.562   2.530   1.339 -0.4489  1.1359  0.1085
42542SOL    HW229634   9.495   2.432   1.434  0.3639  0.3614 -0.1050
42543SOL     OW29635   3.031   3.717   3.613  0.1914  0.1608  0.4629
42543SOL    HW129636   2.985   3.795   3.644 -0.2367 -0.2357  0.8527
42543SOL    HW229637   3.017   3.717   3.518  0.3985  0.6859  0.4314
42544SOL     OW29638   1.244   2.748  10.281 -0.2387 -0.4308  0.0526
42544SOL    HW129639   1.335   2.778  10.286 -0.0316 -0.4759 -2.3114
42544SOL    HW229640   1.206   2.772  10.365  1.5525  0.9837  0.5148
42545SOL     OW29641   8.628   9.283   4.896 -0.3523 -0.5632 -0.7454
42545SOL    HW129642   8.718   9.253   4.880  0.8024  1.4503  1.3042
42545SOL    HW229643   8.591   9.219   4.957 -0.4255 -1.5428 -1.8001
42546SOL     OW29644   0.570  10.179   4.845 -0.3432 -0.3762  0.1435
42546SOL    HW129645   0.540  10.098   4.803  0.4295  0.2000 -1.6305
42546SOL    HW229646   0.507  10.245   4.816 -0.3295 -0.1341  0.6636
42547SOL     OW29647   4.157   9.844   1.982 -0.3366  0.1610 -0.4448
42547SOL    HW129648   4.067   9.834   1.953 -0.0497 -1.5762 -0.9083
42547SOL    HW229649   4.182   9.756   2.012  1.6981  0.1461 -1.9040
42548SOL     OW29650   0.753   5.685   2.154 -0.3834  0.3431  0.1390
42548SOL    HW129651   0.827   5.649   2.106  0.0575 -0.8316  1.6117
42548SOL    HW229652   0.785   5.766   2.192 -0.0513  0.1470  0.2753
42549SOL     OW29653   9.548   9.837   2.207  0.0081  0.0020 -0.1012
42549SOL    HW129654   9.580   9.759   2.253  0.9639 -0.6141 -1.6892
42549SOL    HW229655   9.526   9.804   2.119 -1.9636  1.0659 -0.0550
42550SOL     OW29656   1.282   4.215   3.461 -0.3606 -0.2725 -0.2746
42550SOL    HW129657   1.195   4.241   3.432 -1.4541 -1.9351  1.2839
42550SOL    HW229658   1.300   4.134   3.412 -0.2582 -0.6196  0.3290
42551SOL     OW29659   9.543  10.229  10.097  0.4050  0.2682 -0.1230
42551SOL    HW129660   9.470  10.284  10.072 -0.7952 -0.9427  0.5989
42551SOL    HW229661   9.605  10.235  10.024 -1.3733 -0.3752 -1.7556
42552SOL     OW29662   9.935   5.943   8.286 -0.3033  0.1353  0.4652
42552SOL    HW129663   9.909   6.035   8.293 -0.7304  0.3990 -2.7185
42552SOL    HW229664   9.907   5.903   8.368 -0.9012  2.6579  1.5766
42553SOL     OW29665   0.678   7.944   3.907  0.6278 -0.2347 -0.4365
42553SOL    HW129666   0.758   7.975   3.949  0.3517  0.7764 -0.6463
42553SOL    HW229667   0.701   7.857   3.874  1.1515 -0.6209  0.8983
42554SOL     OW29668   2.281   4.640  10.253  0.5196  0.2562 -0.2106
42554SOL    HW129669   2.347   4.629  10.322  0.8995 -0.9959 -0.7515
42554SOL    HW229670   2.330   4.673  10.178  0.4184 -0.0852 -0.4259
42555SOL     OW29671   7.179   0.640   6.361  0.1886  0.1672  0.2602
42555SOL    HW129672   7.177   0.736   6.362 -1.7608  0.1984 -1.0464
42555SOL    HW229673   7.175   0.617   6.268 -0.5263 -1.1712  0.5932
42556SOL     OW29674   0.822   8.547   9.766 -0.2202  0.2321 -0.6144
42556SOL    HW129675   0.894   8.610   9.757 -1.1844  1.3663 -0.5107
42556SOL    HW229676   0.852   8.487   9.835  0.1448  1.3764  0.2559
42557SOL     OW29677   4.306   0.982   3.665 -0.6496  0.3806 -0.0877
42557SOL    HW129678   4.370   0.944   3.604  2.3112  2.1821  1.6008
42557SOL    HW229679   4.301   1.074   3.639 -2.0541  0.4355  0.2939
42558SOL     OW29680   6.683  10.440  11.059 -0.0952  0.4045  0.7582
42558SOL    HW129681   6.612  10.490  11.020  0.3255 -0.1055 -0.7353
42558SOL    HW229682   6.643  10.396  11.134 -1.1368  0.8257  0.4675
42559SOL     OW29683  10.916   5.051   4.003  0.1576 -0.3489 -0.4585
42559SOL    HW129684  10.899   5.098   3.921 -0.8215  1.1027  0.5227
42559SOL    HW229685  10.936   4.962   3.977 -1.5266 -0.2712 -2.1969
42560SOL     OW29686   0.312   8.601   6.215 -0.3064  0.3202  0.2251
42560SOL    HW129687   0.373   8.649   6.159  1.5746  0.1497  1.9901
42560SOL    HW229688   0.368   8.543   6.268 -2.3049 -2.3923 -0.4005
42561SOL     OW29689   3.986   0.536   5.496  0.5630 -0.2765 -0.0449
42561SOL    HW129690   4.015   0.448   5.474  2.3022 -0.3165  2.0940
42561SOL    HW229691   3.999   0.544   5.590 -2.0811  1.4091  0.2877
42562SOL     OW29692   1.482   7.406   4.642  0.1058 -0.1982  0.7356
42562SOL    HW129693   1.524   7.323   4.619 -3.1633 -1.9665  0.5802
42562SOL    HW229694   1.549   7.472   4.625  2.9230 -2.7704  1.0434
42563SOL     OW29695   7.391   1.379   1.667  0.1223 -0.1228 -0.2455
42563SOL    HW129696   7.445   1.302   1.651 -0.2733 -0.7473  1.2574
42563SOL    HW229697   7.438   1.451   1.625  1.3085 -0.9093 -0.2982
42564SOL     OW29698   1.048   4.103   2.012 -0.3728  0.9697  0.2789
42564SOL    HW129699   1.140   4.090   2.033 -0.8231 -1.4415  1.0284
42564SOL    HW229700   1.019   4.020   1.975 -1.9521  2.1137 -1.2082
42565SOL     OW29701   3.691  10.497   6.652 -0.1851 -0.0089 -0.1538
42565SOL    HW129702   3.702  10.407   6.683 -1.5094 -0.1807 -0.1038
42565SOL    HW229703   3.694  10.489   6.556  1.5599  0.1860 -0.1468
42566SOL     OW29704   7.973   0.029   7.292 -0.1069 -0.5500  0.0824
42566SOL    HW129705   7.929   0.114   7.294  1.4154  0.2994 -0.8763
42566SOL    HW229706   7.909  -0.031   7.330 -1.3537  0.9484  0.4794
42567SOL     OW29707   1.577   0.823   9.268 -0.2751  0.6958  1.0892
42567SOL    HW129708   1.666   0.802   9.296  0.5297 -0.5931 -1.9911
42567SOL    HW229709   1.521   0.778   9.331  1.3420 -1.7699  0.9168
42568SOL     OW29710   6.168   2.291   9.964 -0.1959 -0.1290 -0.1718
42568SOL    HW129711   6.098   2.232   9.991 -1.4404  0.4268 -1.9956
42568SOL    HW229712   6.130   2.379   9.971  1.1681  0.4199  1.1434
42569SOL     OW29713   0.323   3.684   0.347 -0.3755  0.5311  0.5346
42569SOL    HW129714   0.244   3.735   0.362  0.4814  2.1909 -0.2905
42569SOL    HW229715   0.389   3.722   0.405  0.9150  2.0389 -1.7476
42570SOL     OW29716   3.221   5.433  10.720 -0.2792  0.1813  0.0085
42570SOL    HW129717   3.196   5.475  10.803  0.7158  1.5691 -0.3554
42570SOL    HW229718   3.150   5.372  10.702 -0.6604  0.0398  1.7457
42571SOL     OW29719   7.686   8.207   3.114  0.5885  0.5252  0.6653
42571SOL    HW129720   7.659   8.292   3.078  0.6575  0.8745  1.3947
42571SOL    HW229721   7.733   8.230   3.195  2.5280 -0.0914 -0.2285
42572SOL     OW29722   6.724   9.450   6.171 -0.0985  0.6680  0.0081
42572SOL    HW129723   6.651   9.391   6.155 -1.5060  2.0045  1.2196
42572SOL    HW229724   6.690   9.537   6.152  1.5196  1.2525 -0.4435
42573SOL     OW29725   9.212   1.466   3.345  0.8349 -0.4758 -0.4853
42573SOL    HW129726   9.231   1.446   3.253 -0.0147  1.3314 -1.1074
42573SOL    HW229727   9.117   1.455   3.352  0.9095 -0.7321  0.2356
42574SOL     OW29728   3.200   6.119  11.010 -0.2090  0.0198  0.3322
42574SOL    HW129729   3.257   6.177  10.959 -0.6086  1.7527  1.7600
42574SOL    HW229730   3.256   6.044  11.031  0.3863 -0.0762 -1.3856
42575SOL     OW29731  10.889   6.979   3.954  0.1154 -0.1726 -0.0234
42575SOL    HW129732  10.836   7.000   4.031 -2.2908 -1.8933 -1.0669
42575SOL    HW229733  10.973   6.950   3.989 -1.1250 -1.5155  2.0405
42576SOL     OW29734   1.825   3.138   7.173  0.3547 -0.2588 -0.5369
42576SOL    HW129735   1.908   3.184   7.187  0.6186 -0.0850 -2.4644
42576SOL    HW229736   1.759   3.200   7.203  0.8968 -0.9065  2.3116
42577SOL     OW29737   0.119  10.854   6.531  0.0365  0.2642 -0.1549
42577SOL    HW129738   0.119  10.808   6.447  1.0937 -1.2548  0.6383
42577SOL    HW229739   0.037  10.829   6.573  0.2042 -0.1915 -0.0983
42578SOL     OW29740   3.846   6.179   4.432  0.2811  0.8807 -0.1773
42578SOL    HW129741   3.935   6.148   4.418 -0.0113 -0.5883  0.9593
42578SOL    HW229742   3.791   6.114   4.388 -0.4461 -1.6160  3.8590
42579SOL     OW29743   9.461  10.351   6.416 -0.0101  0.2873 -0.5677
42579SOL    HW129744   9.484  10.421   6.478  0.3953 -1.0363  0.8345
42579SOL    HW229745   9.366  10.357   6.408  0.1519  2.0656 -1.8328
42580SOL     OW29746   7.258   9.189   7.134 -0.6813 -0.5312 -0.5269
42580SOL    HW129747   7.297   9.134   7.065  1.8782  0.2701  0.1587
42580SOL    HW229748   7.172   9.151   7.149 -0.9028 -1.4147 -3.3828
42581SOL     OW29749   2.337   7.159   3.632 -0.2900 -0.0318 -0.1141
42581SOL    HW129750   2.319   7.149   3.725 -0.6933 -1.2796 -0.3149
42581SOL    HW229751   2.265   7.214   3.599 -0.0055  0.6280  0.3442
42582SOL     OW29752  10.502  10.884   7.194 -0.0301  0.1368 -0.1237
42582SOL    HW129753  10.474  10.824   7.125 -0.4131  0.8567 -0.6100
42582SOL    HW229754  10.455  10.965   7.175  0.1060  0.4398  0.8044
42583SOL     OW29755   2.374   5.764   0.613  0.1851  0.0199  0.0400
42583SOL    HW129756   2.432   5.729   0.545 -0.8571  0.4550 -1.0954
42583SOL    HW229757   2.396   5.857   0.617 -0.4332  0.1859 -0.3968
42584SOL     OW29758   6.945   8.091   4.167 -0.3677 -0.1482  0.4363
42584SOL    HW129759   6.977   8.034   4.097 -0.0922  1.0220 -0.4161
42584SOL    HW229760   7.003   8.167   4.165 -1.6382  0.8589  0.5311
42585SOL     OW29761   9.711   4.019   6.740  0.5533  0.2873 -0.1775
42585SOL    HW129762   9.692   4.010   6.646 -1.0280  1.7648 -0.0429
42585SOL    HW229763   9.784   3.959   6.755 -0.2717 -1.2943 -1.9938
42586SOL     OW29764   3.175   6.954   8.812 -0.3852  0.5309  0.5562
42586SOL    HW129765   3.165   6.885   8.747  0.5295  1.2430 -0.3655
42586SOL    HW229766   3.178   7.035   8.762  0.7026  1.0646  1.4372
42587SOL     OW29767   5.892   4.017   4.247  0.1620 -0.2160  0.4433
42587SOL    HW129768   5.820   4.076   4.225 -0.6038 -1.3707 -0.3116
42587SOL    HW229769   5.850   3.944   4.292  1.2169  0.2436  2.2536
42588SOL     OW29770  10.694   4.424   0.387  0.6308  0.1603  0.1055
42588SOL    HW129771  10.766   4.401   0.446  1.0114 -1.4412 -0.9039
42588SOL    HW229772  10.616   4.393   0.433  0.7290  0.5731  0.5607
42589SOL     OW29773   8.562   6.871   6.185  0.7453 -0.0593 -0.3522
42589SOL    HW129774   8.530   6.843   6.099 -0.0699 -0.7811  0.1747
42589SOL    HW229775   8.484   6.872   6.240  0.9763  1.8885  0.0257
42590SOL     OW29776   3.840   8.038   6.871  0.4129  0.0055  0.0356
42590SOL    HW129777   3.929   8.065   6.846 -0.0794  1.3918 -0.2908
42590SOL    HW229778   3.800   8.012   6.788  0.2448  0.2206  0.0482
42591SOL     OW29779   7.111   2.684   4.246 -0.0428  0.8297  1.4338
42591SOL    HW129780   7.068   2.760   4.207  0.6187  0.8978  0.8161
42591SOL    HW229781   7.058   2.664   4.323 -0.9317  1.1628  0.9254
42592SOL     OW29782   2.645   0.338  10.837  0.2428  0.0981  0.4033
42592SOL    HW129783   2.693   0.377  10.764 -2.1520  0.7632 -0.9436
42592SOL    HW229784   2.664   0.245  10.831  0.5217  0.2179 -0.7190
42593SOL     OW29785   0.984  10.484   4.911 -0.0679  0.1842  0.5143
42593SOL    HW129786   1.018  10.451   4.828  0.5630  0.0552  0.8168
42593SOL    HW229787   0.967  10.577   4.894 -0.2703  0.0830  0.1436
42594SOL     OW29788   2.812   0.104   9.710 -0.3341 -0.0810 -0.3693
42594SOL    HW129789   2.729   0.115   9.757 -0.7378 -0.9886 -0.8505
42594SOL    HW229790   2.828   0.010   9.709  0.9386  0.1057  0.0816
42595SOL     OW29791   6.715   1.839   4.340 -0.4421  0.3782  0.2698
42595SOL    HW129792   6.649   1.805   4.280 -0.4624 -0.1673  0.5997
42595SOL    HW229793   6.753   1.914   4.293  1.7066 -1.8325 -1.7921
42596SOL     OW29794  10.456   5.361   8.908 -0.1989  0.1152  0.3066
42596SOL    HW129795  10.394   5.320   8.848  0.8951 -0.8446 -0.2069
42596SOL    HW229796  10.517   5.409   8.851  1.6457 -1.8727  0.4559
42597SOL     OW29797   0.256   4.741   7.088  0.3087 -0.4321 -0.0114
42597SOL    HW129798   0.192   4.683   7.129  2.2459 -3.3931 -0.8325
42597SOL    HW229799   0.248   4.723   6.995 -0.3501  2.1857 -0.5233
42598SOL     OW29800   2.254   8.961   9.304  0.1185  0.0947 -0.0874
42598SOL    HW129801   2.170   8.996   9.335  0.9163  1.9832  0.0548
42598SOL    HW229802   2.285   8.907   9.377 -1.5621 -1.8292 -0.6719
42599SOL     OW29803   9.569   0.684   5.446 -0.1895  0.4075  0.2380
42599SOL    HW129804   9.659   0.691   5.414 -0.0410 -2.0695 -0.0299
42599SOL    HW229805   9.522   0.635   5.378 -0.9322 -1.1219  1.7872
42600SOL     OW29806   2.016   4.420   9.744  0.2904  0.2085 -0.1078
42600SOL    HW129807   1.996   4.487   9.678 -1.6707 -0.3510 -0.1473
42600SOL    HW229808   2.103   4.389   9.720  0.5383  1.5669 -1.1003
42601SOL     OW29809   7.702   9.369   5.725  0.2019  0.7005 -0.4311
42601SOL    HW129810   7.733   9.344   5.812  1.0993 -0.4958 -1.0628
42601SOL    HW229811   7.716   9.291   5.671 -2.3968  0.6551 -1.1650
42602SOL     OW29812   7.646   8.709   2.063 -0.0374 -0.0540 -0.1824
42602SOL    HW129813   7.590   8.631   2.066 -0.0697 -0.0124  0.3588
42602SOL    HW229814   7.657   8.734   2.154 -0.4134  0.8606 -0.3852
42603SOL     OW29815  10.505   6.823   7.274 -0.3397  0.1671  0.4532
42603SOL    HW129816  10.556   6.884   7.327  0.5949  0.6570 -0.9589
42603SOL    HW229817  10.565   6.794   7.206 -1.2655 -1.0874  0.1334
42604SOL     OW29818  10.413  10.400  11.048 -0.5080  0.6453 -0.2649
42604SOL    HW129819  10.499  10.411  11.090 -0.2628  0.0717 -0.6073
42604SOL    HW229820  10.422  10.446  10.965  0.3001 -1.4176 -1.4025
42605SOL     OW29821   6.956   0.917   5.351 -0.5169 -0.5394 -0.2999
42605SOL    HW129822   6.875   0.961   5.374  0.0335  0.0996  0.4905
42605SOL    HW229823   6.986   0.878   5.434  0.6129  0.3035 -0.2895
42606SOL     OW29824  10.886   7.450   4.616  0.0921 -0.0572  0.2565
42606SOL    HW129825  10.819   7.384   4.599 -1.4995  1.4872  0.1939
42606SOL    HW229826  10.872   7.516   4.548  1.1791  0.6960  0.7287
42607SOL     OW29827   9.675   7.999   9.740  0.2389  0.2162  0.1692
42607SOL    HW129828   9.590   7.955   9.733  1.3005 -1.8054 -0.9448
42607SOL    HW229829   9.721   7.952   9.809  0.4666  1.3586  0.8272
42608SOL     OW29830   0.021   5.201   9.161  0.1382 -0.3176  0.2304
42608SOL    HW129831   0.065   5.157   9.233  0.3649  0.3972  0.5414
42608SOL    HW229832   0.065   5.169   9.083  1.4973  0.6595  0.5573
42609SOL     OW29833   0.783   0.619   6.902  0.0986  0.0339 -0.0595
42609SOL    HW129834   0.728   0.554   6.945 -0.2268  0.5599  0.3431
42609SOL    HW229835   0.725   0.695   6.889  0.4449  0.2146 -0.5890
42610SOL     OW29836   8.683   6.144   7.517 -0.2828  0.1094  0.1023
42610SOL    HW129837   8.723   6.125   7.602  0.3272 -0.4450 -0.2946
42610SOL    HW229838   8.753   6.127   7.454 -0.9199 -0.0977 -0.5573
42611SOL     OW29839   9.586   4.944   2.185 -0.0790  0.5696  0.1205
42611SOL    HW129840   9.676   4.971   2.206  1.5780 -2.6264 -2.0461
42611SOL    HW229841   9.588   4.922   2.092 -2.9652 -0.1927  0.1387
42612SOL     OW29842   0.152   0.611   9.367  0.3368  0.1434  0.2658
42612SOL    HW129843   0.150   0.570   9.281  0.0967  2.1127 -0.7056
42612SOL    HW229844   0.161   0.537   9.428  0.3367 -1.3010 -1.4041
42613SOL     OW29845   1.024  10.030   3.891  0.3678 -0.6951  0.4707
42613SOL    HW129846   0.943  10.081   3.881  1.0058  0.4166  0.7352
42613SOL    HW229847   1.018   9.995   3.980 -0.8765 -2.5816 -0.3021
42614SOL     OW29848   0.862   7.659   1.419  0.9927 -0.0517 -0.4768
42614SOL    HW129849   0.883   7.584   1.364  0.6862  0.0057 -0.6740
42614SOL    HW229850   0.894   7.735   1.369  1.2596 -0.0435 -0.2994
42615SOL     OW29851  10.154   2.485   5.297 -0.1877  0.2620 -0.1367
42615SOL    HW129852  10.216   2.433   5.246 -0.1205 -0.8376  1.0094
42615SOL    HW229853  10.185   2.575   5.289  0.9562 -0.1416 -0.4299
42616SOL     OW29854   3.368   3.325   5.055  0.7526 -0.2514  0.0406
42616SOL    HW129855   3.347   3.381   4.980  0.8099 -0.1798  0.0775
42616SOL    HW229856   3.451   3.359   5.088  0.2741  0.2972  0.6975
42617SOL     OW29857   5.778   0.731  10.482  0.5610  0.2306  0.2191
42617SOL    HW129858   5.840   0.706  10.551 -1.2065  3.1619  3.1248
42617SOL    HW229859   5.770   0.826  10.489 -2.1926  0.2957 -1.9040
42618SOL     OW29860  10.497   4.551   4.498 -0.0864  0.2700  0.0048
42618SOL    HW129861  10.573   4.567   4.443 -0.3626  0.3917 -0.3431
42618SOL    HW229862  10.508   4.460   4.527 -0.8235 -0.4020 -1.6745
42619SOL     OW29863   8.600   6.882   2.032  0.6770  0.1172  0.0160
42619SOL    HW129864   8.553   6.803   2.006  0.9800 -0.1577  0.3077
42619SOL    HW229865   8.639   6.914   1.951 -0.6198  0.7673 -0.3879
42620SOL     OW29866   7.618   1.835   4.231  0.8342  0.0692  0.5324
42620SOL    HW129867   7.589   1.754   4.274  0.8948 -0.0519  0.3506
42620SOL    HW229868   7.623   1.811   4.138  0.1077  0.4919  0.3779
42621SOL     OW29869   1.937   0.253   9.884 -0.4291  0.1033 -0.2694
42621SOL    HW129870   1.845   0.254   9.858 -0.3407  1.8221 -0.6390
42621SOL    HW229871   1.935   0.253   9.980 -0.7672 -1.9954 -0.2274
42622SOL     OW29872   1.961   6.541   4.909  0.1380 -0.0003  0.6484
42622SOL    HW129873   2.051   6.572   4.895 -0.2551  1.3331  0.9114
42622SOL    HW229874   1.913   6.620   4.935 -1.3856 -0.4404 -0.6841
42623SOL     OW29875   7.663   0.830   4.890 -0.0529  0.2985 -0.5088
42623SOL    HW129876   7.625   0.875   4.966  1.1734 -0.3342  0.5127
42623SOL    HW229877   7.756   0.825   4.909 -0.1432 -2.8683 -0.4358
42624SOL     OW29878   7.298  10.434   4.392  0.2506 -0.5820 -0.0660
42624SOL    HW129879   7.243  10.489   4.336 -0.1645 -2.5713 -1.7871
42624SOL    HW229880   7.290  10.346   4.353  2.2360 -1.5272  1.4748
42625SOL     OW29881   9.020  10.661   8.384 -0.1946 -0.4568  0.3613
42625SOL    HW129882   9.079  10.708   8.325  1.4549 -2.7081  0.0727
42625SOL    HW229883   8.997  10.725   8.451 -0.6738  1.6404 -1.6923
42626SOL     OW29884   1.286   7.951   5.166  0.2310  0.5200  0.4974
42626SOL    HW129885   1.244   7.871   5.199 -0.4778  1.2064  1.3371
42626SOL    HW229886   1.221   8.020   5.182  0.5383  1.1666 -0.8523
42627SOL     OW29887   7.413   3.025   2.994 -0.0287  0.2384  0.1951
42627SOL    HW129888   7.403   2.967   2.919 -2.5906 -0.1621  0.7727
42627SOL    HW229889   7.335   3.011   3.047  0.0935  2.9614  1.2686
42628SOL     OW29890  10.706   3.827   0.362  0.2797  0.0499  0.1198
42628SOL    HW129891  10.775   3.768   0.393  1.1218  0.3688 -1.0505
42628SOL    HW229892  10.624   3.782   0.383  0.8984 -1.4332 -0.5146
42629SOL     OW29893   7.321   6.416   5.915 -0.1076 -0.0095  0.0911
42629SOL    HW129894   7.226   6.421   5.898 -0.2277  0.9619  0.9476
42629SOL    HW229895   7.335   6.477   5.987  1.1454 -0.3385  0.1372
42630SOL     OW29896   5.853   5.010   7.807 -0.0435  0.2803  0.0797
42630SOL    HW129897   5.870   4.979   7.718 -0.3202  1.2255 -0.3173
42630SOL    HW229898   5.859   4.932   7.862  0.3958 -0.2678 -0.7328
42631SOL     OW29899   1.017   7.488   2.563  0.4440 -0.0390 -0.5682
42631SOL    HW129900   0.968   7.486   2.646  0.4609  0.7401 -0.5287
42631SOL    HW229901   1.102   7.524   2.586  0.7570 -0.6481 -0.7766
42632SOL     OW29902   3.588   6.898   2.347 -0.1181 -0.6348  0.3318
42632SOL    HW129903   3.650   6.892   2.420  0.4196  1.8012  0.1727
42632SOL    HW229904   3.626   6.842   2.279  1.1773 -0.3317  0.7653
42633SOL     OW29905   9.655   8.024  10.447  0.1225 -0.1627  0.3961
42633SOL    HW129906   9.721   8.078  10.489  0.1053  1.8525 -1.9413
42633SOL    HW229907   9.695   7.998  10.363 -1.1787 -0.8880 -0.0353
42634SOL     OW29908   9.920   8.032   7.222  0.1490  0.1791  0.6087
42634SOL    HW129909  10.006   8.011   7.187 -0.6178 -1.3746 -0.4745
42634SOL    HW229910   9.923   8.126   7.237  1.6368  0.3664 -0.5489
42635SOL     OW29911  10.959   8.047   6.708 -0.2786  0.1622  0.4906
42635SOL    HW129912  10.900   7.972   6.716 -0.6900  0.2307 -1.4449
42635SOL    HW229913  10.901   8.123   6.707  0.0507  0.4340  1.1728
42636SOL     OW29914   7.763   9.915   3.319  0.2694  0.1502  0.1865
42636SOL    HW129915   7.674   9.892   3.292  0.7301 -1.9524  0.2742
42636SOL    HW229916   7.761   9.906   3.415  0.8815 -1.2935  0.0942
42637SOL     OW29917   9.798   7.379   9.627  0.1555  0.3392 -0.3504
42637SOL    HW129918   9.742   7.442   9.582  1.4071  1.1324 -0.8437
42637SOL    HW229919   9.739   7.306   9.648 -1.1529  1.3161 -0.4547
42638SOL     OW29920   2.088  10.157  10.736 -0.3800 -0.6273 -0.6590
42638SOL    HW129921   2.002  10.199  10.742  0.3377  0.9939 -1.2617
42638SOL    HW229922   2.103  10.123  10.825 -0.7022  1.0316  0.0715
42639SOL     OW29923   3.089   9.239   2.020  0.0482 -0.1521  0.0327
42639SOL    HW129924   3.066   9.262   2.110 -0.3500  1.0010 -0.3447
42639SOL    HW229925   3.168   9.290   2.001 -0.8140  0.9404 -0.7973
42640SOL     OW29926   2.960   4.635   3.669 -0.0447  0.1850 -0.5568
42640SOL    HW129927   2.990   4.544   3.663 -1.2222 -0.1442 -1.9386
42640SOL    HW229928   3.041   4.686   3.675  0.6151 -1.0089  2.0951
42641SOL     OW29929   7.722   1.406   4.582 -0.3819  0.0791  0.0526
42641SOL    HW129930   7.797   1.463   4.594  0.5308 -0.7910 -1.2567
42641SOL    HW229931   7.656   1.462   4.541 -0.5563  0.8922  1.3752
42642SOL     OW29932   9.523  10.229   2.413  0.3201  0.2495 -0.0582
42642SOL    HW129933   9.557  10.236   2.324  2.1699  1.8461  0.6995
42642SOL    HW229934   9.428  10.228   2.402  0.4621  1.8414 -1.9825
42643SOL     OW29935   9.154   3.056   3.997 -0.1116 -0.7302  0.2841
42643SOL    HW129936   9.105   3.122   3.946  0.5113 -2.4155 -2.7313
42643SOL    HW229937   9.207   3.108   4.057 -1.1120  1.4246 -0.5674
42644SOL     OW29938   9.488   8.135   6.997  0.4988  0.3076 -0.1922
42644SOL    HW129939   9.552   8.100   7.060 -0.9165 -1.1760  0.5011
42644SOL    HW229940   9.472   8.062   6.937  0.1593  0.9765 -0.9202
42645SOL     OW29941   8.784  10.999   6.340 -0.0854 -0.4354  0.3949
42645SOL    HW129942   8.691  11.024   6.338  0.4448  1.6622 -0.3308
42645SOL    HW229943   8.831  11.081   6.328  1.8734 -1.6045 -0.3052
42646SOL     OW29944   0.177   6.944   7.992  0.0894 -0.4993 -0.2397
42646SOL    HW129945   0.221   6.927   7.909 -0.4447  0.4116 -0.7372
42646SOL    HW229946   0.241   6.991   8.044 -0.3637  1.2315 -1.1303
42647SOL     OW29947   5.769   7.599   4.103 -0.7099  0.3087  0.0224
42647SOL    HW129948   5.704   7.653   4.057 -0.7971 -0.2259 -0.4888
42647SOL    HW229949   5.853   7.642   4.085 -0.4441 -1.1277 -2.5653
42648SOL     OW29950   2.265   7.810   2.624  0.0911  0.0904  0.2919
42648SOL    HW129951   2.283   7.753   2.699 -1.5029  0.5644  1.0635
42648SOL    HW229952   2.175   7.838   2.636  0.4187  1.7205 -0.7890
42649SOL     OW29953   1.119   7.749   0.802  0.5444 -0.0535 -0.3852
42649SOL    HW129954   1.104   7.665   0.844 -0.3683 -0.6769 -1.8796
42649SOL    HW229955   1.079   7.813   0.861 -2.4124 -1.0767 -1.1100
42650SOL     OW29956   0.196  10.510   4.576  0.6313 -0.3034 -0.1785
42650SOL    HW129957   0.198  10.477   4.486 -2.2233 -1.4388  0.0571
42650SOL    HW229958   0.207  10.604   4.567  0.9877 -0.4566 -1.6544
42651SOL     OW29959   1.968   1.090   6.953  0.2553  0.1525  0.2071
42651SOL    HW129960   2.004   1.140   7.026 -1.5400  2.4322 -0.3418
42651SOL    HW229961   1.902   1.034   6.993 -1.0611  1.7402  0.3539
42652SOL     OW29962   6.998   5.360   1.470 -0.1552 -0.0601 -0.2773
42652SOL    HW129963   7.072   5.357   1.531 -1.7469 -2.4149  1.7450
42652SOL    HW229964   6.951   5.440   1.493  1.4001  1.1961 -1.2408
42653SOL     OW29965   2.613   9.211   7.213 -0.0449 -0.5348  0.0318
42653SOL    HW129966   2.567   9.286   7.174  1.2127  0.3562  0.1956
42653SOL    HW229967   2.568   9.135   7.177 -0.8486  0.2905 -0.7920
42654SOL     OW29968  10.076  10.872   2.021 -0.1417 -0.4523  1.1952
42654SOL    HW129969  10.025  10.952   2.033  0.7454 -0.0062  2.1421
42654SOL    HW229970  10.113  10.881   1.933  1.4612  1.1076  1.9644
42655SOL     OW29971   9.887   8.134   6.265  0.1504  0.0008  0.0412
42655SOL    HW129972   9.794   8.159   6.269  0.3000  0.9824 -1.5585
42655SOL    HW229973   9.915   8.132   6.356 -1.3915 -0.1118  0.5535
42656SOL     OW29974   2.462   8.641   2.008 -0.4789  0.0516  0.0427
42656SOL    HW129975   2.404   8.572   2.038  0.6595 -0.1196  1.9838
42656SOL    HW229976   2.530   8.648   2.075  0.5065  1.7698 -1.0253
42657SOL     OW29977  10.902   7.756   8.934 -0.4958 -0.2765 -1.1117
42657SOL    HW129978  10.963   7.743   9.007 -0.9643  2.3710 -0.1135
42657SOL    HW229979  10.958   7.785   8.862 -0.3633  0.6547 -0.6572
42658SOL     OW29980   3.994   6.225   5.468  0.3336  0.0927 -0.2179
42658SOL    HW129981   3.966   6.161   5.402 -0.2671  1.4625 -1.3335
42658SOL    HW229982   4.044   6.290   5.418  0.9267  0.5160  0.8992
42659SOL     OW29983   4.796   5.384   4.797 -0.1895  0.6216  0.0424
42659SOL    HW129984   4.766   5.295   4.782  0.5929  0.2335  0.7122
42659SOL    HW229985   4.888   5.375   4.821 -0.1412  1.5902  0.2857
42660SOL     OW29986   7.947   3.091   6.640  0.4081  0.2186  0.4155
42660SOL    HW129987   7.996   3.162   6.600  1.2341  0.0768  1.1463
42660SOL    HW229988   7.956   3.106   6.735  2.3902 -1.9998  0.6574
42661SOL     OW29989   6.651   4.972   3.846  0.6690 -0.7663 -0.6875
42661SOL    HW129990   6.739   4.994   3.877  0.6021 -0.2094 -0.8818
42661SOL    HW229991   6.616   4.912   3.913  0.7554 -0.0515  0.0140
42662SOL     OW29992   8.414   8.333   5.192  0.5036  0.6106 -0.0651
42662SOL    HW129993   8.490   8.373   5.233  1.1837 -1.1498  0.4534
42662SOL    HW229994   8.397   8.254   5.243 -0.9878  0.3656 -0.8698
42663SOL     OW29995   3.669   7.571   0.163 -0.6613  0.1578 -0.4271
42663SOL    HW129996   3.629   7.643   0.116 -0.9279 -0.1291 -0.6430
42663SOL    HW229997   3.642   7.582   0.254 -0.6206  0.3820 -0.4424
42664SOL     OW29998   3.348   9.452   4.904  0.5166 -0.0634 -0.0976
42664SOL    HW129999   3.290   9.403   4.962  1.0177 -0.3249  0.1900
42664SOL    HW230000   3.359   9.396   4.828 -1.3043  0.8896 -1.1384
42665SOL     OW30001   8.250   9.007   1.619 -0.4894  0.0402 -0.4995
42665SOL    HW130002   8.194   9.085   1.622  0.4122  0.8699 -2.8201
42665SOL    HW230003   8.203   8.946   1.563 -0.8354 -0.8162  0.6992
42666SOL     OW30004   7.343   0.581   8.887  0.6740 -0.4011 -0.2734
42666SOL    HW130005   7.282   0.580   8.960  0.6112 -0.9590 -0.3302
42666SOL    HW230006   7.288   0.574   8.809  0.6818  0.9894 -0.4296
42667SOL     OW30007  10.105  10.818   3.737 -0.5067  0.2757 -0.1062
42667SOL    HW130008  10.102  10.724   3.755 -0.5846  0.1407 -0.7966
42667SOL    HW230009  10.139  10.857   3.817  0.0542 -0.3989 -0.0136
42668SOL     OW30010   0.565   2.954   8.390 -0.3189 -0.0464 -0.9641
42668SOL    HW130011   0.487   2.935   8.442  0.0294 -1.1441 -0.8111
42668SOL    HW230012   0.554   2.902   8.310  0.1439 -0.0282 -1.0415
42669SOL     OW30013   2.498  10.102   7.124 -0.0716  0.6132  0.0320
42669SOL    HW130014   2.529  10.127   7.037 -0.8648  0.8159 -0.1937
42669SOL    HW230015   2.418  10.153   7.137 -2.1942 -2.2921 -0.7383
42670SOL     OW30016   3.850   9.599   4.395 -0.7291 -0.2011 -0.2554
42670SOL    HW130017   3.814   9.658   4.329 -1.4964 -0.2162  0.1412
42670SOL    HW230018   3.927   9.560   4.353 -2.1126 -1.4538 -1.7348
42671SOL     OW30019   3.503   7.483   3.513 -0.0431 -0.5163 -0.5617
42671SOL    HW130020   3.519   7.535   3.434 -1.0494 -0.2119 -0.5785
42671SOL    HW230021   3.461   7.544   3.573 -0.9862 -1.2430 -0.4733
42672SOL     OW30022   3.157   5.616   5.279 -0.6255 -0.1287 -0.1210
42672SOL    HW130023   3.187   5.668   5.353 -1.9583  2.6115 -1.3601
42672SOL    HW230024   3.141   5.529   5.316 -0.2803  0.8559  2.5693
42673SOL     OW30025   1.875   1.044   6.087 -0.0123  0.4809  0.3482
42673SOL    HW130026   1.862   0.968   6.144 -0.4624 -0.2706 -0.7184
42673SOL    HW230027   1.819   1.027   6.011 -1.2357  2.5727  0.7078
42674SOL     OW30028   7.868   2.090   1.781  0.0105 -0.1983 -0.7617
42674SOL    HW130029   7.824   2.006   1.793 -0.0158 -0.4998 -2.6845
42674SOL    HW230030   7.961   2.070   1.786  0.0381  0.2030  1.8102
42675SOL     OW30031   2.776  10.522   9.058 -0.4445  0.1743  0.9230
42675SOL    HW130032   2.840  10.516   8.987  0.4920 -1.6707  1.8356
42675SOL    HW230033   2.828  10.508   9.137 -1.6279  1.1325  1.9065
42676SOL     OW30034   7.260  10.468   6.545 -0.2523 -0.0437  0.2798
42676SOL    HW130035   7.198  10.531   6.583 -1.1447 -0.1724 -0.9088
42676SOL    HW230036   7.219  10.441   6.463  2.1267  1.0964 -1.3939
42677SOL     OW30037   0.549   3.960   8.285  0.3329  0.1691  0.6874
42677SOL    HW130038   0.523   3.942   8.375 -2.3022 -1.3111 -0.2532
42677SOL    HW230039   0.531   3.879   8.238  0.8317  1.1528 -1.3353
42678SOL     OW30040   1.020   9.774   5.444  0.3389  0.3111  0.9486
42678SOL    HW130041   1.017   9.699   5.504  0.0851 -0.6945 -0.2642
42678SOL    HW230042   0.967   9.747   5.369 -0.9401  2.2950  1.0714
42679SOL     OW30043   7.713   1.837   9.845  0.7224 -0.5123  0.9353
42679SOL    HW130044   7.681   1.914   9.799  0.2121 -1.4687 -0.3842
42679SOL    HW230045   7.759   1.871   9.922  0.5725  1.0851  0.3392
42680SOL     OW30046   7.345   9.268   1.082  0.1634  0.5581 -0.3627
42680SOL    HW130047   7.252   9.252   1.096  0.7315 -1.4583  1.7398
42680SOL    HW230048   7.359   9.252   0.989 -1.3417 -0.4751 -0.4427
42681SOL     OW30049  10.907   2.243   4.394 -0.1387  0.3021  0.4254
42681SOL    HW130050  10.945   2.262   4.480 -0.8972  2.0809  0.4044
42681SOL    HW230051  10.873   2.154   4.401  1.8423 -0.4441  1.2085
42682SOL     OW30052   7.229   9.473   5.371 -0.1178 -0.2027 -0.6404
42682SOL    HW130053   7.294   9.409   5.339  1.4509  0.5452  0.8511
42682SOL    HW230054   7.277   9.555   5.374 -1.0236  0.3089  0.8584
42683SOL     OW30055   3.944   2.994   9.241  0.2502  0.1478  0.1666
42683SOL    HW130056   4.031   3.009   9.204  0.0696 -0.5666 -0.5762
42683SOL    HW230057   3.887   3.054   9.192  0.6382  2.4104  2.2759
42684SOL     OW30058   9.613   9.583   5.766 -0.0873  0.1333 -0.8308
42684SOL    HW130059   9.657   9.668   5.756 -0.0764  0.1149 -0.9332
42684SOL    HW230060   9.683   9.520   5.776 -0.1048  0.2002 -0.2489
42685SOL     OW30061   1.514   0.696   6.984 -0.2422 -0.0168 -0.5824
42685SOL    HW130062   1.419   0.705   6.974 -0.1144 -0.7418 -3.2662
42685SOL    HW230063   1.525   0.624   7.046 -1.4316  0.1384 -0.1676
42686SOL     OW30064   0.937  10.420   7.890  0.2619 -0.0619 -0.4012
42686SOL    HW130065   0.961  10.345   7.837  0.4555  0.6835 -1.3953
42686SOL    HW230066   0.850  10.399   7.924 -0.1363 -0.2739 -1.5359
42687SOL     OW30067   3.399   8.619   2.104  0.1208 -1.0533  0.2371
42687SOL    HW130068   3.370   8.579   2.022 -0.0994 -3.6524  1.4683
42687SOL    HW230069   3.328   8.677   2.130 -0.1558 -0.8209 -0.9839
42688SOL     OW30070   4.230  10.201   3.531 -0.4261 -0.2590 -0.2038
42688SOL    HW130071   4.209  10.286   3.493 -0.4803 -0.1915 -0.0271
42688SOL    HW230072   4.232  10.218   3.625  1.4271 -0.0296 -0.2474
42689SOL     OW30073   6.974   1.244   9.218  0.4471 -0.6182 -0.1701
42689SOL    HW130074   7.055   1.231   9.168  0.5788  0.4586 -0.2641
42689SOL    HW230075   6.924   1.306   9.165 -0.3998 -1.1798 -0.0509
42690SOL     OW30076   9.545   5.541  10.651 -0.0993  0.4443 -0.4150
42690SOL    HW130077   9.597   5.508  10.724 -0.3982  0.3330 -0.2506
42690SOL    HW230078   9.544   5.469  10.588 -0.1588  0.4018 -0.3653
42691SOL     OW30079   0.275   7.093   5.938 -0.5789 -0.3472 -0.0857
42691SOL    HW130080   0.244   7.181   5.917  0.0456 -0.4687 -1.6779
42691SOL    HW230081   0.362   7.088   5.897 -0.9074 -1.9367 -0.6673
42692SOL     OW30082   2.555   2.749  10.465  0.0674 -0.3876  0.0682
42692SOL    HW130083   2.469   2.708  10.478 -0.0952 -0.1192 -0.1353
42692SOL    HW230084   2.555   2.824  10.524  1.2406 -1.9119  2.1201
42693SOL     OW30085   1.752   7.287   2.729 -0.1291  0.2928  0.3066
42693SOL    HW130086   1.814   7.249   2.668 -1.5673  1.3064 -1.9107
42693SOL    HW230087   1.762   7.382   2.717 -0.1210  0.5489  2.0353
42694SOL     OW30088  10.631  10.162   4.577  0.1414 -0.1120 -0.4893
42694SOL    HW130089  10.593  10.246   4.551 -2.4620 -0.2141  2.3705
42694SOL    HW230090  10.721  10.183   4.602 -0.3654  1.8098 -0.0884
42695SOL     OW30091   7.603  10.198   4.837  0.1318 -0.4687 -0.3348
42695SOL    HW130092   7.652  10.266   4.791  1.6817 -1.2481  0.0992
42695SOL    HW230093   7.564  10.146   4.767 -1.0185  0.7914 -0.6716
42696SOL     OW30094   5.906   0.517   4.605 -0.5648  0.8249  0.2682
42696SOL    HW130095   5.875   0.427   4.602  0.5860  0.3916  0.6434
42696SOL    HW230096   5.929   0.537   4.514 -0.0658  0.4525  0.3089
42697SOL     OW30097   2.245  10.138   5.923  0.1758  0.0983  0.4158
42697SOL    HW130098   2.185  10.169   5.991 -1.0293 -0.5032 -0.3364
42697SOL    HW230099   2.188  10.101   5.855  1.1547  2.8351 -2.1228
42698SOL     OW30100  10.200   1.788   6.019 -0.1735  0.1083 -0.0869
42698SOL    HW130101  10.173   1.808   5.929  0.0748 -0.1617 -0.2244
42698SOL    HW230102  10.148   1.712   6.044  0.8490 -0.7731 -0.5606
42699SOL     OW30103   8.145   9.405   6.644 -0.4834  0.2482 -0.3586
42699SOL    HW130104   8.155   9.354   6.724 -1.8416 -0.1953 -0.4306
42699SOL    HW230105   8.125   9.340   6.576 -1.3663  0.7812 -0.6345
42700SOL     OW30106   4.922   6.831   0.861  0.1342 -0.1490 -0.4372
42700SOL    HW130107   4.966   6.914   0.881  0.7046 -0.7581  0.9424
42700SOL    HW230108   4.933   6.821   0.766  1.1605  0.7290 -0.4334
42701SOL     OW30109   9.952   2.039   1.322  0.0406  0.1804  0.4791
42701SOL    HW130110  10.031   2.051   1.269  1.3323 -1.5045  1.9274
42701SOL    HW230111   9.957   1.949   1.354 -1.6989  0.5144  1.8520
42702SOL     OW30112   0.858  10.662   3.550 -0.3817 -0.6732  0.3705
42702SOL    HW130113   0.943  10.628   3.579  1.6707  0.5074 -3.4750
42702SOL    HW230114   0.854  10.751   3.586 -0.1204 -0.8045  0.7323
42703SOL     OW30115   8.831   6.955   6.706 -0.1069 -0.0774  0.3532
42703SOL    HW130116   8.760   6.949   6.642  0.3065  0.0755 -0.1273
42703SOL    HW230117   8.833   6.869   6.747 -0.3000 -0.2190  0.0741
42704SOL     OW30118  10.563   6.157   2.214  0.0993 -0.4246  0.3215
42704SOL    HW130119  10.507   6.219   2.168  0.8694 -0.5125 -0.7785
42704SOL    HW230120  10.506   6.116   2.279 -0.4142  1.4003  1.0531
42705SOL     OW30121   8.471   5.653   8.116  0.0353  0.1087 -0.0317
42705SOL    HW130122   8.459   5.604   8.035  1.0523 -1.4067  0.6657
42705SOL    HW230123   8.566   5.662   8.124 -0.0367  0.0226  1.0770
42706SOL     OW30124   2.593   8.254   2.399 -0.4479 -0.0602  0.4845
42706SOL    HW130125   2.576   8.198   2.323  0.7756 -0.0601  0.1932
42706SOL    HW230126   2.635   8.197   2.463  0.1116  0.3414  0.4805
42707SOL     OW30127   4.320   8.501   3.862  0.9254 -0.7345 -0.1906
42707SOL    HW130128   4.348   8.440   3.792 -1.8196 -0.3261 -1.7676
42707SOL    HW230129   4.255   8.452   3.911  0.3685  0.1429 -0.0400
42708SOL     OW30130   2.564   5.390   2.216 -0.1130  0.1800 -0.3949
42708SOL    HW130131   2.554   5.469   2.164 -0.5158 -0.0661 -0.6998
42708SOL    HW230132   2.635   5.410   2.277  0.8575  0.2264 -1.5065
42709SOL     OW30133   1.138   9.919   1.884 -0.3370 -0.4438 -0.3893
42709SOL    HW130134   1.079   9.871   1.942  1.2488 -1.4829  0.4375
42709SOL    HW230135   1.090   9.927   1.802 -1.3863 -1.7489  0.0693
42710SOL     OW30136   1.158   2.651   3.074 -0.3725 -0.7652 -0.0245
42710SOL    HW130137   1.161   2.729   3.128  2.0002  1.1433 -2.6051
42710SOL    HW230138   1.224   2.592   3.112  0.6154  0.1646 -0.2479
42711SOL     OW30139   7.612  10.256   7.374 -0.3533  0.3707  0.2557
42711SOL    HW130140   7.704  10.232   7.365 -0.5786 -0.9011  1.1470
42711SOL    HW230141   7.569  10.216   7.299 -0.3262  0.1314  0.3665
42712SOL     OW30142   0.513   4.239   8.206 -0.6441 -0.6039  0.0887
42712SOL    HW130143   0.608   4.235   8.209 -0.5780  0.2508 -0.3737
42712SOL    HW230144   0.483   4.167   8.261  0.2778  0.2172  1.7319
42713SOL     OW30145   3.639   6.251   5.703 -0.5771 -0.3491 -0.1912
42713SOL    HW130146   3.672   6.187   5.765  0.7369 -0.5705 -1.0680
42713SOL    HW230147   3.619   6.329   5.755 -0.8977 -1.0134  0.6869
42714SOL     OW30148   7.316   3.058   3.982 -0.5736  0.2652  0.2419
42714SOL    HW130149   7.369   3.047   4.061 -0.0908 -0.9182 -0.2254
42714SOL    HW230150   7.242   2.998   3.993 -2.4866  2.6462  1.3643
42715SOL     OW30151   0.415   6.036  10.659  0.3756 -0.0949 -0.5572
42715SOL    HW130152   0.459   5.950  10.659  0.6173  0.0105 -1.6425
42715SOL    HW230153   0.376   6.042  10.572 -2.1470 -0.3317  0.4776
42716SOL     OW30154   7.978   7.742   5.040 -0.0547  0.5659 -0.3746
42716SOL    HW130155   8.043   7.671   5.048  0.2486  0.9862  1.3815
42716SOL    HW230156   7.970   7.777   5.129 -1.3479  1.7360 -0.9143
42717SOL     OW30157   8.546   5.978   6.287 -0.1612 -0.9609  0.0041
42717SOL    HW130158   8.602   5.934   6.351 -0.6220 -1.2310  0.2322
42717SOL    HW230159   8.606   6.025   6.230  0.2498 -0.6342  0.6982
42718SOL     OW30160   8.229   6.274   7.317  0.3359  0.1167  0.4843
42718SOL    HW130161   8.209   6.280   7.224 -0.1474 -2.8714  0.2983
42718SOL    HW230162   8.324   6.277   7.322  0.4136 -0.7494 -0.2445
42719SOL     OW30163   0.459   1.594   9.006  0.0277  0.4273 -0.1671
42719SOL    HW130164   0.453   1.644   9.087  0.6367  0.0811  0.0958
42719SOL    HW230165   0.481   1.659   8.939 -1.3978  0.8770 -0.2471
42720SOL     OW30166   3.040   8.481   2.657  0.0525  0.2470  0.6473
42720SOL    HW130167   2.993   8.479   2.740  0.6605  0.6014  1.0042
42720SOL    HW230168   3.095   8.402   2.659 -0.0557  0.1674  0.5055
42721SOL     OW30169   2.016   8.837   1.834  0.3924 -0.4047  0.0273
42721SOL    HW130170   1.933   8.790   1.833  1.0653 -1.6232 -0.4075
42721SOL    HW230171   2.071   8.790   1.897  0.6206  0.6470  0.6401
42722SOL     OW30172   2.261   0.756   0.672 -0.0799  0.4291  0.0222
42722SOL    HW130173   2.347   0.716   0.686 -0.6329 -0.5679  0.5802
42722SOL    HW230174   2.198   0.692   0.703 -1.1416  0.3020 -2.1887
42723SOL     OW30175   3.987   6.519   2.476 -0.1375  0.0945 -0.1403
42723SOL    HW130176   4.010   6.451   2.540  3.0745  0.1006 -1.1032
42723SOL    HW230177   4.000   6.601   2.522  1.3444  0.0834 -0.4879
42724SOL     OW30178   9.570   0.446   8.252 -0.4768  0.0682  0.3626
42724SOL    HW130179   9.649   0.395   8.234 -0.2772  0.5805 -0.2945
42724SOL    HW230180   9.603   0.534   8.270 -0.8038 -0.0642  1.6615
42725SOL     OW30181  10.318   7.341   8.514  0.0595  0.0198 -0.1699
42725SOL    HW130182  10.375   7.294   8.453 -1.4603  0.2068 -1.8477
42725SOL    HW230183  10.334   7.434   8.494 -0.7434  0.0735 -0.6218
42726SOL     OW30184  10.275   3.236   1.280  0.5897 -0.1834 -0.7870
42726SOL    HW130185  10.238   3.309   1.231 -1.5755 -2.0760 -2.1676
42726SOL    HW230186  10.312   3.276   1.359 -0.7715  2.3267 -1.3225
42727SOL     OW30187   7.728   6.962   3.313  0.2964 -0.1588 -0.1251
42727SOL    HW130188   7.759   6.879   3.275  0.6795 -0.0358 -0.0889
42727SOL    HW230189   7.734   7.025   3.242  1.1745  0.1090  0.1791
42728SOL     OW30190   8.044   0.138   9.730 -0.1533 -0.0174 -0.0074
42728SOL    HW130191   8.082   0.114   9.814  1.1206  0.4202 -0.4439
42728SOL    HW230192   8.091   0.217   9.704 -0.5390 -0.1473 -1.1431
42729SOL     OW30193   8.641   0.314   5.906 -0.1851 -0.0517  0.2059
42729SOL    HW130194   8.726   0.326   5.947 -0.9328  0.7223  1.5890
42729SOL    HW230195   8.643   0.373   5.830  0.6080 -0.2601  0.0564
42730SOL     OW30196   9.773   4.015   6.165  0.3408 -0.5254 -0.2010
42730SOL    HW130197   9.678   4.016   6.167  0.3355  0.1078  1.7317
42730SOL    HW230198   9.796   3.938   6.114 -1.2830 -3.3470  2.9377
42731SOL     OW30199   6.819   9.581   2.150 -0.4392 -0.6299 -0.1339
42731SOL    HW130200   6.893   9.551   2.099 -0.2528 -0.3240 -0.0480
42731SOL    HW230201   6.802   9.511   2.213  0.4890 -0.2156  0.5911
42732SOL     OW30202  10.824   8.414   5.152  0.1409 -0.5101 -0.0049
42732SOL    HW130203  10.812   8.331   5.107 -0.1658 -0.0943 -0.7072
42732SOL    HW230204  10.738   8.457   5.148 -0.0766 -0.7341  1.5579
42733SOL     OW30205   2.639   6.297   8.623 -0.1771  0.3451  0.3688
42733SOL    HW130206   2.734   6.298   8.638 -0.2495 -1.3756  1.0676
42733SOL    HW230207   2.605   6.362   8.684  0.5225  0.8115  0.2784
42734SOL     OW30208   1.581   8.064   2.784  0.1030  0.1494  0.2540
42734SOL    HW130209   1.510   8.026   2.836  0.6993 -0.7534  0.4370
42734SOL    HW230210   1.542   8.141   2.743 -1.0878 -0.5358  0.0574
42735SOL     OW30211   7.098   2.577   8.194  0.3925 -0.2199 -0.3250
42735SOL    HW130212   7.168   2.642   8.188 -1.1004  1.8461  2.2610
42735SOL    HW230213   7.019   2.625   8.167 -0.4204 -1.7330 -0.7420
42736SOL     OW30214   9.404   9.494   4.338  0.1790 -0.2134  0.3292
42736SOL    HW130215   9.349   9.565   4.371  0.2995 -0.3491  0.8327
42736SOL    HW230216   9.388   9.492   4.244 -1.6918 -1.1105  0.6219
42737SOL     OW30217   9.186   5.460   3.187 -0.2304  0.0187 -0.2866
42737SOL    HW130218   9.096   5.484   3.167 -0.6691 -2.0206 -0.9828
42737SOL    HW230219   9.187   5.364   3.181  2.3121  0.0492 -1.8555
42738SOL     OW30220   9.820   1.367   2.515  0.2927 -0.2428  0.1765
42738SOL    HW130221   9.882   1.343   2.446  0.3480 -2.8431  1.0128
42738SOL    HW230222   9.871   1.416   2.578  0.5898  0.8560 -0.8786
42739SOL     OW30223   2.479   0.870   5.718 -0.4405 -0.3530 -0.0487
42739SOL    HW130224   2.421   0.893   5.791 -2.1862 -0.3409 -1.3882
42739SOL    HW230225   2.566   0.865   5.758 -1.1936  0.5771  1.8491
42740SOL     OW30226   9.740   0.285   4.686  0.4098 -0.0847  0.0574
42740SOL    HW130227   9.721   0.324   4.771 -1.5792 -0.6151 -0.0773
42740SOL    HW230228   9.746   0.191   4.704  0.4223 -0.1575 -0.3241
42741SOL     OW30229   9.499   4.880   7.892  0.3116 -0.0741 -0.0476
42741SOL    HW130230   9.552   4.811   7.933 -0.9543 -0.5646  0.8514
42741SOL    HW230231   9.533   4.887   7.803 -1.1551 -3.8150 -1.1261
42742SOL     OW30232   8.508   7.960   2.601  0.2628 -0.4471 -1.2422
42742SOL    HW130233   8.603   7.971   2.609  0.2804 -0.5481 -1.3102
42742SOL    HW230234   8.471   8.038   2.642  0.3570 -0.9159 -0.2271
42743SOL     OW30235   0.462   7.198  10.839  0.6670 -0.1592  1.2348
42743SOL    HW130236   0.433   7.199  10.748 -3.3656  2.2717  2.3060
42743SOL    HW230237   0.515   7.277  10.849  1.8496 -0.8775  0.8963
42744SOL     OW30238  10.902  11.081   3.184 -0.1310  0.0530  0.3056
42744SOL    HW130239  10.961  11.077   3.260  1.3479  0.4668 -0.7648
42744SOL    HW230240  10.950  11.135   3.121 -1.0051 -0.8788 -1.1896
42745SOL     OW30241   0.393   0.830   8.021  0.5222  0.4160 -0.1512
42745SOL    HW130242   0.382   0.915   8.064 -1.9106  1.3885 -2.3847
42745SOL    HW230243   0.444   0.850   7.942  0.0075 -0.1856 -0.6468
42746SOL     OW30244   1.468  10.622   4.805  0.4592  0.0347  0.0596
42746SOL    HW130245   1.443  10.535   4.833 -2.3659  0.7742  0.1883
42746SOL    HW230246   1.472  10.616   4.709  1.8347 -0.5714  0.1448
42747SOL     OW30247   4.142   8.718   3.934  0.6538 -0.2220  0.3066
42747SOL    HW130248   4.116   8.784   3.870  0.8746 -1.5744 -1.2665
42747SOL    HW230249   4.226   8.685   3.901  0.5891 -1.2086  1.0914
42748SOL     OW30250   1.374   4.344   2.937  0.4195 -0.4934 -0.3944
42748SOL    HW130251   1.455   4.394   2.929  0.2149 -0.3022 -1.3924
42748SOL    HW230252   1.308   4.396   2.892  0.1778 -1.5971 -1.3668
42749SOL     OW30253   8.474   6.841   3.952  0.6201 -0.2390  0.2476
42749SOL    HW130254   8.474   6.783   4.028 -2.3635  1.7816  2.0229
42749SOL    HW230255   8.386   6.830   3.914  0.4297  2.0309 -0.1444
42750SOL     OW30256   9.038   7.810   4.022 -0.0363 -0.1538 -0.2543
42750SOL    HW130257   9.089   7.746   4.073 -0.4050 -0.3047 -0.0749
42750SOL    HW230258   8.990   7.860   4.088 -0.1674 -0.0502 -0.4286
42751SOL     OW30259   2.720   9.519   1.041 -0.1760  0.1278 -0.3943
42751SOL    HW130260   2.813   9.523   1.020 -0.2085 -0.8581 -0.7505
42751SOL    HW230261   2.702   9.426   1.057 -1.1087  0.2953 -0.3838
42752SOL     OW30262   3.849   8.685   8.755  0.1200 -0.2594  0.1431
42752SOL    HW130263   3.942   8.686   8.734  0.2190  5.1007 -0.6170
42752SOL    HW230264   3.845   8.711   8.847 -0.6605 -1.6229  0.5123
42753SOL     OW30265   7.453  10.946   7.242 -0.0882 -0.1982  0.0630
42753SOL    HW130266   7.463  10.996   7.323  1.1784 -0.9079  0.3650
42753SOL    HW230267   7.368  10.903   7.251 -0.0787 -0.0627  0.8965
42754SOL     OW30268   0.623   4.834   9.286 -0.0158 -0.3152 -0.5486
42754SOL    HW130269   0.560   4.799   9.223 -0.8426  0.5711 -0.2499
42754SOL    HW230270   0.575   4.834   9.369  0.9814 -1.2510  0.0333
42755SOL     OW30271   3.666   3.593   3.069  0.4404 -0.0013  0.0429
42755SOL    HW130272   3.689   3.500   3.069 -2.4456 -0.8186 -0.1578
42755SOL    HW230273   3.672   3.619   3.161  1.7858 -0.2225  0.0275
42756SOL     OW30274   6.071   0.442   4.106  0.4496  0.2633  0.1336
42756SOL    HW130275   6.138   0.481   4.162 -0.1723  2.3137 -0.4738
42756SOL    HW230276   6.096   0.467   4.017 -0.2905 -0.2562 -0.2332
42757SOL     OW30277   6.553   8.816   9.533 -0.8835 -0.3730 -0.0301
42757SOL    HW130278   6.596   8.732   9.545  1.3471  0.0301 -3.6006
42757SOL    HW230279   6.593   8.874   9.598  0.6294 -1.1340 -0.2573
42758SOL     OW30280  10.927   8.043   0.067 -0.0915  0.6316  1.0454
42758SOL    HW130281  10.902   8.049   0.159  1.1704 -3.1584  1.7985
42758SOL    HW230282  10.985   7.967   0.063  0.7651  1.2992 -2.7428
42759SOL     OW30283   1.818   0.510   4.443 -0.0326  0.9234  0.1556
42759SOL    HW130284   1.745   0.467   4.489  0.8053  0.5228  1.1746
42759SOL    HW230285   1.783   0.595   4.416 -1.7625 -0.3352 -1.9411
42760SOL     OW30286   2.939  10.826   4.403 -0.8343  0.1358 -0.5353
42760SOL    HW130287   3.019  10.784   4.432  0.6351  2.2713 -1.2802
42760SOL    HW230288   2.885  10.754   4.368  0.4551 -1.4130  0.5650
42761SOL     OW30289   8.209   6.275   0.591  0.3343  0.4714 -0.1346
42761SOL    HW130290   8.248   6.354   0.554  0.7346  0.1258 -0.4542
42761SOL    HW230291   8.261   6.203   0.555 -0.9341 -0.0322 -1.0398
42762SOL     OW30292  10.849   0.080   9.971  1.0224 -0.5432 -0.2757
42762SOL    HW130293  10.825   0.104   9.881 -3.3457 -1.8150  0.2936
42762SOL    HW230294  10.787   0.129  10.026 -0.1430 -3.8135  1.5907
42763SOL     OW30295   5.904   7.558   0.302 -0.4351 -0.0771 -0.2638
42763SOL    HW130296   5.988   7.513   0.313  0.3170  0.9743 -1.3807
42763SOL    HW230297   5.872   7.527   0.217 -1.1157 -0.3626  0.0931
42764SOL     OW30298   7.180   6.513   6.265 -0.3539  0.0454 -0.2170
42764SOL    HW130299   7.140   6.562   6.193  0.1053 -1.7351 -1.7740
42764SOL    HW230300   7.263   6.558   6.281 -0.2816  0.2592 -1.0962
42765SOL     OW30301   6.299   2.355   5.958 -0.2810  0.0370 -0.1802
42765SOL    HW130302   6.311   2.330   6.050 -1.5974 -0.2004 -0.0467
42765SOL    HW230303   6.207   2.382   5.953 -0.4314 -0.6605 -1.5927
42766SOL     OW30304   8.698   8.617   6.454 -0.0550 -0.6008  0.3147
42766SOL    HW130305   8.626   8.557   6.433 -0.0289 -1.1535  1.6986
42766SOL    HW230306   8.657   8.704   6.457 -0.4398 -0.7678 -0.0233
42767SOL     OW30307   2.891   6.793   3.284 -0.5467 -0.2701 -0.4390
42767SOL    HW130308   2.869   6.701   3.300 -1.2000 -0.2736 -1.3219
42767SOL    HW230309   2.967   6.790   3.226  0.2397 -0.2448  0.5638
42768SOL     OW30310   2.841   8.970   8.180 -0.5827 -0.6296 -0.2245
42768SOL    HW130311   2.855   9.030   8.254  2.5553 -1.1754 -0.2240
42768SOL    HW230312   2.800   8.893   8.219 -0.3351 -0.3101  0.6942
42769SOL     OW30313   1.368   2.239   5.222 -0.2918 -0.2013  0.5242
42769SOL    HW130314   1.416   2.280   5.293  2.0589 -0.7924 -0.6285
42769SOL    HW230315   1.397   2.284   5.143 -1.0744 -1.0784 -0.2970
42770SOL     OW30316  11.014   7.294   8.525 -0.0123 -0.7013 -0.8824
42770SOL    HW130317  10.918   7.296   8.518  0.0456  0.0347 -1.6378
42770SOL    HW230318  11.035   7.367   8.582 -0.1031 -3.2124  2.6470
42771SOL     OW30319  10.564   3.177   1.213  0.2492  0.0026  0.1685
42771SOL    HW130320  10.470   3.196   1.208 -0.0334 -1.5326 -1.5877
42771SOL    HW230321  10.571   3.109   1.279  0.2646  0.7970  0.9946
42772SOL     OW30322   1.714   1.616   5.660 -0.2025 -0.1648  0.6545
42772SOL    HW130323   1.704   1.546   5.596 -0.8461  0.0545  0.5077
42772SOL    HW230324   1.627   1.657   5.665  0.6451  2.0083 -0.8569
42773SOL     OW30325   2.928   2.922   9.028  0.1512 -0.4026  0.1274
42773SOL    HW130326   2.932   2.832   9.059  0.7440 -0.2706  0.4392
42773SOL    HW230327   2.985   2.924   8.951  1.8084  0.1657  1.3073
42774SOL     OW30328   6.554   9.297   2.505 -0.1557 -0.4153 -0.0900
42774SOL    HW130329   6.585   9.304   2.595  3.3528  1.4052 -1.2779
42774SOL    HW230330   6.576   9.208   2.477 -0.2173 -0.6070  0.4735
42775SOL     OW30331   4.364  10.527   8.761  0.6611 -0.7513  0.9336
42775SOL    HW130332   4.406  10.477   8.691  0.2072 -0.2311  0.2854
42775SOL    HW230333   4.399  10.615   8.753  0.3542 -0.6048  1.1546
42776SOL     OW30334   2.112   8.523   3.620  0.2952 -0.2455  0.2932
42776SOL    HW130335   2.087   8.442   3.663 -1.4467  0.4021  0.5902
42776SOL    HW230336   2.068   8.520   3.535  1.1747 -0.1176 -0.1841
42777SOL     OW30337   3.872   0.888   9.639 -0.0436  0.1922 -0.4121
42777SOL    HW130338   3.846   0.957   9.701  0.2074  1.4543 -1.6695
42777SOL    HW230339   3.792   0.839   9.622 -0.1400 -0.1167  0.7974
42778SOL     OW30340   1.392   0.721   7.486 -0.0934  0.0064  0.1226
42778SOL    HW130341   1.366   0.677   7.404 -2.1401  0.4736  0.4612
42778SOL    HW230342   1.359   0.810   7.477 -3.0973 -0.6803  2.5724
42779SOL     OW30343   2.328   9.385   4.554  0.3064  0.0923 -0.0148
42779SOL    HW130344   2.243   9.384   4.510  0.8382  0.4288 -1.1161
42779SOL    HW230345   2.321   9.320   4.623  0.0066 -1.8286 -1.7655
42780SOL     OW30346   1.664   4.163   4.360 -0.6404  0.4941 -0.0111
42780SOL    HW130347   1.703   4.093   4.308  0.0183 -0.4143  1.6376
42780SOL    HW230348   1.571   4.163   4.334 -0.4892 -0.4564 -0.5992
42781SOL     OW30349   2.272   2.311   5.492 -0.1296 -0.2747  0.6455
42781SOL    HW130350   2.301   2.324   5.402  0.8627 -0.0564  0.9913
42781SOL    HW230351   2.186   2.353   5.495 -0.5022 -0.9195 -0.3832
42782SOL     OW30352   0.048  10.293   0.597 -0.1466  0.2247 -0.7945
42782SOL    HW130353   0.001  10.366   0.637 -0.0851 -0.4547  0.5657
42782SOL    HW230354   0.032  10.219   0.656  1.9357 -0.2181 -0.7166
42783SOL     OW30355   8.818   8.990   1.036  0.5844 -0.5959 -0.2174
42783SOL    HW130356   8.733   9.028   1.012  0.7577 -0.6612 -0.9793
42783SOL    HW230357   8.835   9.024   1.123  0.6261  0.9234 -0.7763
42784SOL     OW30358   9.956   3.654   5.980 -0.2294  0.3222 -0.3427
42784SOL    HW130359  10.019   3.632   6.049 -0.2646  0.1403 -0.3673
42784SOL    HW230360   9.909   3.572   5.963  0.1572  0.2233 -0.9720
42785SOL     OW30361   7.857   1.999   8.647 -0.2552 -0.5462  0.2028
42785SOL    HW130362   7.875   2.091   8.629 -2.3889  0.0190  0.6241
42785SOL    HW230363   7.939   1.953   8.628  0.8351  1.4273 -0.0400
42786SOL     OW30364   9.201   0.081   1.756 -0.3976  0.5751 -0.4502
42786SOL    HW130365   9.154   0.164   1.757 -0.5847  0.4881 -1.0898
42786SOL    HW230366   9.287   0.101   1.793 -0.0764  1.2904 -1.5370
42787SOL     OW30367   7.686   0.401   8.438  0.5136 -0.5071  0.2130
42787SOL    HW130368   7.627   0.370   8.369  2.4507 -0.0414 -1.7883
42787SOL    HW230369   7.645   0.480   8.472 -0.3531 -0.5866 -0.6193
42788SOL     OW30370   8.552   9.339   7.011  0.1587 -0.5789  0.2218
42788SOL    HW130371   8.487   9.305   6.948  1.6187 -1.4054 -0.9084
42788SOL    HW230372   8.572   9.264   7.067 -0.5166 -0.0730  1.1558
42789SOL     OW30373  10.010   3.563   8.480 -0.0223 -0.2959  0.2357
42789SOL    HW130374   9.968   3.516   8.552  0.1794  1.5696  1.6475
42789SOL    HW230375   9.972   3.650   8.483  0.3678 -0.0295 -1.6284
42790SOL     OW30376   2.669   7.199   6.315  0.9671  1.0747 -0.3421
42790SOL    HW130377   2.754   7.224   6.278  0.8902 -0.6407 -1.8080
42790SOL    HW230378   2.607   7.259   6.275  1.3791  1.9840  0.3249
42791SOL     OW30379   5.927   7.408   4.866  0.2252  0.5441  0.3099
42791SOL    HW130380   5.834   7.400   4.844 -0.0266  1.6714  0.8652
42791SOL    HW230381   5.939   7.350   4.941 -0.2785  1.1307  0.8630
42792SOL     OW30382  10.391  10.134   8.712  0.6668  0.1661  0.3467
42792SOL    HW130383  10.442  10.208   8.680 -0.8883  0.1835 -2.3880
42792SOL    HW230384  10.447  10.058   8.695  1.3348  0.4947  1.0221
42793SOL     OW30385   3.321   9.564   6.835  0.2622 -0.0034  0.1030
42793SOL    HW130386   3.245   9.550   6.892 -0.5253  0.5680 -0.7668
42793SOL    HW230387   3.289   9.625   6.769  0.7463 -1.6701 -1.7448
42794SOL     OW30388   6.423   7.094   3.094 -0.4942 -0.6569 -0.3423
42794SOL    HW130389   6.399   7.012   3.051 -0.4797 -0.0382 -1.5593
42794SOL    HW230390   6.447   7.068   3.183  0.5405 -2.1303 -1.0076
42795SOL     OW30391   9.809   6.345   0.923  0.1429 -0.3286  0.6525
42795SOL    HW130392   9.820   6.415   0.987  0.5751 -0.0705  0.3044
42795SOL    HW230393   9.845   6.268   0.966  0.3539 -0.1745  0.7542
42796SOL     OW30394   0.580   8.477   3.683 -0.2959  0.2225  0.2742
42796SOL    HW130395   0.604   8.488   3.775 -0.1891  1.2229  0.1384
42796SOL    HW230396   0.652   8.515   3.634 -0.8231  0.6486 -0.1933
42797SOL     OW30397   3.023  10.878  10.135  0.0652 -0.6296 -0.3455
42797SOL    HW130398   3.009  10.784  10.143 -1.1566 -0.4569 -0.1690
42797SOL    HW230399   3.050  10.892  10.045 -1.5931 -0.9724 -0.9317
42798SOL     OW30400   2.754   9.530   5.518  0.3605 -0.2126  0.1248
42798SOL    HW130401   2.811   9.534   5.595  0.8663  0.9211 -0.2954
42798SOL    HW230402   2.709   9.614   5.517  1.9916  0.7287 -2.0081
42799SOL     OW30403   8.895   8.184   7.645  0.3448  0.3413 -0.2605
42799SOL    HW130404   8.955   8.161   7.716 -0.1893 -0.4841 -0.0673
42799SOL    HW230405   8.855   8.267   7.673  1.3625  0.8999 -0.3853
42800SOL     OW30406   4.303   3.988   5.537 -0.1033  0.5726  0.6814
42800SOL    HW130407   4.254   3.979   5.455 -1.1939  3.4583  0.9060
42800SOL    HW230408   4.385   4.031   5.510  0.4066 -0.2470  0.8871
42801SOL     OW30409   7.191   1.221   2.165 -0.2224 -0.2043  0.3023
42801SOL    HW130410   7.112   1.256   2.205  0.7844  1.2242  1.1240
42801SOL    HW230411   7.169   1.209   2.073 -0.5527  3.0169 -0.1316
42802SOL     OW30412   7.068   0.505   4.152  0.0122 -0.0634 -0.0915
42802SOL    HW130413   7.118   0.582   4.125 -2.2612  1.2265 -0.9206
42802SOL    HW230414   7.022   0.533   4.231 -0.7347 -0.6109 -0.3221
42803SOL     OW30415   0.847   2.865   8.451  0.8649  0.5097 -0.0228
42803SOL    HW130416   0.882   2.890   8.536 -2.3602 -1.3951  2.0946
42803SOL    HW230417   0.759   2.902   8.449  0.5755 -0.1531 -2.2021
42804SOL     OW30418   8.725   2.261   2.662 -0.1581  0.2587 -0.0446
42804SOL    HW130419   8.682   2.346   2.653  1.2758  1.1201  0.8805
42804SOL    HW230420   8.801   2.265   2.605 -0.0751 -0.4072  0.0055
42805SOL     OW30421   8.066   2.370   3.591 -0.4154 -0.3122  0.1571
42805SOL    HW130422   8.155   2.372   3.628  0.5716 -0.8530 -2.0308
42805SOL    HW230423   8.060   2.284   3.549 -1.0919  0.6166 -1.7354
42806SOL     OW30424   9.106   9.364   6.211  0.2120 -0.4886 -0.1274
42806SOL    HW130425   9.088   9.407   6.127  1.1248  0.9857  0.4035
42806SOL    HW230426   9.201   9.356   6.214  0.1494 -1.0584  0.5182
42807SOL     OW30427  10.908   6.626   3.124 -0.2932  0.0142 -0.5751
42807SOL    HW130428  10.922   6.707   3.173 -2.6063  0.2851 -0.2468
42807SOL    HW230429  10.953   6.640   3.041 -1.5045  2.0919 -0.9547
42808SOL     OW30430   2.255   5.898   5.719  0.1110 -0.3061 -0.0751
42808SOL    HW130431   2.265   5.941   5.804  0.3998 -1.1639  0.3345
42808SOL    HW230432   2.254   5.970   5.655  2.5033  0.2371  0.4098
42809SOL     OW30433   4.462   4.455   5.968  0.1665  0.1588  0.1870
42809SOL    HW130434   4.544   4.446   6.015  0.8692  2.3753 -0.4824
42809SOL    HW230435   4.488   4.473   5.877 -1.0076  1.5912  0.0954
42810SOL     OW30436  10.319   1.843   7.636 -0.4564 -0.6633 -0.0089
42810SOL    HW130437  10.354   1.789   7.565  1.3281  0.3611  0.0294
42810SOL    HW230438  10.348   1.800   7.716  0.3200 -0.0873  0.0316
42811SOL     OW30439   5.642   2.768   0.705  0.0260  0.2091 -0.4579
42811SOL    HW130440   5.675   2.846   0.750 -3.1350  0.2575  2.1428
42811SOL    HW230441   5.569   2.800   0.652  0.9609 -0.5413 -2.2892
42812SOL     OW30442   5.348   3.713   8.663 -0.2968 -0.3338 -0.3610
42812SOL    HW130443   5.340   3.735   8.756 -0.0697 -2.4345  0.2227
42812SOL    HW230444   5.278   3.762   8.620 -1.7927 -0.9441  1.2497
42813SOL     OW30445  11.078   2.444   9.411 -0.2227 -0.7388 -0.0494
42813SOL    HW130446  11.031   2.455   9.493 -1.5708 -0.4983 -0.8353
42813SOL    HW230447  11.088   2.533   9.376  3.4714 -0.3492  1.4510
42814SOL     OW30448   1.524   0.558   0.809 -0.3421  0.2000  0.4340
42814SOL    HW130449   1.435   0.591   0.800  0.0717  1.1546 -0.3588
42814SOL    HW230450   1.561   0.609   0.882  0.4164  1.8504 -1.0298
42815SOL     OW30451   2.935   4.278   7.060 -0.1347  0.4678  0.1112
42815SOL    HW130452   2.919   4.188   7.087  1.1797  0.1175 -0.2017
42815SOL    HW230453   2.848   4.318   7.057 -0.9374 -1.2496 -1.3927
42816SOL     OW30454   9.731   9.152   8.048 -0.1508 -0.2647 -0.0599
42816SOL    HW130455   9.702   9.145   7.957  1.4409 -1.4506 -0.5401
42816SOL    HW230456   9.700   9.237   8.077 -2.3341 -0.6429 -1.0876
42817SOL     OW30457   9.532   6.862   5.089 -0.2454 -0.0510 -0.1166
42817SOL    HW130458   9.576   6.859   5.004 -1.4287 -0.0034 -0.7420
42817SOL    HW230459   9.600   6.833   5.151  0.4551 -0.6936 -1.1401
42818SOL     OW30460   8.650   6.188   3.663  0.0680 -0.5866  0.3762
42818SOL    HW130461   8.605   6.266   3.631 -0.5170 -0.0954  2.2684
42818SOL    HW230462   8.641   6.192   3.758  1.3169 -2.1961  0.6128
42819SOL     OW30463   2.047   1.599   5.424  0.2656 -0.7544 -1.2249
42819SOL    HW130464   1.966   1.628   5.381 -0.1303 -2.3118 -1.5811
42819SOL    HW230465   2.114   1.659   5.390 -0.8336  1.1126 -0.2782
42820SOL     OW30466   4.078   4.320   8.070  0.0024  0.3533 -0.1581
42820SOL    HW130467   4.107   4.231   8.051 -0.0938  0.1178  0.7544
42820SOL    HW230468   4.135   4.376   8.017  0.1667 -0.2408 -0.6142
42821SOL     OW30469  10.971   0.992   9.653  0.0278 -0.2037  0.1745
42821SOL    HW130470  10.879   1.014   9.670 -0.6378 -1.8578 -0.9720
42821SOL    HW230471  10.966   0.916   9.596  2.1256  0.5080 -1.0457
42822SOL     OW30472   9.698   2.487   0.699 -0.1385 -0.1823 -0.0492
42822SOL    HW130473   9.674   2.396   0.716 -0.3971 -0.1142 -0.0375
42822SOL    HW230474   9.763   2.482   0.629  1.0117 -0.4743  0.9892
42823SOL     OW30475   0.715  10.259   7.209 -0.2115 -0.1767  1.1709
42823SOL    HW130476   0.682  10.170   7.217  0.7459 -0.8506 -1.4599
42823SOL    HW230477   0.636  10.313   7.200 -0.7521 -1.0678  0.3810
42824SOL     OW30478   9.479   8.943   4.910 -0.1859 -0.4590 -0.8521
42824SOL    HW130479   9.450   8.980   4.994  1.1595 -1.7318  0.2414
42824SOL    HW230480   9.487   9.018   4.852  1.7137  0.9234  1.0478
42825SOL     OW30481   4.217   2.039   7.467 -0.3322 -0.4457 -0.0864
42825SOL    HW130482   4.201   2.127   7.502 -1.6687 -1.0500  0.8946
42825SOL    HW230483   4.274   2.054   7.392 -0.4912  1.2565  0.0773
42826SOL     OW30484   4.471   4.920   3.827  0.2638 -0.4615 -0.0709
42826SOL    HW130485   4.385   4.878   3.836  0.1476 -0.1088  0.5600
42826SOL    HW230486   4.511   4.910   3.914  0.2957  0.5893  0.0426
42827SOL     OW30487  10.809   5.511   7.039 -0.0241 -0.0202 -0.4748
42827SOL    HW130488  10.787   5.538   6.950  0.4025 -1.6812 -1.1225
42827SOL    HW230489  10.892   5.556   7.058  1.3098 -1.7020 -1.9880
42828SOL     OW30490   5.875   2.380   0.417 -0.1282 -0.1212  0.3482
42828SOL    HW130491   5.946   2.376   0.480  1.2050 -0.5714 -1.1260
42828SOL    HW230492   5.816   2.448   0.450  1.4741  0.9437  1.0846
42829SOL     OW30493   9.121  10.622   5.626  0.1988 -0.4861  0.2600
42829SOL    HW130494   9.204  10.631   5.674  0.2138 -0.8062  0.2968
42829SOL    HW230495   9.082  10.709   5.630  1.4822  0.2355 -1.4920
42830SOL     OW30496   4.466   4.603   6.516  0.5054  0.3521  0.1662
42830SOL    HW130497   4.507   4.531   6.563 -0.3831 -1.6533 -1.9363
42830SOL    HW230498   4.514   4.609   6.433  0.5987  2.2728  0.3038
42831SOL     OW30499   4.832   1.254   0.368 -0.1757 -0.6816 -0.7493
42831SOL    HW130500   4.862   1.267   0.458  0.6651  0.6103 -1.1813
42831SOL    HW230501   4.893   1.189   0.331 -0.0556 -0.6527 -0.6015
42832SOL     OW30502   8.417   2.987   8.207 -0.2475 -0.7326 -0.1493
42832SOL    HW130503   8.373   3.006   8.290  0.1508 -0.7117  0.0595
42832SOL    HW230504   8.383   3.054   8.147 -1.0444 -1.1585 -0.1920
42833SOL     OW30505   7.967  10.802   8.699 -0.1529 -0.1155 -0.1665
42833SOL    HW130506   7.941  10.767   8.784  1.9578 -1.5040 -0.0387
42833SOL    HW230507   7.934  10.738   8.635  0.9863 -0.7392 -0.1490
42834SOL     OW30508   5.491   9.635   7.127 -0.4568 -0.1617 -0.5977
42834SOL    HW130509   5.534   9.635   7.042  0.2920 -0.8859 -0.2381
42834SOL    HW230510   5.547   9.689   7.183  0.0884 -1.2179 -0.0931
42835SOL     OW30511   4.709   6.008   9.093 -0.0585  0.1083 -0.3013
42835SOL    HW130512   4.739   5.974   9.008  1.1155 -0.7941  0.4329
42835SOL    HW230513   4.649   5.941   9.125  0.3748 -0.1117  0.0658
42836SOL     OW30514  10.819  10.732   2.681  0.1375 -0.5652  0.4344
42836SOL    HW130515  10.774  10.798   2.628  1.2425  1.0676  1.4569
42836SOL    HW230516  10.897  10.710   2.629  1.8557  1.9131  1.7754
42837SOL     OW30517  10.456   0.096   9.158  0.5443 -0.1294 -0.4819
42837SOL    HW130518  10.549   0.109   9.177  0.0564  0.5225  1.8690
42837SOL    HW230519  10.411   0.151   9.223 -1.4904 -0.0941 -1.8381
42838SOL     OW30520   0.472  10.343   6.245  1.0330  0.0159  0.2571
42838SOL    HW130521   0.567  10.333   6.259  1.0938  0.7640  0.4142
42838SOL    HW230522   0.465  10.397   6.167  0.7298 -0.1846  0.1461
42839SOL     OW30523   0.912  10.112   8.243 -0.1902 -0.2095 -0.4816
42839SOL    HW130524   0.831  10.138   8.287 -0.8029 -0.9372 -1.1334
42839SOL    HW230525   0.884  10.045   8.180  0.7619  0.3250 -1.4988
42840SOL     OW30526   4.355   4.741   7.751  0.4670  0.8687 -0.0779
42840SOL    HW130527   4.393   4.767   7.667 -0.3891  0.6532 -0.5355
42840SOL    HW230528   4.262   4.731   7.733 -0.1120  2.9516  1.3720
42841SOL     OW30529  10.326   5.002   5.621 -0.1260  0.9290  0.0458
42841SOL    HW130530  10.269   5.041   5.555 -2.3984  1.1555  1.9595
42841SOL    HW230531  10.267   4.945   5.671  2.0603 -1.2945  0.2769
42842SOL     OW30532   9.929  10.381   3.994 -0.9221 -0.3187 -0.6014
42842SOL    HW130533   9.934  10.307   3.934 -0.5718 -1.0006  0.2471
42842SOL    HW230534   9.945  10.343   4.080 -0.9139  0.7198 -0.1287
42843SOL     OW30535   0.300   3.256   6.455  0.3253  0.4940  0.1188
42843SOL    HW130536   0.306   3.160   6.453 -0.1452  0.3719  2.5128
42843SOL    HW230537   0.220   3.275   6.405 -0.1427 -0.4443  0.4761
42844SOL     OW30538   3.632   8.107   7.904  0.3374 -0.1479 -0.3409
42844SOL    HW130539   3.652   8.056   7.982 -0.6803  0.3381  0.2634
42844SOL    HW230540   3.577   8.049   7.851 -0.1312  0.0102 -0.0377
42845SOL     OW30541   3.502   1.408   9.372  0.0278  0.1635 -0.1346
42845SOL    HW130542   3.473   1.355   9.298 -1.1429  0.2056  0.2660
42845SOL    HW230543   3.522   1.345   9.441 -2.4351  0.2113  0.7178
42846SOL     OW30544  10.878   7.010  10.347 -0.6966 -0.0919 -0.0039
42846SOL    HW130545  10.904   6.960  10.270  1.5008 -2.0984  1.8797
42846SOL    HW230546  10.789   6.982  10.366 -0.1944 -1.8650 -0.1253
42847SOL     OW30547   0.383  10.164   6.023 -0.2915  0.2649 -0.1886
42847SOL    HW130548   0.387  10.220   6.100  0.6157  0.3007 -0.2438
42847SOL    HW230549   0.381  10.075   6.058 -2.0898  0.3075 -0.0930
42848SOL     OW30550   9.294   4.646  10.832  0.1582 -0.0197 -0.1158
42848SOL    HW130551   9.220   4.687  10.787  0.3105 -0.3793 -0.7091
42848SOL    HW230552   9.255   4.574  10.881 -0.1768  1.0543  1.2763
42849SOL     OW30553   1.990   1.134   7.870 -0.2682  0.8427 -0.3243
42849SOL    HW130554   1.905   1.123   7.912  1.2848  1.7003  3.4347
42849SOL    HW230555   2.036   1.052   7.888  0.9709  1.8200  1.1997
42850SOL     OW30556   5.460   8.030   5.411 -0.5493  0.4628  0.3808
42850SOL    HW130557   5.509   7.972   5.353  0.0353  1.2274  0.0992
42850SOL    HW230558   5.431   7.973   5.482  0.6106 -0.0524  0.4702
42851SOL     OW30559   8.277   6.940   0.281  0.7188 -0.1135  0.5572
42851SOL    HW130560   8.354   6.912   0.231 -0.6717 -0.2566 -1.6610
42851SOL    HW230561   8.279   7.035   0.276  0.8559 -0.1105  0.6660
42852SOL     OW30562   4.074   3.132   2.723  0.4278  0.5441 -0.0277
42852SOL    HW130563   4.018   3.055   2.736  0.6889  0.3024 -0.3451
42852SOL    HW230564   4.139   3.126   2.793 -1.3691  2.1350  1.9086
42853SOL     OW30565  10.103   6.218  10.281  0.3457 -0.5864  0.3487
42853SOL    HW130566  10.174   6.253  10.227 -0.2442  0.7858  0.4426
42853SOL    HW230567  10.148   6.169  10.350  1.2557  0.7277  0.7259
42854SOL     OW30568  11.101   4.088   2.243  0.1433 -0.0002 -0.4455
42854SOL    HW130569  11.076   4.148   2.172 -1.0852 -1.1645 -1.0323
42854SOL    HW230570  11.033   4.100   2.309  1.0249  0.7280  0.3518
42855SOL     OW30571   3.019   8.966   7.955  0.3159  0.7490 -0.1024
42855SOL    HW130572   2.977   8.957   8.041  0.2437 -0.5316 -0.2576
42855SOL    HW230573   2.949   8.947   7.892  1.0279 -1.2272 -0.3644
42856SOL     OW30574   1.768   1.538   5.093 -0.1994 -0.1659 -0.2019
42856SOL    HW130575   1.802   1.448   5.091 -1.2035 -0.5350 -1.1617
42856SOL    HW230576   1.717   1.547   5.013 -0.7586  1.0152  0.2602
42857SOL     OW30577   3.968   0.174   8.255 -0.1777 -0.6216 -0.1271
42857SOL    HW130578   3.928   0.094   8.219 -1.4288  0.5266 -1.3779
42857SOL    HW230579   3.896   0.235   8.267  0.2411 -0.6972  4.0100
42858SOL     OW30580  10.901   6.089   3.699 -0.1564 -0.0820  0.2054
42858SOL    HW130581  10.935   6.175   3.676 -0.3516 -0.2355 -0.6957
42858SOL    HW230582  10.815   6.084   3.657  0.8894 -1.6626 -1.9308
42859SOL     OW30583   7.182  10.370  10.445 -0.1361  0.2083  0.1766
42859SOL    HW130584   7.094  10.337  10.463 -0.6752  2.2162  1.5575
42859SOL    HW230585   7.199  10.344  10.355 -1.2068 -2.1435  0.5618
42860SOL     OW30586   1.115   2.398   5.221 -0.6375 -0.7453 -0.1092
42860SOL    HW130587   1.023   2.398   5.247 -0.5109 -1.0853  0.3418
42860SOL    HW230588   1.137   2.306   5.207 -0.0568 -0.7848  0.9215
42861SOL     OW30589   5.374   9.510   1.725  0.3368 -0.4459  0.4814
42861SOL    HW130590   5.349   9.425   1.689  1.2689 -0.6826  0.3497
42861SOL    HW230591   5.397   9.563   1.649 -1.2219  0.2875  0.4811
42862SOL     OW30592   5.457   1.688   9.182 -0.2512  0.2011 -0.1023
42862SOL    HW130593   5.453   1.669   9.276 -1.0333  0.0510 -0.1624
42862SOL    HW230594   5.485   1.780   9.178 -1.3932  0.5837  0.3144
42863SOL     OW30595   0.306   8.611   7.177  0.2697  0.2046  0.1226
42863SOL    HW130596   0.359   8.617   7.097 -0.0839 -1.6840 -0.2977
42863SOL    HW230597   0.231   8.669   7.161  0.8358  0.8209 -0.3727
42864SOL     OW30598   4.205   5.512   4.892  0.1727 -0.1449  0.2070
42864SOL    HW130599   4.273   5.578   4.878 -0.6501  1.0142  1.4742
42864SOL    HW230600   4.125   5.551   4.857 -0.0495 -1.1470 -0.4818
42865SOL     OW30601   5.062   5.822   1.464 -0.4236  0.2588 -0.1744
42865SOL    HW130602   5.134   5.862   1.415 -0.8057 -0.2548 -1.1800
42865SOL    HW230603   5.026   5.893   1.516 -0.2024  0.8975 -0.8743
42866SOL     OW30604   3.761   7.728   5.937  0.2233  0.0080 -0.5476
42866SOL    HW130605   3.842   7.679   5.923  0.5120  0.0567  0.7654
42866SOL    HW230606   3.693   7.676   5.894  0.8040 -0.5505 -0.8076
42867SOL     OW30607   4.871   5.651   0.183 -0.4699 -0.1169 -0.0113
42867SOL    HW130608   4.839   5.646   0.273 -2.1179 -0.7345 -0.5831
42867SOL    HW230609   4.799   5.693   0.135  0.8054  1.1972 -0.8742
42868SOL     OW30610   1.996   0.398   7.865 -0.0734 -0.0619 -0.7570
42868SOL    HW130611   1.920   0.443   7.828  0.1972 -0.0607 -1.3293
42868SOL    HW230612   1.985   0.406   7.960 -0.9320 -0.3120 -0.8240
42869SOL     OW30613   7.399   6.993   7.585 -0.2944  0.6002  0.4362
42869SOL    HW130614   7.425   7.083   7.567  1.8629  0.1037  0.7431
42869SOL    HW230615   7.447   6.970   7.665 -1.0096 -0.7323  0.5111
42870SOL     OW30616   4.501  10.593   4.720  0.4178 -0.1847 -0.6737
42870SOL    HW130617   4.448  10.620   4.645  0.2481 -0.1764 -0.5510
42870SOL    HW230618   4.533  10.675   4.758  2.1353 -0.2372 -1.9000
42871SOL     OW30619   0.498  10.656   3.597  0.3206  0.4767  0.0205
42871SOL    HW130620   0.497  10.745   3.563  0.6768  0.6897  0.5468
42871SOL    HW230621   0.466  10.602   3.525  1.1811  0.8940 -0.6919
42872SOL     OW30622  10.553   5.785   4.886  0.5926  0.5859  0.1972
42872SOL    HW130623  10.634   5.835   4.885  1.8303 -1.2994  0.2770
42872SOL    HW230624  10.580   5.695   4.906 -1.7263  0.2309  2.2758
42873SOL     OW30625   0.236   0.158   5.834 -0.3967  0.7064 -0.5505
42873SOL    HW130626   0.298   0.224   5.862 -0.7729  0.9044 -0.1667
42873SOL    HW230627   0.172   0.153   5.906 -1.5135  1.3902 -1.4657
42874SOL     OW30628   0.622   1.112   4.490  0.1354 -0.4559 -0.1956
42874SOL    HW130629   0.610   1.141   4.581  0.6315  0.1440 -0.3208
42874SOL    HW230630   0.534   1.086   4.462 -0.0206 -0.6640  0.4617
42875SOL     OW30631   8.008   0.018   9.990  0.6592  0.1654 -0.3403
42875SOL    HW130632   7.971  -0.053   9.937  0.0442  0.6322 -0.5498
42875SOL    HW230633   7.932   0.066  10.023  0.9490 -0.9947  2.2596
42876SOL     OW30634   8.016   0.080   3.382  0.1787 -0.1649 -0.2377
42876SOL    HW130635   7.922   0.090   3.395 -0.2750 -1.0966 -2.3638
42876SOL    HW230636   8.051   0.168   3.394 -1.0328  0.3005  0.0579
42877SOL     OW30637   4.446   6.444   7.572 -0.5312 -0.6903  0.2761
42877SOL    HW130638   4.457   6.349   7.569 -1.9631 -0.8608 -0.8962
42877SOL    HW230639   4.353   6.458   7.554  0.2234  1.0610 -3.3213
42878SOL     OW30640   9.865   8.785   2.878 -0.1982  0.1933  0.1963
42878SOL    HW130641   9.776   8.818   2.880 -0.3848 -0.2838  2.1663
42878SOL    HW230642   9.859   8.700   2.834 -0.5218  0.6257 -0.6056
42879SOL     OW30643   0.915  10.935   7.942 -0.0331  0.3489 -0.5061
42879SOL    HW130644   0.997  10.901   7.979 -0.6127 -0.3203  0.2031
42879SOL    HW230645   0.942  10.977   7.861  0.9654 -0.2143 -0.4960
42880SOL     OW30646   9.112   7.062  10.394 -0.2764 -0.2253 -0.5599
42880SOL    HW130647   9.176   6.999  10.426 -2.2453 -1.3036  1.5367
42880SOL    HW230648   9.063   7.089  10.472 -1.5659  1.4929 -1.8745
42881SOL     OW30649   2.808   0.183  10.284 -0.1943 -0.4971  0.7385
42881SOL    HW130650   2.824   0.091  10.306 -0.4891 -0.2568  2.0515
42881SOL    HW230651   2.791   0.225  10.368 -4.0734 -0.0346 -0.0711
42882SOL     OW30652   7.012   2.343   3.443 -0.3437 -0.3187 -0.1408
42882SOL    HW130653   6.946   2.348   3.374 -0.3060  1.2996 -0.1045
42882SOL    HW230654   7.002   2.424   3.492  1.9153  0.1856 -0.3758
42883SOL     OW30655   2.263  10.596   8.155  0.3231  0.0407 -0.2635
42883SOL    HW130656   2.257  10.605   8.250  1.1418 -1.1461 -0.0649
42883SOL    HW230657   2.316  10.670   8.127  2.3327 -0.9927  0.5808
42884SOL     OW30658   5.026   7.438   9.456 -0.1374  0.3742  0.2977
42884SOL    HW130659   5.072   7.359   9.484  0.0834  0.8410  1.2834
42884SOL    HW230660   4.933   7.417   9.464 -0.0836  0.1042  0.2252
42885SOL     OW30661   5.512   0.835   6.673  0.3766 -0.0610 -0.5545
42885SOL    HW130662   5.553   0.907   6.624  1.0927  0.9135  1.3430
42885SOL    HW230663   5.584   0.797   6.723 -0.6406  0.3880  1.3374
42886SOL     OW30664   4.212   9.712   8.135 -0.3509 -0.1036  0.1990
42886SOL    HW130665   4.245   9.774   8.199 -0.4265  0.7315 -0.5523
42886SOL    HW230666   4.257   9.735   8.054 -0.5724 -0.8675 -0.1484
42887SOL     OW30667   0.916   9.814   6.108 -0.5740  0.6718 -0.0139
42887SOL    HW130668   0.998   9.854   6.136  0.3140 -0.9393 -0.2114
42887SOL    HW230669   0.908   9.838   6.015 -0.8633  1.6655  0.2559
42888SOL     OW30670  10.297   3.574   1.613  0.2438 -0.0537 -0.4291
42888SOL    HW130671  10.376   3.597   1.564  0.6080  0.9038  0.5761
42888SOL    HW230672  10.234   3.641   1.587  0.9107  1.4055  1.5308
42889SOL     OW30673   3.949   1.760  11.049 -0.1107  0.2670  0.0865
42889SOL    HW130674   3.954   1.711  10.967  0.8162  0.2359  0.1574
42889SOL    HW230675   3.988   1.845  11.028  0.4871  0.1218  0.5940
42890SOL     OW30676   0.304   4.011   5.636  0.7446  0.4205 -0.1632
42890SOL    HW130677   0.316   4.024   5.542  2.2567 -0.4630 -0.1286
42890SOL    HW230678   0.343   3.925   5.653 -0.6491 -0.0091  1.0754
42891SOL     OW30679   3.954   3.585   9.039  0.4264 -0.2590  0.9617
42891SOL    HW130680   4.008   3.581   9.118 -0.3655  1.7944  1.6798
42891SOL    HW230681   3.873   3.628   9.068  0.3737  1.1402 -1.0716
42892SOL     OW30682  10.896   3.960   5.970  0.1509 -0.3179  0.3991
42892SOL    HW130683  10.915   4.050   5.996 -0.7867  0.4488 -1.3872
42892SOL    HW230684  10.959   3.907   6.019  0.9293  1.3184  1.2490
42893SOL     OW30685   0.146   5.646   8.999 -0.1737  0.1516 -0.2258
42893SOL    HW130686   0.099   5.705   9.058  0.3845 -1.1574  1.6187
42893SOL    HW230687   0.208   5.600   9.056  2.1790  0.5777 -2.2676
42894SOL     OW30688   8.634   9.968   0.884  0.2545  0.1048 -0.1076
42894SOL    HW130689   8.577   9.940   0.956  1.1648  0.8988  0.9610
42894SOL    HW230690   8.670   9.887   0.849 -0.5834 -0.3228 -0.0073
42895SOL     OW30691   4.032   9.937   7.599 -0.2388  0.1544  0.3497
42895SOL    HW130692   4.069   9.855   7.631 -1.0249  0.1749  1.3836
42895SOL    HW230693   3.957   9.953   7.657 -1.3366  0.5449 -1.1332
42896SOL     OW30694  10.761   1.487   6.859 -0.2269  0.4242 -0.6162
42896SOL    HW130695  10.846   1.520   6.888 -1.3943  0.4485  3.3480
42896SOL    HW230696  10.711   1.566   6.836 -0.1594  0.7265  0.2147
42897SOL     OW30697  10.442   8.652   8.050  0.6097 -0.1856 -0.0448
42897SOL    HW130698  10.376   8.663   8.118  0.6387 -0.3839  0.0163
42897SOL    HW230699  10.476   8.563   8.063  0.6350 -0.2155 -0.3013
42898SOL     OW30700   7.812   1.040   6.999  0.9151  0.0686 -0.9516
42898SOL    HW130701   7.811   0.946   7.016  0.9082  0.1032 -0.7607
42898SOL    HW230702   7.861   1.049   6.917  0.5953 -0.1324 -1.1644
42899SOL     OW30703   4.090   2.398   5.930  0.0060  0.0721 -0.3277
42899SOL    HW130704   4.064   2.354   6.011  1.4784 -0.1276  0.0656
42899SOL    HW230705   4.053   2.486   5.937 -0.1032 -0.0302  0.4429
42900SOL     OW30706   0.241   2.057   3.113 -0.3557 -0.5264 -0.0571
42900SOL    HW130707   0.314   2.005   3.148 -0.4824 -1.2258 -0.7803
42900SOL    HW230708   0.163   2.013   3.147 -0.4601 -0.7406 -0.5560
42901SOL     OW30709   9.828   1.069   8.938 -0.0043 -0.9271  0.7567
42901SOL    HW130710   9.846   1.016   8.860 -0.3299 -0.8947  0.6551
42901SOL    HW230711   9.865   1.020   9.011 -1.4875 -1.9928  0.8489
42902SOL     OW30712   9.938   7.197   8.782 -0.0427 -0.0177 -0.1186
42902SOL    HW130713  10.032   7.215   8.782 -0.2442  1.3455 -1.8261
42902SOL    HW230714   9.900   7.269   8.833 -0.2521  0.1178 -0.4625
42903SOL     OW30715   3.903   6.208   2.876  0.0729 -0.1374 -0.5162
42903SOL    HW130716   3.947   6.199   2.960 -0.3058  1.3806 -0.1317
42903SOL    HW230717   3.844   6.283   2.887  2.0356  1.9451 -2.9470
42904SOL     OW30718   1.295   9.333   7.979  0.2482 -0.2687  0.2408
42904SOL    HW130719   1.236   9.364   8.047 -1.0864  1.9572 -1.7730
42904SOL    HW230720   1.375   9.385   7.992 -0.4327  1.0404 -0.5126
42905SOL     OW30721   0.821   6.183   4.645 -0.5911 -0.3155  0.1121
42905SOL    HW130722   0.739   6.152   4.682 -1.4853  1.6662 -0.0729
42905SOL    HW230723   0.796   6.258   4.591  0.9977 -1.3789 -2.2913
42906SOL     OW30724   2.873   8.686   7.418 -0.5671  0.1135 -0.0026
42906SOL    HW130725   2.931   8.652   7.351 -2.3652 -2.0469 -0.5699
42906SOL    HW230726   2.923   8.678   7.500  0.4331 -0.3605 -0.6488
42907SOL     OW30727   2.716   2.376   7.687  0.0359  0.4712  0.2285
42907SOL    HW130728   2.697   2.330   7.605 -1.0014 -1.5590  1.5411
42907SOL    HW230729   2.642   2.435   7.699  1.2484  2.4772 -1.3278
42908SOL     OW30730   4.597  10.391   5.639  0.0052  0.3349  0.0649
42908SOL    HW130731   4.640  10.429   5.716  1.4299 -1.4445  0.2070
42908SOL    HW230732   4.665  10.338   5.597 -0.1855  2.5460 -3.4395
42909SOL     OW30733   6.576   0.525   5.413 -0.3140 -0.2607 -0.0382
42909SOL    HW130734   6.519   0.449   5.419 -0.2724 -0.2572  0.4153
42909SOL    HW230735   6.645   0.498   5.352  1.2139 -1.5938  2.1126
42910SOL     OW30736  10.590   5.812   2.811  0.3718 -0.8534  0.0895
42910SOL    HW130737  10.569   5.853   2.895 -0.9398  1.3769 -1.2344
42910SOL    HW230738  10.542   5.863   2.746  0.1151 -3.4260 -1.9241
42911SOL     OW30739   7.463   4.460   8.930  0.3154 -0.4411 -0.1401
42911SOL    HW130740   7.389   4.521   8.929  0.9935  0.3822  0.2314
42911SOL    HW230741   7.436   4.390   8.869 -0.6692 -0.0368 -0.1840
42912SOL     OW30742   0.871   4.349  10.544  0.3949 -0.3874 -0.0066
42912SOL    HW130743   0.883   4.316  10.633 -0.3182 -0.8542 -0.0800
42912SOL    HW230744   0.805   4.292  10.506 -0.3754  0.7158 -0.3565
42913SOL     OW30745   2.840   0.236   4.299 -0.1764 -0.4138 -0.2432
42913SOL    HW130746   2.818   0.150   4.335 -0.3037  0.3837  1.6968
42913SOL    HW230747   2.761   0.262   4.251 -0.2628 -1.2058 -0.5540
42914SOL     OW30748   8.526  11.034   6.649 -0.4866  0.4246  0.5244
42914SOL    HW130749   8.452  11.002   6.702 -0.6812  1.1906  0.7411
42914SOL    HW230750   8.603  11.020   6.704 -0.0464 -2.8847 -0.7462
42915SOL     OW30751   1.316   3.755  10.427 -0.1661  0.5247 -0.3320
42915SOL    HW130752   1.321   3.833  10.483  1.0522  1.4178 -1.6203
42915SOL    HW230753   1.266   3.692  10.478 -0.1326  1.7274  1.2502
42916SOL     OW30754   2.352   5.930   9.020  0.0727  0.3688  0.1003
42916SOL    HW130755   2.328   5.995   8.954 -0.4266 -0.8616 -0.9806
42916SOL    HW230756   2.448   5.935   9.025  0.1354  0.3470 -0.8747
42917SOL     OW30757   4.771  10.977  10.479  0.0544 -0.3571 -0.0613
42917SOL    HW130758   4.706  10.918  10.441  1.0695 -1.1148 -0.6852
42917SOL    HW230759   4.820  10.922  10.540  1.1238 -0.2255 -0.7810
42918SOL     OW30760   0.045   4.176   7.496 -0.1183 -0.5585 -0.4656
42918SOL    HW130761   0.119   4.120   7.518  0.8264  0.6599 -0.4405
42918SOL    HW230762   0.020   4.216   7.579  1.1686  1.3374 -0.9373
42919SOL     OW30763   6.795   4.109  10.582 -0.8805  0.0523 -0.0739
42919SOL    HW130764   6.794   4.013  10.578  0.2360  0.0417 -0.5426
42919SOL    HW230765   6.888   4.132  10.573 -1.0455  1.1479  0.7799
42920SOL     OW30766   6.941   5.784   6.192  0.3803  0.8050  0.4594
42920SOL    HW130767   6.964   5.873   6.165  0.8259  0.8537  0.9749
42920SOL    HW230768   6.974   5.728   6.121  0.2202  1.0377  0.1998
42921SOL     OW30769   3.524   0.695   2.897  0.0377  0.0943 -0.8485
42921SOL    HW130770   3.496   0.769   2.845 -0.1403 -0.1819 -1.1486
42921SOL    HW230771   3.616   0.682   2.874  0.4091  0.9484  0.0760
42922SOL     OW30772   3.060   0.107   2.099 -0.3964  0.0736 -0.0127
42922SOL    HW130773   3.092   0.049   2.169 -0.7161 -1.1043 -0.8049
42922SOL    HW230774   3.125   0.177   2.096 -1.8321  1.7926  3.3661
42923SOL     OW30775   6.173   7.928   7.210 -0.2300  0.2892  0.1722
42923SOL    HW130776   6.224   7.854   7.241  0.7881  0.9593  0.1387
42923SOL    HW230777   6.151   7.907   7.120  0.5043  0.2659 -0.0029
42924SOL     OW30778   8.027   0.431   2.316  0.3450  0.6629 -0.0544
42924SOL    HW130779   8.119   0.423   2.342  0.0779  0.6238  0.9247
42924SOL    HW230780   7.991   0.343   2.331  0.3648  0.4109 -1.3676
42925SOL     OW30781   9.433   1.725   9.502  0.0854  0.2516  0.1525
42925SOL    HW130782   9.443   1.799   9.441 -1.0877 -0.1007 -0.5037
42925SOL    HW230783   9.465   1.649   9.453  1.9911  0.3999  1.0948
42926SOL     OW30784   0.807   3.250   6.524  0.8344 -0.1070  0.0467
42926SOL    HW130785   0.776   3.290   6.605  1.0010  1.4451 -0.6266
42926SOL    HW230786   0.736   3.263   6.462  0.8687 -0.9387 -0.1860
42927SOL     OW30787  10.618   3.260  10.470  0.3472  0.0667 -0.0185
42927SOL    HW130788  10.665   3.344  10.476  1.7207 -0.8011  2.6076
42927SOL    HW230789  10.687   3.194  10.462 -0.0353 -1.3592  5.0173
42928SOL     OW30790   1.659   7.705   9.511 -0.4545  0.0721  1.1335
42928SOL    HW130791   1.623   7.736   9.428 -1.6478  1.4730  2.1251
42928SOL    HW230792   1.621   7.617   9.521 -0.5664  0.0225  0.3752
42929SOL     OW30793   4.492   8.510   6.018 -0.1734 -0.0662 -0.1763
42929SOL    HW130794   4.460   8.567   5.949 -0.5887  0.7322  0.6705
42929SOL    HW230795   4.415   8.486   6.069  0.5287  2.3793  2.2643
42930SOL     OW30796   8.371   9.079   4.253 -0.0992  0.1358  0.8383
42930SOL    HW130797   8.448   9.109   4.205 -0.1061  1.1148  1.4145
42930SOL    HW230798   8.302   9.073   4.188  0.0918  0.6890  0.5787
42931SOL     OW30799   1.487  10.074   5.551 -0.0775  0.2018 -0.4888
42931SOL    HW130800   1.421  10.047   5.614  0.4050  0.9006  0.3337
42931SOL    HW230801   1.524  10.155   5.587 -0.5351  1.2269 -2.1776
42932SOL     OW30802   9.192   9.605   6.427 -0.2992  0.5441  0.5579
42932SOL    HW130803   9.219   9.520   6.462 -0.4534  0.0955 -0.3865
42932SOL    HW230804   9.097   9.597   6.418 -0.1382  0.1966 -1.0948
42933SOL     OW30805   0.235   3.480   8.172 -0.7804  0.1537  0.6145
42933SOL    HW130806   0.324   3.499   8.202 -0.4926  2.2364 -1.2745
42933SOL    HW230807   0.179   3.499   8.247  0.2234  0.7059  1.2406
42934SOL     OW30808   8.329   3.809   9.772 -0.0480 -0.5643  0.5506
42934SOL    HW130809   8.310   3.883   9.830 -0.5695 -0.7872  0.6764
42934SOL    HW230810   8.282   3.830   9.690 -0.9205 -1.1478  0.8817
42935SOL     OW30811   0.270   7.861   4.731 -0.1701  0.0538  0.1118
42935SOL    HW130812   0.325   7.914   4.789  0.1676 -1.2777  1.0676
42935SOL    HW230813   0.188   7.851   4.779  0.0655 -0.9462  0.3435
42936SOL     OW30814   9.967   7.467   8.380  0.8109  0.0450  0.1638
42936SOL    HW130815   9.949   7.501   8.292  0.7170 -0.0693  0.1386
42936SOL    HW230816  10.028   7.395   8.365  1.4115  0.5257  0.2621
42937SOL     OW30817   4.779   3.887   0.382 -0.1084 -0.5453  0.1420
42937SOL    HW130818   4.745   3.822   0.321 -2.7799  0.1219  0.7801
42937SOL    HW230819   4.861   3.849   0.415 -0.2329 -2.3444 -1.4470
42938SOL     OW30820   8.862   2.989   9.230  0.2291  0.1668 -0.4492
42938SOL    HW130821   8.883   2.935   9.154  1.8082  2.4653 -1.7670
42938SOL    HW230822   8.942   3.040   9.246 -1.1208  2.0247  0.7719
42939SOL     OW30823   3.407   0.089   9.492 -0.5346  0.1111 -0.5914
42939SOL    HW130824   3.380   0.072   9.582  0.0178  1.8046 -0.0535
42939SOL    HW230825   3.340   0.047   9.438 -1.5776  0.1420  0.6272
42940SOL     OW30826   3.954   3.070   8.011 -0.0165  0.6834 -0.2895
42940SOL    HW130827   3.906   2.990   7.989  0.4393 -0.1349  1.4601
42940SOL    HW230828   3.950   3.075   8.106  2.4128  1.1516 -0.1315
42941SOL     OW30829   9.522   0.622   0.465 -0.0931  0.1311 -0.0424
42941SOL    HW130830   9.444   0.569   0.481  0.3318 -0.2436  0.8272
42941SOL    HW230831   9.514   0.650   0.373 -1.6854  0.8412  0.2799
42942SOL     OW30832   2.774   1.596   6.878  0.0602  0.0819 -0.6167
42942SOL    HW130833   2.777   1.673   6.935 -2.3158  0.6588 -1.1555
42942SOL    HW230834   2.690   1.602   6.834  0.4373 -2.0794 -1.7879
42943SOL     OW30835   6.609   9.161   5.504  0.4964  0.3717  0.4110
42943SOL    HW130836   6.687   9.123   5.544 -0.3256 -1.7740  0.1226
42943SOL    HW230837   6.571   9.090   5.453 -1.1144  1.6451 -0.2795
42944SOL     OW30838   2.755  10.831   4.708  0.3753  0.0846 -0.0578
42944SOL    HW130839   2.692  10.777   4.757  0.1918  1.1437  0.9305
42944SOL    HW230840   2.702  10.870   4.638 -0.1125  0.9702  0.7682
42945SOL     OW30841   4.683  10.528   0.832  0.0723  0.2330  0.1142
42945SOL    HW130842   4.668  10.618   0.804  2.1834  0.7389  0.3946
42945SOL    HW230843   4.770  10.530   0.872 -0.5541 -1.5675  1.7579
42946SOL     OW30844   2.274   2.523   6.609 -0.3253  0.4652 -0.2324
42946SOL    HW130845   2.184   2.502   6.582  0.0324  1.6824 -2.6307
42946SOL    HW230846   2.309   2.440   6.641 -1.7142 -0.4716 -1.0068
42947SOL     OW30847   6.568   9.169   5.157 -0.7505 -0.0996  0.2987
42947SOL    HW130848   6.512   9.156   5.233 -1.9803  1.1737 -0.3502
42947SOL    HW230849   6.642   9.221   5.190 -1.4234  0.6988  0.5758
42948SOL     OW30850  10.094  10.286   1.362  0.4896  0.2798 -0.2928
42948SOL    HW130851  10.029  10.355   1.364  0.6329  0.4008  0.3942
42948SOL    HW230852  10.062  10.220   1.423  0.2115 -0.4010 -1.1503
42949SOL     OW30853   3.800   0.192  11.092  0.4833  0.2153 -0.7110
42949SOL    HW130854   3.852   0.245  11.153  0.3625 -0.2074 -0.2363
42949SOL    HW230855   3.864   0.134  11.051  0.2326 -1.0969  0.7107
42950SOL     OW30856   0.888   5.600   9.447  1.0082  0.0809  0.1328
42950SOL    HW130857   0.943   5.623   9.522  2.0332 -0.0874 -0.5464
42950SOL    HW230858   0.801   5.590   9.484  1.2462  1.2450  1.0992
42951SOL     OW30859   5.782   5.185   1.191 -0.0224 -0.6345 -0.2576
42951SOL    HW130860   5.797   5.179   1.285  0.2921  0.8360 -0.1997
42951SOL    HW230861   5.863   5.224   1.156 -1.1466  1.3343 -0.7793
42952SOL     OW30862  10.768   6.494   9.658  0.7358 -0.4525 -0.1167
42952SOL    HW130863  10.756   6.464   9.568 -1.8074 -0.8501  0.2799
42952SOL    HW230864  10.763   6.589   9.653  0.4127 -0.4829 -0.3870
42953SOL     OW30865   9.826   0.925   6.714 -0.2797 -0.0175  0.1460
42953SOL    HW130866   9.835   1.006   6.764 -0.5399 -0.3815  0.7843
42953SOL    HW230867   9.788   0.862   6.775 -1.3535 -0.2524 -0.7163
42954SOL     OW30868  10.853   8.917   1.708 -0.4036 -0.2003  0.0217
42954SOL    HW130869  10.863   9.003   1.749 -1.5716 -0.5381  1.0480
42954SOL    HW230870  10.779   8.877   1.752  0.1858 -1.8037 -0.3652
42955SOL     OW30871   9.482   6.567   8.914 -1.6118  0.2294  0.0259
42955SOL    HW130872   9.540   6.494   8.893 -0.0839  0.8655  1.7475
42955SOL    HW230873   9.411   6.561   8.850 -1.4095 -2.5799 -0.0586
42956SOL     OW30874   2.209   8.243   6.418 -0.5523  0.3673  0.1313
42956SOL    HW130875   2.229   8.322   6.368  0.7730 -0.6469 -1.0320
42956SOL    HW230876   2.294   8.214   6.451 -1.0016 -0.6317  0.4443
42957SOL     OW30877   8.872   8.088  10.729 -0.2908 -0.1239  0.1722
42957SOL    HW130878   8.811   8.143  10.679 -0.6532 -0.1207  0.6203
42957SOL    HW230879   8.847   8.100  10.820  0.7441  0.3220  0.4140
42958SOL     OW30880   8.320   9.442   8.770 -0.5062  0.0153  0.5162
42958SOL    HW130881   8.361   9.357   8.786 -1.3559 -0.3716  0.6639
42958SOL    HW230882   8.226   9.426   8.780 -0.7195  0.8248 -0.1105
42959SOL     OW30883   9.522   9.651   0.987 -0.5476  0.1678  0.0295
42959SOL    HW130884   9.574   9.573   0.968 -4.0831 -2.0711 -1.3968
42959SOL    HW230885   9.520   9.699   0.904 -2.7852 -1.2126 -0.8221
42960SOL     OW30886  10.877   9.549   2.251  0.1811 -0.0560 -0.1724
42960SOL    HW130887  10.937   9.520   2.320  0.5337  1.3175  0.1484
42960SOL    HW230888  10.792   9.554   2.293  0.4998  1.3532  0.3826
42961SOL     OW30889   6.417   9.131   0.786  0.4235  0.4975 -0.5195
42961SOL    HW130890   6.369   9.070   0.730 -2.2193  1.3843  0.6215
42961SOL    HW230891   6.406   9.216   0.744  1.3543  0.6784 -0.4212
42962SOL     OW30892   5.353   2.796   2.689  0.2539  0.5715  0.9903
42962SOL    HW130893   5.298   2.865   2.652 -0.6718  0.2321  1.6918
42962SOL    HW230894   5.308   2.715   2.668  1.8035  0.0805 -0.6077
42963SOL     OW30895   1.873   1.339   1.162  0.1776  0.2514  0.5050
42963SOL    HW130896   1.799   1.355   1.221 -2.0299 -0.9640 -1.7656
42963SOL    HW230897   1.855   1.393   1.085  0.9157 -1.1095 -0.6651
42964SOL     OW30898   7.506  10.844   9.322  0.1647 -0.0495 -0.1852
42964SOL    HW130899   7.414  10.871   9.318  0.6091  1.3877 -2.7777
42964SOL    HW230900   7.535  10.870   9.410 -1.6072  0.5156  0.2677
42965SOL     OW30901  10.984   9.798   7.868 -0.3129  0.1566 -0.6128
42965SOL    HW130902  11.030   9.716   7.886 -0.6173  0.2357  0.5431
42965SOL    HW230903  11.025   9.830   7.787  0.7022 -0.4767 -0.3706
42966SOL     OW30904   8.712   9.794   8.725  0.1716  0.0190  0.1530
42966SOL    HW130905   8.660   9.854   8.671  2.6918 -0.0170 -2.5893
42966SOL    HW230906   8.649   9.727   8.753 -1.7294  1.2891 -0.8425
42967SOL     OW30907   8.122  10.724   9.982 -1.0041  0.7413  0.3990
42967SOL    HW130908   8.107  10.659   9.913 -1.0035  2.4293 -1.2850
42967SOL    HW230909   8.037  10.735  10.023 -1.4398  1.0208 -0.5565
42968SOL     OW30910   0.710   1.055   5.665  0.1007  0.2636  0.0616
42968SOL    HW130911   0.727   0.981   5.607 -2.3278  0.7072 -1.3170
42968SOL    HW230912   0.789   1.109   5.658  0.2244 -0.1098 -2.2199
42969SOL     OW30913   6.364   2.907   1.728  0.3444  0.2751  0.6884
42969SOL    HW130914   6.346   2.884   1.820 -0.4500  1.7734  0.9514
42969SOL    HW230915   6.296   2.862   1.679  0.2172  0.1933  0.9347
42970SOL     OW30916  10.096  10.772   9.365  0.2244  0.3661  0.3631
42970SOL    HW130917  10.174  10.755   9.312 -0.6715  0.7982 -1.1766
42970SOL    HW230918  10.086  10.867   9.363 -0.6406  0.2789  0.0776
42971SOL     OW30919  10.947   0.639   3.347 -0.1294  0.2894  0.2728
42971SOL    HW130920  10.967   0.546   3.339  0.0213 -0.1968  4.1763
42971SOL    HW230921  10.853   0.645   3.334 -0.5650 -0.9180  2.3354
42972SOL     OW30922   0.976   9.472   1.323  0.5640  0.0170  0.2118
42972SOL    HW130923   1.001   9.549   1.272  1.0947 -0.3601 -0.1140
42972SOL    HW230924   1.054   9.417   1.322  0.6100  0.0326  1.4999
42973SOL     OW30925   9.973   0.064   0.351 -0.1526 -0.4952 -0.3228
42973SOL    HW130926   9.988   0.132   0.285 -1.6867  0.2084  0.0029
42973SOL    HW230927   9.909   0.006   0.311 -0.5656 -0.4558  0.2727
42974SOL     OW30928   0.129   2.531   6.720 -0.6993  0.2058 -0.1540
42974SOL    HW130929   0.135   2.437   6.699 -1.0911  0.0643  0.3443
42974SOL    HW230930   0.036   2.552   6.708 -0.7091  0.4027  0.2424
42975SOL     OW30931  10.825   3.453  10.209 -0.7131  0.3551 -0.3551
42975SOL    HW130932  10.889   3.511  10.167 -0.7482  1.2821  0.8047
42975SOL    HW230933  10.866   3.430  10.293 -1.5258  0.2658  0.0248
42976SOL     OW30934   4.429   2.696   5.696 -0.4213 -0.4926 -0.5500
42976SOL    HW130935   4.384   2.780   5.686  1.0594  0.3227 -0.6851
42976SOL    HW230936   4.496   2.696   5.628  0.0730 -1.4754 -0.0914
42977SOL     OW30937   9.643   3.974   9.260 -0.3161 -0.7535  0.3272
42977SOL    HW130938   9.671   3.938   9.175  0.6831 -1.8379  1.0833
42977SOL    HW230939   9.549   3.956   9.263 -0.2683 -1.1822 -0.3329
42978SOL     OW30940   2.535   5.500   2.893 -0.1130  0.4790  0.0630
42978SOL    HW130941   2.495   5.476   2.977 -0.8926 -1.0205 -0.7107
42978SOL    HW230942   2.597   5.429   2.874  0.4657  1.0882 -0.3738
42979SOL     OW30943   5.874   6.183  10.911 -0.2269 -0.4094  0.1795
42979SOL    HW130944   5.863   6.193  10.817  0.5554  0.0214  0.1210
42979SOL    HW230945   5.796   6.135  10.940 -0.8783  0.1727 -0.5583
42980SOL     OW30946   9.949   2.183   6.812 -0.4703  0.2704  0.2327
42980SOL    HW130947   9.882   2.137   6.863 -2.0095 -0.3392 -2.1429
42980SOL    HW230948  10.029   2.132   6.827 -0.7684  0.3103  2.2139
42981SOL     OW30949   9.584   4.154   2.726 -0.3326  0.4982 -0.1133
42981SOL    HW130950   9.552   4.239   2.697  0.1036  0.6413 -0.1930
42981SOL    HW230951   9.626   4.117   2.648  1.2876  1.0971  0.4183
42982SOL     OW30952   8.724   7.555  10.390  0.1022 -0.0940 -0.1775
42982SOL    HW130953   8.764   7.544  10.477 -0.0376  0.3256 -0.0604
42982SOL    HW230954   8.798   7.549  10.329  0.4475  1.2477  0.0681
42983SOL     OW30955   0.452   6.252   5.325 -0.3826 -0.0580  0.0387
42983SOL    HW130956   0.546   6.253   5.344 -0.3926 -1.5224  0.2584
42983SOL    HW230957   0.445   6.210   5.239 -0.7592  1.3362 -0.6465
42984SOL     OW30958   9.482   7.631   2.531 -0.1910 -0.6354 -0.1662
42984SOL    HW130959   9.420   7.561   2.551  0.4611 -0.4593  3.0123
42984SOL    HW230960   9.479   7.688   2.607  2.9934  0.0226 -0.3824
42985SOL     OW30961  10.458   1.400   1.263 -0.2621 -0.0615 -0.4496
42985SOL    HW130962  10.553   1.412   1.255 -0.4265  1.0166 -0.9907
42985SOL    HW230963  10.438   1.331   1.200  0.2948 -1.0653  0.4401
42986SOL     OW30964  10.117   1.345   8.043  0.6505  0.3832  0.5377
42986SOL    HW130965  10.066   1.425   8.029 -0.6914 -0.1923  1.8205
42986SOL    HW230966  10.180   1.368   8.111 -0.6104  0.0633  1.8855
42987SOL     OW30967   9.300   7.221   5.967 -0.2242 -0.1792 -0.2079
42987SOL    HW130968   9.255   7.203   5.885 -0.7661 -0.5698  0.1694
42987SOL    HW230969   9.230   7.243   6.029  0.1836  0.2076  0.1266
42988SOL     OW30970   8.654   5.829   5.912 -0.0453  0.3821 -0.0242
42988SOL    HW130971   8.723   5.763   5.921  1.0358  1.3122 -1.1497
42988SOL    HW230972   8.577   5.788   5.952  1.3848 -0.2746  2.2956
42989SOL     OW30973   7.109   8.516   9.655  0.2090 -0.4876 -0.0770
42989SOL    HW130974   7.078   8.606   9.669 -1.1882 -0.9142 -0.2478
42989SOL    HW230975   7.030   8.462   9.664  1.0570 -1.7215  0.2104
42990SOL     OW30976   2.147   9.934   1.011  0.0272  0.3980  0.0788
42990SOL    HW130977   2.205  10.007   1.032 -0.3278 -0.1044  3.3765
42990SOL    HW230978   2.206   9.862   0.988  0.4516  1.1603 -1.2942
42991SOL     OW30979   6.345   0.698   1.542 -0.1727 -0.9126  0.4598
42991SOL    HW130980   6.411   0.753   1.584 -2.5479  1.1206  1.8074
42991SOL    HW230981   6.355   0.717   1.448 -0.5857  1.6104  0.8312
42992SOL     OW30982  11.021   1.409  10.642  0.0647 -0.0934 -0.3582
42992SOL    HW130983  11.108   1.411  10.683  0.2361 -1.4954 -0.6113
42992SOL    HW230984  11.037   1.426  10.550 -0.0280  0.4630 -0.2742
42993SOL     OW30985  10.600   7.463   0.906 -0.1859 -0.2870  0.3926
42993SOL    HW130986  10.586   7.383   0.957 -0.2041 -0.4563  0.1259
42993SOL    HW230987  10.667   7.511   0.955  0.1405 -0.6670  0.3322
42994SOL     OW30988   2.905   4.664   3.038  0.2522 -0.4132 -0.5942
42994SOL    HW130989   2.946   4.750   3.026  1.4167 -1.2234 -3.0389
42994SOL    HW230990   2.917   4.620   2.954  0.2426 -3.2015  0.7662
42995SOL     OW30991   7.674   8.383   7.118  0.1498  0.0578 -0.8096
42995SOL    HW130992   7.591   8.350   7.151  1.0879 -1.5030  0.1130
42995SOL    HW230993   7.727   8.399   7.196  0.2498  2.4860 -1.2925
42996SOL     OW30994   5.835   7.146   5.479  0.2363  0.2042 -0.4838
42996SOL    HW130995   5.900   7.135   5.548  0.2564 -3.3061 -0.8645
42996SOL    HW230996   5.886   7.141   5.398 -0.2917 -1.7045 -0.7622
42997SOL     OW30997   5.231   5.275   8.771  0.6067 -0.2108  0.1117
42997SOL    HW130998   5.256   5.245   8.683  0.4159  0.6059 -0.2257
42997SOL    HW230999   5.261   5.366   8.775 -2.5119  0.9660 -0.4328
42998SOL     OW31000   9.335   9.528   7.057 -0.2748  0.0242 -0.3498
42998SOL    HW131001   9.309   9.528   7.149  3.3118  1.4510  0.8549
42998SOL    HW231002   9.270   9.583   7.014 -1.3600  0.3522  1.5906
42999SOL     OW31003   1.641   5.170   8.592 -0.5939  0.1168  0.5374
42999SOL    HW131004   1.641   5.253   8.543  1.6472 -0.6699 -0.9348
42999SOL    HW231005   1.719   5.176   8.648 -0.1838 -1.1186  0.1278
43000SOL     OW31006   8.346   9.798   0.576 -0.0259 -1.1200  0.5537
43000SOL    HW131007   8.271   9.793   0.517 -0.2382 -0.1385  0.7170
43000SOL    HW231008   8.318   9.858   0.645  1.0254 -0.4870  0.4487
43001SOL     OW31009   4.605   8.854   1.376  0.7199 -0.5475 -0.1892
43001SOL    HW131010   4.587   8.948   1.371 -2.0900 -0.8999  1.3976
43001SOL    HW231011   4.532   8.818   1.426  1.1157 -3.7716 -1.6938
43002SOL     OW31012   0.003   4.416   6.956 -0.2443  0.3652  0.3585
43002SOL    HW131013  -0.074   4.469   6.936  0.0043  0.9731  0.9656
43002SOL    HW231014   0.042   4.397   6.870  0.8983  3.0550  0.1583
43003SOL     OW31015   7.245   5.876  10.890 -0.2444  0.5806 -0.3136
43003SOL    HW131016   7.169   5.880  10.832 -0.2353  0.4385 -0.3344
43003SOL    HW231017   7.234   5.951  10.950 -0.0192  1.0002 -0.7846
43004SOL     OW31018   1.666   9.464   4.862 -0.4365  0.2040  0.4439
43004SOL    HW131019   1.751   9.507   4.876 -0.7767  0.1818  3.0074
43004SOL    HW231020   1.682   9.372   4.886 -1.2192  0.2516  1.1955
43005SOL     OW31021   0.649  11.006   3.222  0.1534 -0.1368  0.4628
43005SOL    HW131022   0.725  11.063   3.206  0.1393  0.7994  3.2337
43005SOL    HW231023   0.573  11.060   3.200  0.1522  0.9271  2.8026
43006SOL     OW31024   3.906   9.263   7.063 -0.0144  0.0179 -0.1792
43006SOL    HW131025   3.888   9.203   6.992  1.1045  0.8230 -1.1893
43006SOL    HW231026   4.000   9.280   7.057  0.1774 -0.1428  1.7050
43007SOL     OW31027   1.507   5.210   2.766 -0.3188  0.2242  0.1734
43007SOL    HW131028   1.501   5.301   2.796 -0.0691  0.3230 -0.0716
43007SOL    HW231029   1.597   5.184   2.782  0.0479  0.5555 -1.2392
43008SOL     OW31030   6.292   2.722   8.251 -0.3555 -0.6867 -0.7065
43008SOL    HW131031   6.260   2.806   8.284  0.7597 -0.1771 -0.8641
43008SOL    HW231032   6.330   2.678   8.327 -2.7196 -1.9796 -0.1800
43009SOL     OW31033   1.045   6.724   3.872 -0.1510  0.1104 -0.3955
43009SOL    HW131034   1.130   6.691   3.901  0.0546  0.6686 -0.3499
43009SOL    HW231035   1.059   6.818   3.859 -1.0199  0.4044  0.6214
43010SOL     OW31036   3.181  11.008   8.494  1.0752  0.5935 -0.0209
43010SOL    HW131037   3.128  10.959   8.432 -2.1821  1.4363  1.8351
43010SOL    HW231038   3.175  11.099   8.465 -0.7038  1.0326  1.5603
43011SOL     OW31039   0.668  10.124   5.696 -0.3868 -0.8528 -0.1014
43011SOL    HW131040   0.608  10.198   5.705 -0.8420 -0.9398 -1.9842
43011SOL    HW231041   0.614  10.048   5.717 -0.8264 -0.8861 -1.2682
43012SOL     OW31042   0.803   6.460   2.229  0.0763  0.2374 -0.3124
43012SOL    HW131043   0.892   6.492   2.219  0.3558  0.2780  1.7242
43012SOL    HW231044   0.805   6.411   2.311 -2.3044  2.3254  1.1587
43013SOL     OW31045   0.780   3.900   3.721 -0.0312 -0.0073 -0.0561
43013SOL    HW131046   0.721   3.939   3.657  0.2617 -0.1185 -0.3943
43013SOL    HW231047   0.735   3.821   3.750 -0.0541 -0.0838 -0.3013
43014SOL     OW31048   6.192   8.511   9.038  1.0662  0.8699  0.5611
43014SOL    HW131049   6.224   8.435   9.086  0.7100  0.2632 -0.1322
43014SOL    HW231050   6.271   8.563   9.021  1.6189 -0.2424 -0.4939
43015SOL     OW31051   1.229   1.253   1.519 -0.1962 -0.9757  0.1678
43015SOL    HW131052   1.312   1.300   1.504 -0.4716 -0.6654 -0.4036
43015SOL    HW231053   1.256   1.164   1.539  0.3714 -0.4895  1.7545
43016SOL     OW31054   5.993   4.301  10.060 -0.0202 -0.6648  0.6871
43016SOL    HW131055   5.973   4.265  10.146  0.1726 -1.3700  0.4455
43016SOL    HW231056   6.064   4.362  10.075  0.3686 -1.1761  0.9591
43017SOL     OW31057   7.737   6.835   0.372  0.4734 -0.0505  0.5135
43017SOL    HW131058   7.730   6.921   0.414 -0.2645  0.2745 -0.2360
43017SOL    HW231059   7.662   6.786   0.406  1.3946 -0.7451  1.6459
43018SOL     OW31060   2.090   0.899   7.899 -0.4521  0.1771  0.2623
43018SOL    HW131061   2.021   0.845   7.862  0.0220  0.7198 -1.4850
43018SOL    HW231062   2.171   0.855   7.875 -0.0054  2.0856 -2.0443
43019SOL     OW31063   3.309   7.751   0.377 -0.5093 -0.1278 -0.4896
43019SOL    HW131064   3.304   7.847   0.374  0.6342 -0.0424 -0.3172
43019SOL    HW231065   3.266   7.727   0.459 -1.0137  0.2154 -0.6496
43020SOL     OW31066   0.558   3.628   7.487  0.1691  0.0617 -0.1390
43020SOL    HW131067   0.589   3.543   7.518  0.3787  0.4273  0.6952
43020SOL    HW231068   0.596   3.637   7.400 -0.5726 -1.0692 -0.6036
43021SOL     OW31069   8.265  10.343   5.694  0.0118 -0.8219  0.5133
43021SOL    HW131070   8.329  10.388   5.749 -0.5014 -1.7458  1.9352
43021SOL    HW231071   8.276  10.250   5.716 -1.0464 -1.0987 -0.0604
43022SOL     OW31072   4.277   8.212  10.680  0.1982 -0.0204  0.0844
43022SOL    HW131073   4.318   8.210  10.766 -1.9044  0.2935  1.1578
43022SOL    HW231074   4.209   8.279  10.687  0.6000  0.7237 -2.1569
43023SOL     OW31075   9.781   2.413   5.913  0.0514  0.7950  0.0048
43023SOL    HW131076   9.759   2.446   5.999  2.7567 -0.0512  1.1312
43023SOL    HW231077   9.819   2.488   5.867  2.1847  0.4072  1.0122
43024SOL     OW31078   9.592   5.526   5.318  0.1753  0.1332  0.1947
43024SOL    HW131079   9.630   5.607   5.286 -1.4060  1.4043  1.3683
43024SOL    HW231080   9.548   5.487   5.242  2.9482 -0.9491 -0.9743
43025SOL     OW31081   1.974  10.444   9.878 -0.3938  0.6170 -0.2599
43025SOL    HW131082   1.986  10.351   9.861 -0.6774  0.8079 -1.6468
43025SOL    HW231083   2.021  10.460   9.960 -0.6720 -0.8124  0.2007
43026SOL     OW31084  10.883   9.609   1.143 -0.0182 -0.6642  0.6142
43026SOL    HW131085  10.880   9.701   1.118 -1.2559 -0.1361  2.4579
43026SOL    HW231086  10.807   9.570   1.099 -0.6182 -0.3371  1.3215
43027SOL     OW31087   7.984   5.369   6.887  0.3486  0.1535  0.4663
43027SOL    HW131088   8.048   5.303   6.912 -0.9299 -1.0067  0.7522
43027SOL    HW231089   7.928   5.379   6.965 -0.8880 -0.1596 -0.3557
43028SOL     OW31090   8.909   5.936   8.024 -0.0442 -0.2842  0.0551
43028SOL    HW131091   8.849   5.863   8.044 -2.7000  0.3489 -4.3624
43028SOL    HW231092   8.855   6.014   8.033 -0.0197  0.3424 -3.6746
43029SOL     OW31093   7.880   0.489   6.767  0.4825 -0.6021  0.2012
43029SOL    HW131094   7.823   0.555   6.729  0.6596 -0.0909  0.8010
43029SOL    HW231095   7.824   0.442   6.829  1.1254  1.1288  2.2017
43030SOL     OW31096   9.558  10.988   6.824 -0.2649  0.2336 -0.7934
43030SOL    HW131097   9.585  11.051   6.892 -2.4439 -0.1677  0.5680
43030SOL    HW231098   9.620  10.916   6.832 -0.0384  0.5229  0.2995
43031SOL     OW31099   1.007   8.839   5.079 -0.3851  0.4384 -0.0562
43031SOL    HW131100   0.928   8.892   5.076  0.2958  1.6409  1.3692
43031SOL    HW231101   1.040   8.851   5.168  1.9333  0.7943 -0.8955
43032SOL     OW31102   1.167  10.171  10.230 -0.4590 -0.0595 -0.1970
43032SOL    HW131103   1.235  10.113  10.195  0.3633  0.7253  0.0373
43032SOL    HW231104   1.085  10.126  10.211  0.0384 -0.4319 -1.6804
43033SOL     OW31105  10.132   6.893   0.787  0.2057  0.0469 -0.3113
43033SOL    HW131106  10.089   6.811   0.813 -2.6032  1.3293 -0.5841
43033SOL    HW231107  10.183   6.918   0.864  0.6139 -1.6162 -0.0034
43034SOL     OW31108   3.037  10.175   6.195  0.6014 -0.5091  0.4327
43034SOL    HW131109   2.995  10.198   6.111 -0.2423  0.4648  1.0904
43034SOL    HW231110   3.130  10.168   6.173  0.2787 -1.3336 -0.7918
43035SOL     OW31111   2.612   5.929   8.709 -0.0137  0.4384 -0.0773
43035SOL    HW131112   2.699   5.897   8.683 -0.1286 -0.9208  1.1077
43035SOL    HW231113   2.629   6.012   8.753  0.6414  0.4065 -0.2569
43036SOL     OW31114   9.929   5.639   2.127  0.1828  0.1402 -0.2012
43036SOL    HW131115   9.909   5.716   2.073 -1.2366 -0.5732 -0.7610
43036SOL    HW231116   9.971   5.578   2.067 -0.5904 -0.3067 -0.3128
43037SOL     OW31117  11.019   3.145   4.358 -0.3529 -0.1202 -0.3537
43037SOL    HW131118  11.105   3.127   4.321 -0.4768  2.2310 -1.9659
43037SOL    HW231119  11.032   3.222   4.413 -0.9279 -1.4106  1.7013
43038SOL     OW31120   1.487   5.474  10.251 -0.4859  0.5787 -0.2792
43038SOL    HW131121   1.574   5.512  10.248 -0.4209  0.5034  0.4479
43038SOL    HW231122   1.441   5.525  10.318 -0.4443 -0.4938  0.5980
43039SOL     OW31123   7.673   6.850  10.226  0.1345  0.3233  0.0481
43039SOL    HW131124   7.756   6.888  10.254  0.6435 -0.4196 -0.4130
43039SOL    HW231125   7.656   6.780  10.289 -0.0895  0.3986  0.0739
43040SOL     OW31126  10.104   5.623   5.043 -0.2275  0.0578  0.7331
43040SOL    HW131127  10.160   5.584   5.110  2.2361 -1.5982 -2.0071
43040SOL    HW231128  10.106   5.717   5.061  0.4753 -0.3099  2.8178
43041SOL     OW31129   2.917   7.519   6.064  0.1303 -0.5392  0.0487
43041SOL    HW131130   2.937   7.543   6.154  1.4727  0.7406 -0.5561
43041SOL    HW231131   2.849   7.581   6.037 -0.5179 -1.1391  0.2618
43042SOL     OW31132   7.192  10.913   7.192  0.7111  0.1169 -0.2448
43042SOL    HW131133   7.212  10.989   7.137  0.3992  0.4966  0.1527
43042SOL    HW231134   7.119  10.942   7.247 -0.0778 -0.8115 -0.7733
43043SOL     OW31135   9.543   0.439   4.540  0.5289 -0.3655  0.7986
43043SOL    HW131136   9.466   0.383   4.552  0.6681 -0.3089  2.0699
43043SOL    HW231137   9.618   0.381   4.555  0.7587 -0.4326 -0.4811
43044SOL     OW31138   1.550   8.701   7.701  0.2842 -0.3200  0.2483
43044SOL    HW131139   1.627   8.740   7.742  0.6958 -0.7785 -0.0723
43044SOL    HW231140   1.571   8.700   7.608 -0.4476  0.2880  0.0665
43045SOL     OW31141   1.610   0.109   6.757 -0.4028  0.8124 -0.2113
43045SOL    HW131142   1.518   0.084   6.750 -0.0520 -0.5015 -0.3355
43045SOL    HW231143   1.635   0.083   6.845 -0.3880  2.0740  0.1833
43046SOL     OW31144   7.713   3.770   1.006  0.2733  0.2116 -0.2299
43046SOL    HW131145   7.675   3.857   1.014  1.1019  0.4997  0.8412
43046SOL    HW231146   7.643   3.716   0.970  0.3298  1.6991 -2.7965
43047SOL     OW31147   1.520   0.152   3.982 -0.1490 -0.0424  0.8239
43047SOL    HW131148   1.551   0.237   4.014 -1.1356  0.6204  0.0834
43047SOL    HW231149   1.562   0.142   3.897 -0.6740  0.1057  0.5413
43048SOL     OW31150   0.382   2.210   7.476  0.3867 -0.2548  0.0309
43048SOL    HW131151   0.380   2.296   7.518 -2.2267 -1.0265  1.7542
43048SOL    HW231152   0.430   2.155   7.537  0.5096 -0.4093 -0.2046
43049SOL     OW31153   5.089   3.978   1.144  0.0531 -0.0106  0.3793
43049SOL    HW131154   5.081   3.885   1.122 -3.8733  0.6397 -1.9633
43049SOL    HW231155   5.126   4.018   1.065  0.3798  0.6140  0.8401
43050SOL     OW31156   1.131  11.046   0.272 -0.0602  0.4986  0.5083
43050SOL    HW131157   1.110  10.953   0.282 -0.4809  0.4206 -0.8757
43050SOL    HW231158   1.220  11.047   0.236  0.1067  0.6498  0.9208
43051SOL     OW31159  10.227   4.150   7.959 -0.7237  0.2709 -0.6194
43051SOL    HW131160  10.303   4.124   8.010 -1.0798 -0.7991 -0.6087
43051SOL    HW231161  10.154   4.144   8.020 -0.6176  3.2887 -0.0262
43052SOL     OW31162   9.865   2.580   3.857  0.5219 -0.3362 -0.2207
43052SOL    HW131163   9.845   2.548   3.945 -0.3660 -0.0718 -0.3119
43052SOL    HW231164   9.960   2.585   3.854  0.5425  0.8248  1.1641
43053SOL     OW31165   6.644   5.226   6.144 -0.1610 -0.3586  0.1882
43053SOL    HW131166   6.629   5.277   6.223 -0.3292  1.2536 -0.8334
43053SOL    HW231167   6.668   5.291   6.078 -2.0378 -1.3563 -1.6122
43054SOL     OW31168   2.027   2.343   9.380 -0.5702 -0.1709  0.0772
43054SOL    HW131169   2.072   2.330   9.296  0.4973  0.8196  0.4732
43054SOL    HW231170   2.066   2.422   9.416 -0.6403 -0.8668  1.7540
43055SOL     OW31171   3.113   3.910   4.810  0.3769 -0.6930 -0.3317
43055SOL    HW131172   3.026   3.946   4.827  1.8017  2.0358  2.1066
43055SOL    HW231173   3.136   3.863   4.890  1.3757 -0.9056 -0.7267
43056SOL     OW31174   0.527   5.405   0.244  0.7082 -0.6379 -0.7437
43056SOL    HW131175   0.471   5.457   0.302 -0.3603 -2.0280 -0.4669
43056SOL    HW231176   0.577   5.470   0.194  1.4858  0.6064  1.5321
43057SOL     OW31177   8.902   6.054   6.599  0.2935  0.0329 -0.5357
43057SOL    HW131178   8.926   6.008   6.679 -0.1400 -0.3480 -0.6167
43057SOL    HW231179   8.977   6.109   6.578  0.4702  0.0105  0.0413
43058SOL     OW31180   7.297   8.504   7.730  0.8832 -0.0842  0.2123
43058SOL    HW131181   7.340   8.589   7.730  1.6167 -0.4489  0.9188
43058SOL    HW231182   7.204   8.524   7.717  1.3518  0.6509 -2.8781
43059SOL     OW31183   1.122  10.307   4.004  0.3272  0.2800 -0.6831
43059SOL    HW131184   1.027  10.314   4.014  0.4111  1.5962 -0.7057
43059SOL    HW231185   1.135  10.222   3.961 -0.6956 -0.8428  1.1267
43060SOL     OW31186   9.779  10.818   6.983  0.1774 -0.0667  0.3853
43060SOL    HW131187   9.758  10.736   6.938  1.9582 -1.0926  1.2883
43060SOL    HW231188   9.698  10.844   7.027 -1.2000  0.1984 -2.1302
43061SOL     OW31189   5.711   0.067   3.593  0.1615 -0.4167  0.4504
43061SOL    HW131190   5.753   0.147   3.624  0.3153 -0.8539  1.4104
43061SOL    HW231191   5.782   0.017   3.552  0.0558 -0.0541 -0.1922
43062SOL     OW31192   9.608  10.259   7.335 -0.0713  0.3550 -0.2257
43062SOL    HW131193   9.526  10.279   7.291 -1.1016 -1.2702  0.8722
43062SOL    HW231194   9.603  10.306   7.418 -0.3694 -0.5522  0.2832
43063SOL     OW31195   0.806   0.747   7.834 -0.1145  0.6448 -0.2685
43063SOL    HW131196   0.888   0.716   7.872  0.9933  1.6409 -1.7422
43063SOL    HW231197   0.747   0.756   7.909  1.1573  0.0501  0.8445
43064SOL     OW31198   4.402   0.439   9.848  0.2788  0.1220 -0.0912
43064SOL    HW131199   4.373   0.520   9.805 -0.8843 -0.7855 -1.0846
43064SOL    HW231200   4.366   0.444   9.937  0.6520  0.9062  0.0263
43065SOL     OW31201   9.701   4.039   9.879 -0.4201  0.0300 -0.0232
43065SOL    HW131202   9.612   4.038   9.915  0.2306  1.5044  1.7803
43065SOL    HW231203   9.705   4.119   9.827  0.0013  0.2538  0.3475
43066SOL     OW31204   8.596   1.944   7.042  0.3533 -0.1185 -0.1706
43066SOL    HW131205   8.523   1.981   6.993  0.5732  1.4350  0.5956
43066SOL    HW231206   8.626   1.871   6.989 -1.7549 -0.8257 -0.5050
43067SOL     OW31207  10.126   6.554  10.428 -0.1292  0.5212  0.1717
43067SOL    HW131208  10.175   6.535  10.348  0.4242  1.5052  0.2594
43067SOL    HW231209  10.075   6.633  10.407  0.5898  1.2363  1.0030
43068SOL     OW31210  10.970   8.842   6.866 -0.0344  0.4461  0.3995
43068SOL    HW131211  10.975   8.932   6.833 -1.3777 -0.6965 -3.4847
43068SOL    HW231212  10.893   8.842   6.923 -1.1675  1.4571 -1.0279
43069SOL     OW31213   9.748   6.354   8.548  0.2194  0.1950  0.1064
43069SOL    HW131214   9.723   6.359   8.640  1.0706 -0.6963  0.4113
43069SOL    HW231215   9.673   6.314   8.504  0.7979 -1.8872  0.8931
43070SOL     OW31216   7.792   4.562   6.900 -0.1175 -0.0317 -0.3921
43070SOL    HW131217   7.746   4.590   6.821 -0.5355 -1.7265 -0.7763
43070SOL    HW231218   7.864   4.508   6.868 -0.4623 -0.9773  0.3948
43071SOL     OW31219   7.276   3.477   0.088 -0.2710 -0.5161  0.0498
43071SOL    HW131220   7.254   3.442   0.001 -0.0691 -0.5187 -0.0003
43071SOL    HW231221   7.265   3.402   0.147  0.1993 -0.6789 -0.0633
43072SOL     OW31222   6.320   8.485   7.960  0.7770  0.4273 -0.4730
43072SOL    HW131223   6.340   8.574   7.990  1.7330  0.4938 -1.2504
43072SOL    HW231224   6.385   8.430   8.004  0.7498  0.2299 -0.6799
43073SOL     OW31225  10.561   7.631   8.595 -0.2276 -0.8707 -0.4603
43073SOL    HW131226  10.646   7.592   8.613  0.9265  2.0592  1.0762
43073SOL    HW231227  10.564   7.652   8.502  0.6815 -0.9316 -0.4556
43074SOL     OW31228   1.570  10.616  10.707 -0.0122  0.2004 -0.4380
43074SOL    HW131229   1.637  10.549  10.714  0.5855  0.8067 -0.2356
43074SOL    HW231230   1.563  10.634  10.614 -0.4599 -0.4223 -0.5271
43075SOL     OW31231   9.304   1.911  10.972 -0.4317 -0.2470  0.0934
43075SOL    HW131232   9.332   1.878  10.887  1.3981 -0.6479  0.7846
43075SOL    HW231233   9.219   1.952  10.956  0.2837  0.5324 -2.1014
43076SOL     OW31234   3.428   6.663   2.438 -0.6367 -0.1709 -0.1987
43076SOL    HW131235   3.465   6.738   2.391 -0.2596 -0.7795 -0.8951
43076SOL    HW231236   3.504   6.617   2.473 -0.8902  0.0195  0.6328
43077SOL     OW31237   2.618   9.476   2.136 -0.0539  0.2948 -0.2368
43077SOL    HW131238   2.642   9.391   2.171  1.9946  1.6326  1.8600
43077SOL    HW231239   2.682   9.492   2.067 -0.1252  0.3660 -0.2866
43078SOL     OW31240   6.611  10.504   3.532 -0.6440 -0.5195  0.3943
43078SOL    HW131241   6.525  10.467   3.515 -1.1856  0.6669  0.4946
43078SOL    HW231242   6.601  10.598   3.517  0.7901 -0.4322 -0.2275
43079SOL     OW31243   5.164   6.470   4.213  0.6382 -0.2957 -0.3514
43079SOL    HW131244   5.142   6.389   4.261  1.2838  0.0266  0.5152
43079SOL    HW231245   5.119   6.460   4.129 -1.7867 -0.2247  0.8295
43080SOL     OW31246   2.314   4.755   6.313 -0.0363 -0.4735 -0.0874
43080SOL    HW131247   2.327   4.685   6.376  3.0477  1.3225  1.5733
43080SOL    HW231248   2.366   4.729   6.237 -0.8611 -1.0403 -0.4657
43081SOL     OW31249  10.862  10.287   0.300  0.1810  0.2542  0.6140
43081SOL    HW131250  10.952  10.274   0.329 -0.4034  0.9839  2.9453
43081SOL    HW231251  10.832  10.365   0.348 -1.1936  1.0157 -1.3533
43082SOL     OW31252   5.452   2.390   6.928  0.3369 -0.1080  1.0530
43082SOL    HW131253   5.384   2.323   6.921  1.1919 -0.9582  0.5863
43082SOL    HW231254   5.411   2.462   6.976 -1.4750  0.1500 -0.7170
43083SOL     OW31255   0.864   8.407   2.440  0.6319 -0.0798 -0.4982
43083SOL    HW131256   0.931   8.425   2.374 -2.0926  3.4845 -2.6946
43083SOL    HW231257   0.818   8.329   2.408  1.4782 -0.4184 -0.9100
43084SOL     OW31258   5.614   7.189   2.591  0.3651  0.5242 -0.1058
43084SOL    HW131259   5.676   7.125   2.626  1.7921  1.5107 -0.7442
43084SOL    HW231260   5.561   7.215   2.666 -0.0242 -1.1252  0.2313
43085SOL     OW31261   2.870   1.217   0.311 -0.4785  0.2873 -0.2011
43085SOL    HW131262   2.876   1.296   0.363  1.2570 -1.4021  2.4042
43085SOL    HW231263   2.959   1.205   0.276 -1.2517  0.5941 -2.4560
43086SOL     OW31264   2.404   5.892   5.423  0.0611 -0.2169 -0.5336
43086SOL    HW131265   2.419   5.986   5.415  0.3148 -0.0292  1.6049
43086SOL    HW231266   2.491   5.855   5.439 -0.3511 -0.4482  1.3413
43087SOL     OW31267   6.664   9.171   4.703 -0.3656  0.2190 -0.1953
43087SOL    HW131268   6.614   9.246   4.671  0.2620  0.6267 -0.2160
43087SOL    HW231269   6.598   9.116   4.746 -1.0258  0.1892 -1.2217
43088SOL     OW31270   9.333  10.771   9.466  0.3746 -0.0250 -0.0863
43088SOL    HW131271   9.383  10.726   9.399  2.1451  2.1803 -0.3855
43088SOL    HW231272   9.391  10.773   9.542 -0.8877 -0.8852  0.9561
43089SOL     OW31273   1.018   6.450   9.041  0.1820  0.2748 -0.0488
43089SOL    HW131274   1.112   6.470   9.040  0.4325 -0.7619  0.6602
43089SOL    HW231275   0.990   6.463   8.950  1.1716 -0.0942 -0.4242
43090SOL     OW31276   2.925   5.428   0.481 -0.0508  0.4666  0.0982
43090SOL    HW131277   2.873   5.353   0.511  0.0294  0.0884 -0.7063
43090SOL    HW231278   3.015   5.397   0.484 -0.0981  0.1586 -1.2778
43091SOL     OW31279  10.908   6.169   4.478  0.2377  0.0817  0.0703
43091SOL    HW131280  10.956   6.248   4.505  0.9358 -0.3619  0.1703
43091SOL    HW231281  10.891   6.181   4.385 -0.5480  0.7958  0.2977
43092SOL     OW31282   9.955   5.372   6.857 -0.5348 -0.7492  0.3831
43092SOL    HW131283  10.021   5.395   6.921  2.5511 -1.5789 -2.2573
43092SOL    HW231284   9.948   5.277   6.861 -0.6670 -0.7699 -0.1663
43093SOL     OW31285   0.110   8.121  10.072  0.2722  0.4181  0.5186
43093SOL    HW131286   0.153   8.186  10.016  1.6146 -0.5319  0.3896
43093SOL    HW231287   0.160   8.121  10.153  0.9623 -1.1392  0.1439
43094SOL     OW31288  10.874   7.100   1.837 -0.0134  0.3813  1.0739
43094SOL    HW131289  10.798   7.097   1.778  0.0184  1.6863  0.9316
43094SOL    HW231290  10.835   7.110   1.925 -0.0370 -0.6185  1.1845
43095SOL     OW31291  10.530   8.581   5.315  0.3869 -0.9750 -0.3029
43095SOL    HW131292  10.590   8.534   5.375 -0.9403 -2.4833 -0.0886
43095SOL    HW231293  10.506   8.660   5.363  1.5458 -0.7480 -0.0541
43096SOL     OW31294   8.115   7.785   7.777 -0.1993 -0.2140 -0.2515
43096SOL    HW131295   8.110   7.878   7.801 -1.0446  0.1042 -1.5222
43096SOL    HW231296   8.169   7.783   7.698 -0.0943 -0.8153 -0.1684
43097SOL     OW31297   8.313   2.312   6.945 -0.6988 -0.6072 -0.3636
43097SOL    HW131298   8.305   2.348   7.033  1.5863  0.5370 -0.5294
43097SOL    HW231299   8.270   2.377   6.889  2.2864  1.4436 -0.5205
43098SOL     OW31300  10.928  10.992   8.685 -0.2981  0.2122 -0.2535
43098SOL    HW131301  10.992  10.992   8.614  0.3366 -1.0806  0.2640
43098SOL    HW231302  10.844  10.981   8.642 -0.1102  1.1907 -0.9015
43099SOL     OW31303  10.901   0.513   8.701 -0.6023 -0.1042 -0.3487
43099SOL    HW131304  10.837   0.542   8.766 -0.0806 -0.9953  0.5981
43099SOL    HW231305  10.971   0.578   8.705  0.2069 -1.0238  1.2087
43100SOL     OW31306  10.863   4.901   4.225  0.1042 -0.1366 -0.2506
43100SOL    HW131307  10.809   4.856   4.160 -0.8475  0.7481 -0.0934
43100SOL    HW231308  10.903   4.974   4.177 -0.3069  0.3004  0.0687
43101SOL     OW31309  10.788   3.031   1.118  0.4636  0.3461 -0.1779
43101SOL    HW131310  10.724   3.102   1.119  1.2431  1.0670 -0.1517
43101SOL    HW231311  10.765   2.979   1.041  0.1318  0.8523 -0.4271
43102SOL     OW31312   5.131   9.660   4.624  0.2309 -0.5622 -0.5051
43102SOL    HW131313   5.146   9.698   4.711  1.5092 -0.9876 -0.5246
43102SOL    HW231314   5.106   9.569   4.642 -3.7261  0.3773 -0.4065
43103SOL     OW31315   6.786  10.753   3.464 -0.2801  0.2429  0.0711
43103SOL    HW131316   6.832  10.692   3.522 -2.8517 -1.6190  0.3225
43103SOL    HW231317   6.828  10.740   3.379  1.1318  0.3231  0.7223
43104SOL     OW31318   2.863   7.587   6.343 -0.1474 -0.0413 -0.2236
43104SOL    HW131319   2.770   7.606   6.353 -0.7158 -2.4798 -0.4305
43104SOL    HW231320   2.886   7.535   6.420  0.9419  0.1326 -0.4147
43105SOL     OW31321   8.908  10.478   0.455 -0.0504 -0.0038 -0.4838
43105SOL    HW131322   8.832  10.498   0.510 -1.1853 -1.9897 -1.2056
43105SOL    HW231323   8.950  10.404   0.498  0.9318  0.4783 -0.6044
43106SOL     OW31324   1.321   8.066   8.882 -0.8261  0.1909  0.3955
43106SOL    HW131325   1.265   8.092   8.808  1.3578  1.2378 -0.9904
43106SOL    HW231326   1.377   8.142   8.898  1.9772 -1.6173 -0.0715
43107SOL     OW31327   3.044  10.480   0.586  0.2729 -0.8617  0.1632
43107SOL    HW131328   3.035  10.496   0.492  0.4908 -1.0101  0.1176
43107SOL    HW231329   3.007  10.558   0.628  1.6481 -0.0600 -0.0560
43108SOL     OW31330   7.779   8.968   5.285 -0.0925 -0.2463 -0.1649
43108SOL    HW131331   7.860   8.938   5.244  0.5818  2.4007 -0.9462
43108SOL    HW231332   7.718   8.894   5.276  1.7973 -1.8094 -0.7392
43109SOL     OW31333  10.368   3.689  10.440  0.2006 -0.2969 -0.0502
43109SOL    HW131334  10.428   3.717  10.510 -0.1410 -0.1533  0.1846
43109SOL    HW231335  10.336   3.604  10.469 -2.2083  1.0125  1.4169
43110SOL     OW31336   9.706  10.544   3.987  0.3775  0.1105  0.3899
43110SOL    HW131337   9.772  10.474   3.986 -0.4677 -0.7269 -0.7560
43110SOL    HW231338   9.628  10.502   4.024 -0.1915  0.3733 -0.4815
43111SOL     OW31339   0.809   9.210   3.715 -0.2193 -0.4468 -0.7643
43111SOL    HW131340   0.823   9.164   3.632  0.5847 -1.7003  0.0295
43111SOL    HW231341   0.752   9.283   3.692 -0.1364 -0.8460 -2.3944
43112SOL     OW31342   8.318   9.670   9.885 -0.0038 -0.1312 -0.7172
43112SOL    HW131343   8.283   9.758   9.869  0.4214 -0.0148 -1.0251
43112SOL    HW231344   8.250   9.611   9.851 -0.6294  0.0579  0.1761
43113SOL     OW31345   9.078   9.086   8.122  0.2920  0.0920 -0.2399
43113SOL    HW131346   9.141   9.053   8.186 -1.8768 -1.9073  1.0222
43113SOL    HW231347   9.112   9.058   8.037  1.2409 -0.6579  0.3749
43114SOL     OW31348   2.151   5.899   2.681 -0.0845  0.2622 -0.4544
43114SOL    HW131349   2.057   5.885   2.676 -0.2891  1.8896 -2.5122
43114SOL    HW231350   2.161   5.972   2.742 -0.2280  0.4672 -0.6723
43115SOL     OW31351  10.627   0.234  10.901  0.2687 -0.2401  0.2088
43115SOL    HW131352  10.702   0.218  10.844  1.3721  1.2017  1.1897
43115SOL    HW231353  10.574   0.298  10.853 -0.4561 -1.3701 -0.5509
43116SOL     OW31354   9.346   6.069   5.165  0.3474 -0.2340  0.3818
43116SOL    HW131355   9.339   5.974   5.170 -0.0155 -0.1361  2.0901
43116SOL    HW231356   9.271   6.102   5.214  0.9423  0.9400  0.5444
43117SOL     OW31357   7.552   7.952   5.453  0.9505  0.8194 -0.1718
43117SOL    HW131358   7.591   7.965   5.539  1.1833 -0.0035 -0.1388
43117SOL    HW231359   7.461   7.980   5.463 -0.1842 -2.8386  1.5113
43118SOL     OW31360  10.860   9.777   5.862 -0.4302 -0.3321 -0.1438
43118SOL    HW131361  10.832   9.704   5.917  0.1586  0.1873  0.8711
43118SOL    HW231362  10.940   9.747   5.820  0.1555 -0.0717  0.7534
43119SOL     OW31363   8.352   8.065   9.213  0.0430 -0.8926  0.0213
43119SOL    HW131364   8.260   8.068   9.237  0.1013  0.8391  0.2080
43119SOL    HW231365   8.353   8.039   9.122 -0.8980  1.8455 -0.8835
43120SOL     OW31366   2.238   4.406   9.593  0.3825 -0.0807 -0.3178
43120SOL    HW131367   2.325   4.368   9.583 -0.2293 -1.0430 -2.9636
43120SOL    HW231368   2.231   4.468   9.521  0.3509  3.2841  2.3529
43121SOL     OW31369   6.630   0.454   0.770  0.3232 -0.1326  0.3611
43121SOL    HW131370   6.542   0.452   0.807 -0.2560  1.1504 -0.8356
43121SOL    HW231371   6.639   0.371   0.724 -1.0693  0.5211 -1.1903
43122SOL     OW31372   1.526   0.096   5.119 -0.3421  0.6567 -0.4011
43122SOL    HW131373   1.614   0.119   5.089 -0.0996  0.9915  0.5283
43122SOL    HW231374   1.472   0.100   5.040  0.8561 -1.7717 -1.4499
43123SOL     OW31375   6.164   9.597   6.379 -0.1153  0.0992 -0.1415
43123SOL    HW131376   6.238   9.547   6.344  0.0062  0.5975 -0.6177
43123SOL    HW231377   6.192   9.688   6.373 -0.5232  0.2543  0.2698
43124SOL     OW31378   9.807   2.156   3.788 -0.2596 -0.5504 -0.2768
43124SOL    HW131379   9.825   2.235   3.737 -0.4956  0.1251  0.6642
43124SOL    HW231380   9.799   2.187   3.878  0.6138 -1.7895  0.2450
43125SOL     OW31381   9.079  10.164   2.899  0.5109 -0.4096 -0.0578
43125SOL    HW131382   9.108  10.255   2.905 -0.0698 -0.2179 -0.0602
43125SOL    HW231383   9.039  10.146   2.984  0.4902 -0.6170 -0.1106
43126SOL     OW31384  10.565   9.900   5.029  0.2201 -1.0182 -0.1018
43126SOL    HW131385  10.488   9.849   5.051 -0.1861 -0.0539  0.8283
43126SOL    HW231386  10.558   9.915   4.935 -1.4425  0.1326  0.1559
43127SOL     OW31387  11.067   1.641   1.745 -0.5100 -0.4054 -0.0549
43127SOL    HW131388  11.058   1.596   1.829  0.3479  0.1077  0.3242
43127SOL    HW231389  11.005   1.714   1.750  0.9030  0.7981  0.9624
43128SOL     OW31390   2.883   1.558   8.266  0.6803  0.5160 -0.6191
43128SOL    HW131391   2.897   1.589   8.177  0.8223  0.1758 -0.7145
43128SOL    HW231392   2.849   1.469   8.256  1.1063  0.3152 -0.3266
43129SOL     OW31393   5.452  10.317   4.431  0.6439 -0.4011  0.3521
43129SOL    HW131394   5.444  10.231   4.389 -1.7203  0.8086 -1.9568
43129SOL    HW231395   5.503  10.369   4.369  0.9582  0.2290  1.1253
43130SOL     OW31396   9.563   7.520   2.044  0.3849 -0.5358 -0.0465
43130SOL    HW131397   9.580   7.577   1.969  0.1501 -0.3017  0.0784
43130SOL    HW231398   9.477   7.548   2.077  1.1127  0.3296  1.1903
43131SOL     OW31399   0.470   0.245   3.392  0.1922  0.2966 -0.3178
43131SOL    HW131400   0.461   0.331   3.433 -1.9862  0.0774 -0.2025
43131SOL    HW231401   0.447   0.183   3.461  0.1559 -0.2879 -0.8434
43132SOL     OW31402   2.384   0.648  10.748 -0.2252 -0.2001  0.2482
43132SOL    HW131403   2.430   0.731  10.760  0.2692 -0.3732 -0.4386
43132SOL    HW231404   2.389   0.605  10.834  0.1682  0.1463  0.4005
43133SOL     OW31405   7.266  10.038   2.133 -0.0773 -0.1357  0.1007
43133SOL    HW131406   7.302  10.107   2.189 -0.7644 -0.7824  1.3915
43133SOL    HW231407   7.320   9.961   2.152 -0.3844 -0.3934 -0.0542
43134SOL     OW31408   8.547   0.703   5.432 -0.0225 -0.3733  0.0962
43134SOL    HW131409   8.635   0.670   5.453  0.3799  0.7429  0.2168
43134SOL    HW231410   8.546   0.709   5.337  0.6810  1.2936  0.1681
43135SOL     OW31411   1.898   4.011   7.907  0.5310 -0.3571  0.0248
43135SOL    HW131412   1.811   3.995   7.870  0.3248 -0.2572  0.4597
43135SOL    HW231413   1.933   4.083   7.855  0.3942 -0.4708 -0.2247
43136SOL     OW31414   2.755   9.955   3.383  0.1418 -0.1062  0.4918
43136SOL    HW131415   2.679   9.898   3.394  0.2952 -0.1985  1.1183
43136SOL    HW231416   2.811   9.908   3.321 -1.2475  0.9349 -1.6633
43137SOL     OW31417   7.867   2.571   7.452  0.0970  0.4149  0.0737
43137SOL    HW131418   7.837   2.490   7.494  1.5557  0.5289  1.4308
43137SOL    HW231419   7.830   2.567   7.364  0.9480 -2.2510 -0.2571
43138SOL     OW31420   1.801   1.937   5.933 -0.7523 -0.0732 -0.2219
43138SOL    HW131421   1.759   1.897   6.009 -0.2442  1.2005  0.7507
43138SOL    HW231422   1.739   2.004   5.904 -0.2836  0.4631  0.0001
43139SOL     OW31423   4.176   8.333   4.522  0.5058 -0.1698  0.9474
43139SOL    HW131424   4.101   8.322   4.581  0.1219 -1.4419  0.2592
43139SOL    HW231425   4.231   8.256   4.538  0.3988 -0.5298 -0.3305
43140SOL     OW31426  10.924   8.958   3.701 -0.2211 -0.2644  0.0375
43140SOL    HW131427  11.019   8.951   3.700 -0.1148  1.0839 -0.2352
43140SOL    HW231428  10.896   8.909   3.623  0.2026 -1.0198  0.3431
43141SOL     OW31429   7.067   3.244   0.727 -0.3187 -0.1127 -0.5711
43141SOL    HW131430   7.080   3.337   0.706 -1.9075  0.8096  2.0299
43141SOL    HW231431   6.997   3.216   0.669  0.1212  0.3179 -1.3322
43142SOL     OW31432   5.285   8.555   4.364 -0.1334  0.5453  0.5251
43142SOL    HW131433   5.198   8.545   4.402  0.0455  0.9032  1.0387
43142SOL    HW231434   5.278   8.515   4.277 -0.6751  0.1481  0.7480
43143SOL     OW31435   1.789   0.891   2.080  0.3941  0.3212 -0.7834
43143SOL    HW131436   1.731   0.867   2.008 -0.3095 -1.7690  0.3734
43143SOL    HW231437   1.877   0.877   2.046  0.0733 -0.6833 -1.2315
43144SOL     OW31438   9.242   6.967   0.202  0.2650 -0.4263  0.4726
43144SOL    HW131439   9.328   6.937   0.170  0.1387  0.6675 -1.0520
43144SOL    HW231440   9.263   7.021   0.278  0.9538 -0.1202  0.0813
43145SOL     OW31441   2.152   8.118   4.824  1.0606 -0.0460  0.2030
43145SOL    HW131442   2.160   8.037   4.774 -0.3164 -0.9369  1.3153
43145SOL    HW231443   2.118   8.090   4.909 -1.4576  1.8621 -0.0415
43146SOL     OW31444   0.572   6.274   9.550  0.1615  0.0546 -0.0316
43146SOL    HW131445   0.482   6.306   9.549 -0.7698 -2.2997  0.3329
43146SOL    HW231446   0.571   6.197   9.493  1.6756 -0.6788  0.8477
43147SOL     OW31447   1.566   5.299   1.876 -0.3539  0.6343 -0.0288
43147SOL    HW131448   1.602   5.221   1.920 -0.7055 -0.1062 -1.0259
43147SOL    HW231449   1.607   5.299   1.790 -0.5800  1.4055 -0.1440
43148SOL     OW31450  10.768   0.973   6.997 -0.0166 -0.0743 -0.6055
43148SOL    HW131451  10.729   1.037   6.938 -0.7924 -1.0555 -1.1828
43148SOL    HW231452  10.862   0.985   6.986 -0.1537  0.8799 -0.7922
43149SOL     OW31453  10.953   0.166   9.331 -0.3523 -0.5337  0.2658
43149SOL    HW131454  11.029   0.133   9.284  0.3672  2.0112 -0.5491
43149SOL    HW231455  10.951   0.116   9.412  2.6247 -0.2641  0.6113
43150SOL     OW31456   2.468   1.326   9.854 -0.3154 -0.4147 -0.5336
43150SOL    HW131457   2.435   1.296   9.769  3.9958 -1.8397 -1.9601
43150SOL    HW231458   2.473   1.421   9.845 -0.7083 -0.4781 -1.5836
43151SOL     OW31459   4.430   1.870   9.260 -0.0172 -0.6711  0.6798
43151SOL    HW131460   4.367   1.842   9.327 -1.1864  1.2604  0.4477
43151SOL    HW231461   4.459   1.957   9.289  0.9721 -0.6484 -0.3063
43152SOL     OW31462   0.061   2.985  10.008 -0.2468  0.3732 -0.5387
43152SOL    HW131463   0.103   3.071  10.008 -1.2458  0.9272  1.8647
43152SOL    HW231464   0.134   2.923  10.011  0.4718  1.2175  0.0800
43153SOL     OW31465   8.961   6.867   9.290  0.4527  0.0730  0.1090
43153SOL    HW131466   8.966   6.863   9.386 -1.8042  1.5458  0.3671
43153SOL    HW231467   9.032   6.926   9.265  1.4411 -0.7808  0.7871
43154SOL     OW31468   9.526   8.405   9.072  0.1149  0.3624  0.0201
43154SOL    HW131469   9.520   8.408   9.167 -1.0001  1.3985 -0.0547
43154SOL    HW231470   9.546   8.495   9.046  2.2752 -0.2409 -0.6628
43155SOL     OW31471   6.172   2.479   3.689  0.1820 -0.0937  0.3003
43155SOL    HW131472   6.198   2.532   3.614  2.5245  0.0334  1.0876
43155SOL    HW231473   6.253   2.436   3.716 -0.5129  0.0546  2.8713
43156SOL     OW31474   7.715   2.083   0.234 -0.3469  0.3603  0.1065
43156SOL    HW131475   7.736   2.049   0.321 -0.5572 -0.9110 -0.3092
43156SOL    HW231476   7.682   2.171   0.249  0.3445  0.4400  1.2385
43157SOL     OW31477   8.539   2.104   4.924  0.1132  0.5613 -0.5332
43157SOL    HW131478   8.592   2.182   4.909  0.7658  0.2465  0.1332
43157SOL    HW231479   8.599   2.040   4.960 -0.5725 -0.0240 -0.4088
43158SOL     OW31480   3.058   9.526   0.045  0.0166  0.1008  0.2025
43158SOL    HW131481   3.093   9.533  -0.044  0.0890  1.6932  0.3161
43158SOL    HW231482   2.999   9.601   0.053 -1.0658 -0.8119  1.0479
43159SOL     OW31483   5.147   0.989   6.733 -0.0495 -0.3225  1.3037
43159SOL    HW131484   5.184   0.927   6.670 -0.7350  1.3409 -0.8535
43159SOL    HW231485   5.072   0.944   6.770 -0.3298 -0.9329  0.0386
43160SOL     OW31486   7.897   1.135  10.331 -0.3115 -0.1226  0.4206
43160SOL    HW131487   7.842   1.144  10.253 -0.2610 -0.2364  0.3701
43160SOL    HW231488   7.900   1.222  10.370 -0.6542 -0.1512  0.5090
43161SOL     OW31489   0.419   6.959   0.457  0.1507 -0.4481 -0.3095
43161SOL    HW131490   0.443   7.005   0.376 -2.2438  1.2422 -0.1722
43161SOL    HW231491   0.325   6.943   0.448  0.0132 -1.0129  1.7619
43162SOL     OW31492   6.372   7.737   8.204 -0.5237  0.3483  0.1620
43162SOL    HW131493   6.281   7.732   8.233 -0.5145 -0.7381  0.0115
43162SOL    HW231494   6.373   7.809   8.141 -1.7536 -1.0263 -1.5196
43163SOL     OW31495  10.068   0.275   4.785  0.1944 -0.3373  0.1784
43163SOL    HW131496  10.124   0.295   4.710 -1.3323  0.2147 -0.8780
43163SOL    HW231497  10.105   0.195   4.822  3.2766  1.4261  1.2318
43164SOL     OW31498   2.114  10.300   0.820 -0.6002  0.0904 -1.1161
43164SOL    HW131499   2.127  10.345   0.736  0.9457  1.1493 -0.3732
43164SOL    HW231500   2.140  10.365   0.886 -0.5623 -1.1297  0.1257
43165SOL     OW31501   2.320   1.382   7.956  0.0678  0.1762 -0.2022
43165SOL    HW131502   2.232   1.419   7.945 -0.4967 -0.5126  1.6534
43165SOL    HW231503   2.347   1.411   8.044  2.3823  1.6904 -1.3128
43166SOL     OW31504   1.628   0.262   3.237  0.1110 -0.5146  0.4054
43166SOL    HW131505   1.637   0.356   3.251  0.2117 -0.3900 -0.4108
43166SOL    HW231506   1.534   0.244   3.245 -0.0756 -0.1139 -0.6669
43167SOL     OW31507   4.725   3.271   4.015  0.2882 -0.4258  0.0801
43167SOL    HW131508   4.731   3.230   4.101 -0.9259 -2.0994 -0.5702
43167SOL    HW231509   4.815   3.295   3.993  0.6978 -0.5895  1.5265
43168SOL     OW31510   9.079   6.329   6.100  0.3684 -0.1124 -0.4065
43168SOL    HW131511   9.001   6.292   6.060 -0.0814  0.3404  0.0460
43168SOL    HW231512   9.047   6.388   6.168  1.1213 -1.6330  1.3600
43169SOL     OW31513   7.864   3.371   2.758 -0.2466  0.3606  0.2748
43169SOL    HW131514   7.770   3.355   2.750 -0.6502  2.1354  0.9070
43169SOL    HW231515   7.900   3.346   2.673 -1.5592  1.2808 -0.5818
43170SOL     OW31516  10.011  11.054   2.563 -0.5190  0.2206  0.0981
43170SOL    HW131517   9.957  11.013   2.630  2.7894 -2.0026  1.6015
43170SOL    HW231518  10.028  10.984   2.500  2.1440  0.2217  0.7209
43171SOL     OW31519  10.805   9.573  10.825  0.4826  0.1536  0.0352
43171SOL    HW131520  10.794   9.644  10.762 -1.3412  1.0461  1.2815
43171SOL    HW231521  10.761   9.498  10.784  2.9698 -0.5654 -1.5779
43172SOL     OW31522   7.738   7.782  10.179  0.0266  0.0403  0.7319
43172SOL    HW131523   7.775   7.721  10.244  2.0610 -0.7085 -1.0028
43172SOL    HW231524   7.667   7.732  10.139  1.2264 -1.0130 -0.1895
43173SOL     OW31525   1.516   7.759   3.167 -0.3565 -0.1202  0.2311
43173SOL    HW131526   1.576   7.684   3.164  1.4831  1.2736 -2.4227
43173SOL    HW231527   1.557   7.820   3.229 -1.2556 -0.8288  1.5387
43174SOL     OW31528  10.404   1.811   7.326  0.1424  0.4893  0.1122
43174SOL    HW131529  10.319   1.781   7.358  0.4083 -1.3588 -0.7782
43174SOL    HW231530  10.405   1.905   7.344 -0.0414 -0.1277  4.8071
43175SOL     OW31531   9.737   1.333   9.803 -0.1705 -0.6840  0.8605
43175SOL    HW131532   9.743   1.362   9.894 -1.8336  0.8761  0.5418
43175SOL    HW231533   9.644   1.337   9.782  0.3496  1.4623 -1.6080
43176SOL     OW31534   0.544   9.588   8.763  0.2273 -0.3195  0.4098
43176SOL    HW131535   0.630   9.596   8.803  0.6439  0.0723 -0.5569
43176SOL    HW231536   0.516   9.498   8.784  0.6615 -0.3032  1.1057
43177SOL     OW31537   6.186  10.209   7.857 -0.6245  0.4592  0.2797
43177SOL    HW131538   6.154  10.239   7.771 -0.3455  0.0917  0.0431
43177SOL    HW231539   6.275  10.243   7.862 -0.6941  0.6099  0.4921
43178SOL     OW31540   7.290   8.663   4.222 -0.4857 -0.2307  0.4994
43178SOL    HW131541   7.338   8.720   4.282 -0.2494  0.8323 -0.6498
43178SOL    HW231542   7.306   8.702   4.135 -1.7104 -1.0814 -0.1277
43179SOL     OW31543   3.517   8.776   7.056 -0.2469  0.1405  0.4681
43179SOL    HW131544   3.501   8.754   6.965  0.7460 -1.2026  0.5747
43179SOL    HW231545   3.434   8.811   7.088 -0.4975  1.0168 -1.0307
43180SOL     OW31546   9.111   2.036   1.502 -0.8151 -0.3917  0.4505
43180SOL    HW131547   9.140   1.945   1.504 -0.0522 -0.1494  0.7819
43180SOL    HW231548   9.140   2.072   1.586 -0.7458  0.2700  0.1490
43181SOL     OW31549   8.898   8.820   8.039  0.0506 -0.2186  0.6174
43181SOL    HW131550   8.973   8.873   8.011  0.2454 -0.7570  0.1059
43181SOL    HW231551   8.897   8.828   8.135  1.1430 -0.7061  0.6814
43182SOL     OW31552  10.984   3.507   1.289  0.5536  0.5959  0.2816
43182SOL    HW131553  10.974   3.602   1.287  1.7747  0.7299 -0.2174
43182SOL    HW231554  10.898   3.473   1.264 -0.6897  1.4876  2.9201
43183SOL     OW31555   4.679   8.303   6.745 -0.0117 -0.1623  0.9012
43183SOL    HW131556   4.622   8.241   6.700  0.1253  1.0788 -1.1245
43183SOL    HW231557   4.703   8.259   6.826 -0.1903 -2.6106 -0.2729
43184SOL     OW31558   9.007   4.063   2.879 -0.0114  0.5938  0.1041
43184SOL    HW131559   8.986   4.148   2.917  0.3530  1.1790 -0.9653
43184SOL    HW231560   9.047   4.083   2.795 -0.3402 -0.6485 -0.3792
43185SOL     OW31561   3.931   6.863  10.552  0.0552 -0.3393 -0.3606
43185SOL    HW131562   3.888   6.894  10.632 -0.9687 -0.8891 -0.6790
43185SOL    HW231563   3.859   6.849  10.491  0.7484 -0.8227 -1.0699
43186SOL     OW31564   8.959   5.579   1.996  0.4273  0.0549 -0.2526
43186SOL    HW131565   8.918   5.500   1.961  0.7845 -0.1581 -0.1924
43186SOL    HW231566   8.885   5.630   2.031 -0.0599  0.7188 -2.1292
43187SOL     OW31567   1.917   0.332   2.128 -0.2584 -0.0718 -0.3964
43187SOL    HW131568   1.883   0.289   2.206 -1.7569  0.3862 -0.7820
43187SOL    HW231569   1.871   0.415   2.124  0.7014  0.4513 -1.1134
43188SOL     OW31570   4.397   4.127   9.662 -0.0867  0.2619 -0.1287
43188SOL    HW131571   4.394   4.057   9.727 -1.4336 -1.2705 -1.7545
43188SOL    HW231572   4.481   4.170   9.678  0.6534 -1.5189  1.1185
43189SOL     OW31573   4.396   5.996  10.742  0.0020 -0.3310 -0.3603
43189SOL    HW131574   4.332   5.940  10.697 -2.0758  0.5598  1.3185
43189SOL    HW231575   4.407   5.956  10.828  0.6212  0.3224 -0.1243
43190SOL     OW31576   9.348   0.166   2.372 -0.0347 -0.4066 -0.0308
43190SOL    HW131577   9.374   0.100   2.309 -2.0264  0.4251 -1.8296
43190SOL    HW231578   9.354   0.249   2.324  0.2100  0.4898  1.4647
43191SOL     OW31579   1.095   8.283   5.339  0.4784  0.1586  0.6144
43191SOL    HW131580   1.079   8.200   5.294 -1.5193  1.0443 -0.4130
43191SOL    HW231581   1.125   8.258   5.426  0.0102 -1.6363  0.2920
43192SOL     OW31582   6.918   0.425   2.364  0.3384 -0.2601 -0.3395
43192SOL    HW131583   6.867   0.385   2.293  0.2341  0.7795 -0.8629
43192SOL    HW231584   6.998   0.372   2.367  1.4796  1.1241 -2.9383
43193SOL     OW31585   8.098   0.747  10.294 -0.0803 -0.4456  0.3824
43193SOL    HW131586   8.118   0.840  10.284  2.4282 -1.0092 -0.5882
43193SOL    HW231587   8.071   0.718  10.207 -1.9115 -0.4567  0.9149
43194SOL     OW31588   7.642   3.154   7.373  0.1472 -0.7094 -0.0059
43194SOL    HW131589   7.549   3.174   7.365 -0.0252 -1.7139 -0.6598
43194SOL    HW231590   7.686   3.225   7.325 -0.2029  0.2758  1.0713
43195SOL     OW31591   0.343   8.762   3.100 -0.1041 -0.0437 -0.6501
43195SOL    HW131592   0.252   8.792   3.098 -0.1192  0.1594  1.3430
43195SOL    HW231593   0.390   8.831   3.145  0.7726 -0.7895 -0.3902
43196SOL     OW31594   1.895   3.717  10.285 -0.1896 -0.9109 -0.0773
43196SOL    HW131595   1.840   3.731  10.361 -0.3241 -1.1046 -0.1369
43196SOL    HW231596   1.838   3.736  10.210  0.1128 -0.1480 -0.1186
43197SOL     OW31597   9.228  10.745   7.696 -0.6164 -0.1384 -0.1333
43197SOL    HW131598   9.255  10.753   7.605  0.7408  1.7061  0.3770
43197SOL    HW231599   9.150  10.689   7.693 -0.8200  0.1639 -2.4390
43198SOL     OW31600   5.072   5.764   1.734  0.3075 -0.3818  0.4687
43198SOL    HW131601   4.986   5.801   1.750 -0.0918 -0.6227 -0.9810
43198SOL    HW231602   5.095   5.792   1.646 -0.3568 -4.1083 -1.0873
43199SOL     OW31603   7.592  10.258   3.295 -0.0229 -0.1032 -0.0568
43199SOL    HW131604   7.619  10.179   3.248 -1.0966 -0.8152  0.4846
43199SOL    HW231605   7.674  10.296   3.327  0.6303 -0.2024 -1.5276
43200SOL     OW31606  10.204   7.721   1.281  0.8171 -0.3220  0.4079
43200SOL    HW131607  10.260   7.756   1.351  0.5433 -1.6003  1.2928
43200SOL    HW231608  10.266   7.681   1.219  1.2446  2.4668 -1.1841
43201SOL     OW31609   9.691   9.493   1.892 -0.2700 -0.5750  0.1572
43201SOL    HW131610   9.784   9.476   1.878 -0.0354  0.9060 -0.1421
43201SOL    HW231611   9.651   9.478   1.807  0.0753  1.2012 -0.3430
43202SOL     OW31612   9.984   5.418   2.722  0.0111 -0.3552  0.2406
43202SOL    HW131613  10.009   5.510   2.724  0.6946 -0.4991 -0.9926
43202SOL    HW231614   9.906   5.413   2.778 -0.1787  1.0096  0.1165
43203SOL     OW31615   8.117   3.213  10.713 -0.0108 -0.3677 -0.1080
43203SOL    HW131616   8.160   3.244  10.793  1.2078 -0.9295 -0.5156
43203SOL    HW231617   8.024   3.221  10.731  0.2334  2.1015  0.3337
43204SOL     OW31618  11.031   0.037  10.772  0.2690  0.3139 -0.0015
43204SOL    HW131619  11.094   0.022  10.701  0.5862  0.5829  0.2247
43204SOL    HW231620  11.072  -0.000  10.849  0.0553  0.2974  0.1056
43205SOL     OW31621   3.108   8.152   1.669  0.1193  0.1153 -0.0874
43205SOL    HW131622   3.126   8.137   1.762  1.1165  0.4198 -0.2146
43205SOL    HW231623   3.056   8.232   1.666  0.7245  0.5181  0.1658
43206SOL     OW31624   5.737   0.163   7.213  0.3808 -0.3070 -0.0057
43206SOL    HW131625   5.741   0.137   7.121  1.4708 -0.1484 -0.0103
43206SOL    HW231626   5.826   0.191   7.234 -0.5200  2.6987  0.2213
43207SOL     OW31627   5.090   1.090   8.937 -0.4505  0.6644  0.1730
43207SOL    HW131628   5.061   1.013   8.889  1.3390 -0.5938  0.9955
43207SOL    HW231629   5.133   1.145   8.871  0.3770 -0.1822 -0.0012
43208SOL     OW31630  10.814   5.425   0.173 -0.6785 -0.0790  0.5115
43208SOL    HW131631  10.820   5.520   0.182 -1.8619 -0.1007  1.8836
43208SOL    HW231632  10.739   5.411   0.116  1.0729 -0.1818 -1.9139
43209SOL     OW31633   2.614  11.054   2.157 -0.3245 -0.4057 -0.2531
43209SOL    HW131634   2.536  11.003   2.131 -0.9738  0.7994 -0.7444
43209SOL    HW231635   2.669  10.991   2.204 -1.3985 -1.3996 -0.2766
43210SOL     OW31636   3.245   9.098   7.910 -0.4320  0.3477 -0.2904
43210SOL    HW131637   3.285   9.067   7.829  0.9189  1.5530 -0.1387
43210SOL    HW231638   3.159   9.058   7.912 -0.0126 -0.6928 -1.7008
43211SOL     OW31639   7.540   8.351   8.479  0.5334 -0.0656  0.0997
43211SOL    HW131640   7.629   8.322   8.497  0.2817 -0.1031  1.4177
43211SOL    HW231641   7.534   8.353   8.384  1.4056 -1.7079 -0.0194
43212SOL     OW31642   7.222   8.664   8.518  0.0531  0.3116 -0.0838
43212SOL    HW131643   7.199   8.756   8.517  0.2067  0.3493 -0.2621
43212SOL    HW231644   7.317   8.663   8.503  0.5272  0.2562  2.5130
43213SOL     OW31645   1.008   3.016  10.810  0.3264 -0.1810  0.0160
43213SOL    HW131646   0.944   3.085  10.826  0.0412 -0.4192 -0.0960
43213SOL    HW231647   0.958   2.935  10.811  0.1009 -0.1827 -2.9198
43214SOL     OW31648   9.032   2.389   2.835 -0.1808  0.4186  0.0829
43214SOL    HW131649   8.967   2.454   2.863 -0.7602 -0.8813  1.9783
43214SOL    HW231650   8.985   2.306   2.838  1.7686 -0.7378  2.5873
43215SOL     OW31651   9.576   2.100   0.014 -0.5254  0.3485 -0.0951
43215SOL    HW131652   9.657   2.049   0.020 -0.5225  0.2637 -0.8099
43215SOL    HW231653   9.564   2.135   0.103 -1.6170 -2.5226  1.0205
43216SOL     OW31654   9.153   1.717   2.526  0.3776  0.4247  0.1708
43216SOL    HW131655   9.060   1.729   2.507  0.3392  0.2598  0.2475
43216SOL    HW231656   9.168   1.623   2.515  0.7096  0.5582 -0.6174
43217SOL     OW31657   9.249   6.658   5.149  0.0104  0.3511 -0.0514
43217SOL    HW131658   9.337   6.675   5.181 -0.3913  0.7842  0.8626
43217SOL    HW231659   9.226   6.573   5.186  0.2244  0.0077 -0.6973
43218SOL     OW31660   5.028  10.280   8.030 -0.3276  0.0087  0.2330
43218SOL    HW131661   4.944  10.319   8.054 -0.6525  0.1744 -1.1140
43218SOL    HW231662   5.047  10.315   7.943  0.8736 -0.4603  0.2869
43219SOL     OW31663   1.111   2.742   9.760 -0.1176  0.3832  0.7578
43219SOL    HW131664   1.106   2.771   9.851  1.5074  0.5563  0.8170
43219SOL    HW231665   1.199   2.708   9.751 -0.2713  0.3412 -0.7543
43220SOL     OW31666  10.398   1.944   5.638 -0.0754  0.0330 -0.2359
43220SOL    HW131667  10.414   1.964   5.730  0.3369 -0.2473 -0.2431
43220SOL    HW231668  10.307   1.970   5.623  0.6957  2.8905 -0.5096
43221SOL     OW31669   1.400  10.423   5.411 -0.2939  0.1484 -0.5327
43221SOL    HW131670   1.321  10.412   5.465 -0.9437 -1.3248 -1.6701
43221SOL    HW231671   1.450  10.492   5.454 -1.7805  0.4983  0.7354
43222SOL     OW31672   7.462   1.419   9.856  0.2397  0.1529 -0.8358
43222SOL    HW131673   7.529   1.471   9.900  0.7684 -1.7861  0.8021
43222SOL    HW231674   7.480   1.329   9.883 -1.7386 -0.6777 -2.0709
43223SOL     OW31675   7.500   1.190   8.760 -0.6387  0.1259 -0.5106
43223SOL    HW131676   7.429   1.253   8.748 -0.2824  0.7709  0.6734
43223SOL    HW231677   7.495   1.165   8.852  1.5532  1.2847 -0.0226
43224SOL     OW31678   8.219   9.676   5.577  0.1612 -0.1960 -0.5583
43224SOL    HW131679   8.227   9.599   5.521  2.1168 -0.5070  0.0758
43224SOL    HW231680   8.291   9.733   5.550 -0.7132  1.0251 -0.4029
43225SOL     OW31681   3.127   6.020   2.975  0.9596  0.4913 -0.3324
43225SOL    HW131682   3.034   6.013   2.994  0.9192  1.4684 -0.0907
43225SOL    HW231683   3.167   5.947   3.021  0.3123  0.0642 -0.4414
43226SOL     OW31684   0.402   5.367   1.291 -0.0181 -0.0923  0.3409
43226SOL    HW131685   0.465   5.352   1.361  0.2123 -0.8860 -0.0213
43226SOL    HW231686   0.323   5.320   1.319  0.4365 -1.3786 -0.4183
43227SOL     OW31687   4.480  10.164   7.196 -0.7621 -0.1226 -0.0697
43227SOL    HW131688   4.451  10.168   7.287 -1.0663 -0.8415 -0.1242
43227SOL    HW231689   4.438  10.085   7.161 -1.7148  0.8356 -1.1968
43228SOL     OW31690   9.737   9.148   7.065  0.2345 -0.0405  0.3042
43228SOL    HW131691   9.726   9.109   6.978  1.1406 -1.8217  0.9478
43228SOL    HW231692   9.830   9.137   7.084  0.4618  2.0986  0.7310
43229SOL     OW31693   1.304   9.464   5.600 -0.1051 -0.1998  0.0619
43229SOL    HW131694   1.336   9.477   5.511 -2.2303  2.4352 -0.4231
43229SOL    HW231695   1.209   9.474   5.594 -0.4179 -0.9012  2.4975
43230SOL     OW31696   7.833   7.675   3.916 -0.6678 -0.2182 -0.4691
43230SOL    HW131697   7.770   7.629   3.862  0.7871 -1.0132 -1.5403
43230SOL    HW231698   7.905   7.614   3.928 -0.6365  0.1660  1.8592
43231SOL     OW31699   1.440  10.722   0.445 -0.3295  0.1352  0.1741
43231SOL    HW131700   1.481  10.682   0.369  0.4853  0.2601  0.5367
43231SOL    HW231701   1.348  10.730   0.421  0.1901  1.7819 -1.5139
43232SOL     OW31702   0.348   8.264  11.097 -0.1424 -0.6765 -0.2776
43232SOL    HW131703   0.257   8.241  11.114 -1.1097  2.9695  0.2985
43232SOL    HW231704   0.352   8.278  11.003 -0.6489  0.7249 -0.1084
43233SOL     OW31705   4.241   7.058   0.025  1.0056 -0.0337  0.1970
43233SOL    HW131706   4.246   6.999   0.100  1.1517 -0.6494 -0.2854
43233SOL    HW231707   4.260   7.002  -0.051 -0.5644  0.2546 -0.4532
43234SOL     OW31708   3.238   7.562   8.733  0.0494  0.2187  0.5922
43234SOL    HW131709   3.154   7.521   8.757 -0.7644  0.5066 -1.5846
43234SOL    HW231710   3.290   7.490   8.698  0.8851 -0.0149  2.1958
43235SOL     OW31711   1.537   7.146  11.079  0.0880  0.0568 -0.0318
43235SOL    HW131712   1.624   7.142  11.118 -0.8700  0.5641  2.2925
43235SOL    HW231713   1.553   7.139  10.985  2.5600 -0.6749  0.3728
43236SOL     OW31714   9.858   6.093   8.536  0.1660  0.3562 -0.0567
43236SOL    HW131715   9.847   6.187   8.525  1.9341  0.6265  0.2507
43236SOL    HW231716   9.770   6.061   8.557 -0.1814  2.1623  1.4682
43237SOL     OW31717   7.854   2.460  10.732 -0.1867 -0.5295 -0.5675
43237SOL    HW131718   7.908   2.496  10.802  0.5941  0.0906 -1.4564
43237SOL    HW231719   7.772   2.434  10.775  0.7434 -1.3549  0.7846
43238SOL     OW31720  10.035   3.747   8.833  0.0399 -0.2285  0.5221
43238SOL    HW131721  10.054   3.825   8.782  0.1939 -1.0512 -0.7118
43238SOL    HW231722  10.089   3.678   8.794 -0.9087 -1.2136  0.8738
43239SOL     OW31723   0.489   5.160   0.104 -0.1634  0.1568 -0.0796
43239SOL    HW131724   0.415   5.125   0.054  0.0616 -2.4453  1.2496
43239SOL    HW231725   0.450   5.226   0.161 -1.2798 -0.3421 -0.2345
43240SOL     OW31726   8.653   9.318   8.007 -0.3168  0.3449  0.4804
43240SOL    HW131727   8.724   9.271   8.051 -2.0050 -2.1404  0.7666
43240SOL    HW231728   8.654   9.286   7.917  1.8347  3.9081 -0.9634
43241SOL     OW31729   2.192   0.190   7.240 -0.1362  0.6467 -0.0800
43241SOL    HW131730   2.266   0.149   7.195  2.0460  2.3350  1.7630
43241SOL    HW231731   2.128   0.119   7.251  3.3492 -2.4597  2.8333
43242SOL     OW31732   7.813   2.287   8.562 -0.0611  0.1981 -0.2062
43242SOL    HW131733   7.895   2.335   8.547 -0.1404  0.1975 -0.6704
43242SOL    HW231734   7.801   2.236   8.482  0.1320 -0.7609  0.3611
43243SOL     OW31735   7.399   6.762   4.965 -0.6027  0.1230 -0.1433
43243SOL    HW131736   7.365   6.842   5.006  3.9331  1.1844  2.1910
43243SOL    HW231737   7.388   6.695   5.032  1.0326  0.3293  0.3787
43244SOL     OW31738   0.441   9.840   6.471  0.0291  0.0697 -0.2435
43244SOL    HW131739   0.447   9.924   6.425 -0.6166 -0.5018 -1.4081
43244SOL    HW231740   0.370   9.854   6.534  1.3808  1.0802  1.1452
43245SOL     OW31741   1.111   8.004   7.879  0.0704 -0.6033 -0.2512
43245SOL    HW131742   1.132   8.090   7.913  1.1861 -1.2125  0.6740
43245SOL    HW231743   1.194   7.971   7.844 -0.0169 -1.8394  0.6606
43246SOL     OW31744   6.501   0.240   2.910  0.0313 -0.1152  0.0917
43246SOL    HW131745   6.584   0.280   2.938 -0.7270  1.1087  0.6382
43246SOL    HW231746   6.528   0.161   2.863  1.4405 -0.9739  2.1853
43247SOL     OW31747   9.727  10.569   9.938 -0.3175  0.5001  0.1542
43247SOL    HW131748   9.710  10.635   9.871 -1.2513 -0.5101 -0.6377
43247SOL    HW231749   9.784  10.506   9.895 -0.2661  0.2589  0.5709
43248SOL     OW31750   9.885   7.331   0.796  0.6160  0.2124 -0.0132
43248SOL    HW131751   9.806   7.381   0.815 -1.5459 -3.1251  0.6164
43248SOL    HW231752   9.949   7.397   0.769 -2.3274  3.1015 -0.5749
43249SOL     OW31753   7.561   0.220   7.519 -0.4960  0.0577  0.0011
43249SOL    HW131754   7.601   0.306   7.504 -0.2985 -0.1614 -0.7498
43249SOL    HW231755   7.471   0.228   7.487 -1.2500  0.6782  2.0710
43250SOL     OW31756   7.549   1.110  10.903 -0.1362 -0.1887  0.0482
43250SOL    HW131757   7.610   1.099  10.830 -1.2650  2.4473 -1.4301
43250SOL    HW231758   7.462   1.099  10.864 -0.7288 -0.9233  1.4958
43251SOL     OW31759   8.017   1.275   2.119  0.0314 -0.1015  0.1007
43251SOL    HW131760   8.001   1.182   2.104  1.0858 -0.4342  0.8762
43251SOL    HW231761   8.105   1.278   2.158 -1.4008  0.8681  3.6420
43252SOL     OW31762   6.432   1.120   9.539  0.1501  0.2160  0.0524
43252SOL    HW131763   6.431   1.215   9.547 -2.1041  0.1310  1.7998
43252SOL    HW231764   6.492   1.090   9.607 -0.1410  0.3535  0.3709
43253SOL     OW31765  10.470   6.442   3.435  0.0150 -0.0290  0.7872
43253SOL    HW131766  10.562   6.458   3.455 -0.1222  0.3740  1.1305
43253SOL    HW231767  10.425   6.459   3.518 -0.4331  0.3672  0.4695
43254SOL     OW31768   5.236   2.374   8.907 -0.2964  0.3711  0.1903
43254SOL    HW131769   5.212   2.289   8.945 -0.5010  0.7252  0.8645
43254SOL    HW231770   5.166   2.433   8.933 -1.2698  0.2933 -2.0938
43255SOL     OW31771   4.158   5.177   6.556 -0.4277 -0.4552  0.3673
43255SOL    HW131772   4.099   5.103   6.543  0.1874 -1.0376  0.7732
43255SOL    HW231773   4.245   5.137   6.559  0.2193  0.5763 -2.2912
43256SOL     OW31774   4.453   0.449   9.438  0.4293 -0.3487  0.1769
43256SOL    HW131775   4.526   0.423   9.383  0.6198  0.8904 -0.1869
43256SOL    HW231776   4.467   0.542   9.454 -2.6998  0.8256 -2.5997
43257SOL     OW31777   1.915  10.479   5.067 -0.1856 -0.5388  0.0092
43257SOL    HW131778   1.838  10.445   5.021 -1.4293 -0.4213  1.9093
43257SOL    HW231779   1.970  10.402   5.080 -0.8149 -0.9675  0.1876
43258SOL     OW31780   4.830   4.607   2.175 -0.0143  0.2937  0.1934
43258SOL    HW131781   4.871   4.536   2.224 -0.8230 -0.9239 -0.8459
43258SOL    HW231782   4.871   4.687   2.209  1.1954 -0.6899  1.1005
43259SOL     OW31783   2.155   8.974   3.448 -0.4498  0.5699 -0.6702
43259SOL    HW131784   2.178   8.903   3.508  1.4978  0.1862 -1.8030
43259SOL    HW231785   2.157   9.052   3.503 -2.1066 -0.1109  0.4772
43260SOL     OW31786  10.347   2.972   0.807  0.3137 -0.0960  0.0544
43260SOL    HW131787  10.436   3.001   0.826 -0.4430  1.1456  1.9175
43260SOL    HW231788  10.327   3.009   0.721  0.5695  2.2117  0.9267
43261SOL     OW31789   2.473   0.719   8.090 -0.0581  0.0466  0.5271
43261SOL    HW131790   2.436   0.631   8.095  0.1249  0.0050  1.1970
43261SOL    HW231791   2.568   0.705   8.084 -0.1560  0.1167 -2.1839
43262SOL     OW31792   2.062   7.698   1.943 -0.6971  0.8144  0.2342
43262SOL    HW131793   2.087   7.607   1.957  0.8784  1.5056  2.2863
43262SOL    HW231794   2.002   7.695   1.868  1.0856 -1.6235 -1.2130
43263SOL     OW31795   0.073  10.473   9.753 -0.2713 -0.3473 -0.4383
43263SOL    HW131796   0.114  10.559   9.750 -0.9633 -0.0000 -0.1430
43263SOL    HW231797  -0.018  10.487   9.725 -0.8169 -0.6965  1.0456
43264SOL     OW31798   9.319   0.940   0.748  0.3075 -0.1195 -0.0847
43264SOL    HW131799   9.299   0.923   0.656 -0.1442  1.3686 -0.2845
43264SOL    HW231800   9.403   0.985   0.746  0.4304 -0.3357  0.2506
43265SOL     OW31801   9.178   1.123   3.583 -0.0915 -0.3642 -0.4280
43265SOL    HW131802   9.126   1.202   3.598  1.2355  0.8421 -1.8175
43265SOL    HW231803   9.123   1.052   3.615 -0.1188  1.2877  3.8370
43266SOL     OW31804   4.383  10.028   0.181  0.1299 -0.1379 -0.1368
43266SOL    HW131805   4.365   9.941   0.147  0.4912  0.1658 -1.1327
43266SOL    HW231806   4.308  10.081   0.154  0.3687  0.0800 -0.3826
43267SOL     OW31807   8.867   8.705   9.741 -0.7037 -0.8146 -0.1938
43267SOL    HW131808   8.876   8.678   9.650 -1.7367  0.3762 -0.6766
43267SOL    HW231809   8.942   8.762   9.757 -0.4420 -1.1429 -0.2545
43268SOL     OW31810   2.046   3.752   2.228  0.0840 -0.4171  0.0652
43268SOL    HW131811   2.018   3.676   2.177 -0.4862 -0.6055  0.6524
43268SOL    HW231812   1.987   3.754   2.303 -0.0475  0.7316 -0.0491
43269SOL     OW31813  10.214  10.325   3.483  0.0857 -0.6786 -0.1164
43269SOL    HW131814  10.177  10.292   3.565 -0.1826 -0.9518 -0.3445
43269SOL    HW231815  10.285  10.263   3.463  0.0214 -0.7270 -0.1935
43270SOL     OW31816   5.962   2.567   9.931 -0.0420 -0.4546 -0.0941
43270SOL    HW131817   5.894   2.525   9.878  0.6728  0.3234 -1.7071
43270SOL    HW231818   6.003   2.629   9.871  0.6685  0.6357  1.4717
43271SOL     OW31819   1.540   6.574   0.388  0.1343 -0.3602 -0.1382
43271SOL    HW131820   1.606   6.625   0.434 -0.0630  0.2236 -0.4838
43271SOL    HW231821   1.526   6.497   0.443 -0.3258  0.4660  0.9482
43272SOL     OW31822   6.939   1.596   6.922  0.0222  0.3187  0.7010
43272SOL    HW131823   6.873   1.656   6.886 -1.0821 -2.5406 -2.5541
43272SOL    HW231824   7.021   1.644   6.916 -0.9987  2.0402 -0.4023
43273SOL     OW31825   0.997   5.876  10.646  0.1862  0.1456 -0.0815
43273SOL    HW131826   0.914   5.900  10.606 -0.8565 -1.2162  1.1403
43273SOL    HW231827   1.005   5.934  10.722  0.0846 -0.0581  0.0873
43274SOL     OW31828   0.889   0.013   1.463 -0.2688 -0.1948 -0.1418
43274SOL    HW131829   0.880  -0.073   1.421 -1.4056 -0.5964  0.8558
43274SOL    HW231830   0.982   0.018   1.487  0.1316 -0.4806 -1.5384
43275SOL     OW31831   2.827  10.132   8.443  0.6352  0.1213 -0.3217
43275SOL    HW131832   2.804  10.167   8.529 -0.3675 -1.2213 -0.0155
43275SOL    HW231833   2.919  10.157   8.432 -0.1200  3.2272 -0.3797
43276SOL     OW31834   1.614   1.129   4.470 -0.7782 -0.1753  0.0910
43276SOL    HW131835   1.607   1.077   4.390 -1.3622 -0.0750  0.0696
43276SOL    HW231836   1.688   1.187   4.454  1.4007 -2.5218  1.0091
43277SOL     OW31837   9.044   5.659  10.642  0.2832 -0.7739  0.1335
43277SOL    HW131838   9.056   5.610  10.723  0.4895 -0.0103  0.5698
43277SOL    HW231839   9.039   5.750  10.669  0.2041 -0.5214 -0.7011
43278SOL     OW31840   8.862   3.021   9.801 -0.8558 -0.3268 -0.4278
43278SOL    HW131841   8.869   2.987   9.891  0.6302  2.8005  0.7754
43278SOL    HW231842   8.935   2.981   9.755  1.3463  1.5580  1.1712
43279SOL     OW31843   2.019   4.393   1.159  0.6511 -0.2758 -1.0163
43279SOL    HW131844   1.942   4.413   1.212  1.0585 -2.3055  0.4779
43279SOL    HW231845   1.985   4.339   1.087  0.7550 -2.6142  0.5528
43280SOL     OW31846   7.040   3.163   4.745  0.4499  0.2090  0.0154
43280SOL    HW131847   7.112   3.193   4.690  0.6167 -0.1986  0.0054
43280SOL    HW231848   6.966   3.153   4.685  0.5064  0.2097 -0.0539
43281SOL     OW31849  10.091   0.242   2.141  0.2838 -0.4200 -0.6591
43281SOL    HW131850  10.115   0.328   2.106  0.1342 -0.1974 -0.2235
43281SOL    HW231851  10.128   0.180   2.079 -1.0228 -0.0166 -1.9011
43282SOL     OW31852   9.351   3.164  10.547 -0.1458 -0.0235  0.5037
43282SOL    HW131853   9.441   3.154  10.516 -0.8118 -0.8735 -1.2636
43282SOL    HW231854   9.311   3.224  10.485 -0.5013  1.3510  1.9994
43283SOL     OW31855   2.348   0.817   8.790  0.5507 -0.5745 -0.4006
43283SOL    HW131856   2.434   0.837   8.753  0.5254  0.1303 -0.0888
43283SOL    HW231857   2.328   0.729   8.757  0.2033  0.2780 -2.6928
43284SOL     OW31858   1.207   3.432   8.052 -0.0177 -0.5881 -0.2852
43284SOL    HW131859   1.285   3.375   8.047  0.8341  0.2980  1.9087
43284SOL    HW231860   1.222   3.498   7.984  1.8987  0.3787  0.9724
43285SOL     OW31861  10.207   2.359   8.481  0.1144  0.4354 -0.6049
43285SOL    HW131862  10.169   2.301   8.415 -0.4699  0.7372 -0.5415
43285SOL    HW231863  10.261   2.301   8.536  1.0988  0.2765 -1.6963
43286SOL     OW31864  10.537   0.802   3.720 -0.1323  0.3538 -0.3815
43286SOL    HW131865  10.513   0.851   3.799 -0.8941  0.8160 -0.8917
43286SOL    HW231866  10.609   0.851   3.681  0.7517 -0.2783  0.4081
43287SOL     OW31867   7.378   8.104   5.108 -0.2300  0.1348 -0.0906
43287SOL    HW131868   7.351   8.012   5.116  1.8771 -0.5523 -0.2564
43287SOL    HW231869   7.296   8.152   5.095 -1.5606 -1.5033  1.6685
43288SOL     OW31870   7.841   1.735   8.770 -0.1436  0.1699  0.5398
43288SOL    HW131871   7.798   1.782   8.699  1.2231  0.2779 -0.2649
43288SOL    HW231872   7.817   1.643   8.756  2.0174 -0.1732 -1.5940
43289SOL     OW31873   1.595   8.450   1.169 -0.5865  0.3356 -0.4346
43289SOL    HW131874   1.529   8.444   1.238 -0.2673  0.4528 -0.1140
43289SOL    HW231875   1.674   8.414   1.209  0.1555  2.2810 -0.0389
43290SOL     OW31876   4.919   9.254   3.733 -0.0216 -0.5796  0.1532
43290SOL    HW131877   4.984   9.286   3.796  0.1629  0.3455 -0.4921
43290SOL    HW231878   4.959   9.175   3.696 -0.6858 -1.9307  2.1055
43291SOL     OW31879   8.075   1.245   7.185  0.7965 -0.1713 -0.0056
43291SOL    HW131880   8.144   1.297   7.144 -0.9150  1.9901 -0.2957
43291SOL    HW231881   8.039   1.192   7.114  0.2329  0.8785 -0.5133
43292SOL     OW31882   1.799   1.270   5.702 -0.5834  0.0360 -0.4922
43292SOL    HW131883   1.857   1.346   5.694  0.1023 -0.4037  0.1562
43292SOL    HW231884   1.807   1.225   5.618 -0.3436  0.2325 -0.5756
43293SOL     OW31885  10.814   1.702   9.513  0.1445 -0.2558 -0.6521
43293SOL    HW131886  10.902   1.675   9.541  0.0218  0.4398  0.4826
43293SOL    HW231887  10.777   1.744   9.590 -0.7342  0.5539 -1.4874
43294SOL     OW31888   9.523   6.768   1.199  0.7094 -0.1362  0.0618
43294SOL    HW131889   9.485   6.697   1.147 -1.0223  0.0246  1.0204
43294SOL    HW231890   9.505   6.847   1.149  0.7854 -0.1652 -0.0120
43295SOL     OW31891   0.520   1.036   7.865 -0.3677  0.5046 -0.1777
43295SOL    HW131892   0.471   1.082   7.796  0.3286 -1.3474 -2.0062
43295SOL    HW231893   0.578   1.103   7.901 -1.0498  1.6262 -1.0709
43296SOL     OW31894   8.356   1.023  10.524 -0.4094 -0.2166  0.0144
43296SOL    HW131895   8.265   1.000  10.506  0.3608 -2.1937 -1.7833
43296SOL    HW231896   8.376   0.979  10.606 -0.3876 -2.0151 -0.9036
43297SOL     OW31897   4.242   0.319   2.196 -0.1713  0.6983 -0.8833
43297SOL    HW131898   4.280   0.248   2.145 -2.3029 -1.8604  0.7706
43297SOL    HW231899   4.201   0.377   2.131 -0.8016 -1.1573 -2.2252
43298SOL     OW31900   1.120   8.902   7.602  0.3393  0.2159 -0.5137
43298SOL    HW131901   1.213   8.919   7.586  0.7390 -1.6677 -0.4134
43298SOL    HW231902   1.076   8.932   7.522  1.6114 -3.1512 -2.7238
43299SOL     OW31903   9.468   7.991   0.739 -0.5938  0.6781 -0.8457
43299SOL    HW131904   9.520   7.911   0.738  0.6419  1.3883  1.1187
43299SOL    HW231905   9.512   8.050   0.677  0.4365  0.9511  0.1215
43300SOL     OW31906   4.825   2.016  10.843  0.7251  0.8696 -0.4633
43300SOL    HW131907   4.768   2.092  10.836  0.7813  0.8012 -2.2682
43300SOL    HW231908   4.767   1.944  10.867  0.6848  1.4497  1.3221
43301SOL     OW31909   9.836   9.894   8.308  0.5787  0.1319 -0.1778
43301SOL    HW131910   9.772   9.833   8.345  2.3614 -1.9138 -0.3053
43301SOL    HW231911   9.807   9.980   8.339 -1.2079 -0.9024  1.2214
43302SOL     OW31912   1.506  10.739  10.275 -0.5004 -0.2516  0.4195
43302SOL    HW131913   1.445  10.698  10.336 -0.0347  0.8533  1.6619
43302SOL    HW231914   1.585  10.756  10.326  0.4206 -0.5184 -0.8440
43303SOL     OW31915   2.481   0.202   1.162  0.1769  0.2005 -0.1868
43303SOL    HW131916   2.519   0.114   1.166  1.2003  0.6502  0.8064
43303SOL    HW231917   2.543   0.253   1.110  1.4431  1.1166  2.0347
43304SOL     OW31918   2.775  10.769   7.653 -0.0483 -0.1937 -0.2158
43304SOL    HW131919   2.753  10.784   7.561 -1.7287  0.1488  0.2067
43304SOL    HW231920   2.704  10.714   7.686 -0.5024  1.2391  1.3212
43305SOL     OW31921   8.257   1.300   6.744 -0.1694 -0.3172 -0.3262
43305SOL    HW131922   8.327   1.262   6.691  0.6992 -0.1387  0.6697
43305SOL    HW231923   8.224   1.372   6.690  1.9993  1.0964  0.1066
43306SOL     OW31924   1.392   7.928  10.652  0.7189  0.2526  0.6204
43306SOL    HW131925   1.378   8.023  10.652 -0.7050  0.1364 -2.2075
43306SOL    HW231926   1.306   7.891  10.629  1.7011 -1.5912 -0.2950
43307SOL     OW31927  10.253   7.649   6.981 -0.0659 -0.0425 -0.4764
43307SOL    HW131928  10.271   7.707   6.907  0.6686  1.4370  0.8221
43307SOL    HW231929  10.164   7.673   7.009 -0.4507 -0.7892 -1.0110
43308SOL     OW31930   3.249   1.701   1.322  0.3678  0.3877  0.1535
43308SOL    HW131931   3.159   1.687   1.291  0.3614 -4.1029  1.4524
43308SOL    HW231932   3.303   1.690   1.244 -0.0910 -0.4711 -0.0535
43309SOL     OW31933   7.590   2.936   2.637 -0.6352  0.7981  0.4286
43309SOL    HW131934   7.517   2.945   2.698  0.6308  0.3768  2.1071
43309SOL    HW231935   7.668   2.953   2.691  0.4971  1.6621 -1.3729
43310NA      NA31936  10.882   2.867   4.051  0.3084  0.6063  0.5636
43311NA      NA31937  10.698   3.567   5.847  0.0497  0.3350 -0.4282
43312NA      NA31938   1.926   9.909   4.988 -0.6750  0.3003  0.5433
43313NA      NA31939   8.240   2.829   9.727  0.1591 -0.1998  0.2206
43314NA      NA31940   7.917   3.441   2.984  0.2948  0.0898  0.2588
43315NA      NA31941   8.604   3.515   4.565  0.2707  0.0067  0.1209
43316NA      NA31942  11.037   1.846   0.165  0.1241 -0.0705 -0.3357
43317NA      NA31943   0.198   4.628   2.019  0.3092  0.3532 -0.0708
43318NA      NA31944   2.267   3.835   2.155 -0.3366 -0.0396 -0.3548
43319NA      NA31945   4.238   4.629   2.413 -0.5624  0.0407  0.4670
43320NA      NA31946   0.284   7.622   2.526 -0.6314 -0.2069 -0.2432
43321NA      NA31947   6.699   5.998   7.738  0.0784 -0.0462 -0.2565
43322NA      NA31948   3.125   5.886  10.662 -0.1425 -0.1708 -0.0099
43323NA      NA31949   3.246   7.275   6.324  0.2108  0.0383  0.0942
43324NA      NA31950   2.033   8.430   5.237 -0.0086 -0.2169 -0.2162
43325NA      NA31951   2.432   3.899   0.671 -0.3948  0.4695  0.2003
43326NA      NA31952   4.721   9.012   4.072 -0.0784  0.6330  0.1880
43327NA      NA31953   0.620   7.308   0.892 -0.2043 -0.3955  0.0339
43328NA      NA31954   1.966   9.666   9.796  0.2404 -0.2842  0.5542
43329NA      NA31955   8.630   6.394   7.123  0.1201 -0.0176 -0.4797
43330NA      NA31956  10.656   6.607  11.033  0.1444 -0.6396  0.0103
43331NA      NA31957   2.194   8.912   3.225  0.3154 -0.5542 -0.4305
43332NA      NA31958   0.347   8.654   5.040 -0.0829  0.1553 -0.6637
43333NA      NA31959   7.062   5.100   0.789 -0.2498  0.7514 -0.2191
43334NA      NA31960   1.555  10.226   8.299  0.2106 -0.4226 -0.1631
43335NA      NA31961   2.526   8.141   7.746  0.2095  0.2403  0.4867
43336NA      NA31962   2.530   7.250   7.282 -0.2051 -0.0069  0.4166
43337NA      NA31963   9.720   9.309   9.171  0.0700 -0.0484  0.0707
43338NA      NA31964   4.472   0.874  10.214 -0.0278  0.4269  0.3488
43339NA      NA31965   4.368   6.212   0.656 -0.2205 -0.0092 -0.2000
43340NA      NA31966   2.693  10.063  10.759  0.2700 -0.1807  0.1826
43341NA      NA31967   2.324   8.885   6.646  0.1002  0.8645 -0.6161
43342NA      NA31968   2.140   1.218   8.874 -0.1325 -0.0403  0.1612
43343NA      NA31969   9.546   8.559   0.242  0.2123 -0.4116  0.5287
43344NA      NA31970   6.544   1.247   1.644  0.6899 -0.0951  0.2082
43345NA      NA31971   9.150   1.647   1.641 -0.1204 -0.2381  0.0956
43346NA      NA31972   2.303   2.968   1.791  0.3462 -0.3174 -0.0715
43347NA      NA31973  10.398  10.698   3.980  0.3351  0.3632  0.0449
43348NA      NA31974   0.814   4.716   4.428 -0.4319 -0.2942 -0.4852
43349NA      NA31975   2.985   1.273   5.818 -0.2764  0.1306 -0.1574
43350NA      NA31976   0.279   0.919   3.896  0.0402  0.4106  0.2896
43351NA      NA31977   3.010   8.774   4.682 -0.4069  0.3076 -0.2953
43352NA      NA31978   2.110   2.366   7.470  0.1819  0.1575  0.0501
43353NA      NA31979   3.568   3.187  10.133  0.1225 -0.4708 -0.0081
43354NA      NA31980   4.571   1.348   6.583  0.0101  0.2400  0.1802
43355NA      NA31981   1.208   1.640   5.160  0.2511 -0.1623  0.2077
43356NA      NA31982   0.284   2.669   1.827 -0.1739 -0.3432 -0.4470
43357NA      NA31983   3.153  10.872   8.695  0.3964 -0.0367  0.0673
43358NA      NA31984   1.402   3.265   1.652 -0.3236  0.0070 -0.2926
43359NA      NA31985   4.099   7.317   5.603  0.1141  0.2996 -0.2195
43360NA      NA31986   4.581   6.183   5.871 -0.4533 -0.2117 -0.1879
43361NA      NA31987   4.783   5.196   6.882  0.0366  0.1100 -0.1234
43362NA      NA31988   1.266   0.001   6.636  0.0698  0.3454 -0.2722
43363NA      NA31989   2.726   2.427   1.214 -0.0422  0.6501  0.0565
43364NA      NA31990   2.400   4.626   8.269  0.2878  0.1069  0.5333
43365NA      NA31991   5.119   4.702   6.385 -0.3521  0.0928 -0.3562
43366NA      NA31992   1.916   5.079   8.956  0.0701  0.2468  0.2476
43367NA      NA31993   9.843   6.844   3.953 -0.0283 -0.3938 -0.3974
43368NA      NA31994  10.149   7.358   3.144 -0.2735 -0.5278  0.0636
43369NA      NA31995   2.436   7.664  10.563  0.2344  0.5656 -0.1274
43370NA      NA31996   1.694   9.378   1.585 -0.1473  0.1346  0.0344
43371NA      NA31997   0.491   6.813   8.280 -0.0476  0.4112  0.0184
43372NA      NA31998   3.001   0.819   0.446 -0.1886  0.0835  0.2737
43373NA      NA31999   5.405   2.570   3.127 -0.1613  0.2230  0.3525
43374NA      NA32000   7.844   0.316   4.747 -0.0006 -0.4529 -0.2683
43375NA      NA32001   3.777   9.535   7.345 -0.2421  0.2807 -0.2397
43376NA      NA32002   2.810   7.924   6.460 -0.3477  0.2105  0.8701
43377NA      NA32003   7.018   3.600   3.611 -0.7555 -0.3963 -0.0207
43378NA      NA32004   3.713   5.134   4.523 -0.1975 -0.3924  0.0600
43379NA      NA32005   4.884   3.402   3.480  0.5416  0.1675 -0.1567
43380NA      NA32006   6.083   4.239   4.488  0.1693 -0.5541  0.2261
43381NA      NA32007   5.610   5.103   6.243 -0.5924  0.0766 -0.5860
43382NA      NA32008   4.449   4.244   6.127 -0.2138  0.2876  0.1409
43383NA      NA32009   6.527   4.050   6.634 -0.3253 -0.1080  0.2376
43384NA      NA32010   1.857   9.953   2.300  0.3988  0.5198 -0.3299
43385NA      NA32011   5.006   5.081   0.172 -0.0614  0.1389  0.3543
43386NA      NA32012   5.142   5.064   5.400  0.2741 -0.6772  0.4431
43387NA      NA32013   5.081   5.411   9.116  0.2524 -0.2241 -0.2710
43388NA      NA32014   4.263   4.967   7.051 -0.2826  0.7448 -0.4098
43389NA      NA32015   5.575   4.919   5.693  0.0827 -0.1452  0.6411
43390NA      NA32016   5.531   5.156   4.789 -0.4700 -0.5140  0.1499
43391NA      NA32017   5.923   7.733   2.996 -0.1531 -0.7406 -0.3445
43392NA      NA32018   4.658   6.799   3.169 -0.5371  0.4348 -0.1917
43393NA      NA32019   2.757   5.435   7.251  0.4123 -0.6056 -0.0747
43394NA      NA32020   1.794   4.275  10.052 -0.2627 -0.1270 -0.4226
43395NA      NA32021   5.005   7.992   5.289  0.0166  0.5539 -0.4030
43396NA      NA32022   5.227   6.697   5.811 -0.1513 -0.1015  0.8736
43397NA      NA32023   2.549   9.816   9.187  0.3508  0.7483 -0.2507
43398NA      NA32024   5.278   7.254   7.137  0.1807  0.0538  0.0476
43399NA      NA32025   6.627  10.804  10.843 -0.1280  0.2058 -0.1335
43400NA      NA32026   2.411   0.019  10.172 -0.2823  0.0306  0.2370
43401NA      NA32027   3.615   2.253   1.103 -0.2803  0.1753  0.2768
43402NA      NA32028   4.622   7.992   4.213  0.0137 -0.0988 -0.9281
43403NA      NA32029   5.774   8.449   5.854 -0.0355  0.1638  0.0686
43404NA      NA32030   6.744   7.747   7.444  0.6542  0.1147  0.2894
43405NA      NA32031   9.219   1.653  10.642  0.7170  0.2508  0.2160
43406NA      NA32032   4.010   5.327   6.661 -0.2783  0.5157  0.0421
43407NA      NA32033   6.984   3.079   7.164 -0.1048 -0.2223  0.1527
43408NA      NA32034   6.667   2.388   8.079 -0.0919  0.2182 -0.0244
43409NA      NA32035   4.916   3.295   7.432 -0.1225  0.2205 -0.0232
43410NA      NA32036   3.683   4.472   8.441 -0.1566  0.4359 -0.0577
43411NA      NA32037   7.209  10.362   7.615 -0.1751 -0.5673 -0.1737
43412NA      NA32038   4.558  10.219   2.768  0.1038 -0.3882 -0.1400
43413NA      NA32039   3.664   3.780   2.653 -0.1773 -0.1749 -0.0744
43414NA      NA32040   4.026   5.092   5.762  0.1699 -0.6713 -0.2325
43415NA      NA32041   6.067   5.401   5.365  0.3840 -0.0606 -0.7982
43416NA      NA32042   6.665   4.373   5.839  0.4984  0.3303 -0.0217
43417NA      NA32043   4.424   7.802   6.302 -0.1426 -0.1415  0.1883
43418NA      NA32044   6.579   4.694   0.871  0.1259 -0.7933 -0.0052
43419NA      NA32045   6.583   7.797   1.193  0.2305 -0.2690 -0.2209
43420NA      NA32046   6.331   3.571   7.353 -0.2330  0.0531  0.1609
43421NA      NA32047   0.191   6.963   8.499  0.4207 -0.1326 -0.3466
43422NA      NA32048   4.453   7.666   9.734  0.3239  0.2015  0.5417
43423NA      NA32049   7.493   4.665   7.475 -0.1971  0.1345  0.4983
43424NA      NA32050   2.634   2.896   5.371 -0.1266 -0.3633  0.2800
43425NA      NA32051   5.096   6.713   6.157  0.3110 -0.1977  0.0476
43426NA      NA32052   7.482   5.681   8.796 -0.3042  0.4609  0.1654
43427NA      NA32053   5.271   6.947   8.500  0.1800 -0.3155 -0.1599
43428NA      NA32054   6.202   5.578   4.114  0.0786  0.5488  0.1302
43429NA      NA32055   6.861   8.629   6.144 -0.5384  0.2249 -0.3143
43430NA      NA32056   6.141   5.687   4.751  0.4524  0.2502  0.0225
43431NA      NA32057   8.042  10.048   4.927  0.4613  0.6684 -0.5102
43432NA      NA32058   6.433   6.220   5.648 -0.2486 -0.0124  0.3422
43433NA      NA32059   7.624   5.501   3.985  0.0044 -0.0101 -0.1405
43434NA      NA32060   3.732   0.956   6.515  0.0317 -0.0700  0.4313
43435NA      NA32061   6.377   9.406   3.519  0.1843  0.5381 -0.4250
43436NA      NA32062   5.261   0.186  10.455  0.4321 -0.2739 -0.4779
43437NA      NA32063  10.563   1.247  10.644 -0.4777  0.0579 -0.0224
43438NA      NA32064   4.954   1.057   4.370 -0.1385 -0.0384  0.5967
43439NA      NA32065   7.832   9.179  10.351  0.0415  0.1178 -0.0252
43440NA      NA32066   9.841  10.983   1.002 -0.0786 -0.1188 -0.1706
43441NA      NA32067   5.511   8.522   3.377  0.0772 -0.0142  0.1220
43442NA      NA32068   6.677   3.459   1.048  0.1709  0.1798  0.0529
43443NA      NA32069   6.344   9.433   8.805  0.1618 -0.5524 -0.2148
43444NA      NA32070   5.552   2.304   0.939  0.1172  0.2214 -0.2626
43445NA      NA32071   8.854   3.885   2.821  0.4301 -0.3962  0.2796
43446NA      NA32072   5.446  10.596   9.974  0.4364 -0.4995  0.2684
43447NA      NA32073   6.668   3.026   5.448 -0.1429 -0.1258 -0.3964
43448NA      NA32074   6.725   3.769   5.888 -0.1302  0.2359  0.4418
43449NA      NA32075   5.836   2.576   3.891  0.1545  0.0258  0.0849
43450NA      NA32076   0.008   0.766   6.399  0.1799 -0.0807  0.3575
43451NA      NA32077   7.517   4.334   3.678  0.0089  0.3003  0.6806
43452NA      NA32078   5.575   1.197   0.952  0.0212 -0.3657  0.2352
43453NA      NA32079   7.428   4.904   3.662 -0.5540  0.4143  0.1869
43454NA      NA32080   6.822   5.402   4.442  0.2371  0.5286 -0.5131
43455NA      NA32081   5.915   4.568   4.075 -1.0124 -0.2578 -0.3530
43456NA      NA32082   7.644   3.789   5.182  0.3283 -0.3075  0.1259
43457NA      NA32083   8.337   4.004   4.260 -0.0439  0.4476  0.5103
43458NA      NA32084   6.740   3.207   6.261  0.1953 -0.1042  0.5849
43459NA      NA32085   7.015   5.217   5.968 -0.4766  0.1761 -0.3255
43460NA      NA32086   5.052   6.332   7.187 -0.1972  0.3161 -0.4015
43461NA      NA32087   5.398   4.038   0.027 -0.0966 -0.0068 -0.3102
43462NA      NA32088  10.080   8.639   5.062 -0.5894 -0.5231 -0.0584
43463NA      NA32089   6.952   0.244   3.043 -0.2198 -0.4910 -0.0882
43464NA      NA32090   8.013   9.744   5.648  0.0191 -0.0204  0.0838
43465NA      NA32091   8.954   8.147   3.373 -0.3623  0.6377  0.0628
43466NA      NA32092   8.903   7.203   3.517 -0.0496  0.7181  0.2210
43467NA      NA32093   0.327   5.473   3.357  0.5579  0.7681 -0.0973
43468NA      NA32094   7.301   0.863   0.688  0.0844 -0.2434  0.0230
43469NA      NA32095   1.253   9.534   6.787  0.8529  0.5270  0.1280
43470NA      NA32096   0.591   8.534   9.235  0.3741 -0.2951 -0.2541
43471NA      NA32097   7.743   9.349   3.713  0.7606  0.5794 -0.0919
43472NA      NA32098  10.108   1.447   2.079 -0.0283  0.0145 -0.0771
43473NA      NA32099   7.355   9.003   4.590 -0.3486 -0.2835 -0.1483
43474NA      NA32100   1.186   8.593   6.843  0.6014 -0.1897  0.1335
43475NA      NA32101   9.525   4.132   0.501 -0.0918  0.0706 -0.0643
43476NA      NA32102   7.666   5.572   5.262 -0.3276  0.2218  0.6660
43477NA      NA32103   9.530   1.433   5.743  0.1177 -0.1585  0.3292
43478NA      NA32104  11.083   8.368   6.309 -0.0230 -0.6508  0.0424
43479NA      NA32105  10.786   4.919   7.397  0.4905 -0.0234  0.0622
43480NA      NA32106   8.261   4.420   5.371 -0.5741  0.4214 -0.3408
43481NA      NA32107   1.327   5.172   0.849  0.2725  0.1918 -0.1728
43482NA      NA32108   3.185   4.740   5.429 -0.3353  0.0077 -0.3378
43483NA      NA32109  10.520   4.789   6.131  0.2406 -0.0812  0.4350
43484NA      NA32110   0.655   9.818   4.707  0.6310 -0.4288 -0.1455
43485NA      NA32111   2.019   3.441   6.294 -0.1056 -0.1152  0.4037
43486NA      NA32112  10.813   5.225   9.540  0.3641 -0.1766 -0.1067
43487NA      NA32113  10.090   6.051   8.606  0.1596 -0.1006 -0.1116
43488NA      NA32114  10.769   7.475  10.201 -0.1477  0.0076 -0.4279
43489NA      NA32115   7.300   8.194   0.207  0.6190  0.6927 -0.2437
43490NA      NA32116   0.801   5.367   7.584 -0.4410  0.4355 -0.1982
43491NA      NA32117  10.944   9.685   8.946  0.1048  0.1945  0.1838
43492NA      NA32118   8.004   5.926   5.533 -0.1673 -0.2789 -0.0027
43493NA      NA32119   3.408   6.045   5.824  0.0060 -0.0439 -0.1595
43494NA      NA32120   2.033   8.100   6.367  0.9395 -0.2236 -0.3763
43495NA      NA32121   6.015   6.516   7.175  0.3625 -0.0456 -0.3151
43496NA      NA32122   0.712   0.214   9.498  0.0797 -0.2073 -0.3705
43497NA      NA32123  10.350   7.615   8.747 -0.3379  0.4773  0.2836
43498NA      NA32124   7.286   8.566   5.716 -0.2909  0.0360  0.0776
43499NA      NA32125   8.753   8.044   1.298  0.6614  0.0896  0.0287
43500NA      NA32126   1.297  10.471   3.098  0.1890  0.1608 -0.1928
43501NA      NA32127   2.635   7.721   4.277  0.0700  0.3795  0.2835
43502NA      NA32128   8.013   9.833   6.463  0.1768 -0.1296 -0.4403
43503NA      NA32129  10.730   2.742   7.936 -0.4788 -0.3102 -0.0458
43504CL      CL32130  10.197   0.913  10.788 -0.0468 -0.0188 -0.0349
43505CL      CL32131  10.900   4.957   3.099  0.2528 -0.3030  0.2180
43506CL      CL32132   9.956  10.543   7.996 -0.3814 -0.2338 -0.1571
43507CL      CL32133   3.898   9.575   1.580 -0.1538 -0.0394  0.1406
43508CL      CL32134   0.310   4.142   0.806  0.5886 -0.6805  0.2370
43509CL      CL32135   8.466   3.056   7.180 -0.2510 -0.0167 -0.0524
43510CL      CL32136   3.715  10.610   9.598 -0.1553 -0.3176  0.0027
43511CL      CL32137   3.584   2.288  11.071  0.0714  0.3647  0.2047
43512CL      CL32138   8.473   4.063  10.580 -0.7037 -0.1352  0.1543
43513CL      CL32139   8.383   5.176   9.071 -0.0270  0.3657  0.5530
43514CL      CL32140  10.414   3.175   6.865 -0.5029  0.1117  0.0365
43515CL      CL32141   3.092   8.137   8.265  0.1266  0.2292  0.3291
43516CL      CL32142   3.350   4.587   0.466  0.0866 -0.1214  0.5479
43517CL      CL32143   8.835   8.629   3.356  0.1332  0.3111 -0.3325
43518CL      CL32144   0.466   3.341   5.154  0.1980  0.2894 -0.1163
43519CL      CL32145   5.866   2.484   1.445  0.1037  0.1656  0.0954
43520CL      CL32146   0.918  10.606   9.681  0.3945 -0.1339  0.0718
43521CL      CL32147   0.699   8.211   9.287  0.0828 -0.1481 -0.1466
43522CL      CL32148   1.737   5.808   1.538 -0.3037 -0.4371 -0.2334
43523CL      CL32149   9.078   6.197   5.317  0.2118  0.5041 -0.1525
43524CL      CL32150   1.261   8.216  10.709  0.4026  0.1279  0.2845
43525CL      CL32151   2.842   6.882  10.037  0.0481 -0.2302 -0.0098
43526CL      CL32152   2.473   0.799   3.545  0.2769 -0.2761 -0.3304
43527CL      CL32153   9.089   9.717   3.711 -0.0725 -0.0651 -0.0464
43528CL      CL32154  10.226  10.146   4.767 -0.2947 -0.2675 -0.1410
43529CL      CL32155  10.704   6.144   9.326 -0.1322  0.1519 -0.0738
43530CL      CL32156   0.664   6.497   2.996  0.1550 -0.3217 -0.1335
43531CL      CL32157   3.747   2.846   1.328 -0.1448 -0.5073 -0.1647
43532CL      CL32158   3.606  10.834  10.142 -0.3500  0.0040 -0.1430
43533CL      CL32159   9.545   8.898   2.348  0.4775 -0.5119  0.0646
43534CL      CL32160   0.964   4.542   9.192 -0.1737 -0.1730  0.1978
43535CL      CL32161   1.733   2.681   4.984  0.6040  0.3255  0.3419
43536CL      CL32162   4.983   0.709   4.956  0.0658  0.1118  0.2976
43537CL      CL32163   3.322   8.537   1.279 -0.0134  0.5162 -0.0277
43538CL      CL32164   0.247   1.393   5.942 -0.1548  0.5132 -0.1104
43539CL      CL32165   9.887   8.077   3.545  0.0371 -0.2078  0.5169
43540CL      CL32166   6.799   5.389  10.000 -0.0331  0.1383 -0.1975
43541CL      CL32167   7.133   8.696   0.632  0.3279  0.1809  0.6339
43542CL      CL32168   1.227   1.947   5.608  0.1431  0.0268 -0.0998
43543CL      CL32169   2.321   8.336   1.916 -0.0037  0.2579 -0.0161
43544CL      CL32170   2.125   8.661  10.084 -0.2332 -0.5526  0.0186
43545CL      CL32171   2.138   9.645  10.255  0.0865  0.3122 -0.4219
43546CL      CL32172   2.330   9.854   3.713 -0.0475 -0.0396  0.3695
43547CL      CL32173   5.292  11.035   2.281  0.1550  0.3569 -0.1849
43548CL      CL32174   5.116   8.306   5.116  0.2731 -0.2077 -0.1767
43549CL      CL32175   0.759   0.664   9.235  0.1605 -0.1050 -0.0525
43550CL      CL32176   1.186  10.100   7.928  0.5970 -0.0513  0.0957
43551CL      CL32177   4.743  10.235   8.841  0.0713 -0.0149 -0.2446
43552CL      CL32178   0.978   9.499   5.597  0.2614  0.2232 -0.1732
43553CL      CL32179   4.661   4.111   9.841 -0.2945 -0.3209 -0.2374
43554CL      CL32180  10.059  10.217   3.747  0.1314  0.1834 -0.1595
43555CL      CL32181   2.681   1.744   4.414 -0.0979 -0.3798  0.0442
43556CL      CL32182   3.716   5.431   0.157  0.0373  0.2866 -0.0471
43557CL      CL32183   6.667   9.226   1.985 -0.2629  0.3012  0.0391
43558CL      CL32184   2.396   5.050   7.861 -0.3220  0.3171  0.0901
43559CL      CL32185   4.731   7.367   9.491 -0.0603  0.0060 -0.1359
43560CL      CL32186  10.509   7.065  10.369 -0.0404  0.1748 -0.2281
43561CL      CL32187   0.633   5.579   4.047  0.2444 -0.7366  0.5286
43562CL      CL32188   4.645  10.985   4.816 -0.1345  0.1102 -0.1276
43563CL      CL32189   6.133   2.948   6.332 -0.0475 -0.2043 -0.1790
43564CL      CL32190   8.691   1.950   2.126 -0.0582 -0.1308  0.1710
43565CL      CL32191   3.237   0.095   0.518  0.4259 -0.1419  0.1026
43566CL      CL32192   2.298   1.256   0.795 -0.5217  0.1325  0.0923
43567CL      CL32193   2.168   9.888   8.771  0.3647  0.0642  0.1542
43568CL      CL32194   5.928  10.058   6.943 -0.1379 -0.2115  0.0614
43569CL      CL32195  10.291   0.505   1.828 -0.1006 -0.3711 -0.2673
43570CL      CL32196   0.383   7.778   5.746 -0.1055 -0.1274  0.2430
43571CL      CL32197   8.430   1.667   9.437  0.2238 -0.8355  0.4207
43572CL      CL32198   3.154   6.439   3.443  0.4659  0.4022 -0.1289
43573CL      CL32199   7.161   0.412   0.546  0.2131  0.0457  0.1414
43574CL      CL32200   4.945   1.105   1.057 -0.3902 -0.0302  0.2146
43575CL      CL32201   3.384   5.944   9.640 -0.1438 -0.0881 -0.3047
43576CL      CL32202  10.920   7.998  10.298 -0.0130  0.3193 -0.0489
43577CL      CL32203   6.938   2.424   7.645  0.0656  0.1000  0.4966
43578CL      CL32204   7.206   7.802   5.085  0.1563 -0.2339  0.0507
43579CL      CL32205   7.639   1.226   3.357 -0.1390 -0.2423 -0.1095
43580CL      CL32206   6.332   7.945   2.304  0.2393 -0.2006 -0.4918
43581CL      CL32207   7.711   1.659  10.256 -0.5515 -0.2975  0.0764
43582CL      CL32208   6.685  10.441   9.703  0.2020  0.2154  0.3033
43583CL      CL32209   3.466   0.325   8.497 -0.3705  0.1313  0.1754
43584CL      CL32210   7.976  10.501   7.663 -0.0478 -0.1045  0.0987
43585CL      CL32211   8.307  10.949   0.851  0.2198  0.0277 -0.5169
43586CL      CL32212   8.908   7.153   4.208 -0.3998  0.1331  0.0542
43587CL      CL32213   9.290   0.432   5.333 -0.0405  0.0397  0.3712
43588CL      CL32214  10.209   7.353   3.602 -0.1509 -0.5470  0.0627
43589CL      CL32215  10.193   0.509   7.225  0.3470  0.2126  0.1116
43590CL      CL32216   5.503   4.064   0.580 -0.2424 -0.0338 -0.1727
43591CL      CL32217   8.552   3.540   4.282  0.2333  0.2924  0.2224
43592CL      CL32218   0.420   4.996   2.507 -0.3414  0.1627 -0.3661
43593CL      CL32219   6.529   8.743   3.934  0.3089 -0.2776 -0.0530
43594CL      CL32220  10.800   1.942   4.757 -0.1537 -0.3062  0.1542
43595CL      CL32221   8.180   4.322   2.092  0.3994  0.0686  0.2469
43596CL      CL32222   1.096   0.608   4.403  0.1408 -0.1620 -0.3624
43597CL      CL32223   3.865   4.665   4.376  0.0762 -0.1274  0.3699
43598CL      CL32224   7.272   4.463   3.131 -0.2234 -0.1594 -0.1886
43599CL      CL32225  10.608   8.351   2.122  0.0902 -0.0793 -0.1366
43600CL      CL32226   7.091   0.813   8.683 -0.2762  0.2102 -0.1957
43601CL      CL32227   6.893   7.443   0.176  0.2555 -0.6398 -0.0632
43602CL      CL32228  10.952   6.283   8.242  0.0141 -0.0175  0.3559
43603CL      CL32229   6.318  10.016  10.565  0.3283  0.0638  0.3170
43604CL      CL32230   2.427   6.057   0.675  0.2120 -0.0785 -0.1482
43605CL      CL32231  10.833  10.485   9.115 -0.3041  0.1490 -0.1057
43606CL      CL32232  10.515  10.105   5.806  0.6672  0.0090 -0.0245
43607CL      CL32233   0.914   6.452   7.085 -0.1009  0.0488  0.0098
43608CL      CL32234   8.554   8.935   7.745 -0.3176  0.0522 -0.7434
43609CL      CL32235   7.304  10.715   3.841 -0.0820  0.1428 -0.2898
43610CL      CL32236   7.802  10.665   8.470  0.2491  0.3190  0.3924
43611CL      CL32237   9.962   2.464   2.392  0.1604  0.2908 -0.0710
43612CL      CL32238   5.132   2.336   2.843  0.0504 -0.0580  0.2405
43613CL      CL32239   5.047   2.260   8.336  0.3548  0.2534  0.0023
43614CL      CL32240   1.450   2.501   1.218 -0.3126  0.0021  0.6668
43615CL      CL32241   4.121   3.290   3.217  0.0891 -0.2878 -0.0367
43616CL      CL32242   2.463   3.966   4.805  0.0829  0.2096  0.3039
43617CL      CL32243   1.097   5.489   4.328 -0.0644 -0.1450 -0.0837
43618CL      CL32244  10.113   4.702   3.917 -0.3688  0.1844 -0.0968
43619CL      CL32245   1.973   4.888   8.374 -0.1678  0.1210  0.1448
43620CL      CL32246   2.190   5.528   8.431  0.1652  0.2494  0.0237
43621CL      CL32247   0.836   3.245  10.952  0.0647 -0.0147 -0.1688
43622CL      CL32248  10.961   4.662  10.457 -0.0174  0.2262 -0.0872
43623CL      CL32249   6.189   7.557   3.749 -0.1453 -0.1020  0.0271
43624CL      CL32250   9.285   9.047   7.102  0.3109 -0.0246  0.7452
43625CL      CL32251   2.182   8.204  10.149 -0.0775 -0.2011 -0.0466
43626CL      CL32252   0.684   7.599  10.621  0.0912 -0.3673  0.4538
43627CL      CL32253   7.786   9.079   9.658 -0.0803  0.2102  0.6165
  11.10136  11.10136  11.10136
